Title
82350
    1SAPS     N    1   3.542   3.805   9.674 -0.5126 -0.7621  0.8318
    1SAPS   HN1    2   3.571   3.745   9.595  1.9431  1.4569  0.0104
    1SAPS   HN2    3   3.449   3.849   9.659 -1.3753 -2.7865  0.0163
    1SAPS   HN3    4   3.610   3.884   9.672  0.9084 -2.0148 -0.7678
    1SAPS   C12    5   3.553   3.726   9.794  0.4277  0.9674  0.7303
    1SAPS  H12A    6   3.650   3.678   9.792  0.8790  1.9002  0.1222
    1SAPS   C13    7   3.537   3.815   9.920  0.4463  1.0079 -0.0088
    1SAPS  O13A    8   3.511   3.933   9.903 -0.0666  0.1621  0.0948
    1SAPS  O13B    9   3.551   3.760  10.034  0.1017 -0.1917  0.0003
    1SAPS   C11   10   3.441   3.617   9.801  1.4545  0.1899 -0.0377
    1SAPS  H11A   11   3.355   3.687   9.798  2.6500  1.6143 -2.2341
    1SAPS  H11B   12   3.447   3.575   9.904  0.6723  1.5285  0.5622
    1SAPS     P   13   3.359   3.392   9.705  0.2356  0.0397 -0.0562
    1SAPS   O13   14   3.436   3.267   9.732  0.2695  0.4066 -0.2772
    1SAPS   O14   15   3.248   3.427   9.797  0.2907  0.5818  0.2650
    1SAPS   O12   16   3.451   3.515   9.698  0.4933 -0.4896 -0.3207
    1SAPS   O11   17   3.307   3.391   9.558  0.3559  0.0349  0.1461
    1SAPS    C1   18   3.326   3.489   9.453  0.4575  1.2975  0.0486
    1SAPS    HA   19   3.254   3.471   9.370  0.2839  4.1163 -0.4581
    1SAPS    HB   20   3.304   3.591   9.490  1.7658  0.6427  2.7477
    1SAPS    C2   21   3.470   3.482   9.384 -0.3668  1.0140  0.1206
    1SAPS    HS   22   3.552   3.500   9.457  1.2213 -2.4426 -0.6934
    1SAPS   O21   23   3.473   3.572   9.271 -0.4937  0.7126 -0.2313
    1SAPS   C21   24   3.512   3.697   9.303  0.6887  0.5776 -0.5081
    1SAPS   O22   25   3.534   3.731   9.417 -0.4076 -0.3459  0.3902
    1SAPS   C22   26   3.538   3.786   9.173 -0.3099  0.8980 -0.1218
    1SAPS   H2R   27   3.630   3.756   9.121 -0.9819 -0.0340 -0.7752
    1SAPS   H2S   28   3.439   3.778   9.122 -0.3947 -1.3465  0.3804
    1SAPS    C3   29   3.493   3.339   9.328  0.0406 -0.0595 -0.6551
    1SAPS    HX   30   3.509   3.276   9.418  1.4913  1.8031  0.4386
    1SAPS    HY   31   3.579   3.340   9.257  0.0729  3.5771 -0.6832
    1SAPS   O31   32   3.388   3.298   9.243  0.6251 -0.0753  0.2878
    1SAPS   C31   33   3.324   3.197   9.285 -0.1667 -0.5023 -0.1303
    1SAPS   O32   34   3.351   3.123   9.381 -0.2290  0.0477  0.0462
    1SAPS   C32   35   3.221   3.165   9.173  0.4768 -0.0406  0.3408
    1SAPS   H2X   36   3.279   3.161   9.079  2.2217 -0.2391  1.3975
    1SAPS   H2Y   37   3.148   3.249   9.173  1.1061  0.5694 -2.8910
    1SAPS   C23   38   3.554   3.938   9.213  0.3342  0.1983  0.1612
    1SAPS   H3R   39   3.634   3.949   9.290  0.1432 -0.9659  0.5288
    1SAPS   H3S   40   3.458   3.969   9.259  0.0818 -2.5409  1.6208
    1SAPS   C24   41   3.598   4.041   9.101  0.1365 -0.4247  0.1425
    1SAPS   H4R   42   3.610   4.144   9.142  1.2127 -0.9529  1.1804
    1SAPS   H4S   43   3.518   4.038   9.025  0.1512 -1.8096  0.1760
    1SAPS   C25   44   3.725   3.991   9.036  0.4508  0.5362 -0.0905
    1SAPS   H5R   45   3.813   4.024   9.094  0.2094 -0.1144  0.6536
    1SAPS   C26   46   3.753   3.931   8.921 -0.5149 -0.8047  0.0137
    1SAPS   H6R   47   3.855   3.915   8.882 -0.6161 -0.3864 -0.4288
    1SAPS   C27   48   3.663   3.887   8.812 -0.3755 -0.9325  0.2958
    1SAPS   H7R   49   3.631   3.781   8.824 -1.0135 -0.8858 -1.0168
    1SAPS   H7S   50   3.730   3.881   8.724  0.9741 -0.5075  1.2742
    1SAPS   C28   51   3.559   3.990   8.773  1.2152  0.1727  0.8292
    1SAPS   H8R   52   3.464   3.960   8.820  1.1576  0.6983  1.0560
    1SAPS   C29   53   3.567   4.077   8.673  0.4901 -0.3660  0.1875
    1SAPS   H9R   54   3.497   4.161   8.684  0.4842 -0.5899  2.0167
    1SAPS  C210   55   3.679   4.100   8.575 -0.0999  0.4245  0.6121
    1SAPS  H10R   56   3.700   4.003   8.526  1.1382  0.9135  0.1558
    1SAPS  H10S   57   3.774   4.133   8.623  1.3714  0.8125 -2.4359
    1SAPS  C211   58   3.630   4.211   8.484  0.9301  0.0033 -0.4271
    1SAPS  H11R   59   3.609   4.303   8.539 -2.2257 -1.0394  0.2100
    1SAPS  C212   60   3.630   4.211   8.347 -0.4690  0.0233  0.4922
    1SAPS  H12R   61   3.603   4.302   8.291  1.8498  0.9805  0.8905
    1SAPS  C213   62   3.674   4.101   8.254 -0.0425 -0.9731 -0.2417
    1SAPS  H13R   63   3.779   4.078   8.282  0.1851  0.5608  0.2075
    1SAPS  H13S   64   3.678   4.140   8.150  0.8580 -1.6014 -0.4513
    1SAPS  C214   65   3.592   3.973   8.252 -0.4071 -0.3089 -0.8247
    1SAPS  H14R   66   3.494   3.975   8.301 -0.7076 -3.0675 -1.2387
    1SAPS  C215   67   3.628   3.860   8.189 -0.1348  0.4980  0.2354
    1SAPS  H15R   68   3.557   3.777   8.198  0.9035 -0.6353 -1.7996
    1SAPS  C216   69   3.760   3.830   8.116 -0.2544  0.0216 -0.1954
    1SAPS  H16R   70   3.792   3.923   8.063 -0.2966  0.0016 -0.2571
    1SAPS  H16S   71   3.734   3.765   8.030 -3.2739  1.1628 -0.1822
    1SAPS  C217   72   3.876   3.768   8.195 -0.1865 -0.3016 -0.2807
    1SAPS  H17R   73   3.839   3.671   8.236  1.9111 -0.2753  1.7789
    1SAPS  H17S   74   3.893   3.833   8.283  0.5782 -1.7776  0.6870
    1SAPS  C218   75   4.002   3.770   8.116 -0.1578  0.5996  0.7121
    1SAPS  H18R   76   4.038   3.875   8.106  0.4373  0.0654 -3.5588
    1SAPS  H18S   77   3.991   3.722   8.017  2.6419 -0.1846  0.7451
    1SAPS  C219   78   4.117   3.706   8.194 -0.4118  0.4270  0.0560
    1SAPS  H19R   79   4.106   3.596   8.200  0.7841  0.1608 -1.9023
    1SAPS  H19S   80   4.120   3.751   8.295 -0.1978 -0.1637  0.3099
    1SAPS  C220   81   4.256   3.720   8.122 -0.6813  0.1752 -0.0924
    1SAPS  H20R   82   4.258   3.672   8.022 -1.1650 -0.7593  0.3339
    1SAPS  H20S   83   4.329   3.664   8.185  0.4478 -0.0776 -1.5879
    1SAPS  H20T   84   4.290   3.824   8.103  0.9326 -0.2726  0.2659
    1SAPS   C33   85   3.163   3.028   9.189 -0.1344  0.7842 -0.0935
    1SAPS   H3X   86   3.127   3.015   9.293 -0.4937  1.6167 -0.1057
    1SAPS   H3Y   87   3.244   2.959   9.160 -1.1519 -1.5348  2.4056
    1SAPS   C34   88   3.038   2.994   9.100 -0.0952  0.1553 -0.1275
    1SAPS   H4X   89   2.959   3.064   9.134 -0.5569 -0.4033 -0.0309
    1SAPS   H4Y   90   3.011   2.890   9.127  0.5134  0.2731  0.9526
    1SAPS   C35   91   3.065   2.995   8.952 -0.9634  0.1974 -0.5832
    1SAPS   H5X   92   3.169   2.958   8.940  0.0754  2.2215  1.7594
    1SAPS   H5Y   93   3.058   3.094   8.903  0.3925  0.3459 -0.5036
    1SAPS   C36   94   2.971   2.903   8.875 -0.6247 -0.1168 -0.1947
    1SAPS   H6X   95   2.867   2.941   8.891 -0.2085  0.9133  0.0864
    1SAPS   H6Y   96   2.966   2.801   8.920 -0.1645  0.2434  0.6823
    1SAPS   C37   97   3.003   2.895   8.727  0.4548 -1.1161  0.6379
    1SAPS   H7X   98   2.968   2.803   8.676 -1.0888  0.3700 -1.0638
    1SAPS   H7Y   99   3.112   2.914   8.718  0.0660  0.8578 -0.1917
    1SAPS   C38  100   2.959   3.017   8.646  0.0009  0.1342  0.1282
    1SAPS   H8X  101   2.985   3.110   8.701 -0.1223  0.2549 -0.0191
    1SAPS   H8Y  102   2.850   3.007   8.627  0.0636 -1.6056  0.5680
    1SAPS   C39  103   3.013   3.012   8.502 -0.2100 -0.3150 -0.0838
    1SAPS   H9X  104   2.983   2.918   8.451 -3.6241  0.4260  0.4566
    1SAPS   H9Y  105   3.124   3.020   8.504 -0.2395  0.1788 -0.1928
    1SAPS  C310  106   2.962   3.127   8.408 -0.6941  1.0571 -0.5041
    1SAPS  H10X  107   3.007   3.215   8.458 -0.5745 -1.6782  4.4972
    1SAPS  H10Y  108   2.852   3.133   8.419 -0.6683  1.2872 -0.3751
    1SAPS  C311  109   3.008   3.114   8.265 -0.6369  1.1258  0.6666
    1SAPS  H11X  110   2.992   3.012   8.225  1.4771  0.4891  1.3948
    1SAPS  H11Y  111   3.110   3.158   8.258  0.0645 -0.8404 -1.8229
    1SAPS  C312  112   2.920   3.202   8.185  0.4918 -1.0674  0.4563
    1SAPS  H12X  113   2.879   3.294   8.231 -0.7292 -0.2610 -2.0895
    1SAPS  H12Y  114   2.826   3.148   8.158  0.3008  0.3338 -1.8093
    1SAPS  C313  115   2.987   3.245   8.054  0.0408 -0.6192  0.2273
    1SAPS  H13X  116   3.044   3.161   8.009 -0.3091 -0.5419 -0.3740
    1SAPS  H13Y  117   3.057   3.328   8.072 -0.3623 -0.0158 -0.8854
    1SAPS  C314  118   2.870   3.295   7.962  0.6269 -0.4647  0.3347
    1SAPS  H14X  119   2.796   3.220   7.927 -1.5533  0.5953  2.4401
    1SAPS  H14Y  120   2.925   3.340   7.877  1.8882  0.6472  1.6961
    1SAPS  C315  121   2.777   3.409   8.023  0.5604  0.3134  0.6040
    1SAPS  H15X  122   2.855   3.476   8.065  2.0793 -0.6942 -0.5439
    1SAPS  H15Y  123   2.705   3.378   8.102  0.2141  2.5997  1.2201
    1SAPS  C316  124   2.705   3.491   7.922  0.1175 -0.1644 -0.4101
    1SAPS  H16X  125   2.608   3.441   7.900 -0.6417  1.7912 -1.6304
    1SAPS  H16Y  126   2.772   3.506   7.835 -0.1760  4.1314 -0.0163
    1SAPS  C317  127   2.666   3.631   7.980 -0.0798  0.9081 -0.0468
    1SAPS  H17X  128   2.604   3.686   7.906  1.4039 -0.0288 -2.0323
    1SAPS  H17Y  129   2.760   3.690   7.991  0.8657 -0.5804  0.0380
    1SAPS  C318  130   2.600   3.635   8.118  0.3925  0.0733 -0.1269
    1SAPS  H18X  131   2.499   3.589   8.113 -0.9241  2.7370  0.9719
    1SAPS  H18Y  132   2.575   3.739   8.149 -0.3153  0.0632 -0.6364
    1SAPS  H18Z  133   2.655   3.569   8.188  1.1986 -1.5142 -2.1770
    2SAPS     N  134   2.264   3.052   9.975 -0.6199 -0.4848  0.4202
    2SAPS   HN1  135   2.307   3.041  10.069 -0.7270 -2.1181  0.2900
    2SAPS   HN2  136   2.268   2.964   9.919 -1.9836 -0.5041  0.3377
    2SAPS   HN3  137   2.320   3.119   9.920  0.3191 -1.1918  0.4998
    2SAPS   C12  138   2.121   3.098   9.972 -0.2716  0.3522 -0.7264
    2SAPS  H12A  139   2.059   3.011   9.984  1.0781 -0.1457  3.5851
    2SAPS   C13  140   2.086   3.191  10.098 -0.4984 -0.4822 -0.3327
    2SAPS  O13A  141   2.174   3.197  10.185 -0.1552  0.4090 -0.4344
    2SAPS  O13B  142   1.966   3.187  10.129 -0.6000  0.0884  0.2787
    2SAPS   C11  143   2.086   3.167   9.833 -0.2756  0.0306 -0.0268
    2SAPS  H11A  144   2.128   3.108   9.748  1.4497 -0.6756  1.2805
    2SAPS  H11B  145   2.144   3.262   9.828 -0.6371  0.2405 -0.1810
    2SAPS     P  146   1.883   3.264   9.691 -0.1184 -0.1773 -0.0119
    2SAPS   O13  147   1.782   3.165   9.629  0.6410 -0.0086  0.0636
    2SAPS   O14  148   1.836   3.404   9.723  0.6721 -0.3324  0.2449
    2SAPS   O12  149   1.945   3.202   9.814 -0.1425  0.3569 -0.1843
    2SAPS   O11  150   2.007   3.286   9.598 -0.7058  0.1012 -0.1374
    2SAPS    C1  151   2.079   3.201   9.505 -0.0248  0.5162  0.1500
    2SAPS    HA  152   2.086   3.096   9.539  2.3686  0.6960  0.3154
    2SAPS    HB  153   2.030   3.214   9.406  0.7757  0.9885 -0.1932
    2SAPS    C2  154   2.224   3.247   9.485 -0.3329  0.6373 -0.0535
    2SAPS    HS  155   2.257   3.276   9.587 -0.5591  1.8174 -0.2972
    2SAPS   O21  156   2.218   3.363   9.401  0.4040 -0.7046  0.2761
    2SAPS   C21  157   2.219   3.486   9.453  0.0981  0.3236  0.4100
    2SAPS   O22  158   2.234   3.512   9.570  0.1972  0.8227 -0.1933
    2SAPS   C22  159   2.208   3.597   9.346  0.6763  0.3962  0.2661
    2SAPS   H2R  160   2.248   3.547   9.255  0.6252  0.6401  0.1097
    2SAPS   H2S  161   2.104   3.630   9.327  0.9193  0.0829 -1.6894
    2SAPS    C3  162   2.322   3.142   9.420 -0.5575 -0.5043  0.2797
    2SAPS    HX  163   2.327   3.050   9.482  0.5522  0.4091  1.5774
    2SAPS    HY  164   2.423   3.189   9.425 -0.5985 -0.4051  0.1704
    2SAPS   O31  165   2.279   3.112   9.286 -0.1106  0.0079  0.3837
    2SAPS   C31  166   2.330   3.178   9.184 -0.3899  0.7978  0.5559
    2SAPS   O32  167   2.428   3.246   9.186 -0.6819  0.0344  0.0902
    2SAPS   C32  168   2.269   3.115   9.056 -0.1105 -0.6663  0.1173
    2SAPS   H2X  169   2.298   3.008   9.062  0.1477 -0.7928 -2.7712
    2SAPS   H2Y  170   2.319   3.161   8.968 -0.4382 -1.3204 -0.4160
    2SAPS   C23  171   2.304   3.717   9.371 -0.2137  0.1897  0.2071
    2SAPS   H3R  172   2.378   3.671   9.439  0.8048  2.1056  0.4203
    2SAPS   H3S  173   2.249   3.784   9.440 -0.8402 -0.7770  0.6646
    2SAPS   C24  174   2.362   3.778   9.245 -0.3932  0.1066 -0.7428
    2SAPS   H4R  175   2.416   3.863   9.291  0.1249 -1.6414  1.9889
    2SAPS   H4S  176   2.274   3.814   9.188 -0.6018 -0.0167 -0.5001
    2SAPS   C25  177   2.450   3.699   9.147  0.0189  0.1468 -0.2039
    2SAPS   H5R  178   2.539   3.647   9.183 -0.3784 -1.1592 -1.0793
    2SAPS   C26  179   2.425   3.677   9.020  0.2226  0.1525  0.5453
    2SAPS   H6R  180   2.503   3.623   8.965 -0.2856 -0.1129  0.0889
    2SAPS   C27  181   2.317   3.733   8.939 -0.2186 -0.4287  0.1068
    2SAPS   H7R  182   2.217   3.735   8.987 -1.7546  1.1554 -3.0103
    2SAPS   H7S  183   2.311   3.659   8.857 -0.7565 -0.2199 -0.0450
    2SAPS   C28  184   2.334   3.875   8.892  0.0090 -0.4106  0.1886
    2SAPS   H8R  185   2.273   3.950   8.945 -1.4520  0.0447 -2.0317
    2SAPS   C29  186   2.416   3.936   8.796  0.3205  0.1564  0.3043
    2SAPS   H9R  187   2.403   4.042   8.768 -0.5557 -0.2618 -0.8839
    2SAPS  C210  188   2.512   3.867   8.702 -0.3010  0.4754 -0.1936
    2SAPS  H10R  189   2.514   3.921   8.604 -0.5090  1.5201  0.3655
    2SAPS  H10S  190   2.478   3.767   8.670  1.3446  0.2893 -1.4613
    2SAPS  C211  191   2.655   3.848   8.744 -0.2135 -0.1470  0.3527
    2SAPS  H11R  192   2.667   3.786   8.834  1.3457 -1.0555 -0.4539
    2SAPS  C212  193   2.767   3.890   8.685  0.0251  1.1225  0.3353
    2SAPS  H12R  194   2.864   3.856   8.724 -1.1918 -2.6307  0.2839
    2SAPS  C213  195   2.771   3.972   8.559  0.4266  0.1481  0.1254
    2SAPS  H13R  196   2.833   4.062   8.579 -1.6933  1.7928 -0.4922
    2SAPS  H13S  197   2.678   4.025   8.527  2.0727  0.9968 -3.4797
    2SAPS  C214  198   2.835   3.895   8.447 -0.3268 -0.1299 -0.3082
    2SAPS  H14R  199   2.882   3.802   8.482  0.8830  1.2960  1.9053
    2SAPS  C215  200   2.834   3.925   8.314 -0.5760 -0.5413  0.2352
    2SAPS  H15R  201   2.910   3.871   8.254 -0.7530 -1.0957  0.5052
    2SAPS  C216  202   2.771   4.047   8.249 -0.0404 -0.2972  0.2704
    2SAPS  H16R  203   2.845   4.101   8.186 -0.1659 -1.4332 -0.8824
    2SAPS  H16S  204   2.720   4.110   8.325 -0.1020 -0.8718  0.7111
    2SAPS  C217  205   2.660   4.004   8.149  0.1014  0.0941  0.4514
    2SAPS  H17R  206   2.591   3.936   8.203  0.4939 -1.5046 -0.9928
    2SAPS  H17S  207   2.694   3.942   8.063 -1.2872  2.9216 -2.2057
    2SAPS  C218  208   2.573   4.115   8.111 -0.6316 -0.3037 -0.7186
    2SAPS  H18R  209   2.522   4.160   8.198  0.1693  1.3724 -1.1071
    2SAPS  H18S  210   2.494   4.061   8.053 -0.9605 -0.5128 -0.0818
    2SAPS  C219  211   2.630   4.213   8.005 -0.0779  0.2266 -0.0639
    2SAPS  H19R  212   2.706   4.171   7.937  0.7113 -0.5695  1.2799
    2SAPS  H19S  213   2.675   4.297   8.063 -1.1160  1.4347 -0.9753
    2SAPS  C220  214   2.514   4.274   7.921  0.7479  0.6836  0.2085
    2SAPS  H20R  215   2.554   4.354   7.856 -1.8044 -0.9990 -3.5642
    2SAPS  H20S  216   2.442   4.327   7.987  1.6945  1.0615  0.9623
    2SAPS  H20T  217   2.477   4.192   7.856 -0.6053  0.1570  1.6133
    2SAPS   C33  218   2.116   3.136   9.056  0.4470  0.0711  0.3151
    2SAPS   H3X  219   2.077   3.093   9.151  2.2815  1.2170  1.6148
    2SAPS   H3Y  220   2.080   3.059   8.984 -0.8631 -0.8168  1.8754
    2SAPS   C34  221   2.058   3.274   9.008  0.0477  0.1135  0.5363
    2SAPS   H4X  222   2.101   3.355   9.070 -0.9000  1.9593 -1.1690
    2SAPS   H4Y  223   1.947   3.278   9.016  0.1876 -0.1441  3.0439
    2SAPS   C35  224   2.116   3.313   8.863 -0.1226 -0.0264 -0.7766
    2SAPS   H5X  225   2.226   3.324   8.871 -0.5002  2.7454  1.3199
    2SAPS   H5Y  226   2.078   3.411   8.827 -2.8376 -0.2070  1.3676
    2SAPS   C36  227   2.076   3.216   8.760  0.4449  1.2112  0.8871
    2SAPS   H6X  228   1.971   3.183   8.777  0.6749 -0.3284 -0.6321
    2SAPS   H6Y  229   2.140   3.126   8.763  0.3287  1.0858 -0.0392
    2SAPS   C37  230   2.087   3.272   8.619 -0.6405  0.1390  0.7444
    2SAPS   H7X  231   2.021   3.359   8.599  1.5648  1.2893 -2.0625
    2SAPS   H7Y  232   2.038   3.192   8.560  0.2396 -0.5658  0.9578
    2SAPS   C38  233   2.229   3.299   8.578  0.4402 -0.6696 -0.2567
    2SAPS   H8X  234   2.290   3.219   8.626 -0.9135 -0.9202  1.0957
    2SAPS   H8Y  235   2.258   3.398   8.619 -1.1310  0.1656 -1.1423
    2SAPS   C39  236   2.252   3.303   8.431  0.2819  0.0616 -0.2258
    2SAPS   H9X  237   2.167   3.367   8.398 -1.4673 -0.7932  2.4851
    2SAPS   H9Y  238   2.249   3.201   8.387 -0.7506 -0.5882  1.3156
    2SAPS  C310  239   2.387   3.367   8.383 -0.2465 -0.4993  0.3270
    2SAPS  H10X  240   2.414   3.363   8.275  0.0541  1.6267  0.3053
    2SAPS  H10Y  241   2.471   3.313   8.432 -0.8634 -1.8658 -0.1093
    2SAPS  C311  242   2.412   3.520   8.407 -0.0103 -0.1324  0.2509
    2SAPS  H11X  243   2.520   3.542   8.395 -0.2648  0.9653 -0.0524
    2SAPS  H11Y  244   2.409   3.535   8.517  1.7632  1.3763  0.1116
    2SAPS  C312  245   2.311   3.608   8.334 -0.4297  0.4486  1.0266
    2SAPS  H12X  246   2.205   3.576   8.333 -0.4282  0.4357 -0.2775
    2SAPS  H12Y  247   2.355   3.602   8.232  1.2871  0.0279  1.7627
    2SAPS  C313  248   2.328   3.751   8.382  0.0892  0.2673 -0.0869
    2SAPS  H13X  249   2.408   3.800   8.322  0.1582 -0.8842 -0.9472
    2SAPS  H13Y  250   2.354   3.757   8.490 -2.9541  2.4460  0.6055
    2SAPS  C314  251   2.205   3.835   8.360  0.1067  0.4847  0.3406
    2SAPS  H14X  252   2.219   3.916   8.435  1.3307 -0.3061  0.9806
    2SAPS  H14Y  253   2.113   3.778   8.387  0.4409 -0.2694 -0.0958
    2SAPS  C315  254   2.204   3.894   8.226 -0.2991  0.0232  0.6273
    2SAPS  H15X  255   2.185   3.807   8.159  1.0163  2.2661 -2.7273
    2SAPS  H15Y  256   2.297   3.943   8.192 -1.0478  1.7265  0.9717
    2SAPS  C316  257   2.086   3.992   8.216  0.3314 -0.0922  0.0425
    2SAPS  H16X  258   2.105   4.077   8.285 -0.1153 -1.4283  1.8509
    2SAPS  H16Y  259   1.996   3.941   8.257  0.5239  0.0729  0.6847
    2SAPS  C317  260   2.070   4.037   8.062 -0.6269  0.0377 -0.0153
    2SAPS  H17X  261   1.989   4.112   8.051 -0.5567  0.3461  1.4819
    2SAPS  H17Y  262   2.042   3.946   8.004 -1.0446 -0.7017  1.3231
    2SAPS  C318  263   2.193   4.104   7.992  0.0128 -0.5202 -0.2687
    2SAPS  H18X  264   2.173   4.166   7.902 -2.1082 -0.4739  0.2106
    2SAPS  H18Y  265   2.276   4.034   7.968  0.0495 -1.6284  2.8036
    2SAPS  H18Z  266   2.239   4.179   8.060 -0.0488 -0.7044 -0.0224
    3SAPS     N  267   2.034   5.486   9.766  0.2923  0.3105 -0.0060
    3SAPS   HN1  268   2.099   5.427   9.711 -1.2319 -0.5069 -0.9651
    3SAPS   HN2  269   1.958   5.524   9.707  1.0659  0.8942 -0.6352
    3SAPS   HN3  270   2.094   5.560   9.808  0.6536  1.3716 -2.3488
    3SAPS   C12  271   1.978   5.409   9.883 -0.0213 -0.1915 -0.4524
    3SAPS  H12A  272   2.062   5.366   9.934  0.5067  0.3000 -0.8960
    3SAPS   C13  273   1.892   5.485   9.978 -0.3932 -0.2264 -0.3209
    3SAPS  O13A  274   1.863   5.607   9.960  0.1405  0.2754 -0.5035
    3SAPS  O13B  275   1.825   5.424  10.065 -0.2678  0.2939 -0.3100
    3SAPS   C11  276   1.890   5.300   9.813 -0.5684  0.2766  0.5145
    3SAPS  H11A  277   1.799   5.347   9.769 -1.1014  0.4987  1.8457
    3SAPS  H11B  278   1.855   5.236   9.897 -2.5894  0.0837 -0.4401
    3SAPS     P  279   2.065   5.113   9.742  0.4297 -0.3234  0.3043
    3SAPS   O13  280   2.184   5.185   9.777 -0.3100 -0.0772 -0.3008
    3SAPS   O14  281   2.004   5.020   9.842 -0.1075 -0.5076  0.5003
    3SAPS   O12  282   1.959   5.225   9.710 -0.0887 -0.6175  0.0241
    3SAPS   O11  283   2.080   5.042   9.604 -0.5524 -0.1199 -0.2067
    3SAPS    C1  284   2.000   5.064   9.484  0.4972 -0.1079  0.3566
    3SAPS    HA  285   1.957   5.166   9.476  0.3188 -0.2052  0.0659
    3SAPS    HB  286   2.068   5.058   9.396  0.1304  1.5432 -0.0511
    3SAPS    C2  287   1.877   4.974   9.480  0.2279 -0.0144 -0.3774
    3SAPS    HS  288   1.887   4.904   9.565  0.0265 -0.0086 -0.3518
    3SAPS   O21  289   1.877   4.901   9.350  0.2515 -0.0213 -0.4342
    3SAPS   C21  290   1.801   4.790   9.354  0.6983  0.3302 -0.2869
    3SAPS   O22  291   1.736   4.750   9.452  0.7647  0.0023 -0.2545
    3SAPS   C22  292   1.825   4.714   9.229  0.4926 -0.6526 -0.3125
    3SAPS   H2R  293   1.845   4.772   9.136 -1.1682 -0.3445 -0.4783
    3SAPS   H2S  294   1.913   4.648   9.246 -0.5535 -1.6652  1.2403
    3SAPS    C3  295   1.745   5.056   9.496  0.1276 -0.3305 -0.4473
    3SAPS    HX  296   1.756   5.125   9.583 -1.5009  0.8005 -1.1133
    3SAPS    HY  297   1.669   4.985   9.536 -2.0797  1.4353 -1.4362
    3SAPS   O31  298   1.708   5.125   9.378 -0.5816 -0.3333  0.4343
    3SAPS   C31  299   1.590   5.195   9.381 -0.3348  0.5551 -0.5162
    3SAPS   O32  300   1.511   5.194   9.475 -0.1718  0.2279 -0.1124
    3SAPS   C32  301   1.584   5.302   9.265 -0.2630  0.9591  0.3434
    3SAPS   H2X  302   1.659   5.378   9.295  0.5532 -0.1709  1.2319
    3SAPS   H2Y  303   1.490   5.359   9.274  0.2363  1.6676  1.1719
    3SAPS   C23  304   1.698   4.634   9.187  0.2063 -0.6542 -0.9301
    3SAPS   H3R  305   1.614   4.706   9.202 -0.5112 -1.5588 -0.5014
    3SAPS   H3S  306   1.675   4.547   9.253  0.9521 -0.8161 -0.8884
    3SAPS   C24  307   1.719   4.583   9.046  0.3703  0.1073 -0.0985
    3SAPS   H4R  308   1.734   4.661   8.969  0.6116  0.7709  0.6150
    3SAPS   H4S  309   1.624   4.532   9.017  0.4861 -0.6762  0.8548
    3SAPS   C25  310   1.843   4.502   9.025 -0.3376  0.4503  0.4090
    3SAPS   H5R  311   1.883   4.455   9.116  0.2244  1.4015  0.6566
    3SAPS   C26  312   1.906   4.478   8.908 -0.0343 -0.0813  0.5778
    3SAPS   H6R  313   1.997   4.416   8.913 -0.4556 -0.7332  0.3126
    3SAPS   C27  314   1.877   4.525   8.768 -0.1318 -1.0285 -0.5319
    3SAPS   H7R  315   1.780   4.578   8.764  1.3263  1.7067 -0.8044
    3SAPS   H7S  316   1.868   4.435   8.704  0.9252 -2.9473  1.9031
    3SAPS   C28  317   1.977   4.635   8.720 -0.1299 -0.3442 -0.2804
    3SAPS   H8R  318   2.052   4.662   8.796  1.1800 -2.2287 -0.9044
    3SAPS   C29  319   1.966   4.708   8.603 -0.1514  0.1506  0.8497
    3SAPS   H9R  320   2.044   4.783   8.585  1.2605 -0.6151  3.5703
    3SAPS  C210  321   1.866   4.672   8.494 -0.1976 -0.4817  0.1782
    3SAPS  H10R  322   1.847   4.757   8.426 -1.1092 -0.6277  0.2333
    3SAPS  H10S  323   1.766   4.656   8.541 -0.9730  1.4774 -0.7555
    3SAPS  C211  324   1.897   4.549   8.418 -1.1234  0.2027  0.1601
    3SAPS  H11R  325   1.967   4.482   8.469  0.3165  1.4910 -0.0933
    3SAPS  C212  326   1.853   4.514   8.290 -0.5029  0.3604  0.9685
    3SAPS  H12R  327   1.906   4.424   8.255  0.2693  2.0228 -2.2480
    3SAPS  C213  328   1.763   4.591   8.193  0.3360  0.0778  0.4993
    3SAPS  H13R  329   1.757   4.532   8.099 -0.9518 -1.6138  1.6116
    3SAPS  H13S  330   1.820   4.684   8.172  0.3499 -0.6526 -2.9815
    3SAPS  C214  331   1.633   4.651   8.236 -0.0504 -0.6752 -0.2809
    3SAPS  H14R  332   1.617   4.757   8.210 -0.8860 -0.8174 -0.3795
    3SAPS  C215  333   1.526   4.603   8.299  0.6261 -0.0735  0.3667
    3SAPS  H15R  334   1.444   4.671   8.329 -0.3828 -0.6646 -1.0113
    3SAPS  C216  335   1.517   4.456   8.343  0.7266  0.4580  0.3983
    3SAPS  H16R  336   1.528   4.451   8.453  0.0304  1.4726  0.5257
    3SAPS  H16S  337   1.586   4.389   8.288  1.0382  0.1971  1.1147
    3SAPS  C217  338   1.368   4.414   8.312  1.1898 -0.6242  0.5753
    3SAPS  H17R  339   1.304   4.472   8.382  1.1126 -0.7646  0.6205
    3SAPS  H17S  340   1.358   4.305   8.330  2.4370 -0.8283  0.0730
    3SAPS  C218  341   1.323   4.417   8.160  0.9150 -0.0804  0.8968
    3SAPS  H18R  342   1.396   4.362   8.096 -0.4194  1.4700 -2.0764
    3SAPS  H18S  343   1.335   4.520   8.121  1.4583  0.2988  2.0633
    3SAPS  C219  344   1.182   4.376   8.142  0.5070 -0.3611  0.8874
    3SAPS  H19R  345   1.122   4.424   8.222  1.4030  1.3424  0.5590
    3SAPS  H19S  346   1.178   4.265   8.157 -2.8071 -0.8497 -2.7550
    3SAPS  C220  347   1.121   4.404   8.002  0.8129 -0.5719  0.4451
    3SAPS  H20R  348   1.101   4.513   7.999  2.0954 -0.3413 -0.1853
    3SAPS  H20S  349   1.023   4.354   7.986 -0.0220  0.7651  1.2614
    3SAPS  H20T  350   1.189   4.375   7.919 -1.1303 -3.6912 -0.1411
    3SAPS   C33  351   1.603   5.258   9.116  0.0195 -0.0292 -0.6049
    3SAPS   H3X  352   1.581   5.351   9.060 -0.0677 -0.2535 -0.9496
    3SAPS   H3Y  353   1.528   5.181   9.088  2.3202 -1.7983 -2.0642
    3SAPS   C34  354   1.746   5.214   9.092  0.0534 -1.0306 -0.2841
    3SAPS   H4X  355   1.774   5.125   9.153 -2.3052 -0.7417  1.2677
    3SAPS   H4Y  356   1.818   5.294   9.119 -0.5573 -0.1184 -1.3085
    3SAPS   C35  357   1.768   5.175   8.940  0.4265  0.8210 -0.2216
    3SAPS   H5X  358   1.874   5.201   8.924  0.5216  0.0317 -0.9265
    3SAPS   H5Y  359   1.697   5.226   8.871 -2.6284 -0.1669  2.0709
    3SAPS   C36  360   1.747   5.022   8.915 -0.5187 -0.8361 -0.3973
    3SAPS   H6X  361   1.643   4.992   8.940 -1.0734  3.1329  2.6571
    3SAPS   H6Y  362   1.819   4.976   8.986  0.0347  0.7928  0.1193
    3SAPS   C37  363   1.792   4.988   8.770 -0.4182  0.3627 -0.6069
    3SAPS   H7X  364   1.765   4.881   8.757 -0.0178 -0.1817  2.4190
    3SAPS   H7Y  365   1.904   4.985   8.770 -0.4567 -1.9512 -1.3024
    3SAPS   C38  366   1.737   5.071   8.657  0.0683  0.2999  0.3890
    3SAPS   H8X  367   1.775   5.041   8.557  0.5594 -1.8966  1.1976
    3SAPS   H8Y  368   1.760   5.180   8.660  0.4629  0.2001  0.9643
    3SAPS   C39  369   1.580   5.064   8.650  0.1416 -0.2037  0.3295
    3SAPS   H9X  370   1.538   5.107   8.744  3.1123 -0.1182  1.6954
    3SAPS   H9Y  371   1.551   4.957   8.643 -4.1740  0.8966 -0.0744
    3SAPS  C310  372   1.524   5.145   8.528 -1.3957  0.2637  0.8272
    3SAPS  H10X  373   1.588   5.134   8.438 -1.7495  1.6921  0.3842
    3SAPS  H10Y  374   1.521   5.253   8.552  1.9135  0.3862  0.8593
    3SAPS  C311  375   1.389   5.093   8.490  0.5295 -0.0457  0.2022
    3SAPS  H11X  376   1.316   5.119   8.570 -0.1708  2.3000 -1.1622
    3SAPS  H11Y  377   1.399   4.984   8.473 -0.7431  0.0501 -1.2853
    3SAPS  C312  378   1.333   5.144   8.355  0.0847 -0.2486  0.6362
    3SAPS  H12X  379   1.314   5.253   8.355 -1.1371 -0.4134 -2.1201
    3SAPS  H12Y  380   1.232   5.097   8.356 -0.5322  1.0788  1.7866
    3SAPS  C313  381   1.402   5.099   8.225  0.0602 -0.4491  0.2987
    3SAPS  H13X  382   1.419   4.989   8.228  3.3171  0.0039  0.0251
    3SAPS  H13Y  383   1.501   5.149   8.220  0.8420 -2.1608 -2.2933
    3SAPS  C314  384   1.321   5.137   8.105  0.6311 -0.5140 -0.1446
    3SAPS  H14X  385   1.212   5.118   8.117  0.5104  1.0053  1.4155
    3SAPS  H14Y  386   1.353   5.079   8.017 -0.1780  1.5450 -1.8390
    3SAPS  C315  387   1.353   5.286   8.057  0.4423  0.5860 -1.0181
    3SAPS  H15X  388   1.420   5.325   8.136 -1.0138  1.9762 -0.4356
    3SAPS  H15Y  389   1.252   5.332   8.053 -0.1977 -0.8096 -1.5003
    3SAPS  C316  390   1.421   5.299   7.915  0.2797 -0.3773 -0.1230
    3SAPS  H16X  391   1.342   5.264   7.845  0.0183  1.1169 -0.6096
    3SAPS  H16Y  392   1.508   5.231   7.915 -0.7069 -1.7199  2.6489
    3SAPS  C317  393   1.443   5.442   7.878  0.3966 -0.6577  0.0375
    3SAPS  H17X  394   1.346   5.493   7.861  0.4703  0.4575  2.6805
    3SAPS  H17Y  395   1.498   5.465   7.784 -1.0699  1.0676 -0.4403
    3SAPS  C318  396   1.517   5.525   7.987  0.2224  0.5764  0.3027
    3SAPS  H18X  397   1.444   5.569   8.058  1.7266  1.7084  1.1677
    3SAPS  H18Y  398   1.563   5.612   7.936 -0.1188  0.5402 -0.0715
    3SAPS  H18Z  399   1.595   5.470   8.044  2.1963  1.8718 -1.0773
    4SAPS     N  400   3.607   5.946   9.910 -0.6406  0.3523 -0.8817
    4SAPS   HN1  401   3.536   5.905   9.847 -1.3438 -0.2236  0.2547
    4SAPS   HN2  402   3.693   5.984   9.865 -0.4347  0.5659 -0.3247
    4SAPS   HN3  403   3.627   5.868   9.977 -2.4129  1.5533  1.1245
    4SAPS   C12  404   3.564   6.061   9.996  0.3183  0.2757  0.0670
    4SAPS  H12A  405   3.498   6.123   9.937  1.5831 -0.3743 -2.0852
    4SAPS   C13  406   3.485   6.013  10.121  0.0283  0.5337 -0.1182
    4SAPS  O13A  407   3.486   5.892  10.149 -0.3948 -0.0133  0.0767
    4SAPS  O13B  408   3.447   6.097  10.211 -0.4605  0.0944  0.5573
    4SAPS   C11  409   3.694   6.149  10.028 -0.9341 -0.3915  0.6404
    4SAPS  H11A  410   3.757   6.092  10.099  1.1947  0.9041 -0.1483
    4SAPS  H11B  411   3.649   6.236  10.079 -1.5331 -0.2502 -0.1127
    4SAPS     P  412   3.748   6.301   9.820  0.1405 -0.1848  0.2573
    4SAPS   O13  413   3.647   6.392   9.879  0.7018 -0.2556 -0.1449
    4SAPS   O14  414   3.879   6.357   9.774  0.3566  0.0891 -0.1494
    4SAPS   O12  415   3.770   6.184   9.918 -0.5070 -0.5005  0.1182
    4SAPS   O11  416   3.679   6.234   9.701 -0.6327  0.2122 -0.2602
    4SAPS    C1  417   3.741   6.122   9.639  0.0236  0.2041 -0.1192
    4SAPS    HA  418   3.839   6.090   9.680 -0.1488  4.4893  3.9785
    4SAPS    HB  419   3.669   6.037   9.629  0.2937  0.0510 -0.7785
    4SAPS    C2  420   3.760   6.159   9.489 -0.9690 -0.6756 -0.5035
    4SAPS    HS  421   3.769   6.063   9.435 -0.4172 -1.4107  0.8684
    4SAPS   O21  422   3.883   6.240   9.478 -0.5308 -0.2276 -0.3649
    4SAPS   C21  423   3.989   6.168   9.474 -0.1734 -0.9048 -0.1308
    4SAPS   O22  424   4.004   6.049   9.484 -0.1581 -0.0262  0.1778
    4SAPS   C22  425   4.107   6.269   9.491 -0.4477  0.4841  0.1903
    4SAPS   H2R  426   4.085   6.338   9.407 -0.8407  1.7297  1.2921
    4SAPS   H2S  427   4.108   6.338   9.578  0.7184 -0.4011  0.9020
    4SAPS    C3  428   3.630   6.235   9.442 -0.2791 -0.2581  0.0522
    4SAPS    HX  429   3.625   6.334   9.493  1.0272  0.5433 -1.3523
    4SAPS    HY  430   3.539   6.171   9.449  0.7286 -1.8106 -0.7003
    4SAPS   O31  431   3.642   6.282   9.305  0.1846 -0.0512 -0.3242
    4SAPS   C31  432   3.608   6.201   9.212 -0.1021  0.2210 -0.8477
    4SAPS   O32  433   3.585   6.080   9.231 -0.0232  0.1350  0.1446
    4SAPS   C32  434   3.589   6.279   9.081 -0.1418  0.1156  0.4761
    4SAPS   H2X  435   3.661   6.364   9.087  0.4515 -0.4212  1.1259
    4SAPS   H2Y  436   3.491   6.329   9.096 -0.0690 -0.1589  1.9427
    4SAPS   C23  437   4.258   6.213   9.476 -0.1672  0.3077  0.3594
    4SAPS   H3R  438   4.252   6.105   9.454  1.3930 -0.2828  2.6566
    4SAPS   H3S  439   4.301   6.210   9.578  1.1360  0.1343 -0.1737
    4SAPS   C24  440   4.344   6.284   9.372 -0.5052 -0.4378  0.3993
    4SAPS   H4R  441   4.300   6.269   9.271  0.2409  0.9808 -0.1516
    4SAPS   H4S  442   4.446   6.243   9.366  0.2791  1.1090  2.3440
    4SAPS   C25  443   4.346   6.431   9.410 -0.3504  0.0243 -0.2687
    4SAPS   H5R  444   4.314   6.460   9.511 -1.8326  0.1682 -0.7739
    4SAPS   C26  445   4.393   6.527   9.325  0.8626  0.5880  0.0325
    4SAPS   H6R  446   4.381   6.632   9.353 -1.8928  0.5763 -0.9717
    4SAPS   C27  447   4.441   6.507   9.183  0.6100  0.0732 -0.9636
    4SAPS   H7R  448   4.348   6.507   9.121  1.5911 -2.3358 -2.5307
    4SAPS   H7S  449   4.482   6.403   9.182  1.2994  0.3324 -0.2237
    4SAPS   C28  450   4.550   6.598   9.126 -0.5683  0.7052 -0.1466
    4SAPS   H8R  451   4.645   6.601   9.181  0.8398 -0.3502 -2.4496
    4SAPS   C29  452   4.537   6.658   9.006  0.5468  0.4166 -0.0095
    4SAPS   H9R  453   4.620   6.700   8.947 -2.2168  0.9289 -3.7055
    4SAPS  C210  454   4.408   6.657   8.925  0.1795  0.3413  0.7746
    4SAPS  H10R  455   4.315   6.653   8.985 -1.2927 -0.8363 -1.4979
    4SAPS  H10S  456   4.403   6.586   8.840 -1.5046  0.5162  0.7059
    4SAPS  C211  457   4.406   6.793   8.860  0.3975  0.2060 -0.3032
    4SAPS  H11R  458   4.391   6.871   8.936 -0.1103 -0.5814  0.4120
    4SAPS  C212  459   4.435   6.836   8.737 -1.1150  0.2605  0.6545
    4SAPS  H12R  460   4.427   6.942   8.708  2.3308  0.4714  0.3206
    4SAPS  C213  461   4.487   6.758   8.615 -0.1250 -0.2911 -0.2988
    4SAPS  H13R  462   4.556   6.676   8.643 -0.4552 -1.0768 -1.7315
    4SAPS  H13S  463   4.547   6.827   8.552 -0.6210 -1.9351 -2.6452
    4SAPS  C214  464   4.376   6.690   8.532  0.2389  0.7467 -0.6122
    4SAPS  H14R  465   4.297   6.639   8.588  0.0594  0.4432 -1.1406
    4SAPS  C215  466   4.367   6.684   8.398  0.3207 -0.0991 -0.2102
    4SAPS  H15R  467   4.277   6.635   8.359  1.1189 -1.7581 -0.0362
    4SAPS  C216  468   4.467   6.736   8.300  0.3520 -0.3217 -0.3093
    4SAPS  H16R  469   4.538   6.807   8.345  0.8435  3.0982 -5.9630
    4SAPS  H16S  470   4.423   6.796   8.217 -0.8703 -2.1333 -1.0293
    4SAPS  C217  471   4.537   6.611   8.248 -0.5680  0.0238 -0.4665
    4SAPS  H17R  472   4.470   6.529   8.215  0.0978 -0.3878 -0.7964
    4SAPS  H17S  473   4.592   6.554   8.325 -1.2674  0.5614  0.4412
    4SAPS  C218  474   4.638   6.635   8.136 -0.1968  0.2025 -0.7683
    4SAPS  H18R  475   4.688   6.730   8.166 -0.4431  0.0597  0.1241
    4SAPS  H18S  476   4.577   6.649   8.045 -1.5746 -1.9880 -0.2178
    4SAPS  C219  477   4.729   6.520   8.114  0.1261  0.9240 -0.1867
    4SAPS  H19R  478   4.797   6.510   8.202  0.0299 -1.7592 -0.3723
    4SAPS  H19S  479   4.796   6.548   8.030  0.6201  1.9531  0.5309
    4SAPS  C220  480   4.659   6.382   8.080  0.2450 -0.8720 -0.2305
    4SAPS  H20R  481   4.741   6.308   8.068  1.4921  0.3925  0.2727
    4SAPS  H20S  482   4.596   6.391   7.989 -0.4412 -0.0457  0.3185
    4SAPS  H20T  483   4.601   6.353   8.170 -0.1056 -0.7541 -0.4193
    4SAPS   C33  484   3.595   6.176   8.961 -0.2341 -0.2786 -0.1890
    4SAPS   H3X  485   3.511   6.104   8.967 -0.3852 -0.3894 -2.7344
    4SAPS   H3Y  486   3.692   6.123   8.977  0.0997 -0.7196 -3.3022
    4SAPS   C34  487   3.582   6.245   8.814 -0.5917 -0.5363  0.4023
    4SAPS   H4X  488   3.661   6.324   8.806 -0.6635 -0.6969 -2.3359
    4SAPS   H4Y  489   3.487   6.302   8.804 -0.5998 -0.2506  1.9148
    4SAPS   C35  490   3.584   6.146   8.700 -0.1022  0.4592 -0.3303
    4SAPS   H5X  491   3.526   6.189   8.616 -2.5160  0.0139  1.0576
    4SAPS   H5Y  492   3.542   6.048   8.733  0.6483 -0.4613 -2.0592
    4SAPS   C36  493   3.730   6.128   8.650 -0.2896  0.7963 -0.2013
    4SAPS   H6X  494   3.796   6.081   8.726 -0.3685 -0.6336 -0.9850
    4SAPS   H6Y  495   3.776   6.225   8.623  0.8959 -0.1472 -1.6918
    4SAPS   C37  496   3.761   6.042   8.529  0.2133  0.3725  0.2180
    4SAPS   H7X  497   3.690   6.072   8.450  2.0235  2.1715 -0.7753
    4SAPS   H7Y  498   3.742   5.933   8.544 -0.9956  0.4564 -0.6267
    4SAPS   C38  499   3.910   6.073   8.488 -0.7611  1.1831 -0.3471
    4SAPS   H8X  500   3.970   6.053   8.579 -1.3332 -0.4747 -0.3190
    4SAPS   H8Y  501   3.921   6.180   8.459  1.6383  0.9841 -0.2709
    4SAPS   C39  502   3.971   6.002   8.372  0.3600  0.2771 -0.0342
    4SAPS   H9X  503   4.071   6.045   8.349  0.2354  0.9246  0.6206
    4SAPS   H9Y  504   3.911   6.023   8.281  2.5513  0.0038 -1.5953
    4SAPS  C310  505   3.990   5.852   8.383 -0.3431  0.6369 -0.2159
    4SAPS  H10X  506   3.894   5.801   8.404 -0.2481  1.5291  2.5094
    4SAPS  H10Y  507   4.043   5.837   8.479  0.1865 -0.7820 -0.7120
    4SAPS  C311  508   4.067   5.783   8.265  0.2996  0.1856 -0.8161
    4SAPS  H11X  509   4.168   5.826   8.253  1.0271 -0.4496  2.5686
    4SAPS  H11Y  510   4.014   5.790   8.167 -0.9717 -1.2349 -0.2549
    4SAPS  C312  511   4.078   5.633   8.298  0.6127 -0.3366  0.0753
    4SAPS  H12X  512   3.977   5.595   8.325  0.6120 -0.5233 -0.1913
    4SAPS  H12Y  513   4.124   5.640   8.399  0.0950  0.9791  0.2177
    4SAPS  C313  514   4.129   5.531   8.201 -0.0289 -0.4555  0.1525
    4SAPS  H13X  515   4.068   5.539   8.109  1.1795  0.6184 -0.5841
    4SAPS  H13Y  516   4.118   5.434   8.254  2.0752 -0.6579  0.2839
    4SAPS  C314  517   4.282   5.558   8.174 -0.0147 -0.2599 -0.5331
    4SAPS  H14X  518   4.336   5.527   8.266 -0.2618 -0.9977 -0.6278
    4SAPS  H14Y  519   4.287   5.668   8.159 -1.4746  0.0324  0.9534
    4SAPS  C315  520   4.342   5.484   8.057  0.3363  0.7025  0.0444
    4SAPS  H15X  521   4.352   5.374   8.069  3.6321  0.7405 -1.7113
    4SAPS  H15Y  522   4.443   5.525   8.036 -0.4070  3.1627  1.1462
    4SAPS  C316  523   4.268   5.505   7.929  0.1878 -0.7214  0.1287
    4SAPS  H16X  524   4.276   5.614   7.909 -0.4399 -0.8409 -0.7991
    4SAPS  H16Y  525   4.162   5.478   7.944  0.4814 -0.5402  2.8271
    4SAPS  C317  526   4.332   5.426   7.810 -0.2907 -0.3220 -0.1122
    4SAPS  H17X  527   4.417   5.371   7.856  1.6100  1.4366 -1.4431
    4SAPS  H17Y  528   4.369   5.503   7.739 -0.5192 -0.6054 -0.5337
    4SAPS  C318  529   4.247   5.317   7.752 -0.2664 -0.1175 -0.5375
    4SAPS  H18X  530   4.307   5.265   7.675  1.9791  0.5331  0.7321
    4SAPS  H18Y  531   4.152   5.338   7.698 -0.3543 -0.9671 -0.7139
    4SAPS  H18Z  532   4.231   5.242   7.832  3.3026 -1.5284 -1.0479
    5SAPS     N  533   6.544   5.036  10.120  0.0692  0.4391  0.3472
    5SAPS   HN1  534   6.539   5.140  10.113 -1.5406  0.2958 -1.0565
    5SAPS   HN2  535   6.446   5.002  10.112 -0.1540  0.7784  1.6029
    5SAPS   HN3  536   6.588   5.004  10.208 -1.0829 -2.2851 -0.0230
    5SAPS   C12  537   6.629   4.978  10.018 -0.0010 -0.0963 -0.0403
    5SAPS  H12A  538   6.666   5.063   9.963 -0.0741  1.0032  1.5669
    5SAPS   C13  539   6.740   4.884  10.070  0.0464  0.1606 -0.6807
    5SAPS  O13A  540   6.761   4.877  10.195 -0.0067 -0.4025  0.5344
    5SAPS  O13B  541   6.822   4.840   9.986 -0.2503 -0.2122 -0.1679
    5SAPS   C11  542   6.539   4.906   9.914 -0.5378 -0.2569 -0.7347
    5SAPS  H11A  543   6.496   4.819   9.967 -1.5519  1.4111  1.2757
    5SAPS  H11B  544   6.602   4.864   9.833  1.0533  0.5079  0.0909
    5SAPS     P  545   6.398   5.003   9.708 -0.5539 -0.2921  0.0446
    5SAPS   O13  546   6.333   4.885   9.647 -0.3672 -0.7038 -1.1731
    5SAPS   O14  547   6.315   5.130   9.695  0.1224 -0.2120  0.0567
    5SAPS   O12  548   6.429   4.983   9.864 -0.2660  0.2008 -0.4251
    5SAPS   O11  549   6.540   5.029   9.645 -0.4715 -0.0858  0.1098
    5SAPS    C1  550   6.545   5.014   9.496  0.0514  0.5282  0.6026
    5SAPS    HA  551   6.493   4.920   9.468  2.1314 -0.9451  1.5080
    5SAPS    HB  552   6.511   5.112   9.458 -1.4550  0.1041  0.8154
    5SAPS    C2  553   6.688   4.983   9.451  0.5562 -0.4699 -0.4926
    5SAPS    HS  554   6.755   5.065   9.487  0.9442 -0.3809 -1.3975
    5SAPS   O21  555   6.706   4.979   9.314 -0.0126  0.5073  0.0552
    5SAPS   C21  556   6.705   5.086   9.242 -0.1050  1.1953 -1.0047
    5SAPS   O22  557   6.681   5.200   9.282  0.0747  0.0873 -0.2238
    5SAPS   C22  558   6.759   5.054   9.104  0.2244 -0.1285  0.6127
    5SAPS   H2R  559   6.781   5.146   9.047 -2.3740 -0.2428 -0.6491
    5SAPS   H2S  560   6.857   5.002   9.108  0.1026 -0.4031  0.1322
    5SAPS    C3  561   6.730   4.850   9.515  0.3659  0.1761  0.7194
    5SAPS    HX  562   6.722   4.869   9.624  1.0671  2.9915  0.3101
    5SAPS    HY  563   6.837   4.846   9.488  0.3977  0.8176  0.7459
    5SAPS   O31  564   6.662   4.727   9.462 -0.3309 -0.0054 -0.2118
    5SAPS   C31  565   6.639   4.636   9.551 -0.3840  0.0238  0.2047
    5SAPS   O32  566   6.633   4.653   9.677 -0.7692 -0.0384  0.2120
    5SAPS   C32  567   6.618   4.496   9.486  0.2066  0.2333  0.5577
    5SAPS   H2X  568   6.521   4.459   9.525  0.7420 -0.9379  0.8004
    5SAPS   H2Y  569   6.693   4.430   9.533 -1.0581 -0.2885  1.8656
    5SAPS   C23  570   6.671   4.952   9.025 -0.3762  0.8480  0.3635
    5SAPS   H3R  571   6.570   4.995   9.009 -0.7168 -0.0320  0.1240
    5SAPS   H3S  572   6.651   4.862   9.087 -1.4895  1.1929  0.5160
    5SAPS   C24  573   6.745   4.918   8.893 -0.0194  0.5539 -0.1781
    5SAPS   H4R  574   6.814   4.831   8.901  1.8493  1.5023 -4.4779
    5SAPS   H4S  575   6.803   5.005   8.856 -1.6685  0.5396 -2.9676
    5SAPS   C25  576   6.645   4.873   8.795 -0.4954  0.2452 -1.0945
    5SAPS   H5R  577   6.540   4.888   8.825  0.4886  0.3708  2.5210
    5SAPS   C26  578   6.655   4.802   8.684 -0.6541  0.0265  0.0267
    5SAPS   H6R  579   6.564   4.777   8.628 -0.8430  0.5612  0.0918
    5SAPS   C27  580   6.786   4.748   8.632  0.2348  0.0828 -0.2424
    5SAPS   H7R  581   6.864   4.821   8.663  0.5408 -0.9214  1.4130
    5SAPS   H7S  582   6.792   4.750   8.521 -1.0424  1.7879 -0.2975
    5SAPS   C28  583   6.811   4.616   8.692 -0.3157 -0.5041 -0.8418
    5SAPS   H8R  584   6.776   4.601   8.795  2.7014  0.0635  0.3237
    5SAPS   C29  585   6.865   4.505   8.635 -0.0462  0.2645 -0.1879
    5SAPS   H9R  586   6.868   4.412   8.693 -1.9651 -1.0664 -2.1371
    5SAPS  C210  587   6.919   4.504   8.488  0.2791 -0.1220  0.0837
    5SAPS  H10R  588   7.016   4.451   8.484  0.1782 -0.1830 -1.6651
    5SAPS  H10S  589   6.949   4.607   8.459  1.3794  0.0680  1.8110
    5SAPS  C211  590   6.828   4.428   8.391  0.3583  0.0578  0.1945
    5SAPS  H11R  591   6.756   4.354   8.431  1.8210 -0.6546  1.5698
    5SAPS  C212  592   6.820   4.444   8.258  0.0564  0.9701  0.3092
    5SAPS  H12R  593   6.765   4.368   8.201 -1.9555  3.5544 -1.2993
    5SAPS  C213  594   6.899   4.546   8.173 -0.4062  0.0827  0.3990
    5SAPS  H13R  595   6.863   4.650   8.195  1.0842  1.2915 -2.5807
    5SAPS  H13S  596   6.868   4.536   8.067  2.2756  0.9278 -0.5061
    5SAPS  C214  597   7.054   4.537   8.177  0.0091  0.5935 -0.1246
    5SAPS  H14R  598   7.093   4.603   8.255  1.6245  0.0491 -0.4629
    5SAPS  C215  599   7.118   4.446   8.106 -0.3373  0.4361  0.4118
    5SAPS  H15R  600   7.228   4.456   8.108 -0.4528  1.7498  1.3052
    5SAPS  C216  601   7.065   4.346   8.004  0.4232 -0.1417 -0.2090
    5SAPS  H16R  602   7.092   4.382   7.903  2.0104 -1.3411 -0.2402
    5SAPS  H16S  603   6.957   4.330   8.021  0.4866 -0.3221  0.0244
    5SAPS  C217  604   7.122   4.198   8.005  0.1010  0.2388 -0.5383
    5SAPS  H17R  605   7.231   4.203   7.984  0.3928  0.0302  0.8727
    5SAPS  H17S  606   7.067   4.148   7.922  0.8930 -1.0846 -0.2874
    5SAPS  C218  607   7.083   4.128   8.138  0.2356  0.1324 -0.1702
    5SAPS  H18R  608   7.006   4.189   8.191  0.4884 -0.4730  0.9033
    5SAPS  H18S  609   7.043   4.026   8.116  0.7098  0.0745 -0.7422
    5SAPS  C219  610   7.202   4.122   8.232 -0.4591 -0.6016  0.2988
    5SAPS  H19R  611   7.231   4.225   8.259 -0.8145 -0.8419  1.6356
    5SAPS  H19S  612   7.292   4.080   8.182 -2.6258 -0.8302 -3.6880
    5SAPS  C220  613   7.164   4.035   8.351  0.2840 -0.3285 -0.2851
    5SAPS  H20R  614   7.086   4.073   8.420 -1.4423 -4.0160 -0.0729
    5SAPS  H20S  615   7.251   3.998   8.410  0.1275  0.3753  0.3820
    5SAPS  H20T  616   7.117   3.944   8.308  1.3367 -1.1845  0.3630
    5SAPS   C33  617   6.638   4.489   9.335  0.1071 -0.1686  1.1311
    5SAPS   H3X  618   6.566   4.557   9.285 -0.3734  0.6180  2.8672
    5SAPS   H3Y  619   6.608   4.387   9.304  2.7047 -0.5741 -0.2392
    5SAPS   C34  620   6.781   4.500   9.278 -0.5074  0.2666 -0.0405
    5SAPS   H4X  621   6.846   4.429   9.332 -0.0374  0.8584  0.1831
    5SAPS   H4Y  622   6.828   4.599   9.300 -1.9122  0.8685  0.2898
    5SAPS   C35  623   6.774   4.465   9.128 -0.1126  0.5277 -0.4513
    5SAPS   H5X  624   6.731   4.553   9.076 -0.7598  1.3140  1.3588
    5SAPS   H5Y  625   6.703   4.383   9.106  0.6470 -0.5468  0.9769
    5SAPS   C36  626   6.901   4.425   9.063  0.6526  1.1740  0.0031
    5SAPS   H6X  627   6.879   4.397   8.958 -2.2485  0.4120  0.7496
    5SAPS   H6Y  628   6.932   4.331   9.113  0.9391  0.8867 -0.7121
    5SAPS   C37  629   7.013   4.523   9.078  0.5779  0.7341 -0.0120
    5SAPS   H7X  630   7.045   4.535   9.183  1.7121  0.6725 -0.3462
    5SAPS   H7Y  631   6.981   4.625   9.049  2.5395  1.2758 -0.3069
    5SAPS   C38  632   7.140   4.484   9.001  0.1102  0.1415 -0.1710
    5SAPS   H8X  633   7.196   4.396   9.040  1.1758  0.5095 -0.8501
    5SAPS   H8Y  634   7.213   4.564   9.025  0.8330 -0.6618  0.3412
    5SAPS   C39  635   7.119   4.478   8.851 -0.6416  0.3528  0.0693
    5SAPS   H9X  636   7.066   4.573   8.828  0.2303  0.6110 -0.9055
    5SAPS   H9Y  637   7.062   4.387   8.821  0.1903  0.0968 -0.7631
    5SAPS  C310  638   7.257   4.477   8.776  0.7016  0.0536 -0.1388
    5SAPS  H10X  639   7.287   4.372   8.798  0.0124 -0.3139 -0.9161
    5SAPS  H10Y  640   7.323   4.557   8.816  1.0080  1.0886 -2.6386
    5SAPS  C311  641   7.246   4.495   8.620 -0.2435  0.2319  0.1503
    5SAPS  H11X  642   7.183   4.581   8.591 -0.6089 -0.5544 -1.4166
    5SAPS  H11Y  643   7.206   4.399   8.581  1.9597 -1.9200  2.9338
    5SAPS  C312  644   7.385   4.513   8.549  0.0930 -0.5159 -0.0516
    5SAPS  H12X  645   7.462   4.438   8.576  1.8799  1.2043 -0.2434
    5SAPS  H12Y  646   7.419   4.615   8.576 -0.7955 -0.0817 -0.5762
    5SAPS  C313  647   7.377   4.510   8.396 -0.1215 -1.0888  0.2753
    5SAPS  H13X  648   7.309   4.591   8.364  1.1158 -0.1611 -0.0609
    5SAPS  H13Y  649   7.329   4.412   8.374 -3.4313  0.3653  0.7126
    5SAPS  C314  650   7.513   4.532   8.332 -0.3492  0.0360  0.1108
    5SAPS  H14X  651   7.582   4.473   8.396 -1.0530 -0.1254  0.7209
    5SAPS  H14Y  652   7.549   4.637   8.328 -3.3257  1.1312  0.8878
    5SAPS  C315  653   7.506   4.477   8.189  0.1433  0.0368 -0.8806
    5SAPS  H15X  654   7.427   4.520   8.124 -0.6371  0.9460  0.6306
    5SAPS  H15Y  655   7.498   4.366   8.186  0.2572 -0.1093  2.2710
    5SAPS  C316  656   7.631   4.515   8.114 -0.4792 -0.2507 -0.6743
    5SAPS  H16X  657   7.652   4.624   8.121 -0.9225 -0.1463 -0.9646
    5SAPS  H16Y  658   7.620   4.489   8.006  1.2902 -2.4365 -0.3580
    5SAPS  C317  659   7.759   4.451   8.168 -0.7984 -0.2047 -0.1193
    5SAPS  H17X  660   7.762   4.340   8.165 -1.3055 -0.1992 -0.8597
    5SAPS  H17Y  661   7.769   4.473   8.277 -1.0388  0.8035 -0.2992
    5SAPS  C318  662   7.881   4.512   8.103 -0.1509 -0.4997 -0.4813
    5SAPS  H18X  663   7.975   4.467   8.142  0.2954  1.7724  1.2200
    5SAPS  H18Y  664   7.890   4.622   8.111  1.6077 -0.6416 -0.3803
    5SAPS  H18Z  665   7.885   4.488   7.995  0.4203 -1.2338 -0.3046
    6SAPS     N  666   7.073   3.058  10.080 -0.0817  0.2449  0.4178
    6SAPS   HN1  667   7.000   3.087  10.148  0.2767  2.3187 -0.0607
    6SAPS   HN2  668   7.034   3.068   9.984  0.0639  0.1508  0.3496
    6SAPS   HN3  669   7.093   2.956  10.092  0.5686  0.3567  0.2632
    6SAPS   C12  670   7.194   3.137  10.113  0.1000  0.0770 -0.5958
    6SAPS  H12A  671   7.161   3.240  10.110  0.9979  0.3479 -1.2305
    6SAPS   C13  672   7.252   3.128  10.253  0.0487  0.0361  0.3691
    6SAPS  O13A  673   7.196   3.053  10.341  0.2251 -0.2763 -0.1654
    6SAPS  O13B  674   7.349   3.203  10.291  1.0052  0.5438 -0.0140
    6SAPS   C11  675   7.300   3.104  10.008 -0.3294 -0.4148 -0.0602
    6SAPS  H11A  676   7.333   2.999  10.023  1.9096  0.2256 -0.3542
    6SAPS  H11B  677   7.390   3.164  10.031 -1.8065  2.9779 -2.7454
    6SAPS     P  678   7.255   3.269   9.808 -0.1522 -0.2915 -0.5079
    6SAPS   O13  679   7.150   3.253   9.703  0.1806 -0.1025  0.2430
    6SAPS   O14  680   7.227   3.372   9.915 -0.2048  0.1538  0.0394
    6SAPS   O12  681   7.259   3.128   9.872 -0.1227  0.4630 -0.3368
    6SAPS   O11  682   7.405   3.285   9.757 -0.0995 -0.2307 -0.1479
    6SAPS    C1  683   7.465   3.416   9.763  0.2686  1.1243  0.0592
    6SAPS    HA  684   7.477   3.437   9.872 -1.1909 -2.9434  1.0742
    6SAPS    HB  685   7.567   3.421   9.718  0.4759  0.4191  0.4434
    6SAPS    C2  686   7.395   3.530   9.674 -0.1669  0.6870 -0.0539
    6SAPS    HS  687   7.285   3.519   9.690 -0.1281  2.0526  1.2670
    6SAPS   O21  688   7.430   3.506   9.537  0.3371 -0.2292 -0.0869
    6SAPS   C21  689   7.331   3.526   9.443 -0.6907  0.3039 -0.9916
    6SAPS   O22  690   7.222   3.571   9.468 -0.4025 -0.2458 -0.4240
    6SAPS   C22  691   7.395   3.493   9.304  0.3643 -0.1471 -0.9798
    6SAPS   H2R  692   7.504   3.512   9.315 -0.0858  1.4443  1.1807
    6SAPS   H2S  693   7.378   3.385   9.288 -0.3648 -0.0845 -0.6531
    6SAPS    C3  694   7.452   3.669   9.720  0.6841  0.0527  0.3414
    6SAPS    HX  695   7.557   3.676   9.683  0.8378 -3.9581 -0.1560
    6SAPS    HY  696   7.458   3.674   9.831 -1.8916  0.2254  0.4981
    6SAPS   O31  697   7.367   3.781   9.682 -0.6823  0.1788  0.3609
    6SAPS   C31  698   7.414   3.866   9.592 -0.2040  0.0609  0.0158
    6SAPS   O32  699   7.528   3.866   9.540 -0.2939 -0.0443  0.0929
    6SAPS   C32  700   7.295   3.957   9.566 -0.1293 -0.2202 -0.3267
    6SAPS   H2X  701   7.255   4.001   9.660  0.4452  1.5599 -0.8906
    6SAPS   H2Y  702   7.209   3.900   9.526 -1.6773  1.9634 -0.1740
    6SAPS   C23  703   7.325   3.574   9.196 -0.7393 -0.0390  0.0573
    6SAPS   H3R  704   7.356   3.680   9.189 -0.3440 -0.1484  0.1025
    6SAPS   H3S  705   7.215   3.568   9.210 -0.7747 -0.0695 -0.2305
    6SAPS   C24  706   7.339   3.527   9.048  0.2107 -0.2888  0.2999
    6SAPS   H4R  707   7.258   3.580   8.994  1.1302  1.0727  0.2260
    6SAPS   H4S  708   7.307   3.421   9.043 -0.2890 -0.1510  0.5138
    6SAPS   C25  709   7.473   3.537   8.983 -0.5831 -0.4007 -0.8941
    6SAPS   H5R  710   7.556   3.529   9.055  0.9910 -1.6323 -2.7814
    6SAPS   C26  711   7.490   3.531   8.851 -0.3887 -0.6496  0.1385
    6SAPS   H6R  712   7.594   3.527   8.814 -1.2848  0.4563 -2.6205
    6SAPS   C27  713   7.387   3.523   8.743  0.2924  0.1183  1.0870
    6SAPS   H7R  714   7.297   3.475   8.787  0.4180 -0.6986  0.4778
    6SAPS   H7S  715   7.413   3.466   8.650  2.3168  2.5679  0.0960
    6SAPS   C28  716   7.331   3.656   8.711  0.1010  0.7364 -0.5605
    6SAPS   H8R  717   7.324   3.719   8.801 -0.9085 -0.0965 -0.0607
    6SAPS   C29  718   7.282   3.695   8.586 -0.3489 -0.5401 -0.4905
    6SAPS   H9R  719   7.215   3.782   8.581  2.2358  1.4611 -1.0320
    6SAPS  C210  720   7.274   3.615   8.453 -0.3818  0.2473  0.4529
    6SAPS  H10R  721   7.174   3.615   8.404 -0.6483  1.9857  0.9544
    6SAPS  H10S  722   7.293   3.507   8.473  2.3919  0.8420  1.1386
    6SAPS  C211  723   7.378   3.668   8.361 -0.4263  0.3032  0.1254
    6SAPS  H11R  724   7.450   3.738   8.405  0.2901 -0.2801 -0.1083
    6SAPS  C212  725   7.388   3.641   8.235  0.3581  0.0861  0.0975
    6SAPS  H12R  726   7.470   3.695   8.186  1.2489  0.2962  1.7814
    6SAPS  C213  727   7.293   3.565   8.147  0.6761 -0.1075 -0.3077
    6SAPS  H13R  728   7.313   3.573   8.038 -0.0902 -1.9648 -0.5977
    6SAPS  H13S  729   7.198   3.622   8.145  1.0055  0.5286  1.0257
    6SAPS  C214  730   7.281   3.417   8.183  0.8849 -0.1480  0.5303
    6SAPS  H14R  731   7.370   3.357   8.207 -0.2174 -1.4568  1.3899
    6SAPS  C215  732   7.177   3.335   8.147 -0.0460 -0.1621 -0.7536
    6SAPS  H15R  733   7.181   3.228   8.173 -0.6171  0.4807  2.2224
    6SAPS  C216  734   7.046   3.375   8.093 -0.2256  0.3821 -0.2919
    6SAPS  H16R  735   7.034   3.329   7.993 -0.6962 -2.6746  1.1299
    6SAPS  H16S  736   7.048   3.481   8.060 -0.0725  0.0674 -1.3062
    6SAPS  C217  737   6.929   3.343   8.191 -0.2431 -0.5135 -0.4484
    6SAPS  H17R  738   6.833   3.396   8.169 -0.2488 -0.3114  0.0583
    6SAPS  H17S  739   6.950   3.376   8.295 -1.3944  0.3383 -0.4715
    6SAPS  C218  740   6.899   3.190   8.185  0.5671 -0.6160 -0.0117
    6SAPS  H18R  741   6.802   3.179   8.237  0.3754 -1.2975 -0.5093
    6SAPS  H18S  742   6.970   3.126   8.242 -1.5699 -0.2040  3.2612
    6SAPS  C219  743   6.886   3.116   8.042  0.1929 -0.5231  0.9369
    6SAPS  H19R  744   6.869   3.011   8.071 -2.8012 -0.6204 -0.9608
    6SAPS  H19S  745   6.984   3.118   7.989 -0.3556  0.5751 -0.0875
    6SAPS  C220  746   6.766   3.166   7.961 -0.4158 -0.1016  0.4684
    6SAPS  H20R  747   6.676   3.141   8.021 -1.1854 -1.5204 -1.2259
    6SAPS  H20S  748   6.755   3.127   7.858 -1.2345  0.9975  0.1250
    6SAPS  H20T  749   6.786   3.275   7.962 -0.0044 -0.1582 -0.7078
    6SAPS   C33  750   7.316   4.068   9.455  0.1441  0.0774 -0.7603
    6SAPS   H3X  751   7.397   4.138   9.485 -0.2538  0.6849 -1.0722
    6SAPS   H3Y  752   7.223   4.130   9.457  0.0294 -0.0841 -1.0108
    6SAPS   C34  753   7.326   3.997   9.322 -0.2163 -0.1126  0.0842
    6SAPS   H4X  754   7.237   3.932   9.311  0.5719 -1.1469 -0.3298
    6SAPS   H4Y  755   7.418   3.935   9.312  2.8057  3.9054  1.2603
    6SAPS   C35  756   7.331   4.098   9.211 -0.5155  0.0928  0.0902
    6SAPS   H5X  757   7.392   4.188   9.232  1.4349 -1.4238  1.0492
    6SAPS   H5Y  758   7.229   4.143   9.213  0.3414  1.9690  3.5206
    6SAPS   C36  759   7.377   4.038   9.079  0.6290 -0.6927 -0.5169
    6SAPS   H6X  760   7.314   3.952   9.048  1.0671 -1.2049  0.0016
    6SAPS   H6Y  761   7.480   4.007   9.106  0.3339  1.6109  3.7591
    6SAPS   C37  762   7.370   4.131   8.956 -0.4148  0.2604  0.4842
    6SAPS   H7X  763   7.418   4.224   8.993  1.8861 -0.5324 -0.3852
    6SAPS   H7Y  764   7.264   4.157   8.938 -0.3447  0.3543  0.2069
    6SAPS   C38  765   7.445   4.070   8.839 -0.1932 -0.4982 -0.1634
    6SAPS   H8X  766   7.414   3.964   8.828  0.4330 -0.7090  0.1269
    6SAPS   H8Y  767   7.555   4.068   8.848 -0.0576 -0.1296 -1.5644
    6SAPS   C39  768   7.402   4.136   8.709 -0.3357  0.0244  0.6562
    6SAPS   H9X  769   7.433   4.242   8.720 -0.3593  0.2289 -1.1537
    6SAPS   H9Y  770   7.292   4.133   8.694 -0.2584 -0.2415  0.1236
    6SAPS  C310  771   7.470   4.077   8.587 -0.2234 -0.3259  0.0405
    6SAPS  H10X  772   7.427   4.117   8.493 -0.9889  2.2864  1.4553
    6SAPS  H10Y  773   7.458   3.967   8.598 -2.7229 -0.1453 -0.4937
    6SAPS  C311  774   7.618   4.110   8.580  0.6717 -0.7556  0.6642
    6SAPS  H11X  775   7.657   4.083   8.680 -0.0636 -2.4445  0.5022
    6SAPS  H11Y  776   7.625   4.219   8.558 -1.4859 -0.8312 -0.5331
    6SAPS  C312  777   7.712   4.054   8.463  0.9157 -0.2179 -0.3121
    6SAPS  H12X  778   7.724   3.946   8.486  0.2889 -0.9038 -3.0115
    6SAPS  H12Y  779   7.816   4.094   8.469  0.0278  2.0301  0.8249
    6SAPS  C313  780   7.648   4.060   8.317 -0.3049  0.0807 -0.2382
    6SAPS  H13X  781   7.615   4.164   8.294  0.3921 -0.1156 -2.2167
    6SAPS  H13Y  782   7.560   3.993   8.302 -0.9379  0.3605  2.0275
    6SAPS  C314  783   7.743   4.025   8.201  0.9742  0.5749  0.0241
    6SAPS  H14X  784   7.773   3.919   8.215 -1.5099 -0.3472 -1.3792
    6SAPS  H14Y  785   7.832   4.092   8.194 -0.3073  2.5174  1.5961
    6SAPS  C315  786   7.675   4.030   8.069  0.5656  0.0882  0.0308
    6SAPS  H15X  787   7.631   4.131   8.059 -1.2367 -0.5085  1.6784
    6SAPS  H15Y  788   7.595   3.953   8.064  0.8268 -0.2430  0.7795
    6SAPS  C316  789   7.756   3.993   7.941  0.2176  0.1191  0.1944
    6SAPS  H16X  790   7.682   3.951   7.869  0.1414  2.1186 -0.9273
    6SAPS  H16Y  791   7.823   3.908   7.965  1.0897  0.2383 -1.7532
    6SAPS  C317  792   7.838   4.111   7.892  0.1751 -0.3598 -0.3971
    6SAPS  H17X  793   7.879   4.162   7.982 -1.4091 -0.1476  0.2274
    6SAPS  H17Y  794   7.778   4.195   7.850  0.4919 -0.4062 -0.9442
    6SAPS  C318  795   7.946   4.059   7.803 -0.3157  0.1095  0.5207
    6SAPS  H18X  796   8.002   3.976   7.850 -2.5366 -2.0724 -0.5841
    6SAPS  H18Y  797   8.013   4.143   7.772  1.7541 -1.8883 -0.5691
    6SAPS  H18Z  798   7.906   4.028   7.704  0.6676  1.0797 -0.2003
    7SAPS     N  799   1.653   6.684   9.855  0.1461 -0.0472 -0.0987
    7SAPS   HN1  800   1.616   6.590   9.877 -1.3367 -0.0048 -2.2640
    7SAPS   HN2  801   1.637   6.752   9.933  2.8138 -1.0545  1.4104
    7SAPS   HN3  802   1.599   6.710   9.770 -1.2616 -0.7616  0.5749
    7SAPS   C12  803   1.796   6.697   9.821 -0.1139 -0.3481  0.4963
    7SAPS  H12A  804   1.813   6.655   9.723  0.0607  2.2319 -0.6208
    7SAPS   C13  805   1.852   6.840   9.814  0.0061  0.0968  0.6647
    7SAPS  O13A  806   1.779   6.941   9.821 -0.2547  0.0806 -0.0440
    7SAPS  O13B  807   1.971   6.841   9.770 -0.0564  0.3750  0.2848
    7SAPS   C11  808   1.883   6.616   9.927  0.7999 -0.7956 -0.0581
    7SAPS  H11A  809   1.875   6.660  10.029 -3.0917  0.2376 -0.7580
    7SAPS  H11B  810   1.988   6.636   9.897  1.4142 -2.6206  0.7713
    7SAPS     P  811   1.888   6.354   9.847  0.3497  0.2518  0.2593
    7SAPS   O13  812   2.029   6.335   9.862  0.3638 -0.3092  0.5821
    7SAPS   O14  813   1.794   6.246   9.867  0.0791  0.0459 -0.3767
    7SAPS   O12  814   1.841   6.477   9.931 -0.2868  0.1324  0.0905
    7SAPS   O11  815   1.866   6.426   9.708  0.4484 -0.3973 -0.1565
    7SAPS    C1  816   1.845   6.342   9.590 -0.2596 -0.1520 -0.2463
    7SAPS    HA  817   1.948   6.321   9.555  0.2699  2.0365 -0.0773
    7SAPS    HB  818   1.794   6.245   9.606 -0.5576  0.4710  2.8972
    7SAPS    C2  819   1.760   6.402   9.471 -0.1533  0.2592  0.7242
    7SAPS    HS  820   1.778   6.333   9.386  1.2176 -0.9113  1.9346
    7SAPS   O21  821   1.794   6.537   9.433 -0.0953 -0.4758 -0.2503
    7SAPS   C21  822   1.914   6.572   9.396 -0.0596 -0.0009  0.3663
    7SAPS   O22  823   2.008   6.491   9.381  0.3197 -0.0710  0.2957
    7SAPS   C22  824   1.924   6.720   9.377  0.0378 -0.5914 -0.3932
    7SAPS   H2R  825   1.833   6.767   9.333  0.3252 -1.2976 -1.7703
    7SAPS   H2S  826   1.936   6.756   9.481 -1.2345 -0.1453 -0.3843
    7SAPS    C3  827   1.613   6.386   9.509  0.1190 -0.5841 -0.2001
    7SAPS    HX  828   1.600   6.421   9.613 -1.9980 -0.0886 -0.5943
    7SAPS    HY  829   1.592   6.277   9.504 -1.9510 -0.2288  0.0847
    7SAPS   O31  830   1.539   6.470   9.424 -0.6559 -0.3252  0.0613
    7SAPS   C31  831   1.433   6.425   9.354  0.3176  0.7398 -0.3343
    7SAPS   O32  832   1.391   6.310   9.354 -0.2372 -0.6744 -0.0150
    7SAPS   C32  833   1.371   6.538   9.268 -0.7579  0.2214  0.0775
    7SAPS   H2X  834   1.430   6.631   9.286  1.3340 -0.8725 -0.9148
    7SAPS   H2Y  835   1.263   6.541   9.294 -1.2750  0.4687 -1.9772
    7SAPS   C23  836   2.052   6.773   9.305 -0.4929  0.0559 -0.3472
    7SAPS   H3R  837   2.056   6.720   9.208  1.1809 -0.8742  0.1977
    7SAPS   H3S  838   2.138   6.755   9.374 -0.8831  0.6000  0.2915
    7SAPS   C24  839   2.047   6.925   9.285  0.6234  0.4765 -0.5473
    7SAPS   H4R  840   2.043   6.981   9.382 -1.1793 -1.2328  0.3875
    7SAPS   H4S  841   1.945   6.941   9.246 -0.1647  2.2579  2.0659
    7SAPS   C25  842   2.172   6.970   9.208  0.2299 -0.1227  0.7688
    7SAPS   H5R  843   2.257   6.994   9.272  0.5289 -1.8455  1.0495
    7SAPS   C26  844   2.180   6.984   9.071 -0.2725  0.7486  0.0622
    7SAPS   H6R  845   2.271   7.025   9.024 -0.7556  2.4158  0.5464
    7SAPS   C27  846   2.071   6.948   8.966 -0.8292  0.7728  0.0194
    7SAPS   H7R  847   1.985   7.008   9.003  0.4299  2.8499 -0.3738
    7SAPS   H7S  848   2.051   6.839   8.966  0.4521  0.5155 -2.0844
    7SAPS   C28  849   2.108   6.980   8.820 -0.2186 -0.3646  0.0876
    7SAPS   H8R  850   2.216   6.995   8.803 -0.4703 -0.0016 -1.1936
    7SAPS   C29  851   2.029   6.970   8.711  0.0097  0.3152  0.0850
    7SAPS   H9R  852   2.063   7.007   8.614 -1.0432  0.3045 -0.2956
    7SAPS  C210  853   1.885   6.925   8.714  0.0423 -0.0626 -0.3428
    7SAPS  H10R  854   1.829   6.952   8.622 -0.7779  0.9784  0.4338
    7SAPS  H10S  855   1.836   6.960   8.808  2.2490  0.9128  0.4875
    7SAPS  C211  856   1.881   6.775   8.706  0.0152 -0.6737  0.3907
    7SAPS  H11R  857   1.959   6.725   8.764  1.9690  2.5689  0.6640
    7SAPS  C212  858   1.805   6.698   8.623  0.9286  0.2725  0.3100
    7SAPS  H12R  859   1.802   6.588   8.625 -1.3806  0.2999  1.3764
    7SAPS  C213  860   1.694   6.757   8.529 -0.2071 -0.3273  0.1885
    7SAPS  H13R  861   1.637   6.838   8.577  1.7160  1.5279 -0.5882
    7SAPS  H13S  862   1.617   6.680   8.506 -1.6900  0.7053  1.6300
    7SAPS  C214  863   1.768   6.808   8.412  0.2330  0.0085  0.2882
    7SAPS  H14R  864   1.869   6.847   8.433  0.7999  0.3152 -2.7050
    7SAPS  C215  865   1.704   6.839   8.297  0.4070 -0.0430  0.3011
    7SAPS  H15R  866   1.760   6.887   8.215 -0.6877 -0.1518 -0.5081
    7SAPS  C216  867   1.557   6.821   8.263  0.0321 -0.9073  0.0237
    7SAPS  H16R  868   1.500   6.772   8.344  2.1227 -0.1467  2.0282
    7SAPS  H16S  869   1.544   6.755   8.174  0.3966  0.4483 -1.0581
    7SAPS  C217  870   1.497   6.951   8.209  0.0595 -0.2124  0.0902
    7SAPS  H17R  871   1.529   7.033   8.277  2.1599 -0.0132 -1.0926
    7SAPS  H17S  872   1.388   6.929   8.205 -0.1959  1.2280 -1.6612
    7SAPS  C218  873   1.541   6.989   8.070 -0.3037 -0.5400  0.0309
    7SAPS  H18R  874   1.642   7.036   8.074  0.2126 -1.3630 -2.5314
    7SAPS  H18S  875   1.472   7.071   8.040 -1.1964 -0.4564  2.2397
    7SAPS  C219  876   1.535   6.883   7.958 -0.6687 -0.2285 -0.2888
    7SAPS  H19R  877   1.613   6.806   7.969  0.7895  1.3204  0.3677
    7SAPS  H19S  878   1.555   6.929   7.859  2.3734 -0.5409  0.1570
    7SAPS  C220  879   1.401   6.818   7.939  1.2831 -0.1045  0.7671
    7SAPS  H20R  880   1.410   6.736   7.865  0.4646 -1.0735  1.7077
    7SAPS  H20S  881   1.322   6.888   7.906  1.7081 -0.4203 -0.9627
    7SAPS  H20T  882   1.361   6.780   8.036 -0.2180  1.1052  0.6434
    7SAPS   C33  883   1.379   6.502   9.116 -0.3364 -0.0580  0.1127
    7SAPS   H3X  884   1.333   6.587   9.063  0.8099  1.2417  1.1689
    7SAPS   H3Y  885   1.322   6.407   9.105 -1.6159  0.8697 -1.3675
    7SAPS   C34  886   1.530   6.483   9.076  0.3161  0.5875 -0.0863
    7SAPS   H4X  887   1.525   6.457   8.969 -1.6676  1.2117 -0.1647
    7SAPS   H4Y  888   1.573   6.395   9.128 -0.5242  0.5509  0.5697
    7SAPS   C35  889   1.622   6.611   9.103 -0.5519 -1.0100 -0.7984
    7SAPS   H5X  890   1.645   6.631   9.209  1.1972 -0.9951 -1.1563
    7SAPS   H5Y  891   1.561   6.694   9.061 -0.9262 -1.0990 -0.4249
    7SAPS   C36  892   1.752   6.615   9.019 -0.2226  0.4042 -0.8022
    7SAPS   H6X  893   1.810   6.697   9.065  0.2556 -0.2132 -0.3011
    7SAPS   H6Y  894   1.734   6.639   8.912 -0.7194  2.1033 -0.3545
    7SAPS   C37  895   1.838   6.491   9.043  0.4941 -0.4563 -0.3632
    7SAPS   H7X  896   1.788   6.404   8.996 -1.3048  0.7832 -0.7976
    7SAPS   H7Y  897   1.840   6.486   9.154  0.0558 -3.5547 -0.4564
    7SAPS   C38  898   1.971   6.513   8.979  0.4634  0.6708 -0.1840
    7SAPS   H8X  899   2.042   6.569   9.044  0.8699  0.1989 -0.2169
    7SAPS   H8Y  900   1.944   6.562   8.883  0.9615  0.3688 -0.4801
    7SAPS   C39  901   2.037   6.377   8.932  0.1942  0.9327  0.4394
    7SAPS   H9X  902   1.964   6.314   8.876 -0.2406  2.1205 -0.3563
    7SAPS   H9Y  903   2.067   6.329   9.028  1.9333  0.9231 -0.0896
    7SAPS  C310  904   2.166   6.389   8.850 -0.0597 -0.1828 -0.0418
    7SAPS  H10X  905   2.213   6.288   8.847  0.2486 -0.0546  0.3502
    7SAPS  H10Y  906   2.230   6.465   8.901  1.5023 -1.3540 -0.2287
    7SAPS  C311  907   2.142   6.421   8.708 -0.5225 -0.5919 -0.2147
    7SAPS  H11X  908   2.088   6.518   8.703  1.0766  0.4094  1.3030
    7SAPS  H11Y  909   2.081   6.344   8.656  0.9885 -1.0995 -1.2762
    7SAPS  C312  910   2.273   6.445   8.625 -1.2331 -0.6226 -0.1785
    7SAPS  H12X  911   2.349   6.364   8.634 -0.6894  0.0552  1.3280
    7SAPS  H12Y  912   2.326   6.539   8.648 -0.5002 -1.0798  0.0217
    7SAPS  C313  913   2.245   6.459   8.474  0.2546 -0.5925 -0.7612
    7SAPS  H13X  914   2.176   6.379   8.440 -0.5349 -0.0073 -0.5425
    7SAPS  H13Y  915   2.343   6.449   8.422 -0.2003 -2.0065 -1.3502
    7SAPS  C314  916   2.203   6.601   8.425 -0.1554 -1.0026 -0.7672
    7SAPS  H14X  917   2.281   6.679   8.423 -1.6904  0.6020  0.2047
    7SAPS  H14Y  918   2.120   6.621   8.496  0.0540  0.7463 -1.0159
    7SAPS  C315  919   2.121   6.591   8.284 -0.0276 -0.3427 -0.2123
    7SAPS  H15X  920   2.034   6.659   8.295 -0.8870 -1.0066 -2.6674
    7SAPS  H15Y  921   2.084   6.487   8.273 -0.0447 -0.5851  1.9097
    7SAPS  C316  922   2.193   6.635   8.158 -0.0396 -0.5417 -0.1028
    7SAPS  H16X  923   2.278   6.567   8.137  0.6368 -0.4125  2.0223
    7SAPS  H16Y  924   2.226   6.738   8.182 -1.3618  0.5188 -2.7210
    7SAPS  C317  925   2.094   6.670   8.045 -0.1631  0.6110  0.9880
    7SAPS  H17X  926   2.029   6.586   8.014 -0.0288  2.0665 -3.6331
    7SAPS  H17Y  927   2.149   6.672   7.948 -3.5569 -1.3505 -1.0783
    7SAPS  C318  928   2.001   6.791   8.061 -0.6724 -0.2211 -0.3038
    7SAPS  H18X  929   1.904   6.772   8.112 -1.2103 -1.5169 -1.7856
    7SAPS  H18Y  930   1.976   6.834   7.962 -0.4504  0.0131 -0.2598
    7SAPS  H18Z  931   2.054   6.875   8.112 -0.8383 -0.6337  0.5569
    8SAPS     N  932   6.413   6.369   9.672  0.1054 -0.7599  0.0878
    8SAPS   HN1  933   6.476   6.352   9.591 -1.4128 -1.2385 -1.0068
    8SAPS   HN2  934   6.324   6.322   9.647 -0.2387 -0.6058  1.0193
    8SAPS   HN3  935   6.401   6.469   9.699  1.2644 -0.1073 -1.7385
    8SAPS   C12  936   6.460   6.305   9.798 -0.4077  0.2460  0.0674
    8SAPS  H12A  937   6.560   6.342   9.818  1.1809 -2.8275 -1.8801
    8SAPS   C13  938   6.372   6.347   9.923  0.5539  0.1479  0.9916
    8SAPS  O13A  939   6.256   6.389   9.899 -0.2024  0.9540 -0.2515
    8SAPS  O13B  940   6.409   6.301  10.034  0.1911  0.4673  0.1886
    8SAPS   C11  941   6.467   6.146   9.785 -0.4055  0.2556  0.0165
    8SAPS  H11A  942   6.369   6.098   9.764  1.0127 -2.1673 -1.1681
    8SAPS  H11B  943   6.498   6.112   9.886  1.2160  1.0958 -0.1893
    8SAPS     P  944   6.614   5.971   9.652  0.3140 -0.0535  0.3815
    8SAPS   O13  945   6.701   5.923   9.759  0.4424  0.2129 -0.7185
    8SAPS   O14  946   6.494   5.891   9.619 -0.0463  0.0142  0.3753
    8SAPS   O12  947   6.571   6.119   9.685  0.6497  0.1113  0.5347
    8SAPS   O11  948   6.701   5.980   9.517  0.1093 -0.0954  0.3460
    8SAPS    C1  949   6.699   6.067   9.414  0.3010  1.2468 -0.1809
    8SAPS    HA  950   6.610   6.133   9.419  0.3696  1.3607 -0.4980
    8SAPS    HB  951   6.789   6.132   9.425  0.6452  0.6671  0.5340
    8SAPS    C2  952   6.710   6.006   9.273  0.0646 -0.4467 -0.0555
    8SAPS    HS  953   6.745   6.088   9.206  1.6419 -0.4233  0.7920
    8SAPS   O21  954   6.585   5.966   9.227  0.2183  0.1181 -0.4607
    8SAPS   C21  955   6.499   6.064   9.202 -0.6091  0.4362  0.4662
    8SAPS   O22  956   6.524   6.181   9.213 -0.5167 -0.2216  0.5567
    8SAPS   C22  957   6.364   6.001   9.144 -0.5267 -0.0068  0.4081
    8SAPS   H2R  958   6.376   5.980   9.036  0.3922  2.2082  0.0573
    8SAPS   H2S  959   6.336   5.914   9.208 -1.5348 -0.2054 -0.2964
    8SAPS    C3  960   6.810   5.888   9.275 -0.7886 -0.4503 -0.6060
    8SAPS    HX  961   6.794   5.812   9.355 -0.2322 -1.1791 -1.1926
    8SAPS    HY  962   6.904   5.945   9.289 -0.7002 -0.9638  1.0500
    8SAPS   O31  963   6.816   5.834   9.140 -0.0275  0.0463  0.1578
    8SAPS   C31  964   6.753   5.720   9.121 -0.0483  0.2910  0.1291
    8SAPS   O32  965   6.689   5.660   9.205  0.4330  0.1866 -0.2214
    8SAPS   C32  966   6.765   5.680   8.972  0.1239 -0.7823 -0.0187
    8SAPS   H2X  967   6.853   5.730   8.925 -1.5344 -1.1163 -3.6039
    8SAPS   H2Y  968   6.671   5.713   8.924 -0.5428 -0.9070  1.1629
    8SAPS   C23  969   6.246   6.098   9.156 -0.2241 -0.2207  0.2535
    8SAPS   H3R  970   6.241   6.139   9.259  2.9324 -1.5073  0.9879
    8SAPS   H3S  971   6.154   6.039   9.138  0.2174 -0.6803 -0.5197
    8SAPS   C24  972   6.236   6.196   9.040 -0.1751 -0.0437  0.1021
    8SAPS   H4R  973   6.265   6.148   8.944 -0.1532 -2.4708  1.3056
    8SAPS   H4S  974   6.321   6.264   9.064  2.1819 -3.4333  1.8266
    8SAPS   C25  975   6.098   6.259   9.034 -0.3640 -0.0406 -0.5121
    8SAPS   H5R  976   6.057   6.301   9.127  1.6386  0.6064  0.1046
    8SAPS   C26  977   6.025   6.268   8.925  0.3764  0.4846  0.4929
    8SAPS   H6R  978   5.920   6.300   8.936 -0.7435 -2.5467 -0.8403
    8SAPS   C27  979   6.053   6.221   8.780  0.3549 -0.1653 -0.2198
    8SAPS   H7R  980   5.990   6.137   8.744  0.9807 -0.0764 -1.5458
    8SAPS   H7S  981   6.156   6.188   8.758  1.2085  1.1296  1.7592
    8SAPS   C28  982   6.023   6.336   8.680  0.8149  0.4023 -0.1471
    8SAPS   H8R  983   5.963   6.421   8.717 -1.2150 -1.1456  0.2141
    8SAPS   C29  984   6.059   6.339   8.555 -0.3124  0.7801 -0.2283
    8SAPS   H9R  985   6.032   6.429   8.498 -1.6939  0.2579 -0.4012
    8SAPS  C210  986   6.123   6.223   8.476  0.3766 -0.0257  0.5627
    8SAPS  H10R  987   6.060   6.135   8.500 -1.6925  1.0152 -0.8765
    8SAPS  H10S  988   6.227   6.197   8.507  0.6888 -1.3966 -1.5485
    8SAPS  C211  989   6.128   6.231   8.329  0.0321 -0.1552 -0.3492
    8SAPS  H11R  990   6.093   6.324   8.281 -1.3780  1.1307  3.0399
    8SAPS  C212  991   6.169   6.131   8.244 -0.2551 -0.5008  0.8418
    8SAPS  H12R  992   6.191   6.150   8.138  0.3560  0.4659  1.1437
    8SAPS  C213  993   6.202   5.986   8.282 -0.4955 -0.1783 -0.2543
    8SAPS  H13R  994   6.198   5.912   8.199 -0.6484 -0.2464 -0.1847
    8SAPS  H13S  995   6.120   5.955   8.350 -0.6827 -0.2090 -0.4951
    8SAPS  C214  996   6.345   5.978   8.348 -0.0525  0.1326  0.1327
    8SAPS  H14R  997   6.389   6.079   8.358  0.6411 -0.1216 -0.3287
    8SAPS  C215  998   6.428   5.871   8.362  0.3119 -0.1995 -0.4259
    8SAPS  H15R  999   6.518   5.896   8.421  0.7504 -0.5233 -0.9624
    8SAPS  C216 1000   6.417   5.735   8.327 -0.4511 -0.1661 -0.2577
    8SAPS  H16R 1001   6.338   5.711   8.253 -0.4371 -0.0693 -0.3022
    8SAPS  H16S 1002   6.402   5.684   8.425  0.5119 -0.7041 -0.3934
    8SAPS  C217 1003   6.544   5.670   8.264  0.0522 -0.2734  0.2440
    8SAPS  H17R 1004   6.518   5.563   8.250  0.3053 -0.2344 -0.5534
    8SAPS  H17S 1005   6.629   5.683   8.334  0.2952 -3.0805  0.5437
    8SAPS  C218 1006   6.591   5.724   8.124  0.1669  0.5377  0.2071
    8SAPS  H18R 1007   6.587   5.835   8.126 -2.3902  0.4508  1.7464
    8SAPS  H18S 1008   6.513   5.676   8.060 -1.2466  0.2662  2.1118
    8SAPS  C219 1009   6.730   5.685   8.081 -0.2776 -0.1369  0.6682
    8SAPS  H19R 1010   6.811   5.733   8.139 -0.1454 -0.2332  0.5637
    8SAPS  H19S 1011   6.758   5.714   7.977  1.2409  0.6873  1.2900
    8SAPS  C220 1012   6.761   5.533   8.098 -0.1685 -0.2774  1.1716
    8SAPS  H20R 1013   6.797   5.506   8.199  0.7903 -2.0817  0.3758
    8SAPS  H20S 1014   6.838   5.507   8.022 -1.0089  0.1803  0.1525
    8SAPS  H20T 1015   6.667   5.475   8.085 -0.6655  0.7998 -0.2724
    8SAPS   C33 1016   6.758   5.529   8.938 -0.3216  0.1946  0.1936
    8SAPS   H3X 1017   6.669   5.486   8.987 -1.0825  1.4276 -0.0840
    8SAPS   H3Y 1018   6.847   5.477   8.980  0.2836  2.2405  1.5383
    8SAPS   C34 1019   6.752   5.493   8.789 -0.3942  0.7330 -0.5069
    8SAPS   H4X 1020   6.848   5.524   8.742 -0.5631 -0.0769 -1.4179
    8SAPS   H4Y 1021   6.673   5.551   8.736 -2.6469 -1.1551  0.7117
    8SAPS   C35 1022   6.727   5.346   8.762  1.5527  0.3592  0.2553
    8SAPS   H5X 1023   6.620   5.316   8.760  1.7573 -0.3543 -1.2120
    8SAPS   H5Y 1024   6.774   5.272   8.829  2.1251 -1.3575 -1.9640
    8SAPS   C36 1025   6.772   5.309   8.615 -0.0832 -0.1735 -0.6787
    8SAPS   H6X 1026   6.843   5.225   8.624 -0.4298 -0.1332  3.2279
    8SAPS   H6Y 1027   6.827   5.393   8.568  1.2181 -0.0203  1.0766
    8SAPS   C37 1028   6.663   5.258   8.517 -0.0282 -0.1894 -0.3130
    8SAPS   H7X 1029   6.595   5.345   8.508  2.2105  1.8873  2.1092
    8SAPS   H7Y 1030   6.597   5.181   8.563  0.7388 -0.9059 -0.3859
    8SAPS   C38 1031   6.710   5.231   8.382  0.1347 -0.3781 -0.0538
    8SAPS   H8X 1032   6.795   5.298   8.356  0.7756 -1.2844 -0.3138
    8SAPS   H8Y 1033   6.623   5.242   8.315 -0.1831 -0.0778  0.3996
    8SAPS   C39 1034   6.739   5.079   8.372 -0.1314 -0.5090 -0.0513
    8SAPS   H9X 1035   6.641   5.026   8.373 -0.0488 -0.6584  1.7052
    8SAPS   H9Y 1036   6.796   5.035   8.456  1.6040 -1.2935 -1.5913
    8SAPS  C310 1037   6.808   5.048   8.238  0.1252 -0.0576  0.2751
    8SAPS  H10X 1038   6.806   4.939   8.222  1.0067  0.2868 -2.3381
    8SAPS  H10Y 1039   6.917   5.069   8.240 -0.0861  1.2612 -1.1597
    8SAPS  C311 1040   6.733   5.101   8.115  0.5439 -0.3365 -0.0967
    8SAPS  H11X 1041   6.742   5.212   8.110 -2.1868  0.1122  2.9106
    8SAPS  H11Y 1042   6.624   5.086   8.126  0.2241  1.5838 -0.3668
    8SAPS  C312 1043   6.779   5.039   7.984  0.1703 -1.0310  0.4688
    8SAPS  H12X 1044   6.747   4.932   7.985 -2.2100 -0.3609  0.0123
    8SAPS  H12Y 1045   6.887   5.037   7.961 -0.2425  2.6489 -2.1047
    8SAPS  C313 1046   6.704   5.106   7.869  0.7446 -0.2868  0.0588
    8SAPS  H13X 1047   6.742   5.211   7.861 -1.3538  0.4100 -1.0130
    8SAPS  H13Y 1048   6.598   5.108   7.900  1.1110  2.7611  1.3463
    8SAPS  C314 1049   6.707   5.049   7.729 -0.0834 -0.2487  0.4010
    8SAPS  H14X 1050   6.796   5.080   7.671 -0.4871 -0.0337 -0.1159
    8SAPS  H14Y 1051   6.620   5.093   7.675  0.6931 -0.3116 -0.9115
    8SAPS  C315 1052   6.695   4.899   7.710  0.3625 -0.0719  0.8822
    8SAPS  H15X 1053   6.636   4.883   7.617  2.5369  2.0442 -0.9500
    8SAPS  H15Y 1054   6.627   4.858   7.787 -0.6783  0.7621  0.4223
    8SAPS  C316 1055   6.832   4.816   7.713  0.3269  0.1563  0.3147
    8SAPS  H16X 1056   6.907   4.851   7.787  1.5780 -1.7721 -0.0142
    8SAPS  H16Y 1057   6.870   4.827   7.609  1.2923 -0.9406  0.5495
    8SAPS  C317 1058   6.805   4.664   7.736  0.0045  0.4508 -0.1853
    8SAPS  H17X 1059   6.752   4.626   7.647  1.6583  1.5194 -1.6696
    8SAPS  H17Y 1060   6.752   4.645   7.832 -0.6782 -1.8990 -1.0073
    8SAPS  C318 1061   6.932   4.575   7.745 -0.4378 -0.6635 -0.2161
    8SAPS  H18X 1062   6.999   4.623   7.819 -0.6898 -0.3477 -0.1902
    8SAPS  H18Y 1063   6.979   4.564   7.645 -1.2350  2.3456 -0.9837
    8SAPS  H18Z 1064   6.912   4.473   7.783 -1.6247 -0.9007 -1.4342
    9SAPS     N 1065   4.050   3.969   5.805 -0.1951 -0.3334 -0.1987
    9SAPS   HN1 1066   4.107   4.013   5.880 -0.2111  0.1493 -0.4657
    9SAPS   HN2 1067   3.962   4.022   5.790  1.0777  1.1694 -2.5398
    9SAPS   HN3 1068   4.030   3.872   5.836 -0.7536 -0.1865 -0.0856
    9SAPS   C12 1069   4.115   3.961   5.670  0.3009  1.1148  0.7344
    9SAPS  H12A 1070   4.046   3.917   5.599  0.0000  1.0172  1.0870
    9SAPS   C13 1071   4.151   4.095   5.602  0.6700  1.2930 -0.6718
    9SAPS  O13A 1072   4.121   4.204   5.653 -0.5094 -0.2557 -0.6349
    9SAPS  O13B 1073   4.209   4.087   5.486 -0.1850  0.2417 -0.0284
    9SAPS   C11 1074   4.245   3.871   5.681  1.3234 -0.4822 -0.3576
    9SAPS  H11A 1075   4.306   3.942   5.742 -0.1677  1.4006 -0.9883
    9SAPS  H11B 1076   4.302   3.856   5.587  0.4966 -1.1102 -0.7525
    9SAPS     P 1077   4.208   3.619   5.668  0.0239  0.0358  0.3361
    9SAPS   O13 1078   4.092   3.623   5.579  0.1901 -0.1570 -0.7356
    9SAPS   O14 1079   4.344   3.607   5.603  0.1434  0.1142 -0.0009
    9SAPS   O12 1080   4.209   3.748   5.747 -0.1340  0.1729 -0.1913
    9SAPS   O11 1081   4.194   3.515   5.792  0.7483 -0.1560  0.5900
    9SAPS    C1 1082   4.312   3.452   5.843  0.2459  0.7730  0.7574
    9SAPS    HA 1083   4.294   3.344   5.865 -1.4766  0.8157 -0.3819
    9SAPS    HB 1084   4.402   3.460   5.779 -1.5098  2.2161 -1.5697
    9SAPS    C2 1085   4.367   3.523   5.977  0.1062 -0.8711  0.3526
    9SAPS    HS 1086   4.473   3.491   5.990  0.1173 -0.7908  0.4631
    9SAPS   O21 1087   4.287   3.489   6.095 -0.8134 -0.4090 -0.9425
    9SAPS   C21 1088   4.302   3.369   6.137 -0.3543 -0.4202 -0.3741
    9SAPS   O22 1089   4.382   3.290   6.092 -0.0231 -0.5546 -0.4778
    9SAPS   C22 1090   4.226   3.347   6.270 -0.2234  0.0595  0.4855
    9SAPS   H2R 1091   4.256   3.424   6.345 -2.3240  0.5467  0.8664
    9SAPS   H2S 1092   4.115   3.344   6.268 -0.1697 -2.9679  0.6414
    9SAPS    C3 1093   4.393   3.675   5.962 -0.0530  0.4077 -0.2229
    9SAPS    HX 1094   4.296   3.726   5.981  0.5485  0.9831  1.3442
    9SAPS    HY 1095   4.421   3.693   5.856 -1.9504 -2.4018 -1.2699
    9SAPS   O31 1096   4.494   3.723   6.057 -0.1442  0.1034 -0.0349
    9SAPS   C31 1097   4.616   3.710   6.004  0.0466  0.5591  0.1591
    9SAPS   O32 1098   4.640   3.661   5.894 -0.3448  0.3457 -0.8790
    9SAPS   C32 1099   4.719   3.773   6.098 -0.6699 -1.2773  0.0440
    9SAPS   H2X 1100   4.703   3.883   6.101 -1.8811 -1.4819  2.1421
    9SAPS   H2Y 1101   4.818   3.754   6.051 -0.4303  0.4565 -0.1987
    9SAPS   C23 1102   4.247   3.211   6.349  0.0374 -0.9018  0.7056
    9SAPS   H3R 1103   4.355   3.185   6.351  0.0777 -1.2149 -2.2437
    9SAPS   H3S 1104   4.195   3.125   6.301  0.0355  0.2045 -1.3569
    9SAPS   C24 1105   4.208   3.211   6.495 -0.2254  0.1028 -0.3001
    9SAPS   H4R 1106   4.222   3.104   6.521  0.2097  0.3026  0.2964
    9SAPS   H4S 1107   4.099   3.234   6.494  0.0340  1.3997 -2.0054
    9SAPS   C25 1108   4.296   3.298   6.577  0.0894  0.4646 -0.2723
    9SAPS   H5R 1109   4.333   3.389   6.527 -1.8953  1.0817 -0.6390
    9SAPS   C26 1110   4.296   3.290   6.711 -0.1305  0.7358  0.0524
    9SAPS   H6R 1111   4.368   3.348   6.771  1.8794 -0.7805 -0.8359
    9SAPS   C27 1112   4.200   3.195   6.782  0.5303  0.6275 -0.0754
    9SAPS   H7R 1113   4.246   3.181   6.882 -3.3647 -2.3562  1.4341
    9SAPS   H7S 1114   4.195   3.092   6.740 -0.6495  1.3031 -1.6557
    9SAPS   C28 1115   4.062   3.253   6.801  0.8906 -0.1383  0.4484
    9SAPS   H8R 1116   4.042   3.324   6.719  0.2621 -1.2096 -0.3351
    9SAPS   C29 1117   3.970   3.208   6.890 -0.1184 -0.4709 -0.1173
    9SAPS   H9R 1118   3.872   3.258   6.893 -0.6087 -1.3425 -1.1461
    9SAPS  C210 1119   3.987   3.097   6.990  0.2759  0.7963 -0.6534
    9SAPS  H10R 1120   4.087   3.085   7.038 -0.2188  1.8729  0.6761
    9SAPS  H10S 1121   3.972   2.998   6.942  1.0769  1.7810 -3.0395
    9SAPS  C211 1122   3.869   3.100   7.087  0.0873 -0.6057 -0.5011
    9SAPS  H11R 1123   3.780   3.046   7.051 -0.1334 -1.3304  1.1050
    9SAPS  C212 1124   3.871   3.158   7.210 -0.2092  0.2116 -0.5012
    9SAPS  H12R 1125   3.779   3.164   7.269 -1.4497 -2.4481 -2.0963
    9SAPS  C213 1126   3.980   3.234   7.285 -0.4242  0.3630 -0.3039
    9SAPS  H13R 1127   4.082   3.190   7.276 -1.0778 -1.0556 -0.8301
    9SAPS  H13S 1128   3.958   3.222   7.393  1.5074 -1.3504 -0.0732
    9SAPS  C214 1129   3.996   3.381   7.253 -0.1305  0.0012 -1.3396
    9SAPS  H14R 1130   3.967   3.412   7.151  1.9357  2.0670 -1.3335
    9SAPS  C215 1131   4.040   3.480   7.332  0.2165 -0.2743  0.4626
    9SAPS  H15R 1132   4.032   3.584   7.297  1.1438 -0.3176  0.1238
    9SAPS  C216 1133   4.090   3.463   7.477  0.4092  0.3582 -0.6441
    9SAPS  H16R 1134   4.106   3.356   7.501  0.9653  0.5792 -0.0053
    9SAPS  H16S 1135   4.018   3.497   7.555 -0.0887 -1.5666 -0.2541
    9SAPS  C217 1136   4.231   3.518   7.504 -0.1490 -0.2625 -1.2214
    9SAPS  H17R 1137   4.237   3.625   7.476 -0.8899  0.4684  1.2476
    9SAPS  H17S 1138   4.309   3.457   7.454  0.7408 -1.4901  1.5783
    9SAPS  C218 1139   4.269   3.507   7.651  0.3624  0.3413  0.1061
    9SAPS  H18R 1140   4.270   3.403   7.690  2.9245  0.1680 -0.3238
    9SAPS  H18S 1141   4.195   3.565   7.711  0.5096 -1.7467  2.3971
    9SAPS  C219 1142   4.412   3.562   7.680 -0.2624  0.3402  0.5473
    9SAPS  H19R 1143   4.415   3.613   7.779 -0.8901  1.2389  0.1106
    9SAPS  H19S 1144   4.441   3.646   7.614  3.0754 -2.4255 -1.6962
    9SAPS  C220 1145   4.525   3.452   7.674  0.2975  0.1275  0.5883
    9SAPS  H20R 1146   4.628   3.485   7.700  0.0370  0.4538  1.2006
    9SAPS  H20S 1147   4.529   3.411   7.571  0.9874  0.9077  0.2944
    9SAPS  H20T 1148   4.498   3.367   7.740 -3.0520 -0.0318 -0.9183
    9SAPS   C33 1149   4.728   3.718   6.243  0.2826  0.3843  0.6290
    9SAPS   H3X 1150   4.829   3.756   6.271  0.2374 -0.3933  1.8695
    9SAPS   H3Y 1151   4.731   3.608   6.237 -1.5809  0.3871 -0.7937
    9SAPS   C34 1152   4.634   3.769   6.349  0.4969 -0.6872 -1.1915
    9SAPS   H4X 1153   4.535   3.722   6.331 -0.4244 -0.1052  2.1589
    9SAPS   H4Y 1154   4.625   3.879   6.355 -1.3450 -0.8856 -0.0895
    9SAPS   C35 1155   4.673   3.721   6.487 -0.6604  0.5322  0.6083
    9SAPS   H5X 1156   4.613   3.777   6.562 -1.6020  1.1734 -0.6221
    9SAPS   H5Y 1157   4.781   3.750   6.491 -0.7085  1.4204 -3.0079
    9SAPS   C36 1158   4.654   3.571   6.512 -0.3714 -0.7052  0.4116
    9SAPS   H6X 1159   4.703   3.520   6.427  1.3353 -1.8917  2.0794
    9SAPS   H6Y 1160   4.544   3.555   6.505 -0.3404 -0.0627 -1.6556
    9SAPS   C37 1161   4.684   3.524   6.655  0.4700  0.2648  0.1069
    9SAPS   H7X 1162   4.793   3.534   6.675 -0.0730  0.6793  3.1138
    9SAPS   H7Y 1163   4.654   3.419   6.675  0.3869  0.3752  0.5717
    9SAPS   C38 1164   4.614   3.603   6.768  0.1189 -0.0197  0.7976
    9SAPS   H8X 1165   4.505   3.617   6.749  0.4081  0.1921 -0.7198
    9SAPS   H8Y 1166   4.666   3.700   6.778  3.7467 -1.4734 -2.5373
    9SAPS   C39 1167   4.621   3.535   6.909  0.0739 -0.1663 -0.8352
    9SAPS   H9X 1168   4.723   3.495   6.928 -0.5227 -0.6024  1.6003
    9SAPS   H9Y 1169   4.549   3.452   6.924 -0.2537  0.2428 -0.1076
    9SAPS  C310 1170   4.604   3.634   7.033  0.1002 -0.5551 -0.3743
    9SAPS  H10X 1171   4.502   3.678   7.041  1.5099  2.9519 -0.6764
    9SAPS  H10Y 1172   4.684   3.711   7.024 -1.3887  0.8287 -2.2189
    9SAPS  C311 1173   4.627   3.574   7.172  0.0022  0.3821 -0.2906
    9SAPS  H11X 1174   4.737   3.561   7.186 -0.1703  0.0221  0.7633
    9SAPS  H11Y 1175   4.583   3.472   7.175 -1.0094  0.8579  1.2308
    9SAPS  C312 1176   4.564   3.640   7.299 -0.5718  0.9095  0.3404
    9SAPS  H12X 1177   4.564   3.565   7.380  0.4609  0.2986 -0.2185
    9SAPS  H12Y 1178   4.456   3.655   7.279 -1.2815  0.8657  3.7825
    9SAPS  C313 1179   4.632   3.767   7.351  0.0978  0.0943 -0.0248
    9SAPS  H13X 1180   4.648   3.836   7.265 -2.8932  1.1013  0.1889
    9SAPS  H13Y 1181   4.736   3.745   7.385  0.5313 -0.1285 -1.4619
    9SAPS  C314 1182   4.550   3.836   7.459  0.8140 -0.1226 -0.6537
    9SAPS  H14X 1183   4.570   3.804   7.563  1.5047  1.6078 -0.2299
    9SAPS  H14Y 1184   4.442   3.825   7.439  0.6073  1.0764 -0.2859
    9SAPS  C315 1185   4.552   3.985   7.432 -0.5098  0.2573 -0.4161
    9SAPS  H15X 1186   4.517   4.001   7.328 -0.1195  0.7136 -0.4782
    9SAPS  H15Y 1187   4.655   4.027   7.440 -0.5934  0.2799  0.7496
    9SAPS  C316 1188   4.465   4.073   7.524  0.3009 -0.0200 -0.3448
    9SAPS  H16X 1189   4.360   4.038   7.534  0.1454  0.7381  0.7570
    9SAPS  H16Y 1190   4.472   4.169   7.468 -2.7163  0.7773  0.5768
    9SAPS  C317 1191   4.521   4.091   7.667 -0.9400  0.0814 -0.0579
    9SAPS  H17X 1192   4.632   4.095   7.668 -0.9353  0.8647 -2.3703
    9SAPS  H17Y 1193   4.505   3.993   7.717 -0.4232  0.7513  1.4656
    9SAPS  C318 1194   4.465   4.210   7.735  0.7520  0.1731 -0.0232
    9SAPS  H18X 1195   4.355   4.218   7.734  0.7808  1.0097  1.5981
    9SAPS  H18Y 1196   4.508   4.307   7.702  0.8574  0.1764  0.1251
    9SAPS  H18Z 1197   4.491   4.197   7.842 -0.5620  0.9584  0.4040
   10SAPS     N 1198   6.043   2.442   5.573  0.5715  0.3487 -0.5915
   10SAPS   HN1 1199   6.094   2.473   5.659  1.4274 -3.5177  0.4029
   10SAPS   HN2 1200   5.969   2.379   5.610  2.3465 -0.7338  1.2212
   10SAPS   HN3 1201   6.108   2.386   5.515 -1.7148  0.1673 -3.0601
   10SAPS   C12 1202   5.975   2.558   5.517 -0.2361 -0.2755  0.0797
   10SAPS  H12A 1203   6.049   2.617   5.464 -0.4252  0.6656  0.8411
   10SAPS   C13 1204   5.883   2.515   5.402  0.4555  0.0426  0.5372
   10SAPS  O13A 1205   5.843   2.398   5.389  0.1802 -0.4066 -0.5039
   10SAPS  O13B 1206   5.836   2.606   5.332  0.0870  0.2164  0.1029
   10SAPS   C11 1207   5.889   2.630   5.620 -1.4275  0.1893 -0.3086
   10SAPS  H11A 1208   5.812   2.557   5.651 -1.8443  0.6592 -0.2275
   10SAPS  H11B 1209   5.842   2.715   5.565  0.3834  0.8532 -0.8717
   10SAPS     P 1210   5.920   2.770   5.831 -0.8219  0.3967  0.0824
   10SAPS   O13 1211   6.013   2.772   5.945  0.3661 -0.3199 -0.0440
   10SAPS   O14 1212   5.899   2.899   5.757  0.7558 -0.2308  0.1507
   10SAPS   O12 1213   5.981   2.666   5.724  0.4066 -0.7853 -0.1109
   10SAPS   O11 1214   5.782   2.715   5.881 -0.0096 -0.3160  0.1427
   10SAPS    C1 1215   5.794   2.599   5.968  0.4132  0.2333 -0.3390
   10SAPS    HA 1216   5.847   2.517   5.915 -3.0277 -1.1626 -1.7564
   10SAPS    HB 1217   5.834   2.630   6.067 -1.4728  0.1223  0.4796
   10SAPS    C2 1218   5.659   2.525   5.988 -0.3700 -0.4189 -0.2184
   10SAPS    HS 1219   5.609   2.495   5.894  1.0053 -2.0774 -0.4475
   10SAPS   O21 1220   5.570   2.619   6.057  0.2007  0.1455  0.7553
   10SAPS   C21 1221   5.448   2.582   6.090 -0.3404  0.0146  0.3678
   10SAPS   O22 1222   5.397   2.474   6.088  0.1755  0.6512  0.3268
   10SAPS   C22 1223   5.383   2.701   6.162 -0.2739 -0.8526  0.0931
   10SAPS   H2R 1224   5.444   2.711   6.255 -2.4725  0.5863  1.4463
   10SAPS   H2S 1225   5.378   2.793   6.099  2.6279  0.5114  1.7240
   10SAPS    C3 1226   5.673   2.385   6.067  0.0659  0.1125  0.1259
   10SAPS    HX 1227   5.758   2.329   6.022 -2.0333 -1.9165 -1.3955
   10SAPS    HY 1228   5.584   2.322   6.046  0.0459  0.5729 -1.2870
   10SAPS   O31 1229   5.689   2.409   6.209 -0.3224  0.1359  0.0348
   10SAPS   C31 1230   5.674   2.313   6.291  0.0647 -0.4512  0.0270
   10SAPS   O32 1231   5.642   2.203   6.261 -0.2413 -0.1709 -0.1934
   10SAPS   C32 1232   5.719   2.360   6.436  0.5706 -0.1474  0.1640
   10SAPS   H2X 1233   5.819   2.409   6.430  0.2846  0.2260 -1.9471
   10SAPS   H2Y 1234   5.724   2.270   6.501  0.9699  0.7485  1.3887
   10SAPS   C23 1235   5.240   2.667   6.207  0.4604  0.5484  0.5844
   10SAPS   H3R 1236   5.245   2.574   6.268 -0.9761 -0.3660 -0.6500
   10SAPS   H3S 1237   5.177   2.630   6.124  2.4638  0.3741 -0.8800
   10SAPS   C24 1238   5.182   2.781   6.293  0.2805 -0.1656  0.4011
   10SAPS   H4R 1239   5.176   2.872   6.229  0.4567  0.9842  1.9669
   10SAPS   H4S 1240   5.253   2.801   6.377  0.7969  1.7268 -0.4670
   10SAPS   C25 1241   5.043   2.755   6.336 -0.4918  0.3909  0.6951
   10SAPS   H5R 1242   4.968   2.768   6.257  0.6531 -3.2368 -1.0790
   10SAPS   C26 1243   5.006   2.711   6.453  0.1678  0.3301  0.1070
   10SAPS   H6R 1244   4.897   2.704   6.467  0.0875 -0.9736 -1.0547
   10SAPS   C27 1245   5.089   2.678   6.572 -0.5758 -0.0411 -0.0059
   10SAPS   H7R 1246   5.087   2.757   6.651  1.6888 -0.6749  0.7311
   10SAPS   H7S 1247   5.197   2.660   6.554 -0.6743 -1.2046  0.5260
   10SAPS   C28 1248   5.033   2.548   6.632 -0.4222  0.1423 -0.2061
   10SAPS   H8R 1249   4.923   2.536   6.628 -0.4454 -0.4949  1.8112
   10SAPS   C29 1250   5.104   2.451   6.690 -0.4034 -0.1524 -0.5854
   10SAPS   H9R 1251   5.053   2.372   6.747  0.8922  0.3189  1.2741
   10SAPS  C210 1252   5.254   2.442   6.710  0.0857  0.4801  0.0675
   10SAPS  H10R 1253   5.312   2.477   6.622  2.5954  0.7288  1.7438
   10SAPS  H10S 1254   5.278   2.334   6.719 -0.8071  0.2132 -0.6756
   10SAPS  C211 1255   5.307   2.520   6.830 -0.6317 -0.0436 -0.2432
   10SAPS  H11R 1256   5.281   2.627   6.826  0.2511  0.1382 -1.5864
   10SAPS  C212 1257   5.372   2.475   6.941 -1.0186  0.2056  0.3438
   10SAPS  H12R 1258   5.379   2.533   7.034  0.1287  2.2411 -0.9500
   10SAPS  C213 1259   5.418   2.335   6.958  0.8872 -0.7165  0.1407
   10SAPS  H13R 1260   5.354   2.259   6.908 -0.3162 -0.3625  1.1132
   10SAPS  H13S 1261   5.414   2.318   7.068  0.3693 -3.3130 -0.2600
   10SAPS  C214 1262   5.557   2.332   6.910 -0.3861 -0.3127 -0.1476
   10SAPS  H14R 1263   5.572   2.355   6.804 -1.7088  0.3894 -0.1964
   10SAPS  C215 1264   5.666   2.281   6.982  1.2242 -0.1000  0.2508
   10SAPS  H15R 1265   5.761   2.274   6.927 -0.3115 -0.1241 -2.4952
   10SAPS  C216 1266   5.681   2.214   7.123  0.0282  0.3417 -0.4160
   10SAPS  H16R 1267   5.634   2.280   7.198  0.9612  0.7222 -0.1614
   10SAPS  H16S 1268   5.790   2.207   7.141 -0.2123  2.1100  1.8141
   10SAPS  C217 1269   5.617   2.076   7.127  0.4721 -0.0747  0.1019
   10SAPS  H17R 1270   5.661   2.006   7.053  0.6445 -0.2127  0.3371
   10SAPS  H17S 1271   5.508   2.068   7.103  0.7799 -0.5620 -1.1718
   10SAPS  C218 1272   5.630   2.012   7.265  0.2459 -1.3620  0.3847
   10SAPS  H18R 1273   5.564   2.069   7.334 -0.0709 -2.2252  0.8030
   10SAPS  H18S 1274   5.733   2.009   7.308 -0.6711 -0.6118  2.7333
   10SAPS  C219 1275   5.585   1.860   7.278 -0.1006 -0.2219  0.1900
   10SAPS  H19R 1276   5.650   1.795   7.216  0.4212  0.6360 -0.1670
   10SAPS  H19S 1277   5.486   1.848   7.228  1.2056  0.9288 -2.8090
   10SAPS  C220 1278   5.586   1.804   7.419  0.1157  0.3761  0.3461
   10SAPS  H20R 1279   5.676   1.830   7.479  0.8244 -2.0025  0.3661
   10SAPS  H20S 1280   5.564   1.695   7.421 -1.8050  0.6757 -1.7234
   10SAPS  H20T 1281   5.505   1.855   7.476 -0.0269  0.1974  0.3041
   10SAPS   C33 1282   5.618   2.450   6.509  0.1634 -0.6328 -0.0688
   10SAPS   H3X 1283   5.631   2.430   6.617  0.5818  1.4983  0.3062
   10SAPS   H3Y 1284   5.514   2.427   6.476  0.7611 -0.3425 -2.2789
   10SAPS   C34 1285   5.637   2.599   6.471 -0.6075 -0.2462 -0.1256
   10SAPS   H4X 1286   5.614   2.606   6.362 -0.2254 -4.1764 -0.5383
   10SAPS   H4Y 1287   5.740   2.639   6.484  0.7792 -2.2544 -4.1797
   10SAPS   C35 1288   5.520   2.692   6.519 -0.7906 -0.2073 -0.1298
   10SAPS   H5X 1289   5.429   2.631   6.537 -0.4158 -1.0885 -1.1894
   10SAPS   H5Y 1290   5.507   2.777   6.448  0.3266 -0.6170 -0.8453
   10SAPS   C36 1291   5.553   2.765   6.652 -0.1474 -0.1965  0.0827
   10SAPS   H6X 1292   5.655   2.808   6.659 -0.8674  1.5638  0.0656
   10SAPS   H6Y 1293   5.556   2.684   6.728 -2.6987 -0.2724  0.1563
   10SAPS   C37 1294   5.459   2.876   6.696  0.0394  0.9096 -0.1024
   10SAPS   H7X 1295   5.354   2.840   6.696  0.2320  0.3328  0.6095
   10SAPS   H7Y 1296   5.460   2.960   6.623 -3.1288  0.7683 -0.3489
   10SAPS   C38 1297   5.496   2.924   6.842 -0.7284 -0.5230 -0.6227
   10SAPS   H8X 1298   5.598   2.969   6.842 -0.7350 -0.5022  0.2522
   10SAPS   H8Y 1299   5.508   2.831   6.902  2.0370  0.0279 -0.2660
   10SAPS   C39 1300   5.384   3.018   6.892 -0.3014 -0.3271  0.6770
   10SAPS   H9X 1301   5.382   3.098   6.815 -0.5895 -1.2677 -0.3014
   10SAPS   H9Y 1302   5.422   3.064   6.986  1.1432 -1.3527  0.6124
   10SAPS  C310 1303   5.242   2.963   6.913 -0.3354 -0.3783  0.8372
   10SAPS  H10X 1304   5.209   2.909   6.822 -0.6148 -0.8924  1.2412
   10SAPS  H10Y 1305   5.176   3.051   6.927  0.6412  0.3556  0.8511
   10SAPS  C311 1306   5.223   2.864   7.031 -0.0201  0.7541  0.0502
   10SAPS  H11X 1307   5.245   2.914   7.128  0.9473 -0.2864  0.3889
   10SAPS  H11Y 1308   5.300   2.785   7.015 -0.4864 -0.0584  1.6701
   10SAPS  C312 1309   5.083   2.810   7.040  0.8801 -0.8362  0.0833
   10SAPS  H12X 1310   5.049   2.744   6.958  1.7975 -1.2212  0.0064
   10SAPS  H12Y 1311   5.019   2.902   7.042 -0.2375 -1.5910  3.2349
   10SAPS  C313 1312   5.039   2.724   7.159  0.0561  0.3899 -0.1219
   10SAPS  H13X 1313   4.933   2.697   7.142  0.0280 -0.7119  1.7306
   10SAPS  H13Y 1314   5.037   2.772   7.259  0.8899 -1.5652  0.8587
   10SAPS  C314 1315   5.119   2.595   7.169  0.4155  0.6345  0.5514
   10SAPS  H14X 1316   5.226   2.620   7.188  0.4413  0.3519  0.7906
   10SAPS  H14Y 1317   5.106   2.535   7.077 -0.6881  1.9924 -0.1853
   10SAPS  C315 1318   5.064   2.504   7.281  0.1196  0.1762  0.0064
   10SAPS  H15X 1319   4.958   2.477   7.262  0.8452 -1.7189 -1.4603
   10SAPS  H15Y 1320   5.069   2.545   7.384 -0.9699  1.1691 -0.3248
   10SAPS  C316 1321   5.136   2.370   7.289  0.1604  0.1223 -0.6094
   10SAPS  H16X 1322   5.246   2.373   7.301  0.1925 -0.3803 -0.7634
   10SAPS  H16Y 1323   5.131   2.323   7.189  2.2503  1.4433 -1.3588
   10SAPS  C317 1324   5.097   2.260   7.392 -0.7018  0.3236  0.5325
   10SAPS  H17X 1325   5.014   2.203   7.345 -0.1355  0.4842 -0.7051
   10SAPS  H17Y 1326   5.065   2.308   7.487  1.1899  0.4615  1.1181
   10SAPS  C318 1327   5.205   2.156   7.411 -0.1374 -0.2565  0.9869
   10SAPS  H18X 1328   5.303   2.192   7.449  0.3876 -2.3111  1.6646
   10SAPS  H18Y 1329   5.242   2.106   7.319  1.7381  0.9551  1.0586
   10SAPS  H18Z 1330   5.173   2.075   7.480 -0.0417  0.3799  1.7822
   11SAPS     N 1331   6.220   4.289   5.606  0.2649  0.0756 -0.3825
   11SAPS   HN1 1332   6.255   4.303   5.703  0.2449 -1.3288 -0.1577
   11SAPS   HN2 1333   6.212   4.191   5.573  0.5514  0.3779 -1.3800
   11SAPS   HN3 1334   6.285   4.343   5.545 -1.9654  2.2934 -0.8549
   11SAPS   C12 1335   6.073   4.344   5.601  0.8168  0.3400 -0.3614
   11SAPS  H12A 1336   6.080   4.446   5.634 -0.3542  0.8660 -1.6984
   11SAPS   C13 1337   5.993   4.348   5.483  0.2784  0.0196  0.8794
   11SAPS  O13A 1338   6.048   4.317   5.370 -0.4708  0.4010 -0.5342
   11SAPS  O13B 1339   5.875   4.390   5.476  0.0946  0.5120 -0.3850
   11SAPS   C11 1340   6.004   4.264   5.720 -0.1677 -0.2956 -0.4047
   11SAPS  H11A 1341   5.995   4.161   5.680 -1.3165 -0.4162  0.1424
   11SAPS  H11B 1342   5.898   4.294   5.730 -0.3286 -1.0768  0.2566
   11SAPS     P 1343   6.045   4.374   5.951  0.5493 -0.2383 -0.1296
   11SAPS   O13 1344   6.118   4.338   6.074 -0.1549 -0.0001 -0.9508
   11SAPS   O14 1345   6.081   4.501   5.892  0.6959 -1.0556  0.0309
   11SAPS   O12 1346   6.079   4.261   5.844 -0.6070  0.6918 -0.1047
   11SAPS   O11 1347   5.883   4.351   5.965  0.1195 -0.2972  0.2936
   11SAPS    C1 1348   5.825   4.399   6.085 -0.8403  0.0539  0.2761
   11SAPS    HA 1349   5.727   4.351   6.105 -1.2558  0.6546 -0.2945
   11SAPS    HB 1350   5.893   4.381   6.171  1.0199 -0.0788 -1.1806
   11SAPS    C2 1351   5.800   4.555   6.081 -0.5578 -0.7595  0.0823
   11SAPS    HS 1352   5.772   4.577   5.976  1.1746 -0.2768 -0.2921
   11SAPS   O21 1353   5.925   4.622   6.113  0.1692  0.6317 -0.3098
   11SAPS   C21 1354   5.945   4.740   6.066 -0.0825 -0.3442  0.2059
   11SAPS   O22 1355   5.888   4.788   5.968  0.1901 -0.1671  0.1592
   11SAPS   C22 1356   6.060   4.811   6.136 -0.2296 -0.9855  0.2871
   11SAPS   H2R 1357   6.082   4.757   6.230 -1.8433 -0.2784  1.0766
   11SAPS   H2S 1358   6.146   4.820   6.066 -0.1916 -0.1733  0.4344
   11SAPS    C3 1359   5.679   4.598   6.174  0.5126  0.0091 -0.3846
   11SAPS    HX 1360   5.597   4.536   6.134  0.0238  0.3624  0.0746
   11SAPS    HY 1361   5.653   4.703   6.148 -0.8299 -0.6563 -1.7596
   11SAPS   O31 1362   5.705   4.574   6.317  0.2623  0.4395 -0.1327
   11SAPS   C31 1363   5.754   4.681   6.374 -0.5427  0.0066  0.7888
   11SAPS   O32 1364   5.798   4.775   6.311  0.3428 -0.9226  0.2587
   11SAPS   C32 1365   5.748   4.664   6.522  0.3372  0.1535  0.0690
   11SAPS   H2X 1366   5.760   4.555   6.543  3.2431  0.4991  0.3579
   11SAPS   H2Y 1367   5.654   4.718   6.545  0.4358 -0.4025  1.9567
   11SAPS   C23 1368   6.021   4.960   6.165  0.4519  0.1285 -0.1735
   11SAPS   H3R 1369   5.924   4.961   6.217  0.0464  2.6411 -0.9366
   11SAPS   H3S 1370   6.019   5.022   6.073 -0.6675  0.4738  0.0821
   11SAPS   C24 1371   6.128   5.029   6.254 -0.0108  0.3308 -0.1762
   11SAPS   H4R 1372   6.216   5.047   6.189  0.1895  1.3782  0.3722
   11SAPS   H4S 1373   6.148   4.966   6.343 -0.8782 -0.1198 -0.2949
   11SAPS   C25 1374   6.085   5.167   6.295 -0.1879  0.0808  0.3730
   11SAPS   H5R 1375   6.122   5.250   6.233 -0.0439 -0.6332 -0.5116
   11SAPS   C26 1376   6.019   5.200   6.408 -0.2742  0.2268 -0.0409
   11SAPS   H6R 1377   5.998   5.306   6.430 -0.9009  0.3522 -1.2109
   11SAPS   C27 1378   5.986   5.109   6.520 -0.4752 -0.4398 -0.1651
   11SAPS   H7R 1379   5.964   5.007   6.481 -4.1559 -0.0671  0.7568
   11SAPS   H7S 1380   5.888   5.135   6.564 -0.4978  2.1986 -1.6455
   11SAPS   C28 1381   6.094   5.093   6.623 -0.2814 -0.7540  0.3118
   11SAPS   H8R 1382   6.149   4.998   6.617 -1.0271 -1.2418  1.1188
   11SAPS   C29 1383   6.107   5.169   6.730 -0.2057 -0.3666 -0.1591
   11SAPS   H9R 1384   6.197   5.146   6.789 -0.3710 -0.8452 -0.0934
   11SAPS  C210 1385   6.021   5.283   6.774 -0.1608  0.0818 -0.1763
   11SAPS  H10R 1386   5.918   5.269   6.733  0.0023 -0.3550 -0.4498
   11SAPS  H10S 1387   6.070   5.364   6.717 -0.5597 -0.3385 -1.1394
   11SAPS  C211 1388   6.032   5.294   6.926  0.0173  0.2290  0.1175
   11SAPS  H11R 1389   6.132   5.311   6.968 -0.4298  0.8901  0.9141
   11SAPS  C212 1390   5.926   5.286   7.002  0.6661 -0.1969 -0.2087
   11SAPS  H12R 1391   5.938   5.301   7.111  0.4828  1.6978 -0.4389
   11SAPS  C213 1392   5.788   5.261   6.961 -0.4376 -0.2574  0.3020
   11SAPS  H13R 1393   5.767   5.152   6.954 -4.2554  0.3063  1.3998
   11SAPS  H13S 1394   5.764   5.309   6.864  3.0471 -0.3302 -0.6513
   11SAPS  C214 1395   5.676   5.306   7.050  0.5166 -0.0561  0.3910
   11SAPS  H14R 1396   5.664   5.414   7.036  0.6412  0.0788  1.3206
   11SAPS  C215 1397   5.603   5.231   7.134 -0.0538 -0.7996 -0.2264
   11SAPS  H15R 1398   5.522   5.275   7.194 -0.1768  0.5715 -1.3567
   11SAPS  C216 1399   5.605   5.088   7.158  0.0457  0.7679  0.1300
   11SAPS  H16R 1400   5.656   5.068   7.255 -0.4042  0.3456  0.2836
   11SAPS  H16S 1401   5.669   5.028   7.090  0.1464  1.2802 -0.2294
   11SAPS  C217 1402   5.462   5.024   7.168 -0.1327 -0.6316  0.7618
   11SAPS  H17R 1403   5.469   4.914   7.151  2.9615 -0.2414 -0.8802
   11SAPS  H17S 1404   5.404   5.055   7.078  0.9271 -2.9287 -0.7879
   11SAPS  C218 1405   5.394   5.051   7.306 -0.1535  0.8540  0.3233
   11SAPS  H18R 1406   5.285   5.027   7.302  0.2882 -0.9840 -1.5443
   11SAPS  H18S 1407   5.407   5.161   7.313 -3.2117  1.2458  0.6665
   11SAPS  C219 1408   5.471   4.985   7.422  0.9828  0.0790  0.0640
   11SAPS  H19R 1409   5.580   5.007   7.422  0.8167  0.9104  0.0707
   11SAPS  H19S 1410   5.449   4.876   7.416 -2.3958  0.7052  0.1473
   11SAPS  C220 1411   5.431   5.033   7.563  0.2408 -0.1963 -0.7837
   11SAPS  H20R 1412   5.471   4.969   7.644 -0.5202  0.3563  0.0338
   11SAPS  H20S 1413   5.320   5.032   7.571  0.3068  0.7155  0.3391
   11SAPS  H20T 1414   5.459   5.140   7.578 -0.9191  0.3591 -2.4002
   11SAPS   C33 1415   5.878   4.727   6.580 -0.0811  0.1691 -0.2068
   11SAPS   H3X 1416   5.882   4.737   6.691 -0.6062  0.0511 -0.1763
   11SAPS   H3Y 1417   5.871   4.835   6.553  1.1959  0.3728  0.2530
   11SAPS   C34 1418   6.003   4.659   6.516 -0.6319 -0.7510 -0.9376
   11SAPS   H4X 1419   6.092   4.716   6.548 -1.1326 -0.6490  0.3387
   11SAPS   H4Y 1420   6.001   4.669   6.406  2.7409 -0.7771 -1.0522
   11SAPS   C35 1421   6.033   4.515   6.560 -0.3678 -0.8177  0.3316
   11SAPS   H5X 1422   5.946   4.450   6.535 -1.5699 -0.0225  2.3138
   11SAPS   H5Y 1423   6.038   4.531   6.670  1.1274  0.8903  0.0433
   11SAPS   C36 1424   6.158   4.455   6.506 -0.8814  0.0357  0.2038
   11SAPS   H6X 1425   6.251   4.513   6.525 -0.8322 -0.0464  0.2201
   11SAPS   H6Y 1426   6.137   4.442   6.397 -1.4950  1.8791  0.0867
   11SAPS   C37 1427   6.177   4.310   6.558 -0.1242  0.0831 -0.7070
   11SAPS   H7X 1428   6.259   4.257   6.505  0.4302 -0.1930  0.3980
   11SAPS   H7Y 1429   6.092   4.244   6.531 -0.4296 -1.1426  2.9136
   11SAPS   C38 1430   6.208   4.303   6.709 -0.8066  0.7777 -0.3307
   11SAPS   H8X 1431   6.113   4.335   6.757 -0.3415  3.7158 -1.2819
   11SAPS   H8Y 1432   6.290   4.374   6.733  1.8165 -1.9034 -1.0351
   11SAPS   C39 1433   6.246   4.165   6.755  0.5755  0.4630  0.3783
   11SAPS   H9X 1434   6.351   4.146   6.723  0.0690 -1.1661 -0.3234
   11SAPS   H9Y 1435   6.185   4.086   6.708 -3.0638  1.5836  3.0681
   11SAPS  C310 1436   6.241   4.155   6.904  0.1201 -0.2016 -0.0636
   11SAPS  H10X 1437   6.139   4.179   6.941 -0.7785 -1.8941 -1.3991
   11SAPS  H10Y 1438   6.317   4.220   6.953 -0.3495 -0.4454  1.0023
   11SAPS  C311 1439   6.264   4.014   6.944  0.2209  0.1109 -0.5669
   11SAPS  H11X 1440   6.357   3.962   6.912  0.8792  0.7751  0.2364
   11SAPS  H11Y 1441   6.181   3.951   6.907 -1.0100  0.9996  0.6483
   11SAPS  C312 1442   6.257   3.993   7.101 -0.4687  0.5849 -0.2056
   11SAPS  H12X 1443   6.152   4.016   7.130 -0.4501  0.2121  0.1505
   11SAPS  H12Y 1444   6.306   4.077   7.155 -1.4216  1.4150 -0.6185
   11SAPS  C313 1445   6.309   3.861   7.150  0.6085 -0.1940 -0.0808
   11SAPS  H13X 1446   6.411   3.843   7.109  0.2706  0.1346 -1.0664
   11SAPS  H13Y 1447   6.237   3.782   7.118  0.8077 -1.5955  2.7795
   11SAPS  C314 1448   6.317   3.847   7.309 -0.6845 -0.6658 -0.4905
   11SAPS  H14X 1449   6.300   3.745   7.350 -0.7538 -0.8413 -0.9622
   11SAPS  H14Y 1450   6.237   3.915   7.345  0.4336 -1.3874  3.7265
   11SAPS  C315 1451   6.455   3.875   7.368  0.1188  0.2430  0.2448
   11SAPS  H15X 1452   6.480   3.982   7.351 -2.9883  0.9411 -0.3501
   11SAPS  H15Y 1453   6.525   3.819   7.303  0.3778  1.0502 -0.1751
   11SAPS  C316 1454   6.473   3.852   7.514 -0.0686 -0.1693  0.4785
   11SAPS  H16X 1455   6.578   3.857   7.551  0.1771  3.5278 -0.5882
   11SAPS  H16Y 1456   6.430   3.752   7.538 -0.6334 -0.7721 -2.7905
   11SAPS  C317 1457   6.410   3.970   7.592 -0.0521 -0.2692 -0.1021
   11SAPS  H17X 1458   6.299   3.957   7.598 -0.0129 -0.7436 -0.3828
   11SAPS  H17Y 1459   6.432   4.064   7.536  2.0294 -1.2763 -1.0336
   11SAPS  C318 1460   6.457   3.988   7.728  0.2803  0.2486 -0.1975
   11SAPS  H18X 1461   6.396   4.068   7.777  1.1234 -0.0256  1.3072
   11SAPS  H18Y 1462   6.562   4.022   7.727  0.3056  0.2942  1.7397
   11SAPS  H18Z 1463   6.438   3.898   7.789  1.3001 -0.2859 -0.6643
   12SAPS     N 1464   4.196   7.028   5.641 -0.3592 -0.6425  0.3848
   12SAPS   HN1 1465   4.226   7.058   5.736  1.5871 -1.7589  0.1263
   12SAPS   HN2 1466   4.172   7.117   5.591 -0.2949 -1.8294 -1.8271
   12SAPS   HN3 1467   4.103   6.981   5.643 -0.2354 -0.9936 -1.4064
   12SAPS   C12 1468   4.302   6.957   5.572 -0.5327 -0.6170 -0.0327
   12SAPS  H12A 1469   4.264   6.934   5.473 -2.7908 -0.3242  0.7477
   12SAPS   C13 1470   4.425   7.054   5.565 -0.0434 -0.0139 -0.3343
   12SAPS  O13A 1471   4.424   7.166   5.615 -0.0942 -0.0710  0.2495
   12SAPS  O13B 1472   4.524   7.024   5.489 -0.4204  0.8459  0.3794
   12SAPS   C11 1473   4.343   6.832   5.662  0.3520  0.2248  0.3097
   12SAPS  H11A 1474   4.406   6.859   5.749 -1.2590  4.4360  0.2546
   12SAPS  H11B 1475   4.402   6.776   5.585  1.8694  0.4302  1.3126
   12SAPS     P 1476   4.239   6.600   5.722  0.4461 -0.0101 -0.3986
   12SAPS   O13 1477   4.104   6.555   5.770  0.2382 -0.2036  0.6567
   12SAPS   O14 1478   4.296   6.535   5.598  0.5044  0.2748  0.1593
   12SAPS   O12 1479   4.234   6.749   5.704  0.0138 -0.2000 -0.4221
   12SAPS   O11 1480   4.346   6.573   5.833 -0.0422  0.1436 -0.4985
   12SAPS    C1 1481   4.487   6.603   5.818 -0.7603 -0.5637 -0.4001
   12SAPS    HA 1482   4.517   6.614   5.711  1.3228  2.5437  0.4418
   12SAPS    HB 1483   4.512   6.697   5.871  2.2992 -1.0604 -0.8719
   12SAPS    C2 1484   4.580   6.495   5.873  0.5497  0.6761 -0.4685
   12SAPS    HS 1485   4.557   6.399   5.824 -1.5678 -0.7543  3.1487
   12SAPS   O21 1486   4.545   6.484   6.015 -0.0912 -0.5022 -0.2867
   12SAPS   C21 1487   4.597   6.376   6.068 -0.9033  0.3118 -0.2771
   12SAPS   O22 1488   4.656   6.290   6.007  0.0517  0.5520 -0.5867
   12SAPS   C22 1489   4.581   6.382   6.216 -0.0191  0.0947  0.0223
   12SAPS   H2R 1490   4.669   6.441   6.250  1.0744 -1.3877 -0.2144
   12SAPS   H2S 1491   4.486   6.435   6.241 -0.0514 -0.9860  2.3473
   12SAPS    C3 1492   4.728   6.533   5.851 -0.0581  1.1144 -0.0968
   12SAPS    HX 1493   4.769   6.512   5.749  1.6723 -2.8272  1.2809
   12SAPS    HY 1494   4.783   6.455   5.909 -1.3748 -1.0340 -1.6477
   12SAPS   O31 1495   4.755   6.671   5.885 -0.0546  0.0057  0.3157
   12SAPS   C31 1496   4.758   6.696   6.015  0.1463 -0.3146  0.2891
   12SAPS   O32 1497   4.801   6.618   6.100 -0.0212 -0.2467 -0.0785
   12SAPS   C32 1498   4.699   6.836   6.029 -0.1527  0.7218 -0.2726
   12SAPS   H2X 1499   4.591   6.824   6.007 -0.3332 -0.7583  1.2887
   12SAPS   H2Y 1500   4.740   6.904   5.951  0.9430 -1.9815 -2.1212
   12SAPS   C23 1501   4.587   6.239   6.279  0.2565 -0.1734 -0.4682
   12SAPS   H3R 1502   4.659   6.178   6.220  2.2932  0.0357  1.7311
   12SAPS   H3S 1503   4.489   6.187   6.290 -0.9134  1.9944 -0.4135
   12SAPS   C24 1504   4.655   6.251   6.418  0.2870 -0.0460 -1.2276
   12SAPS   H4R 1505   4.763   6.264   6.394  0.4437  0.2062 -0.3812
   12SAPS   H4S 1506   4.643   6.157   6.475 -0.2624  0.1870 -0.9510
   12SAPS   C25 1507   4.607   6.360   6.513 -0.4793 -0.2118 -0.5782
   12SAPS   H5R 1508   4.501   6.349   6.540 -0.7439  0.3442 -1.3809
   12SAPS   C26 1509   4.672   6.454   6.586 -0.6164  0.5119 -0.3933
   12SAPS   H6R 1510   4.605   6.529   6.632 -1.8319 -0.3660 -0.6987
   12SAPS   C27 1511   4.823   6.479   6.590  0.2210 -0.2793  0.6818
   12SAPS   H7R 1512   4.885   6.401   6.541 -1.3907  0.3233 -2.4753
   12SAPS   H7S 1513   4.855   6.484   6.696  0.6429  0.9987  0.5065
   12SAPS   C28 1514   4.870   6.599   6.514 -0.4422 -0.3120 -0.6619
   12SAPS   H8R 1515   4.813   6.611   6.421  1.5069 -0.8489 -1.9275
   12SAPS   C29 1516   4.950   6.700   6.546 -0.2586 -0.2657  0.2619
   12SAPS   H9R 1517   4.978   6.773   6.468 -1.0867  0.2521  0.4416
   12SAPS  C210 1518   5.014   6.724   6.680 -0.4926 -0.3201  0.2013
   12SAPS  H10R 1519   5.122   6.729   6.657 -0.9355  1.7919 -1.6341
   12SAPS  H10S 1520   4.995   6.637   6.747 -1.0628 -0.2683  0.1102
   12SAPS  C211 1521   4.999   6.855   6.756  0.1031  0.4460 -0.0745
   12SAPS  H11R 1522   4.975   6.946   6.699  1.5632  0.0957 -1.2942
   12SAPS  C212 1523   4.974   6.863   6.890 -0.8946  0.3718  0.4481
   12SAPS  H12R 1524   4.952   6.963   6.930 -0.0345  0.5329  0.5249
   12SAPS  C213 1525   4.957   6.752   6.988 -0.7541  0.5328  0.3632
   12SAPS  H13R 1526   5.059   6.739   7.031  0.1321 -1.5167 -2.2079
   12SAPS  H13S 1527   4.926   6.660   6.933 -0.6640  1.1136 -0.6708
   12SAPS  C214 1528   4.871   6.779   7.114 -0.0060  0.3947  0.1207
   12SAPS  H14R 1529   4.767   6.745   7.100  0.3664 -0.5131 -0.5083
   12SAPS  C215 1530   4.899   6.845   7.230 -0.3339  0.0973 -0.3041
   12SAPS  H15R 1531   4.827   6.839   7.313 -0.5133  1.6441 -0.3310
   12SAPS  C216 1532   5.028   6.916   7.272 -0.0361 -0.4965  0.8425
   12SAPS  H16R 1533   5.008   7.017   7.313  3.5198  0.4708  0.3447
   12SAPS  H16S 1534   5.101   6.923   7.189  0.3309  0.2016  1.2169
   12SAPS  C217 1535   5.101   6.824   7.377  1.0289 -0.0057  0.0091
   12SAPS  H17R 1536   5.169   6.897   7.427 -1.6978 -0.5995  4.8537
   12SAPS  H17S 1537   5.146   6.738   7.322 -1.2937 -0.0114 -1.9212
   12SAPS  C218 1538   5.012   6.773   7.495 -0.2384 -0.0587  0.1700
   12SAPS  H18R 1539   4.933   6.705   7.456 -0.0612 -1.3013  1.9538
   12SAPS  H18S 1540   4.957   6.856   7.543 -0.2663  0.9845 -1.6067
   12SAPS  C219 1541   5.095   6.695   7.601  0.7765 -0.1326  0.8803
   12SAPS  H19R 1542   5.034   6.646   7.680 -1.3881  2.0591  0.6484
   12SAPS  H19S 1543   5.147   6.779   7.652  0.6038  0.0930  0.6889
   12SAPS  C220 1544   5.207   6.612   7.548 -0.7279  0.0531 -0.1850
   12SAPS  H20R 1545   5.159   6.535   7.484  0.0518 -1.7269  1.3114
   12SAPS  H20S 1546   5.254   6.547   7.625  0.8918  0.2365 -1.0261
   12SAPS  H20T 1547   5.287   6.664   7.492 -0.5778  0.3545  0.3054
   12SAPS   C33 1548   4.736   6.890   6.166 -0.6675  0.7791  0.5629
   12SAPS   H3X 1549   4.845   6.885   6.187 -0.2959 -0.1021 -1.4453
   12SAPS   H3Y 1550   4.676   6.842   6.247  0.6432 -1.3170  0.3213
   12SAPS   C34 1551   4.693   7.037   6.178  0.6243  0.4977 -0.1847
   12SAPS   H4X 1552   4.590   7.046   6.137  0.3133  0.8043  0.6647
   12SAPS   H4Y 1553   4.762   7.093   6.112  1.0614 -1.2970 -1.2925
   12SAPS   C35 1554   4.704   7.089   6.318  0.0672 -0.7402  0.3356
   12SAPS   H5X 1555   4.813   7.089   6.340  0.6675 -0.3242 -2.4851
   12SAPS   H5Y 1556   4.654   7.024   6.394  2.1494  0.4827  2.8067
   12SAPS   C36 1557   4.640   7.227   6.340  0.0776  0.5773  0.0478
   12SAPS   H6X 1558   4.541   7.221   6.290  0.2145 -1.7948  0.0397
   12SAPS   H6Y 1559   4.705   7.301   6.289  0.2382  1.2152  1.1421
   12SAPS   C37 1560   4.623   7.258   6.493  0.6712 -0.1378 -0.2213
   12SAPS   H7X 1561   4.600   7.169   6.555  0.7676  0.3476  0.5268
   12SAPS   H7Y 1562   4.536   7.326   6.506  0.7966 -0.4670  2.5353
   12SAPS   C38 1563   4.754   7.328   6.544 -0.5325  0.2012  0.2738
   12SAPS   H8X 1564   4.766   7.427   6.495  1.4555 -0.8834 -1.4837
   12SAPS   H8Y 1565   4.844   7.267   6.524  0.2902  1.0713  1.2759
   12SAPS   C39 1566   4.747   7.362   6.695  0.4683 -0.2014 -0.1039
   12SAPS   H9X 1567   4.643   7.395   6.713  0.1556 -1.4004  0.2763
   12SAPS   H9Y 1568   4.820   7.437   6.732 -1.2606  1.5208 -0.0912
   12SAPS  C310 1569   4.762   7.235   6.781  0.1687 -0.0158  0.0923
   12SAPS  H10X 1570   4.868   7.201   6.779  0.8353  2.0116  0.3718
   12SAPS  H10Y 1571   4.714   7.145   6.735 -1.1859  0.1452  1.1473
   12SAPS  C311 1572   4.712   7.251   6.920  0.0508  0.5103  0.5010
   12SAPS  H11X 1573   4.737   7.355   6.951  0.0943  0.9279 -0.8990
   12SAPS  H11Y 1574   4.769   7.178   6.982 -2.3900  1.0577  3.5433
   12SAPS  C312 1575   4.563   7.223   6.944 -0.0903 -0.2094  0.2281
   12SAPS  H12X 1576   4.538   7.118   6.919  0.4317 -0.8050  2.1213
   12SAPS  H12Y 1577   4.507   7.291   6.876 -0.7886 -0.3107  0.7041
   12SAPS  C313 1578   4.513   7.251   7.086 -0.4553  0.5369 -1.3231
   12SAPS  H13X 1579   4.403   7.239   7.093 -0.2563 -0.4086  0.6567
   12SAPS  H13Y 1580   4.552   7.351   7.113  1.7370 -0.4290 -0.7097
   12SAPS  C314 1581   4.570   7.140   7.184  0.6486  0.1559 -0.6426
   12SAPS  H14X 1582   4.680   7.131   7.169  0.3160  0.3572 -3.3977
   12SAPS  H14Y 1583   4.519   7.047   7.153 -0.6621 -1.6471  6.1005
   12SAPS  C315 1584   4.551   7.173   7.332  0.1414  0.6096  0.5379
   12SAPS  H15X 1585   4.441   7.174   7.345  0.1829  3.2394  1.0369
   12SAPS  H15Y 1586   4.588   7.278   7.337 -0.7682  0.9813 -0.3422
   12SAPS  C316 1587   4.624   7.072   7.420 -0.2858 -0.5278 -0.3018
   12SAPS  H16X 1588   4.723   7.046   7.377 -0.6343 -0.8808 -0.8935
   12SAPS  H16Y 1589   4.574   6.973   7.425  1.7408 -1.5203  1.4647
   12SAPS  C317 1590   4.643   7.125   7.567  0.2348  0.4557 -0.3098
   12SAPS  H17X 1591   4.668   7.233   7.562  1.7223  0.2311  1.6415
   12SAPS  H17Y 1592   4.729   7.075   7.616 -0.6574 -1.2214 -0.4284
   12SAPS  C318 1593   4.524   7.109   7.663  0.4827  0.4217  0.3027
   12SAPS  H18X 1594   4.454   7.194   7.653 -0.5861 -0.7379 -2.3356
   12SAPS  H18Y 1595   4.558   7.102   7.769  1.3927 -1.3459 -0.0965
   12SAPS  H18Z 1596   4.465   7.019   7.639 -0.4645  0.0884  3.6747
   13SAPS     N 1597   6.554   2.403   5.707 -0.1947 -0.0510  0.3226
   13SAPS   HN1 1598   6.500   2.437   5.790 -1.8070 -1.2774 -0.2165
   13SAPS   HN2 1599   6.645   2.364   5.739 -0.7693  0.5189  2.8226
   13SAPS   HN3 1600   6.588   2.471   5.636 -0.7046 -0.3584 -0.2122
   13SAPS   C12 1601   6.471   2.293   5.641  0.2591  1.4189 -0.5037
   13SAPS  H12A 1602   6.369   2.331   5.639  1.2870  4.3896  0.8199
   13SAPS   C13 1603   6.525   2.250   5.506  0.3360  0.1597 -0.0927
   13SAPS  O13A 1604   6.610   2.323   5.442  0.8887  0.3510  0.0076
   13SAPS  O13B 1605   6.454   2.169   5.442  0.1880  0.4728 -0.0896
   13SAPS   C11 1606   6.459   2.174   5.734 -0.4830  0.1433 -0.1769
   13SAPS  H11A 1607   6.559   2.133   5.761 -1.4369 -0.5955  2.4572
   13SAPS  H11B 1608   6.397   2.093   5.691  1.5754 -2.5170  1.6575
   13SAPS     P 1609   6.344   2.112   5.959 -0.5614 -0.0970  0.1465
   13SAPS   O13 1610   6.216   2.154   6.017 -0.0484 -0.4555 -0.0531
   13SAPS   O14 1611   6.349   1.968   5.906 -0.3534 -0.0825 -0.0689
   13SAPS   O12 1612   6.403   2.219   5.853 -0.4567  0.5943  0.4548
   13SAPS   O11 1613   6.452   2.118   6.068  0.2698 -0.6382 -0.0940
   13SAPS    C1 1614   6.517   2.236   6.106 -0.0775  0.5547  0.2163
   13SAPS    HA 1615   6.574   2.279   6.021 -1.8669 -1.9619 -2.3428
   13SAPS    HB 1616   6.445   2.312   6.144  0.5518  1.8007 -1.0517
   13SAPS    C2 1617   6.609   2.213   6.230 -0.2754 -0.1336  0.3160
   13SAPS    HS 1618   6.670   2.127   6.195  1.0834  1.0825 -0.3120
   13SAPS   O21 1619   6.530   2.184   6.347  0.0728  0.4431 -0.5204
   13SAPS   C21 1620   6.608   2.133   6.445 -0.1924  0.5665  0.4492
   13SAPS   O22 1621   6.724   2.098   6.426  0.9142 -0.2419 -0.3038
   13SAPS   C22 1622   6.535   2.130   6.573  0.9327 -0.2345  0.0721
   13SAPS   H2R 1623   6.440   2.186   6.571  1.1198  0.1430  1.2804
   13SAPS   H2S 1624   6.508   2.025   6.596 -0.4243 -0.2334 -1.4225
   13SAPS    C3 1625   6.702   2.344   6.257  0.0592  0.7729  0.2677
   13SAPS    HX 1626   6.751   2.366   6.160  0.4121 -0.6654  0.1036
   13SAPS    HY 1627   6.774   2.309   6.335  0.9858 -0.3158 -1.0469
   13SAPS   O31 1628   6.627   2.461   6.294  0.5953  0.0895  0.3476
   13SAPS   C31 1629   6.639   2.500   6.421 -0.3504  0.3829 -0.0602
   13SAPS   O32 1630   6.694   2.435   6.507 -0.2340  0.2868 -0.0973
   13SAPS   C32 1631   6.563   2.635   6.429  0.5831  0.2889 -0.2191
   13SAPS   H2X 1632   6.463   2.601   6.462  0.0798  1.1107 -0.8874
   13SAPS   H2Y 1633   6.560   2.689   6.332 -2.3573 -0.6030 -0.6672
   13SAPS   C23 1634   6.616   2.181   6.696  0.2650 -0.1132  0.0308
   13SAPS   H3R 1635   6.654   2.284   6.679  0.1337 -0.4151 -2.1791
   13SAPS   H3S 1636   6.708   2.120   6.708  0.8531  0.9400  1.0413
   13SAPS   C24 1637   6.539   2.186   6.824  0.3333  0.0977 -0.3237
   13SAPS   H4R 1638   6.441   2.230   6.796  0.5203  0.9409  0.3065
   13SAPS   H4S 1639   6.580   2.264   6.892 -0.3002 -0.0221  0.2115
   13SAPS   C25 1640   6.522   2.056   6.895 -0.3479  0.3421 -0.4986
   13SAPS   H5R 1641   6.530   1.979   6.817  0.5990  0.0789 -0.1528
   13SAPS   C26 1642   6.520   2.022   7.028  0.5856  0.2267 -0.1059
   13SAPS   H6R 1643   6.528   1.916   7.056 -0.3419  0.0577 -0.4878
   13SAPS   C27 1644   6.537   2.124   7.138  0.0832 -0.5889  0.0698
   13SAPS   H7R 1645   6.460   2.204   7.139  1.2949  0.5709  0.4787
   13SAPS   H7S 1646   6.628   2.181   7.111  1.6875 -2.7689  0.6739
   13SAPS   C28 1647   6.551   2.058   7.271 -0.0763 -0.7037 -0.0526
   13SAPS   H8R 1648   6.459   2.037   7.329  0.0316  0.2215  0.4589
   13SAPS   C29 1649   6.660   2.006   7.328  0.3826  0.4972  0.4488
   13SAPS   H9R 1650   6.646   1.953   7.424 -0.7099  1.3904  0.7826
   13SAPS  C210 1651   6.795   2.000   7.261  0.7546  0.2913 -0.4510
   13SAPS  H10R 1652   6.792   2.030   7.154  0.0203  5.0225  0.7728
   13SAPS  H10S 1653   6.815   1.891   7.268  1.4801  0.4998  1.0904
   13SAPS  C211 1654   6.910   2.058   7.347  0.0980 -0.0292 -0.3142
   13SAPS  H11R 1655   6.923   2.167   7.338  1.8821 -0.1579  0.5721
   13SAPS  C212 1656   7.000   1.996   7.427 -0.8226 -0.4747  0.3700
   13SAPS  H12R 1657   7.071   2.049   7.491 -1.3055  0.2401  0.3264
   13SAPS  C213 1658   7.009   1.847   7.455 -0.1850  0.0921  0.8372
   13SAPS  H13R 1659   6.961   1.783   7.379  3.5247  0.2414 -1.7602
   13SAPS  H13S 1660   6.961   1.822   7.552  1.0359 -3.4924  0.5989
   13SAPS  C214 1661   7.150   1.804   7.453 -0.1790 -0.2461 -0.7994
   13SAPS  H14R 1662   7.203   1.834   7.361 -1.7638  2.0957 -0.9845
   13SAPS  C215 1663   7.218   1.753   7.556  0.6159  0.1568  0.6619
   13SAPS  H15R 1664   7.323   1.722   7.540  0.5863  0.1751  0.4437
   13SAPS  C216 1665   7.173   1.731   7.696 -0.3252 -0.4900  0.4114
   13SAPS  H16R 1666   7.157   1.624   7.718 -1.0423 -1.0334 -2.5067
   13SAPS  H16S 1667   7.084   1.791   7.724 -0.5051  0.6908 -2.5235
   13SAPS  C217 1668   7.277   1.775   7.799 -0.3610  0.1839  0.7392
   13SAPS  H17R 1669   7.294   1.885   7.789  0.7573 -0.1260 -1.1330
   13SAPS  H17S 1670   7.378   1.736   7.772 -0.8885 -0.4996 -0.2709
   13SAPS  C218 1671   7.235   1.764   7.947 -0.1120  0.0380 -0.6141
   13SAPS  H18R 1672   7.129   1.787   7.971 -0.1565 -1.9686  1.3020
   13SAPS  H18S 1673   7.291   1.830   8.017 -0.1006  1.4412 -1.9317
   13SAPS  C219 1674   7.272   1.625   8.014  0.4518 -0.2883  0.5434
   13SAPS  H19R 1675   7.382   1.633   8.030  0.9024 -0.3723 -2.3190
   13SAPS  H19S 1676   7.258   1.541   7.942 -3.2236  1.9040 -1.4197
   13SAPS  C220 1677   7.190   1.607   8.139 -0.2940  0.2146 -0.0863
   13SAPS  H20R 1678   7.214   1.687   8.212 -1.1351  0.5860 -0.2136
   13SAPS  H20S 1679   7.218   1.506   8.177  0.7264  0.4135 -0.2913
   13SAPS  H20T 1680   7.080   1.618   8.128 -0.2116  0.2647 -0.8558
   13SAPS   C33 1681   6.618   2.737   6.534 -0.4836 -0.1836 -0.1336
   13SAPS   H3X 1682   6.543   2.820   6.530 -1.3482 -1.0197 -1.8094
   13SAPS   H3Y 1683   6.722   2.765   6.511 -0.0069 -1.6602  0.1570
   13SAPS   C34 1684   6.623   2.692   6.682 -0.9751 -0.5209 -0.4194
   13SAPS   H4X 1685   6.651   2.789   6.727 -2.8267 -0.7233  1.2172
   13SAPS   H4Y 1686   6.712   2.627   6.700  0.1920  1.5550  1.5500
   13SAPS   C35 1687   6.490   2.652   6.743  0.4240 -0.5950  0.7692
   13SAPS   H5X 1688   6.465   2.560   6.686  0.1157  0.4490 -0.8194
   13SAPS   H5Y 1689   6.413   2.731   6.729  0.1444 -0.9932  0.0316
   13SAPS   C36 1690   6.505   2.621   6.892  0.0357  0.1785  1.1853
   13SAPS   H6X 1691   6.590   2.549   6.891 -1.2204 -1.3224 -1.1000
   13SAPS   H6Y 1692   6.410   2.567   6.914  0.3496 -0.9569 -0.1349
   13SAPS   C37 1693   6.528   2.741   6.984  0.0425  0.7028 -0.6850
   13SAPS   H7X 1694   6.441   2.810   6.979 -0.5394  0.0472  0.1813
   13SAPS   H7Y 1695   6.618   2.795   6.950  0.0629  1.1416  0.0628
   13SAPS   C38 1696   6.543   2.709   7.129 -0.5012 -0.1539 -0.1531
   13SAPS   H8X 1697   6.643   2.664   7.148 -0.5186 -0.2320 -0.2486
   13SAPS   H8Y 1698   6.457   2.648   7.163 -1.4738  0.9024 -0.7030
   13SAPS   C39 1699   6.547   2.847   7.205 -0.9272 -0.3958 -0.6064
   13SAPS   H9X 1700   6.443   2.884   7.195 -1.5221 -1.0343  2.4592
   13SAPS   H9Y 1701   6.618   2.919   7.158  0.0715 -0.0996  1.3001
   13SAPS  C310 1702   6.590   2.826   7.352  0.1409  0.3846 -0.4643
   13SAPS  H10X 1703   6.687   2.779   7.325  0.1832 -1.0649  2.0533
   13SAPS  H10Y 1704   6.533   2.747   7.405  0.6885  1.3680  1.6486
   13SAPS  C311 1705   6.615   2.951   7.437  0.2555 -0.5850  0.7900
   13SAPS  H11X 1706   6.517   2.998   7.458  0.4724  0.8989 -1.4225
   13SAPS  H11Y 1707   6.677   3.021   7.378 -1.2701 -0.3367 -0.5473
   13SAPS  C312 1708   6.706   2.914   7.563  0.3899  0.1196 -0.0722
   13SAPS  H12X 1709   6.740   3.006   7.614  0.0737 -0.9537  2.1505
   13SAPS  H12Y 1710   6.791   2.859   7.519  1.0421  0.4160  0.8028
   13SAPS  C313 1711   6.644   2.826   7.667  0.6538 -0.0083 -0.2590
   13SAPS  H13X 1712   6.605   2.734   7.618  2.6048 -0.4151 -1.1321
   13SAPS  H13Y 1713   6.570   2.882   7.727  1.0763  1.3101 -0.9570
   13SAPS  C314 1714   6.755   2.769   7.759 -0.9300 -0.2952 -0.3910
   13SAPS  H14X 1715   6.723   2.768   7.865 -0.9977 -0.5709 -0.4134
   13SAPS  H14Y 1716   6.835   2.846   7.758 -1.2677  0.0702  0.6118
   13SAPS  C315 1717   6.822   2.632   7.712  0.3511  0.2749  0.0078
   13SAPS  H15X 1718   6.906   2.647   7.641  0.6629 -0.7265  0.1453
   13SAPS  H15Y 1719   6.754   2.574   7.647  0.3729  0.1883  0.0615
   13SAPS  C316 1720   6.879   2.550   7.833  0.2410  0.8466  0.1183
   13SAPS  H16X 1721   6.792   2.549   7.903  0.6932  0.0935  0.6801
   13SAPS  H16Y 1722   6.952   2.605   7.896 -1.1096  0.8437  1.7495
   13SAPS  C317 1723   6.942   2.409   7.796 -0.2029 -0.7880 -0.1868
   13SAPS  H17X 1724   6.989   2.367   7.887  0.7682 -1.2563 -0.8977
   13SAPS  H17Y 1725   7.030   2.420   7.729 -0.4771  0.0805 -0.4193
   13SAPS  C318 1726   6.848   2.304   7.739  0.3054 -0.2912 -0.1181
   13SAPS  H18X 1727   6.923   2.226   7.714  0.8761 -0.6245  2.4943
   13SAPS  H18Y 1728   6.793   2.332   7.647 -0.5966 -0.7733  0.2675
   13SAPS  H18Z 1729   6.777   2.265   7.815 -0.1573  3.1356  1.2849
   14SAPS     N 1730   6.289   5.827   5.425 -0.1900 -0.2438 -0.1175
   14SAPS   HN1 1731   6.349   5.748   5.455  0.6176  0.5111  0.3111
   14SAPS   HN2 1732   6.197   5.822   5.473  0.7740  2.2191  2.1514
   14SAPS   HN3 1733   6.275   5.810   5.324  0.5237 -0.7043 -0.1395
   14SAPS   C12 1734   6.372   5.952   5.447 -0.1605 -0.6430  0.1011
   14SAPS  H12A 1735   6.457   5.949   5.380  0.2161 -0.8883  0.5837
   14SAPS   C13 1736   6.292   6.079   5.412 -0.3148 -0.1737 -0.0519
   14SAPS  O13A 1737   6.167   6.077   5.389 -0.0813 -0.3384  0.5367
   14SAPS  O13B 1738   6.342   6.190   5.431  0.7163  0.1983  0.5441
   14SAPS   C11 1739   6.426   5.962   5.593 -0.3556 -0.5287  0.0302
   14SAPS  H11A 1740   6.340   5.973   5.663  0.0781  2.5354  0.1188
   14SAPS  H11B 1741   6.489   6.053   5.598 -1.2445  0.0862  0.1083
   14SAPS     P 1742   6.614   5.852   5.743  0.0015  0.0321 -0.3902
   14SAPS   O13 1743   6.679   5.722   5.761  0.2852 -0.1058  0.0922
   14SAPS   O14 1744   6.702   5.960   5.697 -0.0061  0.0842 -0.1891
   14SAPS   O12 1745   6.495   5.843   5.632 -0.3019  0.0493 -0.0927
   14SAPS   O11 1746   6.549   5.886   5.883 -0.2497 -0.6660  0.0303
   14SAPS    C1 1747   6.478   6.007   5.924  0.3699  0.3181 -0.0920
   14SAPS    HA 1748   6.430   6.061   5.839 -2.9171  0.9152  2.0791
   14SAPS    HB 1749   6.394   5.975   5.989 -1.4096  1.5386 -1.7313
   14SAPS    C2 1750   6.575   6.093   6.003  0.3731  0.3952 -0.3310
   14SAPS    HS 1751   6.657   6.104   5.929  0.2470 -0.8172 -0.6735
   14SAPS   O21 1752   6.614   6.015   6.121  0.2780 -0.8205  0.5344
   14SAPS   C21 1753   6.726   6.042   6.176 -0.5238  0.5797 -0.3113
   14SAPS   O22 1754   6.815   6.110   6.127  0.0727 -0.2513 -0.3706
   14SAPS   C22 1755   6.729   5.980   6.317 -0.0431  0.4672  0.2400
   14SAPS   H2R 1756   6.747   5.870   6.315 -0.4477  0.4110 -1.0897
   14SAPS   H2S 1757   6.808   6.028   6.379  0.4594  1.3293 -1.0323
   14SAPS    C3 1758   6.535   6.238   6.052 -0.2782  0.2721  1.0955
   14SAPS    HX 1759   6.545   6.291   5.955  1.9025  0.2532  1.2826
   14SAPS    HY 1760   6.611   6.274   6.124  0.8228 -1.0034  0.6010
   14SAPS   O31 1761   6.399   6.234   6.091  0.4699 -0.5547 -0.3269
   14SAPS   C31 1762   6.367   6.257   6.225 -0.1636 -0.1736 -0.5456
   14SAPS   O32 1763   6.439   6.315   6.304 -0.1049 -0.7055 -0.0907
   14SAPS   C32 1764   6.226   6.202   6.254  0.3632 -0.5404 -0.1954
   14SAPS   H2X 1765   6.234   6.095   6.223  0.8148 -0.3508 -0.7470
   14SAPS   H2Y 1766   6.162   6.265   6.189  2.4487  1.7795 -0.0584
   14SAPS   C23 1767   6.592   5.996   6.394 -0.2021 -0.6758  0.8937
   14SAPS   H3R 1768   6.510   5.965   6.326  0.7877 -0.7972 -0.2685
   14SAPS   H3S 1769   6.584   6.106   6.403  0.5347 -0.6834  1.6573
   14SAPS   C24 1770   6.596   5.931   6.531 -0.4829  0.2479 -1.0302
   14SAPS   H4R 1771   6.509   5.973   6.586  0.1243 -0.2853  0.3535
   14SAPS   H4S 1772   6.690   5.959   6.582  0.9128 -0.6378 -3.0496
   14SAPS   C25 1773   6.586   5.780   6.534  0.5220  0.6073  0.3114
   14SAPS   H5R 1774   6.495   5.746   6.483  2.5672 -1.1055 -2.3376
   14SAPS   C26 1775   6.681   5.683   6.557  0.2441 -0.0724  0.4825
   14SAPS   H6R 1776   6.660   5.577   6.536  2.3689 -0.6591  1.2239
   14SAPS   C27 1777   6.830   5.722   6.577  0.8285 -0.5549  0.8556
   14SAPS   H7R 1778   6.840   5.796   6.660  0.3885  0.0231  0.3930
   14SAPS   H7S 1779   6.871   5.773   6.487  0.9297 -2.4564 -0.2011
   14SAPS   C28 1780   6.916   5.600   6.612 -0.2520  0.2010 -0.4751
   14SAPS   H8R 1781   6.937   5.542   6.521 -0.0587 -0.7835  0.1924
   14SAPS   C29 1782   6.952   5.555   6.736  0.0409  0.4882  0.3507
   14SAPS   H9R 1783   7.004   5.458   6.749 -0.3007  0.2936  0.2776
   14SAPS  C210 1784   6.914   5.603   6.875 -0.3676 -0.1151 -1.0368
   14SAPS  H10R 1785   6.902   5.713   6.870  0.1096  0.0067  0.3467
   14SAPS  H10S 1786   7.007   5.594   6.936 -1.6771 -3.2238  0.5967
   14SAPS  C211 1787   6.810   5.528   6.951  0.1897  0.3358  0.6624
   14SAPS  H11R 1788   6.795   5.423   6.924  0.5769  0.4425  0.0130
   14SAPS  C212 1789   6.727   5.577   7.053 -0.4873  0.1872 -0.2339
   14SAPS  H12R 1790   6.645   5.515   7.091  0.4603 -0.6204  0.5201
   14SAPS  C213 1791   6.720   5.719   7.107 -0.4112 -0.3652  0.0369
   14SAPS  H13R 1792   6.824   5.750   7.130 -0.4531  0.7350 -1.2140
   14SAPS  H13S 1793   6.662   5.720   7.202  1.1544  3.0351  0.9958
   14SAPS  C214 1794   6.668   5.817   7.003 -0.1520  0.1902 -0.1747
   14SAPS  H14R 1795   6.678   5.797   6.896 -2.1317 -0.7443 -0.2037
   14SAPS  C215 1796   6.589   5.922   7.033  0.4223 -0.6844  0.2861
   14SAPS  H15R 1797   6.555   5.990   6.954 -3.0592 -3.1759 -0.5141
   14SAPS  C216 1798   6.540   5.963   7.166 -0.4340 -0.1735  0.1764
   14SAPS  H16R 1799   6.526   6.073   7.163  2.0290  0.1816  0.6141
   14SAPS  H16S 1800   6.620   5.939   7.240 -0.6508 -0.9394  0.1735
   14SAPS  C217 1801   6.414   5.879   7.216  0.1239  0.1600  0.0966
   14SAPS  H17R 1802   6.433   5.773   7.242 -1.6022 -0.4404 -0.9383
   14SAPS  H17S 1803   6.325   5.878   7.149  0.0548  0.2551  0.1862
   14SAPS  C218 1804   6.369   5.946   7.345  0.3163  0.0988 -0.4434
   14SAPS  H18R 1805   6.342   6.049   7.314 -0.7344 -0.0248  0.0544
   14SAPS  H18S 1806   6.437   5.949   7.433 -1.9356  0.1025  1.3644
   14SAPS  C219 1807   6.242   5.887   7.403 -0.1985  0.0250  0.8033
   14SAPS  H19R 1808   6.263   5.778   7.412 -0.5776  0.0400  1.9331
   14SAPS  H19S 1809   6.152   5.896   7.339  0.4759 -1.3976 -0.3644
   14SAPS  C220 1810   6.195   5.944   7.537 -0.6102  0.2228  0.4249
   14SAPS  H20R 1811   6.098   5.897   7.561 -0.9590 -1.3188 -3.5815
   14SAPS  H20S 1812   6.187   6.055   7.530 -0.3574  0.2208  0.0892
   14SAPS  H20T 1813   6.277   5.917   7.607  0.8673  0.4704 -1.1647
   14SAPS   C33 1814   6.166   6.225   6.400  0.4342 -0.1054 -0.3373
   14SAPS   H3X 1815   6.069   6.172   6.406  1.2370 -1.6364 -0.6387
   14SAPS   H3Y 1816   6.158   6.335   6.409  0.3559  0.0926 -2.6548
   14SAPS   C34 1817   6.251   6.161   6.512 -0.7482  0.0769  0.3867
   14SAPS   H4X 1818   6.352   6.207   6.512 -0.4835 -0.4294 -2.3828
   14SAPS   H4Y 1819   6.272   6.057   6.479  0.4311  0.4308  0.0116
   14SAPS   C35 1820   6.186   6.162   6.653  0.4054  0.3355 -0.3794
   14SAPS   H5X 1821   6.086   6.115   6.651  1.1852 -1.5318  1.4958
   14SAPS   H5Y 1822   6.167   6.267   6.685 -0.1029  0.3087 -0.6050
   14SAPS   C36 1823   6.278   6.098   6.762  0.4759  0.6681 -0.0536
   14SAPS   H6X 1824   6.369   6.159   6.778  1.0492  0.4512 -2.3313
   14SAPS   H6Y 1825   6.304   5.999   6.721 -0.1543  0.4765  0.0024
   14SAPS   C37 1826   6.196   6.067   6.888 -1.1114 -0.3011  0.0540
   14SAPS   H7X 1827   6.259   6.008   6.958  1.4744  3.8194  1.3997
   14SAPS   H7Y 1828   6.108   6.003   6.865 -1.7829 -0.3530  2.6157
   14SAPS   C38 1829   6.156   6.198   6.957 -0.2980 -0.0234  0.0041
   14SAPS   H8X 1830   6.066   6.250   6.916 -0.7302  1.1444  2.3477
   14SAPS   H8Y 1831   6.241   6.269   6.958 -1.5594  1.6223 -2.3352
   14SAPS   C39 1832   6.119   6.168   7.104  0.4017 -0.1911  1.2605
   14SAPS   H9X 1833   6.205   6.149   7.172  1.3475 -0.4080  0.0134
   14SAPS   H9Y 1834   6.049   6.082   7.104 -0.2871  0.3383 -1.8806
   14SAPS  C310 1835   6.053   6.295   7.155  0.8082  0.3556 -0.3510
   14SAPS  H10X 1836   5.960   6.316   7.098  1.8952 -0.5796 -2.4975
   14SAPS  H10Y 1837   6.115   6.385   7.134  0.6485  0.5922  0.1722
   14SAPS  C311 1838   6.012   6.284   7.301 -0.6764  0.0375 -0.2236
   14SAPS  H11X 1839   6.102   6.258   7.361 -1.2112  3.4990  2.2526
   14SAPS  H11Y 1840   5.945   6.197   7.311  0.4530 -0.8623 -0.3748
   14SAPS  C312 1841   5.957   6.415   7.371 -0.2628  0.6261  0.2824
   14SAPS  H12X 1842   5.856   6.438   7.331  0.1243 -0.1313 -1.1462
   14SAPS  H12Y 1843   6.024   6.501   7.349 -3.1340  2.6297 -1.0682
   14SAPS  C313 1844   5.945   6.400   7.522  0.3596  0.3270 -0.2740
   14SAPS  H13X 1845   6.044   6.365   7.558  0.0668  0.7325  0.9486
   14SAPS  H13Y 1846   5.877   6.314   7.540 -1.5759  1.3170 -2.5911
   14SAPS  C314 1847   5.914   6.534   7.590  0.6672  0.1634  0.0792
   14SAPS  H14X 1848   5.997   6.604   7.569  0.6849  0.0343 -0.2976
   14SAPS  H14Y 1849   5.912   6.510   7.698  0.4784  0.1524  0.0726
   14SAPS  C315 1850   5.775   6.592   7.548  0.3738  0.3883  1.3605
   14SAPS  H15X 1851   5.694   6.524   7.584  0.3750 -1.2695 -1.5834
   14SAPS  H15Y 1852   5.776   6.608   7.438  0.5741 -2.4623  0.9074
   14SAPS  C316 1853   5.755   6.738   7.602 -0.2084  0.4165 -0.0961
   14SAPS  H16X 1854   5.824   6.809   7.552  2.5166 -0.9672  1.5778
   14SAPS  H16Y 1855   5.784   6.752   7.709 -1.4108  0.4725  0.2232
   14SAPS  C317 1856   5.609   6.790   7.584  0.0258  0.9872 -0.5467
   14SAPS  H17X 1857   5.595   6.895   7.620 -1.1003  0.2627  1.1760
   14SAPS  H17Y 1858   5.554   6.726   7.655  1.3832 -0.4980 -0.8218
   14SAPS  C318 1859   5.549   6.780   7.446  0.1038 -0.1278  0.5175
   14SAPS  H18X 1860   5.524   6.674   7.426 -0.3551  0.0598  0.0726
   14SAPS  H18Y 1861   5.621   6.811   7.367  0.5042  2.1390  1.7338
   14SAPS  H18Z 1862   5.451   6.832   7.440 -0.3430 -1.0260 -0.1286
   15SAPS     N 1863   7.166   5.720   5.567  0.1251  0.4464  0.0725
   15SAPS   HN1 1864   7.099   5.780   5.515  0.2327  0.1704 -0.3803
   15SAPS   HN2 1865   7.218   5.771   5.641 -1.1723 -1.0625  2.0843
   15SAPS   HN3 1866   7.236   5.688   5.498 -0.9680 -0.7091 -0.5110
   15SAPS   C12 1867   7.104   5.610   5.634 -0.9399  0.7025 -0.2559
   15SAPS  H12A 1868   7.034   5.642   5.711  0.7959 -0.9411  2.0804
   15SAPS   C13 1869   7.029   5.520   5.543  0.3706  0.7185 -0.1840
   15SAPS  O13A 1870   6.993   5.564   5.430  0.2725  0.0887  0.4383
   15SAPS  O13B 1871   6.962   5.426   5.595 -0.4265 -0.1781 -0.8159
   15SAPS   C11 1872   7.220   5.526   5.705  0.2587  0.2230  0.8013
   15SAPS  H11A 1873   7.291   5.495   5.625 -0.4093  2.7326 -0.8286
   15SAPS  H11B 1874   7.169   5.432   5.734 -2.0738  0.5812 -1.9068
   15SAPS     P 1875   7.387   5.530   5.909  0.0742  0.2825  0.2488
   15SAPS   O13 1876   7.489   5.459   5.827  0.6539 -0.1647 -0.5287
   15SAPS   O14 1877   7.443   5.641   5.987  0.0142 -0.1819  0.2114
   15SAPS   O12 1878   7.281   5.598   5.814  0.5667 -0.0228 -0.0790
   15SAPS   O11 1879   7.313   5.432   6.000 -0.5797 -0.1565 -0.5975
   15SAPS    C1 1880   7.179   5.441   6.036  0.5212  0.2556  0.2716
   15SAPS    HA 1881   7.116   5.510   5.977 -0.9361 -0.6959  0.7032
   15SAPS    HB 1882   7.135   5.344   6.004 -0.2666 -0.3111  2.9531
   15SAPS    C2 1883   7.156   5.449   6.190 -0.2852 -0.3045  0.1034
   15SAPS    HS 1884   7.048   5.432   6.210  0.2813 -4.7685 -0.1246
   15SAPS   O21 1885   7.208   5.572   6.246  0.4197  0.0509  0.0579
   15SAPS   C21 1886   7.149   5.684   6.206  0.8455  0.2842 -0.2528
   15SAPS   O22 1887   7.063   5.691   6.122  0.3250 -0.0865  0.1433
   15SAPS   C22 1888   7.220   5.809   6.259 -0.2823 -0.4392  0.1942
   15SAPS   H2R 1889   7.321   5.777   6.293  0.0715 -0.0378 -0.4785
   15SAPS   H2S 1890   7.232   5.882   6.176 -0.8046  1.7953  2.0374
   15SAPS    C3 1891   7.223   5.328   6.263 -0.3440  0.4053  0.8552
   15SAPS    HX 1892   7.314   5.307   6.204 -1.0416  2.8011 -1.1280
   15SAPS    HY 1893   7.156   5.240   6.251 -1.5154  1.6178 -1.8878
   15SAPS   O31 1894   7.260   5.341   6.409 -0.1051 -0.7410 -0.0627
   15SAPS   C31 1895   7.381   5.394   6.431  0.4443  0.4991  0.2887
   15SAPS   O32 1896   7.466   5.419   6.347 -0.0914  0.8554 -0.2037
   15SAPS   C32 1897   7.389   5.422   6.583  0.0864 -0.2076  0.6285
   15SAPS   H2X 1898   7.484   5.389   6.630  0.6075 -1.0636 -0.9667
   15SAPS   H2Y 1899   7.299   5.375   6.628 -0.1643  1.5730  2.0119
   15SAPS   C23 1900   7.147   5.880   6.376  0.1626  0.1210 -0.1852
   15SAPS   H3R 1901   7.127   5.803   6.453  0.6335  0.7102  0.5277
   15SAPS   H3S 1902   7.061   5.926   6.321  0.5227 -0.6311 -1.4108
   15SAPS   C24 1903   7.226   5.991   6.445 -0.6525 -0.1049 -0.9995
   15SAPS   H4R 1904   7.291   6.041   6.370 -1.6785  1.0568 -1.1201
   15SAPS   H4S 1905   7.300   5.955   6.520 -0.7253  0.0918 -0.8333
   15SAPS   C25 1906   7.136   6.097   6.503  0.2974 -0.0948  0.1621
   15SAPS   H5R 1907   7.113   6.174   6.428  1.5359  0.9292  0.8160
   15SAPS   C26 1908   7.092   6.095   6.630 -0.8865 -0.0149 -0.0772
   15SAPS   H6R 1909   7.031   6.178   6.670  1.9754  1.2451  1.8645
   15SAPS   C27 1910   7.132   5.985   6.737  1.1930 -0.1851  0.2984
   15SAPS   H7R 1911   7.231   6.011   6.779  0.2328  3.3066  0.5519
   15SAPS   H7S 1912   7.143   5.886   6.688 -0.9699 -0.5896  0.5436
   15SAPS   C28 1913   7.022   5.968   6.844  0.5298  0.1489 -0.6319
   15SAPS   H8R 1914   6.921   5.965   6.802 -0.5298  0.1588  1.8303
   15SAPS   C29 1915   7.039   5.929   6.975  0.0404 -0.4725 -0.0990
   15SAPS   H9R 1916   6.942   5.919   7.027 -0.3213  1.3488 -0.3962
   15SAPS  C210 1917   7.166   5.887   7.050 -0.6091 -0.3141 -0.0027
   15SAPS  H10R 1918   7.179   5.961   7.132 -2.3434 -2.7829  2.6016
   15SAPS  H10S 1919   7.254   5.899   6.984 -0.9171  0.4019 -0.2766
   15SAPS  C211 1920   7.154   5.755   7.133 -0.0657  0.7727 -0.3238
   15SAPS  H11R 1921   7.201   5.666   7.090  2.0847  1.5868  0.2798
   15SAPS  C212 1922   7.093   5.737   7.250 -0.3311 -0.2381  0.3227
   15SAPS  H12R 1923   7.099   5.641   7.304  0.5449  0.7934  2.0850
   15SAPS  C213 1924   7.025   5.846   7.339  0.4502 -0.2031  0.2028
   15SAPS  H13R 1925   6.941   5.895   7.285 -0.3114 -1.9086 -0.2047
   15SAPS  H13S 1926   7.101   5.925   7.354  0.9628 -0.7047  0.2634
   15SAPS  C214 1927   6.981   5.790   7.471 -0.2898 -0.7070  0.3012
   15SAPS  H14R 1928   6.895   5.721   7.472 -0.1063 -0.9280  0.6778
   15SAPS  C215 1929   7.039   5.800   7.586 -0.0224  0.0013  0.3901
   15SAPS  H15R 1930   6.994   5.746   7.671  1.5752 -0.8127  0.7415
   15SAPS  C216 1931   7.164   5.877   7.627  0.0102  0.2861 -0.1289
   15SAPS  H16R 1932   7.141   5.956   7.702 -1.6019 -0.7804  0.5294
   15SAPS  H16S 1933   7.200   5.928   7.535  0.1443  0.3187 -0.0590
   15SAPS  C217 1934   7.273   5.786   7.696 -0.3742 -0.2742 -0.5156
   15SAPS  H17R 1935   7.367   5.845   7.708 -1.4216  1.0765  1.2779
   15SAPS  H17S 1936   7.283   5.697   7.630 -0.4810 -3.2868  3.3299
   15SAPS  C218 1937   7.227   5.738   7.835 -0.0946 -0.0619 -0.5137
   15SAPS  H18R 1938   7.294   5.656   7.870 -0.4310 -1.2421 -2.5643
   15SAPS  H18S 1939   7.125   5.694   7.827  0.3056 -0.7825 -1.7974
   15SAPS  C219 1940   7.225   5.849   7.940 -0.1916  0.6450  0.0789
   15SAPS  H19R 1941   7.235   5.798   8.038  1.4610 -1.4692 -1.1310
   15SAPS  H19S 1942   7.128   5.901   7.923  1.3895  3.1735 -1.3873
   15SAPS  C220 1943   7.345   5.947   7.935  0.2203 -0.2209  0.6215
   15SAPS  H20R 1944   7.437   5.885   7.942 -0.1554 -1.0239 -1.2587
   15SAPS  H20S 1945   7.335   6.023   8.015 -0.7975  1.8161 -1.3928
   15SAPS  H20T 1946   7.340   6.006   7.841 -1.1151 -1.6818 -0.2517
   15SAPS   C33 1947   7.381   5.579   6.602  0.5189  0.2656 -0.6609
   15SAPS   H3X 1948   7.288   5.617   6.556  0.3314  1.2500  0.5125
   15SAPS   H3Y 1949   7.476   5.624   6.567 -0.0959  2.4353  0.3803
   15SAPS   C34 1950   7.350   5.609   6.756  0.0797  0.5399 -0.4643
   15SAPS   H4X 1951   7.271   5.539   6.788 -0.2156  0.8422 -0.5348
   15SAPS   H4Y 1952   7.330   5.718   6.756  0.8439  0.6936  1.8300
   15SAPS   C35 1953   7.481   5.582   6.835  0.1999 -0.7254  0.2714
   15SAPS   H5X 1954   7.567   5.647   6.807  0.4928 -1.3586 -0.2994
   15SAPS   H5Y 1955   7.517   5.479   6.814  1.2907 -0.3745  0.3767
   15SAPS   C36 1956   7.454   5.587   6.988  0.1475  0.0648  0.1813
   15SAPS   H6X 1957   7.377   5.511   7.015 -0.2240  1.0162  1.8735
   15SAPS   H6Y 1958   7.418   5.686   7.020  0.2253  0.2159 -0.2020
   15SAPS   C37 1959   7.579   5.569   7.075 -0.9607 -0.2846 -0.1863
   15SAPS   H7X 1960   7.642   5.659   7.086 -0.5981 -0.5644  0.0172
   15SAPS   H7Y 1961   7.633   5.484   7.028  2.5333  1.4316  0.5960
   15SAPS   C38 1962   7.545   5.522   7.215  0.0487  0.1884  0.0282
   15SAPS   H8X 1963   7.511   5.416   7.215  0.1192  0.1342  2.7774
   15SAPS   H8Y 1964   7.465   5.587   7.256  0.2855  1.3644 -1.3588
   15SAPS   C39 1965   7.675   5.519   7.304 -0.1401 -0.0744  0.1352
   15SAPS   H9X 1966   7.699   5.628   7.301 -1.5953  0.2886  1.2944
   15SAPS   H9Y 1967   7.756   5.459   7.256  0.2683  0.8420 -0.3456
   15SAPS  C310 1968   7.652   5.464   7.438 -0.3690  0.0887 -1.2028
   15SAPS  H10X 1969   7.650   5.354   7.420 -0.1130 -0.2902  0.8779
   15SAPS  H10Y 1970   7.545   5.485   7.456  0.1910  1.5471  0.6423
   15SAPS  C311 1971   7.754   5.512   7.536 -0.4079  0.0010  0.0572
   15SAPS  H11X 1972   7.741   5.618   7.566  3.4206  0.0114  2.0312
   15SAPS  H11Y 1973   7.858   5.510   7.497 -0.8742  1.5545 -1.3630
   15SAPS  C312 1974   7.758   5.428   7.654  0.2429  0.0813  0.5133
   15SAPS  H12X 1975   7.841   5.465   7.717  1.5596  0.7408 -1.5594
   15SAPS  H12Y 1976   7.784   5.322   7.635 -0.7433 -0.0210 -0.3240
   15SAPS  C313 1977   7.637   5.436   7.740  0.2119  0.5992 -0.7714
   15SAPS  H13X 1978   7.549   5.387   7.695  0.3625  0.4282 -0.8761
   15SAPS  H13Y 1979   7.594   5.537   7.761 -0.2344  0.3804 -0.6360
   15SAPS  C314 1980   7.678   5.377   7.882  0.6493 -0.5926 -0.4358
   15SAPS  H14X 1981   7.730   5.454   7.943  1.3058  0.6596 -2.5142
   15SAPS  H14Y 1982   7.736   5.283   7.870  1.3994 -0.3259  1.0274
   15SAPS  C315 1983   7.545   5.342   7.957 -0.8834  0.0892  0.4077
   15SAPS  H15X 1984   7.499   5.251   7.913  0.6374  0.0189 -1.1179
   15SAPS  H15Y 1985   7.490   5.436   7.936 -1.7117 -0.1117  1.6403
   15SAPS  C316 1986   7.550   5.330   8.112  0.2788  0.0446  0.3303
   15SAPS  H16X 1987   7.642   5.384   8.143 -0.0045  1.0256 -0.5205
   15SAPS  H16Y 1988   7.560   5.221   8.129 -0.5736 -0.4947 -2.5288
   15SAPS  C317 1989   7.436   5.389   8.185  0.0863 -0.3022 -0.4481
   15SAPS  H17X 1990   7.343   5.334   8.160 -0.5471  0.5655 -0.0471
   15SAPS  H17Y 1991   7.437   5.493   8.145 -0.0279  0.0007  0.3392
   15SAPS  C318 1992   7.467   5.405   8.334 -0.6536  0.3163  0.3091
   15SAPS  H18X 1993   7.498   5.307   8.376  1.0335  0.4476 -0.5573
   15SAPS  H18Y 1994   7.374   5.426   8.390  0.2052 -0.8447  2.2178
   15SAPS  H18Z 1995   7.549   5.479   8.349 -1.7615  1.4922  0.6423
   16SAPS     N 1996   0.005   0.473   5.669  0.1040 -0.0446 -0.3270
   16SAPS   HN1 1997   0.103   0.499   5.693  0.2284 -1.7450  1.0882
   16SAPS   HN2 1998  -0.009   0.470   5.566 -0.4945  1.1943 -0.2934
   16SAPS   HN3 1999  -0.062   0.534   5.720  1.1119  0.0068  0.9544
   16SAPS   C12 2000  -0.008   0.330   5.708  0.0646 -0.4631 -0.2201
   16SAPS  H12A 2001  -0.097   0.299   5.654  0.3451 -1.2412 -0.2528
   16SAPS   C13 2002   0.104   0.235   5.647  0.6238  0.1154  0.3079
   16SAPS  O13A 2003   0.215   0.292   5.616 -0.7927 -0.0620 -0.7576
   16SAPS  O13B 2004   0.072   0.112   5.643 -0.2882  0.0201  0.1746
   16SAPS   C11 2005  -0.025   0.309   5.861  0.4396 -0.0457 -0.2051
   16SAPS  H11A 2006  -0.100   0.378   5.905 -0.1861  0.0678 -1.4261
   16SAPS  H11B 2007   0.076   0.346   5.890  0.9342 -2.3126  1.0867
   16SAPS     P 2008  -0.186   0.108   5.936  0.0427  0.3401 -0.2819
   16SAPS   O13 2009  -0.292   0.142   5.842  0.1260  0.0243  0.3961
   16SAPS   O14 2010  -0.159  -0.035   5.954  0.1067 -0.2642 -0.4763
   16SAPS   O12 2011  -0.050   0.177   5.897  0.2645  0.3899  0.3268
   16SAPS   O11 2012  -0.214   0.182   6.075 -0.6118  0.4521  0.0223
   16SAPS    C1 2013  -0.197   0.121   6.203  0.4355  0.4018  0.3571
   16SAPS    HA 2014  -0.103   0.063   6.203 -0.0456 -0.4212  2.3173
   16SAPS    HB 2015  -0.193   0.202   6.279 -0.2158  0.2637  0.5428
   16SAPS    C2 2016  -0.311   0.010   6.229  0.4833 -0.5105 -1.0074
   16SAPS    HS 2017  -0.301  -0.057   6.141  1.7271  1.6215 -2.5212
   16SAPS   O21 2018  -0.445   0.072   6.232  0.3902  0.1623  0.0719
   16SAPS   C21 2019  -0.550  -0.010   6.221 -1.0547  0.0606 -0.2676
   16SAPS   O22 2020  -0.537  -0.129   6.191 -0.2678 -0.6479 -0.5430
   16SAPS   C22 2021  -0.683   0.055   6.241  0.2556  0.4313 -0.0875
   16SAPS   H2R 2022  -0.675   0.164   6.224 -1.0590  0.8119  1.6935
   16SAPS   H2S 2023  -0.751   0.026   6.158 -0.5316 -0.0935  0.7381
   16SAPS    C3 2024  -0.280  -0.081   6.347  0.1504  0.5083 -0.7973
   16SAPS    HX 2025  -0.194  -0.146   6.322  0.8396 -0.0538  2.7098
   16SAPS    HY 2026  -0.364  -0.150   6.371  0.1083  1.0709  0.7176
   16SAPS   O31 2027  -0.241  -0.011   6.466 -0.1562 -0.0586 -0.1661
   16SAPS   C31 2028  -0.330   0.039   6.548  0.2629  0.7390 -0.2668
   16SAPS   O32 2029  -0.449   0.034   6.531 -0.1815 -0.6338 -0.2972
   16SAPS   C32 2030  -0.265   0.098   6.675  0.3517  0.0068  0.5943
   16SAPS   H2X 2031  -0.208   0.188   6.642 -0.6558 -0.8848 -3.9330
   16SAPS   H2Y 2032  -0.188   0.022   6.700  0.1630 -0.5329 -0.4266
   16SAPS   C23 2033  -0.749   0.026   6.372 -0.2486  0.3336  0.2539
   16SAPS   H3R 2034  -0.850   0.072   6.368 -0.5469 -0.2041  1.3153
   16SAPS   H3S 2035  -0.682   0.067   6.451  1.7171  0.0872 -1.2384
   16SAPS   C24 2036  -0.763  -0.126   6.398  0.0756 -0.5764 -0.6550
   16SAPS   H4R 2037  -0.662  -0.173   6.402  0.2756 -0.0769  0.4637
   16SAPS   H4S 2038  -0.815  -0.141   6.302  0.2377  2.8549 -1.3283
   16SAPS   C25 2039  -0.834  -0.160   6.531  0.1881  0.1136 -0.0120
   16SAPS   H5R 2040  -0.930  -0.106   6.531 -0.5294 -1.1446 -0.3207
   16SAPS   C26 2041  -0.807  -0.243   6.630 -0.4810 -0.1266 -0.6448
   16SAPS   H6R 2042  -0.874  -0.238   6.718 -0.3569  0.9095 -0.6016
   16SAPS   C27 2043  -0.670  -0.316   6.647 -0.4863 -0.4453 -0.0594
   16SAPS   H7R 2044  -0.614  -0.312   6.551 -0.5745  1.4796 -0.0606
   16SAPS   H7S 2045  -0.669  -0.424   6.674 -1.9082  0.0131  1.9810
   16SAPS   C28 2046  -0.588  -0.248   6.759  0.1965 -0.1133 -0.3466
   16SAPS   H8R 2047  -0.624  -0.151   6.796 -0.3383  0.0093 -1.1745
   16SAPS   C29 2048  -0.469  -0.290   6.800 -0.4350  0.9915  0.1999
   16SAPS   H9R 2049  -0.406  -0.232   6.869  0.8243  1.3313 -1.2253
   16SAPS  C210 2050  -0.408  -0.417   6.747 -0.0790 -0.6312  0.1015
   16SAPS  H10R 2051  -0.415  -0.437   6.638 -0.3052 -2.9592  0.5190
   16SAPS  H10S 2052  -0.466  -0.506   6.780  0.4875 -0.4666  1.6179
   16SAPS  C211 2053  -0.264  -0.433   6.784  0.1908 -1.1819  0.1193
   16SAPS  H11R 2054  -0.192  -0.401   6.707 -0.6650  2.6766  0.8360
   16SAPS  C212 2055  -0.205  -0.471   6.895 -0.0797  0.1318  0.1880
   16SAPS  H12R 2056  -0.096  -0.473   6.907  0.0126  1.4928 -0.3139
   16SAPS  C213 2057  -0.285  -0.502   7.019  0.4912 -0.2841  0.5766
   16SAPS  H13R 2058  -0.261  -0.608   7.040 -2.4275 -1.5199 -2.0186
   16SAPS  H13S 2059  -0.395  -0.501   7.008  0.4983 -0.5770  0.4735
   16SAPS  C214 2060  -0.248  -0.396   7.128  0.0996  0.2135 -0.0516
   16SAPS  H14R 2061  -0.175  -0.317   7.105 -1.0625  1.0745 -0.8648
   16SAPS  C215 2062  -0.290  -0.407   7.254  0.2253  0.0259 -0.4985
   16SAPS  H15R 2063  -0.270  -0.327   7.327  2.7545 -2.3474  1.4921
   16SAPS  C216 2064  -0.379  -0.517   7.315  0.0049 -0.7259 -0.0700
   16SAPS  H16R 2065  -0.410  -0.591   7.238 -0.7071  0.6278 -1.1158
   16SAPS  H16S 2066  -0.474  -0.471   7.352  0.0329  0.1430 -1.0419
   16SAPS  C217 2067  -0.305  -0.585   7.435  0.4211 -0.0641 -0.2512
   16SAPS  H17R 2068  -0.216  -0.634   7.390  0.0790 -1.2376  0.3295
   16SAPS  H17S 2069  -0.365  -0.660   7.490 -1.5395  0.0503 -2.1260
   16SAPS  C218 2070  -0.251  -0.477   7.533 -0.5530  0.0204 -0.1153
   16SAPS  H18R 2071  -0.176  -0.418   7.475  0.7904 -1.0522  0.5243
   16SAPS  H18S 2072  -0.184  -0.536   7.598  0.2155  0.0791 -0.8364
   16SAPS  C219 2073  -0.355  -0.401   7.610  0.2939  0.4401  0.1340
   16SAPS  H19R 2074  -0.432  -0.363   7.539  1.2231  0.3196 -0.9481
   16SAPS  H19S 2075  -0.312  -0.314   7.664 -1.5236 -0.4683  3.2151
   16SAPS  C220 2076  -0.429  -0.482   7.709 -0.5869 -0.5496  0.1458
   16SAPS  H20R 2077  -0.489  -0.415   7.775 -0.5649 -1.3286  0.9637
   16SAPS  H20S 2078  -0.371  -0.556   7.767 -0.4722 -0.0506  0.6702
   16SAPS  H20T 2079  -0.514  -0.535   7.661 -1.4790  2.2122 -1.4538
   16SAPS   C33 2080  -0.374   0.130   6.784  0.0367 -0.1689  0.0358
   16SAPS   H3X 2081  -0.431   0.037   6.809  0.3161 -1.0835 -2.5090
   16SAPS   H3Y 2082  -0.445   0.200   6.735  2.0894  0.5360 -2.0121
   16SAPS   C34 2083  -0.326   0.200   6.912  0.3371 -0.1252  0.3822
   16SAPS   H4X 2084  -0.260   0.124   6.959 -0.7453 -1.7178 -0.5923
   16SAPS   H4Y 2085  -0.418   0.206   6.975 -0.0200  0.9817 -0.2405
   16SAPS   C35 2086  -0.273   0.344   6.896 -0.2380 -0.6674 -0.2267
   16SAPS   H5X 2087  -0.358   0.397   6.847  0.3467  1.4695  1.0102
   16SAPS   H5Y 2088  -0.183   0.337   6.831  0.9622  1.9812  1.0638
   16SAPS   C36 2089  -0.248   0.414   7.029  0.3707  0.1546 -0.1348
   16SAPS   H6X 2090  -0.338   0.399   7.092 -0.6944  0.7198 -1.4829
   16SAPS   H6Y 2091  -0.237   0.522   7.005  1.8386 -0.0830 -0.5794
   16SAPS   C37 2092  -0.126   0.358   7.110 -0.2475 -0.1075 -0.3598
   16SAPS   H7X 2093  -0.040   0.369   7.040 -1.5560 -2.1688 -2.3519
   16SAPS   H7Y 2094  -0.149   0.253   7.136  1.9523 -0.3117  0.8816
   16SAPS   C38 2095  -0.088   0.441   7.229  1.0003 -0.4118  0.1629
   16SAPS   H8X 2096  -0.178   0.444   7.295 -0.5237 -0.2988 -1.8680
   16SAPS   H8Y 2097  -0.062   0.544   7.196 -0.6453  0.0256  0.1757
   16SAPS   C39 2098   0.036   0.394   7.305  0.4516  0.7470  0.6092
   16SAPS   H9X 2099   0.123   0.394   7.237  2.6417 -1.3741  3.2527
   16SAPS   H9Y 2100   0.006   0.290   7.331  0.9986  0.1733 -1.0046
   16SAPS  C310 2101   0.069   0.461   7.442  0.2820 -0.2705 -0.4713
   16SAPS  H10X 2102   0.106   0.564   7.427 -1.6841  0.8106  1.8176
   16SAPS  H10Y 2103   0.141   0.397   7.497 -0.0675 -0.0804  0.2074
   16SAPS  C311 2104  -0.049   0.475   7.549 -0.3209 -0.4572 -0.7232
   16SAPS  H11X 2105  -0.082   0.368   7.553 -0.5840 -0.3024  3.3015
   16SAPS  H11Y 2106  -0.133   0.543   7.524  0.2209  1.3735  2.2206
   16SAPS  C312 2107   0.002   0.514   7.689  0.2184 -1.2572 -0.0180
   16SAPS  H12X 2108   0.047   0.615   7.671  1.0403 -1.3838  1.2226
   16SAPS  H12Y 2109   0.084   0.445   7.719  1.4886 -0.6554 -2.0112
   16SAPS  C313 2110  -0.105   0.513   7.799 -0.6377  0.0387  0.0478
   16SAPS  H13X 2111  -0.056   0.525   7.897  2.7975 -0.6208 -1.5058
   16SAPS  H13Y 2112  -0.142   0.408   7.801  0.4240 -0.3187  4.6913
   16SAPS  C314 2113  -0.211   0.618   7.777  0.2769  0.4530 -0.4191
   16SAPS  H14X 2114  -0.262   0.605   7.680  1.9812  1.1368 -1.4317
   16SAPS  H14Y 2115  -0.148   0.706   7.751  0.2468  0.5066 -0.3124
   16SAPS  C315 2116  -0.304   0.651   7.898 -1.0598  0.1740  0.2047
   16SAPS  H15X 2117  -0.377   0.731   7.874 -1.5291 -0.4028 -0.2989
   16SAPS  H15Y 2118  -0.250   0.686   7.988  0.8518  0.1315 -0.9027
   16SAPS  C316 2119  -0.390   0.534   7.952 -1.0404  0.3342  0.0848
   16SAPS  H16X 2120  -0.456   0.573   8.033 -1.8045  1.8305 -1.2235
   16SAPS  H16Y 2121  -0.319   0.465   8.002  0.4516  1.3374 -0.5889
   16SAPS  C317 2122  -0.473   0.448   7.850 -0.2821 -0.2110  0.2632
   16SAPS  H17X 2123  -0.413   0.420   7.762  0.5832 -3.9718  1.9705
   16SAPS  H17Y 2124  -0.560   0.509   7.817  1.0113  0.1989 -2.4999
   16SAPS  C318 2125  -0.525   0.312   7.905  0.2029  0.2565  0.1432
   16SAPS  H18X 2126  -0.557   0.249   7.819  2.1865  2.8538 -2.6209
   16SAPS  H18Y 2127  -0.615   0.328   7.967 -0.1323  1.7460 -0.7088
   16SAPS  H18Z 2128  -0.444   0.271   7.968 -0.2517  2.1557  2.0009
   17SAPC     N 2129   4.528   3.339  10.098  0.0939  0.2632 -0.0740
   17SAPC   C12 2130   4.586   3.216  10.028  0.1743  0.2432 -0.2714
   17SAPC  H12A 2131   4.570   3.126  10.086 -2.4042 -0.6782 -2.3006
   17SAPC  H12B 2132   4.693   3.228  10.021  0.0193  0.8817 -1.6952
   17SAPC   C13 2133   4.593   3.345  10.236  0.6518  0.1316  0.3333
   17SAPC  H13A 2134   4.558   3.258  10.290 -2.2165  1.5722  0.9260
   17SAPC  H13B 2135   4.700   3.334  10.238  0.8141  1.2769 -1.3829
   17SAPC  H13C 2136   4.576   3.440  10.285  2.2779  1.3354 -1.3485
   17SAPC   C14 2137   4.561   3.466  10.031 -0.0661 -0.4163 -0.1768
   17SAPC  H14A 2138   4.664   3.476  10.003 -0.3177 -0.2834 -1.0691
   17SAPC  H14B 2139   4.499   3.468   9.943  1.5147 -2.6013 -1.3782
   17SAPC  H14C 2140   4.523   3.544  10.096 -0.0421 -1.7222  1.4490
   17SAPC   C15 2141   4.381   3.325  10.122 -0.2345  0.4021  0.6652
   17SAPC  H15A 2142   4.333   3.306  10.028 -0.3765  0.1465  0.7927
   17SAPC  H15B 2143   4.376   3.233  10.178 -2.0008 -0.2514 -0.5238
   17SAPC  H15C 2144   4.336   3.410  10.171 -1.4580  0.1212  0.0345
   17SAPC   C11 2145   4.536   3.177   9.886 -0.1547  0.6897 -0.4714
   17SAPC  H11A 2146   4.613   3.132   9.819 -0.1036  1.7634 -1.1490
   17SAPC  H11B 2147   4.512   3.268   9.827  1.7314 -0.0093 -2.4010
   17SAPC     P 2148   4.320   3.064   9.811  0.0086 -0.3547  0.3846
   17SAPC   O13 2149   4.256   2.933   9.820 -0.3136  0.6645 -0.2671
   17SAPC   O14 2150   4.229   3.182   9.816  0.0911 -0.0664 -0.2332
   17SAPC   O12 2151   4.439   3.081   9.915 -0.0244  0.0996 -0.0184
   17SAPC   O11 2152   4.398   3.065   9.672 -0.1811 -1.0015  0.2899
   17SAPC    C1 2153   4.472   2.944   9.638  0.1989 -0.0331  0.0255
   17SAPC    HA 2154   4.553   2.921   9.710  2.0140  0.6336 -1.7352
   17SAPC    HB 2155   4.405   2.856   9.642 -1.1503  0.9869 -0.0190
   17SAPC    C2 2156   4.526   2.953   9.494  0.1154  0.7565 -0.7009
   17SAPC    HS 2157   4.608   2.879   9.484 -0.4632 -0.1796  1.2994
   17SAPC   O21 2158   4.588   3.083   9.471  0.8051 -0.2702  0.1062
   17SAPC   C21 2159   4.703   3.102   9.550 -0.8165  1.1317 -0.4463
   17SAPC   O22 2160   4.745   3.025   9.636  0.2967  0.1603  0.6775
   17SAPC   C22 2161   4.761   3.239   9.530 -0.6083  0.4376 -0.7833
   17SAPC   H2R 2162   4.751   3.269   9.423  0.6497 -1.8608 -1.5782
   17SAPC   H2S 2163   4.702   3.305   9.598 -2.0426 -1.0403 -0.5687
   17SAPC    C3 2164   4.410   2.936   9.389 -0.2695 -0.5151 -0.1407
   17SAPC    HX 2165   4.357   3.033   9.388 -0.2065 -0.4529  1.6187
   17SAPC    HY 2166   4.344   2.852   9.420 -0.6099  0.6667  2.4646
   17SAPC   O31 2167   4.473   2.911   9.256  0.5075 -0.4953 -0.3940
   17SAPC   C31 2168   4.398   2.957   9.156  0.1260  1.1657  0.1685
   17SAPC   O32 2169   4.280   2.992   9.171 -0.4427  0.8601  0.0455
   17SAPC   C32 2170   4.481   2.982   9.033 -0.3588  0.0635  0.0923
   17SAPC   H2X 2171   4.542   2.892   9.011  1.8446  1.3543  0.7994
   17SAPC   H2Y 2172   4.549   3.065   9.059  1.6792 -1.3279 -0.7372
   17SAPC   C23 2173   4.902   3.250   9.572 -0.1306  0.5826 -0.0512
   17SAPC   H3R 2174   4.976   3.196   9.510  1.9742  0.2145  2.6508
   17SAPC   H3S 2175   4.926   3.213   9.675 -1.8624 -0.5552 -0.0224
   17SAPC   C24 2176   4.934   3.398   9.570 -0.2293  0.2023 -0.2369
   17SAPC   H4R 2177   4.891   3.436   9.475  2.9570  2.5213 -0.7977
   17SAPC   H4S 2178   5.044   3.398   9.562 -0.1188  0.6429  1.1396
   17SAPC   C25 2179   4.889   3.475   9.691 -0.6057  0.0709 -0.0880
   17SAPC   H5R 2180   4.957   3.443   9.772  2.5147 -1.4776 -3.2008
   17SAPC   C26 2181   4.786   3.563   9.713 -0.4040 -0.7869  0.0082
   17SAPC   H6R 2182   4.751   3.598   9.811 -1.1264 -1.0261 -0.1632
   17SAPC   C27 2183   4.700   3.617   9.600 -0.2848  0.3918 -0.5991
   17SAPC   H7R 2184   4.595   3.624   9.637  0.8130  0.8966  2.6145
   17SAPC   H7S 2185   4.690   3.550   9.512 -0.4856  0.4121 -0.5908
   17SAPC   C28 2186   4.744   3.757   9.559  0.4819  0.2891 -0.0895
   17SAPC   H8R 2187   4.773   3.831   9.635 -1.5873 -1.3380  2.3630
   17SAPC   C29 2188   4.737   3.813   9.434 -0.6562 -0.3812 -0.5337
   17SAPC   H9R 2189   4.770   3.917   9.422 -1.2782  0.0186  1.0740
   17SAPC  C210 2190   4.690   3.746   9.306  0.1960 -0.2547  0.9419
   17SAPC  H10R 2191   4.596   3.799   9.278  1.0511  1.0457  0.5054
   17SAPC  H10S 2192   4.655   3.642   9.320 -0.0452 -0.0539  1.8713
   17SAPC  C211 2193   4.803   3.737   9.202  0.6522 -0.3093 -0.3689
   17SAPC  H11R 2194   4.895   3.687   9.235  0.1447 -1.0971 -0.1346
   17SAPC  C212 2195   4.790   3.762   9.065  0.2504  0.3084 -0.0344
   17SAPC  H12R 2196   4.882   3.761   9.005 -0.8747 -1.2135 -1.7689
   17SAPC  C213 2197   4.668   3.809   8.988  0.8226  0.2984 -0.0040
   17SAPC  H13R 2198   4.697   3.908   8.946  1.6310 -0.7284 -1.9442
   17SAPC  H13S 2199   4.588   3.830   9.062  2.4815 -0.9290  2.1837
   17SAPC  C214 2200   4.639   3.728   8.867  0.0293 -0.0351 -0.6035
   17SAPC  H14R 2201   4.726   3.670   8.831  0.2248 -0.0040 -0.1800
   17SAPC  C215 2202   4.528   3.738   8.790  0.4755  0.3815 -0.0145
   17SAPC  H15R 2203   4.522   3.668   8.705  1.0933  2.5973 -1.9285
   17SAPC  C216 2204   4.417   3.837   8.810  0.5359  0.4513  0.8818
   17SAPC  H16R 2205   4.419   3.913   8.729  3.1754 -0.3483  0.1562
   17SAPC  H16S 2206   4.425   3.898   8.903  0.5689  2.2180 -0.2377
   17SAPC  C217 2207   4.275   3.771   8.818 -0.1137  0.1199  0.0124
   17SAPC  H17R 2208   4.204   3.853   8.841 -0.2164  0.3199 -1.0169
   17SAPC  H17S 2209   4.264   3.694   8.897  0.8000 -0.4225 -0.3833
   17SAPC  C218 2210   4.222   3.705   8.684 -0.4239  0.3276 -0.3860
   17SAPC  H18R 2211   4.114   3.677   8.690 -0.8421  1.7070 -1.2546
   17SAPC  H18S 2212   4.291   3.623   8.655  0.9833  1.6106 -0.7135
   17SAPC  C219 2213   4.239   3.797   8.570  0.1523  0.0508  0.1422
   17SAPC  H19R 2214   4.196   3.732   8.490 -0.4346  1.5277 -0.7796
   17SAPC  H19S 2215   4.345   3.808   8.541 -0.2111 -1.9923 -2.1237
   17SAPC  C220 2216   4.161   3.925   8.591 -0.1653 -0.4977  0.4162
   17SAPC  H20R 2217   4.229   4.001   8.636 -1.6668  2.4395 -2.0357
   17SAPC  H20S 2218   4.074   3.913   8.659 -0.2773  1.6681  0.6852
   17SAPC  H20T 2219   4.116   3.976   8.502 -0.1924 -1.6954 -0.2634
   17SAPC   C33 2220   4.402   3.029   8.908 -0.4208 -0.2331  0.0984
   17SAPC   H3X 2221   4.348   3.124   8.928 -1.7271  0.4429 -5.7144
   17SAPC   H3Y 2222   4.330   2.954   8.870  0.4465 -0.5567 -0.9168
   17SAPC   C34 2223   4.490   3.044   8.777 -0.6657  0.1224  0.4520
   17SAPC   H4X 2224   4.528   2.944   8.747  0.1466  0.4144  0.4845
   17SAPC   H4Y 2225   4.571   3.110   8.816 -1.1221  0.9884 -0.0660
   17SAPC   C35 2226   4.419   3.119   8.659  0.0094  0.8325  0.1246
   17SAPC   H5X 2227   4.320   3.070   8.640  0.1843  1.4903 -2.6087
   17SAPC   H5Y 2228   4.474   3.093   8.566  0.6135  0.1853  0.6562
   17SAPC   C36 2229   4.429   3.272   8.672 -0.4364  0.5544  0.0641
   17SAPC   H6X 2230   4.534   3.290   8.706 -0.4401  0.6408  0.0229
   17SAPC   H6Y 2231   4.365   3.312   8.753 -1.9988  2.2586 -1.9866
   17SAPC   C37 2232   4.403   3.349   8.544 -0.1898  0.0955 -0.1979
   17SAPC   H7X 2233   4.474   3.315   8.466 -2.8852 -0.5170 -2.4664
   17SAPC   H7Y 2234   4.418   3.457   8.566  1.1414  0.0335 -0.7758
   17SAPC   C38 2235   4.264   3.322   8.495 -0.8742  0.2886  0.5397
   17SAPC   H8X 2236   4.201   3.378   8.567  1.4414  3.0088  0.5491
   17SAPC   H8Y 2237   4.229   3.217   8.492 -0.1455  0.0052  1.8430
   17SAPC   C39 2238   4.238   3.387   8.360 -0.2696  0.0529  0.0801
   17SAPC   H9X 2239   4.269   3.493   8.362 -0.5825  0.1358  1.1541
   17SAPC   H9Y 2240   4.130   3.404   8.342 -0.2928 -1.4194 -1.3220
   17SAPC  C310 2241   4.292   3.314   8.230  0.7448 -0.9196 -0.9268
   17SAPC  H10X 2242   4.403   3.304   8.237  0.9941  2.3661  1.3396
   17SAPC  H10Y 2243   4.254   3.390   8.158 -2.7814 -2.3848 -0.7158
   17SAPC  C311 2244   4.225   3.192   8.190  0.1996  0.4558  0.5884
   17SAPC  H11X 2245   4.116   3.209   8.200 -0.4136 -2.4075 -0.8347
   17SAPC  H11Y 2246   4.267   3.112   8.255  1.3857  1.4717  1.1168
   17SAPC  C312 2247   4.243   3.135   8.046  0.3033 -0.2160 -0.5355
   17SAPC  H12X 2248   4.226   3.213   7.969  2.0453 -0.4214 -1.1470
   17SAPC  H12Y 2249   4.176   3.049   8.026 -1.0877  0.1689  2.1720
   17SAPC  C313 2250   4.382   3.086   8.010  0.3572 -0.4848 -0.0261
   17SAPC  H13X 2251   4.385   3.060   7.902  1.3955 -0.1609 -0.0860
   17SAPC  H13Y 2252   4.416   3.000   8.072  1.1723 -0.4565 -0.4300
   17SAPC  C314 2253   4.494   3.197   8.021 -0.5622  0.0047 -0.3665
   17SAPC  H14X 2254   4.527   3.211   8.126 -1.3644 -2.1883  0.2089
   17SAPC  H14Y 2255   4.456   3.299   7.998  0.5934  0.4572 -0.2605
   17SAPC  C315 2256   4.612   3.167   7.929 -0.3248 -0.5701  0.7287
   17SAPC  H15X 2257   4.693   3.243   7.941 -0.8001 -0.0223  0.4552
   17SAPC  H15Y 2258   4.573   3.163   7.825  0.3403 -0.4914  0.4718
   17SAPC  C316 2259   4.675   3.027   7.958  0.9161  0.2777  0.0492
   17SAPC  H16X 2260   4.617   2.951   7.902  0.0506 -0.3533  1.7870
   17SAPC  H16Y 2261   4.679   3.001   8.065 -1.9631 -0.8862 -0.0869
   17SAPC  C317 2262   4.819   3.028   7.915  0.0620  0.0096 -0.0864
   17SAPC  H17X 2263   4.883   3.094   7.977  0.9051 -0.7019 -0.1895
   17SAPC  H17Y 2264   4.833   3.061   7.810  0.1223  0.1353 -0.0392
   17SAPC  C318 2265   4.870   2.886   7.907  0.3162 -0.5223  0.3843
   17SAPC  H18X 2266   4.806   2.831   7.835 -0.2251  2.3425 -1.3801
   17SAPC  H18Y 2267   4.973   2.885   7.866  0.6925  0.5288  1.2886
   17SAPC  H18Z 2268   4.874   2.831   8.003  0.3671 -0.2066  0.5632
   18SAPC     N 2269   5.063   2.591   9.991 -0.4698  0.5228 -0.2517
   18SAPC   C12 2270   5.004   2.456   9.950  0.9207 -0.7538  0.3684
   18SAPC  H12A 2271   5.021   2.383  10.027  1.7008  0.3622  1.2704
   18SAPC  H12B 2272   5.073   2.423   9.874  2.6064 -1.1674  2.0473
   18SAPC   C13 2273   5.207   2.574  10.039 -0.0467  0.1432 -0.4015
   18SAPC  H13A 2274   5.221   2.499  10.115  2.2165  0.6582 -0.2882
   18SAPC  H13B 2275   5.269   2.566   9.951  1.0343 -2.7324  0.5607
   18SAPC  H13C 2276   5.244   2.665  10.083 -0.1886  0.8319 -1.6711
   18SAPC   C14 2277   5.057   2.681   9.874 -0.5091 -0.0397 -0.5436
   18SAPC  H14A 2278   5.092   2.626   9.788  1.1860  0.7347 -0.3834
   18SAPC  H14B 2279   4.956   2.711   9.850 -0.0553  2.6893  0.7418
   18SAPC  H14C 2280   5.120   2.767   9.891  1.1614 -0.8274 -2.5702
   18SAPC   C15 2281   4.992   2.655  10.099  0.1448  0.0931  0.1824
   18SAPC  H15A 2282   4.966   2.580  10.172  0.8662  0.2004  0.5577
   18SAPC  H15B 2283   5.057   2.726  10.148 -0.3426 -0.0144  1.0034
   18SAPC  H15C 2284   4.907   2.713  10.066 -0.9402 -0.6473  1.6303
   18SAPC   C11 2285   4.857   2.453   9.900  0.6457  0.3599  0.1591
   18SAPC  H11A 2286   4.794   2.523   9.960  1.1893  0.0846  1.0655
   18SAPC  H11B 2287   4.816   2.350   9.904 -0.8201  0.8899 -0.7681
   18SAPC     P 2288   4.909   2.425   9.640 -0.1841  0.1155 -0.3865
   18SAPC   O13 2289   5.052   2.396   9.672 -0.0206 -0.3872  0.3436
   18SAPC   O14 2290   4.814   2.320   9.600  0.1050  0.2989 -0.5627
   18SAPC   O12 2291   4.857   2.503   9.766 -0.4277  0.0805  0.7059
   18SAPC   O11 2292   4.903   2.537   9.532  0.0692 -0.1171  0.5796
   18SAPC    C1 2293   4.879   2.673   9.525 -0.5750  0.3114 -0.2186
   18SAPC    HA 2294   4.782   2.693   9.475 -0.1464 -1.1016 -1.6615
   18SAPC    HB 2295   4.874   2.722   9.624  0.1736  0.6393 -0.3390
   18SAPC    C2 2296   5.007   2.732   9.458 -0.5399  0.6300  0.0101
   18SAPC    HS 2297   5.022   2.839   9.485  0.9481  0.5220 -0.3339
   18SAPC   O21 2298   5.007   2.717   9.325  0.5174  0.3605 -0.1118
   18SAPC   C21 2299   4.909   2.772   9.255  0.1136  0.4145 -0.4349
   18SAPC   O22 2300   4.813   2.836   9.298  0.2307  0.3015  0.1055
   18SAPC   C22 2301   4.959   2.763   9.112 -0.0558  0.6036  0.5487
   18SAPC   H2R 2302   5.053   2.823   9.110  1.3095 -1.4938  0.5523
   18SAPC   H2S 2303   4.985   2.659   9.086  2.1782  0.8645  1.6210
   18SAPC    C3 2304   5.145   2.674   9.507  0.3607  0.5681  0.2254
   18SAPC    HX 2305   5.149   2.567   9.477 -0.1530  0.2132  1.4234
   18SAPC    HY 2306   5.155   2.689   9.616  0.5394  3.2633 -0.1081
   18SAPC   O31 2307   5.265   2.730   9.451 -0.0813  0.2963 -0.2657
   18SAPC   C31 2308   5.289   2.858   9.458  0.6003  0.1119  1.2006
   18SAPC   O32 2309   5.224   2.940   9.522 -0.4406  0.1749 -0.4222
   18SAPC   C32 2310   5.413   2.893   9.379  0.0073 -0.6600  0.5435
   18SAPC   H2X 2311   5.499   2.830   9.411  1.6256 -0.1446 -2.5497
   18SAPC   H2Y 2312   5.433   2.998   9.411 -0.3242 -0.9658  1.7588
   18SAPC   C23 2313   4.856   2.815   9.014  0.2806 -0.5502 -0.1625
   18SAPC   H3R 2314   4.819   2.914   9.049  1.0802 -0.9852  1.9656
   18SAPC   H3S 2315   4.771   2.744   9.002 -0.4463 -0.1067  2.1409
   18SAPC   C24 2316   4.929   2.826   8.879 -0.3787 -0.1203 -0.3484
   18SAPC   H4R 2317   4.972   2.726   8.855  1.2523  1.0350 -2.4712
   18SAPC   H4S 2318   5.014   2.897   8.888 -0.7774  0.5145 -1.5651
   18SAPC   C25 2319   4.843   2.878   8.769  0.5932  1.0341  0.6566
   18SAPC   H5R 2320   4.765   2.805   8.744  1.0989  0.2332  1.4306
   18SAPC   C26 2321   4.857   2.984   8.693  0.7256  0.3438 -0.0095
   18SAPC   H6R 2322   4.772   3.003   8.626  0.6979 -0.4493 -0.2050
   18SAPC   C27 2323   4.957   3.097   8.701 -0.0081 -0.1908  0.1710
   18SAPC   H7R 2324   5.024   3.095   8.612 -1.0282  0.1796 -0.6158
   18SAPC   H7S 2325   5.019   3.090   8.792 -0.2936  0.3807  0.4104
   18SAPC   C28 2326   4.875   3.227   8.690 -0.4074 -0.1921  0.5763
   18SAPC   H8R 2327   4.807   3.258   8.770 -2.2660  1.0241 -1.4182
   18SAPC   C29 2328   4.883   3.309   8.580 -0.2537 -0.0175 -0.2468
   18SAPC   H9R 2329   4.810   3.390   8.580 -1.1890 -0.8348  1.7777
   18SAPC  C210 2330   4.970   3.301   8.453  0.0791  0.1623 -0.1779
   18SAPC  H10R 2331   5.076   3.272   8.469  0.0950 -0.3611 -1.2493
   18SAPC  H10S 2332   4.982   3.408   8.427 -0.5435 -0.0338 -1.2802
   18SAPC  C211 2333   4.916   3.234   8.332  0.5764  0.1613  0.2276
   18SAPC  H11R 2334   4.962   3.134   8.321  1.6946  0.6496  0.4466
   18SAPC  C212 2335   4.811   3.273   8.255 -0.5826 -0.7156  0.0059
   18SAPC  H12R 2336   4.778   3.213   8.168 -0.2206  0.4487 -0.9494
   18SAPC  C213 2337   4.735   3.404   8.272  0.0218  0.0690  0.1643
   18SAPC  H13R 2338   4.703   3.406   8.378 -0.9702 -2.1029 -0.0516
   18SAPC  H13S 2339   4.641   3.395   8.213  0.5964 -0.8153 -0.6426
   18SAPC  C214 2340   4.811   3.524   8.225 -0.0632 -0.1774  0.0947
   18SAPC  H14R 2341   4.898   3.507   8.160 -0.3589  0.0773 -0.3814
   18SAPC  C215 2342   4.796   3.648   8.271 -0.0447 -0.2373 -0.7755
   18SAPC  H15R 2343   4.854   3.734   8.237  0.6759 -0.5100 -0.2402
   18SAPC  C216 2344   4.698   3.693   8.380 -0.3919  0.5859  0.3577
   18SAPC  H16R 2345   4.745   3.756   8.459 -0.4653  0.6542  0.3477
   18SAPC  H16S 2346   4.648   3.604   8.425  1.8775 -0.0782  1.6259
   18SAPC  C217 2347   4.581   3.788   8.335 -0.5072  0.5222 -0.2454
   18SAPC  H17R 2348   4.508   3.776   8.418 -0.7014 -0.8498 -0.5972
   18SAPC  H17S 2349   4.528   3.733   8.254 -2.2173 -1.3268  2.0511
   18SAPC  C218 2350   4.616   3.925   8.296 -0.4108 -0.1517 -0.1330
   18SAPC  H18R 2351   4.699   3.961   8.360  1.0337 -3.1162 -0.2456
   18SAPC  H18S 2352   4.534   4.000   8.305 -1.8124 -1.4554 -1.6404
   18SAPC  C219 2353   4.661   3.935   8.146  0.0987  0.4698 -0.1297
   18SAPC  H19R 2354   4.591   3.868   8.090 -1.1735  1.0488  0.7385
   18SAPC  H19S 2355   4.769   3.912   8.141  0.1063  0.4995 -0.0995
   18SAPC  C220 2356   4.643   4.067   8.079 -0.4577  0.5569 -0.2462
   18SAPC  H20R 2357   4.540   4.076   8.037 -0.3716  1.5208 -0.2713
   18SAPC  H20S 2358   4.715   4.072   7.995 -1.2605 -0.8021 -1.0276
   18SAPC  H20T 2359   4.654   4.161   8.137  0.2968 -0.5855  1.4974
   18SAPC   C33 2360   5.405   2.892   9.222  0.0245  0.2923 -0.0424
   18SAPC   H3X 2361   5.490   2.955   9.189 -0.6373  0.6374 -1.1070
   18SAPC   H3Y 2362   5.320   2.955   9.188 -0.0298 -0.3055 -1.0222
   18SAPC   C34 2363   5.389   2.750   9.168 -0.4077  0.3045  0.6332
   18SAPC   H4X 2364   5.292   2.715   9.209 -1.2180  2.2198  0.3914
   18SAPC   H4Y 2365   5.478   2.685   9.179 -2.5766 -2.7042  0.8469
   18SAPC   C35 2366   5.380   2.753   9.014  0.2292  0.6647 -0.2272
   18SAPC   H5X 2367   5.479   2.733   8.967 -0.0025 -0.1834 -0.3690
   18SAPC   H5Y 2368   5.333   2.851   8.991 -0.7309  0.3605  0.4188
   18SAPC   C36 2369   5.296   2.639   8.956  0.3011 -0.4738 -0.0633
   18SAPC   H6X 2370   5.189   2.643   8.984 -0.0143 -1.5523 -1.0724
   18SAPC   H6Y 2371   5.343   2.550   9.003  3.0911  0.3045 -1.2704
   18SAPC   C37 2372   5.311   2.620   8.804 -0.5545  0.5414  0.5289
   18SAPC   H7X 2373   5.231   2.550   8.774 -0.5207  0.9030 -0.4086
   18SAPC   H7Y 2374   5.408   2.571   8.782  0.0853  2.4895 -1.1889
   18SAPC   C38 2375   5.294   2.759   8.723 -0.5884  0.0782  0.0320
   18SAPC   H8X 2376   5.385   2.818   8.744 -1.2867  1.4890 -0.8078
   18SAPC   H8Y 2377   5.205   2.822   8.746 -0.4585  0.0903  0.4965
   18SAPC   C39 2378   5.285   2.731   8.573  0.1037 -0.3097  0.6103
   18SAPC   H9X 2379   5.203   2.657   8.564  0.7759 -0.9271 -0.5562
   18SAPC   H9Y 2380   5.378   2.684   8.534 -1.7242 -1.6478 -2.2711
   18SAPC  C310 2381   5.272   2.864   8.485  0.5863 -0.5842 -0.3818
   18SAPC  H10X 2382   5.372   2.910   8.471 -0.0202  0.3390 -1.7736
   18SAPC  H10Y 2383   5.205   2.936   8.539  0.5726 -1.4980  0.8484
   18SAPC  C311 2384   5.202   2.836   8.352  0.4107  0.0362  0.4366
   18SAPC  H11X 2385   5.102   2.790   8.368  0.5059 -0.2882  0.1213
   18SAPC  H11Y 2386   5.257   2.746   8.315  0.5850 -0.5445  2.0711
   18SAPC  C312 2387   5.218   2.940   8.239  0.1869 -0.0782  0.7191
   18SAPC  H12X 2388   5.314   2.995   8.252  0.9499 -1.5167  1.3118
   18SAPC  H12Y 2389   5.138   3.017   8.245 -1.3057 -1.3943 -1.6639
   18SAPC  C313 2390   5.215   2.868   8.096  0.0620 -0.2830  0.2154
   18SAPC  H13X 2391   5.108   2.850   8.073 -0.2908  1.0779  0.7159
   18SAPC  H13Y 2392   5.277   2.778   8.112 -0.0060 -0.9055 -2.6622
   18SAPC  C314 2393   5.267   2.951   7.987 -0.4696  0.8564 -0.1879
   18SAPC  H14X 2394   5.228   2.904   7.894  1.0936  0.5536 -0.7145
   18SAPC  H14Y 2395   5.377   2.962   7.980 -0.5236  1.3523 -0.2439
   18SAPC  C315 2396   5.213   3.094   7.996 -0.2194 -0.3078  0.1704
   18SAPC  H15X 2397   5.281   3.145   8.068 -1.2101  2.5317 -0.8314
   18SAPC  H15Y 2398   5.120   3.112   8.054 -0.5656 -0.2073 -0.4094
   18SAPC  C316 2399   5.209   3.169   7.860 -0.3838 -0.1260  0.2102
   18SAPC  H16X 2400   5.132   3.129   7.791  0.4910  1.7957 -1.9599
   18SAPC  H16Y 2401   5.308   3.146   7.814 -0.1362  1.3343 -0.0196
   18SAPC  C317 2402   5.198   3.324   7.874  0.3215  0.0602 -0.0505
   18SAPC  H17X 2403   5.206   3.362   7.770 -1.3872 -2.3453 -1.0982
   18SAPC  H17Y 2404   5.286   3.365   7.928  1.4741 -0.3183 -1.5993
   18SAPC  C318 2405   5.067   3.383   7.936 -0.0408 -0.1954 -0.3255
   18SAPC  H18X 2406   4.977   3.375   7.870 -0.2788 -0.8484  0.0698
   18SAPC  H18Y 2407   5.086   3.488   7.965  1.2491 -0.8271  1.1998
   18SAPC  H18Z 2408   5.047   3.317   8.023  1.2469 -1.7678 -1.1806
   19SAPC     N 2409   4.032   6.842   9.995 -0.2781 -0.1282  0.1926
   19SAPC   C12 2410   4.125   6.835   9.871 -0.6812 -0.3997 -0.0164
   19SAPC  H12A 2411   4.080   6.780   9.789 -3.7079 -0.0211  1.3275
   19SAPC  H12B 2412   4.204   6.777   9.917  0.2083  0.6992 -0.1490
   19SAPC   C13 2413   3.990   6.708  10.052  0.3041  0.3727  0.4985
   19SAPC  H13A 2414   3.926   6.715  10.139  0.6496 -1.7382  0.9633
   19SAPC  H13B 2415   3.930   6.665   9.973  1.4385 -0.7392  0.2295
   19SAPC  H13C 2416   4.070   6.637  10.067 -1.5767 -1.4847  2.1899
   19SAPC   C14 2417   4.110   6.918  10.104 -1.3509 -0.5942  1.0444
   19SAPC  H14A 2418   4.054   6.923  10.196 -0.9060 -0.5742  1.3168
   19SAPC  H14B 2419   4.206   6.877  10.132 -0.9726 -1.7141 -1.7721
   19SAPC  H14C 2420   4.127   7.019  10.068 -1.2350 -0.9946 -0.0188
   19SAPC   C15 2421   3.913   6.923   9.959  0.4559 -0.3846  0.7052
   19SAPC  H15A 2422   3.951   7.018   9.925  2.0524 -0.9607  0.8724
   19SAPC  H15B 2423   3.860   6.878   9.876  1.0175 -0.0257  0.1481
   19SAPC  H15C 2424   3.844   6.921  10.042 -0.6740 -0.6753 -0.2151
   19SAPC   C11 2425   4.184   6.966   9.812 -0.1772  0.3367  0.2704
   19SAPC  H11A 2426   4.099   7.022   9.768  1.1268 -0.1952 -3.0431
   19SAPC  H11B 2427   4.249   6.929   9.729  0.7567  0.8103  0.7872
   19SAPC     P 2428   4.273   7.184   9.904 -0.0088 -0.6841  0.0621
   19SAPC   O13 2429   4.141   7.242   9.903  0.1520  0.1053 -0.1752
   19SAPC   O14 2430   4.375   7.230   9.996  0.5347 -0.3203 -0.3168
   19SAPC   O12 2431   4.270   7.027   9.910 -0.0521  0.1863 -0.0854
   19SAPC   O11 2432   4.329   7.202   9.754  0.2439  0.2689 -0.1979
   19SAPC    C1 2433   4.369   7.339   9.721  0.2452 -0.2533 -0.6508
   19SAPC    HA 2434   4.374   7.408   9.808  0.6349  0.3164 -1.1235
   19SAPC    HB 2435   4.466   7.334   9.667  0.7265 -0.0497  0.1772
   19SAPC    C2 2436   4.268   7.413   9.629 -0.6878 -0.3113 -0.5649
   19SAPC    HS 2437   4.186   7.435   9.701 -0.3976 -1.8168  0.2495
   19SAPC   O21 2438   4.221   7.330   9.526  0.5602  0.4420 -0.1559
   19SAPC   C21 2439   4.114   7.365   9.456 -0.0610 -0.0631  0.5321
   19SAPC   O22 2440   4.048   7.466   9.474  0.0743 -0.1661 -0.1367
   19SAPC   C22 2441   4.079   7.256   9.348 -1.1521 -0.0986 -0.8915
   19SAPC   H2R 2442   4.045   7.312   9.259  2.0251  0.9013 -1.5206
   19SAPC   H2S 2443   4.175   7.218   9.306 -1.0558  0.2772 -1.0126
   19SAPC    C3 2444   4.325   7.542   9.570  0.2274 -0.4868  0.3553
   19SAPC    HX 2445   4.341   7.607   9.659 -0.7307 -0.4766  0.5250
   19SAPC    HY 2446   4.251   7.597   9.508  1.6499 -0.1371 -1.0733
   19SAPC   O31 2447   4.448   7.523   9.496 -0.0853 -0.6592  0.4988
   19SAPC   C31 2448   4.440   7.490   9.370  0.0798  0.6930  0.3909
   19SAPC   O32 2449   4.336   7.484   9.304 -0.5793 -0.2538  0.4185
   19SAPC   C32 2450   4.571   7.453   9.311 -0.1523 -0.3189  0.8028
   19SAPC   H2X 2451   4.629   7.392   9.383  2.3362 -0.7928 -1.4748
   19SAPC   H2Y 2452   4.615   7.553   9.289 -0.0776 -0.5674 -0.2044
   19SAPC   C23 2453   3.969   7.159   9.394 -0.1274 -0.1611 -0.9133
   19SAPC   H3R 2454   3.922   7.101   9.311  0.2560  0.7394 -1.7644
   19SAPC   H3S 2455   3.890   7.220   9.441  2.7978  3.1039 -0.0860
   19SAPC   C24 2456   4.018   7.056   9.496 -0.2355  0.2049  0.6721
   19SAPC   H4R 2457   4.097   7.098   9.561  0.5037 -0.1545  0.0070
   19SAPC   H4S 2458   4.068   6.971   9.445 -1.2336 -1.2370  2.0451
   19SAPC   C25 2459   3.899   6.993   9.568  0.0631 -0.2592 -0.3712
   19SAPC   H5R 2460   3.860   7.037   9.660  0.6111 -1.4649  0.4456
   19SAPC   C26 2461   3.834   6.876   9.532  0.3811  0.2631 -0.1405
   19SAPC   H6R 2462   3.742   6.851   9.588 -1.2591  0.8346 -2.5077
   19SAPC   C27 2463   3.850   6.796   9.407 -0.5549  0.6003  0.1705
   19SAPC   H7R 2464   3.953   6.810   9.370 -0.0305 -1.0196  0.9639
   19SAPC   H7S 2465   3.778   6.830   9.330 -1.1589  2.7394  1.6029
   19SAPC   C28 2466   3.839   6.649   9.435  0.0980  0.3205  0.4002
   19SAPC   H8R 2467   3.823   6.611   9.537  0.6739 -0.8954  0.0445
   19SAPC   C29 2468   3.841   6.558   9.331 -0.3680 -0.2635  0.4247
   19SAPC   H9R 2469   3.850   6.450   9.352 -1.6925 -0.7172 -1.2503
   19SAPC  C210 2470   3.856   6.587   9.185  0.1066 -0.1924  0.5405
   19SAPC  H10R 2471   3.821   6.687   9.153 -1.8649 -0.8686  0.4895
   19SAPC  H10S 2472   3.784   6.516   9.138 -1.3010  0.3834  1.7859
   19SAPC  C211 2473   3.995   6.576   9.133  0.5583  0.0921 -0.1696
   19SAPC  H11R 2474   4.051   6.669   9.115  1.4792 -0.7797 -1.8746
   19SAPC  C212 2475   4.058   6.461   9.102  0.0418  0.2954  0.1158
   19SAPC  H12R 2476   4.162   6.465   9.066 -0.1309  1.0004 -0.3048
   19SAPC  C213 2477   4.002   6.322   9.116 -1.2893  0.2776  0.4944
   19SAPC  H13R 2478   3.903   6.315   9.166 -0.6583 -0.1417  1.7123
   19SAPC  H13S 2479   4.065   6.261   9.185  0.5869 -0.1189 -1.5045
   19SAPC  C214 2480   3.998   6.264   8.971  0.7430  0.2519 -0.5014
   19SAPC  H14R 2481   3.900   6.249   8.923  0.3326  0.3471  0.3100
   19SAPC  C215 2482   4.107   6.212   8.904  0.2686 -0.0973 -0.1994
   19SAPC  H15R 2483   4.082   6.171   8.805 -1.9710 -0.0772  0.3316
   19SAPC  C216 2484   4.256   6.215   8.940  0.5247 -0.4800 -0.1035
   19SAPC  H16R 2485   4.296   6.114   8.965  0.8306 -0.5583 -0.8819
   19SAPC  H16S 2486   4.270   6.273   9.033 -0.1339 -0.5121  0.0181
   19SAPC  C217 2487   4.338   6.287   8.830 -0.3719  0.2693 -0.5681
   19SAPC  H17R 2488   4.428   6.330   8.878 -0.7658  0.3437  0.1131
   19SAPC  H17S 2489   4.283   6.378   8.797  0.4845  1.1068  0.3062
   19SAPC  C218 2490   4.398   6.201   8.717 -0.0127  0.5730 -0.1605
   19SAPC  H18R 2491   4.310   6.162   8.663  1.2204 -1.0938 -1.0079
   19SAPC  H18S 2492   4.437   6.110   8.768  0.2886  1.4789  1.2534
   19SAPC  C219 2493   4.503   6.252   8.624  0.1419 -0.4917  0.5207
   19SAPC  H19R 2494   4.577   6.170   8.618 -1.5320 -2.1350  1.8434
   19SAPC  H19S 2495   4.555   6.344   8.659  1.5485 -0.5680 -1.2822
   19SAPC  C220 2496   4.464   6.269   8.476 -0.5939 -0.1059 -0.0950
   19SAPC  H20R 2497   4.391   6.350   8.455 -1.2434 -0.6242  0.1221
   19SAPC  H20S 2498   4.446   6.170   8.429 -0.0386 -0.9277  1.3821
   19SAPC  H20T 2499   4.555   6.303   8.423  0.2787 -1.5835  0.4241
   19SAPC   C33 2500   4.566   7.370   9.180  1.1302 -0.4044  0.1508
   19SAPC   H3X 2501   4.661   7.362   9.124  0.1219  1.4322 -1.9104
   19SAPC   H3Y 2502   4.496   7.414   9.105  0.0228 -0.2816  1.2322
   19SAPC   C34 2503   4.521   7.221   9.203  0.1152 -0.1412 -0.3113
   19SAPC   H4X 2504   4.423   7.206   9.254 -0.9639 -2.9322 -3.0319
   19SAPC   H4Y 2505   4.597   7.178   9.272  0.5345  0.0415 -0.6647
   19SAPC   C35 2506   4.511   7.145   9.067  0.8424  0.5157 -0.0101
   19SAPC   H5X 2507   4.492   7.037   9.082  1.1942  0.7306  2.2428
   19SAPC   H5Y 2508   4.616   7.143   9.029  0.4648 -1.2400 -0.9545
   19SAPC   C36 2509   4.407   7.194   8.966 -0.6844 -0.2591  0.0901
   19SAPC   H6X 2510   4.427   7.150   8.866 -0.4066 -0.1817  0.1119
   19SAPC   H6Y 2511   4.409   7.304   8.951 -1.9797 -0.1109  0.8806
   19SAPC   C37 2512   4.263   7.158   9.003 -0.4469 -0.6421  0.1133
   19SAPC   H7X 2513   4.238   7.210   9.098 -0.4344 -0.7066  0.1514
   19SAPC   H7Y 2514   4.261   7.050   9.029 -1.3964 -1.0999 -1.7778
   19SAPC   C38 2515   4.160   7.183   8.891  0.0747  0.6669 -0.7409
   19SAPC   H8X 2516   4.182   7.132   8.794 -2.2298  1.3458 -1.6557
   19SAPC   H8Y 2517   4.172   7.290   8.862 -2.7640  1.2508  0.0921
   19SAPC   C39 2518   4.014   7.167   8.932  0.0780 -0.0365 -0.0682
   19SAPC   H9X 2519   3.946   7.214   8.857 -2.0453 -2.0442  0.5291
   19SAPC   H9Y 2520   3.999   7.211   9.033  1.6341 -0.9359  0.5764
   19SAPC  C310 2521   3.976   7.019   8.945  0.6378  0.9823  0.2334
   19SAPC  H10X 2522   3.869   7.009   8.973  0.4272 -0.8707 -1.1155
   19SAPC  H10Y 2523   4.034   6.963   9.021 -0.6172 -0.0007  0.4738
   19SAPC  C311 2524   4.004   6.939   8.818  0.5577  0.4392  0.6528
   19SAPC  H11X 2525   4.112   6.918   8.809  0.1765 -0.8647 -1.2963
   19SAPC  H11Y 2526   3.983   6.992   8.722 -1.4697  0.4974  1.1074
   19SAPC  C312 2527   3.928   6.803   8.796  0.3925 -0.3308  0.5539
   19SAPC  H12X 2528   3.820   6.831   8.794  1.1818  2.8748 -0.3998
   19SAPC  H12Y 2529   3.940   6.733   8.881 -1.2690 -0.2261  0.8860
   19SAPC  C313 2530   3.971   6.721   8.665  1.3590  0.3159 -0.5209
   19SAPC  H13X 2531   4.079   6.730   8.640  1.3630 -1.1656 -1.0837
   19SAPC  H13Y 2532   3.910   6.767   8.585  0.3310 -0.5618 -0.2627
   19SAPC  C314 2533   3.942   6.574   8.685 -0.6139 -0.1266  0.5779
   19SAPC  H14X 2534   3.835   6.545   8.695 -0.8786  0.9829  0.9919
   19SAPC  H14Y 2535   4.000   6.549   8.777 -0.3831 -0.8404  0.2485
   19SAPC  C315 2536   4.004   6.478   8.587  0.6863 -0.0107  1.1218
   19SAPC  H15X 2537   3.964   6.379   8.618 -2.2508  0.5345 -0.6970
   19SAPC  H15Y 2538   4.114   6.466   8.595  0.7161  1.0019  2.4769
   19SAPC  C316 2539   3.976   6.495   8.434  0.0316 -0.1515  0.2333
   19SAPC  H16X 2540   4.003   6.599   8.407  1.3663 -0.5405  0.0445
   19SAPC  H16Y 2541   3.868   6.481   8.412 -0.5300  3.5347  0.3519
   19SAPC  C317 2542   4.077   6.429   8.348 -0.3330  0.3318 -0.0329
   19SAPC  H17X 2543   4.083   6.325   8.388  2.5126  1.2137  1.9658
   19SAPC  H17Y 2544   4.179   6.466   8.370 -1.3890  3.0120  0.4812
   19SAPC  C318 2545   4.058   6.424   8.191 -0.5174  0.4518  0.5642
   19SAPC  H18X 2546   3.956   6.382   8.177  0.7636 -2.2605 -0.9408
   19SAPC  H18Y 2547   4.126   6.355   8.137 -0.6285  0.1469  0.8100
   19SAPC  H18Z 2548   4.063   6.521   8.137  0.3410  0.1611  0.1175
   20SAPC     N 2549   4.466   0.794  10.109  0.5035  0.0385  0.2460
   20SAPC   C12 2550   4.431   0.648  10.132  0.2040  0.3975  0.4491
   20SAPC  H12A 2551   4.464   0.630  10.233  2.1250  2.4764  0.2367
   20SAPC  H12B 2552   4.487   0.585  10.064 -2.6958  0.4079 -2.0628
   20SAPC   C13 2553   4.384   0.880  10.195 -0.8344  0.0439  0.0880
   20SAPC  H13A 2554   4.438   0.974  10.202 -0.8692  0.2667 -2.1166
   20SAPC  H13B 2555   4.284   0.902  10.159 -1.2305  1.8703  2.2072
   20SAPC  H13C 2556   4.375   0.847  10.297 -0.5546 -1.7640 -0.4548
   20SAPC   C14 2557   4.607   0.826  10.138  0.0178 -0.1897 -0.0697
   20SAPC  H14A 2558   4.673   0.777  10.068  0.3012 -0.9301  0.6988
   20SAPC  H14B 2559   4.635   0.930  10.145 -0.5638  0.0125 -0.7367
   20SAPC  H14C 2560   4.637   0.794  10.237  1.1937 -0.8656 -0.6318
   20SAPC   C15 2561   4.435   0.831   9.966 -0.0150 -0.0700  0.1064
   20SAPC  H15A 2562   4.378   0.923   9.965  1.3321  0.7802  0.7585
   20SAPC  H15B 2563   4.526   0.855   9.914 -1.2622 -0.2760 -2.2466
   20SAPC  H15C 2564   4.384   0.748   9.919 -0.1413 -0.1830  0.4407
   20SAPC   C11 2565   4.283   0.604  10.120 -0.3046  0.2246  0.2270
   20SAPC  H11A 2566   4.236   0.654  10.207 -1.0397  1.7649 -1.0045
   20SAPC  H11B 2567   4.284   0.497  10.146  0.5888  0.5810  1.7033
   20SAPC     P 2568   4.188   0.537   9.889  0.2656  0.1159 -0.3211
   20SAPC   O13 2569   4.300   0.438   9.905 -0.5171 -0.4118 -0.9259
   20SAPC   O14 2570   4.051   0.485   9.902 -0.1044  0.1253 -0.6529
   20SAPC   O12 2571   4.214   0.642  10.000  0.1894 -0.3338 -0.0371
   20SAPC   O11 2572   4.208   0.612   9.752 -0.1358  0.4965 -0.4201
   20SAPC    C1 2573   4.142   0.732   9.715  0.2872  0.0651  0.1284
   20SAPC    HA 2574   4.115   0.808   9.791  0.3828  1.7025 -1.4325
   20SAPC    HB 2575   4.216   0.788   9.653  1.0976 -0.2070  0.8306
   20SAPC    C2 2576   4.023   0.707   9.618 -0.2680 -0.6781  0.3358
   20SAPC    HS 2577   3.976   0.617   9.665  0.9618 -2.2414 -1.3479
   20SAPC   O21 2578   4.074   0.676   9.480 -0.1788  0.4351 -0.5015
   20SAPC   C21 2579   3.984   0.625   9.395 -0.9438 -0.1776 -0.2396
   20SAPC   O22 2580   3.870   0.592   9.419 -0.3368 -0.1361 -0.3621
   20SAPC   C22 2581   4.054   0.607   9.264 -0.7397  0.1696 -0.0431
   20SAPC   H2R 2582   4.102   0.701   9.227  1.5199 -0.7805  0.4182
   20SAPC   H2S 2583   4.146   0.547   9.281 -0.2784  1.1417  0.9614
   20SAPC    C3 2584   3.926   0.829   9.607  0.0582  0.1669 -0.5643
   20SAPC    HX 2585   3.904   0.865   9.710  0.3091  0.9934 -0.7935
   20SAPC    HY 2586   3.829   0.795   9.566  0.1886  0.4544 -1.1121
   20SAPC   O31 2587   3.983   0.941   9.535  0.8847 -0.0080  0.1062
   20SAPC   C31 2588   4.070   1.022   9.590 -0.2220  0.5946 -0.2947
   20SAPC   O32 2589   4.088   1.033   9.714 -0.0042  1.2587  0.1343
   20SAPC   C32 2590   4.135   1.121   9.498 -0.5128  0.3455 -0.3865
   20SAPC   H2X 2591   4.245   1.105   9.496 -0.4657  0.6191  0.0198
   20SAPC   H2Y 2592   4.123   1.219   9.549  0.5041  0.3817 -0.1995
   20SAPC   C23 2593   3.963   0.552   9.149  1.1324 -0.1321  0.5217
   20SAPC   H3R 2594   3.894   0.632   9.114  4.4961  3.4793  1.7801
   20SAPC   H3S 2595   3.902   0.465   9.182 -2.2493  0.7237 -3.0915
   20SAPC   C24 2596   4.035   0.487   9.029  0.6965 -0.0364 -0.0542
   20SAPC   H4R 2597   4.079   0.569   8.967 -0.1460 -0.8661 -1.7878
   20SAPC   H4S 2598   3.968   0.440   8.954 -2.5250  1.7742  1.6031
   20SAPC   C25 2599   4.129   0.373   9.067 -0.0774  0.0495 -0.0592
   20SAPC   H5R 2600   4.114   0.312   9.158 -0.4742  1.3354  0.7530
   20SAPC   C26 2601   4.235   0.330   8.990 -0.0592  0.0464 -0.0273
   20SAPC   H6R 2602   4.298   0.250   9.031  2.7588  2.3366  0.2960
   20SAPC   C27 2603   4.282   0.388   8.862 -0.3108 -0.3196  0.6764
   20SAPC   H7R 2604   4.272   0.499   8.858  1.3953 -0.2249 -1.9210
   20SAPC   H7S 2605   4.204   0.359   8.788 -0.9158 -1.3733  1.7204
   20SAPC   C28 2606   4.422   0.358   8.809 -0.0178 -0.7670 -0.4069
   20SAPC   H8R 2607   4.505   0.400   8.866 -0.0989  1.8155 -2.0835
   20SAPC   C29 2608   4.450   0.289   8.698  0.6835 -0.4301 -0.4323
   20SAPC   H9R 2609   4.557   0.267   8.683  1.1588  1.4734  0.0123
   20SAPC  C210 2610   4.336   0.232   8.606  0.0200 -0.1673 -0.7077
   20SAPC  H10R 2611   4.243   0.292   8.608  0.1726  0.0531 -0.1232
   20SAPC  H10S 2612   4.306   0.143   8.665  1.8224 -0.5949 -0.4030
   20SAPC  C211 2613   4.378   0.207   8.462 -0.1603 -0.0590 -0.4294
   20SAPC  H11R 2614   4.462   0.272   8.431 -0.4684  0.7091  0.3022
   20SAPC  C212 2615   4.316   0.118   8.376 -0.2529  0.4083  0.3171
   20SAPC  H12R 2616   4.347   0.110   8.271  1.1949 -0.9988  0.8365
   20SAPC  C213 2617   4.195   0.038   8.419  0.3744 -0.1241  0.2072
   20SAPC  H13R 2618   4.117   0.048   8.340  2.3858  3.4108 -1.4839
   20SAPC  H13S 2619   4.150   0.085   8.509  1.7343  1.3951  0.1296
   20SAPC  C214 2620   4.222  -0.104   8.444 -0.4569  0.1979 -0.1520
   20SAPC  H14R 2621   4.307  -0.128   8.509 -0.6550 -1.2829 -0.4304
   20SAPC  C215 2622   4.174  -0.208   8.386  0.6409  0.4510 -0.0318
   20SAPC  H15R 2623   4.183  -0.308   8.431  0.3497 -0.5628 -2.1633
   20SAPC  C216 2624   4.062  -0.215   8.286 -0.0611 -0.3864  0.3102
   20SAPC  H16R 2625   4.039  -0.113   8.249  2.4231 -0.0423 -0.4044
   20SAPC  H16S 2626   3.970  -0.262   8.328 -3.1954  1.8239 -3.7337
   20SAPC  C217 2627   4.097  -0.293   8.161 -0.0620  1.2082  0.8524
   20SAPC  H17R 2628   3.998  -0.318   8.117  1.8479 -2.3434 -1.7725
   20SAPC  H17S 2629   4.134  -0.392   8.197  3.3789  2.3750  0.7091
   20SAPC  C218 2630   4.205  -0.238   8.072  0.6309 -0.3049 -0.1890
   20SAPC  H18R 2631   4.297  -0.210   8.129  0.5201 -0.1443 -0.0910
   20SAPC  H18S 2632   4.170  -0.139   8.037 -1.0295  0.3615  3.1201
   20SAPC  C219 2633   4.265  -0.330   7.965 -0.0257 -0.2771 -0.0681
   20SAPC  H19R 2634   4.198  -0.347   7.877  1.1915 -1.3678 -0.8063
   20SAPC  H19S 2635   4.296  -0.427   8.009  0.4114  0.2601  0.8131
   20SAPC  C220 2636   4.386  -0.256   7.910 -0.8936  0.1113 -0.4120
   20SAPC  H20R 2637   4.435  -0.327   7.839  0.4824 -0.5525  1.1850
   20SAPC  H20S 2638   4.472  -0.237   7.978 -0.9070  2.7102 -1.0712
   20SAPC  H20T 2639   4.363  -0.158   7.864  0.3718  0.1486 -1.0080
   20SAPC   C33 2640   4.071   1.124   9.359  0.0677  0.0051 -0.6695
   20SAPC   H3X 2641   4.109   1.214   9.306 -1.8645  0.0635 -2.0309
   20SAPC   H3Y 2642   3.960   1.138   9.359  0.2205  1.5789  1.6136
   20SAPC   C34 2643   4.119   1.013   9.276 -0.0570  0.0146  0.6989
   20SAPC   H4X 2644   4.031   0.945   9.268 -1.8193  2.4980 -2.4746
   20SAPC   H4Y 2645   4.202   0.954   9.320  0.9660  0.3089 -0.7807
   20SAPC   C35 2646   4.156   1.046   9.136  0.1483  0.3729  0.1446
   20SAPC   H5X 2647   4.258   1.091   9.141  0.2733 -0.1129  2.4282
   20SAPC   H5Y 2648   4.085   1.126   9.105 -0.7207  0.2389  1.7669
   20SAPC   C36 2649   4.137   0.927   9.038  0.2192  0.8530 -0.1391
   20SAPC   H6X 2650   4.032   0.918   9.002 -0.0701  1.9765  0.3923
   20SAPC   H6Y 2651   4.168   0.833   9.090 -2.1488 -0.7429 -1.5184
   20SAPC   C37 2652   4.227   0.949   8.910 -0.0094  0.0105 -0.4237
   20SAPC   H7X 2653   4.336   0.945   8.926  0.0718 -0.2189 -1.0290
   20SAPC   H7Y 2654   4.199   1.053   8.881  0.5133  0.2653 -0.0259
   20SAPC   C38 2655   4.178   0.867   8.791  0.0649  0.0241  0.2752
   20SAPC   H8X 2656   4.074   0.882   8.755 -0.5120 -1.7139  1.1924
   20SAPC   H8Y 2657   4.200   0.761   8.817 -2.5783 -0.6492 -0.0295
   20SAPC   C39 2658   4.260   0.886   8.664  0.0771 -0.3040  0.1485
   20SAPC   H9X 2659   4.369   0.879   8.685  0.2928 -0.0790 -0.8677
   20SAPC   H9Y 2660   4.244   0.988   8.624  1.0902  0.5355  1.8093
   20SAPC  C310 2661   4.233   0.784   8.548 -0.3708  0.2601  0.2032
   20SAPC  H10X 2662   4.134   0.804   8.502 -1.4064  0.4702  2.4706
   20SAPC  H10Y 2663   4.239   0.677   8.579  1.9393 -0.1787 -1.5665
   20SAPC  C311 2664   4.334   0.808   8.427 -0.4804  0.1667  0.1434
   20SAPC  H11X 2665   4.437   0.789   8.464 -1.4214  0.8699  3.2826
   20SAPC  H11Y 2666   4.339   0.913   8.391  0.7743  0.4206  1.0637
   20SAPC  C312 2667   4.311   0.713   8.307 -0.2741 -0.2328 -0.0746
   20SAPC  H12X 2668   4.218   0.736   8.251 -0.7183  0.2041  0.8322
   20SAPC  H12Y 2669   4.293   0.613   8.352  1.2796  0.1054  1.3805
   20SAPC  C313 2670   4.445   0.700   8.216 -0.1938  0.0862 -0.4879
   20SAPC  H13X 2671   4.525   0.649   8.275 -1.1902  0.9347  1.6394
   20SAPC  H13Y 2672   4.499   0.792   8.184 -2.1674  0.9273 -1.4703
   20SAPC  C314 2673   4.428   0.621   8.091  0.1723  0.4631 -0.2556
   20SAPC  H14X 2674   4.522   0.643   8.036  0.5905  1.3456  0.8006
   20SAPC  H14Y 2675   4.347   0.667   8.030  2.0842  1.5643 -2.0255
   20SAPC  C315 2676   4.393   0.471   8.114  0.6163  0.0264  0.3327
   20SAPC  H15X 2677   4.317   0.469   8.194 -1.9869  1.3771 -2.0157
   20SAPC  H15Y 2678   4.480   0.412   8.150 -0.0748 -1.0710  0.2506
   20SAPC  C316 2679   4.355   0.395   7.990  0.1043 -0.2303  0.1260
   20SAPC  H16X 2680   4.434   0.391   7.912  0.5811 -1.6361  0.6518
   20SAPC  H16Y 2681   4.272   0.450   7.942  2.1859  1.3022 -1.8203
   20SAPC  C317 2682   4.312   0.248   8.019  0.0157 -0.1951  0.4672
   20SAPC  H17X 2683   4.238   0.238   8.101  1.3892 -2.6448  1.4990
   20SAPC  H17Y 2684   4.408   0.203   8.055  1.2345  2.3261  0.4809
   20SAPC  C318 2685   4.265   0.177   7.891 -0.0775  0.3289  0.6279
   20SAPC  H18X 2686   4.179   0.237   7.856 -1.3251 -1.0316  1.3370
   20SAPC  H18Y 2687   4.226   0.079   7.926 -0.1291 -0.5855 -1.8751
   20SAPC  H18Z 2688   4.349   0.172   7.818  1.8449 -1.6935  2.8687
   21SAPC     N 2689   3.751   0.313   9.696  0.1853 -0.3297  0.6275
   21SAPC   C12 2690   3.697   0.172   9.709 -0.2146  0.3670  0.5308
   21SAPC  H12A 2691   3.709   0.138   9.810  1.9136 -0.9760 -0.1499
   21SAPC  H12B 2692   3.756   0.103   9.651  0.6511 -0.0558  1.9169
   21SAPC   C13 2693   3.657   0.409   9.766  1.0441 -0.2092 -0.1168
   21SAPC  H13A 2694   3.653   0.397   9.873 -0.4263  1.7447  0.0810
   21SAPC  H13B 2695   3.679   0.513   9.751 -1.7262  0.4404  0.0513
   21SAPC  H13C 2696   3.552   0.388   9.748  1.7692 -1.8516 -2.6787
   21SAPC   C14 2697   3.887   0.332   9.744 -1.0645 -0.2614  0.1419
   21SAPC  H14A 2698   3.962   0.310   9.670  0.8546 -0.3148  2.0607
   21SAPC  H14B 2699   3.906   0.436   9.767  1.0058 -0.4012 -0.8087
   21SAPC  H14C 2700   3.903   0.281   9.838 -3.7189 -0.1867  0.6723
   21SAPC   C15 2701   3.741   0.347   9.552 -0.2294 -0.7893 -0.8121
   21SAPC  H15A 2702   3.786   0.443   9.532 -2.2712  0.3166 -0.2621
   21SAPC  H15B 2703   3.815   0.290   9.498  2.3251  0.9860  0.6892
   21SAPC  H15C 2704   3.637   0.339   9.523 -0.4731  0.2169 -0.2335
   21SAPC   C11 2705   3.552   0.140   9.689  0.0407  0.0588  0.3340
   21SAPC  H11A 2706   3.546   0.031   9.711 -0.6639 -0.0143 -0.1945
   21SAPC  H11B 2707   3.536   0.150   9.580  0.0445 -3.3444 -0.0567
   21SAPC     P 2708   3.439   0.169   9.925  0.0288  0.0025 -0.3260
   21SAPC   O13 2709   3.560   0.117   9.977  0.1763 -0.1930 -0.3295
   21SAPC   O14 2710   3.374   0.286   9.996  0.5875  0.3182 -0.2636
   21SAPC   O12 2711   3.457   0.204   9.770 -0.5200 -0.7261 -0.8318
   21SAPC   O11 2712   3.342   0.046   9.918  0.0999 -0.2019 -0.2640
   21SAPC    C1 2713   3.205   0.067   9.875  0.0130 -0.4943 -0.4824
   21SAPC    HA 2714   3.161   0.158   9.923 -1.5121 -0.4126 -1.9677
   21SAPC    HB 2715   3.179   0.083   9.768 -2.4315  0.6812  0.2425
   21SAPC    C2 2716   3.122  -0.060   9.909 -0.1062  0.0712  0.3607
   21SAPC    HS 2717   3.152  -0.087  10.012  0.2846  1.0598  0.5113
   21SAPC   O21 2718   3.131  -0.169   9.813 -0.0237  0.0919 -0.0329
   21SAPC   C21 2719   3.217  -0.263   9.847 -0.0742  0.6319  0.1875
   21SAPC   O22 2720   3.271  -0.275   9.957 -0.4755 -0.1765 -0.4267
   21SAPC   C22 2721   3.242  -0.359   9.734 -0.5055  0.2474  0.1528
   21SAPC   H2R 2722   3.336  -0.417   9.743  0.5131  2.0092  1.0303
   21SAPC   H2S 2723   3.153  -0.426   9.735 -1.2649  1.1854 -1.3798
   21SAPC    C3 2724   2.971  -0.029   9.916  0.0848  0.3970 -0.1724
   21SAPC    HX 2725   2.963   0.054   9.990 -2.1070 -0.5231  0.6556
   21SAPC    HY 2726   2.915  -0.111   9.965  1.0372  0.2270  0.6612
   21SAPC   O31 2727   2.909   0.019   9.797 -0.4623  0.6476  0.2030
   21SAPC   C31 2728   2.826  -0.065   9.727 -0.0568 -0.5697 -0.5497
   21SAPC   O32 2729   2.803  -0.181   9.751 -0.0199 -0.0268 -0.1477
   21SAPC   C32 2730   2.760   0.023   9.613 -0.3446  0.5675 -0.7772
   21SAPC   H2X 2731   2.710   0.103   9.671  2.3448  1.0586  0.9559
   21SAPC   H2Y 2732   2.684  -0.039   9.561  0.3635 -0.4173 -0.6580
   21SAPC   C23 2733   3.257  -0.282   9.604 -0.0294 -1.0045  0.1961
   21SAPC   H3R 2734   3.168  -0.218   9.593 -3.1068 -5.0493  0.4528
   21SAPC   H3S 2735   3.242  -0.353   9.520 -1.6439 -1.0996  0.5592
   21SAPC   C24 2736   3.390  -0.211   9.585 -0.4766 -0.7699 -0.6028
   21SAPC   H4R 2737   3.470  -0.268   9.533  0.1647  1.1284 -1.7573
   21SAPC   H4S 2738   3.440  -0.198   9.683  0.8042 -0.3069 -1.3092
   21SAPC   C25 2739   3.364  -0.085   9.511 -0.3482  0.0062  0.3710
   21SAPC   H5R 2740   3.307  -0.006   9.563  2.4668  2.6202 -0.3804
   21SAPC   C26 2741   3.375  -0.081   9.376 -0.3603 -0.5847  0.6546
   21SAPC   H6R 2742   3.326   0.008   9.334 -1.1584 -0.1728  2.3942
   21SAPC   C27 2743   3.412  -0.194   9.279 -0.4387  0.2031 -0.3785
   21SAPC   H7R 2744   3.335  -0.185   9.200  0.9087  0.7990 -1.6417
   21SAPC   H7S 2745   3.412  -0.296   9.323 -0.5731  1.7345  3.3378
   21SAPC   C28 2746   3.546  -0.170   9.220  0.1502 -0.4133  0.2130
   21SAPC   H8R 2747   3.619  -0.249   9.241  0.4236  0.1034  1.2542
   21SAPC   C29 2748   3.587  -0.062   9.152  0.0063 -0.0212 -0.4181
   21SAPC   H9R 2749   3.692  -0.065   9.120 -0.2736 -2.6988 -1.2388
   21SAPC  C210 2750   3.505   0.057   9.105 -0.1195  0.5095  0.2055
   21SAPC  H10R 2751   3.487   0.129   9.187  1.1145 -0.0339  0.9738
   21SAPC  H10S 2752   3.416   0.023   9.048 -0.9281  2.2018  0.4307
   21SAPC  C211 2753   3.598   0.141   9.013  0.0998 -0.1544 -0.4887
   21SAPC  H11R 2754   3.633   0.232   9.064  0.5161 -0.9439  0.6649
   21SAPC  C212 2755   3.633   0.112   8.887 -0.3697 -0.2065  0.3293
   21SAPC  H12R 2756   3.725   0.161   8.851 -2.5820  3.1992 -0.9261
   21SAPC  C213 2757   3.592  -0.005   8.799 -0.7795  0.0598 -0.1616
   21SAPC  H13R 2758   3.515   0.027   8.726 -1.0467 -1.4683 -0.5630
   21SAPC  H13S 2759   3.537  -0.072   8.869  0.1623  1.4309  1.9564
   21SAPC  C214 2760   3.700  -0.081   8.722  0.2236 -0.0998 -0.9020
   21SAPC  H14R 2761   3.710  -0.181   8.767  0.7737  0.6841  0.7543
   21SAPC  C215 2762   3.765  -0.046   8.615 -0.3380  0.0930 -0.1282
   21SAPC  H15R 2763   3.862  -0.093   8.591 -0.9601 -1.1352 -0.2681
   21SAPC  C216 2764   3.739   0.089   8.559 -0.2249  0.4595 -0.0203
   21SAPC  H16R 2765   3.829   0.152   8.573 -0.5676  0.3463  3.3527
   21SAPC  H16S 2766   3.664   0.147   8.618  0.0422 -0.0853  0.8614
   21SAPC  C217 2767   3.692   0.107   8.410 -0.1067  0.2259  0.2124
   21SAPC  H17R 2768   3.691   0.213   8.378 -1.9905  1.3316  3.6381
   21SAPC  H17S 2769   3.589   0.069   8.400 -0.6467  2.0193 -1.3066
   21SAPC  C218 2770   3.785   0.026   8.314  0.0206  0.2890 -0.6453
   21SAPC  H18R 2771   3.757  -0.077   8.345  3.3210 -0.6798 -0.7161
   21SAPC  H18S 2772   3.890   0.048   8.339 -0.0669 -1.4874  1.4921
   21SAPC  C219 2773   3.746   0.045   8.167  0.0431 -0.1008  0.0117
   21SAPC  H19R 2774   3.831  -0.010   8.121  0.6853  1.0031 -0.1603
   21SAPC  H19S 2775   3.745   0.152   8.135 -1.6945  0.2079  1.0363
   21SAPC  C220 2776   3.620  -0.020   8.125  0.0723  0.4680  0.8316
   21SAPC  H20R 2777   3.626  -0.124   8.162 -0.3154  0.2310  0.2357
   21SAPC  H20S 2778   3.615  -0.029   8.014 -2.6493  1.6290  0.8262
   21SAPC  H20T 2779   3.529   0.033   8.160 -0.8056 -1.1347  0.9809
   21SAPC   C33 2780   2.862   0.068   9.503  0.6257 -0.5639 -0.9283
   21SAPC   H3X 2781   2.947   0.119   9.553 -2.0813  3.1048  0.1906
   21SAPC   H3Y 2782   2.805   0.142   9.443  0.1999  0.2380  0.4517
   21SAPC   C34 2783   2.899  -0.032   9.387  0.1354  0.2260 -0.1415
   21SAPC   H4X 2784   2.810  -0.087   9.349  1.8616 -1.9824 -1.0754
   21SAPC   H4Y 2785   2.961  -0.112   9.433  0.3464  0.6327  0.2890
   21SAPC   C35 2786   2.977   0.029   9.273  0.1463 -0.7288 -0.0339
   21SAPC   H5X 2787   3.064   0.076   9.323  0.8877 -0.1644 -1.8274
   21SAPC   H5Y 2788   2.915   0.108   9.225  3.0857  1.9686  0.4560
   21SAPC   C36 2789   3.030  -0.070   9.164 -1.1390  0.5387  0.3275
   21SAPC   H6X 2790   2.943  -0.116   9.113 -1.6343 -0.9130  2.4072
   21SAPC   H6Y 2791   3.091  -0.147   9.218  0.0304  0.4313 -1.1299
   21SAPC   C37 2792   3.117  -0.007   9.053  0.3875  0.1710 -0.6584
   21SAPC   H7X 2793   3.217   0.026   9.090  0.1672  0.5063 -0.3569
   21SAPC   H7Y 2794   3.055   0.083   9.034 -1.4268 -0.5742  1.4897
   21SAPC   C38 2795   3.120  -0.098   8.923 -0.7511  0.1268 -0.3714
   21SAPC   H8X 2796   3.010  -0.105   8.907 -0.6408 -2.4332 -0.2816
   21SAPC   H8Y 2797   3.153  -0.202   8.942 -2.9511 -0.5285  0.0530
   21SAPC   C39 2798   3.192  -0.047   8.799 -0.1013 -0.1836 -0.5487
   21SAPC   H9X 2799   3.299  -0.041   8.829 -0.3079 -2.3023  0.6543
   21SAPC   H9Y 2800   3.155   0.054   8.771 -1.6305 -1.0459 -1.7001
   21SAPC  C310 2801   3.159  -0.140   8.678 -0.3935  0.1603 -0.7449
   21SAPC  H10X 2802   3.057  -0.125   8.637 -1.3760  1.5061  2.0632
   21SAPC  H10Y 2803   3.155  -0.246   8.710 -0.3007 -0.4520 -2.6954
   21SAPC  C311 2804   3.265  -0.124   8.566 -0.5572 -0.7928  0.0833
   21SAPC  H11X 2805   3.366  -0.155   8.602 -0.1334  1.5097  0.9397
   21SAPC  H11Y 2806   3.271  -0.016   8.539  2.2781 -1.0788 -0.6821
   21SAPC  C312 2807   3.220  -0.204   8.445 -0.0995  0.2180 -0.2420
   21SAPC  H12X 2808   3.125  -0.153   8.416 -1.1138 -1.0604  0.7426
   21SAPC  H12Y 2809   3.195  -0.307   8.480 -1.3102  0.2758 -0.9212
   21SAPC  C313 2810   3.312  -0.200   8.327  0.7878  0.5287 -0.0835
   21SAPC  H13X 2811   3.397  -0.265   8.358 -0.2638 -0.7281  0.1950
   21SAPC  H13Y 2812   3.367  -0.103   8.325  0.2720  1.0054  4.1994
   21SAPC  C314 2813   3.258  -0.220   8.189  0.1759  0.1176  0.0888
   21SAPC  H14X 2814   3.343  -0.216   8.118  0.2179 -1.1687  0.0591
   21SAPC  H14Y 2815   3.180  -0.144   8.166  1.1224  0.6942 -1.2678
   21SAPC  C315 2816   3.191  -0.366   8.178  0.0323 -0.2324 -0.7350
   21SAPC  H15X 2817   3.101  -0.375   8.243 -0.2560  0.3901 -1.0384
   21SAPC  H15Y 2818   3.266  -0.430   8.229  0.2098  1.3973  1.1432
   21SAPC  C316 2819   3.136  -0.402   8.043 -0.4691  0.2539  0.8112
   21SAPC  H16X 2820   3.086  -0.501   8.041  0.7001 -0.3462  0.4668
   21SAPC  H16Y 2821   3.226  -0.414   7.979 -1.3089 -1.3517 -0.0926
   21SAPC  C317 2822   3.058  -0.287   7.971 -0.2839  0.1414  0.0819
   21SAPC  H17X 2823   3.135  -0.231   7.914 -0.8069 -0.6020 -1.3759
   21SAPC  H17Y 2824   2.994  -0.229   8.041 -0.9829 -0.1620 -0.2991
   21SAPC  C318 2825   2.974  -0.340   7.851 -0.0864 -0.3637  0.0459
   21SAPC  H18X 2826   3.036  -0.407   7.787 -1.0230  0.6229 -1.9559
   21SAPC  H18Y 2827   2.932  -0.265   7.780 -0.6838 -0.3208  0.4395
   21SAPC  H18Z 2828   2.893  -0.407   7.887  0.9681 -1.7313 -0.0963
   22SAPC     N 2829   0.520   6.142   9.789  0.6547 -0.8833  0.3968
   22SAPC   C12 2830   0.474   6.001   9.758  0.3350 -0.2419 -0.5598
   22SAPC  H12A 2831   0.465   5.993   9.650  0.8975 -3.6531 -0.4087
   22SAPC  H12B 2832   0.376   5.993   9.803  1.7833  2.2517  3.2612
   22SAPC   C13 2833   0.568   6.143   9.932 -0.2821  0.0900  0.7881
   22SAPC  H13A 2834   0.486   6.139  10.001 -0.2244 -0.8596  0.8047
   22SAPC  H13B 2835   0.636   6.064   9.960 -0.1598  0.3412  1.2039
   22SAPC  H13C 2836   0.629   6.230   9.950  1.8201 -1.2611  0.4064
   22SAPC   C14 2837   0.624   6.175   9.691 -0.8343 -0.4795 -0.1026
   22SAPC  H14A 2838   0.581   6.177   9.591 -1.0262  4.4333 -0.0469
   22SAPC  H14B 2839   0.663   6.274   9.707  0.0094 -1.1873  2.4197
   22SAPC  H14C 2840   0.706   6.106   9.676 -0.6399 -0.0382 -1.1224
   22SAPC   C15 2841   0.402   6.234   9.763  0.6635  0.3095  0.3434
   22SAPC  H15A 2842   0.326   6.204   9.833 -0.4613  0.9393 -0.5970
   22SAPC  H15B 2843   0.436   6.337   9.770  0.1986  0.5155 -0.4268
   22SAPC  H15C 2844   0.360   6.213   9.666  1.1076  0.1842  0.1748
   22SAPC   C11 2845   0.560   5.875   9.805 -0.4974  0.0689  0.0177
   22SAPC  H11A 2846   0.510   5.786   9.761 -2.6737 -0.6270  3.6692
   22SAPC  H11B 2847   0.548   5.874   9.916 -0.6504  2.2277  0.0475
   22SAPC     P 2848   0.766   5.846   9.641 -0.1873  0.2581 -0.4148
   22SAPC   O13 2849   0.908   5.889   9.638 -0.3237 -0.2628 -0.1140
   22SAPC   O14 2850   0.735   5.703   9.621 -0.8925 -0.0194  0.5662
   22SAPC   O12 2851   0.702   5.888   9.778 -0.4441 -0.3558  0.0900
   22SAPC   O11 2852   0.690   5.937   9.545 -0.1419 -0.3974  0.8825
   22SAPC    C1 2853   0.767   5.999   9.437  0.1331 -0.3685  1.4502
   22SAPC    HA 2854   0.831   6.083   9.473  1.6748  0.1271 -2.2697
   22SAPC    HB 2855   0.843   5.924   9.404  0.7628  1.1159 -0.5527
   22SAPC    C2 2856   0.679   6.046   9.317  0.0998  0.4455 -0.4331
   22SAPC    HS 2857   0.592   6.100   9.360 -0.3906 -0.9413  0.3418
   22SAPC   O21 2858   0.636   5.927   9.251  0.8021  0.0976  0.2041
   22SAPC   C21 2859   0.535   5.852   9.315 -0.1750 -0.1508  0.2723
   22SAPC   O22 2860   0.453   5.903   9.386 -0.3732  0.4550 -0.1399
   22SAPC   C22 2861   0.549   5.705   9.291 -0.0815  0.5115  0.5315
   22SAPC   H2R 2862   0.645   5.692   9.235 -2.8926 -0.4806 -4.4257
   22SAPC   H2S 2863   0.544   5.646   9.385 -1.6721 -1.2412 -0.6127
   22SAPC    C3 2864   0.753   6.134   9.212 -0.5824 -0.7850  0.7721
   22SAPC    HX 2865   0.793   6.226   9.258  0.7867 -0.1760 -1.5597
   22SAPC    HY 2866   0.689   6.170   9.129  2.3434  0.9975 -0.7724
   22SAPC   O31 2867   0.855   6.052   9.140 -0.1122 -0.0789 -0.8321
   22SAPC   C31 2868   0.982   6.069   9.177  0.1179  0.7207 -0.0586
   22SAPC   O32 2869   1.023   6.150   9.259 -0.4673  0.0720 -0.1039
   22SAPC   C32 2870   1.064   5.960   9.113 -0.4801 -0.1508 -0.4006
   22SAPC   H2X 2871   0.996   5.881   9.075 -1.2850  0.0269  0.6436
   22SAPC   H2Y 2872   1.135   5.929   9.193  0.3426 -2.0290 -1.8192
   22SAPC   C23 2873   0.442   5.636   9.199 -0.0656 -0.4817  0.4493
   22SAPC   H3R 2874   0.348   5.631   9.258  0.6277 -1.5976  1.4872
   22SAPC   H3S 2875   0.475   5.538   9.159 -2.0339 -0.2044 -1.9434
   22SAPC   C24 2876   0.405   5.730   9.076 -0.1799  0.3099 -0.3466
   22SAPC   H4R 2877   0.406   5.837   9.106  1.1304 -0.4049  2.2022
   22SAPC   H4S 2878   0.302   5.713   9.036 -0.5917  0.2740  0.7165
   22SAPC   C25 2879   0.499   5.709   8.965 -0.1025 -0.4233  0.0551
   22SAPC   H5R 2880   0.537   5.606   8.961 -3.2436 -1.5522 -2.9907
   22SAPC   C26 2881   0.536   5.802   8.875 -0.2750  0.1707 -0.7861
   22SAPC   H6R 2882   0.608   5.770   8.798  0.5015 -1.4400  0.5762
   22SAPC   C27 2883   0.488   5.949   8.877  0.8522 -0.2794 -0.4091
   22SAPC   H7R 2884   0.409   5.972   8.951  0.9198 -1.8698  0.1702
   22SAPC   H7S 2885   0.441   5.962   8.777 -0.6124 -3.0046 -0.1119
   22SAPC   C28 2886   0.619   6.036   8.892  0.5051  0.2320 -0.4537
   22SAPC   H8R 2887   0.674   6.026   8.986  0.1043  2.1611  0.0072
   22SAPC   C29 2888   0.657   6.127   8.796  0.0742  1.0213  0.5050
   22SAPC   H9R 2889   0.757   6.169   8.816  1.0308  0.1473 -2.2217
   22SAPC  C210 2890   0.599   6.159   8.662 -0.2831  0.1137  0.5942
   22SAPC  H10R 2891   0.493   6.125   8.659 -0.3425  0.2748  0.8758
   22SAPC  H10S 2892   0.650   6.102   8.581  0.2778  0.9980  0.3185
   22SAPC  C211 2893   0.599   6.301   8.613  0.2147  0.0140 -0.2131
   22SAPC  H11R 2894   0.523   6.317   8.535  0.5906 -2.1721 -1.0562
   22SAPC  C212 2895   0.690   6.403   8.630 -0.5239 -0.2757 -0.2948
   22SAPC  H12R 2896   0.661   6.495   8.577 -0.8823  0.3673  0.9930
   22SAPC  C213 2897   0.817   6.397   8.712 -0.1109  0.6274  0.4929
   22SAPC  H13R 2898   0.902   6.450   8.664  0.9907 -2.6311 -1.2893
   22SAPC  H13S 2899   0.856   6.293   8.719 -2.3670 -0.2605  0.1189
   22SAPC  C214 2900   0.799   6.453   8.849 -0.7914 -0.1857 -0.0015
   22SAPC  H14R 2901   0.721   6.410   8.914  0.0355  0.7910  1.6478
   22SAPC  C215 2902   0.875   6.550   8.903 -0.5000  0.0684 -0.2830
   22SAPC  H15R 2903   0.862   6.573   9.010 -0.3208 -0.6699 -0.1004
   22SAPC  C216 2904   0.997   6.610   8.844 -0.8930 -0.1287 -0.0660
   22SAPC  H16R 2905   1.024   6.694   8.911  0.2206 -0.0608 -0.5961
   22SAPC  H16S 2906   0.975   6.670   8.753 -1.0539  1.5201  1.0181
   22SAPC  C217 2907   1.119   6.517   8.822  0.7065 -1.2388  0.0760
   22SAPC  H17R 2908   1.089   6.453   8.736 -0.9443 -0.0051 -0.2922
   22SAPC  H17S 2909   1.146   6.456   8.910  1.8502 -0.8268  0.0161
   22SAPC  C218 2910   1.238   6.610   8.774 -0.0396 -0.1601  0.3062
   22SAPC  H18R 2911   1.323   6.564   8.828  0.0553  1.1456  1.2900
   22SAPC  H18S 2912   1.211   6.713   8.804 -0.1619 -0.5219  1.4594
   22SAPC  C219 2913   1.265   6.605   8.630  0.0893  0.5736 -0.2480
   22SAPC  H19R 2914   1.295   6.499   8.614  0.0833  0.5948 -0.4069
   22SAPC  H19S 2915   1.354   6.669   8.611 -0.1166  1.2164  0.8965
   22SAPC  C220 2916   1.151   6.648   8.540 -0.2134 -0.0368 -0.3439
   22SAPC  H20R 2917   1.177   6.625   8.434 -1.6773 -2.0568 -0.3117
   22SAPC  H20S 2918   1.120   6.754   8.539  0.0774  0.0480 -0.3450
   22SAPC  H20T 2919   1.055   6.596   8.559  1.0305 -1.8720  1.2164
   22SAPC   C33 2920   1.156   6.011   8.996 -0.0976 -0.7129  0.0483
   22SAPC   H3X 2921   1.228   5.927   8.991  0.7999 -0.0945  1.8285
   22SAPC   H3Y 2922   1.201   6.106   9.032 -1.2941 -0.3101  0.5117
   22SAPC   C34 2923   1.084   6.047   8.866  0.6107  0.0326  0.2299
   22SAPC   H4X 2924   1.009   6.125   8.891 -1.4409 -1.7304 -0.2317
   22SAPC   H4Y 2925   1.026   5.956   8.839 -0.1337  0.4687  0.3238
   22SAPC   C35 2926   1.177   6.088   8.755 -0.2924  0.2801  0.3897
   22SAPC   H5X 2927   1.245   6.004   8.729 -0.8905  0.2427 -1.1055
   22SAPC   H5Y 2928   1.240   6.164   8.807  2.4038 -0.2786 -1.9694
   22SAPC   C36 2929   1.117   6.154   8.628 -0.3875  0.2703 -0.5715
   22SAPC   H6X 2930   1.197   6.201   8.567 -0.0171 -0.1290 -0.3936
   22SAPC   H6Y 2931   1.051   6.234   8.669 -0.8151 -0.0173 -0.6984
   22SAPC   C37 2932   1.032   6.056   8.533  0.1693 -0.1594  0.4897
   22SAPC   H7X 2933   0.940   6.020   8.585 -0.5819  2.0248  0.7009
   22SAPC   H7Y 2934   1.101   5.973   8.507  2.6043  2.7086 -2.7241
   22SAPC   C38 2935   0.979   6.130   8.405  0.3927  0.1063 -0.0805
   22SAPC   H8X 2936   1.073   6.170   8.360  2.0845 -1.8345  1.5621
   22SAPC   H8Y 2937   0.902   6.208   8.421  0.5740  0.2834 -0.0735
   22SAPC   C39 2938   0.910   6.027   8.314 -0.1973  0.0749  0.6347
   22SAPC   H9X 2939   0.831   5.978   8.374  1.6460 -0.6399  2.5588
   22SAPC   H9Y 2940   0.976   5.952   8.265  0.5564  1.4248 -0.4366
   22SAPC  C310 2941   0.825   6.093   8.203 -0.6544  0.0626  0.2799
   22SAPC  H10X 2942   0.894   6.148   8.136 -1.4656  0.0781 -0.5535
   22SAPC  H10Y 2943   0.748   6.161   8.246 -2.1653 -1.8298  0.6050
   22SAPC  C311 2944   0.758   5.985   8.125  0.0691  0.1426  0.3555
   22SAPC  H11X 2945   0.670   5.953   8.184  1.2292 -1.3544  1.3341
   22SAPC  H11Y 2946   0.819   5.893   8.110  0.6163  0.2688  1.7059
   22SAPC  C312 2947   0.715   6.024   7.984  0.0383 -0.1943  0.1560
   22SAPC  H12X 2948   0.810   6.043   7.929  0.1118 -0.8163  0.0661
   22SAPC  H12Y 2949   0.656   6.118   7.991 -2.5643 -1.4886 -3.4443
   22SAPC  C313 2950   0.623   5.922   7.919  0.5306 -0.9384  0.0306
   22SAPC  H13X 2951   0.554   5.879   7.994  1.5727 -0.7817  1.0849
   22SAPC  H13Y 2952   0.682   5.837   7.879  0.4503 -0.9563 -0.0514
   22SAPC  C314 2953   0.535   5.982   7.804  0.2181  0.6035  0.1495
   22SAPC  H14X 2954   0.463   6.051   7.853 -0.6199  0.6412 -1.1163
   22SAPC  H14Y 2955   0.482   5.896   7.758  0.9184 -0.7054  1.7343
   22SAPC  C315 2956   0.619   6.054   7.703  0.4295 -0.6518 -0.1331
   22SAPC  H15X 2957   0.667   6.137   7.759 -2.0615 -0.0262  1.0980
   22SAPC  H15Y 2958   0.550   6.095   7.626 -1.3483 -0.0932  1.7218
   22SAPC  C316 2959   0.724   5.970   7.630 -0.3786  0.8783 -0.3740
   22SAPC  H16X 2960   0.691   5.865   7.615  1.2986  0.3662 -0.5923
   22SAPC  H16Y 2961   0.810   5.955   7.698 -0.6906  0.6022 -0.0416
   22SAPC  C317 2962   0.762   6.044   7.500  0.1289 -0.0062 -0.6325
   22SAPC  H17X 2963   0.663   6.056   7.451 -0.9318 -4.5236  0.2187
   22SAPC  H17Y 2964   0.831   5.987   7.434  0.2696 -2.0286  1.2173
   22SAPC  C318 2965   0.842   6.170   7.527 -0.4001  0.2521 -0.2457
   22SAPC  H18X 2966   0.776   6.259   7.522  0.1375  0.7846  1.6677
   22SAPC  H18Y 2967   0.924   6.174   7.452 -1.1526 -2.4631 -1.2491
   22SAPC  H18Z 2968   0.876   6.176   7.633  2.3682  0.2605 -1.0925
   23SAPC     N 2969   4.792   6.903   9.894  0.7015 -0.0237 -0.2036
   23SAPC   C12 2970   4.703   6.956   9.784 -1.0931 -0.0691  0.6739
   23SAPC  H12A 2971   4.610   6.902   9.792 -0.0418 -2.1175 -0.3726
   23SAPC  H12B 2972   4.743   6.938   9.685 -1.0237  4.2998 -0.1957
   23SAPC   C13 2973   4.917   6.988   9.906  0.2446 -0.3003  0.0354
   23SAPC  H13A 2974   4.964   6.975  10.003 -0.0502  1.0988  0.3831
   23SAPC  H13B 2975   4.993   6.956   9.835  0.9888 -3.0739  1.9855
   23SAPC  H13C 2976   4.889   7.091   9.889 -0.3670 -0.2215  1.4432
   23SAPC   C14 2977   4.721   6.897  10.025  0.1972 -0.5706 -0.2073
   23SAPC  H14A 2978   4.674   6.989  10.058  1.1801 -0.0839 -0.1472
   23SAPC  H14B 2979   4.647   6.821  10.007  0.5262 -0.1276 -3.8757
   23SAPC  H14C 2980   4.780   6.866  10.109 -0.9105 -0.5662  0.5851
   23SAPC   C15 2981   4.831   6.765   9.864  0.0443  0.3925 -0.5269
   23SAPC  H15A 2982   4.857   6.748   9.761 -0.8349 -1.1117 -0.5182
   23SAPC  H15B 2983   4.914   6.729   9.923  0.7101  0.5060 -1.3978
   23SAPC  H15C 2984   4.749   6.696   9.874  0.4326  0.0074  0.0534
   23SAPC   C11 2985   4.658   7.107   9.783  0.2483  0.4412  0.3868
   23SAPC  H11A 2986   4.638   7.138   9.888 -1.6989  0.8852 -0.0845
   23SAPC  H11B 2987   4.559   7.113   9.733  0.1334 -0.4982  0.5015
   23SAPC     P 2988   4.751   7.200   9.560 -0.1665 -0.1988 -0.0173
   23SAPC   O13 2989   4.621   7.156   9.508  0.0934  0.6217 -0.4915
   23SAPC   O14 2990   4.804   7.331   9.526 -0.5404 -0.3174  0.0077
   23SAPC   O12 2991   4.755   7.191   9.719  0.0516 -0.3189 -0.0739
   23SAPC   O11 2992   4.853   7.084   9.532  0.2597  0.2550  0.0132
   23SAPC    C1 2993   4.993   7.100   9.567  0.0209 -0.0782  0.5725
   23SAPC    HA 2994   5.014   7.182   9.638 -0.0063  1.3765 -1.0760
   23SAPC    HB 2995   5.036   7.007   9.611  1.2044 -0.0481 -0.4732
   23SAPC    C2 2996   5.077   7.121   9.433  1.0093 -0.1061  1.2290
   23SAPC    HS 2997   5.006   7.177   9.369  0.7618  0.6568  2.1558
   23SAPC   O21 2998   5.110   6.994   9.374 -1.1618 -0.6660 -0.5029
   23SAPC   C21 2999   5.009   6.937   9.307 -0.0423 -0.1752 -0.5757
   23SAPC   O22 3000   4.899   6.984   9.289 -0.4154 -0.2406 -0.2159
   23SAPC   C22 3001   5.072   6.814   9.253 -0.6638  1.0854  0.2056
   23SAPC   H2R 3002   5.183   6.813   9.266 -0.6430 -0.6385  0.0417
   23SAPC   H2S 3003   5.026   6.731   9.309 -1.5367  1.1404 -0.4305
   23SAPC    C3 3004   5.200   7.206   9.458 -0.0249 -0.3974  0.0056
   23SAPC    HX 3005   5.257   7.139   9.526  0.9793  1.4400  1.0225
   23SAPC    HY 3006   5.163   7.299   9.508 -2.1980 -0.8617 -0.6661
   23SAPC   O31 3007   5.286   7.225   9.341 -0.3364  0.1248 -0.2340
   23SAPC   C31 3008   5.400   7.282   9.366  0.0240 -1.1073  0.2937
   23SAPC   O32 3009   5.433   7.327   9.476 -0.2027  0.1575 -0.5544
   23SAPC   C32 3010   5.495   7.275   9.253 -0.0421  0.1178  0.3739
   23SAPC   H2X 3011   5.548   7.179   9.269 -0.1323  0.1191  0.6815
   23SAPC   H2Y 3012   5.571   7.356   9.253  0.5757 -0.4508  0.9534
   23SAPC   C23 3013   5.044   6.800   9.097  0.2039  0.0330 -0.4107
   23SAPC   H3R 3014   4.938   6.774   9.080 -0.5303  0.1738  3.5205
   23SAPC   H3S 3015   5.103   6.709   9.074  1.5387  0.4871  1.1470
   23SAPC   C24 3016   5.082   6.916   9.000  0.5478  0.1970 -0.7302
   23SAPC   H4R 3017   5.175   6.963   9.039 -0.3854  1.6836 -0.2332
   23SAPC   H4S 3018   5.005   6.992   9.026 -0.5887 -1.0800 -0.2885
   23SAPC   C25 3019   5.095   6.889   8.849  0.7872 -0.7309 -0.6079
   23SAPC   H5R 3020   5.184   6.831   8.821  1.3748  0.2757 -0.8284
   23SAPC   C26 3021   5.003   6.906   8.750 -0.0328 -0.1348 -0.1098
   23SAPC   H6R 3022   5.023   6.875   8.647 -2.4761  0.1454 -0.6914
   23SAPC   C27 3023   4.855   6.944   8.769 -0.1268  0.1085  0.2160
   23SAPC   H7R 3024   4.811   6.919   8.868 -2.2577 -0.3829 -0.8475
   23SAPC   H7S 3025   4.791   6.896   8.693  0.6577 -0.4522 -0.0957
   23SAPC   C28 3026   4.848   7.088   8.758  1.0378 -0.0675 -0.2792
   23SAPC   H8R 3027   4.921   7.130   8.829  0.2891  0.2795  0.2995
   23SAPC   C29 3028   4.792   7.175   8.670 -0.1274 -0.6137  0.0463
   23SAPC   H9R 3029   4.801   7.280   8.702  2.6197 -1.0723  0.8384
   23SAPC  C210 3030   4.706   7.138   8.553 -0.3369  0.0549 -0.9384
   23SAPC  H10R 3031   4.645   7.226   8.523 -1.8953 -0.6032  0.1924
   23SAPC  H10S 3032   4.635   7.057   8.581  0.6151 -0.6643 -0.5915
   23SAPC  C211 3033   4.796   7.101   8.434 -0.6078  0.7353  0.3504
   23SAPC  H11R 3034   4.872   7.025   8.459 -1.1867 -0.7596 -2.3049
   23SAPC  C212 3035   4.800   7.159   8.314 -0.4075 -0.5934 -0.6520
   23SAPC  H12R 3036   4.875   7.128   8.240  2.5922  0.8371  1.6359
   23SAPC  C213 3037   4.718   7.283   8.263 -0.2796 -0.1543 -0.9844
   23SAPC  H13R 3038   4.796   7.357   8.235  0.6056 -0.6097  0.2364
   23SAPC  H13S 3039   4.661   7.339   8.340  1.7476 -2.4165  2.2757
   23SAPC  C214 3040   4.634   7.255   8.141 -0.5613  0.4134 -0.3545
   23SAPC  H14R 3041   4.534   7.215   8.162 -0.0530 -1.0832 -0.6827
   23SAPC  C215 3042   4.663   7.270   8.011  0.9316  0.0598  0.2206
   23SAPC  H15R 3043   4.580   7.268   7.938 -0.0343 -3.1135  1.3335
   23SAPC  C216 3044   4.790   7.323   7.945 -0.4990  0.1680 -1.1172
   23SAPC  H16R 3045   4.832   7.245   7.877  1.2924  0.3200 -0.2123
   23SAPC  H16S 3046   4.868   7.334   8.023 -3.0997  2.0412  1.3061
   23SAPC  C217 3047   4.766   7.460   7.872 -0.4631  0.5829  0.1211
   23SAPC  H17R 3048   4.714   7.530   7.942 -3.1781 -1.3188  0.0504
   23SAPC  H17S 3049   4.698   7.453   7.785 -0.8111  1.3307  0.3269
   23SAPC  C218 3050   4.902   7.522   7.825 -0.1891 -0.1090 -0.5151
   23SAPC  H18R 3051   4.955   7.449   7.759 -1.7519  0.3324 -2.2727
   23SAPC  H18S 3052   4.971   7.527   7.912 -2.0426 -1.5779  1.0924
   23SAPC  C219 3053   4.902   7.675   7.774  0.1551 -0.2798 -0.2616
   23SAPC  H19R 3054   4.812   7.725   7.815 -0.2415 -0.5354 -0.8103
   23SAPC  H19S 3055   4.894   7.679   7.663  0.0624  2.4155 -0.1767
   23SAPC  C220 3056   5.029   7.759   7.801 -0.2907  0.3936  0.1627
   23SAPC  H20R 3057   5.026   7.839   7.724  0.7167 -0.4182 -0.7160
   23SAPC  H20S 3058   5.110   7.686   7.780 -0.4779  0.8564 -2.3163
   23SAPC  H20T 3059   5.028   7.803   7.903 -0.8091  1.8222 -0.4447
   23SAPC   C33 3060   5.420   7.259   9.114  0.4138 -0.1572  0.0836
   23SAPC   H3X 3061   5.353   7.348   9.109  2.3085  1.1636 -3.4617
   23SAPC   H3Y 3062   5.361   7.166   9.128  0.8946 -0.2874  1.3386
   23SAPC   C34 3063   5.507   7.246   8.990  0.9891  0.2567  0.8568
   23SAPC   H4X 3064   5.591   7.174   8.999  0.3586 -0.5599  0.3950
   23SAPC   H4Y 3065   5.551   7.347   8.976  0.3423  0.4679  0.2514
   23SAPC   C35 3066   5.437   7.207   8.861  0.1566  0.0020  0.1389
   23SAPC   H5X 3067   5.382   7.285   8.804 -0.9560 -1.1404 -0.3881
   23SAPC   H5Y 3068   5.375   7.117   8.885  4.0264 -2.6034  0.8158
   23SAPC   C36 3069   5.542   7.152   8.760 -0.2757  0.0261  0.5894
   23SAPC   H6X 3070   5.583   7.061   8.809  1.0850  0.6944  0.7157
   23SAPC   H6Y 3071   5.628   7.222   8.762  0.2147 -0.4928 -1.5179
   23SAPC   C37 3072   5.494   7.112   8.620 -0.0132  0.4593  0.2391
   23SAPC   H7X 3073   5.464   7.202   8.562 -2.1435 -1.2399 -1.3516
   23SAPC   H7Y 3074   5.403   7.055   8.647  0.2282  1.1595  2.6672
   23SAPC   C38 3075   5.598   7.037   8.544 -0.1706 -0.0334  0.2294
   23SAPC   H8X 3076   5.630   6.944   8.595  1.6986  1.0303  1.0467
   23SAPC   H8Y 3077   5.686   7.100   8.517 -0.6465  0.0327 -1.2126
   23SAPC   C39 3078   5.558   6.989   8.405  0.3308  0.4171 -0.7472
   23SAPC   H9X 3079   5.477   6.913   8.408 -1.6193  2.4622 -0.3550
   23SAPC   H9Y 3080   5.636   6.945   8.340  0.3881  1.2201 -1.2309
   23SAPC  C310 3081   5.505   7.108   8.319 -0.4863  0.0364 -0.2004
   23SAPC  H10X 3082   5.586   7.179   8.346 -0.7666 -0.0635  0.9317
   23SAPC  H10Y 3083   5.411   7.151   8.360  1.3296  3.7633  0.2300
   23SAPC  C311 3084   5.512   7.082   8.166 -0.2457  0.6620  0.0803
   23SAPC  H11X 3085   5.426   7.014   8.151  1.1728 -0.6875 -2.2995
   23SAPC  H11Y 3086   5.601   7.026   8.130 -1.2044  0.2525 -1.7238
   23SAPC  C312 3087   5.493   7.207   8.071 -0.2036  0.3824  0.6178
   23SAPC  H12X 3088   5.556   7.292   8.105  0.7981 -0.4296  0.8034
   23SAPC  H12Y 3089   5.386   7.236   8.077 -0.3456  0.1932 -0.8759
   23SAPC  C313 3090   5.524   7.168   7.924 -0.0485 -0.2700  0.2453
   23SAPC  H13X 3091   5.457   7.080   7.913 -0.1904 -0.2624  1.0220
   23SAPC  H13Y 3092   5.622   7.121   7.900  0.3088  0.4164  0.3504
   23SAPC  C314 3093   5.505   7.279   7.823  0.1711 -1.0628  0.1662
   23SAPC  H14X 3094   5.549   7.247   7.726 -0.6988  2.0885 -1.3296
   23SAPC  H14Y 3095   5.556   7.373   7.851  1.2678 -1.1909 -1.2894
   23SAPC  C315 3096   5.351   7.319   7.798  0.0688  0.2021 -0.0605
   23SAPC  H15X 3097   5.353   7.407   7.732  0.9625 -1.6946 -2.6456
   23SAPC  H15Y 3098   5.300   7.345   7.893  0.6108  0.2089  0.2308
   23SAPC  C316 3099   5.265   7.209   7.719  0.2343 -0.1192 -0.2474
   23SAPC  H16X 3100   5.289   7.113   7.769  3.8040  1.4783  1.2227
   23SAPC  H16Y 3101   5.316   7.193   7.622 -1.2983 -0.8938 -0.9521
   23SAPC  C317 3102   5.113   7.234   7.702 -1.2602  0.9050 -0.1246
   23SAPC  H17X 3103   5.104   7.331   7.648 -0.5786  0.5649 -0.8660
   23SAPC  H17Y 3104   5.057   7.236   7.798  1.0687  1.0541  1.2719
   23SAPC  C318 3105   5.043   7.119   7.621  0.3293 -0.1705 -0.2500
   23SAPC  H18X 3106   5.045   7.027   7.684  1.2542  0.2766  0.4014
   23SAPC  H18Y 3107   5.101   7.094   7.530  0.1546  0.4600 -0.5367
   23SAPC  H18Z 3108   4.935   7.140   7.614  0.2338 -0.4318  0.4048
   24SAPC     N 3109   7.181   6.630   9.726 -0.5264 -0.5344 -0.2752
   24SAPC   C12 3110   7.151   6.773   9.669 -0.0758  0.0319 -0.4153
   24SAPC  H12A 3111   7.054   6.762   9.622 -0.6211 -1.5379  1.0132
   24SAPC  H12B 3112   7.216   6.798   9.587  0.7412  0.9352  0.4928
   24SAPC   C13 3113   7.054   6.563   9.771  0.0508 -0.4534 -0.2352
   24SAPC  H13A 3114   6.977   6.543   9.698  0.4122 -2.7020 -0.0241
   24SAPC  H13B 3115   7.079   6.468   9.817  0.2479  0.5068  1.7034
   24SAPC  H13C 3116   7.006   6.620   9.849  0.3681  0.2426 -0.5481
   24SAPC   C14 3117   7.254   6.548   9.624 -0.2794  0.0009  0.3096
   24SAPC  H14A 3118   7.263   6.445   9.657  2.9699  1.0430  2.9847
   24SAPC  H14B 3119   7.203   6.539   9.530 -0.3217 -0.2880  0.3586
   24SAPC  H14C 3120   7.351   6.595   9.613  0.9902 -2.1369  1.7571
   24SAPC   C15 3121   7.268   6.633   9.850 -0.3870 -0.0221 -0.3237
   24SAPC  H15A 3122   7.227   6.692   9.931  2.2963 -0.3892  1.3536
   24SAPC  H15B 3123   7.272   6.536   9.897  1.1546  1.1504  2.0740
   24SAPC  H15C 3124   7.369   6.659   9.821 -0.0443 -0.7319  0.2059
   24SAPC   C11 3125   7.147   6.886   9.770  0.9743  0.4049 -0.3788
   24SAPC  H11A 3126   7.124   6.980   9.716  2.7614  2.3413  2.1334
   24SAPC  H11B 3127   7.250   6.890   9.809  1.7636  1.5989 -2.4953
   24SAPC     P 3128   6.905   6.905   9.856  0.3977  0.0720 -0.5113
   24SAPC   O13 3129   6.836   6.841   9.968  0.3332 -0.0397 -0.2436
   24SAPC   O14 3130   6.877   7.045   9.840  0.0949  0.2694 -0.1275
   24SAPC   O12 3131   7.060   6.877   9.885 -0.2842  0.1789  0.0693
   24SAPC   O11 3132   6.869   6.820   9.731 -0.2920  0.2516 -0.6960
   24SAPC    C1 3133   6.746   6.846   9.656 -0.2275 -0.6014 -0.2047
   24SAPC    HA 3134   6.656   6.863   9.720  0.2290  1.0233  0.0190
   24SAPC    HB 3135   6.755   6.937   9.593  3.0080 -2.2276 -2.2201
   24SAPC    C2 3136   6.712   6.733   9.557  0.1187 -0.1675 -0.2188
   24SAPC    HS 3137   6.705   6.633   9.605  0.4585  0.2820  0.7636
   24SAPC   O21 3138   6.832   6.728   9.479 -0.1879  0.0692 -0.0054
   24SAPC   C21 3139   6.844   6.618   9.400  0.3988 -0.7694 -0.2304
   24SAPC   O22 3140   6.767   6.524   9.402  0.3027 -0.6074 -0.2121
   24SAPC   C22 3141   6.970   6.636   9.310 -0.0414 -0.0179  0.0486
   24SAPC   H2R 3142   7.031   6.727   9.326  0.6763 -0.5864  0.6173
   24SAPC   H2S 3143   7.033   6.549   9.339  1.6090  1.4268  0.8568
   24SAPC    C3 3144   6.597   6.762   9.468  0.2207  0.2018  0.1728
   24SAPC    HX 3145   6.501   6.735   9.518 -0.3541 -1.8446 -1.9469
   24SAPC    HY 3146   6.596   6.684   9.389  0.4273  0.8929 -0.5109
   24SAPC   O31 3147   6.592   6.893   9.411  0.1519 -1.1266 -0.6442
   24SAPC   C31 3148   6.505   6.984   9.477 -0.2443  0.7983 -0.3745
   24SAPC   O32 3149   6.425   6.948   9.562 -1.0269 -0.0674 -0.7488
   24SAPC   C32 3150   6.538   7.120   9.438  0.0003 -0.6650 -0.5262
   24SAPC   H2X 3151   6.588   7.165   9.526 -2.0429  0.4344  0.1095
   24SAPC   H2Y 3152   6.446   7.178   9.415  0.4929  1.5908  2.8759
   24SAPC   C23 3153   6.938   6.632   9.161 -0.0991  0.0719 -0.2955
   24SAPC   H3R 3154   6.905   6.532   9.127 -2.5632  1.1072 -1.0507
   24SAPC   H3S 3155   7.039   6.642   9.115 -1.8176  2.1623 -3.7930
   24SAPC   C24 3156   6.855   6.754   9.104 -0.0326  0.2112  0.0020
   24SAPC   H4R 3157   6.862   6.736   8.995  0.9837  2.0083 -0.2485
   24SAPC   H4S 3158   6.902   6.854   9.118 -1.4043  1.0657 -1.2822
   24SAPC   C25 3159   6.710   6.754   9.151 -0.5989 -0.7487 -0.2945
   24SAPC   H5R 3160   6.696   6.820   9.238 -0.0942 -0.1887 -0.6349
   24SAPC   C26 3161   6.603   6.690   9.110 -0.6130  0.5276  0.6450
   24SAPC   H6R 3162   6.509   6.725   9.155 -0.9048 -0.2302  0.6389
   24SAPC   C27 3163   6.589   6.596   8.989  0.2624 -0.2759  0.2692
   24SAPC   H7R 3164   6.493   6.541   9.002  0.2643 -0.1673  0.7283
   24SAPC   H7S 3165   6.672   6.523   8.986  1.0566  0.5766  1.3140
   24SAPC   C28 3166   6.580   6.657   8.854  0.2059 -0.4826  0.0473
   24SAPC   H8R 3167   6.578   6.766   8.841  0.9809 -0.3343  1.1083
   24SAPC   C29 3168   6.566   6.583   8.744 -0.3483  0.1211 -0.2796
   24SAPC   H9R 3169   6.588   6.632   8.648 -1.8376  0.8746 -0.2648
   24SAPC  C210 3170   6.553   6.433   8.725  0.1217 -0.4234  0.1207
   24SAPC  H10R 3171   6.499   6.391   8.813  0.4323 -1.4158 -0.1672
   24SAPC  H10S 3172   6.650   6.380   8.716 -0.5202 -1.4664 -0.7870
   24SAPC  C211 3173   6.474   6.406   8.599 -0.1603  0.2756  1.6504
   24SAPC  H11R 3174   6.366   6.389   8.614 -0.6094  1.0825 -0.5533
   24SAPC  C212 3175   6.516   6.399   8.471 -0.3360 -0.2407  0.4898
   24SAPC  H12R 3176   6.443   6.371   8.392  0.1863  0.0910 -0.1121
   24SAPC  C213 3177   6.657   6.413   8.425  0.4713  0.6831 -0.1657
   24SAPC  H13R 3178   6.676   6.324   8.362 -2.6833 -0.1499  0.0171
   24SAPC  H13S 3179   6.726   6.413   8.512  0.1580 -0.3435  0.0862
   24SAPC  C214 3180   6.669   6.538   8.339  0.3781 -0.3697 -0.2495
   24SAPC  H14R 3181   6.608   6.624   8.370 -0.2115 -0.5364 -0.9216
   24SAPC  C215 3182   6.747   6.557   8.235 -0.9443  0.4891  0.2200
   24SAPC  H15R 3183   6.717   6.638   8.167  0.4480 -0.2628 -1.3580
   24SAPC  C216 3184   6.849   6.458   8.184  0.0393 -0.5749 -0.6909
   24SAPC  H16R 3185   6.837   6.355   8.225  2.9348 -1.1622 -1.2323
   24SAPC  H16S 3186   6.945   6.489   8.230 -1.2203 -0.4751  1.9283
   24SAPC  C217 3187   6.854   6.461   8.028 -0.0061 -0.1282 -0.0506
   24SAPC  H17R 3188   6.878   6.559   7.983  3.3495 -0.5167  0.7788
   24SAPC  H17S 3189   6.751   6.429   7.999  1.0361 -2.6538 -1.1271
   24SAPC  C218 3190   6.966   6.366   7.983  0.4453 -0.0193 -0.2994
   24SAPC  H18R 3191   7.060   6.414   8.018 -0.6657  0.6953  1.7945
   24SAPC  H18S 3192   6.975   6.358   7.872  0.4858 -1.9455 -0.1786
   24SAPC  C219 3193   6.971   6.223   8.032  0.3225  0.3006 -0.4120
   24SAPC  H19R 3194   6.946   6.234   8.139 -3.7981  0.6206 -1.3524
   24SAPC  H19S 3195   7.075   6.185   8.018  0.4023  0.3385  0.0667
   24SAPC  C220 3196   6.874   6.148   7.954 -0.1065 -0.5611 -0.5968
   24SAPC  H20R 3197   6.784   6.213   7.942  0.1084 -0.4628 -1.7045
   24SAPC  H20S 3198   6.848   6.053   8.004 -0.1992 -0.8456 -1.1820
   24SAPC  H20T 3199   6.923   6.133   7.856 -0.1903 -1.3411 -0.5165
   24SAPC   C33 3200   6.651   7.144   9.329 -0.0094  0.5611  0.0811
   24SAPC   H3X 3201   6.739   7.088   9.367 -0.4687  0.2336  0.6584
   24SAPC   H3Y 3202   6.670   7.254   9.331  2.5508  0.1325  1.8844
   24SAPC   C34 3203   6.600   7.107   9.193 -0.1068  0.3970  0.4124
   24SAPC   H4X 3204   6.583   6.997   9.182 -1.2338  0.5061  0.9317
   24SAPC   H4Y 3205   6.694   7.121   9.135 -0.9206  2.0975 -0.5487
   24SAPC   C35 3206   6.493   7.198   9.127 -0.0489  0.7978  0.4345
   24SAPC   H5X 3207   6.497   7.302   9.166  2.7212  0.8324  0.1315
   24SAPC   H5Y 3208   6.389   7.165   9.149 -0.1931  0.5147 -0.6537
   24SAPC   C36 3209   6.504   7.194   8.976 -0.2623  0.3675 -0.0459
   24SAPC   H6X 3210   6.506   7.090   8.937  2.7360 -0.2498  1.5391
   24SAPC   H6Y 3211   6.601   7.237   8.941 -0.7155  0.7128 -0.9080
   24SAPC   C37 3212   6.392   7.271   8.905 -0.4923 -0.9438  0.1853
   24SAPC   H7X 3213   6.390   7.381   8.919  0.5847 -0.8642 -0.2087
   24SAPC   H7Y 3214   6.294   7.237   8.945 -1.0549 -1.4345 -1.5638
   24SAPC   C38 3215   6.391   7.247   8.755  1.0595 -0.0188  0.0228
   24SAPC   H8X 3216   6.397   7.139   8.730 -0.1931 -0.1822  0.3907
   24SAPC   H8Y 3217   6.489   7.283   8.718  0.9862  0.3639  0.2029
   24SAPC   C39 3218   6.255   7.312   8.696 -0.6623  0.3082  0.0094
   24SAPC   H9X 3219   6.254   7.422   8.714 -1.0259  0.4801 -1.0250
   24SAPC   H9Y 3220   6.163   7.267   8.738 -1.2225  0.5064 -0.9836
   24SAPC  C310 3221   6.254   7.282   8.543  0.4670 -0.2982 -0.1122
   24SAPC  H10X 3222   6.261   7.172   8.526 -0.8421 -0.4621  0.3320
   24SAPC  H10Y 3223   6.350   7.331   8.519 -0.1296  0.2731 -1.3577
   24SAPC  C311 3224   6.135   7.342   8.464  0.6632  0.0261  1.0318
   24SAPC  H11X 3225   6.160   7.450   8.455  0.3882  0.1144  1.2891
   24SAPC  H11Y 3226   6.045   7.337   8.530  0.6619  0.3011  1.0534
   24SAPC  C312 3227   6.112   7.268   8.332  0.2244 -0.6074  0.4307
   24SAPC  H12X 3228   6.028   7.307   8.270  0.9887  0.5428  0.0969
   24SAPC  H12Y 3229   6.090   7.161   8.350  0.7346 -1.2091 -2.3235
   24SAPC  C313 3230   6.231   7.276   8.234  0.4847  0.6172 -0.5524
   24SAPC  H13X 3231   6.325   7.278   8.293 -0.0409 -2.1438  0.4230
   24SAPC  H13Y 3232   6.228   7.374   8.182  1.0355  1.1534  0.4166
   24SAPC  C314 3233   6.224   7.171   8.118 -0.4541 -0.3958  0.5908
   24SAPC  H14X 3234   6.135   7.195   8.055 -0.2099  0.7792  0.6906
   24SAPC  H14Y 3235   6.202   7.072   8.164 -0.0931 -0.7615 -0.0162
   24SAPC  C315 3236   6.337   7.162   8.019  0.0515 -0.5005  0.2752
   24SAPC  H15X 3237   6.429   7.132   8.074  0.1608 -0.3088  0.1979
   24SAPC  H15Y 3238   6.351   7.265   7.980 -1.7557  0.7088  2.6719
   24SAPC  C316 3239   6.304   7.072   7.902  0.0544 -0.0655  0.1573
   24SAPC  H16X 3240   6.208   7.106   7.857  0.2326 -0.8364 -0.8227
   24SAPC  H16Y 3241   6.291   6.967   7.938  2.4506  0.9520  4.4188
   24SAPC  C317 3242   6.418   7.067   7.802 -0.0286 -0.0464  0.4653
   24SAPC  H17X 3243   6.509   7.033   7.856 -0.9613 -1.8917  0.9132
   24SAPC  H17Y 3244   6.443   7.169   7.764 -1.2531  0.9837  2.3648
   24SAPC  C318 3245   6.396   6.971   7.678 -0.0977 -0.3356  0.1096
   24SAPC  H18X 3246   6.476   6.964   7.601 -0.9976  1.0245 -0.9646
   24SAPC  H18Y 3247   6.322   7.023   7.614  0.3839  0.2266  0.0055
   24SAPC  H18Z 3248   6.360   6.872   7.713 -1.7278 -0.6619 -2.4006
   25SAPC     N 3249   4.620   4.098   5.548  0.0221 -0.4070 -0.0640
   25SAPC   C12 3250   4.749   4.152   5.601  0.1835  0.3907  0.2433
   25SAPC  H12A 3251   4.793   4.227   5.538  0.0700  1.8263  1.8392
   25SAPC  H12B 3252   4.815   4.067   5.597 -1.6850 -1.0843 -0.1128
   25SAPC   C13 3253   4.644   4.060   5.405  0.4805  0.2449 -0.3526
   25SAPC  H13A 3254   4.668   4.152   5.354 -0.4107 -0.5562 -2.2522
   25SAPC  H13B 3255   4.733   3.998   5.399 -0.0597 -0.7488  1.4313
   25SAPC  H13C 3256   4.567   4.002   5.357  0.9785  0.1215 -1.0156
   25SAPC   C14 3257   4.580   3.980   5.630 -0.2446 -0.4757 -0.1251
   25SAPC  H14A 3258   4.643   3.892   5.623 -0.6504 -0.6433 -1.8092
   25SAPC  H14B 3259   4.582   3.996   5.737 -2.8997  0.4139 -0.1803
   25SAPC  H14C 3260   4.480   3.954   5.600 -0.4165 -0.1134  0.1299
   25SAPC   C15 3261   4.517   4.203   5.553 -0.7671 -0.0258 -0.2582
   25SAPC  H15A 3262   4.542   4.280   5.482 -2.0769  0.0495 -0.6549
   25SAPC  H15B 3263   4.416   4.168   5.534 -0.7344  0.0236 -0.5144
   25SAPC  H15C 3264   4.521   4.248   5.651 -1.5294  0.0847 -0.2686
   25SAPC   C11 3265   4.753   4.226   5.741 -0.5415 -0.5841  0.0777
   25SAPC  H11A 3266   4.858   4.253   5.766 -1.0020  0.8704  0.4725
   25SAPC  H11B 3267   4.718   4.151   5.816 -4.3363  0.1860 -0.8334
   25SAPC     P 3268   4.580   4.386   5.867 -0.2772  0.1099 -0.3170
   25SAPC   O13 3269   4.556   4.537   5.868 -0.0261  0.1520  0.1690
   25SAPC   O14 3270   4.453   4.304   5.855 -0.3583 -0.1099 -0.4170
   25SAPC   O12 3271   4.685   4.353   5.745 -0.3039  0.3558 -0.7669
   25SAPC   O11 3272   4.655   4.341   5.994  0.2990 -0.8172 -0.2853
   25SAPC    C1 3273   4.790   4.371   6.034  0.4731  1.0226  0.6021
   25SAPC    HA 3274   4.855   4.282   6.048  2.2292  2.2914  0.6017
   25SAPC    HB 3275   4.849   4.429   5.961  2.7416 -0.7143  1.0197
   25SAPC    C2 3276   4.791   4.447   6.172 -0.3603 -0.3443 -0.5443
   25SAPC    HS 3277   4.897   4.479   6.184 -0.1223 -0.6822 -1.6562
   25SAPC   O21 3278   4.752   4.354   6.280  0.3830  0.6706 -0.5630
   25SAPC   C21 3279   4.787   4.408   6.400  0.0736  0.2291 -0.2711
   25SAPC   O22 3280   4.843   4.513   6.417  0.3073 -0.3039  0.7702
   25SAPC   C22 3281   4.757   4.306   6.505  0.1493  0.4262  0.5364
   25SAPC   H2R 3282   4.737   4.208   6.457 -0.8890  1.4573 -1.1454
   25SAPC   H2S 3283   4.844   4.276   6.568  2.5610 -1.1013 -3.3585
   25SAPC    C3 3284   4.700   4.573   6.169  0.0651  0.3129  0.1581
   25SAPC    HX 3285   4.733   4.622   6.075 -0.1713  3.7463  1.7946
   25SAPC    HY 3286   4.732   4.633   6.257 -0.4057  0.9576 -0.1028
   25SAPC   O31 3287   4.564   4.530   6.177 -0.0944  0.1762 -0.1688
   25SAPC   C31 3288   4.494   4.645   6.172 -0.2689 -0.4987  0.0660
   25SAPC   O32 3289   4.533   4.762   6.148  0.3404  0.3652 -1.0549
   25SAPC   C32 3290   4.349   4.610   6.197 -0.1884 -0.3819  0.3239
   25SAPC   H2X 3291   4.341   4.550   6.290 -0.7139 -0.5546  0.1624
   25SAPC   H2Y 3292   4.326   4.546   6.109  0.6656 -0.8680  0.4460
   25SAPC   C23 3293   4.646   4.344   6.593 -0.8780 -0.1422 -0.3789
   25SAPC   H3R 3294   4.559   4.391   6.542 -0.7716  1.3754  0.8302
   25SAPC   H3S 3295   4.673   4.419   6.669  0.8119 -0.1450 -0.9667
   25SAPC   C24 3296   4.588   4.223   6.670 -0.0613  0.6693  0.5881
   25SAPC   H4R 3297   4.514   4.254   6.747 -1.9283 -0.8137 -0.5426
   25SAPC   H4S 3298   4.661   4.164   6.728 -0.1046 -1.7424 -1.7162
   25SAPC   C25 3299   4.510   4.118   6.587 -0.4520 -0.8550 -0.2212
   25SAPC   H5R 3300   4.564   4.032   6.545  0.5390 -0.2330 -0.2460
   25SAPC   C26 3301   4.385   4.132   6.551 -0.5343 -0.2635  0.3726
   25SAPC   H6R 3302   4.327   4.044   6.520  2.0978 -2.2997  1.0969
   25SAPC   C27 3303   4.298   4.244   6.604 -0.8068  0.1572 -0.6792
   25SAPC   H7R 3304   4.344   4.345   6.598  0.1860 -0.3162 -1.1707
   25SAPC   H7S 3305   4.281   4.219   6.711 -1.5145 -3.2258 -1.5291
   25SAPC   C28 3306   4.173   4.265   6.524 -0.1996 -0.6971 -0.6001
   25SAPC   H8R 3307   4.189   4.309   6.425  0.7161 -0.5629 -0.3904
   25SAPC   C29 3308   4.048   4.249   6.572  0.1419 -0.1277  0.1248
   25SAPC   H9R 3309   3.963   4.254   6.503 -0.6764  1.6744  1.2161
   25SAPC  C210 3310   4.013   4.217   6.719 -0.0093 -0.6281  0.0655
   25SAPC  H10R 3311   3.905   4.235   6.737  0.3311  2.5807 -0.8222
   25SAPC  H10S 3312   4.068   4.284   6.789 -2.5709  1.2529  0.3517
   25SAPC  C211 3313   4.026   4.070   6.761  0.2285  0.0837  0.1672
   25SAPC  H11R 3314   4.001   4.004   6.677 -0.7342  0.4884  0.1290
   25SAPC  C212 3315   4.085   4.016   6.867 -0.5414 -0.2104 -0.0840
   25SAPC  H12R 3316   4.085   3.906   6.873 -0.6159 -0.1129  2.7253
   25SAPC  C213 3317   4.155   4.089   6.980 -0.3434 -0.2283  0.8978
   25SAPC  H13R 3318   4.084   4.152   7.037 -0.4525  0.0185  0.4958
   25SAPC  H13S 3319   4.229   4.161   6.938  0.1007 -0.0537  1.9549
   25SAPC  C214 3320   4.223   4.002   7.081 -0.3032  0.3130 -0.6816
   25SAPC  H14R 3321   4.159   3.961   7.160  0.2029  1.6862  0.4921
   25SAPC  C215 3322   4.353   3.953   7.078  0.5369 -0.1683  0.2653
   25SAPC  H15R 3323   4.375   3.884   7.161  2.4946  0.8274  0.5946
   25SAPC  C216 3324   4.462   3.983   6.978 -0.3738  0.4864 -0.1600
   25SAPC  H16R 3325   4.423   4.015   6.880 -0.5295  1.2562  0.1525
   25SAPC  H16S 3326   4.516   3.890   6.948 -0.2400  0.4658  0.1388
   25SAPC  C217 3327   4.562   4.090   7.023 -0.0278 -0.6419  0.2189
   25SAPC  H17R 3328   4.646   4.095   6.950  0.5725 -0.0370  0.9475
   25SAPC  H17S 3329   4.622   4.072   7.115  1.0503  1.2718 -0.0851
   25SAPC  C218 3330   4.509   4.228   7.049  0.0345  0.1191  0.4847
   25SAPC  H18R 3331   4.443   4.235   7.138  0.5007 -3.5267  1.1873
   25SAPC  H18S 3332   4.449   4.257   6.960  0.5510  0.3518  0.2080
   25SAPC  C219 3333   4.611   4.347   7.080 -0.2588  0.1074  0.0186
   25SAPC  H19R 3334   4.668   4.327   7.173  0.8920 -2.5472 -1.1823
   25SAPC  H19S 3335   4.558   4.444   7.093  1.9645  0.8822  4.1008
   25SAPC  C220 3336   4.722   4.380   6.977  0.3159  0.1553 -0.0012
   25SAPC  H20R 3337   4.804   4.307   6.991  1.1245  0.9262 -0.6851
   25SAPC  H20S 3338   4.747   4.487   6.991  1.8337  0.0434 -1.7337
   25SAPC  H20T 3339   4.686   4.372   6.872  0.6753 -1.7475 -0.0030
   25SAPC   C33 3340   4.247   4.727   6.221  0.1527 -0.3080  0.8862
   25SAPC   H3X 3341   4.145   4.684   6.225  0.7736 -1.9833 -0.4343
   25SAPC   H3Y 3342   4.243   4.788   6.128 -2.5904  1.7735  2.3070
   25SAPC   C34 3343   4.277   4.810   6.344 -0.0097  0.1205  0.1710
   25SAPC   H4X 3344   4.359   4.884   6.331 -1.0670  1.1512 -0.8570
   25SAPC   H4Y 3345   4.301   4.732   6.419 -0.5246  1.0408  1.3068
   25SAPC   C35 3346   4.146   4.897   6.384  0.7757  0.3448  0.0483
   25SAPC   H5X 3347   4.049   4.843   6.388 -0.6631  3.0097  3.2405
   25SAPC   H5Y 3348   4.141   4.972   6.303  2.3177  2.5425  1.9193
   25SAPC   C36 3349   4.154   4.962   6.526 -0.2306  0.0246  0.0209
   25SAPC   H6X 3350   4.084   5.045   6.549 -1.5925 -1.2666  0.5830
   25SAPC   H6Y 3351   4.261   4.986   6.544  0.2912 -3.4909  2.0503
   25SAPC   C37 3352   4.126   4.847   6.628 -0.2057 -0.1021 -0.1530
   25SAPC   H7X 3353   4.165   4.746   6.605  1.3588  0.0832  1.5580
   25SAPC   H7Y 3354   4.017   4.824   6.632 -0.5838  1.9101  2.4051
   25SAPC   C38 3355   4.172   4.867   6.771 -0.4736  0.8988 -0.2084
   25SAPC   H8X 3356   4.127   4.958   6.818  0.1969  0.1614  1.9130
   25SAPC   H8Y 3357   4.278   4.898   6.767 -0.1646 -0.3553 -3.3578
   25SAPC   C39 3358   4.151   4.750   6.868 -0.5738 -0.7587 -0.1889
   25SAPC   H9X 3359   4.041   4.733   6.866 -0.1997 -3.3275 -0.5447
   25SAPC   H9Y 3360   4.173   4.792   6.969 -0.8924 -1.0462  0.0033
   25SAPC  C310 3361   4.235   4.625   6.847 -0.0866  0.4553  0.6787
   25SAPC  H10X 3362   4.344   4.647   6.855 -0.0516 -0.2042  2.0942
   25SAPC  H10Y 3363   4.213   4.586   6.745 -3.5280 -1.5044  2.0968
   25SAPC  C311 3364   4.201   4.511   6.933 -0.0298  0.2267 -0.2040
   25SAPC  H11X 3365   4.269   4.423   6.924 -1.2950 -0.5091 -3.2837
   25SAPC  H11Y 3366   4.100   4.474   6.902 -0.3667 -0.7898  2.0028
   25SAPC  C312 3367   4.190   4.539   7.083 -0.1221 -0.4027  0.1089
   25SAPC  H12X 3368   4.114   4.614   7.115  0.0280 -0.4801  0.6628
   25SAPC  H12Y 3369   4.293   4.576   7.106 -0.7581  0.1683  2.2142
   25SAPC  C313 3370   4.166   4.413   7.168 -0.5043  0.2471  1.2144
   25SAPC  H13X 3371   4.235   4.334   7.131  1.0664  1.9399  0.4437
   25SAPC  H13Y 3372   4.060   4.383   7.151 -1.0911  1.6980  2.1713
   25SAPC  C314 3373   4.201   4.432   7.322  0.0738  1.0194  0.9927
   25SAPC  H14X 3374   4.151   4.528   7.346 -1.1061  0.8931 -0.8959
   25SAPC  H14Y 3375   4.311   4.441   7.338  0.6404 -0.3533 -1.7119
   25SAPC  C315 3376   4.156   4.309   7.401 -1.0092 -0.0751 -0.2315
   25SAPC  H15X 3377   4.208   4.216   7.370  1.8089  0.9395  1.3145
   25SAPC  H15Y 3378   4.048   4.290   7.381 -0.7450 -3.2307  1.0927
   25SAPC  C316 3379   4.186   4.317   7.549 -0.0068 -0.4834  0.4184
   25SAPC  H16X 3380   4.296   4.323   7.563 -0.0207  0.2341  0.2274
   25SAPC  H16Y 3381   4.153   4.219   7.590 -1.9494  0.6973  1.7648
   25SAPC  C317 3382   4.124   4.443   7.603  0.3493 -0.5398 -0.6960
   25SAPC  H17X 3383   4.015   4.424   7.596  0.6003 -1.3469 -2.8275
   25SAPC  H17Y 3384   4.142   4.532   7.538 -1.1828 -1.2387 -2.1012
   25SAPC  C318 3385   4.155   4.484   7.745  0.0921  0.3300  0.1499
   25SAPC  H18X 3386   4.101   4.409   7.806 -2.1248 -0.4576 -2.6728
   25SAPC  H18Y 3387   4.146   4.590   7.780 -0.1316  0.3358  0.0802
   25SAPC  H18Z 3388   4.259   4.463   7.775 -0.3146 -0.7775  0.8147
   26SAPC     N 3389   4.240   5.039   5.595  0.0474 -0.2783  0.1299
   26SAPC   C12 3390   4.280   5.129   5.710  0.1159  0.0335  0.0051
   26SAPC  H12A 3391   4.334   5.213   5.669 -0.6327  0.8477  0.7043
   26SAPC  H12B 3392   4.356   5.072   5.763  0.0654  0.2886  0.3492
   26SAPC   C13 3393   4.155   4.926   5.649  0.2145  0.1910  0.2847
   26SAPC  H13A 3394   4.083   4.963   5.720  1.8693  1.6511  1.2476
   26SAPC  H13B 3395   4.093   4.874   5.577 -0.2171  1.6898 -0.4423
   26SAPC  H13C 3396   4.213   4.846   5.694  0.5790  0.8917  1.0835
   26SAPC   C14 3397   4.161   5.112   5.499  0.6641  0.1348  0.2565
   26SAPC  H14A 3398   4.143   5.059   5.407 -0.8640 -1.0452  1.2074
   26SAPC  H14B 3399   4.060   5.121   5.537  1.0034  1.5615  0.8708
   26SAPC  H14C 3400   4.196   5.211   5.474  3.0794 -0.6151  0.6051
   26SAPC   C15 3401   4.354   4.987   5.522 -0.1678 -0.7408 -0.2410
   26SAPC  H15A 3402   4.326   4.944   5.427  2.3776  1.1369 -1.9328
   26SAPC  H15B 3403   4.426   5.066   5.506 -0.0830 -0.7035  0.3096
   26SAPC  H15C 3404   4.418   4.916   5.572 -2.6334 -2.6909  0.2288
   26SAPC   C11 3405   4.170   5.178   5.804  0.6888 -0.8131 -0.2969
   26SAPC  H11A 3406   4.218   5.232   5.888  1.6167 -3.5973  1.0102
   26SAPC  H11B 3407   4.144   5.085   5.857 -1.9120 -0.7666 -1.4234
   26SAPC     P 3408   4.086   5.407   5.714  0.1825  0.0093  0.3514
   26SAPC   O13 3409   4.212   5.416   5.638  0.0116  0.1017  0.2396
   26SAPC   O14 3410   3.962   5.469   5.658  0.1476  1.0249 -0.1668
   26SAPC   O12 3411   4.059   5.250   5.738 -0.2163 -0.1866 -0.2329
   26SAPC   O11 3412   4.112   5.463   5.857  0.0262 -0.4637  0.1503
   26SAPC    C1 3413   4.042   5.440   5.978 -0.6745 -0.6609 -0.3481
   26SAPC    HA 3414   3.944   5.393   5.960 -1.2018  0.2116  0.2169
   26SAPC    HB 3415   4.102   5.377   6.047  0.8653  0.1803 -0.8892
   26SAPC    C2 3416   4.004   5.568   6.056 -0.1313  0.2431 -0.5759
   26SAPC    HS 3417   3.957   5.640   5.986 -1.5328 -0.2062 -0.1136
   26SAPC   O21 3418   4.119   5.623   6.131 -0.3827 -0.1270 -0.4646
   26SAPC   C21 3419   4.195   5.719   6.065 -0.4225 -0.1716 -0.4328
   26SAPC   O22 3420   4.173   5.759   5.955 -0.2333 -0.3698 -0.5272
   26SAPC   C22 3421   4.319   5.750   6.153  0.7282  0.5109  0.2485
   26SAPC   H2R 3422   4.320   5.688   6.245  0.7770  1.0762  0.6278
   26SAPC   H2S 3423   4.403   5.720   6.087 -1.7613 -1.1232 -2.3614
   26SAPC    C3 3424   3.900   5.527   6.171 -0.5315  0.2924 -0.5139
   26SAPC    HX 3425   3.800   5.511   6.124 -0.9390 -1.5476  0.9636
   26SAPC    HY 3426   3.902   5.615   6.239 -2.5260 -1.6922  2.2220
   26SAPC   O31 3427   3.951   5.418   6.243  0.0429  0.6265 -0.4368
   26SAPC   C31 3428   3.862   5.357   6.310 -0.2411 -0.1940 -0.4434
   26SAPC   O32 3429   3.742   5.389   6.314 -0.4330  0.2643  0.0826
   26SAPC   C32 3430   3.928   5.234   6.366  0.2627 -0.2559 -0.7062
   26SAPC   H2X 3431   4.038   5.237   6.385  0.3399 -0.3236 -1.1308
   26SAPC   H2Y 3432   3.924   5.160   6.282  1.9550 -0.5201 -0.5817
   26SAPC   C23 3433   4.339   5.899   6.190  0.4395  0.3374 -0.1093
   26SAPC   H3R 3434   4.342   5.962   6.098 -2.8731  0.4407 -0.1940
   26SAPC   H3S 3435   4.438   5.903   6.241  0.0213  1.6630  0.6186
   26SAPC   C24 3436   4.242   5.953   6.296  0.1628 -0.1656 -0.8928
   26SAPC   H4R 3437   4.145   5.965   6.243 -0.2159 -1.3192 -0.4577
   26SAPC   H4S 3438   4.280   6.057   6.309 -0.8774 -0.1079  2.0275
   26SAPC   C25 3439   4.229   5.864   6.419 -0.3244  0.1033  0.0322
   26SAPC   H5R 3440   4.159   5.780   6.404  0.6239 -0.9132  1.2374
   26SAPC   C26 3441   4.290   5.861   6.536 -0.6800  0.4857 -0.8032
   26SAPC   H6R 3442   4.272   5.775   6.602 -2.3521  0.8893 -0.7298
   26SAPC   C27 3443   4.395   5.952   6.575 -0.7870 -0.8785 -0.3521
   26SAPC   H7R 3444   4.448   6.006   6.494  2.0405  0.9889  2.6065
   26SAPC   H7S 3445   4.468   5.893   6.635  0.9771 -0.2101 -1.8084
   26SAPC   C28 3446   4.332   6.052   6.664  0.0009 -0.1704 -0.2087
   26SAPC   H8R 3447   4.230   6.090   6.651  0.3783  0.3287 -1.8143
   26SAPC   C29 3448   4.391   6.110   6.765  0.0231 -0.0729 -0.2577
   26SAPC   H9R 3449   4.345   6.194   6.819 -0.6685 -0.4753 -0.2202
   26SAPC  C210 3450   4.531   6.074   6.818 -0.1030 -0.7035  0.9972
   26SAPC  H10R 3451   4.602   6.019   6.752  0.5104  1.3828 -0.1233
   26SAPC  H10S 3452   4.522   6.008   6.907  0.3646 -0.5889  1.1337
   26SAPC  C211 3453   4.616   6.197   6.848  0.2618 -0.1435  0.0274
   26SAPC  H11R 3454   4.655   6.256   6.764  0.8257  0.3737  0.6488
   26SAPC  C212 3455   4.650   6.240   6.973  0.4290 -0.3211  0.5041
   26SAPC  H12R 3456   4.702   6.336   6.985  0.2574 -0.5592  3.6650
   26SAPC  C213 3457   4.601   6.177   7.097 -0.8195 -0.2916  0.1121
   26SAPC  H13R 3458   4.694   6.184   7.158  0.2845 -1.8445 -1.3529
   26SAPC  H13S 3459   4.587   6.067   7.085  0.7286 -0.1472 -3.5522
   26SAPC  C214 3460   4.478   6.243   7.152 -0.2806  0.3469 -0.7589
   26SAPC  H14R 3461   4.416   6.315   7.097 -3.5057 -0.6193  1.4222
   26SAPC  C215 3462   4.450   6.244   7.287 -0.5922  0.3314  0.2092
   26SAPC  H15R 3463   4.353   6.276   7.328 -0.3883 -0.4686  1.3274
   26SAPC  C216 3464   4.539   6.163   7.384 -1.0421 -0.4612 -0.8125
   26SAPC  H16R 3465   4.596   6.083   7.331 -0.6086  1.0219 -2.6451
   26SAPC  H16S 3466   4.466   6.117   7.454 -2.1624  0.8872 -1.0638
   26SAPC  C217 3467   4.643   6.240   7.465  0.1176 -0.1978 -0.1670
   26SAPC  H17R 3468   4.589   6.326   7.510 -0.6877  0.0733 -1.6377
   26SAPC  H17S 3469   4.727   6.277   7.402 -1.7401  0.5674 -2.2556
   26SAPC  C218 3470   4.710   6.174   7.585 -0.2836  0.5331 -0.1451
   26SAPC  H18R 3471   4.725   6.074   7.540  2.2738  0.8374 -0.0524
   26SAPC  H18S 3472   4.634   6.160   7.665 -1.4506  2.0394 -0.9541
   26SAPC  C219 3473   4.848   6.234   7.628 -0.1806  0.0331 -0.7127
   26SAPC  H19R 3474   4.920   6.219   7.545 -0.0747  0.5151 -0.7121
   26SAPC  H19S 3475   4.873   6.187   7.725  1.0490  1.4007 -0.3530
   26SAPC  C220 3476   4.854   6.390   7.655  0.6603 -0.1111 -0.0988
   26SAPC  H20R 3477   4.759   6.413   7.707  0.8156 -0.3590  0.3022
   26SAPC  H20S 3478   4.851   6.440   7.556 -0.8489  2.1942  1.0649
   26SAPC  H20T 3479   4.943   6.415   7.718 -0.0668 -0.2237  0.9942
   26SAPC   C33 3480   3.848   5.182   6.486  0.0047  0.1071  0.6798
   26SAPC   H3X 3481   3.857   5.072   6.495  1.0751  0.1837  0.6657
   26SAPC   H3Y 3482   3.742   5.203   6.462  0.1273 -1.1361 -1.0406
   26SAPC   C34 3483   3.889   5.270   6.615  0.0293 -0.6015  0.1951
   26SAPC   H4X 3484   3.899   5.378   6.593 -3.4134  0.0345  1.4823
   26SAPC   H4Y 3485   3.988   5.232   6.649 -0.4520 -1.1847  0.9472
   26SAPC   C35 3486   3.784   5.245   6.727  0.3899  0.2431 -0.9731
   26SAPC   H5X 3487   3.792   5.137   6.753 -3.4491 -0.0172 -0.6522
   26SAPC   H5Y 3488   3.679   5.261   6.697  0.5961  0.6077 -1.4977
   26SAPC   C36 3489   3.810   5.306   6.869  1.4257  0.2404  0.2419
   26SAPC   H6X 3490   3.778   5.412   6.879  0.8712  0.1137 -0.1520
   26SAPC   H6Y 3491   3.920   5.299   6.878  1.1161 -1.7099  3.3830
   26SAPC   C37 3492   3.737   5.226   6.983 -0.4758 -0.5479  0.1703
   26SAPC   H7X 3493   3.773   5.121   6.976  0.2217 -0.1409 -2.6514
   26SAPC   H7Y 3494   3.628   5.232   6.961 -0.4763 -1.0453  0.0225
   26SAPC   C38 3495   3.756   5.285   7.126 -0.4480  0.1854 -0.1845
   26SAPC   H8X 3496   3.736   5.394   7.124  1.8806  0.7477  3.3223
   26SAPC   H8Y 3497   3.860   5.272   7.165 -0.8448 -1.0536  0.4811
   26SAPC   C39 3498   3.659   5.216   7.222  0.4552  0.4059 -0.3232
   26SAPC   H9X 3499   3.707   5.141   7.288  0.8327  0.8382 -0.1004
   26SAPC   H9Y 3500   3.572   5.170   7.172 -0.0934 -0.0210  0.9955
   26SAPC  C310 3501   3.602   5.313   7.329  0.4846 -0.4957  0.5292
   26SAPC  H10X 3502   3.554   5.394   7.270  0.8522 -0.0694  0.8121
   26SAPC  H10Y 3503   3.697   5.348   7.376 -1.1850  1.2448  2.6607
   26SAPC  C311 3504   3.493   5.254   7.426 -0.4041  0.1080 -0.4403
   26SAPC  H11X 3505   3.415   5.220   7.355 -0.1251 -0.3944 -0.5138
   26SAPC  H11Y 3506   3.444   5.336   7.482 -2.5172 -1.0425 -0.5785
   26SAPC  C312 3507   3.530   5.143   7.524 -0.2831  0.1368 -0.8522
   26SAPC  H12X 3508   3.582   5.069   7.460 -0.6395 -1.5330  0.7431
   26SAPC  H12Y 3509   3.432   5.101   7.555  0.0821 -0.2087 -0.1636
   26SAPC  C313 3510   3.622   5.174   7.636  0.3179 -0.4839  0.4383
   26SAPC  H13X 3511   3.568   5.252   7.694  1.2197  0.1273  0.4693
   26SAPC  H13Y 3512   3.717   5.220   7.600 -1.0238  0.7390 -1.6500
   26SAPC  C314 3513   3.654   5.053   7.728  0.0197 -0.1210 -0.1965
   26SAPC  H14X 3514   3.614   4.970   7.666 -0.1312  0.2355 -0.5712
   26SAPC  H14Y 3515   3.581   5.062   7.811 -0.0308  3.1332 -0.5484
   26SAPC  C315 3516   3.799   5.039   7.771 -0.5420  0.0124 -0.8481
   26SAPC  H15X 3517   3.860   5.068   7.683  1.2166 -0.4883  0.1861
   26SAPC  H15Y 3518   3.820   4.933   7.794 -0.4888  0.4735  1.3101
   26SAPC  C316 3519   3.837   5.125   7.895 -0.2643  0.4392  0.0189
   26SAPC  H16X 3520   3.779   5.068   7.971 -1.6872  0.8116 -0.7644
   26SAPC  H16Y 3521   3.804   5.230   7.890  0.1688  0.5541 -0.5616
   26SAPC  C317 3522   3.991   5.136   7.929  0.2310 -0.5456  0.5755
   26SAPC  H17X 3523   4.024   5.224   7.870 -1.4323 -0.8688 -0.9022
   26SAPC  H17Y 3524   4.044   5.044   7.897 -2.8113 -1.7621 -1.2300
   26SAPC  C318 3525   4.019   5.174   8.076 -0.1891 -0.2261 -0.1086
   26SAPC  H18X 3526   3.960   5.265   8.095 -0.2865 -0.2224 -0.4133
   26SAPC  H18Y 3527   4.128   5.185   8.095 -0.6333  1.3012  1.6599
   26SAPC  H18Z 3528   3.979   5.094   8.142  1.2027  0.1360  1.1913
   27SAPC     N 3529   2.378   7.106   5.234  0.8791 -0.5574 -0.6699
   27SAPC   C12 3530   2.322   7.229   5.299 -0.1596  0.4241  0.2848
   27SAPC  H12A 3531   2.225   7.260   5.264 -1.3688 -0.6485  2.5605
   27SAPC  H12B 3532   2.393   7.307   5.277  0.2675  0.3258  1.3141
   27SAPC   C13 3533   2.378   7.122   5.084  0.2918  0.0546 -0.5507
   27SAPC  H13A 3534   2.280   7.122   5.040 -0.6144 -0.8342  1.3669
   27SAPC  H13B 3535   2.416   7.219   5.056  0.5648  0.8155  2.2614
   27SAPC  H13C 3536   2.440   7.047   5.037  2.6339  0.0480  2.3573
   27SAPC   C14 3537   2.522   7.076   5.282 -0.0731  0.1282  0.7632
   27SAPC  H14A 3538   2.599   7.137   5.238 -0.9740  0.4527 -0.3975
   27SAPC  H14B 3539   2.523   7.079   5.390  2.1081 -1.2782  0.8155
   27SAPC  H14C 3540   2.550   6.974   5.262  2.1501  1.0888 -1.2050
   27SAPC   C15 3541   2.292   6.990   5.271  0.1871  0.0166  0.2700
   27SAPC  H15A 3542   2.199   6.996   5.215  1.2299 -1.6224 -1.7099
   27SAPC  H15B 3543   2.338   6.900   5.233 -0.1848  0.4481 -1.2480
   27SAPC  H15C 3544   2.271   6.991   5.377  2.1226  1.9207  0.6828
   27SAPC   C11 3545   2.309   7.231   5.449 -0.8784 -0.6695 -0.5441
   27SAPC  H11A 3546   2.216   7.178   5.480 -0.9687 -0.2533 -0.1016
   27SAPC  H11B 3547   2.284   7.332   5.488  0.2579 -0.7543  0.4266
   27SAPC     P 3548   2.432   7.145   5.674 -0.0061 -0.1381  0.1856
   27SAPC   O13 3549   2.353   7.026   5.706 -0.5160 -0.3682  0.0599
   27SAPC   O14 3550   2.577   7.136   5.705 -0.5643 -0.0062 -0.0075
   27SAPC   O12 3551   2.423   7.183   5.519  0.8293  0.3326 -0.0343
   27SAPC   O11 3552   2.362   7.271   5.737 -0.5769 -0.4710 -0.3017
   27SAPC    C1 3553   2.419   7.363   5.830  0.7812  0.3084  0.2106
   27SAPC    HA 3554   2.522   7.395   5.803  0.6341  0.2507 -0.4284
   27SAPC    HB 3555   2.355   7.454   5.823  0.5976  0.0127 -2.9893
   27SAPC    C2 3556   2.432   7.305   5.972  0.2937  0.1500 -1.0254
   27SAPC    HS 3557   2.484   7.208   5.955 -0.1355  0.1174 -2.1913
   27SAPC   O21 3558   2.301   7.280   6.032 -0.3763  0.0568  0.6524
   27SAPC   C21 3559   2.308   7.191   6.123  0.3678 -0.4258  0.7425
   27SAPC   O22 3560   2.404   7.127   6.160  0.5206 -0.1864 -0.3998
   27SAPC   C22 3561   2.178   7.176   6.195  0.0871  0.5533 -0.0506
   27SAPC   H2R 3562   2.096   7.151   6.125 -0.5234  0.1549  0.7945
   27SAPC   H2S 3563   2.179   7.077   6.246 -0.3385 -0.0884 -1.2722
   27SAPC    C3 3564   2.535   7.391   6.071 -0.4479  1.0731  0.0786
   27SAPC    HX 3565   2.640   7.397   6.035 -0.1504  0.5891  0.8340
   27SAPC    HY 3566   2.540   7.326   6.161 -0.4536 -2.1350 -2.1592
   27SAPC   O31 3567   2.489   7.514   6.110 -0.1153  0.3429  0.4618
   27SAPC   C31 3568   2.520   7.618   6.033  0.0445  0.0655 -0.5788
   27SAPC   O32 3569   2.577   7.611   5.923 -0.0180  0.0416  0.0289
   27SAPC   C32 3570   2.482   7.744   6.106  1.5411 -0.1841  0.0142
   27SAPC   H2X 3571   2.409   7.718   6.185 -0.9464  2.0662 -1.4729
   27SAPC   H2Y 3572   2.426   7.814   6.040  1.0965 -1.2391 -0.7538
   27SAPC   C23 3573   2.145   7.290   6.299 -0.3098  0.7679  0.1107
   27SAPC   H3R 3574   2.049   7.254   6.343 -1.5388 -0.2106 -3.1599
   27SAPC   H3S 3575   2.117   7.389   6.257 -1.1632  0.5512  0.1537
   27SAPC   C24 3576   2.252   7.311   6.408 -0.7369 -0.1097 -0.3632
   27SAPC   H4R 3577   2.214   7.382   6.484  0.8112 -1.3692  1.6587
   27SAPC   H4S 3578   2.341   7.367   6.374 -1.0665 -0.1261 -1.2748
   27SAPC   C25 3579   2.299   7.184   6.466 -0.7825  0.8497 -0.7002
   27SAPC   H5R 3580   2.301   7.093   6.405 -2.0154  1.4226 -1.6082
   27SAPC   C26 3581   2.292   7.154   6.599  0.2681  0.1527 -0.4875
   27SAPC   H6R 3582   2.318   7.054   6.635 -1.5099  0.6641  2.4037
   27SAPC   C27 3583   2.258   7.256   6.712  0.2913 -0.7033 -0.0975
   27SAPC   H7R 3584   2.149   7.246   6.727 -0.1774  2.3660 -1.1236
   27SAPC   H7S 3585   2.270   7.362   6.680 -0.0754 -0.1151  1.6734
   27SAPC   C28 3586   2.336   7.235   6.845  0.4510 -0.2915  0.0815
   27SAPC   H8R 3587   2.323   7.136   6.892  0.4817  0.6471  2.1319
   27SAPC   C29 3588   2.398   7.327   6.917  0.1128  0.1699  0.4475
   27SAPC   H9R 3589   2.435   7.288   7.013  0.6987  0.6552  0.4239
   27SAPC  C210 3590   2.403   7.472   6.885  0.5655 -0.0491  0.1172
   27SAPC  H10R 3591   2.305   7.521   6.905 -0.1694 -1.6097  0.4432
   27SAPC  H10S 3592   2.418   7.485   6.776  0.1035  2.4894  0.3163
   27SAPC  C211 3593   2.510   7.546   6.964 -0.9557 -0.1352 -0.1507
   27SAPC  H11R 3594   2.574   7.602   6.893 -0.8256 -0.5037 -0.3238
   27SAPC  C212 3595   2.532   7.558   7.095 -0.2244 -0.5009 -1.0684
   27SAPC  H12R 3596   2.623   7.602   7.138 -0.3663 -2.0855  0.9230
   27SAPC  C213 3597   2.427   7.502   7.189 -0.6359 -0.6949  0.1193
   27SAPC  H13R 3598   2.436   7.391   7.197 -0.0885 -0.7911 -1.5124
   27SAPC  H13S 3599   2.327   7.519   7.145  0.1723 -0.3115 -1.6167
   27SAPC  C214 3600   2.436   7.568   7.324 -0.2352 -0.2553  0.0827
   27SAPC  H14R 3601   2.452   7.677   7.328  0.2981 -0.4230  3.2290
   27SAPC  C215 3602   2.444   7.515   7.445  0.3320  0.2494  0.2979
   27SAPC  H15R 3603   2.433   7.582   7.532 -1.8913  2.0007 -1.2437
   27SAPC  C216 3604   2.443   7.369   7.476  0.1298 -0.4425  0.3174
   27SAPC  H16R 3605   2.406   7.315   7.386 -0.4903 -0.3534  0.5190
   27SAPC  H16S 3606   2.380   7.360   7.567 -1.5937  2.1029 -0.5868
   27SAPC  C217 3607   2.581   7.318   7.505 -0.5309  0.8641 -0.0335
   27SAPC  H17R 3608   2.631   7.365   7.592  0.4851 -0.6863  0.2365
   27SAPC  H17S 3609   2.643   7.319   7.412 -0.6874 -0.3214 -0.1617
   27SAPC  C218 3610   2.566   7.169   7.541  0.1674 -0.6249  0.4080
   27SAPC  H18R 3611   2.546   7.116   7.445 -2.4582  2.9447 -1.1514
   27SAPC  H18S 3612   2.482   7.151   7.612 -0.1389 -1.1587 -0.0781
   27SAPC  C219 3613   2.689   7.106   7.608 -0.4857  0.0283  0.7548
   27SAPC  H19R 3614   2.779   7.132   7.548 -0.4476  0.3062  0.9330
   27SAPC  H19S 3615   2.668   6.997   7.600 -1.1634  0.0761  1.7921
   27SAPC  C220 3616   2.706   7.127   7.757 -0.4490  0.8495 -0.7741
   27SAPC  H20R 3617   2.639   7.061   7.817 -0.2520  0.7605 -0.6507
   27SAPC  H20S 3618   2.715   7.235   7.780  1.0788  0.8353 -1.3115
   27SAPC  H20T 3619   2.808   7.085   7.764  0.0267  2.4519  2.9284
   27SAPC   C33 3620   2.602   7.821   6.170 -0.0044 -0.4094  0.6170
   27SAPC   H3X 3621   2.574   7.911   6.228 -0.0973 -0.5062  0.7225
   27SAPC   H3Y 3622   2.678   7.857   6.097 -1.8787 -0.8090 -1.5663
   27SAPC   C34 3623   2.671   7.739   6.277  0.0228 -0.6195  0.4974
   27SAPC   H4X 3624   2.769   7.789   6.292 -0.1228 -0.5232  1.1145
   27SAPC   H4Y 3625   2.700   7.636   6.245 -0.7497 -0.9456  0.8234
   27SAPC   C35 3626   2.592   7.737   6.410  0.1632 -0.2844  0.1206
   27SAPC   H5X 3627   2.498   7.683   6.388 -1.1669  2.0447 -0.1008
   27SAPC   H5Y 3628   2.562   7.841   6.436  1.6714  0.6420 -1.7125
   27SAPC   C36 3629   2.663   7.667   6.518  0.9549  0.0237  0.1870
   27SAPC   H6X 3630   2.636   7.708   6.618  0.2373  0.6450 -0.2564
   27SAPC   H6Y 3631   2.772   7.685   6.513  0.9762 -0.1789 -0.0551
   27SAPC   C37 3632   2.645   7.518   6.516 -0.0948  0.1059 -0.3179
   27SAPC   H7X 3633   2.652   7.480   6.412 -2.5325 -1.5373  0.0786
   27SAPC   H7Y 3634   2.544   7.480   6.545 -0.2252  0.8630  0.2128
   27SAPC   C38 3635   2.743   7.438   6.608 -0.4889  0.4517 -0.6127
   27SAPC   H8X 3636   2.706   7.454   6.712 -0.3605  0.4263 -0.5624
   27SAPC   H8Y 3637   2.847   7.477   6.599  0.7539 -2.5061  0.2537
   27SAPC   C39 3638   2.747   7.283   6.588 -0.4337 -0.5944 -0.6495
   27SAPC   H9X 3639   2.649   7.238   6.615 -0.4311  0.2316  0.7981
   27SAPC   H9Y 3640   2.820   7.259   6.668 -0.7967 -0.8189 -0.3828
   27SAPC  C310 3641   2.791   7.230   6.453 -0.0234 -0.3569 -0.9948
   27SAPC  H10X 3642   2.885   7.177   6.479  0.3323  0.7133 -0.0865
   27SAPC  H10Y 3643   2.808   7.310   6.378 -0.4032  0.8314  0.1650
   27SAPC  C311 3644   2.695   7.128   6.391 -0.5569 -0.0535 -0.3426
   27SAPC  H11X 3645   2.737   7.113   6.290 -0.3714  0.4819 -0.3471
   27SAPC  H11Y 3646   2.593   7.171   6.386 -0.4349  0.4130  0.9067
   27SAPC  C312 3647   2.680   6.998   6.470  0.0635 -0.3820  0.5485
   27SAPC  H12X 3648   2.660   7.014   6.578 -0.5551  1.9084  0.1217
   27SAPC  H12Y 3649   2.774   6.940   6.475 -1.2168 -2.6877 -1.0449
   27SAPC  C313 3650   2.581   6.896   6.411 -0.1105  0.4386  0.1913
   27SAPC  H13X 3651   2.606   6.889   6.303 -1.2215  0.7153 -0.0851
   27SAPC  H13Y 3652   2.473   6.917   6.427 -0.3651 -0.9918  0.4010
   27SAPC  C314 3653   2.619   6.754   6.460 -0.2674 -0.0397 -0.4149
   27SAPC  H14X 3654   2.711   6.728   6.405 -0.9532  0.4800 -1.8134
   27SAPC  H14Y 3655   2.536   6.686   6.430 -0.5021  0.4765 -0.9481
   27SAPC  C315 3656   2.644   6.736   6.610  0.0622 -0.2349 -0.1718
   27SAPC  H15X 3657   2.735   6.795   6.634 -2.1439  3.7933 -1.2618
   27SAPC  H15Y 3658   2.671   6.631   6.635  0.1159  0.2520  1.8674
   27SAPC  C316 3659   2.523   6.778   6.695 -0.5143 -0.2807  0.3663
   27SAPC  H16X 3660   2.438   6.716   6.658 -0.6900 -0.5213  1.1736
   27SAPC  H16Y 3661   2.499   6.883   6.666 -0.6308 -0.3538  0.1979
   27SAPC  C317 3662   2.549   6.763   6.844  0.2515  0.8120  0.5184
   27SAPC  H17X 3663   2.593   6.661   6.853  1.1043  1.2305  1.0658
   27SAPC  H17Y 3664   2.454   6.756   6.901 -0.5467 -0.8444 -0.9799
   27SAPC  C318 3665   2.630   6.871   6.908 -0.2306 -0.3729  0.1320
   27SAPC  H18X 3666   2.681   6.831   6.998  0.7144  1.9626  0.6786
   27SAPC  H18Y 3667   2.570   6.956   6.948  0.0912 -0.5089  0.9186
   27SAPC  H18Z 3668   2.703   6.901   6.830 -0.9260  1.3039  0.0963
   28SAPC     N 3669   0.211   4.063   5.441 -0.0669  1.5334  0.6090
   28SAPC   C12 3670   0.104   3.962   5.470  0.8879  0.0948  0.3237
   28SAPC  H12A 3671   0.153   3.867   5.454 -1.5547 -1.1577  0.0717
   28SAPC  H12B 3672   0.022   3.977   5.402  0.2573  1.7130  1.4124
   28SAPC   C13 3673   0.331   4.042   5.524 -0.4765 -0.2081 -0.9295
   28SAPC  H13A 3674   0.404   4.119   5.503 -3.4315  3.2465  0.8258
   28SAPC  H13B 3675   0.301   4.035   5.628 -0.3686 -1.8733 -1.0018
   28SAPC  H13C 3676   0.376   3.947   5.499  3.4415  0.2580  3.6005
   28SAPC   C14 3677   0.256   4.041   5.294  0.0786  0.1637  0.5323
   28SAPC  H14A 3678   0.327   4.118   5.268 -0.0284  0.1309  0.1371
   28SAPC  H14B 3679   0.306   3.947   5.278 -0.5961 -0.1654  0.3024
   28SAPC  H14C 3680   0.169   4.054   5.231 -1.2609 -0.7272  2.1677
   28SAPC   C15 3681   0.154   4.198   5.447 -0.7814 -0.1051 -0.4268
   28SAPC  H15A 3682   0.222   4.265   5.396  0.7299 -0.1944  1.4496
   28SAPC  H15B 3683   0.055   4.206   5.403 -1.4435  1.1052  1.2492
   28SAPC  H15C 3684   0.141   4.220   5.552 -0.1369  0.0096 -0.3738
   28SAPC   C11 3685   0.033   3.966   5.605 -0.2540  0.3848 -0.0618
   28SAPC  H11A 3686  -0.057   3.901   5.603  0.0494 -0.0687  0.6534
   28SAPC  H11B 3687  -0.002   4.068   5.631  0.3798  0.1890  1.6389
   28SAPC     P 3688   0.157   3.780   5.751  0.1397  0.5469 -0.2103
   28SAPC   O13 3689   0.025   3.708   5.747 -0.9366 -0.3231 -0.0605
   28SAPC   O14 3690   0.264   3.718   5.669 -0.5265  0.1858 -0.2052
   28SAPC   O12 3691   0.132   3.931   5.706 -0.0971  0.4683  0.3024
   28SAPC   O11 3692   0.222   3.803   5.901 -0.8957  0.5465  0.0030
   28SAPC    C1 3693   0.369   3.819   5.900 -0.0771  0.6544  0.2391
   28SAPC    HA 3694   0.412   3.867   5.809  2.1856  1.4430  1.6848
   28SAPC    HB 3695   0.410   3.890   5.975 -0.5697  1.3908 -0.1774
   28SAPC    C2 3696   0.440   3.689   5.928 -0.3313 -0.5090  0.0310
   28SAPC    HS 3697   0.403   3.619   5.850 -1.0916 -0.0554 -0.0287
   28SAPC   O21 3698   0.395   3.650   6.062 -0.2583  0.1824  0.4328
   28SAPC   C21 3699   0.407   3.514   6.084 -0.3022  0.6006 -0.6856
   28SAPC   O22 3700   0.449   3.435   6.003 -0.6028  0.0629  0.2400
   28SAPC   C22 3701   0.360   3.473   6.227  0.4635  0.0650  0.3039
   28SAPC   H2R 3702   0.427   3.508   6.308 -1.6047  2.0837  1.2118
   28SAPC   H2S 3703   0.261   3.524   6.232  1.1791  1.9106 -2.7539
   28SAPC    C3 3704   0.592   3.706   5.917  0.4497 -0.2465 -0.3701
   28SAPC    HX 3705   0.612   3.744   5.814 -0.8563  2.5647  0.3743
   28SAPC    HY 3706   0.638   3.605   5.923  1.4629  0.3807  4.8402
   28SAPC   O31 3707   0.651   3.795   6.015 -0.4756  0.8757 -0.3949
   28SAPC   C31 3708   0.693   3.753   6.129 -0.3399 -0.3928  0.3188
   28SAPC   O32 3709   0.687   3.641   6.178  0.6253  0.0913  0.4169
   28SAPC   C32 3710   0.763   3.873   6.198  0.5183  0.2259  0.6367
   28SAPC   H2X 3711   0.805   3.940   6.121 -1.4284  1.4568  0.6252
   28SAPC   H2Y 3712   0.841   3.837   6.270  0.5250 -0.0518  0.4932
   28SAPC   C23 3713   0.341   3.313   6.231  0.1485 -0.5643 -0.0718
   28SAPC   H3R 3714   0.439   3.267   6.205  1.7867  2.3656  0.6823
   28SAPC   H3S 3715   0.271   3.286   6.149  0.7843  1.2383 -1.2560
   28SAPC   C24 3716   0.283   3.261   6.362  0.7873 -0.0371  0.0809
   28SAPC   H4R 3717   0.362   3.270   6.440  1.2460 -0.2855 -0.3459
   28SAPC   H4S 3718   0.196   3.321   6.395 -1.4646 -2.5824 -0.9758
   28SAPC   C25 3719   0.237   3.119   6.361  0.5888 -0.0238 -0.1244
   28SAPC   H5R 3720   0.162   3.107   6.281 -1.2247 -1.9842  1.7946
   28SAPC   C26 3721   0.274   3.016   6.435  0.8220 -0.1353  0.0863
   28SAPC   H6R 3722   0.230   2.917   6.417 -1.0060  0.8880 -1.2191
   28SAPC   C27 3723   0.376   3.022   6.545  0.3014  1.3172  0.4852
   28SAPC   H7R 3724   0.336   3.005   6.648 -1.2518  1.0621 -0.1605
   28SAPC   H7S 3725   0.443   3.110   6.543 -0.0594  1.5699 -0.7017
   28SAPC   C28 3726   0.477   2.904   6.531  0.2026  0.7699  0.6155
   28SAPC   H8R 3727   0.461   2.842   6.442 -0.8999  0.0032  1.3323
   28SAPC   C29 3728   0.581   2.877   6.610  0.4367  0.3892  0.5085
   28SAPC   H9R 3729   0.641   2.788   6.587  2.1403  1.6021  0.1208
   28SAPC  C210 3730   0.629   2.962   6.723  0.2372  0.0793 -0.8880
   28SAPC  H10R 3731   0.589   2.909   6.812  0.7864  0.6432 -0.3034
   28SAPC  H10S 3732   0.567   3.054   6.718 -0.2736 -0.2655 -0.9603
   28SAPC  C211 3733   0.768   3.005   6.724  0.1922 -0.2916  0.6983
   28SAPC  H11R 3734   0.794   3.076   6.644 -2.6166  0.7803  0.6668
   28SAPC  C212 3735   0.867   2.973   6.806 -0.0429 -0.2124  0.2981
   28SAPC  H12R 3736   0.963   3.025   6.795 -0.9256  1.2423 -0.7539
   28SAPC  C213 3737   0.859   2.877   6.922  1.3132  0.0038 -0.1249
   28SAPC  H13R 3738   0.768   2.813   6.917  1.4029 -0.0542 -0.9623
   28SAPC  H13S 3739   0.847   2.929   7.020  1.9011  0.9940 -0.5728
   28SAPC  C214 3740   0.980   2.789   6.929  0.5661 -0.0083 -0.1101
   28SAPC  H14R 3741   1.045   2.791   6.841  0.6886 -1.7219 -0.0576
   28SAPC  C215 3742   0.994   2.694   7.024  0.0194  0.7428  0.2867
   28SAPC  H15R 3743   1.092   2.644   7.026  0.0146  0.3202 -4.6353
   28SAPC  C216 3744   0.893   2.670   7.132  0.3146 -0.7017 -0.0664
   28SAPC  H16R 3745   0.842   2.572   7.115 -0.0892 -0.1975 -1.8847
   28SAPC  H16S 3746   0.818   2.751   7.129  2.9374  1.9046  1.9964
   28SAPC  C217 3747   0.952   2.685   7.266 -0.0337  0.3128  0.3761
   28SAPC  H17R 3748   1.047   2.629   7.279  0.5622  0.8944 -1.3406
   28SAPC  H17S 3749   0.876   2.663   7.345 -0.3705 -0.9128 -0.2801
   28SAPC  C218 3750   0.985   2.831   7.312 -0.0333  0.1331  0.2202
   28SAPC  H18R 3751   0.884   2.877   7.323 -0.3846 -0.9962  1.8749
   28SAPC  H18S 3752   1.042   2.882   7.231 -0.4591 -0.0583 -0.2058
   28SAPC  C219 3753   1.048   2.837   7.454  0.4585 -0.5024  0.2478
   28SAPC  H19R 3754   0.972   2.792   7.521  1.3678  0.2160  1.7791
   28SAPC  H19S 3755   1.054   2.944   7.482 -0.1315  0.2186 -2.2072
   28SAPC  C220 3756   1.191   2.786   7.461 -0.7827 -0.1904 -0.1908
   28SAPC  H20R 3757   1.212   2.780   7.570 -0.5064  0.8432 -0.1859
   28SAPC  H20S 3758   1.259   2.850   7.401 -1.3031 -1.2636 -1.9634
   28SAPC  H20T 3759   1.190   2.683   7.419 -2.2584 -1.3568  2.5831
   28SAPC   C33 3760   0.662   3.961   6.276  0.0814  0.2477  0.7497
   28SAPC   H3X 3761   0.583   4.008   6.212 -0.3735 -3.8947 -1.8958
   28SAPC   H3Y 3762   0.730   4.038   6.319  0.0817  0.3159  0.6303
   28SAPC   C34 3763   0.597   3.908   6.405  0.5869  0.5714  0.0764
   28SAPC   H4X 3764   0.586   4.002   6.463 -0.2353 -1.0874  2.6865
   28SAPC   H4Y 3765   0.666   3.829   6.442  0.2236  0.3407  0.2649
   28SAPC   C35 3766   0.455   3.855   6.378 -0.3305  0.4161  0.9693
   28SAPC   H5X 3767   0.452   3.756   6.327  0.7067  1.4998 -1.2509
   28SAPC   H5Y 3768   0.410   3.936   6.316  0.6916  1.1016  1.1036
   28SAPC   C36 3769   0.369   3.837   6.505  0.1888  0.0580  0.2837
   28SAPC   H6X 3770   0.275   3.788   6.473  0.2561 -0.8963  1.5126
   28SAPC   H6Y 3771   0.348   3.939   6.545  2.0013  1.1336 -1.4112
   28SAPC   C37 3772   0.444   3.752   6.610  0.6790  0.0486  0.6299
   28SAPC   H7X 3773   0.541   3.802   6.633  1.2933 -0.6391 -0.4047
   28SAPC   H7Y 3774   0.475   3.658   6.560  0.4755  0.2617  0.0966
   28SAPC   C38 3775   0.375   3.736   6.742  0.1235  0.2675  0.1734
   28SAPC   H8X 3776   0.353   3.837   6.782  1.0234 -0.3522  2.3472
   28SAPC   H8Y 3777   0.447   3.683   6.810 -0.7427 -2.1902 -0.7615
   28SAPC   C39 3778   0.248   3.647   6.724 -0.7436 -0.3725  0.1870
   28SAPC   H9X 3779   0.280   3.541   6.711 -0.0631 -0.0990 -0.3758
   28SAPC   H9Y 3780   0.194   3.674   6.631  0.6912  0.4686 -0.4278
   28SAPC  C310 3781   0.151   3.668   6.840  0.4959 -0.5422  0.1360
   28SAPC  H10X 3782   0.052   3.631   6.809 -0.7169  1.5283  1.4049
   28SAPC  H10Y 3783   0.127   3.775   6.862 -2.9509 -1.0537 -0.8797
   28SAPC  C311 3784   0.176   3.597   6.975  0.1914 -0.0629  0.2867
   28SAPC  H11X 3785   0.196   3.489   6.956  0.4944  0.1214 -0.4830
   28SAPC  H11Y 3786   0.078   3.601   7.027 -0.4733  1.9043 -1.0525
   28SAPC  C312 3787   0.277   3.645   7.073 -0.2286  0.1264 -0.1648
   28SAPC  H12X 3788   0.249   3.749   7.100 -0.0154  0.1316  0.0419
   28SAPC  H12Y 3789   0.374   3.662   7.021 -1.9030 -0.2593 -3.5589
   28SAPC  C313 3790   0.291   3.548   7.189 -0.1922  0.1022 -0.5199
   28SAPC  H13X 3791   0.341   3.457   7.147 -3.0269 -0.5300 -2.6492
   28SAPC  H13Y 3792   0.192   3.520   7.229  0.7342 -0.2840  1.5739
   28SAPC  C314 3793   0.376   3.603   7.304 -0.1922 -0.6442  0.4544
   28SAPC  H14X 3794   0.332   3.695   7.348 -1.2775 -0.9428  0.0128
   28SAPC  H14Y 3795   0.475   3.635   7.267 -0.8943  1.7724  0.5590
   28SAPC  C315 3796   0.375   3.492   7.414 -0.3633 -0.3930 -0.8616
   28SAPC  H15X 3797   0.408   3.397   7.366 -0.1317 -0.1033 -1.2862
   28SAPC  H15Y 3798   0.276   3.472   7.459  0.1885 -2.0456 -0.3616
   28SAPC  C316 3799   0.460   3.534   7.536 -0.2075 -0.6428  0.7179
   28SAPC  H16X 3800   0.567   3.543   7.508 -0.2615  0.4831  0.8321
   28SAPC  H16Y 3801   0.468   3.454   7.612  2.6315 -0.5488  0.5757
   28SAPC  C317 3802   0.410   3.662   7.607  0.7243 -0.2019 -0.4494
   28SAPC  H17X 3803   0.308   3.654   7.652  1.4752 -0.6700  1.2189
   28SAPC  H17Y 3804   0.418   3.744   7.532  0.9285  1.5363  1.4172
   28SAPC  C318 3805   0.508   3.700   7.715  0.1090 -0.3821  0.0291
   28SAPC  H18X 3806   0.464   3.772   7.787 -3.5008 -1.1103 -1.3272
   28SAPC  H18Y 3807   0.611   3.728   7.687  1.0586 -0.6077  3.1234
   28SAPC  H18Z 3808   0.522   3.611   7.781  0.6459 -0.5635 -0.3306
   29SAPC     N 3809   3.178   0.258   5.713  0.0206  0.0863  0.1816
   29SAPC   C12 3810   3.280   0.233   5.827  0.0634 -0.4255  0.3048
   29SAPC  H12A 3811   3.223   0.215   5.918  0.8013 -0.2932  0.7943
   29SAPC  H12B 3812   3.338   0.322   5.843  0.4737 -0.3474 -1.4862
   29SAPC   C13 3813   3.241   0.265   5.578 -0.2765 -0.9887  0.2605
   29SAPC  H13A 3814   3.292   0.175   5.549 -0.7208 -1.8463  2.0795
   29SAPC  H13B 3815   3.171   0.295   5.502  2.8647 -0.1267 -2.3753
   29SAPC  H13C 3816   3.308   0.349   5.567 -3.1039  1.2132 -1.0554
   29SAPC   C14 3817   3.079   0.148   5.718  0.2332 -0.0204 -0.4720
   29SAPC  H14A 3818   3.135   0.056   5.707 -1.7322 -1.2556 -0.4623
   29SAPC  H14B 3819   3.041   0.126   5.817 -1.0187  1.9827 -0.4919
   29SAPC  H14C 3820   3.006   0.143   5.639  0.2636 -1.2401 -0.4317
   29SAPC   C15 3821   3.112   0.379   5.747  0.6897 -0.2721  0.3840
   29SAPC  H15A 3822   3.089   0.387   5.852  0.1714  0.3956  0.2254
   29SAPC  H15B 3823   3.177   0.463   5.725 -1.3038  0.8584 -1.3852
   29SAPC  H15C 3824   3.013   0.391   5.705  0.1174 -0.1745  1.7631
   29SAPC   C11 3825   3.390   0.125   5.804  0.0260  0.6818  0.5350
   29SAPC  H11A 3826   3.462   0.123   5.889 -0.8328  2.3459  1.3269
   29SAPC  H11B 3827   3.432   0.152   5.705 -3.4246  0.7823 -0.9593
   29SAPC     P 3828   3.322  -0.121   5.887  0.2512  0.0644  0.0544
   29SAPC   O13 3829   3.181  -0.144   5.930 -0.5587 -0.6288 -1.1378
   29SAPC   O14 3830   3.396  -0.234   5.835  0.3922 -0.3923 -0.3545
   29SAPC   O12 3831   3.322  -0.002   5.784  0.6061 -0.7745  0.1261
   29SAPC   O11 3832   3.413  -0.067   6.013 -0.0643 -0.1069  0.3444
   29SAPC    C1 3833   3.349  -0.021   6.131  0.3932 -0.0102 -0.1409
   29SAPC    HA 3834   3.239  -0.020   6.116  0.4653  0.1613 -0.6918
   29SAPC    HB 3835   3.365  -0.092   6.215  4.0445  0.9138  0.0579
   29SAPC    C2 3836   3.384   0.121   6.180 -0.2880 -0.2204  0.8569
   29SAPC    HS 3837   3.369   0.187   6.092 -0.3699 -1.4314 -0.0428
   29SAPC   O21 3838   3.521   0.120   6.221 -0.7073  0.0843  0.6102
   29SAPC   C21 3839   3.568   0.241   6.233 -0.0269  0.0468 -0.0429
   29SAPC   O22 3840   3.500   0.341   6.215 -0.3384  0.1948 -0.8380
   29SAPC   C22 3841   3.713   0.233   6.273 -0.3118  0.1065  0.0479
   29SAPC   H2R 3842   3.741   0.126   6.264 -1.3728  0.0023 -2.3269
   29SAPC   H2S 3843   3.761   0.296   6.195 -0.4211 -1.1207 -1.0124
   29SAPC    C3 3844   3.289   0.142   6.301 -0.2307 -0.1613  0.2570
   29SAPC    HX 3845   3.184   0.142   6.264 -0.3454  0.1398  0.5807
   29SAPC    HY 3846   3.318   0.245   6.330 -1.2974  0.5392 -1.1282
   29SAPC   O31 3847   3.301   0.052   6.413 -0.4586  0.2730 -0.4076
   29SAPC   C31 3848   3.248   0.107   6.525  0.3019 -0.3350  0.1821
   29SAPC   O32 3849   3.187   0.213   6.529 -0.6227  0.3929 -0.7359
   29SAPC   C32 3850   3.303   0.026   6.639  0.2376  0.2351 -0.5564
   29SAPC   H2X 3851   3.371   0.099   6.689  0.5135  0.1187 -0.7564
   29SAPC   H2Y 3852   3.365  -0.054   6.593 -0.6129 -0.2631 -0.8394
   29SAPC   C23 3853   3.757   0.274   6.416  0.0535 -0.1556 -0.2362
   29SAPC   H3R 3854   3.770   0.384   6.422  0.2186 -0.2341  0.9743
   29SAPC   H3S 3855   3.860   0.234   6.426 -0.5377 -2.3610 -2.4543
   29SAPC   C24 3856   3.667   0.219   6.524  0.6029 -0.8823 -0.3617
   29SAPC   H4R 3857   3.559   0.235   6.502  0.7616  0.6473 -0.1098
   29SAPC   H4S 3858   3.676   0.278   6.618 -0.9413  0.0392 -0.7641
   29SAPC   C25 3859   3.696   0.076   6.563 -0.0540  0.6351 -0.5715
   29SAPC   H5R 3860   3.698   0.005   6.479 -1.0859  0.1515 -0.2045
   29SAPC   C26 3861   3.750   0.035   6.684  0.4466 -0.3247 -0.0750
   29SAPC   H6R 3862   3.780  -0.071   6.691  0.6543 -0.1939  1.1346
   29SAPC   C27 3863   3.780   0.120   6.804  0.5873  0.0784 -0.1380
   29SAPC   H7R 3864   3.725   0.217   6.796  1.5764  0.6515 -0.0430
   29SAPC   H7S 3865   3.884   0.157   6.798  0.7663 -0.5821 -1.1819
   29SAPC   C28 3866   3.773   0.050   6.935  0.6489  0.6239  0.6126
   29SAPC   H8R 3867   3.873   0.040   6.980  1.2103  1.0169 -0.5401
   29SAPC   C29 3868   3.666   0.017   7.005  1.0413 -0.9315 -0.3488
   29SAPC   H9R 3869   3.686  -0.025   7.105  1.9672  0.3184  0.0054
   29SAPC  C210 3870   3.517   0.048   6.959 -0.4112  0.3525 -0.6734
   29SAPC  H10R 3871   3.497  -0.022   6.876 -1.6384  1.2021 -1.1154
   29SAPC  H10S 3872   3.496   0.146   6.910 -0.2412  0.3863 -0.6800
   29SAPC  C211 3873   3.423   0.025   7.072  0.5247  0.8473 -0.2436
   29SAPC  H11R 3874   3.405  -0.077   7.111  0.5044  1.3215  1.0047
   29SAPC  C212 3875   3.353   0.129   7.125 -0.8939  0.8862  0.6255
   29SAPC  H12R 3876   3.288   0.108   7.212 -1.5450 -2.4041 -0.6097
   29SAPC  C213 3877   3.354   0.275   7.093 -0.3678  0.1161 -0.1767
   29SAPC  H13R 3878   3.250   0.312   7.104 -0.9701 -0.8334 -2.3753
   29SAPC  H13S 3879   3.391   0.295   6.990  0.9952  3.2166  0.8672
   29SAPC  C214 3880   3.449   0.346   7.190  0.2908  0.8296 -0.4215
   29SAPC  H14R 3881   3.551   0.324   7.155 -0.9334 -0.8413 -3.1069
   29SAPC  C215 3882   3.420   0.419   7.293  0.0345  0.0597  0.4364
   29SAPC  H15R 3883   3.502   0.471   7.344  1.0293 -0.9584 -0.1162
   29SAPC  C216 3884   3.283   0.464   7.340  0.3612  1.4988 -0.0342
   29SAPC  H16R 3885   3.268   0.442   7.448  0.9472 -0.3024 -0.2970
   29SAPC  H16S 3886   3.214   0.385   7.302  0.3014  1.0446  1.0021
   29SAPC  C217 3887   3.225   0.597   7.288  0.3668 -0.1537  1.0312
   29SAPC  H17R 3888   3.276   0.618   7.192  0.5324  3.6670  1.8898
   29SAPC  H17S 3889   3.275   0.677   7.345 -0.1354 -0.7719  2.3595
   29SAPC  C218 3890   3.069   0.598   7.276 -0.1617 -0.0016 -0.0148
   29SAPC  H18R 3891   3.015   0.587   7.372  2.7441 -1.1656  1.5326
   29SAPC  H18S 3892   3.039   0.514   7.209  0.7679  0.6403 -1.2647
   29SAPC  C219 3893   3.008   0.724   7.203  1.0216 -0.6029  0.0757
   29SAPC  H19R 3894   3.056   0.726   7.103  1.4476 -1.6358  0.2509
   29SAPC  H19S 3895   3.044   0.822   7.242  0.0104  0.3106 -1.2796
   29SAPC  C220 3896   2.854   0.728   7.213  0.3495 -0.1786 -0.1703
   29SAPC  H20R 3897   2.803   0.633   7.184  0.3894 -0.0177 -0.7662
   29SAPC  H20S 3898   2.827   0.812   7.147  0.2517  0.4992  0.7184
   29SAPC  H20T 3899   2.825   0.761   7.316 -1.9405 -0.3159 -0.7503
   29SAPC   C33 3900   3.192  -0.031   6.732 -0.3348  0.3122  0.6693
   29SAPC   H3X 3901   3.219  -0.109   6.807  0.1013 -1.3047 -1.1296
   29SAPC   H3Y 3902   3.120  -0.083   6.666  1.2745 -0.2837 -0.6610
   29SAPC   C34 3903   3.123   0.082   6.811  0.0891  0.0082 -0.0596
   29SAPC   H4X 3904   3.074   0.154   6.743 -1.1784  0.6838  1.5359
   29SAPC   H4Y 3905   3.192   0.130   6.884 -1.0474  1.1577  0.2726
   29SAPC   C35 3906   3.007   0.044   6.906 -0.1632 -0.4708 -0.1282
   29SAPC   H5X 3907   3.042  -0.051   6.952 -1.1538 -0.1146  1.4270
   29SAPC   H5Y 3908   2.909   0.018   6.860 -0.1772 -0.0668 -0.3310
   29SAPC   C36 3909   2.975   0.139   7.022 -0.4241 -0.5183  0.3539
   29SAPC   H6X 3910   2.925   0.228   6.977  0.4755 -0.8496 -1.3361
   29SAPC   H6Y 3911   3.069   0.179   7.065 -1.1754  0.9325  0.6985
   29SAPC   C37 3912   2.878   0.080   7.125 -0.9106 -0.0086  0.0095
   29SAPC   H7X 3913   2.910  -0.026   7.140  4.6999  1.6272  0.8124
   29SAPC   H7Y 3914   2.774   0.098   7.093  0.0567  2.6220 -1.8486
   29SAPC   C38 3915   2.898   0.141   7.265 -0.1311  0.3071  0.2388
   29SAPC   H8X 3916   2.811   0.136   7.334 -0.5125  0.5657 -0.2214
   29SAPC   H8Y 3917   2.910   0.252   7.259  1.4586  0.2335  1.6878
   29SAPC   C39 3918   3.018   0.071   7.339 -0.1891  0.2150 -0.0608
   29SAPC   H9X 3919   3.113   0.086   7.285 -1.0738 -1.4502 -2.1110
   29SAPC   H9Y 3920   2.995  -0.037   7.325  0.9886  0.3370 -3.1331
   29SAPC  C310 3921   3.034   0.116   7.485 -0.4463 -0.2639  0.5790
   29SAPC  H10X 3922   2.950   0.077   7.547  2.5831 -2.5531  3.4027
   29SAPC  H10Y 3923   3.034   0.227   7.487  0.8428 -0.2568  0.4900
   29SAPC  C311 3924   3.153   0.057   7.557  0.5076 -0.1841 -0.0903
   29SAPC  H11X 3925   3.242   0.058   7.489  1.6357 -2.9591  1.2575
   29SAPC  H11Y 3926   3.138  -0.053   7.556  1.2048 -0.2828 -2.0981
   29SAPC  C312 3927   3.181   0.117   7.697  0.0241 -0.1698  0.2102
   29SAPC  H12X 3928   3.102   0.076   7.763 -0.7194 -1.1027 -1.2211
   29SAPC  H12Y 3929   3.167   0.227   7.695  1.3561  0.0141  0.3941
   29SAPC  C313 3930   3.319   0.092   7.770 -0.2814  0.0120 -0.3281
   29SAPC  H13X 3931   3.364  -0.007   7.749  0.1628  0.6643 -2.5931
   29SAPC  H13Y 3932   3.290   0.102   7.877  0.4547  1.9364 -0.2925
   29SAPC  C314 3933   3.416   0.212   7.733 -0.3674 -0.5266  0.5990
   29SAPC  H14X 3934   3.385   0.310   7.775  1.5481  1.1873 -1.7772
   29SAPC  H14Y 3935   3.403   0.214   7.623  2.8869 -1.4089  0.1490
   29SAPC  C315 3936   3.564   0.188   7.768 -0.1639 -0.0338  0.4829
   29SAPC  H15X 3937   3.589   0.087   7.729 -0.4934  0.7148 -1.7766
   29SAPC  H15Y 3938   3.581   0.199   7.877  0.5431  0.4837  0.3258
   29SAPC  C316 3939   3.659   0.279   7.695  0.3521  0.1496 -0.5074
   29SAPC  H16X 3940   3.764   0.259   7.725 -0.5859 -0.3268  2.5768
   29SAPC  H16Y 3941   3.640   0.384   7.727 -0.7990 -0.6892  1.6451
   29SAPC  C317 3942   3.670   0.270   7.546 -0.1000  0.5051  0.2244
   29SAPC  H17X 3943   3.594   0.326   7.487  0.5657  1.0460 -0.1235
   29SAPC  H17Y 3944   3.652   0.164   7.517 -0.6715  0.9093 -0.9650
   29SAPC  C318 3945   3.800   0.315   7.476  0.2820 -0.2142 -0.3412
   29SAPC  H18X 3946   3.890   0.264   7.516  0.4774 -0.0163 -0.5235
   29SAPC  H18Y 3947   3.813   0.425   7.491 -2.2582  0.2064 -0.9774
   29SAPC  H18Z 3948   3.794   0.287   7.369 -0.1946  0.3185 -0.4584
   30SAPC     N 3949   5.840   6.995   5.509 -0.5379 -0.5572 -0.7019
   30SAPC   C12 3950   5.731   6.993   5.402 -0.3446  0.2317  0.8616
   30SAPC  H12A 3951   5.755   6.915   5.332 -0.0558  1.1248 -0.0598
   30SAPC  H12B 3952   5.739   7.087   5.349 -2.5732 -1.2328 -2.2087
   30SAPC   C13 3953   5.973   7.017   5.455  0.3942  0.0154  0.3773
   30SAPC  H13A 3954   5.988   6.930   5.393 -1.6938  0.8415 -1.3403
   30SAPC  H13B 3955   5.994   7.110   5.405  2.7176  0.8859  2.8289
   30SAPC  H13C 3956   6.045   7.014   5.536 -0.7423  1.0596  1.4396
   30SAPC   C14 3957   5.815   7.101   5.607 -0.5794  0.0176 -0.1123
   30SAPC  H14A 3958   5.829   7.203   5.574 -1.3722 -0.2432 -1.2850
   30SAPC  H14B 3959   5.724   7.086   5.662 -0.3968  1.9153  0.7606
   30SAPC  H14C 3960   5.891   7.104   5.684  0.0686  0.4019 -0.7549
   30SAPC   C15 3961   5.844   6.862   5.578  1.7719  0.5552  0.2442
   30SAPC  H15A 3962   5.753   6.843   5.633  2.5305 -0.0026  1.3222
   30SAPC  H15B 3963   5.860   6.785   5.503  1.6701  0.7396  0.0334
   30SAPC  H15C 3964   5.921   6.850   5.652  1.5097  0.2992  0.4770
   30SAPC   C11 3965   5.587   6.977   5.450 -0.3438 -0.1022 -0.0702
   30SAPC  H11A 3966   5.522   6.975   5.360  0.0354  0.5534 -0.3636
   30SAPC  H11B 3967   5.567   7.073   5.502  2.9640  0.8623 -0.4600
   30SAPC     P 3968   5.467   6.825   5.628  0.0595  0.3483  0.1468
   30SAPC   O13 3969   5.332   6.828   5.571 -0.1170 -0.7459 -0.3301
   30SAPC   O14 3970   5.514   6.708   5.708 -0.4256 -0.0304 -0.4067
   30SAPC   O12 3971   5.572   6.851   5.514 -0.1972 -0.3172  0.0238
   30SAPC   O11 3972   5.500   6.955   5.708  0.1047  0.3333  0.0352
   30SAPC    C1 3973   5.523   6.957   5.845  0.1793  0.6346  0.1957
   30SAPC    HA 3974   5.582   6.871   5.884  1.8530  1.7066  0.0772
   30SAPC    HB 3975   5.582   7.046   5.875  0.6548 -0.3914  2.4316
   30SAPC    C2 3976   5.378   6.967   5.927 -0.0279 -0.0849 -0.0793
   30SAPC    HS 3977   5.399   6.983   6.035 -2.0438 -2.2034  0.6806
   30SAPC   O21 3978   5.293   6.852   5.910 -0.8543 -0.1623 -0.3192
   30SAPC   C21 3979   5.351   6.741   5.966 -0.5161  0.6579  0.2896
   30SAPC   O22 3980   5.449   6.739   6.040 -0.3755  0.2304 -0.0997
   30SAPC   C22 3981   5.275   6.614   5.913  0.9641  0.2708  0.5103
   30SAPC   H2R 3982   5.170   6.632   5.944 -0.4523 -1.6215 -2.8876
   30SAPC   H2S 3983   5.271   6.627   5.803 -2.2106 -1.4056  0.3656
   30SAPC    C3 3984   5.295   7.079   5.878 -0.2778  0.8275 -0.0363
   30SAPC    HX 3985   5.262   7.054   5.775 -0.6633  2.8062 -0.4066
   30SAPC    HY 3986   5.366   7.163   5.884 -0.4870  0.9227  1.1086
   30SAPC   O31 3987   5.177   7.098   5.963  0.2978  0.0612  0.1018
   30SAPC   C31 3988   5.127   7.214   5.958  0.2938 -0.5980 -0.0532
   30SAPC   O32 3989   5.169   7.309   5.895 -0.1663  0.5748 -0.2750
   30SAPC   C32 3990   4.996   7.230   6.039  0.1341 -0.0842 -0.1395
   30SAPC   H2X 3991   4.993   7.141   6.106  1.1358  0.3295  0.4563
   30SAPC   H2Y 3992   4.916   7.221   5.962  0.9422  1.0770 -1.1469
   30SAPC   C23 3993   5.334   6.479   5.962  0.8908 -0.3502  0.3107
   30SAPC   H3R 3994   5.439   6.464   5.929  0.9929 -2.3210  1.4289
   30SAPC   H3S 3995   5.279   6.395   5.913  1.0523 -0.3478  0.1266
   30SAPC   C24 3996   5.333   6.471   6.114 -0.5717  0.0327  0.3355
   30SAPC   H4R 3997   5.390   6.554   6.160  0.7477 -0.8627  0.3240
   30SAPC   H4S 3998   5.395   6.384   6.143 -0.9089 -0.2541  0.2100
   30SAPC   C25 3999   5.196   6.442   6.169  0.2247  0.1274  0.3637
   30SAPC   H5R 4000   5.145   6.362   6.113  0.4229  0.3150 -0.0833
   30SAPC   C26 4001   5.123   6.527   6.245  0.4660  0.1155 -0.0239
   30SAPC   H6R 4002   5.020   6.506   6.277 -0.3084  0.9713 -1.8569
   30SAPC   C27 4003   5.181   6.654   6.302  0.6872 -0.9929 -0.5182
   30SAPC   H7R 4004   5.292   6.654   6.299  0.6774 -1.6221 -0.8355
   30SAPC   H7S 4005   5.165   6.646   6.412  1.5714 -2.8725 -0.5165
   30SAPC   C28 4006   5.129   6.783   6.233 -0.1598 -0.3662  0.0267
   30SAPC   H8R 4007   5.055   6.777   6.152 -1.3742 -1.1391  1.1930
   30SAPC   C29 4008   5.155   6.898   6.284  0.9094 -0.2416  0.1200
   30SAPC   H9R 4009   5.101   6.984   6.242 -2.2802 -1.4370  1.6162
   30SAPC  C210 4010   5.229   6.934   6.406  0.4098  0.0280  0.6206
   30SAPC  H10R 4011   5.212   6.858   6.486 -0.1849 -0.5931 -0.0857
   30SAPC  H10S 4012   5.167   7.016   6.448  1.4326  0.5592  1.1287
   30SAPC  C211 4013   5.371   6.971   6.408  0.0033 -0.0321 -0.0434
   30SAPC  H11R 4014   5.431   6.937   6.322 -0.3694  1.0296 -0.7359
   30SAPC  C212 4015   5.434   7.050   6.495 -0.0907  1.2207  0.4725
   30SAPC  H12R 4016   5.543   7.060   6.487 -0.0020  1.7325  2.1465
   30SAPC  C213 4017   5.365   7.120   6.615 -0.4859  0.4692 -0.4816
   30SAPC  H13R 4018   5.273   7.156   6.566  0.0324 -0.2915 -2.0495
   30SAPC  H13S 4019   5.426   7.205   6.652 -0.1486  0.3557 -0.7782
   30SAPC  C214 4020   5.350   7.013   6.729 -0.1852 -0.0250  0.1211
   30SAPC  H14R 4021   5.329   6.908   6.705  1.8520 -1.0146  2.4685
   30SAPC  C215 4022   5.373   7.043   6.858 -0.5612 -0.0983 -0.5315
   30SAPC  H15R 4023   5.362   6.978   6.947  1.0772 -0.3719 -0.5027
   30SAPC  C216 4024   5.414   7.182   6.916  0.7288 -0.6560  0.0582
   30SAPC  H16R 4025   5.407   7.258   6.835 -0.5335 -0.6973  0.1159
   30SAPC  H16S 4026   5.513   7.191   6.966  0.6163  2.8439 -0.2436
   30SAPC  C217 4027   5.327   7.241   7.023 -0.4278  0.8195 -0.7299
   30SAPC  H17R 4028   5.227   7.258   6.977 -0.2948 -0.1814 -1.4129
   30SAPC  H17S 4029   5.355   7.345   7.049 -0.1148  0.5006  0.1988
   30SAPC  C218 4030   5.331   7.155   7.148 -0.1219 -0.1882 -0.4673
   30SAPC  H18R 4031   5.428   7.109   7.174  0.9208  0.2379 -3.4217
   30SAPC  H18S 4032   5.261   7.069   7.141  0.6619 -0.9226  0.5563
   30SAPC  C219 4033   5.284   7.223   7.280 -0.1192  0.4918  0.6929
   30SAPC  H19R 4034   5.268   7.154   7.365 -2.6872  0.6404  0.3703
   30SAPC  H19S 4035   5.189   7.278   7.268 -2.3347 -2.5147  3.5424
   30SAPC  C220 4036   5.393   7.314   7.341  0.7336  0.1392 -1.0286
   30SAPC  H20R 4037   5.377   7.405   7.279  1.0655  0.2141 -1.0035
   30SAPC  H20S 4038   5.492   7.263   7.341 -1.0872 -3.6450 -2.9142
   30SAPC  H20T 4039   5.376   7.333   7.449  0.6123 -0.0017 -1.0226
   30SAPC   C33 4040   4.979   7.360   6.120 -0.5219 -0.0803  0.2654
   30SAPC   H3X 4041   4.875   7.364   6.159 -0.9953  2.3532 -1.0915
   30SAPC   H3Y 4042   4.993   7.452   6.059 -2.1244 -0.7728 -1.1920
   30SAPC   C34 4043   5.074   7.380   6.243 -0.3754 -0.1998  0.3001
   30SAPC   H4X 4044   5.179   7.377   6.206 -0.4006  1.3815  0.0589
   30SAPC   H4Y 4045   5.057   7.292   6.308 -3.8318  1.3181  1.5524
   30SAPC   C35 4046   5.052   7.519   6.307  0.0157 -0.5649 -0.3219
   30SAPC   H5X 4047   4.947   7.521   6.343 -0.1702 -0.9130 -0.8301
   30SAPC   H5Y 4048   5.065   7.594   6.226  1.6118  0.3270  0.7370
   30SAPC   C36 4049   5.150   7.565   6.419 -0.3122  0.4540  0.8674
   30SAPC   H6X 4050   5.105   7.654   6.467 -1.3253  0.4583 -0.0612
   30SAPC   H6Y 4051   5.242   7.594   6.364  0.6245 -1.5372  1.3204
   30SAPC   C37 4052   5.177   7.460   6.526 -0.2244  0.0589 -0.5026
   30SAPC   H7X 4053   5.232   7.377   6.476  3.3538  1.9847  0.0349
   30SAPC   H7Y 4054   5.077   7.427   6.563  0.0893  0.3879  0.6712
   30SAPC   C38 4055   5.268   7.508   6.640  0.5093 -1.0057 -0.4348
   30SAPC   H8X 4056   5.331   7.593   6.605  0.9939 -0.1274  2.4512
   30SAPC   H8Y 4057   5.336   7.425   6.667  0.1751 -1.1877 -0.1512
   30SAPC   C39 4058   5.188   7.565   6.758  0.8992  0.3249 -0.2084
   30SAPC   H9X 4059   5.116   7.491   6.799  0.8184 -0.8732 -2.4764
   30SAPC   H9Y 4060   5.121   7.641   6.714 -1.0464 -0.5863  1.1134
   30SAPC  C310 4061   5.273   7.632   6.872  0.1764 -0.5858  0.0178
   30SAPC  H10X 4062   5.309   7.726   6.824 -0.3486 -0.0537  0.6462
   30SAPC  H10Y 4063   5.346   7.551   6.894 -0.7474 -1.3943  0.1389
   30SAPC  C311 4064   5.196   7.665   7.002 -0.5027  0.2386  0.2288
   30SAPC  H11X 4065   5.141   7.572   7.027 -0.3118 -0.2019 -0.9865
   30SAPC  H11Y 4066   5.124   7.746   6.980 -0.5213  0.2107  0.1888
   30SAPC  C312 4067   5.283   7.720   7.111 -0.6154 -0.3728  0.3808
   30SAPC  H12X 4068   5.318   7.821   7.083  1.1507 -1.2528 -0.7181
   30SAPC  H12Y 4069   5.369   7.651   7.125 -1.1566 -0.7975  1.7196
   30SAPC  C313 4070   5.206   7.722   7.246  0.1260  0.1734 -0.0236
   30SAPC  H13X 4071   5.202   7.619   7.287  0.1936  0.0565 -0.3142
   30SAPC  H13Y 4072   5.106   7.771   7.237 -0.5312 -0.7676  1.7735
   30SAPC  C314 4073   5.260   7.815   7.354  0.1895 -0.8212 -0.2999
   30SAPC  H14X 4074   5.198   7.810   7.446  1.4509  1.3838  0.7056
   30SAPC  H14Y 4075   5.230   7.912   7.309 -2.1207 -0.7798  1.2694
   30SAPC  C315 4076   5.414   7.794   7.373  0.3552 -0.0949 -0.7746
   30SAPC  H15X 4077   5.460   7.885   7.417  1.1695  0.1957 -2.1850
   30SAPC  H15Y 4078   5.468   7.779   7.277  0.2733 -0.0844 -0.8228
   30SAPC  C316 4079   5.447   7.668   7.462  0.0919 -0.2476  0.0530
   30SAPC  H16X 4080   5.398   7.581   7.414 -2.0818  1.1061 -0.2349
   30SAPC  H16Y 4081   5.399   7.690   7.560  2.3491 -0.4930  1.2504
   30SAPC  C317 4082   5.588   7.632   7.487 -0.6556  0.5645  0.0310
   30SAPC  H17X 4083   5.642   7.598   7.396  0.2143  1.2841  0.2749
   30SAPC  H17Y 4084   5.593   7.541   7.550  4.3860  0.6969  0.0024
   30SAPC  C318 4085   5.670   7.749   7.556  0.3219 -0.6405 -1.0017
   30SAPC  H18X 4086   5.637   7.760   7.661  0.6902  0.0651 -0.9616
   30SAPC  H18Y 4087   5.648   7.841   7.498 -1.9625  0.1255  1.0107
   30SAPC  H18Z 4088   5.778   7.725   7.540  1.2111  2.2712  0.3982
   31SAPC     N 4089   6.909   1.601   5.459  0.3668 -0.2069 -0.4087
   31SAPC   C12 4090   6.921   1.449   5.482 -0.3826  0.5328 -0.9184
   31SAPC  H12A 4091   7.017   1.435   5.529  0.0670 -2.3164 -2.5589
   31SAPC  H12B 4092   6.924   1.400   5.386  0.5103 -0.4388 -0.3947
   31SAPC   C13 4093   6.979   1.643   5.330 -0.0084  0.6734  0.3232
   31SAPC  H13A 4094   6.937   1.596   5.242 -2.3628  1.8383  0.7750
   31SAPC  H13B 4095   6.962   1.749   5.320 -0.1679  0.6125 -0.0795
   31SAPC  H13C 4096   7.087   1.644   5.333  0.0138 -0.6120  0.2437
   31SAPC   C14 4097   6.766   1.640   5.445  0.5139  0.1729 -0.7372
   31SAPC  H14A 4098   6.726   1.589   5.359  0.5744  1.6835 -1.6770
   31SAPC  H14B 4099   6.703   1.601   5.525  0.4433  0.1472 -0.8050
   31SAPC  H14C 4100   6.749   1.747   5.443  1.3343  0.3185 -0.1179
   31SAPC   C15 4101   6.973   1.669   5.575  0.8707 -0.5689  0.0315
   31SAPC  H15A 4102   6.986   1.776   5.573 -0.2567 -0.3427  2.6778
   31SAPC  H15B 4103   6.920   1.644   5.665 -2.4289  1.5618 -1.2423
   31SAPC  H15C 4104   7.070   1.621   5.579  0.1241 -2.0978  0.4166
   31SAPC   C11 4105   6.816   1.358   5.557 -0.2902 -0.0014 -0.3100
   31SAPC  H11A 4106   6.844   1.252   5.541 -0.7968 -0.5924  2.4361
   31SAPC  H11B 4107   6.719   1.381   5.507  0.0178 -0.1279 -0.9620
   31SAPC     P 4108   6.908   1.339   5.795  0.0844 -0.0247  0.1532
   31SAPC   O13 4109   6.933   1.195   5.763  0.4168  0.5136  0.1203
   31SAPC   O14 4110   7.018   1.435   5.798 -0.1775 -0.1985  0.2007
   31SAPC   O12 4111   6.807   1.394   5.692  0.2679  0.3436  0.3199
   31SAPC   O11 4112   6.828   1.341   5.929 -0.6597  0.0319 -0.2228
   31SAPC    C1 4113   6.864   1.442   6.030  0.4812  0.6591  0.2245
   31SAPC    HA 4114   6.874   1.545   5.988  0.7250  0.4772 -0.1642
   31SAPC    HB 4115   6.780   1.445   6.103 -0.8714 -2.2007 -1.1342
   31SAPC    C2 4116   6.980   1.403   6.121 -0.0689  0.2749 -0.1951
   31SAPC    HS 4117   7.067   1.398   6.052  1.0976 -1.0216  1.3308
   31SAPC   O21 4118   6.945   1.275   6.186 -0.9034 -0.2289  0.5663
   31SAPC   C21 4119   7.045   1.225   6.244 -0.0891  0.1846  0.3061
   31SAPC   O22 4120   7.158   1.260   6.236  0.1960  0.7377 -0.3380
   31SAPC   C22 4121   7.005   1.088   6.316  0.3869  0.3786  0.0964
   31SAPC   H2R 4122   6.961   1.026   6.235  1.3720  0.0905 -0.2239
   31SAPC   H2S 4123   7.101   1.042   6.349 -0.4243 -1.7825 -0.4710
   31SAPC    C3 4124   7.006   1.514   6.223 -0.5427  0.2050 -0.0201
   31SAPC    HX 4125   7.023   1.606   6.162 -2.2248  0.2551 -0.4492
   31SAPC    HY 4126   7.101   1.491   6.275  0.1168  1.1592 -0.7772
   31SAPC   O31 4127   6.897   1.521   6.322  0.2994 -0.1133 -0.2660
   31SAPC   C31 4128   6.853   1.644   6.346 -0.3949  1.2299 -0.2205
   31SAPC   O32 4129   6.899   1.747   6.295 -0.6558  0.2806 -0.7249
   31SAPC   C32 4130   6.723   1.650   6.428 -0.0996 -0.3263 -0.2279
   31SAPC   H2X 4131   6.676   1.552   6.405 -0.5488 -0.8374  2.6986
   31SAPC   H2Y 4132   6.673   1.740   6.384  1.6029  0.0703 -1.4068
   31SAPC   C23 4133   6.916   1.108   6.434 -0.0587  0.0303  0.1673
   31SAPC   H3R 4134   6.909   1.013   6.491  0.7849  0.8886  1.7334
   31SAPC   H3S 4135   6.810   1.124   6.404  0.0792  3.1392  1.1005
   31SAPC   C24 4136   6.968   1.220   6.525 -0.0002  0.3044 -0.0051
   31SAPC   H4R 4137   6.897   1.242   6.608 -1.0434 -2.7365 -0.0234
   31SAPC   H4S 4138   6.951   1.310   6.462 -0.1924 -2.7202 -4.5187
   31SAPC   C25 4139   7.103   1.198   6.582 -0.3729 -0.2296  0.2045
   31SAPC   H5R 4140   7.124   1.091   6.598  0.6117 -0.1970 -0.7993
   31SAPC   C26 4141   7.201   1.283   6.609 -1.0612 -0.0554  0.1884
   31SAPC   H6R 4142   7.293   1.241   6.651 -0.7920  1.3024  0.9808
   31SAPC   C27 4143   7.203   1.437   6.585  0.5093  0.1864 -0.0211
   31SAPC   H7R 4144   7.157   1.460   6.487  1.3422  2.0103 -0.0044
   31SAPC   H7S 4145   7.309   1.465   6.571  0.9709 -1.9606 -1.0896
   31SAPC   C28 4146   7.126   1.527   6.682  0.3529 -0.6332  0.2937
   31SAPC   H8R 4147   7.052   1.483   6.750  0.0535 -1.1995 -0.4026
   31SAPC   C29 4148   7.131   1.661   6.675 -0.2615 -0.0953 -0.3980
   31SAPC   H9R 4149   7.074   1.720   6.748  0.2228  1.9020 -1.5956
   31SAPC  C210 4150   7.207   1.746   6.583  0.2420  0.0422  0.4572
   31SAPC  H10R 4151   7.255   1.690   6.500 -0.9671 -1.6059  0.8216
   31SAPC  H10S 4152   7.294   1.776   6.644  0.8667 -1.0009  0.0961
   31SAPC  C211 4153   7.128   1.864   6.542  0.7326 -0.0769  0.6685
   31SAPC  H11R 4154   7.086   1.848   6.441 -1.1644  1.2547  1.2321
   31SAPC  C212 4155   7.094   1.977   6.605 -0.4991 -0.0188  0.2142
   31SAPC  H12R 4156   7.041   2.055   6.549  1.2274  0.5086 -0.7151
   31SAPC  C213 4157   7.142   2.014   6.742  0.7495  0.4551  0.5154
   31SAPC  H13R 4158   7.200   2.108   6.732  0.4900  0.5308 -0.3212
   31SAPC  H13S 4159   7.208   1.934   6.781 -0.7775  0.3397  2.9445
   31SAPC  C214 4160   7.017   2.043   6.827  0.5306  0.3183 -0.1932
   31SAPC  H14R 4161   6.927   2.085   6.778  1.0192 -0.5351 -1.8519
   31SAPC  C215 4162   7.015   2.023   6.959  0.6735 -0.4287 -0.4511
   31SAPC  H15R 4163   6.926   2.053   7.016  1.4205 -0.7286  0.8850
   31SAPC  C216 4164   7.131   1.963   7.042  0.3511  0.0180  0.0717
   31SAPC  H16R 4165   7.204   1.908   6.979  0.8343  1.5013 -0.6876
   31SAPC  H16S 4166   7.097   1.894   7.122  1.9205  0.5114  1.1735
   31SAPC  C217 4167   7.207   2.085   7.105  0.6341 -0.2335  0.3891
   31SAPC  H17R 4168   7.266   2.058   7.195  4.9098  1.0523 -1.9187
   31SAPC  H17S 4169   7.138   2.166   7.138 -1.3875 -1.8496  0.1942
   31SAPC  C218 4170   7.295   2.147   7.003 -0.8062  0.5253  0.8714
   31SAPC  H18R 4171   7.234   2.198   6.926 -1.6516  0.8404  1.7323
   31SAPC  H18S 4172   7.362   2.069   6.962 -0.8193  1.3044 -0.6448
   31SAPC  C219 4173   7.376   2.266   7.066 -0.0581  0.0889  0.0388
   31SAPC  H19R 4174   7.305   2.349   7.085 -1.4384 -1.4339  1.8501
   31SAPC  H19S 4175   7.451   2.302   6.993  1.9348 -0.4118  1.8061
   31SAPC  C220 4176   7.443   2.236   7.198  0.0554 -0.4513 -0.3763
   31SAPC  H20R 4177   7.507   2.145   7.202 -0.0061 -0.4332  1.1555
   31SAPC  H20S 4178   7.364   2.228   7.276 -0.6740  2.2796 -0.7696
   31SAPC  H20T 4179   7.507   2.321   7.230 -1.1589  0.4718 -0.3562
   31SAPC   C33 4180   6.755   1.673   6.582 -0.1969  0.2259  0.1785
   31SAPC   H3X 4181   6.821   1.758   6.609 -0.8586  0.6196  0.5884
   31SAPC   H3Y 4182   6.800   1.581   6.625 -0.1778 -0.4512 -1.2638
   31SAPC   C34 4183   6.629   1.697   6.669 -0.6530 -0.2304  0.2544
   31SAPC   H4X 4184   6.535   1.659   6.623  0.1287 -0.0804 -1.4796
   31SAPC   H4Y 4185   6.616   1.807   6.684  2.7593  0.3860 -0.9100
   31SAPC   C35 4186   6.622   1.643   6.809  0.1065 -0.7968  0.1373
   31SAPC   H5X 4187   6.634   1.533   6.824 -0.2641 -0.7116  1.1347
   31SAPC   H5Y 4188   6.523   1.682   6.843  0.1520  0.0928 -0.7382
   31SAPC   C36 4189   6.725   1.696   6.916  0.1858 -0.0431 -0.2882
   31SAPC   H6X 4190   6.666   1.739   6.999  0.2515 -1.6082  0.5924
   31SAPC   H6Y 4191   6.767   1.790   6.875 -0.5747  1.0083  1.2984
   31SAPC   C37 4192   6.832   1.595   6.956 -0.2303 -0.0465  0.1323
   31SAPC   H7X 4193   6.877   1.547   6.866  0.5284  0.4076  0.2659
   31SAPC   H7Y 4194   6.785   1.515   7.017 -0.1989 -1.1379 -1.2379
   31SAPC   C38 4195   6.948   1.653   7.036  0.5876  0.2862  0.4069
   31SAPC   H8X 4196   6.912   1.695   7.133 -0.2742  1.3787 -0.3684
   31SAPC   H8Y 4197   6.970   1.749   6.984 -0.2609  0.1256 -0.2431
   31SAPC   C39 4198   7.073   1.566   7.047 -0.4580  0.2413 -0.4281
   31SAPC   H9X 4199   7.110   1.555   6.943  0.6601  0.8472 -0.1073
   31SAPC   H9Y 4200   7.037   1.471   7.091 -1.8061  0.7086 -0.4970
   31SAPC  C310 4201   7.185   1.615   7.142 -0.1764 -0.7123  0.3257
   31SAPC  H10X 4202   7.128   1.650   7.231  0.4054  0.4768  0.2419
   31SAPC  H10Y 4203   7.234   1.707   7.103 -0.9464  0.2515  1.5482
   31SAPC  C311 4204   7.278   1.501   7.185 -0.4928 -0.6947 -0.5865
   31SAPC  H11X 4205   7.336   1.473   7.094  0.4146  1.2766 -0.6469
   31SAPC  H11Y 4206   7.226   1.411   7.223  2.5299 -2.0149  0.5775
   31SAPC  C312 4207   7.387   1.543   7.283  0.4060  0.0059 -0.3872
   31SAPC  H12X 4208   7.330   1.569   7.375 -0.1847 -0.6591 -0.5537
   31SAPC  H12Y 4209   7.440   1.633   7.247  2.2914 -0.0410  2.1713
   31SAPC  C313 4210   7.482   1.428   7.297  0.6439 -0.0627  0.4044
   31SAPC  H13X 4211   7.577   1.465   7.343  1.6739 -1.9026 -0.1979
   31SAPC  H13Y 4212   7.497   1.389   7.194 -0.0900  0.6659  0.0145
   31SAPC  C314 4213   7.435   1.314   7.378 -0.4806  0.0208 -0.6578
   31SAPC  H14X 4214   7.511   1.234   7.361 -0.7443 -0.4023  0.1080
   31SAPC  H14Y 4215   7.336   1.270   7.356 -1.6849  2.0699  0.5527
   31SAPC  C315 4216   7.454   1.352   7.522 -0.5770  0.3420  0.0771
   31SAPC  H15X 4217   7.369   1.415   7.557 -0.6351  0.8576 -0.9687
   31SAPC  H15Y 4218   7.545   1.411   7.546  0.7973 -1.6713 -0.1189
   31SAPC  C316 4219   7.439   1.229   7.622 -0.1270 -0.7986  0.1486
   31SAPC  H16X 4220   7.506   1.143   7.598  0.7749 -0.1997  0.4902
   31SAPC  H16Y 4221   7.333   1.199   7.611 -1.0134  2.4333 -0.4790
   31SAPC  C317 4222   7.491   1.252   7.758  0.3539  0.1220 -0.0126
   31SAPC  H17X 4223   7.590   1.303   7.756  0.5766 -0.3059  0.0942
   31SAPC  H17Y 4224   7.508   1.155   7.808  0.0839  0.7227  1.2532
   31SAPC  C318 4225   7.399   1.342   7.839 -0.4267 -0.3534 -0.2060
   31SAPC  H18X 4226   7.294   1.307   7.828 -1.3790  1.2623  3.0763
   31SAPC  H18Y 4227   7.405   1.448   7.808  1.0513  0.3777  2.4452
   31SAPC  H18Z 4228   7.421   1.342   7.948  0.1559  0.5084 -0.3234
   32SAPC     N 4229   0.099   1.099   5.817 -0.0260  0.2525  0.2923
   32SAPC   C12 4230   0.043   1.092   5.956 -0.4377 -0.1548 -0.5759
   32SAPC  H12A 4231  -0.063   1.115   5.948 -0.3802  0.2905 -0.0734
   32SAPC  H12B 4232   0.099   1.166   6.011 -1.2612  0.1276 -0.0961
   32SAPC   C13 4233   0.051   1.216   5.737 -0.7494  0.4103  0.3588
   32SAPC  H13A 4234  -0.053   1.213   5.708 -0.3149  2.1659 -1.4256
   32SAPC  H13B 4235   0.062   1.311   5.787 -0.4422  0.2264  0.6415
   32SAPC  H13C 4236   0.104   1.217   5.644  0.7231  0.4443  1.1826
   32SAPC   C14 4237   0.248   1.108   5.817  0.5955 -0.5101 -0.1718
   32SAPC  H14A 4238   0.286   1.021   5.870 -3.7525 -1.4624  1.5592
   32SAPC  H14B 4239   0.294   1.094   5.720  0.1777 -2.1433 -0.1537
   32SAPC  H14C 4240   0.297   1.194   5.861  0.8769 -1.9106  2.3245
   32SAPC   C15 4241   0.062   0.982   5.732 -0.0375 -0.4379  0.2674
   32SAPC  H15A 4242   0.133   0.969   5.652  0.8274 -0.8097  1.0925
   32SAPC  H15B 4243   0.075   0.889   5.785 -0.8986 -1.5840 -1.5112
   32SAPC  H15C 4244  -0.042   0.974   5.705 -0.3403 -0.3500  1.3768
   32SAPC   C11 4245   0.054   0.957   6.033 -0.6269 -0.7874 -0.4960
   32SAPC  H11A 4246   0.031   0.979   6.139  0.7339 -0.7364 -0.2101
   32SAPC  H11B 4247   0.160   0.925   6.023  0.5678  2.0098  2.3547
   32SAPC     P 4248  -0.006   0.709   5.969  0.2604 -0.1514  0.2971
   32SAPC   O13 4249  -0.116   0.638   5.900 -0.0434 -0.0696  0.0595
   32SAPC   O14 4250   0.125   0.698   5.906  0.0441  0.3966  0.8269
   32SAPC   O12 4251  -0.041   0.862   5.990  0.8154 -0.3503  0.0689
   32SAPC   O11 4252   0.011   0.663   6.114  0.6420 -0.2998  0.1604
   32SAPC    C1 4253  -0.090   0.629   6.213 -0.8486  0.3818  0.3034
   32SAPC    HA 4254  -0.064   0.670   6.313 -0.0024 -1.5945  0.9270
   32SAPC    HB 4255  -0.187   0.677   6.189 -0.4567  0.9926 -0.0821
   32SAPC    C2 4256  -0.096   0.474   6.218  0.1585  0.4564  0.2344
   32SAPC    HS 4257  -0.156   0.441   6.132 -3.6832  0.1687  2.8927
   32SAPC   O21 4258  -0.158   0.438   6.339 -0.0842  0.7378 -0.9836
   32SAPC   C21 4259  -0.284   0.448   6.348 -0.0115 -0.4709 -0.1593
   32SAPC   O22 4260  -0.365   0.489   6.263 -0.3578  0.1404  0.4019
   32SAPC   C22 4261  -0.332   0.428   6.491 -0.5091  0.4539  0.7221
   32SAPC   H2R 4262  -0.412   0.351   6.493  0.0017 -0.0851  0.3437
   32SAPC   H2S 4263  -0.248   0.386   6.550 -0.1669  0.0915 -0.0320
   32SAPC    C3 4264   0.043   0.414   6.215  0.2048  0.1591 -0.0761
   32SAPC    HX 4265   0.088   0.437   6.116  0.9177  0.3406  0.2911
   32SAPC    HY 4266   0.034   0.303   6.226  3.9250 -0.1913  0.0417
   32SAPC   O31 4267   0.127   0.463   6.320 -0.1477 -0.3178 -0.2775
   32SAPC   C31 4268   0.254   0.450   6.305 -0.5791 -0.8431 -0.1130
   32SAPC   O32 4269   0.309   0.436   6.198  0.0965  0.1555  0.8468
   32SAPC   C32 4270   0.317   0.456   6.440 -0.0355  0.0626 -0.0902
   32SAPC   H2X 4271   0.315   0.356   6.488 -0.7562 -0.6216 -1.4947
   32SAPC   H2Y 4272   0.276   0.538   6.502  0.1132 -0.2900  0.4724
   32SAPC   C23 4273  -0.377   0.560   6.568  0.6188  0.0251  0.0897
   32SAPC   H3R 4274  -0.462   0.524   6.630  1.0179 -0.2082  0.5050
   32SAPC   H3S 4275  -0.415   0.625   6.486 -0.5176  0.7335  1.1569
   32SAPC   C24 4276  -0.274   0.617   6.654 -0.3195 -0.1166  0.5859
   32SAPC   H4R 4277  -0.234   0.537   6.720  1.2462  0.3043  0.1634
   32SAPC   H4S 4278  -0.319   0.698   6.716  1.1013  1.4403 -0.3944
   32SAPC   C25 4279  -0.168   0.679   6.579 -0.6454 -0.4558  0.3568
   32SAPC   H5R 4280  -0.214   0.744   6.503 -2.5507  0.1628  1.9879
   32SAPC   C26 4281  -0.034   0.657   6.588 -0.2864  0.2353  0.0422
   32SAPC   H6R 4282   0.034   0.719   6.528 -1.3537  0.9783 -0.4212
   32SAPC   C27 4283   0.042   0.564   6.682 -0.2062  0.0867 -0.6613
   32SAPC   H7R 4284  -0.002   0.567   6.784 -0.6176 -0.9378 -0.8001
   32SAPC   H7S 4285   0.140   0.610   6.703 -2.0086  3.0467  1.7781
   32SAPC   C28 4286   0.044   0.423   6.641 -0.0788 -0.4770 -0.0839
   32SAPC   H8R 4287  -0.013   0.390   6.553 -1.9853  0.0459  0.9356
   32SAPC   C29 4288   0.100   0.329   6.715 -0.0680 -0.5975  0.4609
   32SAPC   H9R 4289   0.097   0.231   6.665  0.8009 -0.9304  1.0501
   32SAPC  C210 4290   0.186   0.334   6.832  0.5368  0.4076 -0.3912
   32SAPC  H10R 4291   0.131   0.296   6.921 -2.3125 -2.1262 -3.0822
   32SAPC  H10S 4292   0.220   0.436   6.858 -1.6878  0.4014  2.8040
   32SAPC  C211 4293   0.309   0.254   6.809  0.2207 -0.4058  0.2692
   32SAPC  H11R 4294   0.393   0.306   6.759  0.2036 -0.9367 -0.3133
   32SAPC  C212 4295   0.340   0.131   6.851 -0.1040 -0.3974  0.0217
   32SAPC  H12R 4296   0.434   0.088   6.815  0.6558  1.8049 -0.7328
   32SAPC  C213 4297   0.247   0.040   6.927  0.0970  0.0704 -0.3221
   32SAPC  H13R 4298   0.293  -0.062   6.921 -3.6971 -1.6399 -1.7188
   32SAPC  H13S 4299   0.140   0.039   6.898 -1.3746 -3.6320  4.6034
   32SAPC  C214 4300   0.235   0.075   7.074  0.2017 -0.6593  0.2798
   32SAPC  H14R 4301   0.265   0.180   7.089  0.6899 -0.6748 -0.5369
   32SAPC  C215 4302   0.179   0.004   7.174  0.5076 -0.7410  0.3192
   32SAPC  H15R 4303   0.195   0.044   7.276 -2.6087  1.4548  0.0118
   32SAPC  C216 4304   0.118  -0.137   7.170  0.6643  0.0854  0.5058
   32SAPC  H16R 4305   0.181  -0.200   7.103 -0.2772 -1.7615  1.3215
   32SAPC  H16S 4306   0.017  -0.141   7.124  0.1202 -2.0464  1.8204
   32SAPC  C217 4307   0.130  -0.208   7.304 -0.0949  0.0381  0.3970
   32SAPC  H17R 4308   0.234  -0.207   7.344 -0.2822  2.3872  0.8991
   32SAPC  H17S 4309   0.115  -0.317   7.286 -5.3800  0.6087  0.7520
   32SAPC  C218 4310   0.052  -0.154   7.421  0.5190  0.0863  0.9094
   32SAPC  H18R 4311  -0.051  -0.144   7.380  1.4118 -1.3063 -1.8613
   32SAPC  H18S 4312   0.096  -0.056   7.445 -1.7160  2.1444 -2.8445
   32SAPC  C219 4313   0.055  -0.257   7.530  0.5837  0.0161  0.8678
   32SAPC  H19R 4314   0.163  -0.272   7.552  0.6061 -0.9836  0.1167
   32SAPC  H19S 4315   0.008  -0.355   7.508 -1.3457  0.6484  2.0282
   32SAPC  C220 4316  -0.018  -0.215   7.660 -0.3447  0.0717 -0.0285
   32SAPC  H20R 4317   0.023  -0.116   7.688  0.3035 -0.0878 -0.3979
   32SAPC  H20S 4318   0.009  -0.283   7.743 -0.5683 -0.0093 -0.0234
   32SAPC  H20T 4319  -0.129  -0.210   7.655 -0.3479  1.2373  0.9683
   32SAPC   C33 4320   0.464   0.493   6.423 -0.4876 -0.3387 -0.1226
   32SAPC   H3X 4321   0.464   0.579   6.351  0.2678  0.9070  1.3414
   32SAPC   H3Y 4322   0.523   0.410   6.378  0.0551  0.4516 -0.8857
   32SAPC   C34 4323   0.536   0.528   6.555 -0.2628  0.0943  0.0578
   32SAPC   H4X 4324   0.638   0.560   6.526 -0.5506 -0.4812 -1.6555
   32SAPC   H4Y 4325   0.532   0.434   6.615  1.0592  0.3308  0.5348
   32SAPC   C35 4326   0.479   0.644   6.632 -0.5335 -0.5297 -0.4217
   32SAPC   H5X 4327   0.534   0.659   6.727  0.4165 -0.8969 -0.9038
   32SAPC   H5Y 4328   0.378   0.616   6.669 -0.2884  0.6409  1.2216
   32SAPC   C36 4329   0.465   0.772   6.544  0.7194  0.3514  0.7755
   32SAPC   H6X 4330   0.394   0.758   6.460 -0.6420  2.3674  1.5552
   32SAPC   H6Y 4331   0.561   0.805   6.499 -0.1120  1.7363 -0.0100
   32SAPC   C37 4332   0.430   0.888   6.643  0.4652  0.8285 -0.0131
   32SAPC   H7X 4333   0.427   0.984   6.589  1.2883  1.9965  1.9727
   32SAPC   H7Y 4334   0.509   0.900   6.720 -0.3575  2.3462  0.6109
   32SAPC   C38 4335   0.296   0.860   6.710 -0.0546  0.1040  0.4847
   32SAPC   H8X 4336   0.302   0.779   6.786  1.0130 -0.2270  0.0427
   32SAPC   H8Y 4337   0.225   0.816   6.636 -0.2579 -2.3097  2.0583
   32SAPC   C39 4338   0.225   0.982   6.754  0.3561 -1.1283 -0.2475
   32SAPC   H9X 4339   0.205   1.060   6.678  1.0244  0.1580  0.8770
   32SAPC   H9Y 4340   0.283   1.025   6.839  2.1547 -3.4374 -0.2409
   32SAPC  C310 4341   0.084   0.942   6.809 -0.4954 -0.1682  0.2837
   32SAPC  H10X 4342   0.093   0.854   6.875  0.6206 -1.0220 -0.9812
   32SAPC  H10Y 4343   0.011   0.909   6.731  0.9000 -0.4171 -0.9491
   32SAPC  C311 4344   0.010   1.054   6.886 -0.4194 -0.3478  0.5182
   32SAPC  H11X 4345   0.017   1.152   6.835 -0.7962 -0.1934  0.7622
   32SAPC  H11Y 4346   0.065   1.070   6.982  1.6758  1.8229 -0.9928
   32SAPC  C312 4347  -0.134   1.014   6.935 -0.3664 -0.0250  0.3888
   32SAPC  H12X 4348  -0.132   0.926   7.003  3.9121 -0.3601 -0.0489
   32SAPC  H12Y 4349  -0.204   0.999   6.850 -2.4792  1.0334  1.8843
   32SAPC  C313 4350  -0.210   1.134   7.009 -0.2428  1.1919  0.4579
   32SAPC  H13X 4351  -0.225   1.205   6.926 -3.3160 -0.3174 -0.3443
   32SAPC  H13Y 4352  -0.144   1.176   7.088 -0.0221 -0.9750  1.4921
   32SAPC  C314 4353  -0.348   1.086   7.065  0.0076  0.8472 -0.0657
   32SAPC  H14X 4354  -0.394   1.035   6.978  0.8244 -0.3318  0.1840
   32SAPC  H14Y 4355  -0.406   1.177   7.090 -0.6557  0.4162 -0.0292
   32SAPC  C315 4356  -0.339   0.985   7.177  0.4299 -0.8845 -0.0164
   32SAPC  H15X 4357  -0.300   0.887   7.145  2.1088  0.2770 -1.5751
   32SAPC  H15Y 4358  -0.441   0.965   7.218  0.2926  0.2010  0.1935
   32SAPC  C316 4359  -0.263   1.044   7.309  0.3609 -0.0602 -0.1427
   32SAPC  H16X 4360  -0.323   1.130   7.345 -0.4209 -1.1262  1.1511
   32SAPC  H16Y 4361  -0.171   1.094   7.273  1.2774 -2.2971 -0.9971
   32SAPC  C317 4362  -0.254   0.939   7.421 -0.2487 -0.1642 -0.2708
   32SAPC  H17X 4363  -0.339   0.870   7.401 -0.9368  0.6091 -0.0242
   32SAPC  H17Y 4364  -0.261   0.995   7.517 -0.3936 -1.6825  0.6166
   32SAPC  C318 4365  -0.131   0.845   7.424  0.2146  0.4950  0.0324
   32SAPC  H18X 4366  -0.132   0.773   7.509  0.9143 -1.3286 -1.4552
   32SAPC  H18Y 4367  -0.036   0.897   7.446  1.5653 -1.8846  0.0027
   32SAPC  H18Z 4368  -0.106   0.800   7.326  0.1000  1.5394 -0.4852
   33POPC     N 4369   3.877   3.039   9.564  0.2834 -0.7828  0.4500
   33POPC   C12 4370   3.879   3.190   9.565 -0.3620 -0.3283 -0.1582
   33POPC  H12A 4371   3.965   3.227   9.511  0.6936 -1.3602  0.8032
   33POPC  H12B 4372   3.889   3.211   9.670  1.6743 -2.2981  0.0797
   33POPC   C13 4373   3.758   2.994   9.644  0.2122  0.0601  0.3170
   33POPC  H13A 4374   3.771   3.006   9.751 -0.8156  1.0453  0.3377
   33POPC  H13B 4375   3.671   3.044   9.605  1.9858  1.5541 -1.8428
   33POPC  H13C 4376   3.739   2.889   9.627  1.0529 -0.3362  1.7241
   33POPC   C14 4377   3.874   2.988   9.425 -0.4927  0.5892  0.1013
   33POPC  H14A 4378   3.772   2.974   9.393 -0.3632 -0.6490  0.2049
   33POPC  H14B 4379   3.937   3.041   9.355 -1.1445  2.4126  0.8623
   33POPC  H14C 4380   3.918   2.890   9.419 -0.7451  0.5665 -1.4623
   33POPC   C15 4381   3.991   2.971   9.628 -0.0883 -0.1908 -0.0412
   33POPC  H15A 4382   3.974   2.864   9.625 -1.0810 -0.1232  2.5316
   33POPC  H15B 4383   3.998   2.997   9.732 -0.7938 -2.2682  0.5483
   33POPC  H15C 4384   4.086   3.011   9.593 -0.4409 -0.0242 -0.8269
   33POPC   C11 4385   3.752   3.263   9.509 -0.4834 -0.5675  0.1818
   33POPC  H11A 4386   3.663   3.230   9.566 -1.3204  2.0335  0.4420
   33POPC  H11B 4387   3.747   3.226   9.404 -0.4276 -0.4651  0.1430
   33POPC     P 4388   3.851   3.474   9.635 -0.0275  0.6172  0.0264
   33POPC   O13 4389   3.825   3.400   9.764  0.3736  0.3192  0.7062
   33POPC   O14 4390   3.813   3.615   9.630  0.2728 -0.1274  0.5104
   33POPC   O12 4391   3.781   3.399   9.519  0.2237 -0.3332  0.1297
   33POPC   O11 4392   4.011   3.460   9.608  1.2674 -0.3573  0.8319
   33POPC    C1 4393   4.072   3.545   9.512  0.5677 -0.2683  0.1302
   33POPC    HA 4394   4.008   3.628   9.478  1.1761  0.5673  0.9765
   33POPC    HB 4395   4.148   3.608   9.563 -1.6769  1.2211  1.7263
   33POPC    C2 4396   4.140   3.465   9.408  0.1814 -0.3463 -0.2278
   33POPC    HS 4397   4.199   3.536   9.346  0.7327 -0.5725  0.0435
   33POPC   O21 4398   4.045   3.401   9.322  0.1635 -0.0196  0.8265
   33POPC   C21 4399   3.984   3.486   9.244 -0.0073 -0.4914 -0.3595
   33POPC   O22 4400   4.002   3.609   9.243 -0.3788  0.2997  0.1433
   33POPC   C22 4401   3.894   3.418   9.140  0.6027 -0.4349 -0.1929
   33POPC   H2R 4402   3.814   3.359   9.189 -0.4919 -0.4328 -1.9306
   33POPC   H2S 4403   3.946   3.347   9.073  0.1433 -2.1045  1.1767
   33POPC    C3 4404   4.238   3.358   9.470  0.5596 -0.1260  0.5444
   33POPC    HX 4405   4.173   3.282   9.518 -1.7566  0.2742 -1.8233
   33POPC    HY 4406   4.307   3.410   9.540 -0.9062  0.7698  1.3508
   33POPC   O31 4407   4.316   3.296   9.367 -0.0702 -0.7459 -0.3262
   33POPC   C31 4408   4.410   3.376   9.321 -0.0358 -0.1494  0.8530
   33POPC   O32 4409   4.421   3.495   9.344 -0.3564  0.0600  0.3543
   33POPC   C32 4410   4.488   3.308   9.211  0.0051 -0.0545 -0.1056
   33POPC   H2X 4411   4.416   3.270   9.136 -0.5240  1.0286 -0.1608
   33POPC   H2Y 4412   4.554   3.249   9.278 -0.0831  1.1702  1.0937
   33POPC   C23 4413   3.826   3.520   9.038 -0.4865  0.4131 -0.5602
   33POPC   H3R 4414   3.895   3.530   8.952  0.3489 -3.1686 -0.3657
   33POPC   H3S 4415   3.808   3.624   9.074  2.1274  0.9892 -0.8575
   33POPC   C24 4416   3.690   3.488   8.984  0.1909  0.5148  0.3181
   33POPC   H4R 4417   3.648   3.568   8.920  0.3182  0.7101  0.4814
   33POPC   H4S 4418   3.618   3.482   9.069 -0.0358  2.8316  0.3123
   33POPC   C25 4419   3.696   3.348   8.906  0.1685  0.0891 -0.1627
   33POPC   H5R 4420   3.715   3.265   8.978  1.2632  1.5574  1.2677
   33POPC   H5S 4421   3.778   3.349   8.832 -0.0952 -4.0570 -0.6694
   33POPC   C26 4422   3.565   3.323   8.822  0.1670  0.5864  0.3101
   33POPC   H6R 4423   3.594   3.272   8.727  0.4028 -0.5972  1.0134
   33POPC   H6S 4424   3.517   3.418   8.788 -0.6612  0.1900  0.3839
   33POPC   C27 4425   3.454   3.244   8.880 -0.0043  0.0663 -0.1683
   33POPC   H7R 4426   3.405   3.306   8.958  0.6172  1.5356 -0.9395
   33POPC   H7S 4427   3.494   3.149   8.923  0.4565  0.1630 -0.3865
   33POPC   C28 4428   3.345   3.194   8.779 -0.4716  0.7986  0.3411
   33POPC   H8R 4429   3.256   3.150   8.829  0.1193 -1.3532 -0.4323
   33POPC   H8S 4430   3.386   3.106   8.725  1.0632  1.2505  0.7300
   33POPC   C29 4431   3.295   3.302   8.684 -0.0895  0.0068 -0.0687
   33POPC   H91 4432   3.225   3.376   8.728  0.6345  1.0855 -0.7087
   33POPC  C210 4433   3.323   3.313   8.549 -0.2610  0.3433 -0.3919
   33POPC  H101 4434   3.274   3.387   8.485  1.2592  2.3239  0.7009
   33POPC  C211 4435   3.415   3.216   8.474  0.6018 -0.6500 -0.9750
   33POPC  H11R 4436   3.350   3.133   8.440 -1.0220  0.6507 -1.0826
   33POPC  H11S 4437   3.496   3.175   8.539  0.8434  1.7338  0.2805
   33POPC  C212 4438   3.493   3.282   8.353  0.3371  0.0973  0.4392
   33POPC  H12R 4439   3.552   3.192   8.323  0.6248 -0.1503  1.6780
   33POPC  H12S 4440   3.561   3.364   8.384  1.1085 -0.0336 -0.8938
   33POPC  C213 4441   3.420   3.318   8.221 -0.6225 -0.9489  0.2921
   33POPC  H13R 4442   3.385   3.423   8.212  0.3455 -0.5878  0.6419
   33POPC  H13S 4443   3.333   3.249   8.220 -2.4213  1.2832  0.1807
   33POPC  C214 4444   3.511   3.294   8.093 -0.9455  0.3828  0.4066
   33POPC  H14R 4445   3.451   3.315   8.002  0.7499 -0.4726 -0.9557
   33POPC  H14S 4446   3.545   3.189   8.102  4.0484  1.6324 -2.1453
   33POPC  C215 4447   3.633   3.382   8.082 -0.2837  0.4744  0.7271
   33POPC  H15R 4448   3.685   3.385   8.180 -0.4916  2.2863  0.7893
   33POPC  H15S 4449   3.602   3.485   8.056  0.6958  0.6991  0.4260
   33POPC  C216 4450   3.741   3.331   7.985 -0.5378  0.4806  0.0915
   33POPC  H16R 4451   3.678   3.321   7.893 -0.5169 -0.4567  0.1794
   33POPC  H16S 4452   3.777   3.233   8.022  2.1673  1.7862  1.0085
   33POPC  C217 4453   3.860   3.423   7.979  0.4508 -0.0779  0.5085
   33POPC  H17R 4454   3.901   3.430   8.083  0.5821 -0.3966  0.4778
   33POPC  H17S 4455   3.833   3.522   7.935 -0.8484 -0.2250  0.9554
   33POPC  C218 4456   3.979   3.376   7.895  0.6664  0.4590  0.0020
   33POPC  H18R 4457   3.963   3.380   7.785  2.1157 -0.4612 -0.2558
   33POPC  H18S 4458   3.992   3.269   7.924  1.3501  0.5051 -0.1349
   33POPC  H18T 4459   4.067   3.439   7.920 -0.3033  1.4339  1.0359
   33POPC   C33 4460   4.580   3.417   9.135 -0.0073 -0.4591 -0.1168
   33POPC   H3X 4461   4.635   3.471   9.216 -0.0127 -1.1070  0.3217
   33POPC   H3Y 4462   4.503   3.488   9.097  0.1811 -0.2030 -0.0259
   33POPC   C34 4463   4.661   3.352   9.031  0.3428 -0.0571  0.2989
   33POPC   H4X 4464   4.711   3.424   8.963 -1.2658 -0.1100 -0.9673
   33POPC   H4Y 4465   4.599   3.299   8.956 -0.0359 -1.0377  1.2973
   33POPC   C35 4466   4.763   3.252   9.081 -0.2227  0.2391 -0.1934
   33POPC   H5X 4467   4.801   3.192   8.996  0.1693 -0.4461  0.4625
   33POPC   H5Y 4468   4.711   3.198   9.163  0.9496 -0.0460  0.3727
   33POPC   C36 4469   4.888   3.321   9.151 -0.1105  0.0496  0.7458
   33POPC   H6X 4470   4.852   3.381   9.237  0.4270  0.5808  0.6050
   33POPC   H6Y 4471   4.946   3.396   9.093  0.9668 -0.9545  0.5252
   33POPC   C37 4472   4.984   3.209   9.208 -0.0393 -0.0408  0.1453
   33POPC   H7X 4473   4.926   3.136   9.268 -0.8805  0.6053  0.1346
   33POPC   H7Y 4474   5.070   3.251   9.264  0.4939  0.7145 -1.2187
   33POPC   C38 4475   5.070   3.133   9.106  0.4108 -0.0370  0.3482
   33POPC   H8X 4476   5.004   3.125   9.017 -1.7350 -0.1544  1.8907
   33POPC   H8Y 4477   5.106   3.038   9.151 -0.5286  0.5409  2.3829
   33POPC   C39 4478   5.189   3.217   9.054  0.0874 -0.2480  0.4147
   33POPC   H9X 4479   5.256   3.257   9.133 -0.2930  1.3518 -0.0511
   33POPC   H9Y 4480   5.142   3.301   8.999  1.6208  0.9049  0.8415
   33POPC  C310 4481   5.280   3.140   8.956 -0.7812 -0.7507 -0.0507
   33POPC  H10X 4482   5.227   3.047   8.924 -3.8212  0.4374  1.2987
   33POPC  H10Y 4483   5.365   3.097   9.015  1.0718  1.0918 -1.3248
   33POPC  C311 4484   5.332   3.211   8.833  0.1230  0.2553 -0.5040
   33POPC  H11X 4485   5.416   3.281   8.852  1.2941 -1.3571  0.3916
   33POPC  H11Y 4486   5.259   3.262   8.766  2.0397  0.4910 -2.4580
   33POPC  C312 4487   5.396   3.102   8.737  0.9182 -0.3755 -0.1343
   33POPC  H12X 4488   5.317   3.032   8.704 -0.9874  1.0515  1.2715
   33POPC  H12Y 4489   5.473   3.043   8.791  0.3417 -0.7795  0.2471
   33POPC  C313 4490   5.466   3.166   8.617 -0.7258 -0.5176  0.2222
   33POPC  H13X 4491   5.506   3.080   8.558 -0.2608 -1.5727  2.0149
   33POPC  H13Y 4492   5.554   3.223   8.654 -0.4916  0.1947 -1.3733
   33POPC  C314 4493   5.369   3.250   8.535  0.9290  0.3253 -0.2033
   33POPC  H14X 4494   5.361   3.355   8.570  3.3470  0.8036 -0.9538
   33POPC  H14Y 4495   5.269   3.202   8.537  0.8916  0.4551  0.8922
   33POPC  C315 4496   5.429   3.271   8.397  0.3167 -0.9256 -0.5257
   33POPC  H15X 4497   5.425   3.177   8.338 -2.9088 -1.5561  0.6004
   33POPC  H15Y 4498   5.537   3.297   8.399  0.0341  0.1806  1.7472
   33POPC  C316 4499   5.344   3.372   8.309 -0.3602 -0.2909  0.1317
   33POPC  H16X 4500   5.345   3.475   8.349 -3.4798 -0.8188  1.7517
   33POPC  H16Y 4501   5.244   3.323   8.304 -0.0497 -0.8702 -0.5244
   33POPC  H16Z 4502   5.389   3.376   8.208  2.0049 -0.1423  1.1707
   34POPC     N 4503   4.169   4.929   9.853 -0.4571 -1.0101 -0.6815
   34POPC   C12 4504   4.220   4.870   9.981  0.1244  0.3780 -0.1692
   34POPC  H12A 4505   4.209   4.946  10.058  1.1275 -1.4732  1.8829
   34POPC  H12B 4506   4.327   4.853   9.978  0.3226  1.6323 -0.5904
   34POPC   C13 4507   4.259   5.041   9.811 -0.1545 -0.4787  0.3527
   34POPC  H13A 4508   4.286   5.104   9.895 -0.9591 -0.8125  0.8684
   34POPC  H13B 4509   4.354   5.004   9.777 -0.4901  1.4908 -2.9067
   34POPC  H13C 4510   4.209   5.101   9.736  1.3464 -1.3761 -1.3723
   34POPC   C14 4511   4.191   4.839   9.743  0.2534 -0.0748  0.2632
   34POPC  H14A 4512   4.152   4.739   9.756  0.0343  0.1668  1.5184
   34POPC  H14B 4513   4.162   4.894   9.654  0.1408 -0.5325  0.0119
   34POPC  H14C 4514   4.292   4.805   9.729  0.8416  1.1343  1.4554
   34POPC   C15 4515   4.031   4.987   9.872 -0.1121  0.0329  0.1503
   34POPC  H15A 4516   4.001   5.048   9.787 -0.1338 -1.0693 -0.6437
   34POPC  H15B 4517   4.024   5.038   9.967  0.6917 -1.1543  0.8435
   34POPC  H15C 4518   3.956   4.910   9.882 -0.4469  0.7456  4.0618
   34POPC   C11 4519   4.166   4.735  10.030 -0.7912  0.0291 -0.2873
   34POPC  H11A 4520   4.055   4.730  10.043 -0.8136  1.9200  0.3314
   34POPC  H11B 4521   4.212   4.722  10.130 -1.3955  0.5242  0.0629
   34POPC     P 4522   4.121   4.502   9.913  0.2351 -0.1344 -0.4724
   34POPC   O13 4523   4.074   4.466  10.052 -0.1655 -0.1575  0.0615
   34POPC   O14 4524   4.204   4.406   9.834  0.5535 -0.1887  0.1693
   34POPC   O12 4525   4.216   4.638   9.935 -0.3528 -0.1934  0.3335
   34POPC   O11 4526   4.003   4.552   9.829 -0.8077  0.4581  0.7762
   34POPC    C1 4527   3.906   4.461   9.777  0.1939 -0.2870 -0.4214
   34POPC    HA 4528   3.809   4.514   9.766  0.6315  0.2242 -1.9451
   34POPC    HB 4529   3.888   4.377   9.847  1.2134 -0.7045 -0.6507
   34POPC    C2 4530   3.940   4.395   9.637  0.8071 -0.4029 -0.1833
   34POPC    HS 4531   4.048   4.366   9.631  0.7478 -0.4769 -0.9158
   34POPC   O21 4532   3.903   4.479   9.538 -0.2517  0.0351 -0.1359
   34POPC   C21 4533   3.983   4.588   9.525 -0.1363  0.9252  0.3866
   34POPC   O22 4534   4.103   4.583   9.543 -0.2839 -0.0866  0.2063
   34POPC   C22 4535   3.907   4.715   9.484  0.1792 -0.0028  0.1105
   34POPC   H2R 4536   3.990   4.786   9.503  0.9324 -1.0136  0.6106
   34POPC   H2S 4537   3.834   4.730   9.568  1.0825 -0.2814  0.9546
   34POPC    C3 4538   3.852   4.274   9.611  0.8223  0.1397  0.2074
   34POPC    HX 4539   3.884   4.185   9.671 -0.9470 -0.9427 -0.4158
   34POPC    HY 4540   3.855   4.261   9.501  2.0869  1.0713  0.1151
   34POPC   O31 4541   3.712   4.303   9.634  0.4837 -0.4152 -0.0404
   34POPC   C31 4542   3.629   4.199   9.626  0.8369  0.5596 -0.1760
   34POPC   O32 4543   3.658   4.082   9.621 -0.0541  0.3668 -0.2744
   34POPC   C32 4544   3.487   4.251   9.613 -0.8669 -0.1497  0.8112
   34POPC   H2X 4545   3.457   4.282   9.716  0.8545  1.4707  0.8433
   34POPC   H2Y 4546   3.429   4.160   9.588 -1.2816 -0.0264  1.2999
   34POPC   C23 4547   3.836   4.714   9.346  0.4077  0.1904 -0.4752
   34POPC   H3R 4548   3.757   4.636   9.350 -0.6843  1.2537 -1.1831
   34POPC   H3S 4549   3.901   4.674   9.265 -0.3395  0.7473 -1.3571
   34POPC   C24 4550   3.785   4.847   9.282  0.2137 -0.0357  0.2549
   34POPC   H4R 4551   3.871   4.905   9.244 -0.1535  0.4035  0.0905
   34POPC   H4S 4552   3.738   4.906   9.364 -0.3516  1.3653 -1.0608
   34POPC   C25 4553   3.686   4.826   9.173 -0.3690  0.2437 -1.2328
   34POPC   H5R 4554   3.606   4.768   9.222  1.0733  0.3782  1.3552
   34POPC   H5S 4555   3.727   4.758   9.095  0.9555 -0.4291  0.0317
   34POPC   C26 4556   3.639   4.948   9.089 -0.5149 -0.6258  0.0732
   34POPC   H6R 4557   3.720   5.007   9.041 -0.2914  0.1783  1.4459
   34POPC   H6S 4558   3.573   5.020   9.141  1.8706  1.9594 -0.3927
   34POPC   C27 4559   3.566   4.907   8.957  0.7823 -0.2589 -0.2498
   34POPC   H7R 4560   3.469   4.860   8.985  1.1262 -1.4572 -1.0422
   34POPC   H7S 4561   3.616   4.827   8.898  2.1959 -1.0680  1.9710
   34POPC   C28 4562   3.536   5.027   8.857  0.1829  0.2599  0.1159
   34POPC   H8R 4563   3.634   5.057   8.814 -0.1982  3.6472  1.4470
   34POPC   H8S 4564   3.503   5.114   8.918  1.2226  1.0667 -0.4460
   34POPC   C29 4565   3.435   4.981   8.750 -0.3496  0.3451  0.0220
   34POPC   H91 4566   3.359   4.912   8.791 -1.0744 -0.3775 -2.4592
   34POPC  C210 4567   3.444   4.989   8.621 -0.3194 -0.1572  0.0874
   34POPC  H101 4568   3.357   4.955   8.563 -2.8388  1.2864  2.9629
   34POPC  C211 4569   3.560   5.046   8.542 -0.1405 -0.8093  0.3558
   34POPC  H11R 4570   3.632   4.969   8.508 -2.2152 -2.8355  0.3963
   34POPC  H11S 4571   3.612   5.128   8.595 -3.9534  1.2349  1.1739
   34POPC  C212 4572   3.515   5.122   8.414 -0.0013  0.3999 -0.2155
   34POPC  H12R 4573   3.449   5.207   8.440 -0.2578 -0.0131  0.5068
   34POPC  H12S 4574   3.462   5.040   8.360 -0.9433  0.5549  0.4564
   34POPC  C213 4575   3.634   5.154   8.323 -0.6236  0.2127 -0.9211
   34POPC  H13R 4576   3.720   5.084   8.318 -0.2493  0.4245  1.7003
   34POPC  H13S 4577   3.671   5.244   8.376 -0.7466  0.3035 -0.9903
   34POPC  C214 4578   3.590   5.189   8.185 -0.1633  0.1767  0.5276
   34POPC  H14R 4579   3.545   5.106   8.126 -0.4955  0.3818  0.4873
   34POPC  H14S 4580   3.685   5.226   8.141 -0.1776  1.7753  1.7600
   34POPC  C215 4581   3.486   5.309   8.173  0.4857 -0.5277  0.2271
   34POPC  H15R 4582   3.513   5.402   8.228  0.1250  0.8855 -1.9230
   34POPC  H15S 4583   3.394   5.275   8.223 -1.7534  0.6296 -2.9325
   34POPC  C216 4584   3.454   5.322   8.023 -0.1927 -0.2230  0.8073
   34POPC  H16R 4585   3.429   5.222   7.980  2.2572 -0.3628 -0.3889
   34POPC  H16S 4586   3.550   5.356   7.977 -1.6177  2.3187 -0.3792
   34POPC  C217 4587   3.349   5.416   7.978  0.1520 -0.4329 -0.8921
   34POPC  H17R 4588   3.350   5.502   8.049  1.7415 -0.4746 -0.8320
   34POPC  H17S 4589   3.250   5.369   7.991  0.5401 -0.7190  1.2271
   34POPC  C218 4590   3.344   5.456   7.837  0.1050 -0.4197  0.0564
   34POPC  H18R 4591   3.325   5.362   7.781 -1.2724 -0.8003  1.1125
   34POPC  H18S 4592   3.445   5.492   7.807  0.1326 -0.9986 -0.5607
   34POPC  H18T 4593   3.262   5.529   7.823 -0.5194 -1.0889  0.2051
   34POPC   C33 4594   3.476   4.370   9.511  0.1249  0.4756  0.1554
   34POPC   H3X 4595   3.533   4.456   9.552 -0.9722  1.3073 -0.0481
   34POPC   H3Y 4596   3.366   4.379   9.515  0.1586  0.3356  1.9532
   34POPC   C34 4597   3.537   4.352   9.373 -0.7291 -0.7955  0.2943
   34POPC   H4X 4598   3.487   4.266   9.324  1.4745 -1.6380 -0.5454
   34POPC   H4Y 4599   3.648   4.339   9.381 -0.4217 -1.2707 -3.9136
   34POPC   C35 4600   3.520   4.478   9.282 -0.6862  0.0119 -0.0928
   34POPC   H5X 4601   3.550   4.558   9.353  0.6785 -1.8082  1.4289
   34POPC   H5Y 4602   3.413   4.492   9.257 -0.0279  2.4998 -1.7761
   34POPC   C36 4603   3.605   4.466   9.153 -0.4660  0.5862 -0.4530
   34POPC   H6X 4604   3.672   4.378   9.158 -0.2832  0.7265 -0.4351
   34POPC   H6Y 4605   3.658   4.563   9.152 -2.7568  1.8822  0.7870
   34POPC   C37 4606   3.523   4.467   9.027 -0.6954 -0.2586 -0.5062
   34POPC   H7X 4607   3.461   4.558   9.041  0.5577  0.2204  2.3425
   34POPC   H7Y 4608   3.448   4.385   9.026 -0.0385 -0.8829  0.3229
   34POPC   C38 4609   3.592   4.476   8.887 -0.1364  0.1273 -0.3991
   34POPC   H8X 4610   3.635   4.377   8.860  0.0084  0.5762 -1.8661
   34POPC   H8Y 4611   3.669   4.554   8.901  0.4551 -0.8586  2.0716
   34POPC   C39 4612   3.494   4.523   8.777  0.8642 -0.1222 -0.3773
   34POPC   H9X 4613   3.419   4.589   8.825 -0.5274  0.9037 -3.7793
   34POPC   H9Y 4614   3.447   4.432   8.732 -0.6759 -0.1479  1.2477
   34POPC  C310 4615   3.561   4.600   8.661  0.0101  0.2473 -0.0252
   34POPC  H10X 4616   3.652   4.556   8.614  0.6691  2.2586 -0.7057
   34POPC  H10Y 4617   3.589   4.698   8.704  0.3178  0.1444  0.0096
   34POPC  C311 4618   3.459   4.639   8.558 -0.2705  0.4743 -0.4477
   34POPC  H11X 4619   3.489   4.729   8.501  0.8317  0.0647 -0.5143
   34POPC  H11Y 4620   3.371   4.668   8.619 -0.4672 -1.6056  0.3084
   34POPC  C312 4621   3.413   4.529   8.468 -0.2494  0.1972 -0.1566
   34POPC  H12X 4622   3.383   4.443   8.533 -1.1988  1.5462  1.2333
   34POPC  H12Y 4623   3.497   4.482   8.412  0.0393  1.2144 -0.5729
   34POPC  C313 4624   3.295   4.566   8.382 -0.1558  0.1439 -0.1819
   34POPC  H13X 4625   3.217   4.625   8.435 -1.1992 -1.9306  0.6491
   34POPC  H13Y 4626   3.250   4.467   8.356 -0.5727 -0.0470  1.2416
   34POPC  C314 4627   3.347   4.646   8.255  0.2527 -0.1804  0.2104
   34POPC  H14X 4628   3.432   4.703   8.298  3.2191 -2.8507 -1.8909
   34POPC  H14Y 4629   3.257   4.704   8.223 -2.0609 -4.4916 -1.5229
   34POPC  C315 4630   3.395   4.552   8.144  0.7980  0.3838  0.7915
   34POPC  H15X 4631   3.309   4.483   8.136  1.7319 -0.5512 -1.5807
   34POPC  H15Y 4632   3.483   4.491   8.175 -0.8769 -0.3652  4.3883
   34POPC  C316 4633   3.432   4.631   8.018  0.2923  0.4976  0.5058
   34POPC  H16X 4634   3.348   4.693   7.982  2.6511  4.4968  1.5940
   34POPC  H16Y 4635   3.468   4.565   7.936  0.5522 -0.8089  1.6464
   34POPC  H16Z 4636   3.520   4.697   8.036  0.2929  0.5223  0.4125
   35POPC     N 4637   1.160   1.817   9.926 -0.9411 -0.2064  0.7220
   35POPC   C12 4638   1.285   1.886   9.987 -0.1488  0.3662  0.3947
   35POPC  H12A 4639   1.283   1.879  10.095  1.0534  2.4791  0.5752
   35POPC  H12B 4640   1.293   1.990   9.959 -3.3303  0.9045  1.2276
   35POPC   C13 4641   1.154   1.673   9.964 -0.2476 -0.1007  0.0348
   35POPC  H13A 4642   1.068   1.621   9.923 -2.2585  0.6328  3.1371
   35POPC  H13B 4643   1.236   1.614   9.928  0.6332  0.9683  0.2835
   35POPC  H13C 4644   1.149   1.662  10.072 -0.7659  0.2303  0.0506
   35POPC   C14 4645   1.032   1.878   9.972 -0.1501 -0.0548  0.3588
   35POPC  H14A 4646   1.025   1.863  10.079  1.8800 -1.2842  0.3287
   35POPC  H14B 4647   1.016   1.985   9.970  0.7562  0.1480  2.3447
   35POPC  H14C 4648   0.950   1.823   9.927 -0.4210  1.5569 -1.1708
   35POPC   C15 4649   1.166   1.831   9.781  0.7170 -0.3598 -0.3496
   35POPC  H15A 4650   1.152   1.935   9.756  1.3458  0.5579  2.7806
   35POPC  H15B 4651   1.102   1.765   9.726  1.8108 -0.6739 -1.2615
   35POPC  H15C 4652   1.266   1.802   9.753  0.6499  0.2710 -1.2494
   35POPC   C11 4653   1.429   1.840   9.947  0.2278  0.1652  0.1282
   35POPC  H11A 4654   1.508   1.899   9.999  2.4002 -2.8916  0.4638
   35POPC  H11B 4655   1.430   1.866   9.839 -1.6353 -1.4344 -0.2970
   35POPC     P 4656   1.489   1.598   9.871  0.1771 -0.0812 -0.0817
   35POPC   O13 4657   1.419   1.472   9.897 -0.3196  0.1593  0.0436
   35POPC   O14 4658   1.637   1.593   9.873 -0.0275  0.3838 -0.0987
   35POPC   O12 4659   1.453   1.707   9.982  0.0209 -0.8591 -0.0365
   35POPC   O11 4660   1.429   1.662   9.744  0.4003 -0.6167  0.1847
   35POPC    C1 4661   1.366   1.592   9.633  0.8470  0.0563  0.0793
   35POPC    HA 4662   1.345   1.677   9.564 -3.6704 -1.8994 -1.1395
   35POPC    HB 4663   1.269   1.551   9.668  0.9130 -2.8932 -2.8636
   35POPC    C2 4664   1.464   1.487   9.567 -0.1170  0.2740  0.0882
   35POPC    HS 4665   1.498   1.415   9.645 -1.9485  0.5309  1.1525
   35POPC   O21 4666   1.584   1.554   9.514 -0.4712 -0.0866  0.2497
   35POPC   C21 4667   1.692   1.476   9.499  0.3364 -0.8821 -0.3424
   35POPC   O22 4668   1.707   1.356   9.516  0.2127 -0.2131 -0.1810
   35POPC   C22 4669   1.814   1.573   9.469  0.2113 -0.1015  0.0332
   35POPC   H2R 4670   1.881   1.561   9.556 -1.2542 -2.7712  0.8285
   35POPC   H2S 4671   1.787   1.681   9.463  0.6534 -0.0103 -0.3276
   35POPC    C3 4672   1.405   1.400   9.453  0.5907 -0.0725 -0.1169
   35POPC    HX 4673   1.316   1.357   9.504  0.9726  1.0032  1.5157
   35POPC    HY 4674   1.470   1.310   9.444  1.1411 -0.0623  3.1045
   35POPC   O31 4675   1.384   1.466   9.327  0.2777 -0.0431  0.2510
   35POPC   C31 4676   1.269   1.535   9.308  0.5355  0.1667 -0.2297
   35POPC   O32 4677   1.182   1.548   9.392  0.2650 -0.0245  0.0013
   35POPC   C32 4678   1.266   1.591   9.167  1.0909  0.0390 -0.4149
   35POPC   H2X 4679   1.289   1.512   9.092  0.9257  0.8826 -1.3668
   35POPC   H2Y 4680   1.342   1.671   9.153  1.5279 -0.3032  0.0260
   35POPC   C23 4681   1.877   1.543   9.332  0.2247 -0.8264 -0.1154
   35POPC   H3R 4682   1.886   1.432   9.331 -1.4629 -0.9659 -1.2354
   35POPC   H3S 4683   1.979   1.587   9.332  0.6793 -1.8549  0.7010
   35POPC   C24 4684   1.801   1.604   9.215  0.3180  0.7470  0.2729
   35POPC   H4R 4685   1.796   1.715   9.226  0.8153  0.7668  0.3010
   35POPC   H4S 4686   1.695   1.571   9.213  0.1703  1.2526 -1.5616
   35POPC   C25 4687   1.869   1.558   9.083  0.5496  0.0133 -0.5347
   35POPC   H5R 4688   1.862   1.447   9.086  0.6285 -0.0397 -2.0755
   35POPC   H5S 4689   1.978   1.577   9.087  0.6591 -0.8363  2.2427
   35POPC   C26 4690   1.806   1.609   8.956 -0.5339 -0.1163  0.2629
   35POPC   H6R 4691   1.795   1.720   8.959  1.2752  0.0775 -0.1037
   35POPC   H6S 4692   1.706   1.561   8.947 -0.1533 -0.7184 -0.8550
   35POPC   C27 4693   1.888   1.563   8.831 -0.2567 -0.1661 -0.6576
   35POPC   H7R 4694   1.889   1.452   8.830 -1.8170 -0.2363  1.0607
   35POPC   H7S 4695   1.991   1.597   8.855 -0.4068  0.8936 -1.4834
   35POPC   C28 4696   1.840   1.629   8.703 -0.9967 -0.3439  0.8060
   35POPC   H8R 4697   1.732   1.610   8.687 -0.9323 -0.7057  0.8116
   35POPC   H8S 4698   1.906   1.586   8.625  0.1081 -1.6401  2.4054
   35POPC   C29 4699   1.877   1.777   8.701 -0.1915  0.5149 -0.4287
   35POPC   H91 4700   1.985   1.786   8.718 -0.1734  0.1280 -0.3344
   35POPC  C210 4701   1.792   1.881   8.674  0.3794 -1.2605  0.2945
   35POPC  H101 4702   1.833   1.982   8.686 -0.3548 -0.8742 -0.3655
   35POPC  C211 4703   1.644   1.888   8.655 -0.3853 -0.0216  0.4974
   35POPC  H11R 4704   1.600   1.804   8.598 -0.6028  0.3357  0.1396
   35POPC  H11S 4705   1.622   1.979   8.596  1.0911 -0.6631 -1.1233
   35POPC  C212 4706   1.553   1.893   8.778 -0.8920  0.5468 -0.1036
   35POPC  H12R 4707   1.558   1.807   8.848 -0.0768 -1.7953 -2.9408
   35POPC  H12S 4708   1.453   1.889   8.729 -1.4159 -0.2090  1.0017
   35POPC  C213 4709   1.567   2.029   8.858 -0.1053 -0.1930 -0.1057
   35POPC  H13R 4710   1.575   2.108   8.781  2.7349  1.1262  1.4608
   35POPC  H13S 4711   1.663   2.049   8.911 -0.0078  0.9912 -0.7134
   35POPC  C214 4712   1.451   2.045   8.959 -0.2914 -0.9923 -0.2095
   35POPC  H14R 4713   1.364   1.979   8.940 -2.2642  1.5399 -0.2532
   35POPC  H14S 4714   1.419   2.152   8.964  0.4351 -0.6283 -2.8254
   35POPC  C215 4715   1.506   2.020   9.104 -0.1347  0.1015  0.6912
   35POPC  H15R 4716   1.582   2.099   9.124 -0.9680  1.7200 -2.3728
   35POPC  H15S 4717   1.560   1.922   9.108  1.6302  0.9290 -1.4782
   35POPC  C216 4718   1.400   2.022   9.217  0.4517  0.4528 -0.0790
   35POPC  H16R 4719   1.321   1.949   9.186  0.9898  0.0677 -0.5658
   35POPC  H16S 4720   1.346   2.118   9.230 -0.2519 -0.0884  1.1144
   35POPC  C217 4721   1.454   1.987   9.361 -0.0418 -0.0591  0.5780
   35POPC  H17R 4722   1.367   1.997   9.428 -0.1846  1.9139  0.1401
   35POPC  H17S 4723   1.526   2.068   9.386 -0.8205  0.7246  0.2989
   35POPC  C218 4724   1.499   1.843   9.366 -0.4925 -0.5648 -0.5380
   35POPC  H18R 4725   1.591   1.821   9.308  1.1716 -0.9790  2.1616
   35POPC  H18S 4726   1.418   1.774   9.331 -0.8185  0.5638 -2.0543
   35POPC  H18T 4727   1.519   1.803   9.468  4.7547  1.0828 -0.7980
   35POPC   C33 4728   1.124   1.649   9.122 -0.2156  0.6370 -0.1195
   35POPC   H3X 4729   1.099   1.716   9.207  1.9962  1.9594 -0.4921
   35POPC   H3Y 4730   1.057   1.560   9.117  1.5622 -0.7535  0.1213
   35POPC   C34 4731   1.130   1.724   8.988  0.1206 -0.5875  0.7937
   35POPC   H4X 4732   1.195   1.815   8.988  0.5772 -0.8253 -2.7830
   35POPC   H4Y 4733   1.025   1.758   8.971 -0.0381 -0.8100  1.3248
   35POPC   C35 4734   1.172   1.651   8.858  0.0155 -0.2633 -0.3583
   35POPC   H5X 4735   1.105   1.563   8.847  0.4831 -0.7159  0.3527
   35POPC   H5Y 4736   1.282   1.639   8.862  0.1572  0.7836 -1.1785
   35POPC   C36 4737   1.157   1.744   8.735 -0.2929  0.4903 -0.0045
   35POPC   H6X 4738   1.207   1.841   8.755 -0.5271  0.8487 -1.1586
   35POPC   H6Y 4739   1.051   1.766   8.712 -0.0851  3.9247  1.8880
   35POPC   C37 4740   1.230   1.699   8.607 -0.8785  0.3819 -0.1765
   35POPC   H7X 4741   1.181   1.606   8.571  0.5437 -0.8987  1.1001
   35POPC   H7Y 4742   1.324   1.657   8.647 -1.7267  0.6946  2.2309
   35POPC   C38 4743   1.241   1.799   8.492  0.0211  0.6272  0.0669
   35POPC   H8X 4744   1.292   1.886   8.538  2.3340 -0.8706  0.4737
   35POPC   H8Y 4745   1.139   1.824   8.455  0.1126 -0.2760 -0.8197
   35POPC   C39 4746   1.321   1.744   8.380  0.2850 -0.2304 -0.6741
   35POPC   H9X 4747   1.262   1.662   8.333 -0.3746  0.5094 -1.1565
   35POPC   H9Y 4748   1.414   1.698   8.420  1.5725  1.5354 -1.5665
   35POPC  C310 4749   1.366   1.839   8.270 -0.4202  0.4182 -0.2100
   35POPC  H10X 4750   1.423   1.921   8.319  0.8593 -1.4936  1.6044
   35POPC  H10Y 4751   1.278   1.874   8.212  0.7205 -0.5936 -2.5949
   35POPC  C311 4752   1.462   1.781   8.165  0.8734 -0.2156 -0.8877
   35POPC  H11X 4753   1.418   1.691   8.118  1.0619 -1.7914  1.8544
   35POPC  H11Y 4754   1.542   1.753   8.236  0.1045  2.6603  1.1991
   35POPC  C312 4755   1.503   1.873   8.054  0.4290 -1.2726  0.8785
   35POPC  H12X 4756   1.602   1.848   8.010  0.4057  0.2016 -0.0378
   35POPC  H12Y 4757   1.515   1.971   8.104 -1.6493 -0.2688 -0.4765
   35POPC  C313 4758   1.399   1.897   7.937  0.4493 -0.1899  0.0421
   35POPC  H13X 4759   1.297   1.912   7.978 -0.3493 -0.1728 -1.9025
   35POPC  H13Y 4760   1.382   1.799   7.887 -2.9195  0.0447  0.6018
   35POPC  C314 4761   1.432   2.012   7.842  0.1520  0.1380 -0.2211
   35POPC  H14X 4762   1.468   2.099   7.901  0.7914  0.2941 -0.8354
   35POPC  H14Y 4763   1.339   2.044   7.791  1.0737  0.2755 -1.8863
   35POPC  C315 4764   1.540   1.975   7.738 -0.2847  0.1782  0.1570
   35POPC  H15X 4765   1.509   1.880   7.689 -0.5845 -0.9204  2.3980
   35POPC  H15Y 4766   1.634   1.942   7.788  0.2327 -0.3557 -1.1619
   35POPC  C316 4767   1.571   2.087   7.629  0.2635  0.4100 -0.1396
   35POPC  H16X 4768   1.624   2.049   7.540 -1.1330  3.2048 -2.2128
   35POPC  H16Y 4769   1.633   2.170   7.668 -1.6811  2.7799 -1.9674
   35POPC  H16Z 4770   1.472   2.121   7.591  1.3395  0.3234 -3.1186
   36POPC     N 4771   1.120   6.285   9.605  0.1938 -0.0115 -0.0405
   36POPC   C12 4772   1.106   6.388   9.494 -0.2031 -0.7995  0.3118
   36POPC  H12A 4773   1.011   6.393   9.442  0.1661  0.0166 -0.2978
   36POPC  H12B 4774   1.178   6.369   9.416 -0.7441 -0.5446 -0.2626
   36POPC   C13 4775   1.241   6.308   9.681  0.2001  0.0698 -0.3273
   36POPC  H13A 4776   1.224   6.394   9.744 -1.0560 -0.7092  0.4318
   36POPC  H13B 4777   1.273   6.231   9.749 -1.4624 -0.0836  0.3093
   36POPC  H13C 4778   1.326   6.342   9.624  1.5026 -0.8293  1.0443
   36POPC   C14 4779   1.003   6.302   9.687  0.1745  0.0327 -0.2182
   36POPC  H14A 4780   1.003   6.235   9.772 -1.3217 -0.4960 -0.6140
   36POPC  H14B 4781   0.989   6.402   9.724 -0.5258 -0.1619  0.0602
   36POPC  H14C 4782   0.912   6.281   9.631  0.0976  0.2957 -0.1935
   36POPC   C15 4783   1.126   6.148   9.542  0.2866  0.1393 -0.7327
   36POPC  H15A 4784   1.201   6.154   9.464  0.6167 -1.1949 -0.5265
   36POPC  H15B 4785   1.030   6.121   9.501 -0.5319 -0.2356  1.3900
   36POPC  H15C 4786   1.149   6.070   9.613  0.5787  0.0941 -0.8747
   36POPC   C11 4787   1.131   6.536   9.543 -0.2348  0.1214 -0.2248
   36POPC  H11A 4788   1.067   6.549   9.633 -0.4279 -0.4857 -0.2740
   36POPC  H11B 4789   1.091   6.600   9.461 -2.8677 -2.2650 -0.8587
   36POPC     P 4790   1.306   6.675   9.690  0.1314 -0.1354  0.3630
   36POPC   O13 4791   1.450   6.693   9.680 -0.0494 -0.3634  0.2905
   36POPC   O14 4792   1.256   6.640   9.824 -0.2209 -0.1013 -0.0659
   36POPC   O12 4793   1.272   6.558   9.581 -0.2270 -0.0909 -0.1570
   36POPC   O11 4794   1.232   6.800   9.631  0.2242 -0.0681 -0.5167
   36POPC    C1 4795   1.299   6.864   9.525  0.5844 -0.5306 -0.1423
   36POPC    HA 4796   1.331   6.797   9.442  0.5806 -0.1596 -0.4474
   36POPC    HB 4797   1.384   6.928   9.558 -0.3853  1.2465 -1.0340
   36POPC    C2 4798   1.196   6.960   9.458 -0.0366 -0.2941  0.4679
   36POPC    HS 4799   1.126   6.996   9.535  0.6355  0.4373  0.7409
   36POPC   O21 4800   1.125   6.881   9.356  0.2910  0.2170 -0.0096
   36POPC   C21 4801   1.012   6.928   9.318  0.1721 -0.6307  0.2291
   36POPC   O22 4802   0.953   7.024   9.361 -0.1977 -0.1064  0.7772
   36POPC   C22 4803   0.951   6.830   9.225  0.1300 -0.1075  0.0198
   36POPC   H2R 4804   0.917   6.736   9.274  0.0506 -0.8184 -1.3785
   36POPC   H2S 4805   1.014   6.800   9.138 -0.8871 -1.1515 -0.3693
   36POPC    C3 4806   1.271   7.088   9.390  0.4839  0.0904 -0.0829
   36POPC    HX 4807   1.301   7.160   9.469  1.0830  0.1529 -0.3630
   36POPC    HY 4808   1.196   7.146   9.332  0.8700 -0.9477 -1.6524
   36POPC   O31 4809   1.380   7.056   9.306  0.0610 -0.3024  0.2798
   36POPC   C31 4810   1.359   7.011   9.187 -0.2316  0.5887 -0.5548
   36POPC   O32 4811   1.260   6.993   9.124  0.9489 -0.4738 -0.1031
   36POPC   C32 4812   1.496   6.991   9.124 -0.4800  0.5997 -0.3373
   36POPC   H2X 4813   1.537   6.898   9.167  1.2018  1.2329 -0.5302
   36POPC   H2Y 4814   1.564   7.079   9.131 -0.2806  0.4670 -0.6294
   36POPC   C23 4815   0.825   6.880   9.152 -0.2677  0.1311 -0.3206
   36POPC   H3R 4816   0.756   6.934   9.220 -0.8503  3.2094 -3.2581
   36POPC   H3S 4817   0.780   6.789   9.105 -0.1337  0.2289 -0.6392
   36POPC   C24 4818   0.851   6.960   9.030 -0.6039  0.0835 -0.4106
   36POPC   H4R 4819   0.753   6.983   8.982 -1.1027  0.0967  0.5807
   36POPC   H4S 4820   0.900   6.898   8.952 -1.3722 -1.8575  0.6021
   36POPC   C25 4821   0.922   7.100   9.056  0.4107  1.1742 -0.3728
   36POPC   H5R 4822   1.025   7.071   9.084 -0.4527 -2.2391 -0.4972
   36POPC   H5S 4823   0.873   7.162   9.135  0.9649  1.3350 -0.1573
   36POPC   C26 4824   0.920   7.171   8.923 -0.3412  0.7912  0.0737
   36POPC   H6R 4825   0.817   7.211   8.910 -0.4675  0.3486 -0.3196
   36POPC   H6S 4826   0.962   7.105   8.844 -0.2931 -0.2310  0.9405
   36POPC   C27 4827   1.014   7.300   8.941  0.1670  0.8707  0.3112
   36POPC   H7R 4828   1.118   7.265   8.958  0.0705  0.1253 -0.5958
   36POPC   H7S 4829   0.967   7.345   9.031 -1.5461 -0.9672  0.3732
   36POPC   C28 4830   0.999   7.397   8.817 -0.5137  0.1226  0.6456
   36POPC   H8R 4831   0.892   7.413   8.792 -1.0316 -0.2358  2.5620
   36POPC   H8S 4832   1.032   7.338   8.729 -0.8351  0.1614  0.4998
   36POPC   C29 4833   1.067   7.530   8.823  0.1205  0.0838 -0.8945
   36POPC   H91 4834   1.053   7.577   8.921 -0.2204 -1.9567  0.0588
   36POPC  C210 4835   1.132   7.595   8.723 -0.4780 -0.2193  0.7019
   36POPC  H101 4836   1.175   7.695   8.734  0.3994 -0.6448  1.2316
   36POPC  C211 4837   1.144   7.545   8.582 -0.2718  0.2020 -0.9057
   36POPC  H11R 4838   1.111   7.616   8.503 -1.2348 -0.5059 -1.1395
   36POPC  H11S 4839   1.082   7.454   8.568 -0.1390 -0.0688  0.2011
   36POPC  C212 4840   1.286   7.506   8.529  0.1441  0.1227  0.3224
   36POPC  H12R 4841   1.333   7.439   8.604  0.2197 -1.8830 -1.4609
   36POPC  H12S 4842   1.356   7.592   8.515  0.5007 -0.4523 -1.5499
   36POPC  C213 4843   1.263   7.444   8.391  0.3419 -0.2524 -0.3788
   36POPC  H13R 4844   1.189   7.490   8.323  1.0692 -0.4353 -1.3212
   36POPC  H13S 4845   1.213   7.345   8.397  0.3137 -0.1095  2.0071
   36POPC  C214 4846   1.402   7.433   8.321  0.2415 -0.4790  0.0629
   36POPC  H14R 4847   1.463   7.375   8.393  1.0809 -0.0967 -0.3341
   36POPC  H14S 4848   1.441   7.537   8.322  0.2131 -0.4690  2.3297
   36POPC  C215 4849   1.397   7.368   8.182  0.3139 -0.1341  0.9923
   36POPC  H15R 4850   1.348   7.430   8.104  0.8803 -2.9254 -1.7094
   36POPC  H15S 4851   1.351   7.268   8.196 -2.0692  1.1115  2.2365
   36POPC  C216 4852   1.539   7.353   8.126  0.2198 -0.2585 -0.6028
   36POPC  H16R 4853   1.530   7.284   8.040 -2.1242 -2.4947  1.3561
   36POPC  H16S 4854   1.598   7.296   8.202  0.4970 -0.7678 -1.1958
   36POPC  C217 4855   1.600   7.492   8.080 -0.3370  0.2652  0.1590
   36POPC  H17R 4856   1.574   7.575   8.150  0.1036 -1.0932  1.9724
   36POPC  H17S 4857   1.551   7.525   7.987 -1.0217  0.7084  0.6692
   36POPC  C218 4858   1.748   7.498   8.044  0.5379 -0.3024 -0.1526
   36POPC  H18R 4859   1.758   7.586   7.977 -0.0284 -0.5570 -0.5761
   36POPC  H18S 4860   1.782   7.409   7.987  0.4006 -0.6662  0.3269
   36POPC  H18T 4861   1.817   7.516   8.130 -0.4946  0.3938  0.5389
   36POPC   C33 4862   1.477   6.958   8.970 -0.1025  0.0427 -0.1414
   36POPC   H3X 4863   1.425   6.860   8.960 -0.9091  0.3881  0.6001
   36POPC   H3Y 4864   1.577   6.934   8.929  0.2204  0.0933  0.6043
   36POPC   C34 4865   1.420   7.081   8.896  0.3506 -0.0162 -0.3256
   36POPC   H4X 4866   1.455   7.180   8.930  1.7509  0.1744 -2.2229
   36POPC   H4Y 4867   1.311   7.089   8.913  0.5870  4.4594 -0.5352
   36POPC   C35 4868   1.430   7.077   8.745 -0.0173 -0.9113 -0.3289
   36POPC   H5X 4869   1.538   7.066   8.722 -0.1627 -1.3073 -0.8362
   36POPC   H5Y 4870   1.406   7.180   8.710 -0.4992 -0.3315  1.6476
   36POPC   C36 4871   1.357   6.959   8.680 -0.1464  0.1972  0.5217
   36POPC   H6X 4872   1.273   6.918   8.741  0.1628  0.7880  1.3584
   36POPC   H6Y 4873   1.421   6.869   8.668  0.0776  0.2471  1.3237
   36POPC   C37 4874   1.304   6.987   8.540  0.9933 -0.3085 -0.2583
   36POPC   H7X 4875   1.314   6.898   8.474 -0.7906 -1.1142  0.5222
   36POPC   H7Y 4876   1.369   7.071   8.506  0.2479  0.7420  0.8749
   36POPC   C38 4877   1.159   7.027   8.549  0.0013 -0.0588  0.3369
   36POPC   H8X 4878   1.156   7.116   8.615  0.9655  1.4154 -1.5680
   36POPC   H8Y 4879   1.094   6.947   8.591  0.4140 -0.9756 -0.7246
   36POPC   C39 4880   1.097   7.068   8.422 -0.0276 -0.3612  0.1134
   36POPC   H9X 4881   1.075   6.989   8.347  0.7271  0.5392 -1.0741
   36POPC   H9Y 4882   1.161   7.143   8.371  1.5926 -0.9274  1.2834
   36POPC  C310 4883   0.959   7.140   8.457 -0.2146 -0.1498 -1.2482
   36POPC  H10X 4884   0.982   7.240   8.500 -1.4066 -0.1066 -0.6892
   36POPC  H10Y 4885   0.895   7.088   8.532  0.0682 -0.6210 -1.3336
   36POPC  C311 4886   0.868   7.162   8.333  0.1991  0.0124  0.5299
   36POPC  H11X 4887   0.764   7.148   8.368  0.6730 -1.9963  1.1820
   36POPC  H11Y 4888   0.887   7.069   8.276 -4.5304  0.3989 -1.8878
   36POPC  C312 4889   0.879   7.292   8.249  0.1646 -0.0309 -0.2609
   36POPC  H12X 4890   0.988   7.297   8.226  0.5631  1.0935  1.7398
   36POPC  H12Y 4891   0.861   7.380   8.315 -0.2597  0.9074 -1.6008
   36POPC  C313 4892   0.802   7.309   8.119  1.2655 -0.6090 -0.3683
   36POPC  H13X 4893   0.696   7.279   8.131  0.9535  0.6126 -0.0064
   36POPC  H13Y 4894   0.839   7.235   8.045  0.5058  0.6348 -2.0356
   36POPC  C314 4895   0.807   7.452   8.068  0.0694 -0.5291  0.6536
   36POPC  H14X 4896   0.749   7.520   8.135 -0.7886  0.0221 -0.6216
   36POPC  H14Y 4897   0.757   7.460   7.969 -0.3716  2.3592  1.0473
   36POPC  C315 4898   0.945   7.519   8.063 -0.0471 -0.1028  0.3643
   36POPC  H15X 4899   1.023   7.455   8.016  0.1131  0.8321 -0.6452
   36POPC  H15Y 4900   0.980   7.531   8.168  1.1318  1.3099 -0.1740
   36POPC  C316 4901   0.947   7.657   7.994 -0.6972  0.2657 -0.3326
   36POPC  H16X 4902   0.918   7.649   7.887 -0.5638  2.5713 -0.5617
   36POPC  H16Y 4903   1.047   7.706   7.998  0.6207 -2.3560  0.0809
   36POPC  H16Z 4904   0.876   7.732   8.036  0.3086  0.1303  1.6534
   37POPC     N 4905   2.929   3.287   5.561  0.3769  0.3266 -0.0584
   37POPC   C12 4906   3.031   3.266   5.669 -0.2997  0.2539  0.5000
   37POPC  H12A 4907   3.117   3.324   5.641 -0.0401  0.5046  1.7998
   37POPC  H12B 4908   3.066   3.164   5.665 -1.3059 -0.0614 -0.6429
   37POPC   C13 4909   2.942   3.428   5.516 -0.0824 -0.3117  0.4512
   37POPC  H13A 4910   2.885   3.454   5.428  0.3278  0.2376  0.3443
   37POPC  H13B 4911   2.908   3.496   5.593 -0.0005 -0.2684  0.4486
   37POPC  H13C 4912   3.042   3.462   5.497 -0.7998  2.0928  0.7923
   37POPC   C14 4913   2.961   3.194   5.449  0.2582 -0.0065 -0.7417
   37POPC  H14A 4914   2.943   3.090   5.469 -0.1787 -0.0378 -1.3137
   37POPC  H14B 4915   2.894   3.212   5.367 -0.6620 -0.6887 -0.1467
   37POPC  H14C 4916   3.057   3.217   5.405  0.4045 -2.2748 -1.6666
   37POPC   C15 4917   2.791   3.261   5.601  0.0546  0.6061  0.1124
   37POPC  H15A 4918   2.772   3.155   5.607  0.9480  0.4279 -0.1349
   37POPC  H15B 4919   2.726   3.292   5.519  0.2864 -0.6110 -0.5476
   37POPC  H15C 4920   2.755   3.313   5.688  0.5772  1.4985 -0.1863
   37POPC   C11 4921   2.980   3.316   5.804  0.1893 -0.2135  0.0516
   37POPC  H11A 4922   2.931   3.414   5.787 -0.5854 -0.4281  0.9610
   37POPC  H11B 4923   3.062   3.345   5.873  0.6444 -2.2275  0.3963
   37POPC     P 4924   2.951   3.101   5.948 -0.0709  0.3195 -0.2441
   37POPC   O13 4925   3.030   3.024   5.845  0.0503  0.3955 -0.0114
   37POPC   O14 4926   2.844   3.027   6.017 -0.2347  0.3885 -0.4467
   37POPC   O12 4927   2.888   3.229   5.876 -0.3930 -0.0716 -0.0584
   37POPC   O11 4928   3.051   3.165   6.053  0.6830 -0.2264 -0.4750
   37POPC    C1 4929   2.994   3.258   6.145 -1.0790  0.1683 -0.0352
   37POPC    HA 4930   2.911   3.209   6.201 -2.0901  0.6434 -1.1056
   37POPC    HB 4931   2.960   3.352   6.096  2.5981  1.2867 -0.6143
   37POPC    C2 4932   3.103   3.288   6.251 -0.2035  1.3615 -0.0893
   37POPC    HS 4933   3.198   3.322   6.204 -0.6105  1.8566 -0.5689
   37POPC   O21 4934   3.128   3.166   6.321  0.6117  0.4532 -0.2220
   37POPC   C21 4935   3.247   3.131   6.363 -0.1488 -0.2014  0.5826
   37POPC   O22 4936   3.352   3.194   6.338 -0.0730 -0.4445 -0.2559
   37POPC   C22 4937   3.249   3.006   6.454  0.1737 -0.2323  0.4614
   37POPC   H2R 4938   3.167   3.021   6.528  0.2373 -1.9345  0.8946
   37POPC   H2S 4939   3.337   3.014   6.520 -1.2457  0.1677  2.3522
   37POPC    C3 4940   3.069   3.406   6.346  0.0192 -0.6286 -0.1821
   37POPC    HX 4941   3.063   3.497   6.284  0.7217 -1.0013 -0.8002
   37POPC    HY 4942   3.159   3.407   6.412 -0.4362  1.0113  0.4365
   37POPC   O31 4943   2.955   3.381   6.437  0.5413 -0.1621  0.1242
   37POPC   C31 4944   2.838   3.403   6.384  0.6709  0.4441  0.2969
   37POPC   O32 4945   2.813   3.450   6.278  0.1792  0.2236  0.6961
   37POPC   C32 4946   2.737   3.357   6.489 -0.3021  0.1822 -0.3385
   37POPC   H2X 4947   2.641   3.355   6.432 -1.0000  0.1199  0.8189
   37POPC   H2Y 4948   2.725   3.433   6.570  0.7976 -0.0774  0.0727
   37POPC   C23 4949   3.249   2.866   6.384 -0.1607 -0.7391  0.6956
   37POPC   H3R 4950   3.348   2.858   6.333 -0.9847  3.0955 -1.7607
   37POPC   H3S 4951   3.178   2.869   6.298 -0.4352  0.2686  0.9506
   37POPC   C24 4952   3.220   2.760   6.478 -0.5137  0.0715 -0.1480
   37POPC   H4R 4953   3.307   2.741   6.544  0.4301 -0.6557 -1.5778
   37POPC   H4S 4954   3.194   2.664   6.430  1.7070 -0.4651 -0.3364
   37POPC   C25 4955   3.094   2.785   6.572  0.0072 -0.4761 -0.4383
   37POPC   H5R 4956   3.003   2.793   6.510  0.4658  0.2580 -1.0226
   37POPC   H5S 4957   3.105   2.874   6.638 -0.2971  0.8912 -2.2038
   37POPC   C26 4958   3.071   2.661   6.672 -0.0790  0.0464  0.2698
   37POPC   H6R 4959   3.165   2.603   6.678 -0.9575 -1.3556  0.8060
   37POPC   H6S 4960   2.987   2.597   6.637  2.6046 -2.0087 -2.6858
   37POPC   C27 4961   3.042   2.716   6.809  0.1561 -0.3671  0.3689
   37POPC   H7R 4962   2.969   2.798   6.788 -1.5080 -1.6473  1.0126
   37POPC   H7S 4963   3.137   2.750   6.854  0.1484  0.3516 -0.1395
   37POPC   C28 4964   2.971   2.619   6.903 -0.2270  0.2840  0.6762
   37POPC   H8R 4965   2.968   2.670   7.001  0.7479 -0.7142  1.2428
   37POPC   H8S 4966   3.027   2.523   6.916  1.5307  1.4893  2.2717
   37POPC   C29 4967   2.825   2.596   6.866  0.8484  0.7476  0.3452
   37POPC   H91 4968   2.801   2.600   6.759  0.7685 -0.1305  0.3327
   37POPC  C210 4969   2.732   2.585   6.965 -0.5534 -0.1900 -0.0570
   37POPC  H101 4970   2.626   2.575   6.937 -0.4650  2.4867 -1.4585
   37POPC  C211 4971   2.762   2.591   7.113  0.1723 -0.0866 -1.0746
   37POPC  H11R 4972   2.758   2.695   7.151  2.2576 -0.6414  0.7337
   37POPC  H11S 4973   2.856   2.538   7.139  0.0780  0.9243  1.5026
   37POPC  C212 4974   2.660   2.520   7.202  0.0336 -0.2504  0.5384
   37POPC  H12R 4975   2.652   2.411   7.185 -0.8428  0.0385 -0.9741
   37POPC  H12S 4976   2.558   2.558   7.182 -0.6225 -1.7820  0.9150
   37POPC  C213 4977   2.697   2.525   7.351 -0.6532 -0.1617 -0.4461
   37POPC  H13R 4978   2.693   2.626   7.397 -1.0745 -1.1088  1.6279
   37POPC  H13S 4979   2.804   2.498   7.364 -0.2470  1.4110 -0.4362
   37POPC  C214 4980   2.610   2.424   7.427 -0.3563  0.7560  0.3770
   37POPC  H14R 4981   2.626   2.318   7.398 -0.0123  0.7176  0.7035
   37POPC  H14S 4982   2.501   2.440   7.419 -0.1301  1.4661 -1.6024
   37POPC  C215 4983   2.643   2.451   7.577  0.4281  0.0050 -0.7108
   37POPC  H15R 4984   2.637   2.558   7.605 -2.4118 -0.5988  1.3068
   37POPC  H15S 4985   2.747   2.415   7.590  1.3590  2.9124  0.1210
   37POPC  C216 4986   2.558   2.373   7.686 -0.0435  0.1606  0.7443
   37POPC  H16R 4987   2.546   2.265   7.667 -1.0959  0.7841 -2.5059
   37POPC  H16S 4988   2.457   2.418   7.679  0.4136  0.9089 -1.4677
   37POPC  C217 4989   2.613   2.386   7.832  0.2229  0.2499  1.0776
   37POPC  H17R 4990   2.625   2.492   7.862 -1.1405  1.3748 -2.0661
   37POPC  H17S 4991   2.711   2.337   7.847 -0.4116 -1.1727  0.7179
   37POPC  C218 4992   2.519   2.325   7.929  0.0719 -0.2702 -0.3374
   37POPC  H18R 4993   2.546   2.218   7.945  1.4588 -0.3040 -2.7264
   37POPC  H18S 4994   2.410   2.332   7.908  0.3744  1.1750 -1.4901
   37POPC  H18T 4995   2.532   2.374   8.028 -1.0532 -0.7496  0.0449
   37POPC   C33 4996   2.749   3.212   6.538 -0.5941  0.3904  1.1677
   37POPC   H3X 4997   2.833   3.160   6.487 -0.6164  0.7951  0.7110
   37POPC   H3Y 4998   2.660   3.148   6.520 -1.9195  2.3153  0.6870
   37POPC   C34 4999   2.782   3.209   6.689 -0.3673  0.4695  0.0194
   37POPC   H4X 5000   2.696   3.245   6.749 -0.8725 -0.4646 -0.1405
   37POPC   H4Y 5001   2.857   3.289   6.708  0.9017 -0.7580  0.2465
   37POPC   C35 5002   2.819   3.074   6.743  0.4770  0.3312 -0.0419
   37POPC   H5X 5003   2.868   3.027   6.655  2.0385  0.8163  0.5407
   37POPC   H5Y 5004   2.726   3.023   6.778 -0.8731  2.1553 -0.9304
   37POPC   C36 5005   2.913   3.083   6.866  0.3331  0.2667  0.6147
   37POPC   H6X 5006   2.995   3.150   6.833 -0.0006 -1.3190 -3.8299
   37POPC   H6Y 5007   2.947   2.978   6.881  0.1662 -0.0813 -1.2662
   37POPC   C37 5008   2.842   3.138   6.996  0.3486 -0.0480  0.2381
   37POPC   H7X 5009   2.746   3.084   7.009  0.1178 -0.0945 -1.5414
   37POPC   H7Y 5010   2.819   3.246   6.997 -0.7351 -0.2652 -0.6561
   37POPC   C38 5011   2.927   3.116   7.117  0.2058  0.4362  0.4312
   37POPC   H8X 5012   2.895   3.175   7.205  1.4051  0.9289  0.5403
   37POPC   H8Y 5013   3.031   3.141   7.088  1.2312 -0.9221  2.8054
   37POPC   C39 5014   2.932   2.970   7.157  0.1198 -0.6750 -0.0320
   37POPC   H9X 5015   3.001   2.919   7.086 -0.0637 -1.2330  0.1885
   37POPC   H9Y 5016   2.834   2.921   7.139 -0.5278  0.6234 -0.1627
   37POPC  C310 5017   2.992   2.938   7.298  0.6836  0.4614 -0.3429
   37POPC  H10X 5018   3.091   2.987   7.315  0.7806  0.2234 -0.2181
   37POPC  H10Y 5019   2.994   2.827   7.307  1.2621  0.5870  1.1868
   37POPC  C311 5020   2.892   2.979   7.409 -0.0320 -0.3907 -0.5211
   37POPC  H11X 5021   2.789   2.949   7.380 -1.1460  2.4554  0.2999
   37POPC  H11Y 5022   2.888   3.090   7.406  0.8604 -0.3546 -0.5384
   37POPC  C312 5023   2.943   2.937   7.547  0.8075 -0.5907 -0.5854
   37POPC  H12X 5024   2.967   2.829   7.540  2.2851 -0.3904  1.0535
   37POPC  H12Y 5025   2.861   2.942   7.622 -0.0988  0.4690 -1.6218
   37POPC  C313 5026   3.070   3.000   7.616 -0.5675  0.4305  0.8077
   37POPC  H13X 5027   3.164   2.969   7.565 -0.9338 -0.0468  0.4229
   37POPC  H13Y 5028   3.071   2.970   7.723 -0.2502  3.0673  1.5765
   37POPC  C314 5029   3.070   3.151   7.617  0.3548  0.0064 -0.4087
   37POPC  H14X 5030   2.974   3.184   7.661  1.3802 -0.2776  2.1543
   37POPC  H14Y 5031   3.076   3.179   7.509  1.7508  0.7043 -0.1686
   37POPC  C315 5032   3.181   3.227   7.700  0.1591  0.2709 -0.3699
   37POPC  H15X 5033   3.282   3.191   7.673  0.8833  1.5747  0.5228
   37POPC  H15Y 5034   3.154   3.189   7.801 -0.4698 -1.9683 -1.3489
   37POPC  C316 5035   3.177   3.374   7.688  0.0881  0.7028  0.1727
   37POPC  H16X 5036   3.202   3.407   7.585  1.7139  0.5342  0.5081
   37POPC  H16Y 5037   3.249   3.422   7.757  1.0566 -0.6600  0.1152
   37POPC  H16Z 5038   3.078   3.409   7.724 -0.8289 -3.1580  1.6262
   38POPC     N 5039   3.576   6.241   5.762 -0.1365  0.5862 -0.1563
   38POPC   C12 5040   3.441   6.162   5.766 -0.4076  0.4208 -0.2345
   38POPC  H12A 5041   3.417   6.116   5.671 -2.5859 -1.3029  1.1163
   38POPC  H12B 5042   3.359   6.232   5.765 -1.1608 -0.4535 -0.2462
   38POPC   C13 5043   3.580   6.312   5.892 -0.5147  0.1727  1.1882
   38POPC  H13A 5044   3.654   6.388   5.868 -0.2405 -0.0967  1.1800
   38POPC  H13B 5045   3.489   6.364   5.918  0.0775  1.5237  0.6204
   38POPC  H13C 5046   3.594   6.239   5.970  0.5813 -2.1303 -1.1022
   38POPC   C14 5047   3.691   6.143   5.742  0.3514  0.5553 -0.2156
   38POPC  H14A 5048   3.666   6.096   5.649 -0.3295  1.5505 -0.5413
   38POPC  H14B 5049   3.793   6.180   5.750 -0.1230  1.3862  2.3198
   38POPC  H14C 5050   3.680   6.068   5.819 -0.6928  0.9527  0.0278
   38POPC   C15 5051   3.576   6.350   5.651  0.3928 -0.3989  0.3964
   38POPC  H15A 5052   3.668   6.405   5.652 -0.7265  1.4899  1.2333
   38POPC  H15B 5053   3.493   6.419   5.656  0.5098 -0.1601 -0.7589
   38POPC  H15C 5054   3.582   6.302   5.554  0.6032 -2.8988  1.5967
   38POPC   C11 5055   3.419   6.063   5.878 -0.0023  0.5841 -0.2443
   38POPC  H11A 5056   3.323   6.008   5.864 -0.1806  0.9302 -0.4018
   38POPC  H11B 5057   3.404   6.115   5.975  0.8388  2.6662 -1.1817
   38POPC     P 5058   3.504   5.822   5.836  0.5736 -0.0614  0.1890
   38POPC   O13 5059   3.639   5.771   5.815  0.2378 -0.1168  0.0323
   38POPC   O14 5060   3.410   5.809   5.722 -0.6249  0.1167 -0.3962
   38POPC   O12 5061   3.524   5.970   5.888 -0.1583  0.0569  0.1067
   38POPC   O11 5062   3.445   5.733   5.954 -0.0790  0.4073  0.2706
   38POPC    C1 5063   3.506   5.719   6.079 -0.3611 -0.4598 -0.6121
   38POPC    HA 5064   3.616   5.714   6.069 -0.0917  0.6964  1.3963
   38POPC    HB 5065   3.470   5.628   6.131  1.8854 -0.8008  0.3783
   38POPC    C2 5066   3.446   5.834   6.165 -0.1797  0.0585 -0.3175
   38POPC    HS 5067   3.486   5.930   6.126  1.3653 -0.8137 -0.9297
   38POPC   O21 5068   3.487   5.815   6.306  0.0467 -0.1024  0.3935
   38POPC   C21 5069   3.613   5.846   6.334 -0.0535  0.6366  0.4241
   38POPC   O22 5070   3.692   5.897   6.252 -0.3007  0.4786 -0.3641
   38POPC   C22 5071   3.662   5.819   6.477 -0.2965  0.1484  0.2540
   38POPC   H2R 5072   3.605   5.728   6.504  2.0955 -1.3152  0.5226
   38POPC   H2S 5073   3.647   5.898   6.554  2.4092  0.3987  0.5818
   38POPC    C3 5074   3.294   5.834   6.168  0.6656  0.4539 -0.1144
   38POPC    HX 5075   3.265   5.727   6.171 -0.6065  0.7872 -0.1824
   38POPC    HY 5076   3.252   5.857   6.068  3.3632  0.4702 -1.2815
   38POPC   O31 5077   3.229   5.916   6.273 -0.4775 -0.1164 -0.2263
   38POPC   C31 5078   3.288   6.034   6.309 -0.3835  0.5976  0.2961
   38POPC   O32 5079   3.369   6.098   6.244 -0.2002  0.0109  0.3042
   38POPC   C32 5080   3.217   6.091   6.430  0.2723 -0.3911 -0.2609
   38POPC   H2X 5081   3.159   6.007   6.471  0.5672 -0.5116 -0.0917
   38POPC   H2Y 5082   3.134   6.158   6.399 -0.2874 -0.3069  1.3771
   38POPC   C23 5083   3.815   5.787   6.473 -0.3298  0.2779  0.1122
   38POPC   H3R 5084   3.871   5.879   6.446 -0.7345  0.5405  0.1738
   38POPC   H3S 5085   3.840   5.703   6.405  1.1413 -0.8801  2.0323
   38POPC   C24 5086   3.884   5.754   6.609  0.0179  0.3442  0.0123
   38POPC   H4R 5087   3.988   5.726   6.582 -0.4919 -0.0384 -1.6048
   38POPC   H4S 5088   3.855   5.659   6.659 -1.0292 -0.8578 -2.7412
   38POPC   C25 5089   3.879   5.869   6.707 -0.4731 -1.0659 -0.3493
   38POPC   H5R 5090   3.779   5.909   6.737  0.0078 -0.2387  0.1697
   38POPC   H5S 5091   3.943   5.953   6.673 -0.3462  0.1352  2.7351
   38POPC   C26 5092   3.946   5.829   6.847 -0.6168 -0.2404  0.6734
   38POPC   H6R 5093   4.055   5.820   6.828 -0.8251 -0.0843 -0.6595
   38POPC   H6S 5094   3.904   5.734   6.885 -1.8362 -0.0947 -0.2552
   38POPC   C27 5095   3.929   5.938   6.953 -0.1763  0.0129 -0.4025
   38POPC   H7R 5096   3.822   5.958   6.974 -0.2923 -0.2357 -0.7393
   38POPC   H7S 5097   3.978   6.027   6.909 -0.2617  0.1746 -0.1692
   38POPC   C28 5098   4.005   5.917   7.087  0.5315 -0.1957 -0.0210
   38POPC   H8R 5099   4.111   5.896   7.062  0.0235 -1.3298 -1.3247
   38POPC   H8S 5100   3.971   5.834   7.153  1.2247  0.7774  1.5907
   38POPC   C29 5101   3.988   6.046   7.163  0.1788  0.1084 -0.1560
   38POPC   H91 5102   3.959   6.127   7.094 -0.5502 -1.1366 -1.3491
   38POPC  C210 5103   4.001   6.058   7.290 -0.0684  0.3489  0.3664
   38POPC  H101 5104   3.967   6.152   7.335 -1.2029 -0.1007  0.4678
   38POPC  C211 5105   4.034   5.955   7.390  0.0518 -0.5012  0.1311
   38POPC  H11R 5106   4.084   5.874   7.334 -0.0303  0.7422 -1.7916
   38POPC  H11S 5107   3.936   5.909   7.415  0.2746 -0.9036  0.2752
   38POPC  C212 5108   4.096   5.985   7.531  0.0878  0.0514 -0.1809
   38POPC  H12R 5109   4.196   6.030   7.514  0.5039 -0.7314  0.1737
   38POPC  H12S 5110   4.114   5.890   7.586 -3.5915 -0.2883  0.5309
   38POPC  C213 5111   4.005   6.072   7.621  0.4401 -0.2279  0.0497
   38POPC  H13R 5112   3.903   6.036   7.599  0.7816 -1.4493  0.4118
   38POPC  H13S 5113   4.022   6.176   7.587  3.6053 -1.0138 -1.0155
   38POPC  C214 5114   4.042   6.052   7.768 -0.8612  0.3407 -0.7731
   38POPC  H14R 5115   4.042   5.945   7.795 -0.3699  0.1428 -1.5527
   38POPC  H14S 5116   3.960   6.108   7.819  0.5680  2.9500 -1.2265
   38POPC  C215 5117   4.175   6.113   7.811  0.6125  0.0179 -0.0502
   38POPC  H15R 5118   4.161   6.221   7.787  2.7361 -0.1085 -2.0749
   38POPC  H15S 5119   4.253   6.074   7.742 -0.7347 -3.4188  0.3070
   38POPC  C216 5120   4.222   6.073   7.951  0.1005  0.1743  0.6849
   38POPC  H16R 5121   4.232   5.962   7.956 -0.0572  0.1294  0.0991
   38POPC  H16S 5122   4.143   6.104   8.023 -0.9880  0.4943 -0.6196
   38POPC  C217 5123   4.361   6.120   7.983  0.5131  0.2437 -0.0599
   38POPC  H17R 5124   4.384   6.105   8.091  0.2125  0.0719 -0.0187
   38POPC  H17S 5125   4.364   6.231   7.981 -3.6988  0.4305 -0.9782
   38POPC  C218 5126   4.476   6.075   7.890  0.6882  0.5554  0.0220
   38POPC  H18R 5127   4.476   5.964   7.883 -2.3167  0.4080  1.5537
   38POPC  H18S 5128   4.578   6.117   7.904  1.3546  0.1846 -3.2584
   38POPC  H18T 5129   4.445   6.099   7.786 -2.9095  1.0273  1.1472
   38POPC   C33 5130   3.310   6.123   6.544 -0.4338 -0.6300 -0.2962
   38POPC   H3X 5131   3.251   6.178   6.620  1.6454 -0.9554  1.6179
   38POPC   H3Y 5132   3.392   6.187   6.506  0.6767 -1.8036  0.0833
   38POPC   C34 5133   3.378   6.005   6.617  0.2859 -1.6058 -0.2797
   38POPC   H4X 5134   3.431   5.940   6.544  0.8697  0.5545 -1.8546
   38POPC   H4Y 5135   3.302   5.954   6.680 -0.0911  0.8251  1.2822
   38POPC   C35 5136   3.463   6.059   6.726  0.7113  0.9239 -0.2072
   38POPC   H5X 5137   3.535   6.139   6.701 -0.3703  0.5345 -5.0459
   38POPC   H5Y 5138   3.525   5.977   6.769  0.5177  0.9942  0.2067
   38POPC   C36 5139   3.384   6.107   6.852  0.8176  0.7093 -0.2323
   38POPC   H6X 5140   3.337   6.011   6.882 -1.7623  0.8906 -3.4607
   38POPC   H6Y 5141   3.311   6.186   6.823 -0.0135  0.1232  0.2702
   38POPC   C37 5142   3.468   6.176   6.962  0.7083 -0.8628 -1.1683
   38POPC   H7X 5143   3.400   6.225   7.035  2.3373  0.0689 -0.2329
   38POPC   H7Y 5144   3.531   6.252   6.910  0.4399 -1.4175 -2.3183
   38POPC   C38 5145   3.561   6.084   7.048 -0.8682  0.0096 -0.5791
   38POPC   H8X 5146   3.638   6.043   6.979 -0.1204  1.3285 -0.5422
   38POPC   H8Y 5147   3.493   6.005   7.087  0.5605 -0.1468  1.6398
   38POPC   C39 5148   3.630   6.153   7.161  0.3758 -0.3076 -1.6040
   38POPC   H9X 5149   3.677   6.247   7.125  0.6147  0.6050  1.0191
   38POPC   H9Y 5150   3.717   6.097   7.201  0.1189  0.4079 -0.0462
   38POPC  C310 5151   3.539   6.176   7.279  0.0298  0.1243  0.1618
   38POPC  H10X 5152   3.477   6.086   7.296  1.7961 -1.2160 -0.3866
   38POPC  H10Y 5153   3.465   6.257   7.260 -1.0828 -1.1632 -1.0559
   38POPC  C311 5154   3.615   6.216   7.411 -0.0025  0.5566  0.6034
   38POPC  H11X 5155   3.681   6.300   7.384  2.1682 -1.1143  0.5706
   38POPC  H11Y 5156   3.677   6.135   7.456  2.2904  1.5445 -0.7003
   38POPC  C312 5157   3.512   6.260   7.513 -0.1588 -0.7712 -0.2109
   38POPC  H12X 5158   3.457   6.165   7.533  0.0515 -0.7951  0.2626
   38POPC  H12Y 5159   3.440   6.335   7.474  1.7341  0.6657 -1.0201
   38POPC  C313 5160   3.583   6.312   7.641 -0.2471 -0.3683 -0.0820
   38POPC  H13X 5161   3.622   6.414   7.620  2.8638 -1.3233  0.7958
   38POPC  H13Y 5162   3.664   6.240   7.668  2.7076  1.5295 -3.3449
   38POPC  C314 5163   3.484   6.315   7.758 -0.0574 -0.2197 -0.4673
   38POPC  H14X 5164   3.531   6.354   7.851 -3.0023  2.4187  0.0044
   38POPC  H14Y 5165   3.433   6.218   7.775  2.1672 -1.3522 -0.0300
   38POPC  C315 5166   3.374   6.425   7.741  0.7102 -0.6085 -0.0510
   38POPC  H15X 5167   3.303   6.395   7.661 -0.0139 -0.4395  0.5163
   38POPC  H15Y 5168   3.431   6.515   7.709 -0.5107 -0.3314 -1.4979
   38POPC  C316 5169   3.301   6.460   7.873  0.4814 -0.4708 -0.6946
   38POPC  H16X 5170   3.231   6.545   7.859  0.7545 -0.1629 -0.2228
   38POPC  H16Y 5171   3.358   6.479   7.967  1.3592  1.8258 -1.6568
   38POPC  H16Z 5172   3.244   6.371   7.906 -0.6364  0.4516 -0.0727
   39POPC     N 5173   1.316   2.730   5.688 -0.5072  0.3432  0.5382
   39POPC   C12 5174   1.345   2.751   5.837  0.3620 -0.5994 -0.2588
   39POPC  H12A 5175   1.269   2.706   5.900  0.8140  0.4294  1.0448
   39POPC  H12B 5176   1.338   2.857   5.854  0.5585 -0.6971  0.4552
   39POPC   C13 5177   1.429   2.788   5.609  0.0950 -0.7964 -0.4208
   39POPC  H13A 5178   1.454   2.889   5.639 -0.4292 -0.6513 -0.4664
   39POPC  H13B 5179   1.517   2.727   5.621 -0.1997 -0.7286  2.4195
   39POPC  H13C 5180   1.407   2.799   5.504 -1.6822  3.9076  0.3407
   39POPC   C14 5181   1.284   2.590   5.658  0.6356  0.6252  0.3065
   39POPC  H14A 5182   1.227   2.544   5.738 -0.1015  3.8537  1.7009
   39POPC  H14B 5183   1.237   2.575   5.562 -1.3505 -2.7073  1.7114
   39POPC  H14C 5184   1.375   2.531   5.650 -1.4068 -2.7884  1.3319
   39POPC   C15 5185   1.200   2.813   5.656 -0.1364 -0.3590  0.7983
   39POPC  H15A 5186   1.121   2.778   5.722  0.8089  0.2062  2.2462
   39POPC  H15B 5187   1.185   2.807   5.549  0.6540  0.8139  0.6103
   39POPC  H15C 5188   1.211   2.917   5.682 -0.2955  0.6696 -2.9823
   39POPC   C11 5189   1.479   2.712   5.900 -0.6911 -0.5595  0.2590
   39POPC  H11A 5190   1.483   2.603   5.881  0.8911 -0.7255  1.4550
   39POPC  H11B 5191   1.479   2.719   6.011  2.0420 -1.1811  0.3239
   39POPC     P 5192   1.610   2.929   5.905 -0.2734 -0.4445 -0.4439
   39POPC   O13 5193   1.487   3.007   5.887 -0.3656 -0.4044  0.9796
   39POPC   O14 5194   1.733   2.978   5.840  0.1605  0.3496 -0.1832
   39POPC   O12 5195   1.587   2.783   5.843  0.7333 -0.0379  0.1768
   39POPC   O11 5196   1.659   2.908   6.063  0.3795  0.3296 -0.0396
   39POPC    C1 5197   1.788   2.857   6.084  0.3459  0.7276  0.0118
   39POPC    HA 5198   1.820   2.886   6.186  3.5618  0.9001 -1.0062
   39POPC    HB 5199   1.870   2.896   6.020 -0.5083  1.0908 -0.8896
   39POPC    C2 5200   1.778   2.700   6.074 -0.3719  0.0862 -0.3348
   39POPC    HS 5201   1.769   2.682   5.964 -0.7065 -0.4458 -0.2263
   39POPC   O21 5202   1.669   2.653   6.159  0.1364 -0.1320 -0.0552
   39POPC   C21 5203   1.626   2.526   6.135  0.3085  0.6926  0.6482
   39POPC   O22 5204   1.676   2.451   6.053  0.0527 -0.1334  0.0607
   39POPC   C22 5205   1.526   2.485   6.244 -0.0857  0.2235  0.7202
   39POPC   H2R 5206   1.469   2.579   6.258 -0.4265  0.0822  0.3031
   39POPC   H2S 5207   1.577   2.459   6.339 -5.4133 -3.0035  2.9008
   39POPC    C3 5208   1.910   2.634   6.133 -0.1328 -0.6519 -0.0505
   39POPC    HX 5209   2.002   2.678   6.090  2.8379 -2.0332  4.5497
   39POPC    HY 5210   1.915   2.538   6.078 -0.0425 -0.2661 -0.7085
   39POPC   O31 5211   1.907   2.630   6.273  0.5453  0.0726  0.0941
   39POPC   C31 5212   1.979   2.719   6.343 -0.9176 -0.2600  0.0685
   39POPC   O32 5213   2.046   2.804   6.291 -0.4760 -0.5171 -0.0732
   39POPC   C32 5214   1.945   2.707   6.493 -0.0278  0.4394 -0.2200
   39POPC   H2X 5215   1.837   2.726   6.513 -0.3129 -0.1541 -1.1469
   39POPC   H2Y 5216   1.973   2.601   6.513 -0.0372  0.6320  0.8419
   39POPC   C23 5217   1.431   2.364   6.202 -0.4190 -0.1091  0.3521
   39POPC   H3R 5218   1.392   2.391   6.102  0.2325 -0.9244 -0.1291
   39POPC   H3S 5219   1.350   2.367   6.279  0.5414  2.1120  1.2965
   39POPC   C24 5220   1.486   2.225   6.219  0.3368  0.8579 -0.2850
   39POPC   H4R 5221   1.587   2.227   6.174  1.1983  0.2743  1.5971
   39POPC   H4S 5222   1.419   2.151   6.170  0.1860  1.1970 -0.5916
   39POPC   C25 5223   1.488   2.180   6.368  0.5475  0.2928  0.4825
   39POPC   H5R 5224   1.397   2.199   6.429 -1.1144 -0.4838 -1.6609
   39POPC   H5S 5225   1.561   2.242   6.424  1.8923  0.1512 -1.0577
   39POPC   C26 5226   1.515   2.027   6.396 -0.4235  0.5308  0.5412
   39POPC   H6R 5227   1.437   1.973   6.339  2.5572 -1.2799 -1.9522
   39POPC   H6S 5228   1.500   2.020   6.506 -1.3112  1.9983  0.5269
   39POPC   C27 5229   1.656   1.982   6.354  0.1188  0.7623 -0.0822
   39POPC   H7R 5230   1.733   2.026   6.420 -1.7978  1.6943  1.5905
   39POPC   H7S 5231   1.679   2.028   6.256  1.3046  0.0586 -0.1413
   39POPC   C28 5232   1.662   1.828   6.335 -0.3156 -0.0731 -0.2393
   39POPC   H8R 5233   1.621   1.788   6.241  0.3840  2.8431 -1.8606
   39POPC   H8S 5234   1.590   1.782   6.406 -0.3085 -0.0603 -0.2241
   39POPC   C29 5235   1.808   1.794   6.368 -0.8071  0.7667 -0.1181
   39POPC   H91 5236   1.886   1.855   6.321  1.0783 -2.2716 -1.0800
   39POPC  C210 5237   1.840   1.701   6.458 -0.3321  0.3733  0.4423
   39POPC  H101 5238   1.945   1.668   6.463 -0.6599 -0.4583  1.8415
   39POPC  C211 5239   1.750   1.606   6.538  0.0264  0.4646  0.8483
   39POPC  H11R 5240   1.789   1.502   6.538 -0.7450  0.1647  1.9967
   39POPC  H11S 5241   1.647   1.609   6.494 -0.4836 -3.8195  1.5615
   39POPC  C212 5242   1.750   1.668   6.683  0.7717 -0.2531 -0.0498
   39POPC  H12R 5243   1.656   1.643   6.736 -0.0357  0.4197 -1.1423
   39POPC  H12S 5244   1.736   1.778   6.681 -0.4781 -0.4240 -4.0818
   39POPC  C213 5245   1.875   1.631   6.768 -0.8170 -1.0189 -0.2165
   39POPC  H13R 5246   1.958   1.616   6.697  1.1009 -0.1409  1.7792
   39POPC  H13S 5247   1.853   1.531   6.812 -1.0401  0.5835  3.5772
   39POPC  C214 5248   1.925   1.740   6.872 -0.2707  0.1644  0.1205
   39POPC  H14R 5249   1.950   1.839   6.829 -0.9507  0.2953  0.0282
   39POPC  H14S 5250   2.014   1.703   6.928 -0.8166 -0.9838  0.2440
   39POPC  C215 5251   1.821   1.777   6.979  0.4599 -0.1878  0.1132
   39POPC  H15R 5252   1.795   1.685   7.035  0.1591  0.5198  1.1430
   39POPC  H15S 5253   1.720   1.803   6.941  0.4001  2.0655  1.7257
   39POPC  C216 5254   1.880   1.890   7.062 -0.3341  0.5292 -0.1538
   39POPC  H16R 5255   1.855   1.988   7.015 -0.7854  0.3420 -0.3140
   39POPC  H16S 5256   1.987   1.872   7.083 -0.7486  1.1599  2.6254
   39POPC  C217 5257   1.799   1.897   7.196  0.4225 -0.3310  0.4032
   39POPC  H17R 5258   1.785   1.790   7.224  1.8134 -0.6167  0.0627
   39POPC  H17S 5259   1.695   1.934   7.184  0.2832 -0.2555  1.7546
   39POPC  C218 5260   1.862   1.985   7.306 -0.1511  0.4777 -0.1522
   39POPC  H18R 5261   1.841   2.093   7.293 -0.6531  0.3469 -0.4763
   39POPC  H18S 5262   1.970   1.960   7.304 -0.1785  0.2381  1.1017
   39POPC  H18T 5263   1.826   1.954   7.407  0.7223 -1.8413 -0.5197
   39POPC   C33 5264   2.029   2.801   6.583  0.0001 -0.0466  0.4488
   39POPC   H3X 5265   1.988   2.902   6.564 -0.3247  0.1292  2.0195
   39POPC   H3Y 5266   2.135   2.798   6.552 -0.4416 -1.8996 -1.0079
   39POPC   C34 5267   2.007   2.774   6.733 -0.1150  0.0008  0.2716
   39POPC   H4X 5268   2.068   2.687   6.762  0.3226  1.3139  3.4495
   39POPC   H4Y 5269   1.901   2.741   6.735  0.1596 -1.2497 -2.8074
   39POPC   C35 5270   2.045   2.888   6.828  0.1636  0.3045 -0.2593
   39POPC   H5X 5271   2.007   2.871   6.931  0.1191  1.8978  0.0046
   39POPC   H5Y 5272   1.986   2.978   6.800  2.3860  2.5068  1.7711
   39POPC   C36 5273   2.197   2.917   6.835 -0.1770  0.4687 -0.5101
   39POPC   H6X 5274   2.233   2.940   6.732  0.8115  1.2887  0.0124
   39POPC   H6Y 5275   2.237   2.817   6.861 -0.2397  0.1302 -1.6692
   39POPC   C37 5276   2.245   3.031   6.922 -0.4232  0.6060  0.3718
   39POPC   H7X 5277   2.198   2.996   7.017 -1.7805  1.3549 -0.0156
   39POPC   H7Y 5278   2.204   3.132   6.899 -1.1280  0.0523 -0.8699
   39POPC   C38 5279   2.395   3.043   6.942 -0.1524  0.0652 -0.2714
   39POPC   H8X 5280   2.419   3.147   6.973  2.0097 -0.2073 -0.9374
   39POPC   H8Y 5281   2.448   3.032   6.846 -2.4122  1.2499 -1.6973
   39POPC   C39 5282   2.453   2.950   7.052  0.1061  0.0533  0.4814
   39POPC   H9X 5283   2.564   2.954   7.063  0.0891  0.4087  0.5279
   39POPC   H9Y 5284   2.430   2.846   7.023 -1.9140  0.7925 -0.6711
   39POPC  C310 5285   2.395   2.966   7.196  0.1157  0.6409  0.0772
   39POPC  H10X 5286   2.289   2.934   7.193  0.3318 -0.0280 -0.7786
   39POPC  H10Y 5287   2.402   3.073   7.226  0.1235  1.2896 -2.0975
   39POPC  C311 5288   2.462   2.882   7.307  0.1589 -0.2950  0.0513
   39POPC  H11X 5289   2.564   2.920   7.331  0.4238 -1.1862  0.3357
   39POPC  H11Y 5290   2.482   2.780   7.269 -1.6995  0.4068 -3.0115
   39POPC  C312 5291   2.369   2.877   7.428 -1.1866  0.5424 -0.0090
   39POPC  H12X 5292   2.268   2.841   7.399 -0.7508 -0.6052 -0.1259
   39POPC  H12Y 5293   2.353   2.972   7.482  1.7695  2.8297 -2.9631
   39POPC  C313 5294   2.435   2.792   7.539 -0.1045  0.4834 -0.1703
   39POPC  H13X 5295   2.532   2.843   7.558 -1.5698  3.6709 -0.9248
   39POPC  H13Y 5296   2.445   2.685   7.514 -1.0817  0.3518 -0.0242
   39POPC  C314 5297   2.332   2.812   7.655 -0.1381  0.6383 -0.1640
   39POPC  H14X 5298   2.233   2.762   7.642 -0.2106  1.2156 -1.9778
   39POPC  H14Y 5299   2.314   2.921   7.666 -0.8496  0.2183  3.2010
   39POPC  C315 5300   2.385   2.760   7.793  0.1735  0.0070 -0.1083
   39POPC  H15X 5301   2.458   2.835   7.832  0.1074 -0.1750  0.3735
   39POPC  H15Y 5302   2.451   2.673   7.775 -1.5629 -1.5638  0.8614
   39POPC  C316 5303   2.273   2.724   7.887 -0.0653 -0.5231 -0.3362
   39POPC  H16X 5304   2.329   2.699   7.980 -2.9291  0.7333  1.7775
   39POPC  H16Y 5305   2.200   2.647   7.855 -1.2139  0.7853 -0.8723
   39POPC  H16Z 5306   2.214   2.814   7.914  0.9177  0.1092 -0.2728
   40POPC     N 5307   6.514   0.984   5.781 -0.1306  0.0593  0.0738
   40POPC   C12 5308   6.428   0.937   5.668  0.3232  0.0978 -0.3683
   40POPC  H12A 5309   6.490   0.901   5.587 -0.9330 -2.0495 -0.4166
   40POPC  H12B 5310   6.370   1.018   5.625 -0.1924  1.2728  2.4295
   40POPC   C13 5311   6.611   0.876   5.820 -0.4887  0.0132  0.0741
   40POPC  H13A 5312   6.562   0.780   5.819 -0.6243  0.0814 -2.5959
   40POPC  H13B 5313   6.694   0.871   5.751  0.1311 -3.6349  0.9915
   40POPC  H13C 5314   6.638   0.897   5.923 -0.3677  0.4914 -0.0503
   40POPC   C14 5315   6.597   1.099   5.736  0.9792  0.1542 -0.4134
   40POPC  H14A 5316   6.673   1.126   5.808  1.1693 -1.1291 -0.1342
   40POPC  H14B 5317   6.652   1.083   5.644  0.2808 -2.2640 -0.4238
   40POPC  H14C 5318   6.535   1.186   5.718 -0.9860 -0.7263  1.8804
   40POPC   C15 5319   6.433   1.019   5.896 -0.0204  0.0091 -0.1399
   40POPC  H15A 5320   6.496   1.055   5.977 -0.2318 -1.1641  0.5481
   40POPC  H15B 5321   6.390   0.931   5.941  0.6237 -0.3718 -0.2667
   40POPC  H15C 5322   6.355   1.093   5.885  0.8132  1.8457  4.7113
   40POPC   C11 5323   6.323   0.822   5.703 -0.1982  0.5405 -0.2911
   40POPC  H11A 5324   6.249   0.811   5.621 -0.2322 -1.2787 -0.0556
   40POPC  H11B 5325   6.261   0.853   5.790 -0.5767 -0.7432 -0.0845
   40POPC     P 5326   6.388   0.574   5.640 -0.2183 -0.0076  0.1126
   40POPC   O13 5327   6.476   0.474   5.702  0.3241  0.1047  0.0924
   40POPC   O14 5328   6.421   0.611   5.501  0.1933 -0.3893  0.0471
   40POPC   O12 5329   6.401   0.705   5.731 -0.3176  0.1231  0.6548
   40POPC   O11 5330   6.231   0.528   5.641  0.0579  0.1641  0.0028
   40POPC    C1 5331   6.182   0.500   5.771  0.0183  0.7034  0.2323
   40POPC    HA 5332   6.230   0.553   5.856  1.2062 -3.3013  2.1585
   40POPC    HB 5333   6.186   0.391   5.792  0.2903  0.2082 -2.1937
   40POPC    C2 5334   6.036   0.553   5.767  0.2242 -1.0374 -0.4792
   40POPC    HS 5335   6.002   0.546   5.662 -2.4078  1.5444  0.1382
   40POPC   O21 5336   6.040   0.682   5.822 -0.6967 -0.1693 -0.1000
   40POPC   C21 5337   5.945   0.763   5.772  0.4300  0.2349 -0.4157
   40POPC   O22 5338   5.856   0.728   5.694  0.7370 -0.1231  0.7475
   40POPC   C22 5339   5.940   0.899   5.845 -0.1689  0.0185 -0.5099
   40POPC   H2R 5340   5.839   0.942   5.830 -0.9590 -1.9234 -0.8792
   40POPC   H2S 5341   6.013   0.963   5.791  1.2587 -1.4984 -0.4266
   40POPC    C3 5342   5.937   0.468   5.857  0.1163  0.5804 -0.4075
   40POPC    HX 5343   5.951   0.359   5.843 -1.7747  0.1984  0.4691
   40POPC    HY 5344   5.835   0.488   5.818 -0.9220 -1.4827  1.1533
   40POPC   O31 5345   5.956   0.498   5.995 -0.0120 -0.1234  0.3259
   40POPC   C31 5346   6.034   0.423   6.064 -0.5630 -0.1763 -0.4642
   40POPC   O32 5347   6.094   0.321   6.028 -0.0481 -0.6916 -0.1568
   40POPC   C32 5348   6.028   0.466   6.216 -0.4437  0.7857  0.6731
   40POPC   H2X 5349   6.002   0.373   6.271 -1.5957  0.4083 -0.4778
   40POPC   H2Y 5350   5.953   0.547   6.228 -0.1143  1.1617  0.2290
   40POPC   C23 5351   5.972   0.889   5.999 -0.1816  0.0539 -0.2073
   40POPC   H3R 5352   5.910   0.809   6.047  1.2983 -1.8884 -1.4625
   40POPC   H3S 5353   5.928   0.979   6.046 -1.3314 -0.1901 -0.7986
   40POPC   C24 5354   6.117   0.893   6.042 -0.1828 -0.5503 -0.6223
   40POPC   H4R 5355   6.167   0.978   5.990 -1.6931  2.1058  2.0795
   40POPC   H4S 5356   6.156   0.793   6.013 -0.6412 -0.9740  0.2130
   40POPC   C25 5357   6.127   0.918   6.193  0.5103 -0.2672 -0.5077
   40POPC   H5R 5358   6.053   0.855   6.247  0.7225 -0.2090 -0.1519
   40POPC   H5S 5359   6.087   1.020   6.212  0.9025 -0.3408  0.7436
   40POPC   C26 5360   6.271   0.920   6.243 -0.2224  0.1942  0.8837
   40POPC   H6R 5361   6.334   0.951   6.157 -0.6017 -0.4463  0.3689
   40POPC   H6S 5362   6.302   0.816   6.264  1.9001  0.5133 -0.5431
   40POPC   C27 5363   6.309   1.018   6.356 -0.2656  0.4683  0.1829
   40POPC   H7R 5364   6.259   0.991   6.451  2.2432  0.6946  1.6327
   40POPC   H7S 5365   6.280   1.118   6.317  1.0852  1.2428  1.1150
   40POPC   C28 5366   6.458   1.018   6.382  0.1963 -0.4681 -0.1043
   40POPC   H8R 5367   6.475   1.104   6.450  4.1218 -0.9598 -0.3333
   40POPC   H8S 5368   6.518   1.044   6.292  0.8179  1.1090  0.7428
   40POPC   C29 5369   6.511   0.891   6.446 -0.2812 -0.0310 -0.5097
   40POPC   H91 5370   6.526   0.813   6.370  0.6582 -2.6016  2.1783
   40POPC  C210 5371   6.536   0.868   6.574  0.2912  0.2977 -0.6724
   40POPC  H101 5372   6.574   0.767   6.598 -2.2653  0.0687  2.7575
   40POPC  C211 5373   6.516   0.967   6.689  0.2071 -0.0780 -0.0573
   40POPC  H11R 5374   6.443   1.041   6.649  2.2493  1.2211 -1.4388
   40POPC  H11S 5375   6.612   1.014   6.716  0.9208 -1.2408 -0.5571
   40POPC  C212 5376   6.460   0.898   6.818 -0.1803  0.9048 -0.9463
   40POPC  H12R 5377   6.363   0.856   6.782 -0.9666  2.2855 -0.4682
   40POPC  H12S 5378   6.436   0.977   6.893 -0.1158 -0.4595  0.5561
   40POPC  C213 5379   6.560   0.800   6.884  0.1642 -0.2264  0.5600
   40POPC  H13R 5380   6.643   0.859   6.927 -0.7791  0.4380  1.4951
   40POPC  H13S 5381   6.596   0.728   6.807 -1.5854 -2.1143  1.4718
   40POPC  C214 5382   6.498   0.715   6.992  0.3486 -0.5775 -0.4958
   40POPC  H14R 5383   6.404   0.667   6.960 -0.1597 -0.0132  0.1372
   40POPC  H14S 5384   6.466   0.780   7.076 -1.8814 -0.5471 -1.3465
   40POPC  C215 5385   6.597   0.607   7.040 -0.4090 -0.3155 -0.3519
   40POPC  H15R 5386   6.688   0.656   7.079  0.7648 -1.8786 -1.0671
   40POPC  H15S 5387   6.627   0.545   6.952 -1.3559 -0.5028 -0.5589
   40POPC  C216 5388   6.535   0.522   7.147  0.0876  0.3212 -0.6316
   40POPC  H16R 5389   6.567   0.416   7.138 -2.3038 -0.3275 -1.8895
   40POPC  H16S 5390   6.425   0.511   7.135  0.0072 -1.0182  1.1625
   40POPC  C217 5391   6.567   0.567   7.293 -1.0648  0.1312  0.1837
   40POPC  H17R 5392   6.498   0.513   7.362 -1.0180 -0.0264  0.1061
   40POPC  H17S 5393   6.548   0.675   7.310  2.2947  1.4082 -3.3841
   40POPC  C218 5394   6.708   0.523   7.341  0.7230  0.1866  0.0385
   40POPC  H18R 5395   6.730   0.419   7.307  0.7855 -0.3764  1.7621
   40POPC  H18S 5396   6.719   0.529   7.451  2.6610  2.8001 -0.2387
   40POPC  H18T 5397   6.793   0.581   7.298 -0.7618  0.3302 -2.8182
   40POPC   C33 5398   6.162   0.504   6.275 -0.7613 -0.9158  0.0014
   40POPC   H3X 5399   6.200   0.604   6.244 -2.6565  0.0404  0.7292
   40POPC   H3Y 5400   6.237   0.427   6.249  1.5711  2.0904 -2.5643
   40POPC   C34 5401   6.165   0.511   6.426  0.3334  0.4138 -0.1657
   40POPC   H4X 5402   6.153   0.405   6.459 -0.9901  1.6265  3.4698
   40POPC   H4Y 5403   6.083   0.571   6.470 -0.5917 -1.7027  1.0741
   40POPC   C35 5404   6.294   0.586   6.474 -0.3736 -0.0170 -0.8336
   40POPC   H5X 5405   6.266   0.693   6.463 -1.9897 -0.6204 -2.8765
   40POPC   H5Y 5406   6.380   0.561   6.409 -0.1485 -0.7697 -0.2652
   40POPC   C36 5407   6.335   0.558   6.616  0.2211  0.5380 -0.7160
   40POPC   H6X 5408   6.261   0.598   6.688  0.7489  0.3204 -0.0484
   40POPC   H6Y 5409   6.424   0.622   6.631  1.1126 -0.9655  0.4954
   40POPC   C37 5410   6.367   0.410   6.651 -0.0122 -0.0678  0.6576
   40POPC   H7X 5411   6.468   0.404   6.604  0.7822  0.4916  2.2580
   40POPC   H7Y 5412   6.301   0.336   6.601  1.7038  0.2884 -2.2602
   40POPC   C38 5413   6.384   0.389   6.801 -0.0002 -0.1759 -0.0436
   40POPC   H8X 5414   6.299   0.413   6.868  1.8665 -1.1820  2.7731
   40POPC   H8Y 5415   6.469   0.453   6.831  0.5694 -0.9452  0.0134
   40POPC   C39 5416   6.434   0.249   6.818 -0.5046 -0.4443  0.4115
   40POPC   H9X 5417   6.535   0.235   6.774  0.7196  0.8325  2.7014
   40POPC   H9Y 5418   6.373   0.184   6.751  3.3820 -1.6700 -2.0572
   40POPC  C310 5419   6.444   0.188   6.959  0.3363  0.0256  0.7664
   40POPC  H10X 5420   6.479   0.274   7.021 -2.1104  1.1099  0.7022
   40POPC  H10Y 5421   6.504   0.095   6.951 -0.8756 -0.7306  0.2265
   40POPC  C311 5422   6.309   0.128   7.005 -0.0682  0.3795 -0.3874
   40POPC  H11X 5423   6.307   0.027   6.960  1.2052  0.2410 -0.1499
   40POPC  H11Y 5424   6.221   0.183   6.967  0.3018  0.3840 -1.2575
   40POPC  C312 5425   6.308   0.126   7.157  0.0995 -0.2578  0.5344
   40POPC  H12X 5426   6.402   0.162   7.204  0.6642 -4.0845  2.5151
   40POPC  H12Y 5427   6.304   0.019   7.188 -1.3562 -0.4684 -0.3460
   40POPC  C313 5428   6.188   0.192   7.226 -0.8553  0.1006 -0.9808
   40POPC  H13X 5429   6.094   0.146   7.190 -0.2460 -0.0754 -2.3604
   40POPC  H13Y 5430   6.192   0.303   7.219  3.5813 -0.0464 -2.5571
   40POPC  C314 5431   6.201   0.161   7.380  0.5557 -0.5219 -0.4713
   40POPC  H14X 5432   6.203   0.050   7.389  1.3336 -0.7732 -3.0989
   40POPC  H14Y 5433   6.101   0.186   7.420 -1.4385 -1.3152 -4.6919
   40POPC  C315 5434   6.322   0.230   7.454  0.3676 -0.2220 -0.5860
   40POPC  H15X 5435   6.314   0.340   7.449  1.1944 -0.0990  0.5534
   40POPC  H15Y 5436   6.418   0.197   7.408  0.3085 -0.3103 -0.6456
   40POPC  C316 5437   6.326   0.193   7.604  0.2791  0.5076  0.6082
   40POPC  H16X 5438   6.226   0.221   7.645 -0.5049 -1.5527  0.1958
   40POPC  H16Y 5439   6.408   0.246   7.657  1.0899 -0.2211  0.0981
   40POPC  H16Z 5440   6.347   0.084   7.610  1.8126  0.7933  0.4708
   41CHL1    C3 5441   4.367   3.916   9.512  0.1937 -0.7040  0.3400
   41CHL1    H3 5442   4.464   3.968   9.496 -0.5803  0.0835 -2.1609
   41CHL1    O3 5443   4.387   3.839   9.621 -0.0231 -0.1173 -0.5229
   41CHL1   H3' 5444   4.311   3.781   9.629 -1.5897  1.5552 -2.7883
   41CHL1    C4 5445   4.266   4.029   9.534  0.3093  0.1277 -0.6586
   41CHL1   H4A 5446   4.165   3.988   9.559 -0.3734  0.9360 -2.0387
   41CHL1   H4B 5447   4.301   4.087   9.622  1.5433  0.4290 -1.3431
   41CHL1    C5 5448   4.247   4.114   9.411 -0.3721 -0.2993  0.2332
   41CHL1    C6 5449   4.276   4.247   9.405  0.0098  0.2800 -0.1162
   41CHL1    H6 5450   4.306   4.297   9.499  1.6082  2.2907 -1.6426
   41CHL1    C7 5451   4.251   4.335   9.288  0.4068 -0.2016  0.5175
   41CHL1   H7A 5452   4.212   4.436   9.314  1.5915  0.0832  1.1810
   41CHL1   H7B 5453   4.348   4.346   9.235  1.6360  0.9211  2.9596
   41CHL1    C8 5454   4.159   4.274   9.180  0.7413  0.9658 -0.0803
   41CHL1    H8 5455   4.053   4.276   9.215 -0.2340  0.4325 -2.8797
   41CHL1   C14 5456   4.162   4.351   9.045  0.1776  0.0709 -0.1808
   41CHL1   H14 5457   4.265   4.326   9.011 -0.3739 -2.4318 -0.0687
   41CHL1   C15 5458   4.144   4.501   9.042  0.7184 -0.2727 -0.3925
   41CHL1  H15A 5459   4.062   4.527   9.113  0.4923 -0.4471 -0.5864
   41CHL1  H15B 5460   4.231   4.561   9.074  2.1911 -3.1533  1.1935
   41CHL1   C16 5461   4.105   4.539   8.900  0.4427  0.6892 -0.5680
   41CHL1  H16A 5462   3.998   4.568   8.904 -0.0548 -1.1622 -0.2680
   41CHL1  H16B 5463   4.170   4.618   8.855 -2.1284  2.8063 -0.6953
   41CHL1   C17 5464   4.094   4.403   8.825  0.2824 -0.1151  0.3460
   41CHL1   H17 5465   4.191   4.379   8.777  0.4087 -2.6860  1.8408
   41CHL1   C13 5466   4.072   4.296   8.933 -0.5616 -0.4501 -0.2026
   41CHL1   C18 5467   3.924   4.299   8.972 -0.0181 -0.3476  0.0027
   41CHL1  H18A 5468   3.864   4.293   8.879  1.1763 -0.3773 -0.7827
   41CHL1  H18B 5469   3.888   4.218   9.038  0.5685 -1.4503 -1.0203
   41CHL1  H18C 5470   3.902   4.397   9.020  0.4893  0.2946 -1.0730
   41CHL1   C12 5471   4.124   4.145   8.905  0.0131 -0.6818 -0.4086
   41CHL1  H12A 5472   4.059   4.079   8.843  0.6912 -1.5275 -0.2225
   41CHL1  H12B 5473   4.224   4.155   8.858 -0.3360  1.7896 -0.6640
   41CHL1   C11 5474   4.132   4.059   9.034 -0.1113 -0.8428 -0.6803
   41CHL1  H11A 5475   4.028   4.044   9.072  0.0172  0.6157  0.2758
   41CHL1  H11B 5476   4.177   3.960   9.010  0.2512 -1.1378  1.0952
   41CHL1    C9 5477   4.209   4.125   9.154  1.0230 -0.1557  0.0057
   41CHL1    H9 5478   4.318   4.129   9.133  0.9951  0.0985 -0.0988
   41CHL1   C10 5479   4.199   4.039   9.286  0.2432  0.0683 -0.3911
   41CHL1   C19 5480   4.053   3.995   9.313  0.3193  0.1922 -0.0272
   41CHL1  H19A 5481   4.049   3.948   9.413 -1.3280  1.5661  0.5840
   41CHL1  H19B 5482   3.987   4.083   9.326 -1.2137 -1.1510  1.4578
   41CHL1  H19C 5483   4.022   3.918   9.239  0.3277 -1.9417  2.1256
   41CHL1    C1 5484   4.297   3.915   9.263 -0.0881 -0.6534 -0.6948
   41CHL1   H1A 5485   4.257   3.844   9.187 -0.3202 -0.3623 -0.8432
   41CHL1   H1B 5486   4.393   3.961   9.232  0.1093  0.6056  1.7126
   41CHL1    C2 5487   4.333   3.828   9.391  0.1337  0.1273 -0.7150
   41CHL1   H2A 5488   4.413   3.758   9.359  0.6919 -0.5768  2.1442
   41CHL1   H2B 5489   4.251   3.756   9.412  1.5985 -1.9035 -1.7627
   41CHL1   C20 5490   4.005   4.413   8.699  0.9994  0.6301  0.7036
   41CHL1   H20 5491   3.900   4.433   8.729  0.2474  1.2735 -2.2206
   41CHL1   C21 5492   4.021   4.282   8.623 -0.0533 -0.4901  0.3623
   41CHL1  H21A 5493   4.126   4.280   8.585  0.7271  4.7215  1.8973
   41CHL1  H21B 5494   3.959   4.274   8.532 -2.0188 -0.4614  1.6784
   41CHL1  H21C 5495   3.982   4.200   8.688 -2.8748 -1.3002 -2.2242
   41CHL1   C22 5496   4.039   4.542   8.612  0.5877  0.1661 -0.1409
   41CHL1  H22A 5497   4.009   4.628   8.676  2.6666  2.2567 -1.8609
   41CHL1  H22B 5498   4.148   4.547   8.592  0.7072  0.1778  0.5197
   41CHL1   C23 5499   3.946   4.561   8.488  0.4413  0.6630  0.4946
   41CHL1  H23A 5500   3.956   4.468   8.428  1.4394  1.1577 -0.1012
   41CHL1  H23B 5501   3.839   4.569   8.519 -0.4075 -0.5910 -1.9693
   41CHL1   C24 5502   3.979   4.687   8.397  0.3471  0.3189  0.0838
   41CHL1  H24A 5503   3.972   4.779   8.459 -1.2764  0.2896 -0.0370
   41CHL1  H24B 5504   4.083   4.691   8.360  1.1603  1.1581  2.3961
   41CHL1   C25 5505   3.882   4.695   8.274  0.0849  0.1792  0.1700
   41CHL1   H25 5506   3.933   4.768   8.207  1.8778 -0.2918  0.9804
   41CHL1   C26 5507   3.865   4.574   8.195 -0.7081  0.2571  0.0641
   41CHL1  H26A 5508   3.799   4.599   8.110  0.6963  2.0018 -0.5565
   41CHL1  H26B 5509   3.958   4.532   8.150 -0.8340  1.3162 -1.2095
   41CHL1  H26C 5510   3.824   4.491   8.257  0.5476  0.3630  1.0668
   41CHL1   C27 5511   3.747   4.763   8.310  0.1173  0.0965 -0.1086
   41CHL1  H27A 5512   3.685   4.771   8.218 -0.6867  0.2825  0.4424
   41CHL1  H27B 5513   3.679   4.702   8.373 -0.2868 -0.1497 -0.7749
   41CHL1  H27C 5514   3.762   4.863   8.355  1.7558  0.8416 -2.1949
   42CHL1    C3 5515   3.055   4.120   9.371 -0.4843 -0.2065 -0.3347
   42CHL1    H3 5516   2.978   4.040   9.357 -0.2377 -0.4545 -0.2642
   42CHL1    O3 5517   3.107   4.108   9.509 -0.6098 -0.2950  0.3797
   42CHL1   H3' 5518   3.081   4.184   9.560  0.8248  1.4897 -1.4781
   42CHL1    C4 5519   3.169   4.117   9.275 -0.1802 -0.0192  0.2671
   42CHL1   H4A 5520   3.246   4.193   9.299  0.0786  0.1471 -1.0712
   42CHL1   H4B 5521   3.216   4.017   9.286  0.2278  0.0760 -0.6030
   42CHL1    C5 5522   3.130   4.138   9.125  0.6815 -0.1590 -0.1332
   42CHL1    C6 5523   3.157   4.047   9.038  1.3466  0.7497 -0.1227
   42CHL1    H6 5524   3.209   3.955   9.070 -1.4118 -2.0032 -3.0992
   42CHL1    C7 5525   3.145   4.069   8.891  0.5139 -0.5636 -0.4256
   42CHL1   H7A 5526   3.235   4.032   8.837  2.1923  0.5633  1.5645
   42CHL1   H7B 5527   3.063   4.003   8.855 -0.2751  0.5999 -0.7858
   42CHL1    C8 5528   3.097   4.211   8.853 -0.4326 -1.0464  0.5010
   42CHL1    H8 5529   3.187   4.275   8.855  0.0835 -1.6748 -1.3718
   42CHL1   C14 5530   3.036   4.221   8.713 -0.9585  0.3860  0.1420
   42CHL1   H14 5531   2.941   4.165   8.719  0.1547 -1.7458 -1.3088
   42CHL1   C15 5532   3.114   4.162   8.593  0.2996 -0.4825 -0.4380
   42CHL1  H15A 5533   3.222   4.182   8.608 -0.3137  1.7014  1.2673
   42CHL1  H15B 5534   3.096   4.052   8.591 -0.7324 -0.3311  0.0356
   42CHL1   C16 5535   3.066   4.233   8.468  0.8519  0.3382  0.5027
   42CHL1  H16A 5536   3.157   4.278   8.425  1.9026 -2.0915  0.0898
   42CHL1  H16B 5537   3.036   4.160   8.390 -1.3654  0.6156  1.0423
   42CHL1   C17 5538   2.964   4.338   8.513  0.2549 -0.4653 -0.4592
   42CHL1   H17 5539   2.861   4.296   8.518 -0.7462  1.7356 -1.7838
   42CHL1   C13 5540   2.993   4.364   8.668 -0.3791  0.6070  0.4643
   42CHL1   C18 5541   3.111   4.466   8.674  0.1262  0.1013 -0.0391
   42CHL1  H18A 5542   3.064   4.562   8.642 -0.3580 -0.2013 -0.2395
   42CHL1  H18B 5543   3.150   4.462   8.778 -1.4581  0.1732  0.5678
   42CHL1  H18C 5544   3.196   4.453   8.604 -0.8420  0.3494 -1.2719
   42CHL1   C12 5545   2.872   4.403   8.757 -0.5176 -0.3113 -0.7178
   42CHL1  H12A 5546   2.828   4.504   8.746 -1.2644 -0.5913 -0.3237
   42CHL1  H12B 5547   2.788   4.332   8.742 -0.5181 -0.1816 -1.3682
   42CHL1   C11 5548   2.923   4.403   8.901  0.2628 -0.9621 -0.5679
   42CHL1  H11A 5549   2.991   4.491   8.906 -0.1362 -0.5755 -1.7900
   42CHL1  H11B 5550   2.835   4.426   8.965 -1.5482 -0.7522 -3.0503
   42CHL1    C9 5551   2.990   4.268   8.953  0.4719 -0.4442 -0.8082
   42CHL1    H9 5552   2.909   4.193   8.945 -1.0176  1.0444  0.0913
   42CHL1   C10 5553   3.053   4.265   9.097  0.1159  0.5624 -0.4990
   42CHL1   C19 5554   3.147   4.389   9.105  0.0350 -0.0712 -0.3280
   42CHL1  H19A 5555   3.081   4.478   9.109  0.5466  0.2537  1.1772
   42CHL1  H19B 5556   3.203   4.395   9.201  1.4228 -2.9578 -0.9102
   42CHL1  H19C 5557   3.218   4.399   9.021  2.9900  0.3527  2.1119
   42CHL1    C1 5558   2.935   4.276   9.207 -0.1488 -0.5340  0.2259
   42CHL1   H1A 5559   2.897   4.380   9.202  2.3798  0.3525 -1.0319
   42CHL1   H1B 5560   2.871   4.189   9.180  0.0318 -1.0460  1.3987
   42CHL1    C2 5561   2.983   4.254   9.350 -0.0416  0.3296  0.3205
   42CHL1   H2A 5562   2.895   4.244   9.417 -0.7254 -1.9134 -0.8640
   42CHL1   H2B 5563   3.046   4.335   9.392 -2.3238  2.3979 -0.0718
   42CHL1   C20 5564   2.948   4.457   8.419 -0.1308  0.5076 -0.3906
   42CHL1   H20 5565   3.033   4.528   8.430  0.3658  0.3666 -2.9424
   42CHL1   C21 5566   2.808   4.522   8.440  0.0532  0.3740 -0.9479
   42CHL1  H21A 5567   2.784   4.598   8.363  1.5515 -0.2578 -2.0629
   42CHL1  H21B 5568   2.805   4.571   8.540 -1.3875  0.9112 -1.2480
   42CHL1  H21C 5569   2.730   4.444   8.426  0.6555 -0.2466 -0.9223
   42CHL1   C22 5570   2.958   4.417   8.268 -0.3356 -0.0951  0.5344
   42CHL1  H22A 5571   3.055   4.369   8.244 -0.1899 -0.2448  1.4071
   42CHL1  H22B 5572   2.878   4.342   8.250 -0.4943 -0.2238  1.7306
   42CHL1   C23 5573   2.962   4.538   8.174  0.4186  0.5703 -0.6525
   42CHL1  H23A 5574   2.863   4.587   8.177  1.0620  1.8445  0.3501
   42CHL1  H23B 5575   3.035   4.602   8.228  0.4382 -0.2192  0.2714
   42CHL1   C24 5576   2.992   4.500   8.030 -0.0400  0.1846 -0.3029
   42CHL1  H24A 5577   3.069   4.421   8.019 -1.4133 -0.9119 -2.4417
   42CHL1  H24B 5578   2.894   4.457   8.000 -0.3051  0.2046  0.5206
   42CHL1   C25 5579   3.027   4.623   7.934  0.3559 -0.0307  0.3860
   42CHL1   H25 5580   3.107   4.684   7.981  1.2420 -0.3243 -0.7149
   42CHL1   C26 5581   3.078   4.578   7.797 -0.3735 -0.3286  0.1769
   42CHL1  H26A 5582   2.994   4.579   7.723 -1.0166 -0.8944  0.8916
   42CHL1  H26B 5583   3.160   4.649   7.774 -1.7389  1.3127  0.2765
   42CHL1  H26C 5584   3.115   4.474   7.809 -0.1344 -0.2863 -0.1825
   42CHL1   C27 5585   2.903   4.715   7.917 -0.3700  0.2250 -0.1886
   42CHL1  H27A 5586   2.823   4.663   7.860  0.7504  0.1674 -1.7530
   42CHL1  H27B 5587   2.856   4.745   8.013 -0.2557 -2.5000  0.7525
   42CHL1  H27C 5588   2.944   4.800   7.858  1.0939 -0.3263  0.0231
   43CHL1    C3 5589   4.881   4.326   9.419 -0.0443  0.0229 -1.0059
   43CHL1    H3 5590   4.910   4.431   9.395  0.5248  0.2772  0.7264
   43CHL1    O3 5591   4.922   4.296   9.551 -0.4300 -0.2896 -0.7012
   43CHL1   H3' 5592   4.895   4.205   9.566 -0.7576 -0.0796 -0.0061
   43CHL1    C4 5593   4.728   4.319   9.400 -0.6751 -0.2844 -1.1175
   43CHL1   H4A 5594   4.692   4.216   9.420 -1.4064 -0.0996 -1.4965
   43CHL1   H4B 5595   4.682   4.397   9.464 -0.8292 -0.7625 -0.6435
   43CHL1    C5 5596   4.694   4.354   9.256 -0.5273 -0.1869  0.0994
   43CHL1    C6 5597   4.628   4.467   9.222 -0.4158 -0.0191  0.0273
   43CHL1    H6 5598   4.590   4.536   9.299 -0.0614  1.3472 -1.0048
   43CHL1    C7 5599   4.585   4.496   9.086  0.3439  0.2326 -0.1116
   43CHL1   H7A 5600   4.476   4.515   9.084 -0.3264 -3.0539  1.6380
   43CHL1   H7B 5601   4.650   4.578   9.048 -0.3933  0.9377  0.1266
   43CHL1    C8 5602   4.597   4.377   8.994  0.2123 -0.6173  0.0371
   43CHL1    H8 5603   4.517   4.301   9.009  1.5343 -2.2680 -0.9894
   43CHL1   C14 5604   4.587   4.430   8.848  0.2370  0.3408 -0.4556
   43CHL1   H14 5605   4.684   4.484   8.835  1.4039 -1.3722  0.8651
   43CHL1   C15 5606   4.476   4.522   8.806  0.5462 -0.4360 -0.1766
   43CHL1  H15A 5607   4.377   4.482   8.837  0.5078  0.3641  0.7970
   43CHL1  H15B 5608   4.495   4.627   8.840  0.1900  1.0096 -4.2050
   43CHL1   C16 5609   4.490   4.529   8.652 -0.3185  0.2057 -0.0552
   43CHL1  H16A 5610   4.388   4.538   8.611 -0.8219 -1.9163  0.6513
   43CHL1  H16B 5611   4.550   4.619   8.625 -0.3054 -0.2812 -1.6394
   43CHL1   C17 5612   4.576   4.402   8.615 -0.3457 -0.1257  0.6239
   43CHL1   H17 5613   4.680   4.441   8.609 -0.4662  0.5860  2.6936
   43CHL1   C13 5614   4.594   4.318   8.739 -0.5510  0.3142  0.0342
   43CHL1   C18 5615   4.478   4.220   8.760  0.3552 -0.0031  0.1500
   43CHL1  H18A 5616   4.381   4.272   8.749  0.7218  0.4269 -1.0209
   43CHL1  H18B 5617   4.486   4.136   8.688 -0.9552  0.6919 -0.8307
   43CHL1  H18C 5618   4.474   4.181   8.865 -0.4274 -0.9728 -0.2245
   43CHL1   C12 5619   4.726   4.240   8.761  0.5507 -0.4117  0.1304
   43CHL1  H12A 5620   4.737   4.160   8.685 -1.4430  0.2391 -0.8846
   43CHL1  H12B 5621   4.805   4.308   8.725 -0.3143 -1.4811 -4.0611
   43CHL1   C11 5622   4.749   4.188   8.908 -0.1984  0.1071  0.3439
   43CHL1  H11A 5623   4.675   4.106   8.923  0.1586 -0.3413 -0.3098
   43CHL1  H11B 5624   4.852   4.146   8.909 -0.4446 -0.5861 -1.4176
   43CHL1    C9 5625   4.721   4.294   9.015  1.1548 -0.6214  0.0021
   43CHL1    H9 5626   4.798   4.372   8.996 -1.5446  2.4145  1.0279
   43CHL1   C10 5627   4.747   4.251   9.155  0.1117  0.4736  0.3638
   43CHL1   C19 5628   4.683   4.102   9.175  0.2469 -0.3399  0.2994
   43CHL1  H19A 5629   4.581   4.098   9.132 -0.0014  0.5653  0.7933
   43CHL1  H19B 5630   4.743   4.024   9.122  0.3589 -0.7666  1.0502
   43CHL1  H19C 5631   4.670   4.087   9.284  0.3716 -2.5140  0.0270
   43CHL1    C1 5632   4.900   4.248   9.181  0.4270 -0.4989  0.9267
   43CHL1   H1A 5633   4.943   4.160   9.127  0.4341 -1.6104  2.6874
   43CHL1   H1B 5634   4.949   4.340   9.142  5.1169 -2.1683  2.4540
   43CHL1    C2 5635   4.949   4.224   9.325 -0.1154 -0.1127  0.5916
   43CHL1   H2A 5636   5.059   4.238   9.331  0.1090 -2.1923  1.7574
   43CHL1   H2B 5637   4.925   4.117   9.341  1.7230 -0.3624  1.8491
   43CHL1   C20 5638   4.548   4.333   8.481  0.9220  0.5589 -0.4973
   43CHL1   H20 5639   4.552   4.223   8.496 -1.4478  0.5014 -0.2031
   43CHL1   C21 5640   4.651   4.375   8.375  0.3636  0.0293  0.0432
   43CHL1  H21A 5641   4.756   4.362   8.410 -0.6520 -2.1117  2.4258
   43CHL1  H21B 5642   4.637   4.481   8.343 -0.5172 -0.5903 -1.6801
   43CHL1  H21C 5643   4.637   4.313   8.284 -1.9468 -1.6230  1.4793
   43CHL1   C22 5644   4.403   4.359   8.431  0.3624  0.0920  0.5369
   43CHL1  H22A 5645   4.333   4.339   8.515  1.7833  1.5283  2.0996
   43CHL1  H22B 5646   4.385   4.465   8.404  2.0973 -0.2996 -2.3695
   43CHL1   C23 5647   4.360   4.267   8.313 -0.0801 -0.7228 -0.0086
   43CHL1  H23A 5648   4.423   4.287   8.224 -0.6597 -1.3383 -0.5575
   43CHL1  H23B 5649   4.369   4.159   8.337 -1.0694 -1.3003 -2.1710
   43CHL1   C24 5650   4.216   4.290   8.270 -0.2543  0.3985 -0.2042
   43CHL1  H24A 5651   4.151   4.296   8.361 -1.8838 -1.6818 -1.1688
   43CHL1  H24B 5652   4.189   4.387   8.223  0.9383  1.0271  0.3959
   43CHL1   C25 5653   4.157   4.162   8.199  0.3452 -0.0805 -0.0367
   43CHL1   H25 5654   4.153   4.085   8.279 -1.0133 -2.0081 -1.8875
   43CHL1   C26 5655   4.019   4.186   8.140 -0.1078  0.0209  0.6687
   43CHL1  H26A 5656   3.941   4.207   8.216 -0.4897 -0.0890  0.3130
   43CHL1  H26B 5657   4.024   4.273   8.070  0.8481  0.1686  0.9122
   43CHL1  H26C 5658   3.978   4.104   8.077  0.6589  2.1885 -2.8363
   43CHL1   C27 5659   4.251   4.113   8.088  0.4522 -0.2042  0.0840
   43CHL1  H27A 5660   4.281   4.194   8.018 -0.6469  0.0652 -0.0736
   43CHL1  H27B 5661   4.341   4.064   8.132 -0.5080 -1.4085  0.7539
   43CHL1  H27C 5662   4.202   4.030   8.033  1.9240 -0.5749 -0.6996
   44CHL1    C3 5663   5.144   3.793   9.524 -0.1453  0.0217  0.1147
   44CHL1    H3 5664   5.045   3.754   9.494 -0.1448 -0.6017  0.9100
   44CHL1    O3 5665   5.151   3.803   9.665 -0.8686  0.1030  0.1635
   44CHL1   H3' 5666   5.243   3.806   9.690 -0.9170 -0.2145  0.3807
   44CHL1    C4 5667   5.256   3.709   9.464 -0.0077 -0.1076  0.0437
   44CHL1   H4A 5668   5.358   3.740   9.495  0.2685 -1.5621  0.6399
   44CHL1   H4B 5669   5.232   3.610   9.508  0.4091 -0.7040 -1.0495
   44CHL1    C5 5670   5.253   3.703   9.311  0.1743  0.1150 -0.4222
   44CHL1    C6 5671   5.247   3.585   9.248 -0.4118 -0.1043 -1.1426
   44CHL1    H6 5672   5.244   3.493   9.308  0.4329  0.6616  0.1147
   44CHL1    C7 5673   5.222   3.565   9.097 -0.1772  0.7418  0.2355
   44CHL1   H7A 5674   5.296   3.493   9.057 -1.4148 -0.9637  0.9478
   44CHL1   H7B 5675   5.125   3.517   9.072  1.0281 -1.3396 -0.5650
   44CHL1    C8 5676   5.244   3.701   9.025 -0.5594 -0.6441 -0.4196
   44CHL1    H8 5677   5.353   3.712   9.010 -0.7393  1.3819 -0.3820
   44CHL1   C14 5678   5.186   3.683   8.885 -0.0335  0.3933  0.6430
   44CHL1   H14 5679   5.078   3.659   8.895  0.2978 -0.4468  2.4467
   44CHL1   C15 5680   5.237   3.565   8.789  0.0501 -0.3065 -0.1553
   44CHL1  H15A 5681   5.346   3.566   8.805  0.1370 -0.9136 -0.6675
   44CHL1  H15B 5682   5.195   3.469   8.827  0.7936 -2.1773 -3.8041
   44CHL1   C16 5683   5.175   3.616   8.657  0.2256 -0.4915  0.1624
   44CHL1  H16A 5684   5.255   3.612   8.581  0.7898  1.6122  0.5994
   44CHL1  H16B 5685   5.084   3.557   8.634 -0.7048  1.0194 -0.0919
   44CHL1   C17 5686   5.129   3.765   8.679 -0.4460 -0.5984 -1.2879
   44CHL1   H17 5687   5.022   3.772   8.706  0.0034 -0.6651  0.6108
   44CHL1   C13 5688   5.198   3.810   8.806 -0.1271 -0.8411 -0.6243
   44CHL1   C18 5689   5.345   3.844   8.772  0.2191  0.2725 -0.5037
   44CHL1  H18A 5690   5.358   3.934   8.709 -1.0084  0.3825 -0.6193
   44CHL1  H18B 5691   5.405   3.854   8.865 -0.0638 -2.1121 -0.0292
   44CHL1  H18C 5692   5.396   3.761   8.717  0.9479  1.2544 -1.3223
   44CHL1   C12 5693   5.123   3.930   8.881 -0.1538 -0.8045  0.8576
   44CHL1  H12A 5694   5.150   4.020   8.822  2.7223 -1.7757  0.6262
   44CHL1  H12B 5695   5.014   3.906   8.877 -0.7242  1.9039 -0.9841
   44CHL1   C11 5696   5.183   3.944   9.017  0.0156 -0.0052 -0.2779
   44CHL1  H11A 5697   5.290   3.967   9.000  0.3575  0.3045  2.1199
   44CHL1  H11B 5698   5.140   4.034   9.065 -1.2171 -0.8533  0.2337
   44CHL1    C9 5699   5.181   3.816   9.103  0.7353 -0.1599 -0.4751
   44CHL1    H9 5700   5.075   3.786   9.117  0.0312  1.9538 -1.0611
   44CHL1   C10 5701   5.243   3.834   9.243  0.5300  0.4656 -1.1327
   44CHL1   C19 5702   5.384   3.898   9.233  0.0325  0.5634  1.2362
   44CHL1  H19A 5703   5.445   3.847   9.156 -3.4459 -3.2056  0.8047
   44CHL1  H19B 5704   5.382   4.005   9.202 -3.2089 -0.3817 -2.1618
   44CHL1  H19C 5705   5.439   3.891   9.329 -0.6425  1.9767  1.7436
   44CHL1    C1 5706   5.140   3.929   9.320  0.2851  0.1088 -0.0315
   44CHL1   H1A 5707   5.152   4.033   9.285  0.3493 -0.2193 -0.9846
   44CHL1   H1B 5708   5.038   3.898   9.289 -0.8461  2.8828  0.7567
   44CHL1    C2 5709   5.161   3.934   9.469  0.5300 -0.0282  0.0488
   44CHL1   H2A 5710   5.079   3.997   9.511 -0.3132 -0.4065 -0.9968
   44CHL1   H2B 5711   5.254   3.984   9.505 -1.0320  3.9592 -1.1167
   44CHL1   C20 5712   5.147   3.856   8.553  0.0445  0.5673  0.0757
   44CHL1   H20 5713   5.251   3.895   8.542 -0.0845  0.9771  0.3043
   44CHL1   C21 5714   5.048   3.978   8.566  0.8838  0.4720 -0.7484
   44CHL1  H21A 5715   4.948   3.934   8.584  1.9016 -0.8776  1.8498
   44CHL1  H21B 5716   5.054   4.025   8.466 -0.6970  1.3979 -0.4208
   44CHL1  H21C 5717   5.065   4.040   8.657  0.8546  0.4803 -0.7477
   44CHL1   C22 5718   5.118   3.780   8.416 -0.4098 -0.2821  0.7391
   44CHL1  H22A 5719   5.170   3.685   8.393 -1.2940 -0.4423 -0.5928
   44CHL1  H22B 5720   5.009   3.758   8.413 -0.6847  1.1157 -0.1937
   44CHL1   C23 5721   5.155   3.873   8.297  0.0493  0.3345  0.7532
   44CHL1  H23A 5722   5.094   3.963   8.272 -0.0766 -0.2179 -1.0264
   44CHL1  H23B 5723   5.260   3.907   8.306  0.2076  0.0681  0.0147
   44CHL1   C24 5724   5.159   3.800   8.163 -0.3109 -0.0947 -0.1924
   44CHL1  H24A 5725   5.247   3.732   8.163  0.4895  0.9224 -0.1368
   44CHL1  H24B 5726   5.064   3.750   8.134  0.5163 -1.8579  0.1092
   44CHL1   C25 5727   5.194   3.894   8.050 -0.1882 -0.5299 -0.5476
   44CHL1   H25 5728   5.256   3.977   8.090 -0.1816 -1.0935  0.6437
   44CHL1   C26 5729   5.260   3.814   7.933 -0.2466  0.0551  0.3239
   44CHL1  H26A 5730   5.195   3.731   7.897 -0.8876  1.1026 -0.9521
   44CHL1  H26B 5731   5.280   3.887   7.851 -0.0067  0.3363  0.6322
   44CHL1  H26C 5732   5.363   3.787   7.967  0.8960  1.7359 -1.6766
   44CHL1   C27 5733   5.062   3.948   7.999  0.2319  0.0202 -0.1485
   44CHL1  H27A 5734   4.992   3.964   8.084  3.8172  2.4224  2.4873
   44CHL1  H27B 5735   5.085   4.045   7.949 -0.5114  0.4627  0.3606
   44CHL1  H27C 5736   5.028   3.882   7.916 -2.3517  1.4663 -0.2809
   45CHL1    C3 5737   2.345   4.228   9.761  0.1399  0.6479 -0.6919
   45CHL1    H3 5738   2.382   4.320   9.812  1.9819  0.8477 -2.3475
   45CHL1    O3 5739   2.302   4.149   9.868 -0.3222 -0.2782  0.7372
   45CHL1   H3' 5740   2.308   4.058   9.839  0.5955  0.0594 -0.1502
   45CHL1    C4 5741   2.241   4.261   9.651 -0.4143 -0.0460  0.0495
   45CHL1   H4A 5742   2.204   4.158   9.633  1.0002 -0.3894 -0.9413
   45CHL1   H4B 5743   2.153   4.309   9.700 -0.5678 -1.7204  1.4534
   45CHL1    C5 5744   2.294   4.332   9.530  0.7077 -0.8113 -0.1915
   45CHL1    C6 5745   2.235   4.444   9.490  0.6298  0.1619  0.2959
   45CHL1    H6 5746   2.153   4.491   9.546 -0.0134 -1.3788  0.6545
   45CHL1    C7 5747   2.295   4.530   9.381  0.2237  0.3975  0.3008
   45CHL1   H7A 5748   2.219   4.586   9.322 -0.0797 -0.8066 -0.4610
   45CHL1   H7B 5749   2.356   4.613   9.424  1.4755  0.4014 -1.4483
   45CHL1    C8 5750   2.390   4.459   9.287 -0.0458  0.7734  0.1403
   45CHL1    H8 5751   2.453   4.539   9.242  0.4145 -1.0152 -2.5454
   45CHL1   C14 5752   2.332   4.402   9.157  0.1200  0.0452  0.1284
   45CHL1   H14 5753   2.278   4.308   9.181  0.8723 -1.0481 -2.3455
   45CHL1   C15 5754   2.236   4.496   9.076 -0.1722 -0.5258 -0.6388
   45CHL1  H15A 5755   2.131   4.463   9.093 -0.1079 -0.0781  0.7255
   45CHL1  H15B 5756   2.237   4.601   9.112 -2.1831 -0.6902 -0.0585
   45CHL1   C16 5757   2.276   4.510   8.933 -0.4677 -0.4669 -0.0392
   45CHL1  H16A 5758   2.224   4.434   8.871 -0.1804 -1.8036  1.3107
   45CHL1  H16B 5759   2.272   4.613   8.893 -2.7691  0.7347  3.0475
   45CHL1   C17 5760   2.428   4.477   8.937  0.5721 -0.0299 -0.7435
   45CHL1   H17 5761   2.473   4.568   8.983 -0.2452  0.2354 -0.4527
   45CHL1   C13 5762   2.438   4.368   9.054 -0.0408 -0.0741 -0.4051
   45CHL1   C18 5763   2.397   4.229   9.003  0.1340 -0.5108 -0.2954
   45CHL1  H18A 5764   2.295   4.238   8.959 -0.5017  1.3133  1.4437
   45CHL1  H18B 5765   2.467   4.187   8.928 -1.4688 -1.4330 -1.3110
   45CHL1  H18C 5766   2.399   4.157   9.088 -1.5312 -0.4104 -0.1521
   45CHL1   C12 5767   2.584   4.364   9.112  0.0067  0.4497  0.0503
   45CHL1  H12A 5768   2.651   4.306   9.046 -0.8869  0.3412 -0.7735
   45CHL1  H12B 5769   2.622   4.469   9.119  0.1530  0.4917 -1.1505
   45CHL1   C11 5770   2.578   4.303   9.249 -0.4496 -0.0609 -0.0642
   45CHL1  H11A 5771   2.558   4.194   9.241  2.8101 -0.8155  1.1739
   45CHL1  H11B 5772   2.679   4.307   9.296  0.2371  1.2442 -1.5963
   45CHL1    C9 5773   2.483   4.361   9.354 -0.2732 -0.8657 -0.0683
   45CHL1    H9 5774   2.543   4.438   9.407  1.7739 -1.9559 -0.7605
   45CHL1   C10 5775   2.418   4.273   9.469 -0.1154 -0.4985  0.2231
   45CHL1   C19 5776   2.380   4.136   9.421  0.0978  0.9985 -0.0917
   45CHL1  H19A 5777   2.469   4.072   9.405 -1.0154  0.1699 -3.3823
   45CHL1  H19B 5778   2.315   4.078   9.490  2.7528 -0.7994  0.9872
   45CHL1  H19C 5779   2.333   4.137   9.321  0.5084  0.2389 -0.2962
   45CHL1    C1 5780   2.526   4.258   9.583  0.2473 -0.6022  0.1666
   45CHL1   H1A 5781   2.624   4.214   9.555  1.2599  2.1005 -0.6557
   45CHL1   H1B 5782   2.536   4.354   9.638 -0.3120 -0.2915 -0.2687
   45CHL1    C2 5783   2.478   4.170   9.699  0.1825  0.1841 -0.0161
   45CHL1   H2A 5784   2.548   4.170   9.785  1.0084  2.1820 -0.6429
   45CHL1   H2B 5785   2.466   4.063   9.674  1.1411 -0.3421  1.7094
   45CHL1   C20 5786   2.505   4.454   8.807  0.6700  0.8129 -0.1359
   45CHL1   H20 5787   2.592   4.387   8.819  0.1370  0.2645  0.7746
   45CHL1   C21 5788   2.551   4.598   8.774  0.1730 -0.2970 -0.5139
   45CHL1  H21A 5789   2.616   4.630   8.859  1.5226 -1.6942 -1.0016
   45CHL1  H21B 5790   2.466   4.669   8.762 -1.1854 -1.7531  0.2525
   45CHL1  H21C 5791   2.615   4.599   8.684  1.6540 -0.3790  0.5214
   45CHL1   C22 5792   2.414   4.402   8.695  0.4162  0.2612  0.0207
   45CHL1  H22A 5793   2.404   4.294   8.720  0.2040 -0.1111 -1.5662
   45CHL1  H22B 5794   2.315   4.452   8.690  2.4912  4.6224  0.2797
   45CHL1   C23 5795   2.486   4.379   8.560  0.5640  0.4075  0.4116
   45CHL1  H23A 5796   2.537   4.473   8.528 -0.9959  1.1682  0.1535
   45CHL1  H23B 5797   2.573   4.310   8.568 -0.8587 -1.2950  1.5986
   45CHL1   C24 5798   2.390   4.330   8.453  0.5157  0.1968 -1.0562
   45CHL1  H24A 5799   2.447   4.314   8.359  2.1126  1.9451 -0.3987
   45CHL1  H24B 5800   2.337   4.235   8.476  1.1774 -0.3998 -1.9404
   45CHL1   C25 5801   2.290   4.445   8.413 -0.7345  0.6978  0.2535
   45CHL1   H25 5802   2.225   4.468   8.501  0.6961 -0.7152  1.7155
   45CHL1   C26 5803   2.359   4.577   8.375  0.1564 -0.3660  0.2240
   45CHL1  H26A 5804   2.438   4.575   8.298 -1.8199 -2.4120 -1.8500
   45CHL1  H26B 5805   2.278   4.648   8.349  1.2563 -0.3193 -3.2773
   45CHL1  H26C 5806   2.420   4.617   8.459 -0.2152 -1.7872  1.1909
   45CHL1   C27 5807   2.192   4.406   8.305  0.2097  0.3790 -0.2225
   45CHL1  H27A 5808   2.135   4.497   8.277 -0.9552 -0.1511  0.4194
   45CHL1  H27B 5809   2.247   4.377   8.213 -2.8752  0.5554 -2.1792
   45CHL1  H27C 5810   2.125   4.320   8.328  0.8359 -0.0522  0.0059
   46CHL1    C3 5811   4.482   2.339   9.482 -0.2755  0.4223  0.1054
   46CHL1    H3 5812   4.392   2.275   9.471  1.0622 -1.3069 -1.1787
   46CHL1    O3 5813   4.538   2.312   9.611  0.5230 -0.1376 -0.0091
   46CHL1   H3' 5814   4.632   2.308   9.595  0.5118 -1.8717  0.1900
   46CHL1    C4 5815   4.575   2.283   9.373  0.0205  0.8906 -0.5201
   46CHL1   H4A 5816   4.679   2.317   9.393 -0.2009  0.5713  1.2886
   46CHL1   H4B 5817   4.586   2.176   9.400  1.9786  0.7920 -1.6798
   46CHL1    C5 5818   4.531   2.316   9.234  0.0038  0.5983  0.6477
   46CHL1    C6 5819   4.498   2.212   9.155  0.1990  0.0084  0.2515
   46CHL1    H6 5820   4.515   2.113   9.198 -0.3719 -0.2545 -0.1213
   46CHL1    C7 5821   4.444   2.228   9.010 -0.0942  0.3679 -0.3261
   46CHL1   H7A 5822   4.517   2.163   8.957  0.5785  0.6763  0.2134
   46CHL1   H7B 5823   4.338   2.197   8.997  0.2258  0.2536 -2.9838
   46CHL1    C8 5824   4.459   2.376   8.961 -0.0202  0.0483 -0.0821
   46CHL1    H8 5825   4.564   2.408   8.942  0.2669 -0.2951  0.8822
   46CHL1   C14 5826   4.375   2.393   8.840 -0.2389  0.1609  0.2648
   46CHL1   H14 5827   4.271   2.369   8.870 -0.7775  1.3929 -0.5768
   46CHL1   C15 5828   4.405   2.303   8.717  0.7659  0.2654  0.4790
   46CHL1  H15A 5829   4.515   2.296   8.732  0.8541 -1.1803 -0.6985
   46CHL1  H15B 5830   4.358   2.203   8.731  1.3666 -0.6061 -3.2519
   46CHL1   C16 5831   4.360   2.380   8.590  0.7578  0.3380 -0.4230
   46CHL1  H16A 5832   4.457   2.414   8.547  0.2377  0.2884 -1.6448
   46CHL1  H16B 5833   4.290   2.324   8.525 -0.5306  2.4710 -0.8881
   46CHL1   C17 5834   4.301   2.513   8.649  0.3442 -0.5366 -0.6252
   46CHL1   H17 5835   4.197   2.490   8.682  0.0077  3.3548  1.3895
   46CHL1   C13 5836   4.378   2.534   8.780  0.6411  0.2982 -0.1375
   46CHL1   C18 5837   4.524   2.586   8.750 -0.6443 -0.5837  0.0354
   46CHL1  H18A 5838   4.510   2.684   8.699 -1.8895 -0.2355  1.0189
   46CHL1  H18B 5839   4.585   2.620   8.836 -1.1928 -1.6666  0.8592
   46CHL1  H18C 5840   4.588   2.520   8.687 -2.7122 -1.0922 -1.5974
   46CHL1   C12 5841   4.308   2.626   8.892  0.7523  0.2109 -0.4828
   46CHL1  H12A 5842   4.313   2.730   8.854 -0.1734  0.0859 -0.9556
   46CHL1  H12B 5843   4.205   2.594   8.917  0.8709  0.1690 -0.0495
   46CHL1   C11 5844   4.396   2.622   9.019 -0.5281  0.1991 -0.1156
   46CHL1  H11A 5845   4.500   2.654   9.000 -0.7037 -0.2899 -1.9695
   46CHL1  H11B 5846   4.369   2.689   9.103  2.5936  0.5555  0.6462
   46CHL1    C9 5847   4.416   2.477   9.070 -0.4653  0.0200  0.1122
   46CHL1    H9 5848   4.314   2.443   9.100 -0.4114 -1.0885 -0.8983
   46CHL1   C10 5849   4.507   2.463   9.200  0.4656 -0.3675  1.1410
   46CHL1   C19 5850   4.640   2.542   9.199 -0.3172  0.3999 -0.2402
   46CHL1  H19A 5851   4.679   2.541   9.095  0.9161  0.2015  0.2062
   46CHL1  H19B 5852   4.625   2.644   9.240 -0.4441  0.0714  0.5389
   46CHL1  H19C 5853   4.715   2.490   9.262 -0.8371  0.5106  0.4734
   46CHL1    C1 5854   4.407   2.512   9.317  0.1398  0.2799  0.2227
   46CHL1   H1A 5855   4.404   2.622   9.301  0.3656  0.2338 -0.1404
   46CHL1   H1B 5856   4.313   2.454   9.302 -0.3981  1.2323 -0.1564
   46CHL1    C2 5857   4.450   2.486   9.462 -0.3360 -0.3161 -0.4006
   46CHL1   H2A 5858   4.368   2.520   9.529 -2.7162 -0.3175 -3.2065
   46CHL1   H2B 5859   4.529   2.558   9.491 -0.8530 -0.1389  0.5992
   46CHL1   C20 5860   4.296   2.625   8.546  0.5722  0.4877 -0.5170
   46CHL1   H20 5861   4.391   2.683   8.541  1.2636 -0.6316 -0.4699
   46CHL1   C21 5862   4.203   2.741   8.595 -0.2481  0.4907 -0.4558
   46CHL1  H21A 5863   4.224   2.826   8.528 -0.3075  1.8055  1.1677
   46CHL1  H21B 5864   4.217   2.769   8.702 -0.6996 -0.6071 -0.1007
   46CHL1  H21C 5865   4.093   2.722   8.591 -0.4703  0.7018  3.1758
   46CHL1   C22 5866   4.251   2.570   8.413 -0.2551  0.0745 -0.1495
   46CHL1  H22A 5867   4.326   2.494   8.380 -0.0657  0.0343  0.3696
   46CHL1  H22B 5868   4.146   2.536   8.423  0.5781 -2.9130 -1.1113
   46CHL1   C23 5869   4.229   2.671   8.299 -0.7164 -0.4361  0.1221
   46CHL1  H23A 5870   4.156   2.750   8.328  0.4632  0.1032  1.6312
   46CHL1  H23B 5871   4.316   2.740   8.294  0.0019 -1.4537 -2.1272
   46CHL1   C24 5872   4.207   2.609   8.157 -0.5786 -0.8510  0.0321
   46CHL1  H24A 5873   4.269   2.517   8.149  0.0854 -0.3850 -0.2199
   46CHL1  H24B 5874   4.100   2.594   8.131 -0.3217 -0.3195 -1.3427
   46CHL1   C25 5875   4.244   2.699   8.043 -0.6190  0.0204 -0.1692
   46CHL1   H25 5876   4.204   2.800   8.068 -1.5095 -0.5365  0.6781
   46CHL1   C26 5877   4.400   2.701   8.037 -0.4440  0.3351  0.3561
   46CHL1  H26A 5878   4.438   2.767   7.956  1.3344 -2.4815 -1.2147
   46CHL1  H26B 5879   4.447   2.742   8.129  1.4131  0.0739 -0.4468
   46CHL1  H26C 5880   4.437   2.597   8.022  0.8267  0.5897  1.6302
   46CHL1   C27 5881   4.187   2.637   7.914 -0.0767  0.4695 -0.0117
   46CHL1  H27A 5882   4.229   2.688   7.825 -0.9799  3.0719  0.9988
   46CHL1  H27B 5883   4.205   2.528   7.924  0.4089  0.5492 -0.0386
   46CHL1  H27C 5884   4.076   2.642   7.908 -0.0082  1.9981 -0.0527
   47CHL1    C3 5885   4.415   5.074   9.442 -0.2097  0.3862 -0.1448
   47CHL1    H3 5886   4.369   5.175   9.439  0.4743  0.7250  0.5086
   47CHL1    O3 5887   4.449   5.055   9.576 -0.2131 -0.9812 -0.2016
   47CHL1   H3' 5888   4.472   4.963   9.589  1.6501 -0.4807  0.1064
   47CHL1    C4 5889   4.325   4.961   9.397 -0.2582 -0.0447  0.1900
   47CHL1   H4A 5890   4.367   4.858   9.402 -0.5536 -0.2134 -0.5836
   47CHL1   H4B 5891   4.239   4.943   9.466  0.9015 -0.7750  1.4550
   47CHL1    C5 5892   4.295   4.985   9.251 -0.3504  0.5341 -0.2148
   47CHL1    C6 5893   4.168   4.989   9.213 -0.2156 -0.4838 -0.1963
   47CHL1    H6 5894   4.093   4.972   9.291  0.2673 -2.3585 -0.0970
   47CHL1    C7 5895   4.121   4.998   9.072  1.0380  0.3849  0.1504
   47CHL1   H7A 5896   4.058   4.910   9.047  1.1542 -0.2461  1.9538
   47CHL1   H7B 5897   4.063   5.088   9.041  1.1883  0.5751  0.4198
   47CHL1    C8 5898   4.242   4.980   8.977 -0.6571  0.5996 -0.3509
   47CHL1    H8 5899   4.255   4.870   8.969  1.7243  0.6418  2.2508
   47CHL1   C14 5900   4.213   5.027   8.828 -0.4175  0.0759 -0.2089
   47CHL1   H14 5901   4.212   5.138   8.838 -1.1296  0.0030  0.5810
   47CHL1   C15 5902   4.080   5.002   8.756  0.5337 -0.3454  0.4912
   47CHL1  H15A 5903   4.045   4.898   8.776 -0.4195  0.2326  2.0140
   47CHL1  H15B 5904   4.003   5.068   8.802 -0.2175 -0.6992 -0.2491
   47CHL1   C16 5905   4.103   5.027   8.608 -0.5533  0.1824 -1.1859
   47CHL1  H16A 5906   4.070   4.940   8.547 -1.0980  0.0011 -0.6456
   47CHL1  H16B 5907   4.029   5.101   8.572 -0.3826 -0.1072 -2.1235
   47CHL1   C17 5908   4.251   5.074   8.595  0.6224 -0.0819 -0.3125
   47CHL1   H17 5909   4.258   5.184   8.609 -1.7274  0.3557 -2.2441
   47CHL1   C13 5910   4.318   5.010   8.718 -0.0076 -0.6591 -0.2867
   47CHL1   C18 5911   4.340   4.868   8.693  0.8091  0.2439  0.3140
   47CHL1  H18A 5912   4.349   4.810   8.787  0.5655 -0.0236  0.1763
   47CHL1  H18B 5913   4.259   4.817   8.635 -0.1674 -0.8622  2.5829
   47CHL1  H18C 5914   4.439   4.863   8.643  1.6106 -0.6843  1.9506
   47CHL1   C12 5915   4.450   5.076   8.762 -0.0306 -0.0324  0.1340
   47CHL1  H12A 5916   4.538   5.070   8.694  0.0997  0.4890  0.2552
   47CHL1  H12B 5917   4.439   5.185   8.781  0.7616 -0.0994  1.0442
   47CHL1   C11 5918   4.495   5.029   8.907  0.3190 -0.2176  1.3182
   47CHL1  H11A 5919   4.532   4.925   8.895  0.1367  0.0525 -2.1698
   47CHL1  H11B 5920   4.582   5.091   8.938 -0.2500 -0.0422  2.5818
   47CHL1    C9 5921   4.381   5.033   9.014 -0.4201  0.1687 -0.4727
   47CHL1    H9 5922   4.358   5.142   9.024  1.0839  0.5200 -0.7124
   47CHL1   C10 5923   4.417   4.994   9.154  0.6752 -0.2795  0.0095
   47CHL1   C19 5924   4.471   4.851   9.144 -0.6070  0.0622 -0.1441
   47CHL1  H19A 5925   4.494   4.822   9.249 -2.2127 -0.2920  0.1201
   47CHL1  H19B 5926   4.400   4.775   9.105 -0.2264 -0.2304 -0.2586
   47CHL1  H19C 5927   4.569   4.834   9.097 -0.7549 -0.8633 -0.1125
   47CHL1    C1 5928   4.516   5.099   9.207  0.0419  0.1422  0.6684
   47CHL1   H1A 5929   4.616   5.085   9.160 -1.2336 -1.3583 -1.7224
   47CHL1   H1B 5930   4.475   5.201   9.191 -3.2432 -1.1187  0.6153
   47CHL1    C2 5931   4.546   5.079   9.357  0.0089  0.1047 -0.6992
   47CHL1   H2A 5932   4.617   5.155   9.396  1.2648  0.0497 -2.8080
   47CHL1   H2B 5933   4.591   4.978   9.368 -0.0371 -0.0683 -1.9602
   47CHL1   C20 5934   4.314   5.068   8.453  0.6759  0.3731 -0.7436
   47CHL1   H20 5935   4.423   5.080   8.473  0.6252 -2.5933  1.6849
   47CHL1   C21 5936   4.270   5.199   8.380 -0.4825  0.4992 -0.4342
   47CHL1  H21A 5937   4.159   5.204   8.377 -0.5104 -0.5832 -1.8579
   47CHL1  H21B 5938   4.308   5.217   8.277  0.3968 -2.5508 -0.7006
   47CHL1  H21C 5939   4.310   5.284   8.437 -0.5910 -0.2874  0.8372
   47CHL1   C22 5940   4.289   4.932   8.375  0.5736 -0.5806  0.5555
   47CHL1  H22A 5941   4.272   4.847   8.444  1.5400 -0.6755  0.6802
   47CHL1  H22B 5942   4.191   4.944   8.323  2.0237  0.8118 -1.9414
   47CHL1   C23 5943   4.387   4.889   8.271 -0.5173  0.6571 -0.4752
   47CHL1  H23A 5944   4.396   4.981   8.209  0.2060  0.3214 -0.8731
   47CHL1  H23B 5945   4.472   4.858   8.334 -1.0994  0.2535  0.1245
   47CHL1   C24 5946   4.349   4.762   8.193 -0.1419  0.1939 -0.4366
   47CHL1  H24A 5947   4.338   4.692   8.278  1.8042  0.4383  0.0293
   47CHL1  H24B 5948   4.246   4.764   8.151 -0.9786  2.1853  1.5952
   47CHL1   C25 5949   4.454   4.709   8.092  0.4901 -0.6600  0.1671
   47CHL1   H25 5950   4.550   4.694   8.145  0.9272  1.1357 -0.0827
   47CHL1   C26 5951   4.402   4.582   8.043  0.1687 -0.2501 -0.2799
   47CHL1  H26A 5952   4.293   4.586   8.023  0.2559  3.0771 -0.3448
   47CHL1  H26B 5953   4.416   4.512   8.128 -0.9685 -2.1145 -1.5900
   47CHL1  H26C 5954   4.457   4.544   7.955  1.1060  3.8868 -1.6126
   47CHL1   C27 5955   4.481   4.817   7.987  0.1760  0.5566  0.5832
   47CHL1  H27A 5956   4.508   4.917   8.026  0.4336  0.9013 -0.4756
   47CHL1  H27B 5957   4.563   4.773   7.927 -1.6547 -1.8828 -0.2253
   47CHL1  H27C 5958   4.390   4.830   7.924  0.5678 -0.4655 -0.2230
   48CHL1    C3 5959   5.564   4.193   9.467  0.4070  0.0987  0.5748
   48CHL1    H3 5960   5.526   4.089   9.464  2.1993 -0.6810  2.7819
   48CHL1    O3 5961   5.610   4.215   9.598 -0.3432  0.2243  0.6221
   48CHL1   H3' 5962   5.543   4.186   9.660 -1.0590 -0.1038 -0.2924
   48CHL1    C4 5963   5.663   4.218   9.354  0.5292  0.6523  0.2589
   48CHL1   H4A 5964   5.701   4.321   9.374  0.0430  0.8579  0.1388
   48CHL1   H4B 5965   5.755   4.156   9.364 -0.1310 -0.6535 -1.6451
   48CHL1    C5 5966   5.592   4.216   9.222 -0.1667  0.0188  0.6149
   48CHL1    C6 5967   5.637   4.126   9.128  0.8687 -0.1167  0.0483
   48CHL1    H6 5968   5.722   4.060   9.151  1.1157  0.2614  0.2250
   48CHL1    C7 5969   5.582   4.127   8.991 -0.0989 -0.7962  0.3567
   48CHL1   H7A 5970   5.664   4.124   8.916 -0.3577  0.4134  0.0193
   48CHL1   H7B 5971   5.519   4.036   8.974  1.7777 -2.0837  0.1114
   48CHL1    C8 5972   5.497   4.255   8.962  0.5493 -0.3064 -0.2372
   48CHL1    H8 5973   5.562   4.345   8.956  0.7850 -0.6489 -3.5032
   48CHL1   C14 5974   5.434   4.245   8.826 -0.0864  0.0465 -1.0929
   48CHL1   H14 5975   5.369   4.154   8.823 -1.4368  0.9795 -0.4083
   48CHL1   C15 5976   5.528   4.238   8.711 -0.5747  0.7541  0.6015
   48CHL1  H15A 5977   5.605   4.319   8.704 -0.9753  0.9471 -1.9915
   48CHL1  H15B 5978   5.584   4.143   8.703 -0.3828  1.0349 -1.4407
   48CHL1   C16 5979   5.436   4.258   8.589  1.0475 -0.0858 -0.1777
   48CHL1  H16A 5980   5.475   4.341   8.527  2.1632 -0.3304  0.1817
   48CHL1  H16B 5981   5.428   4.168   8.525 -0.2682  0.3677 -0.6562
   48CHL1   C17 5982   5.292   4.297   8.644  0.7713  0.6611 -0.4811
   48CHL1   H17 5983   5.229   4.206   8.650 -0.1989  1.2631 -1.3981
   48CHL1   C13 5984   5.325   4.346   8.792  0.5612  0.0440  0.4057
   48CHL1   C18 5985   5.382   4.497   8.769  0.0954 -0.5679  0.3270
   48CHL1  H18A 5986   5.306   4.576   8.751  1.6750  0.7190 -0.8069
   48CHL1  H18B 5987   5.439   4.524   8.861  2.3128  0.1452 -1.2094
   48CHL1  H18C 5988   5.451   4.516   8.684 -0.0905 -0.6427  0.1585
   48CHL1   C12 5989   5.211   4.347   8.898 -0.1066 -0.2934 -0.3355
   48CHL1  H12A 5990   5.144   4.432   8.874  1.4363  1.2116  0.5947
   48CHL1  H12B 5991   5.131   4.270   8.898  1.2737 -1.7840  0.8687
   48CHL1   C11 5992   5.277   4.379   9.032 -0.1112  0.4229  0.0562
   48CHL1  H11A 5993   5.309   4.485   9.038  2.2904 -0.2335 -0.4164
   48CHL1  H11B 5994   5.201   4.372   9.112 -1.4540 -3.5113 -1.4620
   48CHL1    C9 5995   5.400   4.277   9.069 -0.9987 -0.8019  0.0586
   48CHL1    H9 5996   5.338   4.185   9.078  1.3691 -2.2882  1.9490
   48CHL1   C10 5997   5.472   4.306   9.200 -0.2855 -0.3901 -0.0044
   48CHL1   C19 5998   5.527   4.457   9.206  0.3885 -0.6997 -0.1533
   48CHL1  H19A 5999   5.447   4.534   9.212 -0.0164 -1.2185  1.1386
   48CHL1  H19B 6000   5.593   4.468   9.294 -0.2220 -0.6141  0.2934
   48CHL1  H19C 6001   5.599   4.478   9.123 -0.1059 -3.6480 -1.4216
   48CHL1    C1 6002   5.371   4.279   9.317 -0.6480  0.1359  0.2209
   48CHL1   H1A 6003   5.279   4.342   9.315  0.1907  1.4394  1.2041
   48CHL1   H1B 6004   5.331   4.176   9.315  1.7982 -0.8510 -0.5420
   48CHL1    C2 6005   5.439   4.288   9.454  0.6810  0.5715 -0.2759
   48CHL1   H2A 6006   5.369   4.260   9.537  1.6200 -0.7196  0.1144
   48CHL1   H2B 6007   5.479   4.389   9.477 -0.7484  1.1295 -0.2090
   48CHL1   C20 6008   5.219   4.390   8.545  0.3297  0.1977 -0.9916
   48CHL1   H20 6009   5.263   4.492   8.555 -1.5223  1.3047 -3.5014
   48CHL1   C21 6010   5.071   4.386   8.589 -0.5156 -0.3170 -0.3432
   48CHL1  H21A 6011   5.062   4.395   8.699  3.3343  2.8522 -0.1499
   48CHL1  H21B 6012   5.024   4.288   8.568 -1.3667  0.0080  0.0409
   48CHL1  H21C 6013   5.011   4.467   8.541 -2.2259 -1.1808  0.3226
   48CHL1   C22 6014   5.217   4.335   8.403 -0.0209  0.1055  0.9853
   48CHL1  H22A 6015   5.323   4.356   8.375  0.2524 -1.3707  0.8737
   48CHL1  H22B 6016   5.205   4.224   8.407  2.1407 -0.3720 -2.7561
   48CHL1   C23 6017   5.108   4.369   8.304 -0.2060 -0.5726  0.1730
   48CHL1  H23A 6018   5.011   4.322   8.330 -0.0144 -0.6820  0.6814
   48CHL1  H23B 6019   5.090   4.479   8.312  0.0243 -0.4030 -1.4783
   48CHL1   C24 6020   5.143   4.345   8.157 -0.5213 -0.8302  0.6061
   48CHL1  H24A 6021   5.252   4.352   8.139 -0.6072  1.6276  0.8922
   48CHL1  H24B 6022   5.131   4.235   8.151  2.2750 -1.3000  2.3824
   48CHL1   C25 6023   5.061   4.418   8.056 -0.2846 -0.6021  0.3363
   48CHL1   H25 6024   5.068   4.526   8.081 -0.5236 -0.2570 -1.0282
   48CHL1   C26 6025   5.113   4.403   7.915  0.0350  0.0766 -0.0638
   48CHL1  H26A 6026   5.057   4.479   7.857 -1.0471  0.1736  1.0929
   48CHL1  H26B 6027   5.224   4.410   7.906 -0.2125  1.1657 -2.5458
   48CHL1  H26C 6028   5.095   4.301   7.875 -0.6119  0.6043 -1.1196
   48CHL1   C27 6029   4.922   4.360   8.075 -0.1921 -0.6704  0.3563
   48CHL1  H27A 6030   4.940   4.252   8.055  0.1860 -0.3009 -1.4154
   48CHL1  H27B 6031   4.887   4.373   8.180  0.2184 -0.8224  0.5156
   48CHL1  H27C 6032   4.843   4.405   8.011  0.5473  1.7475  1.0990
   49CHL1    C3 6033   4.106   2.012   9.543 -0.4174 -0.7928 -0.5947
   49CHL1    H3 6034   4.112   1.902   9.556  3.5547 -0.8444 -2.2027
   49CHL1    O3 6035   4.148   2.074   9.666 -0.0659 -0.1071 -0.8543
   49CHL1   H3' 6036   4.143   2.168   9.652  1.8587 -0.0640 -1.3327
   49CHL1    C4 6037   4.203   2.040   9.424 -0.1167  0.4397 -0.3264
   49CHL1   H4A 6038   4.224   2.148   9.409  0.4719  0.3252 -0.3464
   49CHL1   H4B 6039   4.300   1.996   9.455 -1.6774 -2.5511  0.4825
   49CHL1    C5 6040   4.156   1.977   9.301 -0.4315 -0.3543  0.1758
   49CHL1    C6 6041   4.231   1.893   9.233 -0.5735  0.3911 -0.3326
   49CHL1    H6 6042   4.329   1.867   9.275 -0.6613 -0.2501 -0.5148
   49CHL1    C7 6043   4.206   1.833   9.099  0.0521  0.2998  0.9323
   49CHL1   H7A 6044   4.289   1.845   9.026 -1.5204  1.2477 -0.7155
   49CHL1   H7B 6045   4.188   1.726   9.122 -0.2567 -0.2060 -1.5227
   49CHL1    C8 6046   4.077   1.896   9.033  0.4257  0.5312 -0.0291
   49CHL1    H8 6047   4.118   1.984   8.979 -0.5301 -0.2352 -2.0587
   49CHL1   C14 6048   4.015   1.800   8.933 -0.2828  0.2815  0.5458
   49CHL1   H14 6049   3.971   1.715   8.988 -0.7286  0.5611  0.6299
   49CHL1   C15 6050   4.113   1.732   8.830 -0.2036 -0.4117 -0.2973
   49CHL1  H15A 6051   4.174   1.813   8.787 -1.4313  0.7850  0.1812
   49CHL1  H15B 6052   4.187   1.664   8.878 -0.6527 -0.0013  1.0057
   49CHL1   C16 6053   4.017   1.673   8.730  0.1172 -0.6662  0.4708
   49CHL1  H16A 6054   4.053   1.687   8.626 -0.3844 -2.1718  0.0836
   49CHL1  H16B 6055   4.024   1.563   8.742 -0.2252 -0.7671 -0.2544
   49CHL1   C17 6056   3.873   1.720   8.765 -0.0883 -0.0382 -0.1932
   49CHL1   H17 6057   3.826   1.638   8.823  0.4750 -2.2117 -2.7064
   49CHL1   C13 6058   3.896   1.843   8.854  0.5387 -0.8749  0.0918
   49CHL1   C18 6059   3.932   1.969   8.769 -0.5548  0.5875  0.0617
   49CHL1  H18A 6060   4.013   1.938   8.700 -1.3736 -4.1123  1.0107
   49CHL1  H18B 6061   3.841   1.996   8.713 -1.0471 -1.5009 -0.2004
   49CHL1  H18C 6062   3.960   2.047   8.843 -0.2180  0.0121  0.5544
   49CHL1   C12 6063   3.781   1.888   8.948 -0.4906 -0.1556 -0.7058
   49CHL1  H12A 6064   3.708   1.940   8.882 -0.0377 -1.0516 -1.9422
   49CHL1  H12B 6065   3.739   1.799   9.000 -0.8769  0.1257 -0.5414
   49CHL1   C11 6066   3.828   1.982   9.060 -0.2576  0.2396 -0.2667
   49CHL1  H11A 6067   3.855   2.083   9.021  0.5096 -0.1460 -0.7550
   49CHL1  H11B 6068   3.746   1.984   9.134  0.6063 -0.9196  0.7599
   49CHL1    C9 6069   3.962   1.931   9.133 -1.1314  0.1692  0.3022
   49CHL1    H9 6070   3.940   1.840   9.193 -1.5998  0.1602  0.1234
   49CHL1   C10 6071   4.014   2.024   9.247  0.1299  1.2274  0.3469
   49CHL1   C19 6072   4.031   2.172   9.199 -0.0247  0.4515 -0.3045
   49CHL1  H19A 6073   4.114   2.188   9.127  0.1480 -1.2171 -0.4778
   49CHL1  H19B 6074   3.936   2.221   9.170 -1.0402  0.0972  2.2831
   49CHL1  H19C 6075   4.062   2.243   9.279 -0.8999 -0.4778  0.8713
   49CHL1    C1 6076   3.910   2.010   9.372 -0.6632  0.0090  0.4650
   49CHL1   H1A 6077   3.833   2.082   9.336 -0.6148  0.3313  1.0006
   49CHL1   H1B 6078   3.863   1.912   9.396 -1.7036  0.5658  0.7613
   49CHL1    C2 6079   3.968   2.066   9.503 -0.2578 -0.1716  0.6052
   49CHL1   H2A 6080   3.896   2.044   9.585 -0.6837 -3.5625 -0.5809
   49CHL1   H2B 6081   3.965   2.176   9.488  0.6782 -0.2139  0.0690
   49CHL1   C20 6082   3.790   1.720   8.638  0.1853  0.2360 -0.2017
   49CHL1   H20 6083   3.830   1.807   8.582  0.5673 -1.0874 -2.0196
   49CHL1   C21 6084   3.638   1.753   8.667  0.0599 -0.0299 -0.7219
   49CHL1  H21A 6085   3.590   1.680   8.734  0.5274 -1.1824 -1.6309
   49CHL1  H21B 6086   3.592   1.760   8.566  0.4946  1.2969 -0.8477
   49CHL1  H21C 6087   3.640   1.859   8.702 -1.1760 -0.8782  1.9970
   49CHL1   C22 6088   3.799   1.593   8.549  0.5732  1.1902 -0.3055
   49CHL1  H22A 6089   3.908   1.589   8.528  0.9124  1.7281  1.3498
   49CHL1  H22B 6090   3.771   1.502   8.605 -1.2480  1.6509 -0.4515
   49CHL1   C23 6091   3.725   1.605   8.413 -0.6247  0.4617  0.7068
   49CHL1  H23A 6092   3.616   1.601   8.432 -0.2561 -1.0852  2.6755
   49CHL1  H23B 6093   3.743   1.709   8.376  0.9798 -0.2054 -0.4345
   49CHL1   C24 6094   3.771   1.495   8.314 -0.0799 -0.1855 -0.6173
   49CHL1  H24A 6095   3.881   1.510   8.303  0.1559 -2.9620 -2.7376
   49CHL1  H24B 6096   3.751   1.401   8.370  0.5910  0.1160  0.1429
   49CHL1   C25 6097   3.704   1.487   8.175 -0.0483  0.5018  0.0934
   49CHL1   H25 6098   3.722   1.579   8.116 -0.3783 -0.8804 -2.2143
   49CHL1   C26 6099   3.772   1.375   8.097  0.0305  0.3120  0.6312
   49CHL1  H26A 6100   3.883   1.375   8.103  0.2868  3.7058 -2.3875
   49CHL1  H26B 6101   3.731   1.274   8.115 -0.3731  0.5111  0.8229
   49CHL1  H26C 6102   3.761   1.388   7.987 -1.0768 -0.5312  0.6428
   49CHL1   C27 6103   3.551   1.469   8.179 -0.2304  0.0505 -0.2659
   49CHL1  H27A 6104   3.520   1.369   8.216 -0.7827 -0.7090 -2.6682
   49CHL1  H27B 6105   3.520   1.550   8.248  0.1120 -0.3401  0.3487
   49CHL1  H27C 6106   3.504   1.481   8.079  2.0194 -0.2489 -1.3927
   50CHL1    C3 6107   1.657   3.580   9.455 -0.1093 -0.5412  0.2230
   50CHL1    H3 6108   1.617   3.670   9.403 -1.4754 -0.4713  1.3624
   50CHL1    O3 6109   1.702   3.606   9.590 -0.5252  0.2806  0.0445
   50CHL1   H3' 6110   1.750   3.531   9.628  1.6261  1.7017  0.2296
   50CHL1    C4 6111   1.540   3.484   9.465  0.1533  0.3197 -0.7709
   50CHL1   H4A 6112   1.578   3.392   9.515 -1.8687  0.1844  0.5458
   50CHL1   H4B 6113   1.461   3.528   9.529 -0.4635  0.9044 -1.9195
   50CHL1    C5 6114   1.495   3.448   9.323 -0.3360 -0.4382  0.0881
   50CHL1    C6 6115   1.368   3.468   9.288 -0.6397  0.1117 -0.1420
   50CHL1    H6 6116   1.306   3.525   9.359 -2.2123  0.9979 -2.1651
   50CHL1    C7 6117   1.307   3.435   9.150 -0.2228  0.3161 -0.1907
   50CHL1   H7A 6118   1.219   3.372   9.175 -0.6141 -0.2633 -2.9346
   50CHL1   H7B 6119   1.279   3.530   9.100 -0.2223  0.6467  0.4280
   50CHL1    C8 6120   1.412   3.342   9.081  0.7996 -0.4358  0.6096
   50CHL1    H8 6121   1.406   3.235   9.110  1.0843 -0.4053  0.7836
   50CHL1   C14 6122   1.373   3.336   8.930  0.1450  0.6889  0.0961
   50CHL1   H14 6123   1.376   3.439   8.889  0.7533  0.0386 -1.5356
   50CHL1   C15 6124   1.229   3.283   8.903 -0.0672  0.4610 -0.4016
   50CHL1  H15A 6125   1.205   3.191   8.961 -0.0720  0.5365 -0.2853
   50CHL1  H15B 6126   1.141   3.349   8.919 -0.8533 -1.1525  2.2328
   50CHL1   C16 6127   1.239   3.244   8.750 -0.5901  0.3464 -0.7219
   50CHL1  H16A 6128   1.206   3.140   8.727  1.6218 -0.7233  0.7366
   50CHL1  H16B 6129   1.177   3.322   8.701 -0.3953 -0.4106 -2.2145
   50CHL1   C17 6130   1.386   3.261   8.706 -0.0113 -0.0786 -0.0030
   50CHL1   H17 6131   1.395   3.368   8.681 -2.2024 -0.1135 -1.0504
   50CHL1   C13 6132   1.464   3.256   8.837  0.5811  0.1785  0.0020
   50CHL1   C18 6133   1.476   3.107   8.866  0.3299 -0.7070  0.3967
   50CHL1  H18A 6134   1.559   3.075   8.800  2.5439  0.7218  2.4002
   50CHL1  H18B 6135   1.495   3.089   8.974  0.4722 -0.3287  0.4366
   50CHL1  H18C 6136   1.392   3.037   8.846  1.3587 -1.4747 -1.3072
   50CHL1   C12 6137   1.595   3.331   8.841 -0.0010  0.5220 -0.6764
   50CHL1  H12A 6138   1.678   3.283   8.785  0.3297  1.0990 -0.6890
   50CHL1  H12B 6139   1.581   3.438   8.814 -0.1410  0.6847  0.0432
   50CHL1   C11 6140   1.654   3.330   8.984 -0.0201 -0.4611 -0.8437
   50CHL1  H11A 6141   1.667   3.221   8.999 -0.8705 -0.4524 -0.0169
   50CHL1  H11B 6142   1.757   3.372   8.980  1.0430 -3.0198 -1.8029
   50CHL1    C9 6143   1.559   3.389   9.088  0.1658 -0.3407  0.3587
   50CHL1    H9 6144   1.540   3.490   9.045  1.0300 -0.9005 -1.4148
   50CHL1   C10 6145   1.607   3.396   9.231  0.7577  0.2050  0.2703
   50CHL1   C19 6146   1.641   3.254   9.275 -0.1097  0.8878  0.3631
   50CHL1  H19A 6147   1.572   3.175   9.239  0.5618  1.4311 -2.1681
   50CHL1  H19B 6148   1.735   3.219   9.228  1.4344  1.4936  2.8928
   50CHL1  H19C 6149   1.662   3.247   9.384  0.7562 -0.0705  0.1333
   50CHL1    C1 6150   1.725   3.490   9.229 -0.4837 -0.5808  0.1664
   50CHL1   H1A 6151   1.809   3.453   9.165  0.1403 -0.7760  1.0785
   50CHL1   H1B 6152   1.690   3.588   9.191 -1.3493 -1.3209 -0.9730
   50CHL1    C2 6153   1.771   3.526   9.370  0.7834 -0.1856 -0.0606
   50CHL1   H2A 6154   1.857   3.597   9.366 -0.8070  1.8263  0.3555
   50CHL1   H2B 6155   1.808   3.427   9.404  0.8974 -0.5835 -1.3199
   50CHL1   C20 6156   1.436   3.186   8.576  0.9424 -0.3081 -1.0273
   50CHL1   H20 6157   1.375   3.226   8.492  0.5163 -1.8441 -1.4649
   50CHL1   C21 6158   1.430   3.034   8.561 -0.9059 -0.1373  0.3034
   50CHL1  H21A 6159   1.516   2.994   8.618  1.7718  0.6165 -3.0565
   50CHL1  H21B 6160   1.445   3.001   8.457  1.6397 -0.5208  0.7666
   50CHL1  H21C 6161   1.328   3.008   8.598 -0.7155  0.4368  1.2752
   50CHL1   C22 6162   1.582   3.226   8.537  0.6533  0.6797 -0.6207
   50CHL1  H22A 6163   1.590   3.334   8.562 -2.7971  0.4475  1.7693
   50CHL1  H22B 6164   1.641   3.161   8.605 -1.6216  3.8422  4.6850
   50CHL1   C23 6165   1.603   3.204   8.391 -0.1003 -0.0573  0.1047
   50CHL1  H23A 6166   1.639   3.102   8.364  1.9329  1.0019 -1.3198
   50CHL1  H23B 6167   1.513   3.233   8.333 -0.4280 -2.1052 -0.4323
   50CHL1   C24 6168   1.720   3.292   8.347 -0.0927 -0.0082 -0.7863
   50CHL1  H24A 6169   1.707   3.401   8.367 -0.5398  0.2921 -2.5880
   50CHL1  H24B 6170   1.808   3.257   8.406  1.0881  1.5478 -1.5639
   50CHL1   C25 6171   1.758   3.285   8.202 -0.3234  0.6082  0.5891
   50CHL1   H25 6172   1.783   3.179   8.182 -0.2330  1.0284 -1.6811
   50CHL1   C26 6173   1.652   3.323   8.101  1.1433  0.0681 -0.0687
   50CHL1  H26A 6174   1.622   3.428   8.119 -1.0487 -0.4404 -0.5318
   50CHL1  H26B 6175   1.683   3.307   7.996 -0.0679  1.4179 -0.6345
   50CHL1  H26C 6176   1.560   3.260   8.116  0.2446  0.9841 -1.6603
   50CHL1   C27 6177   1.885   3.367   8.177  0.4556 -0.4295  0.1007
   50CHL1  H27A 6178   1.898   3.367   8.066  1.7276 -2.2406  0.2408
   50CHL1  H27B 6179   1.885   3.474   8.207  1.7708 -0.6365  0.8625
   50CHL1  H27C 6180   1.970   3.330   8.237 -0.1424 -2.4781 -0.2801
   51CHL1    C3 6181   2.247   5.497   9.479  0.6951 -0.0870  0.6717
   51CHL1    H3 6182   2.266   5.607   9.478  1.4888 -0.1910  2.3733
   51CHL1    O3 6183   2.261   5.455   9.611  0.2243 -0.0849 -0.5082
   51CHL1   H3' 6184   2.354   5.456   9.632 -0.5221 -1.6890  3.1184
   51CHL1    C4 6185   2.106   5.462   9.421  0.0343  0.1920  0.0274
   51CHL1   H4A 6186   2.096   5.355   9.451 -0.1436  0.1267 -0.2558
   51CHL1   H4B 6187   2.027   5.521   9.472 -3.5023 -2.2293 -2.4044
   51CHL1    C5 6188   2.081   5.479   9.277  0.0387  0.8455  0.3346
   51CHL1    C6 6189   1.978   5.551   9.232  0.3927 -0.1931 -0.0171
   51CHL1    H6 6190   1.906   5.592   9.304  0.4391  0.3010 -0.2479
   51CHL1    C7 6191   1.940   5.561   9.091 -0.5509  0.3856 -0.1151
   51CHL1   H7A 6192   1.832   5.540   9.076 -0.7214  0.3814  1.0773
   51CHL1   H7B 6193   1.941   5.668   9.062  1.8187  1.1309  2.4410
   51CHL1    C8 6194   2.027   5.489   8.989  0.9096  0.2818  0.4179
   51CHL1    H8 6195   1.999   5.382   9.004 -2.1486  0.8743 -0.6748
   51CHL1   C14 6196   2.008   5.542   8.844 -1.0514 -0.3276  0.1744
   51CHL1   H14 6197   2.058   5.639   8.859  0.9212 -1.4662  1.1432
   51CHL1   C15 6198   1.866   5.558   8.789  0.0999 -0.2409 -0.1610
   51CHL1  H15A 6199   1.791   5.476   8.786  0.1786 -0.3790  1.3259
   51CHL1  H15B 6200   1.833   5.651   8.840 -0.8680  0.1348 -1.4430
   51CHL1   C16 6201   1.905   5.588   8.637 -0.2535 -0.5346  0.2508
   51CHL1  H16A 6202   1.823   5.550   8.573 -1.4854  0.2905  1.3038
   51CHL1  H16B 6203   1.907   5.698   8.623  0.3565 -0.7118 -1.0513
   51CHL1   C17 6204   2.043   5.534   8.611  0.2086  0.2404  1.3974
   51CHL1   H17 6205   2.114   5.617   8.593  0.0196 -0.0290 -0.7552
   51CHL1   C13 6206   2.086   5.462   8.742  0.2656 -0.1023  0.6438
   51CHL1   C18 6207   2.051   5.313   8.745 -0.1558  0.0146  0.1876
   51CHL1  H18A 6208   2.091   5.264   8.836  0.1795 -1.3543 -0.6826
   51CHL1  H18B 6209   1.940   5.307   8.748 -0.0476 -2.1319  0.3122
   51CHL1  H18C 6210   2.086   5.265   8.651  0.7034  0.1578  0.4298
   51CHL1   C12 6211   2.238   5.474   8.771 -0.4612 -0.1705  0.1429
   51CHL1  H12A 6212   2.291   5.411   8.696  0.8145 -0.6266  1.3943
   51CHL1  H12B 6213   2.277   5.577   8.759 -1.5060  0.5240  2.4446
   51CHL1   C11 6214   2.269   5.434   8.918  0.4618  0.6959  0.0612
   51CHL1  H11A 6215   2.272   5.323   8.922  0.4192  0.7582  1.9551
   51CHL1  H11B 6216   2.370   5.466   8.952  0.7727  0.4066 -0.5697
   51CHL1    C9 6217   2.175   5.489   9.030  0.8912  0.5605  0.0839
   51CHL1    H9 6218   2.195   5.598   9.036 -1.7363  1.0616  0.2342
   51CHL1   C10 6219   2.192   5.429   9.177  0.0088  0.0540 -0.3112
   51CHL1   C19 6220   2.192   5.274   9.165 -0.0066 -0.4818 -0.3474
   51CHL1  H19A 6221   2.190   5.223   9.263  3.0523 -0.4462 -0.2245
   51CHL1  H19B 6222   2.115   5.229   9.098 -0.4909  0.2493 -0.2845
   51CHL1  H19C 6223   2.291   5.245   9.123  0.7158  1.3425  0.0666
   51CHL1    C1 6224   2.330   5.477   9.242 -0.3030  0.0651  0.5996
   51CHL1   H1A 6225   2.411   5.432   9.181 -0.7933  1.6868 -1.2909
   51CHL1   H1B 6226   2.332   5.588   9.237 -0.0467 -0.0397 -2.5392
   51CHL1    C2 6227   2.353   5.440   9.389  0.1992 -0.2013  0.5739
   51CHL1   H2A 6228   2.453   5.479   9.415  0.7544  0.0626 -1.8442
   51CHL1   H2B 6229   2.363   5.330   9.402 -0.0088 -0.2775  0.0948
   51CHL1   C20 6230   2.063   5.460   8.476  0.2721  0.1886  0.1638
   51CHL1   H20 6231   2.153   5.396   8.475  0.5072  0.5077  0.7099
   51CHL1   C21 6232   2.101   5.571   8.374 -0.1324 -0.6136  0.6146
   51CHL1  H21A 6233   2.102   5.536   8.268  0.2044 -0.7855  0.6748
   51CHL1  H21B 6234   2.206   5.602   8.392 -0.7696  2.1940 -0.2012
   51CHL1  H21C 6235   2.034   5.659   8.381  1.8636  0.7437  3.3068
   51CHL1   C22 6236   1.955   5.369   8.425 -0.2370  0.0131 -0.5384
   51CHL1  H22A 6237   1.930   5.297   8.505  1.5931  0.0295  0.0702
   51CHL1  H22B 6238   1.865   5.432   8.409 -0.6686 -0.6257 -0.6213
   51CHL1   C23 6239   1.982   5.291   8.299  0.2225 -0.7477  0.0752
   51CHL1  H23A 6240   2.016   5.361   8.219 -0.3532  1.4062  1.6825
   51CHL1  H23B 6241   2.051   5.204   8.309 -0.6231 -1.7690 -2.4981
   51CHL1   C24 6242   1.857   5.225   8.233  0.1929 -0.3469  0.0194
   51CHL1  H24A 6243   1.792   5.158   8.293 -1.2051  0.7625 -0.2107
   51CHL1  H24B 6244   1.797   5.314   8.202  0.9765  0.0674 -0.3204
   51CHL1   C25 6245   1.891   5.147   8.106 -0.7236 -0.2582 -0.2137
   51CHL1   H25 6246   1.933   5.219   8.033 -1.7932  1.9198  1.2517
   51CHL1   C26 6247   1.982   5.034   8.137  0.2612 -0.1843 -0.4391
   51CHL1  H26A 6248   1.997   4.959   8.057  1.8186 -2.0557  1.5445
   51CHL1  H26B 6249   2.082   5.072   8.165 -0.7200  1.9061  0.3955
   51CHL1  H26C 6250   1.942   4.974   8.222  0.1939  1.9762  1.1050
   51CHL1   C27 6251   1.763   5.096   8.031 -0.1317 -0.0597 -0.6104
   51CHL1  H27A 6252   1.805   5.045   7.941 -2.6966  0.1795 -1.9773
   51CHL1  H27B 6253   1.715   5.017   8.093 -0.0712 -0.8580 -1.5511
   51CHL1  H27C 6254   1.692   5.179   8.011  0.3592  0.1323 -1.5724
   52CHL1    C3 6255   5.956   2.473   9.590 -0.0988  0.1146 -0.5575
   52CHL1    H3 6256   5.883   2.393   9.567  0.7038 -0.3501 -1.5011
   52CHL1    O3 6257   6.001   2.460   9.728  0.1530 -0.0874  0.2105
   52CHL1   H3' 6258   6.093   2.487   9.727 -0.1540  1.1909  2.8998
   52CHL1    C4 6259   6.077   2.434   9.501 -0.7891 -0.1546 -0.3422
   52CHL1   H4A 6260   6.154   2.506   9.535 -1.2652 -1.0729  2.8325
   52CHL1   H4B 6261   6.106   2.334   9.541  2.6589  0.3766 -1.3021
   52CHL1    C5 6262   6.031   2.440   9.355  0.5580  0.5050 -0.9376
   52CHL1    C6 6263   6.044   2.331   9.275 -0.3535  0.0114 -0.2682
   52CHL1    H6 6264   6.101   2.243   9.308  1.6897  1.3891 -0.0317
   52CHL1    C7 6265   6.000   2.332   9.134 -0.1354  0.0518  0.1484
   52CHL1   H7A 6266   6.064   2.274   9.064  1.3783 -0.5484  1.9861
   52CHL1   H7B 6267   5.901   2.282   9.132 -0.7377  1.2381 -0.5493
   52CHL1    C8 6268   5.979   2.470   9.075 -0.3872  0.5586 -0.1416
   52CHL1    H8 6269   6.078   2.519   9.067  0.1582 -0.3411  0.9243
   52CHL1   C14 6270   5.913   2.462   8.936  0.0448  0.0297 -0.2790
   52CHL1   H14 6271   5.820   2.407   8.958  0.3930  1.0579  4.2340
   52CHL1   C15 6272   5.971   2.384   8.828 -0.2067 -0.4726  0.2824
   52CHL1  H15A 6273   6.079   2.409   8.822 -0.5443  0.9154 -0.1440
   52CHL1  H15B 6274   5.952   2.278   8.857 -2.1755  0.4583  2.6262
   52CHL1   C16 6275   5.906   2.434   8.706 -0.7167 -0.1868  0.0552
   52CHL1  H16A 6276   5.986   2.481   8.646 -0.4996  1.3757  1.5443
   52CHL1  H16B 6277   5.876   2.349   8.641 -0.8076  0.8298 -1.2513
   52CHL1   C17 6278   5.802   2.548   8.747 -0.2195 -0.3710  0.3152
   52CHL1   H17 6279   5.714   2.490   8.783 -0.3383  0.3994  1.2824
   52CHL1   C13 6280   5.865   2.597   8.878 -0.9567  0.0059 -0.3157
   52CHL1   C18 6281   5.982   2.692   8.841  0.2567  0.1008 -0.5671
   52CHL1  H18A 6282   6.056   2.637   8.778  1.2652 -0.4173  1.0323
   52CHL1  H18B 6283   5.938   2.775   8.782 -2.5232 -1.0358 -0.1543
   52CHL1  H18C 6284   6.039   2.734   8.927  2.5546 -2.4759 -0.7485
   52CHL1   C12 6285   5.766   2.662   8.973 -0.1552 -0.4700 -0.1636
   52CHL1  H12A 6286   5.719   2.751   8.924 -2.5859 -1.5443  0.1333
   52CHL1  H12B 6287   5.682   2.590   8.968  1.1661 -1.9116 -2.4380
   52CHL1   C11 6288   5.828   2.683   9.111 -0.0353 -0.0242  0.3821
   52CHL1  H11A 6289   5.902   2.764   9.098 -0.4601  0.2084 -0.6691
   52CHL1  H11B 6290   5.738   2.718   9.166  0.6626  1.5830  0.5270
   52CHL1    C9 6291   5.894   2.559   9.172  0.1743 -0.7268 -0.6233
   52CHL1    H9 6292   5.801   2.498   9.180  0.4194 -1.2345 -1.5508
   52CHL1   C10 6293   5.961   2.569   9.310  0.2157  0.5581  0.7641
   52CHL1   C19 6294   6.059   2.687   9.299  0.0161 -0.1103  0.4428
   52CHL1  H19A 6295   6.117   2.682   9.394  3.0143  0.6184 -1.3055
   52CHL1  H19B 6296   6.122   2.679   9.208 -3.1285  1.3693 -1.9652
   52CHL1  H19C 6297   6.000   2.780   9.286 -2.8317 -1.8297  0.6993
   52CHL1    C1 6298   5.853   2.604   9.417  0.1688 -0.0035  0.4702
   52CHL1   H1A 6299   5.831   2.711   9.394 -0.5167 -0.4490 -1.0706
   52CHL1   H1B 6300   5.771   2.538   9.380 -0.3736 -0.1520  1.9131
   52CHL1    C2 6301   5.897   2.609   9.560 -0.4581  0.3348 -0.3972
   52CHL1   H2A 6302   5.810   2.640   9.621  0.2240  0.6426  0.4241
   52CHL1   H2B 6303   5.964   2.695   9.581 -0.9257  0.7949 -0.7652
   52CHL1   C20 6304   5.765   2.647   8.635 -0.3913 -0.1943 -0.7776
   52CHL1   H20 6305   5.859   2.687   8.591 -0.2095  0.3204  0.0596
   52CHL1   C21 6306   5.680   2.772   8.683 -0.4568 -0.0764 -0.0826
   52CHL1  H21A 6307   5.731   2.839   8.755  0.8669  2.6715 -3.4269
   52CHL1  H21B 6308   5.592   2.730   8.735 -0.5292  0.9555  0.6468
   52CHL1  H21C 6309   5.642   2.833   8.598 -1.5112  0.8715  1.0337
   52CHL1   C22 6310   5.692   2.567   8.524  0.6875  0.3242 -0.3375
   52CHL1  H22A 6311   5.736   2.466   8.511 -1.5042 -0.8373  1.0036
   52CHL1  H22B 6312   5.590   2.564   8.567  1.7058  0.9126  2.2562
   52CHL1   C23 6313   5.681   2.645   8.389  0.0347  0.1172  1.1135
   52CHL1  H23A 6314   5.628   2.741   8.405 -0.4417  0.2168 -0.9163
   52CHL1  H23B 6315   5.785   2.676   8.366  0.6189 -1.9974  0.7935
   52CHL1   C24 6316   5.624   2.569   8.269  0.7915  0.2740  0.1619
   52CHL1  H24A 6317   5.697   2.491   8.237  1.0574  0.6887 -0.2561
   52CHL1  H24B 6318   5.531   2.520   8.303 -0.7552  2.5226 -0.7065
   52CHL1   C25 6319   5.619   2.665   8.151 -0.2804 -0.3525 -0.0015
   52CHL1   H25 6320   5.563   2.756   8.182  0.2111 -0.2735  0.6646
   52CHL1   C26 6321   5.767   2.705   8.115 -0.2083 -0.7845  0.6814
   52CHL1  H26A 6322   5.820   2.758   8.197  2.0888  0.9246 -1.8238
   52CHL1  H26B 6323   5.825   2.623   8.069 -1.9027 -1.7172  0.1577
   52CHL1  H26C 6324   5.759   2.784   8.037  0.6056 -0.0016  1.3847
   52CHL1   C27 6325   5.546   2.606   8.029 -0.5273 -0.2207 -0.1586
   52CHL1  H27A 6326   5.545   2.664   7.934 -3.0397  0.3546  0.1801
   52CHL1  H27B 6327   5.586   2.512   7.984  1.7506  0.1028  1.1061
   52CHL1  H27C 6328   5.443   2.589   8.065 -0.2975  1.5114  1.4043
   53CHL1    C3 6329   6.777   3.173   9.493 -0.4184 -0.6070 -0.3414
   53CHL1    H3 6330   6.851   3.093   9.472  0.7817  0.9798 -2.2507
   53CHL1    O3 6331   6.755   3.180   9.633 -0.1988  0.1306 -0.8573
   53CHL1   H3' 6332   6.671   3.227   9.637 -0.5053 -0.5637  4.0230
   53CHL1    C4 6333   6.858   3.302   9.449  0.1022 -0.3634 -0.5976
   53CHL1   H4A 6334   6.811   3.390   9.498  1.9951  1.2387 -1.6030
   53CHL1   H4B 6335   6.955   3.306   9.504 -1.0354  0.3831  1.4067
   53CHL1    C5 6336   6.872   3.328   9.301 -0.6348  0.2948  0.1187
   53CHL1    C6 6337   6.991   3.341   9.238 -0.0494 -0.8436  0.3175
   53CHL1    H6 6338   7.083   3.342   9.298  0.8537  0.3891 -1.0418
   53CHL1    C7 6339   7.011   3.362   9.091  0.1123  0.4915  0.1124
   53CHL1   H7A 6340   7.064   3.459   9.079 -0.6145  0.9431  0.4918
   53CHL1   H7B 6341   7.068   3.284   9.037 -0.6047  1.7214 -2.5397
   53CHL1    C8 6342   6.879   3.380   9.016 -0.2644 -0.2574  0.1056
   53CHL1    H8 6343   6.851   3.486   9.030  2.0143  0.4525 -0.4255
   53CHL1   C14 6344   6.892   3.361   8.864  0.4284  0.2940  0.0172
   53CHL1   H14 6345   6.898   3.251   8.848  1.3919  0.6675 -2.3468
   53CHL1   C15 6346   7.022   3.409   8.789  0.4664 -0.6899  0.3946
   53CHL1  H15A 6347   7.035   3.514   8.822 -1.5810  0.0461 -1.0158
   53CHL1  H15B 6348   7.107   3.343   8.816  2.2733  1.3684 -0.0758
   53CHL1   C16 6349   6.979   3.405   8.640  1.3696  0.0425 -0.0093
   53CHL1  H16A 6350   6.980   3.511   8.606 -1.2771  0.0500 -0.2160
   53CHL1  H16B 6351   7.028   3.353   8.556 -3.1567  1.5564 -3.7786
   53CHL1   C17 6352   6.830   3.368   8.640 -0.6146 -0.4130  0.2632
   53CHL1   H17 6353   6.828   3.257   8.639 -0.5173 -0.4116 -0.3453
   53CHL1   C13 6354   6.774   3.403   8.784  0.0501  0.1335  0.4631
   53CHL1   C18 6355   6.735   3.560   8.799  0.9080  0.3223 -0.4240
   53CHL1  H18A 6356   6.825   3.618   8.767  0.9461 -0.7381 -2.3658
   53CHL1  H18B 6357   6.652   3.591   8.732  0.1166  0.4598  0.6208
   53CHL1  H18C 6358   6.709   3.578   8.905 -0.7099  0.2497 -0.7976
   53CHL1   C12 6359   6.650   3.316   8.833 -0.2569 -0.3943  0.1805
   53CHL1  H12A 6360   6.558   3.340   8.775  0.2520 -0.2053 -0.5521
   53CHL1  H12B 6361   6.678   3.218   8.787 -0.5572  0.4764 -1.9320
   53CHL1   C11 6362   6.632   3.321   8.984  0.1759  0.0858 -0.2768
   53CHL1  H11A 6363   6.573   3.408   9.019 -0.7383  0.2627 -2.2351
   53CHL1  H11B 6364   6.566   3.237   9.016 -1.0161  2.1313  2.9288
   53CHL1    C9 6365   6.762   3.292   9.066 -0.3523  0.1395  0.5225
   53CHL1    H9 6366   6.796   3.190   9.040  2.9050  0.8914  1.6669
   53CHL1   C10 6367   6.746   3.300   9.220  0.5452  0.6305 -0.5876
   53CHL1   C19 6368   6.655   3.419   9.251 -0.3386 -0.7107  0.6722
   53CHL1  H19A 6369   6.551   3.405   9.215  0.3000 -2.6755 -0.4908
   53CHL1  H19B 6370   6.657   3.442   9.360 -2.2378  2.1570  0.1659
   53CHL1  H19C 6371   6.688   3.517   9.210 -2.1576 -1.1332 -1.9098
   53CHL1    C1 6372   6.682   3.173   9.272  0.3944 -0.1828  0.3258
   53CHL1   H1A 6373   6.588   3.154   9.216  0.1747 -1.7255  1.1977
   53CHL1   H1B 6374   6.749   3.088   9.246  0.5811  0.8014 -2.6714
   53CHL1    C2 6375   6.651   3.164   9.420  0.6266 -0.0072  0.0033
   53CHL1   H2A 6376   6.604   3.066   9.446  0.4024 -0.1534 -0.9634
   53CHL1   H2B 6377   6.582   3.244   9.453  1.7085  1.1067 -0.4207
   53CHL1   C20 6378   6.753   3.404   8.506  0.5085  0.4742  0.2370
   53CHL1   H20 6379   6.789   3.343   8.421 -1.6970  1.1811 -1.2585
   53CHL1   C21 6380   6.779   3.551   8.457 -0.1847  0.0911 -0.4827
   53CHL1  H21A 6381   6.883   3.557   8.417 -1.3648  0.3051 -3.6515
   53CHL1  H21B 6382   6.760   3.612   8.548 -2.5806 -0.2313 -0.7332
   53CHL1  H21C 6383   6.709   3.587   8.379 -0.5920 -0.6412 -0.4566
   53CHL1   C22 6384   6.607   3.372   8.512  0.3402 -0.2175  0.8910
   53CHL1  H22A 6385   6.596   3.274   8.563 -2.9540 -0.7045 -0.6327
   53CHL1  H22B 6386   6.549   3.443   8.576 -0.3087 -3.8902  4.5722
   53CHL1   C23 6387   6.548   3.356   8.370  0.5046  0.3547 -0.5607
   53CHL1  H23A 6388   6.565   3.444   8.305 -1.1561  1.3741  0.3499
   53CHL1  H23B 6389   6.595   3.265   8.327 -0.6584 -1.5590  2.1130
   53CHL1   C24 6390   6.393   3.344   8.384  0.0663  0.0748  0.9757
   53CHL1  H24A 6391   6.373   3.264   8.458 -0.9746 -1.3768 -0.8390
   53CHL1  H24B 6392   6.364   3.437   8.438  1.3403 -0.4330  2.5665
   53CHL1   C25 6393   6.331   3.319   8.248  0.0600 -0.2689  0.6942
   53CHL1   H25 6394   6.381   3.396   8.186 -1.5837 -1.7629 -2.6589
   53CHL1   C26 6395   6.367   3.187   8.185 -0.0869 -0.1389 -0.2074
   53CHL1  H26A 6396   6.314   3.186   8.088 -2.2408  2.9617  0.8653
   53CHL1  H26B 6397   6.477   3.175   8.169  0.0378  2.4594 -1.5365
   53CHL1  H26C 6398   6.329   3.107   8.253  0.3719  0.1390  0.3786
   53CHL1   C27 6399   6.178   3.343   8.237 -0.5791 -0.1184  0.1524
   53CHL1  H27A 6400   6.127   3.262   8.293 -0.3165 -0.1133  0.3976
   53CHL1  H27B 6401   6.163   3.447   8.275  0.1420  0.3084 -0.6999
   53CHL1  H27C 6402   6.135   3.335   8.135 -0.6584 -1.1390  0.2628
   54CHL1    C3 6403   6.725   3.829   9.538 -0.0468 -0.1279 -0.1118
   54CHL1    H3 6404   6.671   3.740   9.498  0.2535  0.2953 -1.4862
   54CHL1    O3 6405   6.722   3.821   9.685  0.2358  0.7698 -0.1109
   54CHL1   H3' 6406   6.752   3.907   9.717  0.5857  2.3067 -4.2467
   54CHL1    C4 6407   6.873   3.831   9.484 -0.2836  0.1348  0.0380
   54CHL1   H4A 6408   6.923   3.908   9.546 -0.0209 -0.9675  1.2074
   54CHL1   H4B 6409   6.916   3.732   9.507 -1.9907 -0.7932 -0.6928
   54CHL1    C5 6410   6.891   3.860   9.337  0.1550 -0.1127  0.6090
   54CHL1    C6 6411   6.975   3.780   9.270 -0.0178 -0.4322 -0.1587
   54CHL1    H6 6412   7.040   3.712   9.327 -0.4845  0.2047  1.1606
   54CHL1    C7 6413   7.009   3.789   9.123  0.0938 -0.6457  0.2440
   54CHL1   H7A 6414   7.117   3.797   9.098 -0.2941  0.1480 -1.2107
   54CHL1   H7B 6415   6.960   3.702   9.074 -0.5856 -0.4243  0.5231
   54CHL1    C8 6416   6.937   3.909   9.054  0.0960 -0.4399  0.1308
   54CHL1    H8 6417   7.000   3.998   9.076  0.3667 -1.1566  2.3110
   54CHL1   C14 6418   6.912   3.886   8.905  0.6472 -0.6039  0.2289
   54CHL1   H14 6419   6.835   3.806   8.905  2.0276 -1.9518  0.5671
   54CHL1   C15 6420   7.027   3.845   8.813 -0.2881 -0.8719 -0.0808
   54CHL1  H15A 6421   7.118   3.896   8.853 -0.8166 -0.6814  0.8895
   54CHL1  H15B 6422   7.058   3.739   8.812  0.8557 -0.5484 -2.2954
   54CHL1   C16 6423   6.965   3.870   8.673  0.0160  0.4213 -0.1545
   54CHL1  H16A 6424   7.032   3.930   8.607 -0.4826  0.5346 -0.5580
   54CHL1  H16B 6425   6.943   3.773   8.624 -1.3815 -0.5083  2.2613
   54CHL1   C17 6426   6.832   3.938   8.691  0.0550  0.3082 -0.8294
   54CHL1   H17 6427   6.753   3.860   8.693 -0.2592  0.5926 -1.6508
   54CHL1   C13 6428   6.840   3.998   8.834 -0.5919 -0.0469 -1.2507
   54CHL1   C18 6429   6.926   4.125   8.825  0.0637  0.6506  0.6116
   54CHL1  H18A 6430   6.950   4.153   8.930  2.7367 -1.3448  0.5906
   54CHL1  H18B 6431   7.012   4.112   8.755 -0.4158 -0.0549  0.1507
   54CHL1  H18C 6432   6.865   4.210   8.788  0.1339  0.9025  1.0635
   54CHL1   C12 6433   6.703   4.034   8.909 -0.2814 -0.0879 -0.2789
   54CHL1  H12A 6434   6.650   4.115   8.855  1.3656  1.7064  0.7172
   54CHL1  H12B 6435   6.646   3.939   8.903 -1.5121  0.7961 -4.1036
   54CHL1   C11 6436   6.722   4.057   9.052  0.3134 -0.5311  0.0381
   54CHL1  H11A 6437   6.770   4.156   9.065 -0.4842 -0.2612  1.0364
   54CHL1  H11B 6438   6.621   4.058   9.099 -1.0534  1.6821 -2.8059
   54CHL1    C9 6439   6.805   3.946   9.122  0.0847 -0.0903  0.6733
   54CHL1    H9 6440   6.750   3.851   9.102 -1.6174  0.6292  1.8284
   54CHL1   C10 6441   6.804   3.966   9.277  0.1964 -0.1552  0.0061
   54CHL1   C19 6442   6.865   4.106   9.318  0.2552  0.4888 -0.2847
   54CHL1  H19A 6443   6.975   4.100   9.302  0.9414  0.3172  3.9030
   54CHL1  H19B 6444   6.823   4.189   9.258  0.4431  0.5979 -0.2630
   54CHL1  H19C 6445   6.839   4.116   9.426 -1.5617  0.1804 -0.6773
   54CHL1    C1 6446   6.655   3.967   9.335  0.7038  0.2767 -0.0796
   54CHL1   H1A 6447   6.614   4.067   9.309  2.8387  1.1846 -0.0586
   54CHL1   H1B 6448   6.602   3.883   9.284 -0.1731  0.5630  0.3488
   54CHL1    C2 6449   6.644   3.949   9.488  0.9943 -0.4524 -0.2192
   54CHL1   H2A 6450   6.535   3.940   9.508  1.1675 -0.7203  0.6398
   54CHL1   H2B 6451   6.688   4.038   9.539  1.2928  1.0111 -2.9500
   54CHL1   C20 6452   6.804   4.034   8.570  1.1118  0.4800 -0.2972
   54CHL1   H20 6453   6.890   4.103   8.558  0.5338  1.6026  1.7941
   54CHL1   C21 6454   6.689   4.135   8.603  0.2836  0.0380 -0.2606
   54CHL1  H21A 6455   6.597   4.074   8.613  0.0465  0.7206  1.9377
   54CHL1  H21B 6456   6.679   4.202   8.514 -0.4855  0.3363  0.0451
   54CHL1  H21C 6457   6.703   4.193   8.696  2.1543 -1.3127  0.3391
   54CHL1   C22 6458   6.779   3.960   8.436 -0.2061  0.3477  0.2384
   54CHL1  H22A 6459   6.873   3.908   8.407 -0.7771 -1.1938  1.0721
   54CHL1  H22B 6460   6.705   3.878   8.448  0.1524 -0.2436 -1.4392
   54CHL1   C23 6461   6.746   4.056   8.314 -0.1537 -0.0173  0.1387
   54CHL1  H23A 6462   6.648   4.106   8.329  0.6152  2.0072 -1.2342
   54CHL1  H23B 6463   6.825   4.133   8.301  1.5071 -1.3268  2.2052
   54CHL1   C24 6464   6.727   3.965   8.186  0.5707 -0.3155  0.2400
   54CHL1  H24A 6465   6.816   3.900   8.169  0.3391 -0.7146  0.5438
   54CHL1  H24B 6466   6.638   3.900   8.201 -0.7667  1.3793 -0.0996
   54CHL1   C25 6467   6.704   4.039   8.057 -0.7259 -0.2495 -0.5762
   54CHL1   H25 6468   6.758   4.136   8.054 -1.7660  0.3975  0.7813
   54CHL1   C26 6469   6.744   3.953   7.944  0.5072 -0.1804 -0.4089
   54CHL1  H26A 6470   6.725   3.998   7.845 -0.3061  1.5841  0.5268
   54CHL1  H26B 6471   6.855   3.942   7.951  0.5839  1.3922  1.3431
   54CHL1  H26C 6472   6.691   3.857   7.959 -0.1575  0.3024  0.4197
   54CHL1   C27 6473   6.558   4.082   8.046 -0.3016  0.7050 -0.1065
   54CHL1  H27A 6474   6.526   4.139   7.957  3.5318  0.2826 -1.8471
   54CHL1  H27B 6475   6.485   4.001   8.068  0.2762  0.5570  1.3758
   54CHL1  H27C 6476   6.542   4.153   8.130  0.9278 -1.5266  2.0938
   55CHL1    C3 6477   1.223   2.399   9.353 -0.1410  0.1049  0.2472
   55CHL1    H3 6478   1.314   2.362   9.300 -0.1917 -0.7587  0.7770
   55CHL1    O3 6479   1.232   2.367   9.486 -0.1438  0.4499 -0.0632
   55CHL1   H3' 6480   1.283   2.432   9.534  0.1873 -1.2625  1.9619
   55CHL1    C4 6481   1.187   2.546   9.336  0.1064 -0.2098  0.0428
   55CHL1   H4A 6482   1.099   2.572   9.399  0.0791 -1.0767  0.3692
   55CHL1   H4B 6483   1.266   2.609   9.381 -0.9265  2.3023 -1.5568
   55CHL1    C5 6484   1.163   2.595   9.194  1.0261 -0.8518 -0.3477
   55CHL1    C6 6485   1.225   2.697   9.135  0.4165  0.3481 -0.2886
   55CHL1    H6 6486   1.285   2.766   9.195  0.0975  2.0523 -1.9074
   55CHL1    C7 6487   1.208   2.743   8.997  0.3342  0.1276 -0.5584
   55CHL1   H7A 6488   1.205   2.854   8.987  5.7842  0.3939 -0.9259
   55CHL1   H7B 6489   1.293   2.702   8.938  1.5472  0.4242  0.9354
   55CHL1    C8 6490   1.083   2.690   8.925 -0.7395  0.0320  0.2218
   55CHL1    H8 6491   0.996   2.749   8.963 -1.3650 -1.6874  1.5259
   55CHL1   C14 6492   1.098   2.710   8.773 -0.6072 -0.8472 -0.4565
   55CHL1   H14 6493   1.170   2.632   8.742  0.3511 -0.7633  1.5250
   55CHL1   C15 6494   1.139   2.850   8.724 -0.2268 -0.3574 -0.0774
   55CHL1  H15A 6495   1.077   2.916   8.788  0.5820  0.7187 -0.3904
   55CHL1  H15B 6496   1.249   2.863   8.735  0.3363 -0.4532 -4.6849
   55CHL1   C16 6497   1.091   2.851   8.582 -0.0051 -1.1718  0.0327
   55CHL1  H16A 6498   1.018   2.934   8.567  1.5173  0.3811  0.9501
   55CHL1  H16B 6499   1.177   2.870   8.514 -0.1589 -0.2786  0.0706
   55CHL1   C17 6500   1.024   2.709   8.559  0.1074 -0.6083 -0.2719
   55CHL1   H17 6501   1.109   2.642   8.535 -1.2863 -2.4891 -0.0149
   55CHL1   C13 6502   0.975   2.671   8.701 -0.2800 -0.0814  0.4691
   55CHL1   C18 6503   0.851   2.756   8.747 -0.5230 -0.5357 -0.4110
   55CHL1  H18A 6504   0.758   2.730   8.692 -1.0095  1.8214 -0.7761
   55CHL1  H18B 6505   0.838   2.732   8.855  2.2613  1.6435  0.4813
   55CHL1  H18C 6506   0.881   2.863   8.742 -0.9873 -0.2600  1.9673
   55CHL1   C12 6507   0.957   2.519   8.724 -0.2753  0.0619  0.6537
   55CHL1  H12A 6508   0.865   2.488   8.670 -0.5199  0.4105  0.8698
   55CHL1  H12B 6509   1.051   2.466   8.697  0.7409  3.2398 -2.4486
   55CHL1   C11 6510   0.950   2.479   8.875  0.1300  0.1248 -0.6702
   55CHL1  H11A 6511   0.862   2.530   8.919  0.4593  0.6099 -0.5634
   55CHL1  H11B 6512   0.939   2.370   8.894 -0.6458  0.4069  0.5554
   55CHL1    C9 6513   1.067   2.542   8.957  0.4068  0.2273  0.5762
   55CHL1    H9 6514   1.161   2.494   8.922 -1.2997 -1.9881 -1.0879
   55CHL1   C10 6515   1.061   2.510   9.112  0.2883  0.0146 -0.6940
   55CHL1   C19 6516   0.916   2.534   9.172 -0.3210 -0.5182 -0.4659
   55CHL1  H19A 6517   0.910   2.528   9.283  0.0589  0.3592 -0.3967
   55CHL1  H19B 6518   0.874   2.628   9.130  1.3789  0.2240 -0.5413
   55CHL1  H19C 6519   0.857   2.444   9.145 -1.6166 -0.9035  3.2981
   55CHL1    C1 6520   1.102   2.369   9.139 -0.5962 -0.3730 -0.1296
   55CHL1   H1A 6521   1.023   2.310   9.089 -1.5317  1.1718 -0.4672
   55CHL1   H1B 6522   1.202   2.357   9.092 -1.1543  0.1121 -1.4497
   55CHL1    C2 6523   1.119   2.312   9.279 -0.1056  1.1193 -0.5812
   55CHL1   H2A 6524   1.148   2.205   9.283 -3.0588  0.3148  0.8227
   55CHL1   H2B 6525   1.023   2.318   9.335 -0.5713  1.7183 -1.4305
   55CHL1   C20 6526   0.930   2.690   8.442  0.5428  0.1048  0.4328
   55CHL1   H20 6527   0.848   2.616   8.461  1.4844 -1.8020 -2.6492
   55CHL1   C21 6528   1.015   2.619   8.333  0.9716 -1.1394  0.5062
   55CHL1  H21A 6529   1.097   2.690   8.310 -1.5234  2.4023  2.0524
   55CHL1  H21B 6530   0.956   2.595   8.242  0.8602  1.1871 -0.0571
   55CHL1  H21C 6531   1.049   2.521   8.372  1.6955 -1.5768 -1.1830
   55CHL1   C22 6532   0.859   2.817   8.384  0.4853 -0.3441  0.1243
   55CHL1  H22A 6533   0.835   2.887   8.466 -1.5201 -0.8401 -0.0090
   55CHL1  H22B 6534   0.936   2.882   8.337  2.0081 -0.2230  2.6737
   55CHL1   C23 6535   0.738   2.791   8.296  0.6094 -0.3805 -0.2641
   55CHL1  H23A 6536   0.770   2.707   8.231 -1.8307  0.3754 -2.5604
   55CHL1  H23B 6537   0.654   2.761   8.363  0.9893  0.6590  0.6706
   55CHL1   C24 6538   0.697   2.924   8.219 -0.1833  0.0965 -0.4177
   55CHL1  H24A 6539   0.717   3.009   8.288  1.4883 -0.4616 -0.1745
   55CHL1  H24B 6540   0.761   2.938   8.129 -1.5785 -0.4245 -1.4942
   55CHL1   C25 6541   0.548   2.935   8.179  0.5436 -0.9734  0.5365
   55CHL1   H25 6542   0.485   2.966   8.266  0.3933  2.2108 -0.6458
   55CHL1   C26 6543   0.526   3.034   8.066  0.0590  0.2130 -0.2592
   55CHL1  H26A 6544   0.606   3.108   8.083  1.0542 -0.9952  0.3988
   55CHL1  H26B 6545   0.545   2.990   7.965 -0.0354  2.0713 -1.1037
   55CHL1  H26C 6546   0.429   3.089   8.062 -1.3690 -1.9184  2.9193
   55CHL1   C27 6547   0.490   2.804   8.140  0.2605 -0.9039 -0.1463
   55CHL1  H27A 6548   0.499   2.723   8.215  0.5947 -0.8540 -0.1329
   55CHL1  H27B 6549   0.387   2.820   8.100  0.5384  0.2531 -0.4298
   55CHL1  H27C 6550   0.543   2.765   8.051 -1.4191 -1.7191 -0.8241
   56CHL1    C3 6551   4.486   1.427   9.287  0.7364 -0.2340  0.0805
   56CHL1    H3 6552   4.510   1.528   9.250 -1.5606 -1.1265 -4.1062
   56CHL1    O3 6553   4.449   1.427   9.424 -0.4988  0.8349  0.5077
   56CHL1   H3' 6554   4.531   1.427   9.475  0.2350 -0.3691 -0.6431
   56CHL1    C4 6555   4.368   1.360   9.210 -0.0338 -0.7079  0.3446
   56CHL1   H4A 6556   4.380   1.258   9.252 -2.6336 -1.2521 -0.1149
   56CHL1   H4B 6557   4.270   1.406   9.237  2.0862  3.3680  1.5922
   56CHL1    C5 6558   4.393   1.360   9.060 -0.0440  0.0559 -0.7577
   56CHL1    C6 6559   4.306   1.410   8.979 -0.3919  0.3688  0.9245
   56CHL1    H6 6560   4.215   1.460   9.017 -1.5397 -0.9002 -0.0763
   56CHL1    C7 6561   4.325   1.408   8.831 -0.9711 -0.1740  0.1101
   56CHL1   H7A 6562   4.227   1.373   8.791 -1.8475  0.7257  1.3909
   56CHL1   H7B 6563   4.350   1.514   8.806 -1.3898  0.1926  1.2031
   56CHL1    C8 6564   4.438   1.315   8.783 -0.0140 -0.9246  0.5873
   56CHL1    H8 6565   4.404   1.209   8.784 -1.8925 -0.3464 -0.2209
   56CHL1   C14 6566   4.480   1.349   8.640 -0.0900 -0.4384  0.0699
   56CHL1   H14 6567   4.519   1.452   8.637 -1.4332  0.0848  0.1665
   56CHL1   C15 6568   4.374   1.341   8.528 -0.3320  0.1621  0.2307
   56CHL1  H15A 6569   4.324   1.242   8.543  0.0159 -0.3341 -1.8258
   56CHL1  H15B 6570   4.302   1.426   8.526 -0.1851  0.3104  1.0486
   56CHL1   C16 6571   4.450   1.329   8.396 -0.0119  0.6062  0.6588
   56CHL1  H16A 6572   4.416   1.238   8.344  2.0154 -0.3689  0.9927
   56CHL1  H16B 6573   4.446   1.421   8.333 -0.9353 -0.3065 -0.6161
   56CHL1   C17 6574   4.602   1.311   8.437 -0.1078  0.1899  0.2946
   56CHL1   H17 6575   4.656   1.408   8.439  2.8412 -1.3502 -1.1390
   56CHL1   C13 6576   4.602   1.265   8.586 -0.1245 -0.0375  0.6283
   56CHL1   C18 6577   4.567   1.107   8.584 -0.8052 -0.7701  0.2161
   56CHL1  H18A 6578   4.515   1.080   8.490  1.1615 -3.5948 -0.1567
   56CHL1  H18B 6579   4.664   1.052   8.574  0.8333  2.2752 -1.2587
   56CHL1  H18C 6580   4.513   1.086   8.678 -0.1833 -1.0913  0.5082
   56CHL1   C12 6581   4.722   1.299   8.673 -0.2952 -0.1936  0.3688
   56CHL1  H12A 6582   4.815   1.247   8.642 -1.1985 -2.6100  1.6104
   56CHL1  H12B 6583   4.731   1.410   8.676  0.2645 -0.2657  1.6991
   56CHL1   C11 6584   4.692   1.251   8.813  0.6814 -0.3120  0.2235
   56CHL1  H11A 6585   4.678   1.141   8.821  0.4999 -0.2173  1.3499
   56CHL1  H11B 6586   4.778   1.276   8.878  1.1472  0.5886 -0.7259
   56CHL1    C9 6587   4.561   1.323   8.873  0.3698 -0.1123 -0.0144
   56CHL1    H9 6588   4.597   1.427   8.858  0.2943 -0.2989 -1.5192
   56CHL1   C10 6589   4.534   1.300   9.023  0.2959  0.1689  0.1088
   56CHL1   C19 6590   4.520   1.147   9.043  0.0516  0.3832 -0.1740
   56CHL1  H19A 6591   4.498   1.109   9.145 -1.9048 -2.6144 -1.6116
   56CHL1  H19B 6592   4.443   1.106   8.974 -1.5090  1.1853  1.0625
   56CHL1  H19C 6593   4.622   1.108   9.022 -0.4476 -0.7240 -0.6054
   56CHL1    C1 6594   4.645   1.356   9.110  0.0190 -0.6767  0.2139
   56CHL1   H1A 6595   4.741   1.305   9.089  0.5381  0.2612  0.2874
   56CHL1   H1B 6596   4.660   1.462   9.080  1.4141 -0.3796  1.8987
   56CHL1    C2 6597   4.615   1.353   9.260 -0.2790  0.1469  0.2761
   56CHL1   H2A 6598   4.690   1.405   9.323  0.8609 -0.2017 -0.7848
   56CHL1   H2B 6599   4.601   1.247   9.290  0.6401 -0.0955 -0.1458
   56CHL1   C20 6600   4.683   1.237   8.326  0.6725  0.2840 -0.2426
   56CHL1   H20 6601   4.665   1.129   8.342  0.3133  0.2782 -0.6973
   56CHL1   C21 6602   4.831   1.251   8.364 -0.8629 -0.4446  0.6885
   56CHL1  H21A 6603   4.843   1.360   8.386  1.8642 -0.6526  0.3509
   56CHL1  H21B 6604   4.896   1.215   8.282 -0.2529 -0.2369  1.0751
   56CHL1  H21C 6605   4.867   1.197   8.454 -1.0005  0.3284  1.2186
   56CHL1   C22 6606   4.659   1.267   8.178  0.0447  0.1195 -0.1900
   56CHL1  H22A 6607   4.554   1.259   8.142  0.5963 -0.9424 -1.5966
   56CHL1  H22B 6608   4.679   1.376   8.170  0.7697 -0.0171 -0.2215
   56CHL1   C23 6609   4.744   1.198   8.071  0.4820  0.6691 -0.1587
   56CHL1  H23A 6610   4.721   1.253   7.977 -1.0323 -2.7507 -1.8696
   56CHL1  H23B 6611   4.854   1.201   8.083  0.4342 -0.1645  0.5411
   56CHL1   C24 6612   4.689   1.057   8.050 -0.7699  0.5232 -0.9316
   56CHL1  H24A 6613   4.720   0.993   8.137  0.7798 -0.0242 -1.8686
   56CHL1  H24B 6614   4.579   1.055   8.036 -0.8165  2.0911 -0.8476
   56CHL1   C25 6615   4.750   0.987   7.925 -0.1812  0.6831  0.1927
   56CHL1   H25 6616   4.857   0.965   7.946 -0.2670  1.9912  2.1685
   56CHL1   C26 6617   4.665   0.854   7.909 -0.0952 -0.0787 -0.0697
   56CHL1  H26A 6618   4.558   0.875   7.889 -0.0905 -2.1206 -2.5066
   56CHL1  H26B 6619   4.696   0.803   7.816  2.3383  0.2439  0.5168
   56CHL1  H26C 6620   4.666   0.782   7.993  0.2949 -2.1230 -1.7938
   56CHL1   C27 6621   4.742   1.066   7.793  0.4815 -1.1776  0.9116
   56CHL1  H27A 6622   4.764   0.995   7.710 -1.6780 -1.1114  0.2585
   56CHL1  H27B 6623   4.640   1.105   7.772  0.2367 -1.3181  1.8055
   56CHL1  H27C 6624   4.803   1.159   7.794  1.0177 -1.4776 -1.4446
   57CHL1    C3 6625   1.172   3.943   9.543  0.6864 -0.5339 -0.3652
   57CHL1    H3 6626   1.198   3.840   9.575  0.4303 -0.3363  0.5124
   57CHL1    O3 6627   1.156   4.015   9.665  0.6595 -0.2622  0.8167
   57CHL1   H3' 6628   1.166   4.109   9.651 -1.8625 -0.1796 -0.8078
   57CHL1    C4 6629   1.287   4.006   9.466 -0.0042 -0.0864  0.5497
   57CHL1   H4A 6630   1.252   4.110   9.453  0.3150 -0.1727 -1.0192
   57CHL1   H4B 6631   1.381   4.000   9.525  1.3115  3.5325 -1.0703
   57CHL1    C5 6632   1.304   3.953   9.325  0.2372 -0.0506 -0.0045
   57CHL1    C6 6633   1.421   3.905   9.286  0.1186 -0.2767 -0.2717
   57CHL1    H6 6634   1.500   3.912   9.364 -2.3104 -1.2192  2.3693
   57CHL1    C7 6635   1.444   3.847   9.151 -0.2444  0.4599  0.4701
   57CHL1   H7A 6636   1.535   3.900   9.114 -1.6305  1.9858 -0.8377
   57CHL1   H7B 6637   1.464   3.738   9.160  0.6015  0.5517 -0.1729
   57CHL1    C8 6638   1.332   3.881   9.057  0.2780  0.2620 -0.2335
   57CHL1    H8 6639   1.324   3.988   9.030  3.5190  0.3850 -0.8667
   57CHL1   C14 6640   1.340   3.790   8.932  0.2947 -0.2379 -0.2949
   57CHL1   H14 6641   1.335   3.687   8.975  2.0597 -1.1972 -2.2714
   57CHL1   C15 6642   1.470   3.784   8.847 -0.2853 -0.8607  0.7760
   57CHL1  H15A 6643   1.519   3.883   8.835  0.7417 -1.7445 -2.9566
   57CHL1  H15B 6644   1.536   3.704   8.886  1.1812 -0.2506 -0.4215
   57CHL1   C16 6645   1.426   3.729   8.711  0.6258  0.0818 -0.1756
   57CHL1  H16A 6646   1.450   3.810   8.639  1.6699  0.9535  1.1110
   57CHL1  H16B 6647   1.474   3.631   8.692 -1.6860 -1.1012 -0.0553
   57CHL1   C17 6648   1.270   3.701   8.720  0.0742  0.1579  0.7827
   57CHL1   H17 6649   1.263   3.603   8.773  0.6248 -1.1223 -1.4204
   57CHL1   C13 6650   1.226   3.805   8.826  0.6071 -0.0639 -0.2540
   57CHL1   C18 6651   1.220   3.956   8.774  0.1280 -0.2399 -0.0464
   57CHL1  H18A 6652   1.312   3.993   8.723  0.8977  1.5009  2.5329
   57CHL1  H18B 6653   1.142   3.954   8.695 -1.2414 -1.6686  1.2870
   57CHL1  H18C 6654   1.179   4.030   8.845 -0.2135  1.5516 -2.0710
   57CHL1   C12 6655   1.095   3.760   8.901 -0.0055  0.4012  0.0194
   57CHL1  H12A 6656   1.005   3.767   8.837 -0.4380 -1.1309  0.4493
   57CHL1  H12B 6657   1.104   3.655   8.937  0.9676  1.1639  2.0631
   57CHL1   C11 6658   1.077   3.841   9.028 -0.1638 -0.6582 -0.2899
   57CHL1  H11A 6659   1.056   3.942   8.988 -1.3117 -0.4255  0.8914
   57CHL1  H11B 6660   0.989   3.804   9.086  0.6935 -0.4363  1.1699
   57CHL1    C9 6661   1.199   3.845   9.125  0.4779  0.2516 -0.1915
   57CHL1    H9 6662   1.202   3.741   9.164 -1.0592 -0.0220 -0.7655
   57CHL1   C10 6663   1.170   3.938   9.244 -0.3596  0.3504 -0.2993
   57CHL1   C19 6664   1.124   4.075   9.206 -0.2961 -0.0054  0.0351
   57CHL1  H19A 6665   1.027   4.068   9.153  0.6701  2.4263 -2.1494
   57CHL1  H19B 6666   1.112   4.148   9.289 -0.4387 -0.3944  0.3589
   57CHL1  H19C 6667   1.195   4.124   9.137  0.8064  0.0358  1.1881
   57CHL1    C1 6668   1.062   3.875   9.333  0.3615 -0.5967  0.2420
   57CHL1   H1A 6669   0.967   3.882   9.276  0.8655 -0.5289 -0.5911
   57CHL1   H1B 6670   1.098   3.770   9.338 -0.3837 -0.9771 -1.7322
   57CHL1    C2 6671   1.039   3.949   9.465 -0.7391  0.6453  0.0151
   57CHL1   H2A 6672   0.947   3.908   9.512  0.4713  0.5407  2.3510
   57CHL1   H2B 6673   1.014   4.057   9.455  0.2223  0.7885 -0.9353
   57CHL1   C20 6674   1.197   3.689   8.578 -0.6891 -0.4588 -0.0186
   57CHL1   H20 6675   1.187   3.795   8.545  0.2076 -0.9326 -1.8580
   57CHL1   C21 6676   1.057   3.624   8.601 -0.1689 -0.5080 -0.0278
   57CHL1  H21A 6677   1.069   3.523   8.646 -1.5264 -0.6907 -0.0278
   57CHL1  H21B 6678   1.009   3.600   8.503 -0.6402 -2.4089  0.6285
   57CHL1  H21C 6679   0.987   3.688   8.659  0.3980 -0.8122  0.9898
   57CHL1   C22 6680   1.280   3.610   8.474 -0.1282 -0.0392 -0.4738
   57CHL1  H22A 6681   1.389   3.630   8.475 -0.3016  0.9468  1.4333
   57CHL1  H22B 6682   1.268   3.503   8.500 -2.3009  0.4081  0.4463
   57CHL1   C23 6683   1.222   3.637   8.331  0.3498  0.0330 -0.1891
   57CHL1  H23A 6684   1.121   3.591   8.330  0.6358 -0.6157  0.2208
   57CHL1  H23B 6685   1.214   3.747   8.317  3.0409  0.3480  0.4174
   57CHL1   C24 6686   1.313   3.573   8.229  0.1804  0.0226  0.5450
   57CHL1  H24A 6687   1.418   3.608   8.229  0.0655  0.3820  1.6608
   57CHL1  H24B 6688   1.335   3.471   8.265  2.8605  0.0402 -0.9276
   57CHL1   C25 6689   1.259   3.558   8.083  0.2861 -0.3531  0.6248
   57CHL1   H25 6690   1.227   3.658   8.045 -1.4134 -0.9326  0.5146
   57CHL1   C26 6691   1.381   3.527   7.990 -0.1016  0.0598  0.1183
   57CHL1  H26A 6692   1.415   3.425   8.016  0.1644 -0.2602 -1.4213
   57CHL1  H26B 6693   1.345   3.541   7.886 -2.2614 -0.8506  0.6967
   57CHL1  H26C 6694   1.458   3.604   8.008 -0.5178  0.8326 -1.3298
   57CHL1   C27 6695   1.145   3.470   8.056 -1.0154  0.3701  0.3462
   57CHL1  H27A 6696   1.099   3.501   7.960  0.4875  1.1121 -0.1598
   57CHL1  H27B 6697   1.175   3.363   8.048 -0.6538  0.6032 -1.7084
   57CHL1  H27C 6698   1.064   3.473   8.132 -3.6543  0.1017 -2.3755
   58CHL1    C3 6699   2.219   0.926   9.494  0.3158 -0.1063 -0.4718
   58CHL1    H3 6700   2.298   0.999   9.467  3.2380 -2.5019  1.2494
   58CHL1    O3 6701   2.207   0.922   9.638 -0.7469 -0.1385 -0.2226
   58CHL1   H3' 6702   2.130   0.865   9.641  0.5669 -1.8881  1.6162
   58CHL1    C4 6703   2.086   0.969   9.426  0.2246  0.7046 -0.4369
   58CHL1   H4A 6704   2.005   0.898   9.454 -0.9675  2.6253  1.1051
   58CHL1   H4B 6705   2.059   1.066   9.473 -1.0486  0.9874 -1.7099
   58CHL1    C5 6706   2.097   0.981   9.277  0.1250  0.4922  0.3870
   58CHL1    C6 6707   2.090   1.098   9.215 -0.3430  0.0493 -0.4848
   58CHL1    H6 6708   2.054   1.184   9.273  1.3966  0.3906  0.1224
   58CHL1    C7 6709   2.094   1.117   9.065 -0.5769 -0.2345  0.1186
   58CHL1   H7A 6710   2.016   1.191   9.037 -1.4318 -1.9391 -2.1465
   58CHL1   H7B 6711   2.190   1.166   9.038 -1.5680  1.7779  0.1293
   58CHL1    C8 6712   2.085   0.980   8.988  0.3007 -0.7928  0.0359
   58CHL1    H8 6713   1.980   0.943   8.987  1.0612 -3.0581 -0.8107
   58CHL1   C14 6714   2.130   1.000   8.844 -0.3884  0.1925 -0.0442
   58CHL1   H14 6715   2.235   1.034   8.859  0.2892 -2.2023  0.8682
   58CHL1   C15 6716   2.068   1.111   8.761  0.6383  0.4538  0.4187
   58CHL1  H15A 6717   1.967   1.128   8.805 -0.0783  1.8385 -1.6976
   58CHL1  H15B 6718   2.122   1.207   8.773  1.8889 -0.3067  1.0327
   58CHL1   C16 6719   2.089   1.067   8.618  0.3056 -0.3963  0.4309
   58CHL1  H16A 6720   1.993   1.068   8.562  0.2127 -1.9945  0.5555
   58CHL1  H16B 6721   2.159   1.131   8.559  1.4579 -0.7539  1.3944
   58CHL1   C17 6722   2.164   0.925   8.624 -0.0274 -0.6689  0.3977
   58CHL1   H17 6723   2.274   0.939   8.632  0.0302  0.0702 -1.4690
   58CHL1   C13 6724   2.128   0.874   8.767  0.1158  0.3640  0.0948
   58CHL1   C18 6725   1.988   0.811   8.765  1.1391 -0.5922  0.0977
   58CHL1  H18A 6726   1.972   0.739   8.683 -0.8812  0.4713 -0.4623
   58CHL1  H18B 6727   1.961   0.749   8.853  1.5330 -0.9806 -0.0525
   58CHL1  H18C 6728   1.901   0.878   8.746 -0.5424 -2.4618  1.0771
   58CHL1   C12 6729   2.233   0.783   8.837  0.0881 -0.0812 -0.6542
   58CHL1  H12A 6730   2.235   0.683   8.788 -0.0683 -0.5552  0.2856
   58CHL1  H12B 6731   2.339   0.814   8.827  0.1789 -0.3834 -0.6318
   58CHL1   C11 6732   2.201   0.745   8.985 -0.2986 -0.0448  0.6091
   58CHL1  H11A 6733   2.115   0.675   8.985  0.9514 -1.6359 -2.5146
   58CHL1  H11B 6734   2.285   0.688   9.030  1.8095  0.7348 -2.2359
   58CHL1    C9 6735   2.176   0.872   9.067 -0.5123  0.0358  0.1389
   58CHL1    H9 6736   2.273   0.927   9.066 -0.3682 -0.1913  1.2710
   58CHL1   C10 6737   2.148   0.846   9.213 -0.0533 -0.7014  0.2473
   58CHL1   C19 6738   2.031   0.740   9.217 -0.1656  0.6224 -0.2405
   58CHL1  H19A 6739   2.069   0.637   9.206 -3.0375 -0.4187 -0.8166
   58CHL1  H19B 6740   1.985   0.745   9.318 -0.8288  2.3436 -0.6022
   58CHL1  H19C 6741   1.949   0.752   9.143  1.2228  2.7737 -1.4976
   58CHL1    C1 6742   2.269   0.787   9.288  0.2533 -0.4589  0.1273
   58CHL1   H1A 6743   2.300   0.692   9.241 -2.2074 -2.2151  1.8981
   58CHL1   H1B 6744   2.359   0.848   9.268 -1.0666  0.8114 -2.1215
   58CHL1    C2 6745   2.246   0.789   9.442 -0.6460 -0.0171 -0.0804
   58CHL1   H2A 6746   2.337   0.744   9.487 -0.8467  1.7175  2.1566
   58CHL1   H2B 6747   2.159   0.723   9.461 -0.6381 -0.5798 -1.9221
   58CHL1   C20 6748   2.134   0.832   8.506  0.6207  0.0937  1.3879
   58CHL1   H20 6749   2.024   0.816   8.508  0.1306  3.1128  2.1834
   58CHL1   C21 6750   2.215   0.702   8.521 -0.0664 -0.4607 -0.2803
   58CHL1  H21A 6751   2.221   0.650   8.422 -0.4972 -1.2311  0.0956
   58CHL1  H21B 6752   2.160   0.637   8.592 -0.4503  1.4074  1.1520
   58CHL1  H21C 6753   2.318   0.729   8.554  0.2306 -0.5108 -1.1381
   58CHL1   C22 6754   2.164   0.903   8.371 -0.3632 -0.0746 -0.3380
   58CHL1  H22A 6755   2.103   0.996   8.370 -3.6008 -2.1278 -0.7161
   58CHL1  H22B 6756   2.272   0.919   8.355  0.3828 -3.7341  0.5366
   58CHL1   C23 6757   2.097   0.826   8.257  0.2274  0.6226  0.7033
   58CHL1  H23A 6758   2.124   0.718   8.264 -0.6926  0.1597 -2.1281
   58CHL1  H23B 6759   1.989   0.843   8.271  0.4350  1.7353  0.9799
   58CHL1   C24 6760   2.153   0.868   8.117 -0.1712 -0.7738 -0.7268
   58CHL1  H24A 6761   2.136   0.977   8.103  4.0720  0.1152  0.4851
   58CHL1  H24B 6762   2.262   0.867   8.137  0.0174 -0.9688 -1.7621
   58CHL1   C25 6763   2.124   0.776   7.998 -0.1380 -0.4809 -0.3207
   58CHL1   H25 6764   2.158   0.673   8.021  0.3608  0.2705  2.4871
   58CHL1   C26 6765   1.975   0.762   7.960  0.1801 -0.4599 -0.1692
   58CHL1  H26A 6766   1.932   0.864   7.946  1.2788 -0.0299 -0.4672
   58CHL1  H26B 6767   1.969   0.704   7.865  1.9848 -0.6506 -0.1876
   58CHL1  H26C 6768   1.908   0.717   8.036 -0.0570 -0.0182 -0.1119
   58CHL1   C27 6769   2.199   0.836   7.886  0.1012 -0.4469  0.4064
   58CHL1  H27A 6770   2.140   0.901   7.817  0.8276  0.0200  0.2233
   58CHL1  H27B 6771   2.285   0.904   7.905 -1.4685  2.1877 -1.4530
   58CHL1  H27C 6772   2.237   0.761   7.814 -2.8543  0.9322 -2.7432
   59CHL1    C3 6773   3.328   0.575   9.575  0.5867 -0.0412  0.2694
   59CHL1    H3 6774   3.227   0.619   9.586  0.8646  0.7375 -0.2138
   59CHL1    O3 6775   3.362   0.568   9.717 -0.5322 -0.2116  0.4119
   59CHL1   H3' 6776   3.308   0.497   9.755 -1.3921  0.5772  0.6806
   59CHL1    C4 6777   3.342   0.426   9.513  0.7595  0.4248  0.0108
   59CHL1   H4A 6778   3.444   0.391   9.538  0.6389 -0.3938 -0.6301
   59CHL1   H4B 6779   3.263   0.371   9.569  1.9121 -1.4436 -0.1754
   59CHL1    C5 6780   3.334   0.421   9.367  0.4486  0.4928  0.1096
   59CHL1    C6 6781   3.257   0.329   9.307  0.3458  0.3861  0.0236
   59CHL1    H6 6782   3.215   0.255   9.376 -0.0306  0.6441  0.0742
   59CHL1    C7 6783   3.230   0.316   9.155  0.4148 -0.9815  0.1288
   59CHL1   H7A 6784   3.262   0.213   9.125  0.0125 -0.1603 -3.4332
   59CHL1   H7B 6785   3.121   0.317   9.130  0.1225 -2.4387  1.2537
   59CHL1    C8 6786   3.320   0.413   9.065 -0.2446  0.0957  0.3053
   59CHL1    H8 6787   3.419   0.364   9.063 -0.4497 -0.2920 -0.6178
   59CHL1   C14 6788   3.276   0.428   8.921  0.6368  0.1704  0.0960
   59CHL1   H14 6789   3.177   0.475   8.940  2.0073  1.8709  3.3702
   59CHL1   C15 6790   3.247   0.300   8.831  0.4241 -0.3210 -1.1262
   59CHL1  H15A 6791   3.321   0.220   8.854  1.0125  0.0710 -1.6676
   59CHL1  H15B 6792   3.143   0.267   8.856 -0.1204  2.1009 -0.0080
   59CHL1   C16 6793   3.253   0.354   8.691  0.1177 -0.0522  0.5412
   59CHL1  H16A 6794   3.343   0.317   8.637 -0.0561 -0.6918  0.6876
   59CHL1  H16B 6795   3.158   0.337   8.635  0.7246 -0.4077 -0.3768
   59CHL1   C17 6796   3.282   0.507   8.700 -0.0266 -0.6716 -1.1836
   59CHL1   H17 6797   3.181   0.554   8.704  1.0068  1.5174  0.6564
   59CHL1   C13 6798   3.356   0.523   8.838 -1.1605 -0.1258  0.5483
   59CHL1   C18 6799   3.499   0.460   8.823  0.3356 -0.1050 -0.1898
   59CHL1  H18A 6800   3.505   0.368   8.762 -0.1796 -0.2896  0.0391
   59CHL1  H18B 6801   3.565   0.537   8.777  0.2299  0.8661  1.2550
   59CHL1  H18C 6802   3.547   0.436   8.920  2.0651 -0.2519 -1.0506
   59CHL1   C12 6803   3.354   0.661   8.902 -0.0364  0.0314  0.1112
   59CHL1  H12A 6804   3.412   0.737   8.845 -0.2396 -0.1356 -0.3221
   59CHL1  H12B 6805   3.253   0.708   8.898 -0.5159 -0.9233  0.8965
   59CHL1   C11 6806   3.397   0.661   9.049 -0.7278  0.1157  0.0601
   59CHL1  H11A 6807   3.502   0.625   9.048 -0.6803  0.2721 -1.2021
   59CHL1  H11B 6808   3.391   0.761   9.097  1.1057  0.5592 -0.6049
   59CHL1    C9 6809   3.332   0.550   9.137  0.1863  1.2050 -0.0788
   59CHL1    H9 6810   3.225   0.577   9.148 -0.0013  0.0949  1.0243
   59CHL1   C10 6811   3.397   0.537   9.281 -0.0698 -0.1493  0.0506
   59CHL1   C19 6812   3.548   0.500   9.274  0.6171 -0.7530  0.2061
   59CHL1  H19A 6813   3.599   0.576   9.210 -0.8513 -1.6292 -2.0524
   59CHL1  H19B 6814   3.607   0.503   9.368  1.3629  0.0638 -0.2784
   59CHL1  H19C 6815   3.558   0.394   9.243 -1.1380 -1.1391  0.9323
   59CHL1    C1 6816   3.381   0.671   9.354  0.4861 -0.3889 -0.7907
   59CHL1   H1A 6817   3.452   0.743   9.309 -1.4808  1.3486 -1.1925
   59CHL1   H1B 6818   3.274   0.697   9.342  0.6265  0.2064 -0.7348
   59CHL1    C2 6819   3.416   0.678   9.502 -0.4373 -1.0669  0.4042
   59CHL1   H2A 6820   3.393   0.773   9.555  2.0366  0.0125 -0.4105
   59CHL1   H2B 6821   3.526   0.671   9.517 -0.5880  1.4338  3.2327
   59CHL1   C20 6822   3.340   0.555   8.560 -0.2411 -0.1580  0.1569
   59CHL1   H20 6823   3.438   0.505   8.548  0.5427  1.4125 -0.0801
   59CHL1   C21 6824   3.370   0.705   8.569 -0.0447  0.2519 -0.5223
   59CHL1  H21A 6825   3.379   0.756   8.471  1.4879 -2.0412 -1.6151
   59CHL1  H21B 6826   3.473   0.707   8.612 -1.0182 -2.0999  2.0597
   59CHL1  H21C 6827   3.295   0.753   8.635 -2.0557 -1.1554 -1.7583
   59CHL1   C22 6828   3.249   0.523   8.440 -0.2224 -0.3500 -0.0376
   59CHL1  H22A 6829   3.231   0.414   8.447 -1.5112 -0.0363  1.8701
   59CHL1  H22B 6830   3.147   0.567   8.437  0.6690  1.7960  0.2192
   59CHL1   C23 6831   3.318   0.550   8.307 -0.1310 -0.2161  0.2924
   59CHL1  H23A 6832   3.336   0.659   8.302 -1.1475 -0.0883 -0.9128
   59CHL1  H23B 6833   3.413   0.492   8.312 -0.1745 -0.0964  3.0246
   59CHL1   C24 6834   3.241   0.512   8.181 -0.0341  0.2998  0.3331
   59CHL1  H24A 6835   3.247   0.405   8.153 -0.1474  0.7873 -1.6050
   59CHL1  H24B 6836   3.139   0.555   8.187 -0.8722 -1.8235  2.1492
   59CHL1   C25 6837   3.307   0.571   8.050 -0.2540 -0.2333 -1.0004
   59CHL1   H25 6838   3.324   0.680   8.058  0.5857 -0.3495 -1.1545
   59CHL1   C26 6839   3.441   0.503   8.030  0.1959 -0.6008  0.3930
   59CHL1  H26A 6840   3.502   0.553   7.952  3.0332 -1.7075  1.8751
   59CHL1  H26B 6841   3.497   0.494   8.125 -0.3119 -0.2012  0.7415
   59CHL1  H26C 6842   3.433   0.402   7.985  0.2116 -0.1727 -0.5865
   59CHL1   C27 6843   3.218   0.549   7.928  0.1694 -0.3522 -0.2366
   59CHL1  H27A 6844   3.206   0.441   7.903  0.9512 -0.2723 -0.9540
   59CHL1  H27B 6845   3.115   0.590   7.941  0.6826  1.1494 -0.7720
   59CHL1  H27C 6846   3.260   0.600   7.838  0.1593 -1.0129 -0.6191
   60CHL1    C3 6847   0.872   5.274   9.353  0.1759 -0.6714  0.0510
   60CHL1    H3 6848   0.857   5.177   9.302  0.1315 -0.6929  0.1025
   60CHL1    O3 6849   0.854   5.268   9.492  0.8908  0.0538  0.0924
   60CHL1   H3' 6850   0.871   5.356   9.527 -1.6687  0.0677  1.4524
   60CHL1    C4 6851   1.021   5.321   9.335  0.5585 -0.3704  0.6111
   60CHL1   H4A 6852   1.042   5.409   9.400  0.0253 -0.8039  1.3637
   60CHL1   H4B 6853   1.090   5.248   9.381  1.7182 -0.2489 -0.8635
   60CHL1    C5 6854   1.058   5.349   9.192 -0.1627 -0.1179 -0.2848
   60CHL1    C6 6855   1.163   5.291   9.134 -0.4863  0.4055 -0.4627
   60CHL1    H6 6856   1.215   5.210   9.187 -0.3284 -0.3060 -1.6851
   60CHL1    C7 6857   1.213   5.326   8.996 -0.9873 -0.0404 -0.3391
   60CHL1   H7A 6858   1.319   5.359   9.005 -0.7017 -0.8782 -0.5841
   60CHL1   H7B 6859   1.210   5.241   8.925  2.3091 -0.4231 -0.0996
   60CHL1    C8 6860   1.138   5.449   8.937  0.6715  0.2573  0.1221
   60CHL1    H8 6861   1.189   5.543   8.966  0.6042  0.0171  1.0377
   60CHL1   C14 6862   1.156   5.439   8.786 -0.0594 -0.1010  0.2040
   60CHL1   H14 6863   1.097   5.349   8.757  0.8630 -1.0241  1.1319
   60CHL1   C15 6864   1.306   5.420   8.732 -1.6235 -0.4017  0.4059
   60CHL1  H15A 6865   1.383   5.475   8.791 -2.2250 -0.2115  1.0197
   60CHL1  H15B 6866   1.331   5.312   8.743 -2.8782 -0.5973  1.4396
   60CHL1   C16 6867   1.299   5.471   8.586 -0.8997 -0.1126  0.6512
   60CHL1  H16A 6868   1.371   5.551   8.557 -1.2584 -0.2492 -0.6209
   60CHL1  H16B 6869   1.309   5.387   8.514 -0.0634  1.3783 -1.0045
   60CHL1   C17 6870   1.152   5.530   8.568  0.1184 -0.6112 -0.2332
   60CHL1   H17 6871   1.091   5.455   8.514 -1.5941  1.5564 -1.4270
   60CHL1   C13 6872   1.097   5.562   8.710  0.4358  0.4110  0.5763
   60CHL1   C18 6873   1.151   5.702   8.760  0.4590  0.4782  0.0479
   60CHL1  H18A 6874   1.135   5.726   8.867 -1.8509 -2.6835  0.4602
   60CHL1  H18B 6875   1.257   5.721   8.734  0.4509  1.4142  0.6501
   60CHL1  H18C 6876   1.099   5.778   8.698  1.7254  3.1064  2.1110
   60CHL1   C12 6877   0.941   5.547   8.734  0.1198  0.0428 -0.3711
   60CHL1  H12A 6878   0.890   5.636   8.690  1.5068  0.1510 -1.8086
   60CHL1  H12B 6879   0.915   5.448   8.690 -0.9673 -0.4935  1.4162
   60CHL1   C11 6880   0.908   5.553   8.886 -0.5430 -0.3025  0.2073
   60CHL1  H11A 6881   0.928   5.655   8.923 -2.1139 -0.1952  0.7804
   60CHL1  H11B 6882   0.799   5.533   8.893 -0.4987 -0.5242  0.2656
   60CHL1    C9 6883   0.990   5.443   8.968 -0.8830 -0.2314  0.4500
   60CHL1    H9 6884   0.954   5.347   8.924 -1.5095  0.3987 -0.4215
   60CHL1   C10 6885   0.956   5.438   9.124  0.0769  0.1080 -0.1267
   60CHL1   C19 6886   0.976   5.582   9.177 -0.0585  0.0336  0.9405
   60CHL1  H19A 6887   1.079   5.609   9.146 -1.6164  2.5304 -2.3623
   60CHL1  H19B 6888   0.915   5.657   9.122 -0.8604 -1.5149 -0.3153
   60CHL1  H19C 6889   0.950   5.592   9.285  0.1984 -0.8539  1.0862
   60CHL1    C1 6890   0.808   5.400   9.141  0.2613 -0.0060  0.1394
   60CHL1   H1A 6891   0.758   5.490   9.098 -0.7147 -1.4799 -1.8842
   60CHL1   H1B 6892   0.781   5.318   9.071  1.2453  0.5528 -0.9170
   60CHL1    C2 6893   0.764   5.370   9.284 -1.0829  0.7280 -0.3505
   60CHL1   H2A 6894   0.662   5.327   9.280  0.2974 -2.7279  0.1459
   60CHL1   H2B 6895   0.753   5.460   9.349  0.5480  0.7429 -0.0825
   60CHL1   C20 6896   1.148   5.647   8.472  0.3269  0.3524 -0.1681
   60CHL1   H20 6897   1.224   5.720   8.508 -0.8379  1.5847 -0.1866
   60CHL1   C21 6898   1.010   5.702   8.457  0.9461  0.3318 -0.0520
   60CHL1  H21A 6899   0.986   5.762   8.547 -1.0358 -1.7427  0.8571
   60CHL1  H21B 6900   0.933   5.622   8.449 -0.9771  2.4116 -3.0185
   60CHL1  H21C 6901   0.994   5.779   8.379  0.0428  1.2876  1.0715
   60CHL1   C22 6902   1.206   5.608   8.334  0.2072 -0.4541 -0.3006
   60CHL1  H22A 6903   1.291   5.538   8.346 -0.1715 -0.8680 -0.0117
   60CHL1  H22B 6904   1.130   5.548   8.279  0.3965  0.5276 -1.6563
   60CHL1   C23 6905   1.250   5.732   8.255  0.0601  0.3655 -0.7454
   60CHL1  H23A 6906   1.260   5.708   8.147 -0.3140 -2.3101 -0.2195
   60CHL1  H23B 6907   1.181   5.820   8.262  1.0613  1.1849 -1.1255
   60CHL1   C24 6908   1.392   5.785   8.299 -0.1747  0.3655 -0.4226
   60CHL1  H24A 6909   1.387   5.827   8.402 -2.9221 -0.2546 -0.2655
   60CHL1  H24B 6910   1.443   5.687   8.312 -2.1786 -0.5412  0.9192
   60CHL1   C25 6911   1.470   5.871   8.198  0.3855  0.7000 -0.0009
   60CHL1   H25 6912   1.456   5.825   8.098 -0.1212 -1.4784  1.0416
   60CHL1   C26 6913   1.415   6.014   8.191  0.4804  0.1600 -0.4372
   60CHL1  H26A 6914   1.446   6.074   8.280 -0.1386 -0.3928  0.1602
   60CHL1  H26B 6915   1.456   6.078   8.110  0.4760 -1.0163 -1.3715
   60CHL1  H26C 6916   1.306   6.014   8.173  0.8303  1.0821 -2.7206
   60CHL1   C27 6917   1.622   5.869   8.229  0.2747  0.2470 -0.5985
   60CHL1  H27A 6918   1.659   5.764   8.218  2.1496  0.5774  1.9354
   60CHL1  H27B 6919   1.676   5.932   8.155  1.3163 -1.0287 -0.9558
   60CHL1  H27C 6920   1.659   5.910   8.325  2.2118 -0.6828 -0.9165
   61CHL1    C3 6921   5.452   5.850   9.425  0.0063 -0.6540 -0.1743
   61CHL1    H3 6922   5.562   5.841   9.417  0.4317  3.3583  0.3321
   61CHL1    O3 6923   5.402   5.835   9.551  0.4717 -0.3349  0.1281
   61CHL1   H3' 6924   5.400   5.740   9.568 -3.0058 -0.4254 -0.3201
   61CHL1    C4 6925   5.426   5.992   9.388  0.0913 -0.5721 -0.3189
   61CHL1   H4A 6926   5.316   6.007   9.380  0.0127 -1.1210 -0.2901
   61CHL1   H4B 6927   5.457   6.063   9.468 -0.6121 -0.8370  0.1933
   61CHL1    C5 6928   5.467   6.016   9.248 -0.7614 -0.4951  0.4575
   61CHL1    C6 6929   5.568   6.102   9.219 -0.0349 -0.2554  0.1171
   61CHL1    H6 6930   5.614   6.163   9.298 -1.9265  1.3153  0.0567
   61CHL1    C7 6931   5.605   6.150   9.082  0.4403  0.0807  0.1438
   61CHL1   H7A 6932   5.594   6.257   9.056 -1.5276 -0.1491 -0.0494
   61CHL1   H7B 6933   5.706   6.120   9.047 -0.0545 -1.2828 -0.1493
   61CHL1    C8 6934   5.510   6.091   8.977  0.2120 -0.7318 -0.2803
   61CHL1    H8 6935   5.423   6.160   8.975  1.8027  1.4082  1.2022
   61CHL1   C14 6936   5.581   6.097   8.840  0.1781 -0.7245 -0.1080
   61CHL1   H14 6937   5.666   6.027   8.849  0.4973 -0.4810 -1.1435
   61CHL1   C15 6938   5.627   6.231   8.783  0.0985  0.4919 -0.3383
   61CHL1  H15A 6939   5.552   6.308   8.810  0.0028  0.4919 -0.6030
   61CHL1  H15B 6940   5.720   6.268   8.830 -0.6208  1.1349  0.5901
   61CHL1   C16 6941   5.639   6.209   8.620  0.3596  0.1506 -0.7386
   61CHL1  H16A 6942   5.568   6.279   8.570  0.7866  0.7507 -0.5151
   61CHL1  H16B 6943   5.743   6.209   8.582 -1.1931 -1.8863 -5.3638
   61CHL1   C17 6944   5.590   6.062   8.603  0.5521 -1.1267 -0.1810
   61CHL1   H17 6945   5.684   6.006   8.624  1.5305  0.7003  0.3832
   61CHL1   C13 6946   5.500   6.039   8.725  0.4583 -0.1888 -0.2896
   61CHL1   C18 6947   5.362   6.119   8.702 -0.8932  0.5096 -0.0301
   61CHL1  H18A 6948   5.384   6.213   8.647 -1.0410 -0.3705 -1.6186
   61CHL1  H18B 6949   5.294   6.053   8.644  2.0861 -0.9005 -2.0529
   61CHL1  H18C 6950   5.320   6.124   8.804 -0.4941 -1.3943  0.2529
   61CHL1   C12 6951   5.479   5.884   8.759  0.1918  0.7008  0.2692
   61CHL1  H12A 6952   5.424   5.825   8.682 -0.4257  0.0082  1.2281
   61CHL1  H12B 6953   5.571   5.827   8.783 -0.9081 -0.4320  1.8987
   61CHL1   C11 6954   5.397   5.874   8.891  0.5823 -0.6529 -0.3040
   61CHL1  H11A 6955   5.291   5.895   8.866  0.9300 -0.4209 -1.6406
   61CHL1  H11B 6956   5.384   5.768   8.924 -1.1856 -0.4702 -0.3463
   61CHL1    C9 6957   5.469   5.951   9.008  0.4879  0.4548 -0.2014
   61CHL1    H9 6958   5.562   5.891   9.024 -0.3695 -1.3403 -1.7565
   61CHL1   C10 6959   5.394   5.940   9.141  0.5018  0.0211 -0.4391
   61CHL1   C19 6960   5.251   5.977   9.134 -0.5724 -0.0089 -0.2319
   61CHL1  H19A 6961   5.198   5.911   9.061  2.2828 -1.2799 -1.2018
   61CHL1  H19B 6962   5.208   5.958   9.235  1.9332  0.4282  0.9596
   61CHL1  H19C 6963   5.228   6.085   9.122  0.5287  0.2037 -0.3831
   61CHL1    C1 6964   5.405   5.788   9.182  0.0476  0.7183  0.0895
   61CHL1   H1A 6965   5.342   5.723   9.117  0.6220  1.5863 -1.3612
   61CHL1   H1B 6966   5.508   5.747   9.172 -0.7018 -1.1844 -0.1665
   61CHL1    C2 6967   5.376   5.758   9.332 -0.1252 -0.8949  0.4233
   61CHL1   H2A 6968   5.409   5.652   9.334 -1.3084 -1.2754  0.4613
   61CHL1   H2B 6969   5.268   5.770   9.355  0.1964  0.3603  1.3606
   61CHL1   C20 6970   5.539   6.039   8.457  0.2270  0.4190  0.9532
   61CHL1   H20 6971   5.429   6.056   8.454  0.3730  1.4183  1.2655
   61CHL1   C21 6972   5.566   5.893   8.414  0.1110 -0.3414  0.2834
   61CHL1  H21A 6973   5.535   5.817   8.489 -0.3029  1.2722  1.7724
   61CHL1  H21B 6974   5.675   5.896   8.392  0.2627  0.7832  1.1847
   61CHL1  H21C 6975   5.507   5.872   8.323 -2.8025 -1.7918  2.4226
   61CHL1   C22 6976   5.610   6.131   8.358  0.8726 -0.8966 -0.1128
   61CHL1  H22A 6977   5.588   6.238   8.376 -0.0281 -1.2513  0.9616
   61CHL1  H22B 6978   5.720   6.118   8.371  1.0840  0.6158 -0.2885
   61CHL1   C23 6979   5.582   6.105   8.203 -0.4191 -0.1734 -0.7163
   61CHL1  H23A 6980   5.637   6.012   8.177  0.4815 -0.4392  1.9337
   61CHL1  H23B 6981   5.472   6.096   8.193 -0.4226 -0.3129 -0.5500
   61CHL1   C24 6982   5.633   6.214   8.105 -0.1735  0.0428  0.0307
   61CHL1  H24A 6983   5.575   6.304   8.134  1.1711 -0.1171  3.5292
   61CHL1  H24B 6984   5.741   6.240   8.112 -0.1473  0.1821 -0.8965
   61CHL1   C25 6985   5.617   6.187   7.953 -0.3950  0.5835  0.1166
   61CHL1   H25 6986   5.510   6.167   7.931 -0.8105  2.1598  0.6784
   61CHL1   C26 6987   5.671   6.310   7.876  0.2826 -0.0775 -0.6434
   61CHL1  H26A 6988   5.646   6.301   7.768  1.6969 -1.4415 -0.8684
   61CHL1  H26B 6989   5.629   6.401   7.923  0.8791 -0.6569  1.0399
   61CHL1  H26C 6990   5.782   6.311   7.880  0.3170 -0.7960 -1.2729
   61CHL1   C27 6991   5.700   6.067   7.905  0.0306 -0.1639  0.5452
   61CHL1  H27A 6992   5.698   6.065   7.794  0.0503  0.8019  0.5210
   61CHL1  H27B 6993   5.806   6.094   7.927 -0.0723 -0.2948  1.2081
   61CHL1  H27C 6994   5.662   5.971   7.945  0.4578 -1.0998 -1.2406
   62CHL1    C3 6995   0.442   3.223   9.467 -0.8368  0.7172  0.2440
   62CHL1    H3 6996   0.391   3.319   9.441 -0.5779  1.1317  1.2191
   62CHL1    O3 6997   0.498   3.229   9.600  0.4045  0.6113  0.6815
   62CHL1   H3' 6998   0.559   3.303   9.593  0.6866  0.3615  0.5413
   62CHL1    C4 6999   0.341   3.111   9.446  0.6488  0.0372 -0.2480
   62CHL1   H4A 7000   0.393   3.020   9.484  2.0296  1.5342  1.5643
   62CHL1   H4B 7001   0.252   3.118   9.512 -0.3339 -0.6420 -1.4921
   62CHL1    C5 7002   0.275   3.104   9.303  0.7215  0.1942 -0.2362
   62CHL1    C6 7003   0.144   3.111   9.272  1.1765 -0.6050 -0.3811
   62CHL1    H6 7004   0.072   3.121   9.354  0.9803 -0.2511 -0.5975
   62CHL1    C7 7005   0.090   3.109   9.128 -0.8500 -0.1189 -1.0626
   62CHL1   H7A 7006  -0.001   3.047   9.114 -0.8362  0.0371 -1.8450
   62CHL1   H7B 7007   0.070   3.215   9.104 -1.3967  0.2313  0.8166
   62CHL1    C8 7008   0.193   3.060   9.021  0.1541 -0.1460 -0.0490
   62CHL1    H8 7009   0.188   2.949   9.015 -2.5205  0.0082 -1.3826
   62CHL1   C14 7010   0.143   3.101   8.883  0.2752 -0.6885 -0.3416
   62CHL1   H14 7011   0.145   3.212   8.888  1.6574 -0.6555 -1.3948
   62CHL1   C15 7012  -0.001   3.061   8.854 -0.0882  0.1083 -0.0974
   62CHL1  H15A 7013  -0.031   2.960   8.888  2.3163 -0.0515  1.7244
   62CHL1  H15B 7014  -0.073   3.129   8.905  0.4055  0.4470  0.1608
   62CHL1   C16 7015  -0.011   3.068   8.700 -0.1394  0.7589  0.0165
   62CHL1  H16A 7016  -0.029   2.967   8.656 -0.1148  1.1030 -0.7862
   62CHL1  H16B 7017  -0.087   3.138   8.660 -1.3378 -1.5536 -1.9012
   62CHL1   C17 7018   0.133   3.113   8.651 -0.4935 -0.2715  0.1505
   62CHL1   H17 7019   0.115   3.223   8.660 -1.7058 -0.2897 -1.7570
   62CHL1   C13 7020   0.230   3.062   8.762  0.1396 -0.5136 -0.9004
   62CHL1   C18 7021   0.251   2.908   8.748 -0.0484  0.2806  0.1582
   62CHL1  H18A 7022   0.314   2.863   8.828  0.1630 -0.0315 -0.1833
   62CHL1  H18B 7023   0.157   2.850   8.738  0.8182 -0.7604 -2.2074
   62CHL1  H18C 7024   0.311   2.889   8.656 -0.8117 -0.6645 -0.1522
   62CHL1   C12 7025   0.359   3.149   8.785  0.1939  0.7040  0.1677
   62CHL1  H12A 7026   0.433   3.137   8.702  1.1317 -0.3991  1.1460
   62CHL1  H12B 7027   0.334   3.257   8.793 -1.6326  0.3473 -0.3982
   62CHL1   C11 7028   0.420   3.117   8.926  0.7059 -0.1232 -0.8108
   62CHL1  H11A 7029   0.465   3.015   8.924 -0.5269 -0.6960 -0.0571
   62CHL1  H11B 7030   0.496   3.196   8.943 -1.1401  1.6214 -0.4320
   62CHL1    C9 7031   0.325   3.136   9.051 -0.3985 -0.3869  0.4862
   62CHL1    H9 7032   0.302   3.245   9.057  0.0123 -0.0585 -2.9224
   62CHL1   C10 7033   0.380   3.105   9.196 -0.5722  0.3831  0.0531
   62CHL1   C19 7034   0.446   2.967   9.191 -0.3698  0.1365  0.3606
   62CHL1  H19A 7035   0.524   2.969   9.112 -0.1186 -0.6775  0.5909
   62CHL1  H19B 7036   0.489   2.946   9.292 -0.4511 -1.5419  0.0531
   62CHL1  H19C 7037   0.376   2.883   9.173 -0.0019 -0.3102  0.9854
   62CHL1    C1 7038   0.491   3.214   9.225 -0.3405 -0.1760 -0.5499
   62CHL1   H1A 7039   0.577   3.198   9.157 -1.4797 -1.2825 -1.7647
   62CHL1   H1B 7040   0.454   3.316   9.202 -0.1928  0.3259  1.2943
   62CHL1    C2 7041   0.557   3.211   9.365  0.1285 -0.2794  0.2180
   62CHL1   H2A 7042   0.616   3.300   9.393  1.4265 -0.7258 -1.0339
   62CHL1   H2B 7043   0.609   3.114   9.383 -1.6649 -1.4478 -0.7054
   62CHL1   C20 7044   0.173   3.078   8.505 -0.3262  0.4588  0.0605
   62CHL1   H20 7045   0.243   2.992   8.498  1.2217  1.7080 -0.1230
   62CHL1   C21 7046   0.248   3.207   8.457 -0.2800  0.3931  0.4318
   62CHL1  H21A 7047   0.318   3.232   8.540 -1.0576 -0.1843  1.2812
   62CHL1  H21B 7048   0.172   3.288   8.451  1.6153  2.1061 -0.9335
   62CHL1  H21C 7049   0.296   3.195   8.358 -1.7108  1.6238 -0.4316
   62CHL1   C22 7050   0.049   3.035   8.412 -0.0601  0.3348 -0.5396
   62CHL1  H22A 7051   0.009   2.946   8.463 -0.7266  1.1771  0.4313
   62CHL1  H22B 7052  -0.018   3.121   8.391  0.2359  0.4993 -0.8303
   62CHL1   C23 7053   0.108   2.989   8.278 -0.3134  0.1731  0.3663
   62CHL1  H23A 7054   0.155   3.082   8.238 -1.7767  0.0624 -1.7067
   62CHL1  H23B 7055   0.182   2.906   8.281 -2.8319 -2.1425 -0.4995
   62CHL1   C24 7056   0.005   2.936   8.175  0.6038 -0.0319  0.0133
   62CHL1  H24A 7057  -0.045   2.854   8.230  0.7440  0.0125  0.2070
   62CHL1  H24B 7058  -0.071   3.016   8.161 -0.1260 -1.0204 -1.8355
   62CHL1   C25 7059   0.067   2.881   8.040  0.2223  0.3310 -0.0002
   62CHL1   H25 7060   0.144   2.806   8.069  1.3183  2.0167  1.5631
   62CHL1   C26 7061  -0.046   2.820   7.950 -0.3135  0.2482 -0.3593
   62CHL1  H26A 7062  -0.106   2.890   7.889 -1.7451 -0.1827  0.5321
   62CHL1  H26B 7063   0.011   2.766   7.872 -0.2673  0.9491 -0.8115
   62CHL1  H26C 7064  -0.120   2.753   7.999 -0.4910  1.2326  0.7494
   62CHL1   C27 7065   0.135   2.992   7.961 -0.6105 -0.5083  0.2884
   62CHL1  H27A 7066   0.166   2.968   7.857 -1.5170 -1.2355  0.1806
   62CHL1  H27B 7067   0.060   3.074   7.959  0.6161  0.6172 -0.5085
   62CHL1  H27C 7068   0.222   3.035   8.015 -0.4331 -0.1809 -0.2424
   63CHL1    C3 7069   1.423   5.802   9.509 -0.4540  0.5319  0.0989
   63CHL1    H3 7070   1.324   5.819   9.461 -0.1795 -0.2247 -0.7451
   63CHL1    O3 7071   1.400   5.753   9.636  0.5139  1.0302 -0.0801
   63CHL1   H3' 7072   1.492   5.750   9.662  0.3755 -0.0015  0.3254
   63CHL1    C4 7073   1.505   5.702   9.420 -0.6004  0.8115 -0.1152
   63CHL1   H4A 7074   1.608   5.683   9.458 -0.2751  0.5441 -1.1023
   63CHL1   H4B 7075   1.460   5.601   9.420  1.4374 -0.1287  0.8051
   63CHL1    C5 7076   1.522   5.760   9.283  0.6088  0.1358 -0.6137
   63CHL1    C6 7077   1.476   5.691   9.175 -0.2356  0.5865 -0.0193
   63CHL1    H6 7078   1.444   5.586   9.187  2.0274 -0.3047 -1.5034
   63CHL1    C7 7079   1.483   5.733   9.034  0.7201 -0.3113 -0.6343
   63CHL1   H7A 7080   1.527   5.660   8.963 -0.0479 -2.2663  0.8471
   63CHL1   H7B 7081   1.385   5.776   9.007  0.4487 -0.7077 -0.2829
   63CHL1    C8 7082   1.572   5.867   9.019 -0.1343  0.2007  0.3082
   63CHL1    H8 7083   1.676   5.828   9.025  0.5144  1.9649  0.8666
   63CHL1   C14 7084   1.547   5.935   8.882  0.0338 -0.3038 -0.0520
   63CHL1   H14 7085   1.440   5.962   8.894  0.6366  0.8767  3.2382
   63CHL1   C15 7086   1.564   5.852   8.755  0.1372  0.2178  0.0349
   63CHL1  H15A 7087   1.659   5.795   8.756 -1.2168 -2.0623 -0.0055
   63CHL1  H15B 7088   1.492   5.772   8.728  2.5883 -1.5157 -1.5924
   63CHL1   C16 7089   1.559   5.960   8.643  0.0936  1.0992  0.0815
   63CHL1  H16A 7090   1.649   5.946   8.579  0.4291  1.4323  0.4803
   63CHL1  H16B 7091   1.473   5.958   8.572  2.0343 -0.2359 -2.3384
   63CHL1   C17 7092   1.555   6.098   8.719 -0.5782  0.0344 -0.0091
   63CHL1   H17 7093   1.448   6.121   8.739 -0.5570 -1.2014  1.6072
   63CHL1   C13 7094   1.611   6.073   8.857  0.3387  0.7089 -0.6445
   63CHL1   C18 7095   1.762   6.054   8.846 -0.4452 -0.5741  0.1167
   63CHL1  H18A 7096   1.807   6.155   8.840 -0.8176 -0.2472  2.4524
   63CHL1  H18B 7097   1.805   6.001   8.933 -0.3111  1.9106  1.5910
   63CHL1  H18C 7098   1.787   5.996   8.754  1.1531  2.9962 -1.7917
   63CHL1   C12 7099   1.574   6.165   8.977 -0.5448 -0.1414  0.2239
   63CHL1  H12A 7100   1.634   6.258   8.973  0.9221 -1.0400  0.7762
   63CHL1  H12B 7101   1.466   6.190   8.975 -0.9531 -1.7085  1.5771
   63CHL1   C11 7102   1.609   6.096   9.108  0.0050  0.4941  0.1607
   63CHL1  H11A 7103   1.719   6.088   9.116 -0.1828 -2.5385  0.3543
   63CHL1  H11B 7104   1.574   6.174   9.179 -0.8121  1.0806 -0.8669
   63CHL1    C9 7105   1.544   5.959   9.132 -0.1911  0.6250  0.2916
   63CHL1    H9 7106   1.434   5.974   9.123 -0.5280 -0.1102  2.9650
   63CHL1   C10 7107   1.571   5.899   9.277 -0.4009 -0.2755 -0.3222
   63CHL1   C19 7108   1.728   5.890   9.293 -0.4257 -0.3679 -0.7812
   63CHL1  H19A 7109   1.758   5.831   9.204 -1.4643 -1.8973 -0.1394
   63CHL1  H19B 7110   1.770   5.992   9.283  1.7128 -1.2693 -1.2374
   63CHL1  H19C 7111   1.761   5.854   9.393 -1.3549 -1.9056 -1.0088
   63CHL1    C1 7112   1.511   5.993   9.380  0.3936 -0.7859 -0.0333
   63CHL1   H1A 7113   1.575   6.082   9.402 -0.6252  0.0483 -0.4140
   63CHL1   H1B 7114   1.412   6.028   9.344  0.8968  1.8432  1.0063
   63CHL1    C2 7115   1.503   5.929   9.516  0.2363 -0.3569 -0.1738
   63CHL1   H2A 7116   1.446   5.995   9.585  2.9909  1.6467  0.2657
   63CHL1   H2B 7117   1.608   5.910   9.546 -0.0669 -0.0705  1.1179
   63CHL1   C20 7118   1.617   6.207   8.632  0.0861  0.2209  0.2772
   63CHL1   H20 7119   1.722   6.180   8.607 -0.1423 -1.1088  0.6848
   63CHL1   C21 7120   1.618   6.336   8.715 -0.3369 -0.3960  0.7924
   63CHL1  H21A 7121   1.519   6.338   8.767 -0.9498  0.0412 -0.3726
   63CHL1  H21B 7122   1.628   6.436   8.669 -1.2139  0.5459  2.5723
   63CHL1  H21C 7123   1.696   6.316   8.791 -0.9613 -1.0346  1.2797
   63CHL1   C22 7124   1.538   6.225   8.490 -0.0165 -0.0328 -0.8782
   63CHL1  H22A 7125   1.556   6.126   8.442 -1.2795  0.3045 -2.0764
   63CHL1  H22B 7126   1.430   6.249   8.498  0.3834  1.3995  0.3460
   63CHL1   C23 7127   1.602   6.332   8.404  0.2901  0.0640  0.3306
   63CHL1  H23A 7128   1.576   6.435   8.438  0.3356  0.0694  0.3510
   63CHL1  H23B 7129   1.713   6.328   8.408  0.3608  2.0590  0.8065
   63CHL1   C24 7130   1.560   6.328   8.254 -0.0318 -0.4297  0.3564
   63CHL1  H24A 7131   1.602   6.235   8.209  0.3153  0.1181 -0.4752
   63CHL1  H24B 7132   1.451   6.310   8.256 -0.5167  2.1213 -0.9289
   63CHL1   C25 7133   1.591   6.462   8.183  0.1410 -0.8645  0.4583
   63CHL1   H25 7134   1.561   6.551   8.242  0.7639 -0.8415  0.7482
   63CHL1   C26 7135   1.743   6.478   8.176  0.2822  0.1564  0.1544
   63CHL1  H26A 7136   1.769   6.575   8.129  1.5799 -0.3367 -0.1491
   63CHL1  H26B 7137   1.789   6.498   8.275 -2.2300 -0.0840  1.4230
   63CHL1  H26C 7138   1.782   6.392   8.117 -0.5863  0.8369 -1.4449
   63CHL1   C27 7139   1.527   6.474   8.043  0.2594 -0.3813  0.3417
   63CHL1  H27A 7140   1.562   6.388   7.983  3.9918  0.6710  0.8438
   63CHL1  H27B 7141   1.419   6.470   8.069  0.8013 -2.1785  2.4485
   63CHL1  H27C 7142   1.558   6.567   7.990 -3.0298  0.7255  0.2586
   64CHL1    C3 7143   0.657   4.047   9.421  0.0438  0.5888  0.5655
   64CHL1    H3 7144   0.764   4.028   9.442 -0.0016 -1.0530 -0.5236
   64CHL1    O3 7145   0.580   4.019   9.540 -0.7676  0.1813 -0.3551
   64CHL1   H3' 7146   0.518   3.951   9.511 -0.2913 -0.0309 -0.9093
   64CHL1    C4 7147   0.643   4.190   9.387  0.9854  0.2279 -0.0616
   64CHL1   H4A 7148   0.538   4.225   9.383  0.2741 -1.7864  0.5484
   64CHL1   H4B 7149   0.689   4.248   9.470  2.0328 -1.0023  0.2320
   64CHL1    C5 7150   0.706   4.235   9.260  0.2638 -0.5765 -0.4636
   64CHL1    C6 7151   0.800   4.325   9.249  0.5657  0.2699  0.6451
   64CHL1    H6 7152   0.838   4.364   9.345  3.7114  2.3688 -1.3519
   64CHL1    C7 7153   0.869   4.364   9.126  0.0128 -0.1968  0.7340
   64CHL1   H7A 7154   0.886   4.474   9.117  1.0828 -0.2488  1.8501
   64CHL1   H7B 7155   0.964   4.306   9.124 -0.3860 -0.8366  0.3572
   64CHL1    C8 7156   0.786   4.321   8.999  0.0484  0.2588  0.1410
   64CHL1    H8 7157   0.704   4.395   8.985  0.9664  1.3415  0.4170
   64CHL1   C14 7158   0.876   4.336   8.882  0.4978  0.1142 -0.1094
   64CHL1   H14 7159   0.958   4.267   8.913  0.3015  0.5191  1.3785
   64CHL1   C15 7160   0.950   4.468   8.858 -0.2695 -0.1712 -0.5129
   64CHL1  H15A 7161   0.880   4.554   8.859  0.6350  0.5761  1.3819
   64CHL1  H15B 7162   1.037   4.478   8.926  2.0038  0.3670 -3.4208
   64CHL1   C16 7163   1.000   4.457   8.708 -0.9575 -0.0431  0.9872
   64CHL1  H16A 7164   0.945   4.537   8.654  3.6952  1.3933 -1.7942
   64CHL1  H16B 7165   1.110   4.467   8.697 -1.1376  1.4000  0.3862
   64CHL1   C17 7166   0.951   4.322   8.657  0.6539 -0.2181  0.4840
   64CHL1   H17 7167   1.031   4.255   8.696  0.7897 -1.0930 -1.2122
   64CHL1   C13 7168   0.833   4.279   8.745 -0.5468 -0.1517  0.1288
   64CHL1   C18 7169   0.701   4.359   8.713  0.0895  0.1850  0.1438
   64CHL1  H18A 7170   0.652   4.316   8.624  0.8384  0.3294 -0.3440
   64CHL1  H18B 7171   0.627   4.357   8.796  0.1387 -1.1762  0.1670
   64CHL1  H18C 7172   0.717   4.466   8.685  0.6421 -0.4347 -2.0170
   64CHL1   C12 7173   0.794   4.131   8.772 -0.4867 -0.0409 -0.2787
   64CHL1  H12A 7174   0.753   4.074   8.685 -0.3931  0.1836 -0.4714
   64CHL1  H12B 7175   0.887   4.076   8.801 -0.1344  0.9857  0.5670
   64CHL1   C11 7176   0.691   4.114   8.885 -0.1005  0.5090 -0.0611
   64CHL1  H11A 7177   0.589   4.150   8.858 -0.2548  0.4278  0.3990
   64CHL1  H11B 7178   0.672   4.005   8.894  0.5608  0.3697 -0.3680
   64CHL1    C9 7179   0.748   4.175   9.014  0.1209  0.2042 -0.3926
   64CHL1    H9 7180   0.836   4.111   9.035  0.3343  0.8252  0.6376
   64CHL1   C10 7181   0.659   4.156   9.139  0.5849  0.1423 -0.5778
   64CHL1   C19 7182   0.511   4.196   9.107 -0.6614  0.2956  0.4795
   64CHL1  H19A 7183   0.473   4.114   9.043  0.9220 -1.1127  1.3001
   64CHL1  H19B 7184   0.447   4.194   9.197 -1.6039  0.5074 -0.1787
   64CHL1  H19C 7185   0.499   4.291   9.049  0.7376 -0.3267 -0.8860
   64CHL1    C1 7186   0.666   4.009   9.176  0.0754  0.7505 -0.1775
   64CHL1   H1A 7187   0.622   3.943   9.097  0.4633  0.8969 -0.5151
   64CHL1   H1B 7188   0.775   3.989   9.184 -0.0738 -1.3283 -2.7365
   64CHL1    C2 7189   0.597   3.967   9.304  0.4605 -0.2401 -0.0778
   64CHL1   H2A 7190   0.619   3.860   9.326  1.6184  0.3375  1.5950
   64CHL1   H2B 7191   0.486   3.975   9.299  0.3331 -0.1139  2.6764
   64CHL1   C20 7192   0.948   4.288   8.505  0.0802 -0.7368 -0.5283
   64CHL1   H20 7193   1.045   4.329   8.469  0.1220 -0.2842  0.0884
   64CHL1   C21 7194   0.846   4.375   8.422 -0.0558  0.5846  0.5105
   64CHL1  H21A 7195   0.879   4.371   8.316 -1.4179 -1.3806  0.1216
   64CHL1  H21B 7196   0.832   4.472   8.474 -1.0711 -0.7349  2.7884
   64CHL1  H21C 7197   0.759   4.309   8.402  0.2010  0.6177 -0.7831
   64CHL1   C22 7198   0.948   4.142   8.471  1.0651  0.0644  0.5056
   64CHL1  H22A 7199   1.046   4.103   8.507  0.9545  1.5882  2.5183
   64CHL1  H22B 7200   0.863   4.087   8.518 -0.9454  0.4555 -2.5008
   64CHL1   C23 7201   0.945   4.113   8.320  1.0684 -0.3136 -0.3386
   64CHL1  H23A 7202   0.844   4.142   8.284 -0.4824 -2.9432  1.7226
   64CHL1  H23B 7203   1.010   4.190   8.273 -0.0254  0.0521 -1.2777
   64CHL1   C24 7204   0.974   3.969   8.285  0.0335 -0.6530 -0.0929
   64CHL1  H24A 7205   1.075   3.942   8.320 -0.1269 -0.0737  0.8251
   64CHL1  H24B 7206   0.902   3.915   8.351 -1.0331  0.8656  0.0135
   64CHL1   C25 7207   0.961   3.940   8.130 -0.0769 -0.2856  0.0109
   64CHL1   H25 7208   0.886   4.010   8.088  0.4648 -0.2746 -0.9572
   64CHL1   C26 7209   1.076   3.955   8.036  0.6073 -0.2055 -0.7740
   64CHL1  H26A 7210   1.167   3.907   8.077  0.7447 -0.5338 -1.4595
   64CHL1  H26B 7211   1.057   3.903   7.939 -1.9971 -1.9931  0.6260
   64CHL1  H26C 7212   1.089   4.064   8.021 -2.6474  0.4005  0.3028
   64CHL1   C27 7213   0.901   3.791   8.127  0.3435 -0.4341  0.1003
   64CHL1  H27A 7214   0.907   3.762   8.020  1.2358 -0.3978  0.1323
   64CHL1  H27B 7215   0.965   3.713   8.175  0.6310  1.0497  2.2113
   64CHL1  H27C 7216   0.803   3.796   8.178 -0.7547  2.8084 -2.1909
   65CHL1    C3 7217   2.767   6.794   9.475  0.3756  0.0855  0.3848
   65CHL1    H3 7218   2.723   6.896   9.472 -1.3954 -0.6060  1.6977
   65CHL1    O3 7219   2.791   6.749   9.608  0.4553  0.1488  0.4144
   65CHL1   H3' 7220   2.845   6.670   9.596 -0.8991 -0.8849  1.0472
   65CHL1    C4 7221   2.665   6.697   9.408 -0.1225  0.5323 -0.2471
   65CHL1   H4A 7222   2.698   6.592   9.421 -1.2750  0.1606 -0.2297
   65CHL1   H4B 7223   2.575   6.719   9.470 -0.2807 -0.0917 -0.2537
   65CHL1    C5 7224   2.649   6.724   9.262 -0.1047  0.2381  0.5154
   65CHL1    C6 7225   2.532   6.751   9.211  0.5645 -0.3747  0.4718
   65CHL1    H6 7226   2.443   6.766   9.273 -0.0786  1.5368 -0.8854
   65CHL1    C7 7227   2.508   6.775   9.067 -0.1742 -0.6881  0.4377
   65CHL1   H7A 7228   2.421   6.716   9.031 -1.4864  2.2932 -1.4922
   65CHL1   H7B 7229   2.466   6.875   9.042  0.5520 -0.7047 -0.8552
   65CHL1    C8 7230   2.631   6.731   8.985 -0.4332  0.6164 -0.0905
   65CHL1    H8 7231   2.634   6.620   8.982  0.5529  0.6624 -1.1818
   65CHL1   C14 7232   2.610   6.787   8.846 -0.5468  0.2982 -0.7347
   65CHL1   H14 7233   2.603   6.896   8.862 -2.1960 -0.2750  2.9496
   65CHL1   C15 7234   2.487   6.752   8.762  0.1664  0.6255 -0.2305
   65CHL1  H15A 7235   2.469   6.643   8.774  1.2067  0.7004  2.3781
   65CHL1  H15B 7236   2.395   6.794   8.809 -1.5826 -1.9767 -1.2373
   65CHL1   C16 7237   2.527   6.793   8.625  0.0227 -0.6276 -0.7554
   65CHL1  H16A 7238   2.497   6.713   8.554  2.1267 -0.3587 -1.9702
   65CHL1  H16B 7239   2.465   6.883   8.606 -0.1131  0.3019  3.5608
   65CHL1   C17 7240   2.679   6.822   8.621  0.2455  0.9911  0.3001
   65CHL1   H17 7241   2.699   6.931   8.629  0.5268  0.9495  0.1506
   65CHL1   C13 7242   2.730   6.766   8.754  0.0167 -0.1728  0.3992
   65CHL1   C18 7243   2.753   6.614   8.733  0.1818 -0.6733  0.0626
   65CHL1  H18A 7244   2.684   6.568   8.659  0.9299 -2.3075  0.3430
   65CHL1  H18B 7245   2.852   6.588   8.691  0.7155  1.2613  0.1169
   65CHL1  H18C 7246   2.745   6.560   8.830  2.1874  1.9358  1.7493
   65CHL1   C12 7247   2.855   6.828   8.808  1.2125 -0.4763 -0.1341
   65CHL1  H12A 7248   2.951   6.809   8.756  1.7184 -1.8203  1.2413
   65CHL1  H12B 7249   2.840   6.938   8.818 -2.5857 -1.0701  1.6918
   65CHL1   C11 7250   2.882   6.770   8.946 -0.5152  0.2867 -0.4356
   65CHL1  H11A 7251   2.910   6.663   8.951  1.6128  0.8610  0.4783
   65CHL1  H11B 7252   2.964   6.833   8.987 -0.1240  0.2540 -1.1516
   65CHL1    C9 7253   2.761   6.785   9.041 -0.8278  0.0256 -0.5856
   65CHL1    H9 7254   2.743   6.894   9.050  0.9251  0.2046  0.9599
   65CHL1   C10 7255   2.782   6.725   9.184 -0.2590  0.6016  0.0800
   65CHL1   C19 7256   2.820   6.570   9.176 -0.1875 -0.4677  0.3024
   65CHL1  H19A 7257   2.924   6.557   9.140  0.0565  1.1084  0.4005
   65CHL1  H19B 7258   2.813   6.514   9.271 -1.7486  0.6162  0.8471
   65CHL1  H19C 7259   2.764   6.513   9.099  0.2839  1.1339 -1.2805
   65CHL1    C1 7260   2.895   6.804   9.257 -0.6202  0.4114  0.0426
   65CHL1   H1A 7261   2.989   6.773   9.206 -0.9968 -0.3745 -0.1776
   65CHL1   H1B 7262   2.885   6.914   9.244  0.1235  0.3495 -1.1361
   65CHL1    C2 7263   2.906   6.783   9.400 -0.2742 -0.1675  0.4384
   65CHL1   H2A 7264   2.983   6.844   9.452 -1.0131  0.8986  0.3064
   65CHL1   H2B 7265   2.923   6.675   9.416  1.2260 -0.1205 -0.7570
   65CHL1   C20 7266   2.738   6.766   8.491 -0.0225  0.2798 -0.6926
   65CHL1   H20 7267   2.735   6.656   8.477 -0.0150  0.3795 -1.4936
   65CHL1   C21 7268   2.887   6.810   8.479 -0.2443  0.1595 -0.2489
   65CHL1  H21A 7269   2.907   6.791   8.371 -0.5971 -1.1742 -0.0849
   65CHL1  H21B 7270   2.953   6.752   8.547 -1.9992 -1.5952 -0.0102
   65CHL1  H21C 7271   2.890   6.919   8.500 -0.6807  0.5274 -2.0067
   65CHL1   C22 7272   2.654   6.813   8.371 -0.2224  0.1453  0.6660
   65CHL1  H22A 7273   2.694   6.764   8.279 -0.1821  0.9478  0.2517
   65CHL1  H22B 7274   2.551   6.772   8.370  1.0084 -3.2011  2.6037
   65CHL1   C23 7275   2.661   6.966   8.342 -0.1215 -0.6674 -0.1172
   65CHL1  H23A 7276   2.626   7.003   8.441 -0.9709 -3.5174  0.7055
   65CHL1  H23B 7277   2.769   6.993   8.332 -0.4057 -0.4402 -2.8214
   65CHL1   C24 7278   2.580   7.006   8.220  0.4824 -0.8962  0.3507
   65CHL1  H24A 7279   2.591   7.117   8.219 -0.2715 -0.8189  0.1249
   65CHL1  H24B 7280   2.614   6.972   8.120  2.0643  3.8000 -0.8576
   65CHL1   C25 7281   2.426   6.983   8.230 -0.6426 -0.1190  0.4763
   65CHL1   H25 7282   2.415   6.873   8.246  0.6932 -0.4360 -0.6304
   65CHL1   C26 7283   2.356   7.066   8.340 -0.0673  0.9236 -0.7213
   65CHL1  H26A 7284   2.411   7.055   8.435  2.1164 -0.0797 -2.0705
   65CHL1  H26B 7285   2.362   7.173   8.310  0.4710  0.6556 -1.5986
   65CHL1  H26C 7286   2.248   7.041   8.355  0.3850  0.0929  1.3139
   65CHL1   C27 7287   2.361   7.017   8.097  0.5640  0.8202 -0.1553
   65CHL1  H27A 7288   2.260   6.971   8.099  1.2190 -0.5580  1.5471
   65CHL1  H27B 7289   2.347   7.125   8.073 -0.1387  0.6913 -0.3359
   65CHL1  H27C 7290   2.417   6.967   8.015  0.8514  0.3520  0.3266
   66CHL1    C3 7291   7.016   5.247   9.464  0.5488 -0.1626 -0.1402
   66CHL1    H3 7292   6.912   5.210   9.462 -0.0319  1.4021  0.0198
   66CHL1    O3 7293   7.027   5.288   9.596  0.0151  0.0983  0.2937
   66CHL1   H3' 7294   7.121   5.285   9.615 -0.0402  1.5392  0.8199
   66CHL1    C4 7295   7.121   5.137   9.439 -0.4407 -0.0722  0.0143
   66CHL1   H4A 7296   7.221   5.178   9.464  0.2504 -1.1348 -0.9780
   66CHL1   H4B 7297   7.115   5.045   9.501 -0.5138  0.6399  1.0868
   66CHL1    C5 7298   7.132   5.098   9.291  0.1593 -0.5184  0.0031
   66CHL1    C6 7299   7.137   4.967   9.251 -0.1890  0.3602  0.4076
   66CHL1    H6 7300   7.129   4.892   9.331  1.2874 -1.6548 -1.3101
   66CHL1    C7 7301   7.149   4.920   9.110  0.0045 -0.7366 -0.7543
   66CHL1   H7A 7302   7.222   4.838   9.094  0.3386 -0.7042  0.5452
   66CHL1   H7B 7303   7.047   4.882   9.090 -1.3164  1.8166  0.7827
   66CHL1    C8 7304   7.196   5.038   9.017  0.2316 -0.0942  0.1960
   66CHL1    H8 7305   7.304   5.059   9.032  0.2725  1.3972 -2.0217
   66CHL1   C14 7306   7.167   4.995   8.875  0.0592  0.0083  0.6252
   66CHL1   H14 7307   7.058   4.973   8.866  0.3030 -2.3858  2.9744
   66CHL1   C15 7308   7.234   4.860   8.821 -0.3332 -0.6117 -0.3659
   66CHL1  H15A 7309   7.342   4.860   8.848 -0.2993  2.3370 -0.2614
   66CHL1  H15B 7310   7.192   4.777   8.881 -0.1316 -0.0461  0.5778
   66CHL1   C16 7311   7.210   4.870   8.675 -0.1863  0.1929 -0.4907
   66CHL1  H16A 7312   7.305   4.876   8.618  0.0686  0.5539 -0.0276
   66CHL1  H16B 7313   7.139   4.787   8.649 -1.4375  0.9328  0.5007
   66CHL1   C17 7314   7.149   5.014   8.650 -0.4350  0.2351 -1.2009
   66CHL1   H17 7315   7.039   5.014   8.664 -0.2139 -0.4434  0.7508
   66CHL1   C13 7316   7.191   5.103   8.769 -0.3907  0.1943 -0.5127
   66CHL1   C18 7317   7.341   5.138   8.755 -0.8173 -0.0176 -0.2042
   66CHL1  H18A 7318   7.412   5.053   8.758 -0.1229  0.4904 -1.6150
   66CHL1  H18B 7319   7.367   5.189   8.659  2.0219 -2.4821 -0.8360
   66CHL1  H18C 7320   7.365   5.208   8.838 -1.3054 -0.7004  0.5123
   66CHL1   C12 7321   7.100   5.218   8.806  1.0234 -0.0254  0.2690
   66CHL1  H12A 7322   7.125   5.286   8.721 -0.5880 -0.9174 -0.9415
   66CHL1  H12B 7323   6.997   5.177   8.803  0.9075  0.3548 -1.7086
   66CHL1   C11 7324   7.134   5.277   8.945  0.0671 -0.1043  0.9947
   66CHL1  H11A 7325   7.233   5.328   8.948  0.7132 -1.2728  0.0337
   66CHL1  H11B 7326   7.068   5.362   8.973  2.1624  1.1072  2.4370
   66CHL1    C9 7327   7.115   5.165   9.050  0.0807 -0.2262  0.3175
   66CHL1    H9 7328   7.008   5.137   9.039 -0.6417  0.9703  3.6104
   66CHL1   C10 7329   7.143   5.214   9.193  0.2531 -0.9297  0.1614
   66CHL1   C19 7330   7.291   5.271   9.192  0.1802  0.1147 -0.0916
   66CHL1  H19A 7331   7.369   5.206   9.148 -1.4991 -1.0696 -1.4212
   66CHL1  H19B 7332   7.299   5.374   9.151  1.2899  0.4438  0.9265
   66CHL1  H19C 7333   7.310   5.292   9.299  0.3364 -2.2501  0.3680
   66CHL1    C1 7334   7.043   5.330   9.222  0.2318  0.7053 -0.1799
   66CHL1   H1A 7335   7.069   5.426   9.171 -2.3178  1.5302 -0.0192
   66CHL1   H1B 7336   6.946   5.290   9.187  1.2705 -1.5452 -0.5926
   66CHL1    C2 7337   7.025   5.371   9.373  0.1562  0.0988 -0.5634
   66CHL1   H2A 7338   6.930   5.429   9.382 -0.1895 -0.7813  1.6704
   66CHL1   H2B 7339   7.110   5.432   9.409 -1.1622  1.4535  0.3035
   66CHL1   C20 7340   7.180   5.058   8.503  0.1064  0.1767  0.3326
   66CHL1   H20 7341   7.289   5.080   8.502 -0.1547  1.5661 -2.4703
   66CHL1   C21 7342   7.104   5.185   8.465 -0.3340 -0.4361 -0.0993
   66CHL1  H21A 7343   6.999   5.182   8.500 -0.3717 -0.5948 -0.2269
   66CHL1  H21B 7344   7.108   5.204   8.356 -1.7887  0.5380  0.0125
   66CHL1  H21C 7345   7.146   5.274   8.516 -0.3837  0.6656 -1.9674
   66CHL1   C22 7346   7.156   4.934   8.404 -0.0258 -0.0211  0.1627
   66CHL1  H22A 7347   7.213   4.844   8.436  1.0321  0.8426  0.7034
   66CHL1  H22B 7348   7.055   4.887   8.399  1.4321 -3.1693 -0.9152
   66CHL1   C23 7349   7.206   4.965   8.260 -0.1188 -0.0903  0.9682
   66CHL1  H23A 7350   7.148   5.050   8.218 -1.6662 -1.1289  0.9800
   66CHL1  H23B 7351   7.313   4.994   8.268  0.7938 -2.7903 -0.5371
   66CHL1   C24 7352   7.202   4.848   8.160  0.6102  0.0611  0.7553
   66CHL1  H24A 7353   7.268   4.767   8.199 -0.8894 -2.0234 -0.9156
   66CHL1  H24B 7354   7.096   4.817   8.153  1.3487 -2.4169 -0.2296
   66CHL1   C25 7355   7.261   4.892   8.024 -0.2080 -0.0616  0.4144
   66CHL1   H25 7356   7.206   4.984   7.997 -1.2511 -0.4412  1.2176
   66CHL1   C26 7357   7.410   4.930   8.039 -0.6064  0.2227 -0.0031
   66CHL1  H26A 7358   7.461   4.839   8.077  0.7112  0.5092 -1.0320
   66CHL1  H26B 7359   7.449   4.942   7.935 -2.6168 -0.2161 -0.8449
   66CHL1  H26C 7360   7.422   5.021   8.101 -3.5441 -0.0302  1.0413
   66CHL1   C27 7361   7.256   4.790   7.914 -0.0640  0.1648 -0.2338
   66CHL1  H27A 7362   7.323   4.704   7.937  0.1950  0.2935 -0.5224
   66CHL1  H27B 7363   7.149   4.769   7.892 -0.6366  1.9933  0.6703
   66CHL1  H27C 7364   7.287   4.829   7.815 -1.9363  1.5364 -0.3184
   67CHL1    C3 7365   5.964   7.124   9.450  0.0068 -0.3735 -0.3213
   67CHL1    H3 7366   5.982   7.221   9.399  3.2305 -0.9324 -0.3106
   67CHL1    O3 7367   5.924   7.147   9.588 -0.2210  0.5670  0.0253
   67CHL1   H3' 7368   5.842   7.193   9.565  0.4374  0.9846 -1.5785
   67CHL1    C4 7369   5.852   7.042   9.381 -0.9144 -0.0417 -0.4144
   67CHL1   H4A 7370   5.839   6.941   9.425  1.3664 -0.8872 -1.5828
   67CHL1   H4B 7371   5.755   7.097   9.383 -0.5981  0.4963  1.8137
   67CHL1    C5 7372   5.905   7.025   9.239 -0.1154  0.4989 -1.1764
   67CHL1    C6 7373   5.828   7.069   9.138 -0.3232 -0.2516 -0.2114
   67CHL1    H6 7374   5.736   7.127   9.156  0.4703  0.5078  1.4801
   67CHL1    C7 7375   5.859   7.050   8.991 -0.4227  0.1613  0.2911
   67CHL1   H7A 7376   5.764   7.028   8.938  0.0914 -1.6162  0.0899
   67CHL1   H7B 7377   5.909   7.142   8.955  1.2748 -0.5179  0.8966
   67CHL1    C8 7378   5.964   6.943   8.978 -0.3327 -0.3225 -1.1237
   67CHL1    H8 7379   5.927   6.842   9.005 -0.6875 -0.0634 -0.6459
   67CHL1   C14 7380   6.016   6.950   8.831  0.5483  0.0717  0.4089
   67CHL1   H14 7381   6.063   7.051   8.828  1.1922 -0.2060  0.9847
   67CHL1   C15 7382   5.913   6.947   8.711 -0.2851  0.3547  0.2774
   67CHL1  H15A 7383   5.839   6.869   8.738  0.1507 -0.0190  0.3997
   67CHL1  H15B 7384   5.870   7.048   8.693 -1.0484 -0.0022  0.0701
   67CHL1   C16 7385   5.995   6.896   8.591 -0.9502 -0.1195  0.1005
   67CHL1  H16A 7386   5.966   6.793   8.562  0.6412 -0.9777  1.4923
   67CHL1  H16B 7387   5.994   6.954   8.495 -1.5765  0.0675  0.2190
   67CHL1   C17 7388   6.137   6.880   8.635 -0.4448 -0.0117 -0.4330
   67CHL1   H17 7389   6.173   6.985   8.628  0.1940 -0.0897  1.4495
   67CHL1   C13 7390   6.124   6.848   8.790 -0.1047  0.1562 -0.1407
   67CHL1   C18 7391   6.078   6.705   8.806 -1.2179  0.0293 -1.0863
   67CHL1  H18A 7392   6.004   6.671   8.731 -1.1524  0.7050 -1.4580
   67CHL1  H18B 7393   6.170   6.642   8.804 -0.9151  0.4732 -1.2412
   67CHL1  H18C 7394   6.035   6.682   8.906 -2.5134 -2.2059 -2.0946
   67CHL1   C12 7395   6.247   6.879   8.885  0.2702 -0.7609  0.3674
   67CHL1  H12A 7396   6.326   6.810   8.849 -0.8104 -0.9104 -1.8027
   67CHL1  H12B 7397   6.277   6.984   8.867  1.8743 -1.2667  0.0417
   67CHL1   C11 7398   6.210   6.874   9.039 -0.3991 -0.0328  0.1166
   67CHL1  H11A 7399   6.181   6.769   9.063 -1.1469 -0.0579 -0.8779
   67CHL1  H11B 7400   6.300   6.901   9.098  0.4735  1.7348 -1.9535
   67CHL1    C9 7401   6.088   6.967   9.068  0.5439 -0.1004  0.4380
   67CHL1    H9 7402   6.123   7.070   9.045 -0.9606  0.1386 -0.8937
   67CHL1   C10 7403   6.047   6.964   9.223 -0.3353  0.4953  0.3212
   67CHL1   C19 7404   6.036   6.814   9.258 -0.2740 -0.2357  0.1126
   67CHL1  H19A 7405   5.982   6.804   9.354 -1.0552 -3.1223 -0.5773
   67CHL1  H19B 7406   5.973   6.754   9.190  2.7696 -1.8061 -1.4492
   67CHL1  H19C 7407   6.142   6.779   9.258  0.7873  2.7733  0.7563
   67CHL1    C1 7408   6.161   7.040   9.306  0.1450 -0.4711 -0.2061
   67CHL1   H1A 7409   6.258   6.986   9.304  2.0296  2.8139 -0.3576
   67CHL1   H1B 7410   6.176   7.143   9.268 -2.1652 -0.4824 -1.2170
   67CHL1    C2 7411   6.110   7.059   9.447  0.6843 -0.4073  0.6812
   67CHL1   H2A 7412   6.178   7.125   9.505  1.2120  0.8853 -1.3399
   67CHL1   H2B 7413   6.101   6.961   9.497 -0.4374  0.5055  2.3604
   67CHL1   C20 7414   6.232   6.793   8.553 -0.4868  0.7525 -0.4729
   67CHL1   H20 7415   6.268   6.719   8.627  2.9110  1.1236 -1.6835
   67CHL1   C21 7416   6.357   6.882   8.519  0.2314 -0.1864  0.2608
   67CHL1  H21A 7417   6.398   6.942   8.603  3.4691 -1.8790  0.0191
   67CHL1  H21B 7418   6.331   6.955   8.440 -1.4408 -1.1411 -0.0814
   67CHL1  H21C 7419   6.433   6.804   8.493 -0.5384 -0.8070 -0.1571
   67CHL1   C22 7420   6.176   6.721   8.429  0.3505 -0.6534  0.1556
   67CHL1  H22A 7421   6.081   6.668   8.451  0.5271 -0.7408  0.7211
   67CHL1  H22B 7422   6.155   6.808   8.364  0.5385 -0.9058 -0.2414
   67CHL1   C23 7423   6.276   6.621   8.361  0.4062  0.9386 -0.6051
   67CHL1  H23A 7424   6.381   6.657   8.352  0.0680  1.9782 -0.5230
   67CHL1  H23B 7425   6.272   6.526   8.418  0.8016 -0.6173 -3.0808
   67CHL1   C24 7426   6.232   6.577   8.219  0.9077  0.1681  0.1778
   67CHL1  H24A 7427   6.253   6.472   8.190 -1.2929 -0.2277 -0.1193
   67CHL1  H24B 7428   6.122   6.586   8.207  0.9903  0.4872 -0.3332
   67CHL1   C25 7429   6.279   6.677   8.113  0.6741 -0.0907  0.2258
   67CHL1   H25 7430   6.242   6.780   8.134  0.4391 -0.4786  1.8090
   67CHL1   C26 7431   6.431   6.685   8.119 -0.4732 -0.3231  0.0770
   67CHL1  H26A 7432   6.477   6.723   8.025  2.2512 -0.2149  1.3955
   67CHL1  H26B 7433   6.463   6.749   8.204  0.3010  0.1843 -0.5838
   67CHL1  H26C 7434   6.464   6.579   8.125 -3.8801 -1.4801 -0.6215
   67CHL1   C27 7435   6.234   6.640   7.973 -0.4183  0.6127  0.4960
   67CHL1  H27A 7436   6.271   6.537   7.955 -1.1923  0.7451 -2.1005
   67CHL1  H27B 7437   6.123   6.639   7.962 -0.5335 -0.0198  1.6759
   67CHL1  H27C 7438   6.283   6.712   7.904  0.7277 -0.5812  0.0565
   68CHL1    C3 7439   0.528   7.185   9.447 -0.1758  0.3738 -0.1429
   68CHL1    H3 7440   0.632   7.212   9.474 -1.0309  3.1495  0.5454
   68CHL1    O3 7441   0.485   7.116   9.564  0.8847  0.0345  0.1424
   68CHL1   H3' 7442   0.391   7.111   9.547  1.0665  1.6617 -1.5140
   68CHL1    C4 7443   0.453   7.322   9.433 -0.1458  0.3817  0.2082
   68CHL1   H4A 7444   0.343   7.318   9.424 -0.2671 -1.0434  1.8303
   68CHL1   H4B 7445   0.481   7.383   9.522  2.9674  1.9945 -1.7897
   68CHL1    C5 7446   0.507   7.389   9.304 -0.0941  0.3495  0.3800
   68CHL1    C6 7447   0.560   7.514   9.304 -0.1438  0.3910 -0.1535
   68CHL1    H6 7448   0.549   7.571   9.397  0.8796 -0.7948  0.7172
   68CHL1    C7 7449   0.607   7.580   9.180  0.2439 -0.3938 -0.5121
   68CHL1   H7A 7450   0.567   7.683   9.193 -0.1003 -0.6879  0.8244
   68CHL1   H7B 7451   0.716   7.588   9.158  0.4588 -0.2365  0.5693
   68CHL1    C8 7452   0.545   7.521   9.054  0.2464 -0.1626  0.1068
   68CHL1    H8 7453   0.436   7.543   9.061  0.3126  0.3289 -0.4582
   68CHL1   C14 7454   0.605   7.584   8.931  0.2531 -0.0619  0.2837
   68CHL1   H14 7455   0.708   7.544   8.942  0.1883 -0.4021 -0.3152
   68CHL1   C15 7456   0.617   7.741   8.928 -0.3269 -0.1172 -0.5875
   68CHL1  H15A 7457   0.517   7.784   8.953  1.1018  3.3856 -0.5773
   68CHL1  H15B 7458   0.709   7.765   8.985  1.2097  1.7432 -3.6968
   68CHL1   C16 7459   0.633   7.752   8.777  0.0618 -0.3264  0.3024
   68CHL1  H16A 7460   0.548   7.807   8.730 -0.0003 -0.9472 -0.3177
   68CHL1  H16B 7461   0.722   7.808   8.742  0.4190 -2.1066 -1.7210
   68CHL1   C17 7462   0.647   7.614   8.709  0.2101  0.1191  0.5128
   68CHL1   H17 7463   0.749   7.573   8.719 -0.3522 -1.3601  0.3702
   68CHL1   C13 7464   0.558   7.526   8.796  0.7930 -0.0344  0.3417
   68CHL1   C18 7465   0.413   7.569   8.781 -0.2488 -0.1176  0.0132
   68CHL1  H18A 7466   0.366   7.540   8.877  0.7607 -0.4132  0.4280
   68CHL1  H18B 7467   0.393   7.677   8.759  1.8094  0.0621 -1.1128
   68CHL1  H18C 7468   0.358   7.514   8.701  0.2533  2.1015 -1.9354
   68CHL1   C12 7469   0.578   7.370   8.789  0.1617 -0.6973  0.6917
   68CHL1  H12A 7470   0.522   7.328   8.703 -0.4517 -0.1008  0.7991
   68CHL1  H12B 7471   0.685   7.346   8.769  0.3536  0.7952 -0.1595
   68CHL1   C11 7472   0.520   7.307   8.912  0.6911  0.0977 -0.0321
   68CHL1  H11A 7473   0.410   7.319   8.896  0.7839  1.1986  0.0766
   68CHL1  H11B 7474   0.548   7.200   8.911  2.2460  0.4972 -1.1621
   68CHL1    C9 7475   0.558   7.372   9.050 -0.0767 -0.1007 -0.7610
   68CHL1    H9 7476   0.667   7.353   9.059 -0.1375  0.3802  1.2974
   68CHL1   C10 7477   0.502   7.305   9.175 -0.3187 -0.1744 -0.5357
   68CHL1   C19 7478   0.349   7.279   9.143 -0.7357  0.2127 -0.6537
   68CHL1  H19A 7479   0.331   7.211   9.057  2.9829 -2.2779  0.3937
   68CHL1  H19B 7480   0.299   7.236   9.234  2.2098 -0.1657  0.8364
   68CHL1  H19C 7481   0.308   7.382   9.133 -0.3831  0.5718  1.2710
   68CHL1    C1 7482   0.576   7.178   9.203  0.4786 -0.8076  0.0192
   68CHL1   H1A 7483   0.573   7.108   9.116 -1.6757  0.8609 -1.3123
   68CHL1   H1B 7484   0.685   7.198   9.210  0.1832  0.7941  0.1824
   68CHL1    C2 7485   0.527   7.095   9.323  0.0740 -0.0821 -0.6025
   68CHL1   H2A 7486   0.592   7.006   9.324  0.6297  0.3270 -0.1424
   68CHL1   H2B 7487   0.419   7.069   9.317 -0.5068  2.0531 -0.0851
   68CHL1   C20 7488   0.608   7.625   8.562  0.8270 -0.4230  0.2422
   68CHL1   H20 7489   0.499   7.647   8.563  1.3017  2.1633  1.1442
   68CHL1   C21 7490   0.633   7.491   8.490 -0.2089  0.1170  0.1904
   68CHL1  H21A 7491   0.567   7.406   8.519 -0.1225 -1.0560 -2.9013
   68CHL1  H21B 7492   0.732   7.457   8.527 -0.6396 -1.6593 -0.2718
   68CHL1  H21C 7493   0.614   7.497   8.381 -0.0489 -0.0265  0.1548
   68CHL1   C22 7494   0.666   7.746   8.479 -0.2718 -0.0139 -0.1352
   68CHL1  H22A 7495   0.637   7.718   8.376 -0.3552 -0.9313  0.1338
   68CHL1  H22B 7496   0.613   7.832   8.524 -1.3085 -1.1903  0.9536
   68CHL1   C23 7497   0.823   7.774   8.489 -0.4129  0.5036 -1.4058
   68CHL1  H23A 7498   0.870   7.791   8.588  1.2475 -0.1163 -2.0635
   68CHL1  H23B 7499   0.873   7.690   8.436  0.6814  0.2465  0.0037
   68CHL1   C24 7500   0.867   7.901   8.406  0.0701  1.2691 -0.0667
   68CHL1  H24A 7501   0.832   7.896   8.301  1.4934 -0.3702 -0.4939
   68CHL1  H24B 7502   0.825   7.996   8.445 -0.3179  0.0451  2.6232
   68CHL1   C25 7503   1.026   7.913   8.391 -0.1344  0.6986 -0.0696
   68CHL1   H25 7504   1.024   8.015   8.345 -0.7464  0.2031 -1.1693
   68CHL1   C26 7505   1.101   7.911   8.524 -0.1537 -0.1052 -0.0266
   68CHL1  H26A 7506   1.069   7.826   8.587  2.5271 -1.5866 -0.6050
   68CHL1  H26B 7507   1.202   7.896   8.480 -0.3809  0.5313 -0.7737
   68CHL1  H26C 7508   1.086   8.011   8.571 -1.3647  0.5768 -1.8181
   68CHL1   C27 7509   1.074   7.812   8.283 -0.2840 -0.5289 -0.0708
   68CHL1  H27A 7510   1.071   7.859   8.182 -0.9673  1.0345  0.6582
   68CHL1  H27B 7511   1.182   7.797   8.300 -0.1010  0.6644 -0.1357
   68CHL1  H27C 7512   1.025   7.713   8.294 -1.6731  0.4391  2.8207
   69CHL1    C3 7513   3.874   4.807   6.082  0.5208 -0.5696  0.5439
   69CHL1    H3 7514   3.964   4.853   6.127 -0.3585 -0.0110  1.7649
   69CHL1    O3 7515   3.913   4.811   5.944  0.1203  0.0856 -0.5456
   69CHL1   H3' 7516   3.997   4.765   5.943 -0.0562 -0.2461 -0.2132
   69CHL1    C4 7517   3.843   4.664   6.129 -0.0812 -0.0913  0.0868
   69CHL1   H4A 7518   3.752   4.627   6.077  1.1604 -0.4207 -1.9223
   69CHL1   H4B 7519   3.920   4.600   6.081 -1.8730 -2.4829  0.3407
   69CHL1    C5 7520   3.814   4.667   6.281 -0.2256 -0.2803 -0.0631
   69CHL1    C6 7521   3.887   4.593   6.361  0.0738  0.3169 -0.1928
   69CHL1    H6 7522   3.973   4.539   6.320  1.9885  2.0672  1.3795
   69CHL1    C7 7523   3.856   4.575   6.507 -0.2009 -0.2879 -0.2523
   69CHL1   H7A 7524   3.851   4.465   6.521  1.0264 -0.0497  2.3345
   69CHL1   H7B 7525   3.942   4.621   6.560 -0.0801 -2.4981  1.5457
   69CHL1    C8 7526   3.727   4.646   6.555 -0.1190 -0.2714 -0.0246
   69CHL1    H8 7527   3.645   4.572   6.539 -2.2732  1.3359  3.2062
   69CHL1   C14 7528   3.746   4.677   6.697  0.0033 -0.0776  0.3245
   69CHL1   H14 7529   3.824   4.754   6.718  0.6327 -0.1130 -1.6865
   69CHL1   C15 7530   3.801   4.563   6.785 -0.1570 -0.0766 -0.2623
   69CHL1  H15A 7531   3.736   4.478   6.755 -1.1806  1.2003 -1.7911
   69CHL1  H15B 7532   3.911   4.555   6.788 -0.1499 -1.8868 -3.3436
   69CHL1   C16 7533   3.746   4.598   6.922 -0.1991  0.4588  0.1924
   69CHL1  H16A 7534   3.688   4.516   6.969 -1.5151  1.8869  1.1071
   69CHL1  H16B 7535   3.828   4.620   6.994 -1.1433 -1.5195  1.9054
   69CHL1   C17 7536   3.661   4.726   6.915  0.3192 -0.1282 -0.2354
   69CHL1   H17 7537   3.727   4.815   6.922  1.3025 -0.8186 -0.5438
   69CHL1   C13 7538   3.618   4.736   6.766 -0.2505  0.4695  0.5074
   69CHL1   C18 7539   3.487   4.649   6.745 -0.5666 -0.4465 -0.6201
   69CHL1  H18A 7540   3.466   4.636   6.637 -3.1222 -2.5763  0.0509
   69CHL1  H18B 7541   3.498   4.546   6.788 -1.5416 -0.4139 -0.2745
   69CHL1  H18C 7542   3.402   4.689   6.805 -1.6660 -1.4619 -1.4690
   69CHL1   C12 7543   3.602   4.876   6.695 -0.4928  0.8264 -0.2797
   69CHL1  H12A 7544   3.522   4.943   6.735 -1.7557 -0.0533 -1.2814
   69CHL1  H12B 7545   3.702   4.922   6.707  0.9705 -2.1977 -0.5400
   69CHL1   C11 7546   3.586   4.862   6.543  0.4321 -0.0314 -0.1920
   69CHL1  H11A 7547   3.492   4.808   6.517 -1.0476  2.1685  0.4123
   69CHL1  H11B 7548   3.571   4.967   6.508 -1.2158  0.3197  1.4217
   69CHL1    C9 7549   3.695   4.778   6.481 -0.2134  0.0955  0.7914
   69CHL1    H9 7550   3.782   4.846   6.498 -0.7700  1.0640 -0.2285
   69CHL1   C10 7551   3.701   4.754   6.330 -0.2007  0.4711 -0.0393
   69CHL1   C19 7552   3.560   4.693   6.292 -0.0808  0.3114 -1.1135
   69CHL1  H19A 7553   3.476   4.762   6.313  0.2207 -0.0857  1.5718
   69CHL1  H19B 7554   3.553   4.671   6.184 -1.5323 -2.4526 -0.4977
   69CHL1  H19C 7555   3.547   4.594   6.340 -0.2998 -0.6281 -3.0871
   69CHL1    C1 7556   3.709   4.902   6.261 -0.1968  0.0943  0.1621
   69CHL1   H1A 7557   3.617   4.960   6.282  0.8554  0.7178  3.3009
   69CHL1   H1B 7558   3.784   4.964   6.314 -0.1764  1.1338 -1.0639
   69CHL1    C2 7559   3.754   4.905   6.108 -0.3709  0.4871  0.3618
   69CHL1   H2A 7560   3.769   5.012   6.079 -1.0011  1.2624  2.8340
   69CHL1   H2B 7561   3.668   4.860   6.055 -0.1626 -0.9201  1.2140
   69CHL1   C20 7562   3.563   4.735   7.035 -0.2754 -0.1243  1.1631
   69CHL1   H20 7563   3.491   4.651   7.030 -2.5132  1.7856  0.5465
   69CHL1   C21 7564   3.475   4.863   7.030  0.6476 -0.5085 -0.4051
   69CHL1  H21A 7565   3.399   4.875   7.110  0.5453 -0.4022 -0.5192
   69CHL1  H21B 7566   3.417   4.851   6.936  2.1901 -0.4064 -1.3695
   69CHL1  H21C 7567   3.547   4.947   7.020  0.0699  0.1464  0.7846
   69CHL1   C22 7568   3.639   4.727   7.166 -0.5330  0.3750 -0.2426
   69CHL1  H22A 7569   3.552   4.728   7.236 -0.4479  1.1147 -0.1475
   69CHL1  H22B 7570   3.687   4.628   7.178 -0.2391  0.6202  0.6134
   69CHL1   C23 7571   3.733   4.839   7.206 -0.2277 -0.0339  0.3886
   69CHL1  H23A 7572   3.810   4.860   7.129 -0.6139  2.7322  0.7250
   69CHL1  H23B 7573   3.685   4.934   7.237 -1.9338 -1.0191  0.8578
   69CHL1   C24 7574   3.818   4.782   7.318  1.0007 -0.5210  0.0324
   69CHL1  H24A 7575   3.744   4.740   7.389 -0.2413  1.9437  0.2452
   69CHL1  H24B 7576   3.884   4.695   7.295  0.1073 -1.4003  0.7360
   69CHL1   C25 7577   3.886   4.886   7.418 -0.3767 -0.7194  0.3900
   69CHL1   H25 7578   3.801   4.943   7.462  0.1705 -0.7282  1.4686
   69CHL1   C26 7579   3.965   4.816   7.536 -0.2098 -0.2339 -0.4230
   69CHL1  H26A 7580   4.048   4.752   7.497 -0.0249 -0.5102  0.4194
   69CHL1  H26B 7581   3.993   4.889   7.615 -2.6561  0.1786  0.0971
   69CHL1  H26C 7582   3.891   4.757   7.594  0.9063 -1.4577 -0.2119
   69CHL1   C27 7583   3.979   4.994   7.354  0.9630 -0.5218  0.0150
   69CHL1  H27A 7584   3.914   5.061   7.293 -0.2897  0.5265  2.4500
   69CHL1  H27B 7585   4.022   5.059   7.433  1.9336  0.3386 -1.1911
   69CHL1  H27C 7586   4.061   4.949   7.293 -0.4187 -0.1882 -2.1482
   70CHL1    C3 7587   4.233   2.737   6.164  0.9814 -0.3061  0.2456
   70CHL1    H3 7588   4.330   2.785   6.142  1.0436 -1.0920 -1.2686
   70CHL1    O3 7589   4.182   2.723   6.030  0.2480  0.5659  0.0463
   70CHL1   H3' 7590   4.109   2.662   6.041  0.2642  0.5271 -0.0537
   70CHL1    C4 7591   4.249   2.593   6.219 -0.2556  0.1037 -0.4917
   70CHL1   H4A 7592   4.152   2.539   6.209  0.4012 -1.0962 -0.4992
   70CHL1   H4B 7593   4.320   2.544   6.149  0.5709 -0.0693  0.4553
   70CHL1    C5 7594   4.297   2.587   6.369 -0.0504 -0.5555  0.6624
   70CHL1    C6 7595   4.414   2.525   6.403 -0.4058  0.3810 -0.1015
   70CHL1    H6 7596   4.474   2.462   6.335 -2.9094 -0.9098 -1.1782
   70CHL1    C7 7597   4.471   2.524   6.540  0.4907 -0.4500 -0.2560
   70CHL1   H7A 7598   4.484   2.422   6.583  0.7691  0.1025  0.9976
   70CHL1   H7B 7599   4.567   2.580   6.543  1.4687 -2.0815 -0.2657
   70CHL1    C8 7600   4.365   2.589   6.641 -0.1964 -0.2283 -0.5918
   70CHL1    H8 7601   4.294   2.504   6.655 -0.5500 -0.1421 -1.8699
   70CHL1   C14 7602   4.440   2.619   6.776  0.3522  0.7168  0.0199
   70CHL1   H14 7603   4.507   2.700   6.740  1.6364 -0.9996 -1.5365
   70CHL1   C15 7604   4.525   2.503   6.833  0.1812  0.4470 -0.6948
   70CHL1  H15A 7605   4.468   2.411   6.809  0.0963  0.0234  1.0090
   70CHL1  H15B 7606   4.627   2.498   6.789  1.3400  2.6709  1.5529
   70CHL1   C16 7607   4.539   2.541   6.985  0.1215 -0.5060  0.6833
   70CHL1  H16A 7608   4.523   2.451   7.048 -0.3656  0.3681  1.8291
   70CHL1  H16B 7609   4.642   2.579   6.998 -0.0914  0.3788 -0.1036
   70CHL1   C17 7610   4.441   2.655   7.013  0.3386 -0.4663  0.3964
   70CHL1   H17 7611   4.494   2.752   7.011 -0.9027  0.2648  1.8394
   70CHL1   C13 7612   4.346   2.661   6.889 -0.5121 -0.3142  0.4383
   70CHL1   C18 7613   4.244   2.549   6.907 -0.1047 -0.0951 -0.1203
   70CHL1  H18A 7614   4.171   2.552   6.823  0.0702 -0.2012 -0.2771
   70CHL1  H18B 7615   4.279   2.443   6.916 -1.0167 -0.2553  1.8573
   70CHL1  H18C 7616   4.183   2.568   6.998  1.5573  2.2791  0.5369
   70CHL1   C12 7617   4.265   2.793   6.847  0.6422 -0.4518  0.3540
   70CHL1  H12A 7618   4.195   2.820   6.929 -0.0721  0.7978 -0.6427
   70CHL1  H12B 7619   4.343   2.871   6.841  2.1522 -1.9519  0.1671
   70CHL1   C11 7620   4.195   2.780   6.706  0.2507  0.2536 -0.7922
   70CHL1  H11A 7621   4.097   2.731   6.725  0.7397 -0.3097  0.3168
   70CHL1  H11B 7622   4.187   2.886   6.674 -2.5249  0.5256  0.6189
   70CHL1    C9 7623   4.283   2.715   6.593  0.7648 -0.7717 -0.5162
   70CHL1    H9 7624   4.362   2.791   6.573  1.0151 -1.0143 -0.4613
   70CHL1   C10 7625   4.215   2.687   6.456 -0.6905  0.5113 -0.6316
   70CHL1   C19 7626   4.091   2.594   6.493  0.0505 -0.1128  0.7686
   70CHL1  H19A 7627   4.025   2.585   6.404  0.0715 -0.6929  0.8137
   70CHL1  H19B 7628   4.113   2.490   6.524 -0.5270 -1.1449 -2.0681
   70CHL1  H19C 7629   4.018   2.634   6.566 -0.0680 -0.7703  1.0106
   70CHL1    C1 7630   4.169   2.823   6.389 -0.1513  0.1334 -0.2319
   70CHL1   H1A 7631   4.077   2.852   6.445  0.2274  0.7069  0.1032
   70CHL1   H1B 7632   4.247   2.900   6.408  1.0711 -1.2446  0.4157
   70CHL1    C2 7633   4.134   2.822   6.240  0.5781 -0.0412  0.8801
   70CHL1   H2A 7634   4.135   2.930   6.214  0.6919  0.3269  2.3638
   70CHL1   H2B 7635   4.035   2.775   6.222  0.4408  0.5064  0.2175
   70CHL1   C20 7636   4.364   2.650   7.152 -0.5890  0.8458  0.0049
   70CHL1   H20 7637   4.299   2.561   7.161 -0.4576  0.7913  0.4255
   70CHL1   C21 7638   4.263   2.760   7.176  0.1711 -0.3477  0.0575
   70CHL1  H21A 7639   4.234   2.771   7.282  1.3485 -0.5964  0.4184
   70CHL1  H21B 7640   4.172   2.734   7.117 -0.7707 -0.7221  1.6646
   70CHL1  H21C 7641   4.307   2.856   7.141 -0.0161  0.4530  1.9721
   70CHL1   C22 7642   4.467   2.642   7.278  0.0729 -0.0436 -0.2961
   70CHL1  H22A 7643   4.403   2.664   7.367  1.8129 -0.4338  1.0863
   70CHL1  H22B 7644   4.506   2.540   7.301  2.0478  0.9948  1.0810
   70CHL1   C23 7645   4.583   2.747   7.282  0.5740  0.1029  0.1628
   70CHL1  H23A 7646   4.633   2.758   7.183  0.0782 -0.5054 -0.1546
   70CHL1  H23B 7647   4.546   2.845   7.317 -1.7110 -1.0418  1.0008
   70CHL1   C24 7648   4.703   2.693   7.373  0.0033 -1.0913  0.0797
   70CHL1  H24A 7649   4.747   2.605   7.321  1.7448 -1.2567  1.7674
   70CHL1  H24B 7650   4.782   2.771   7.367 -1.9034  0.9117  0.5590
   70CHL1   C25 7651   4.658   2.658   7.515 -0.1606 -0.4727 -0.0907
   70CHL1   H25 7652   4.590   2.570   7.510 -0.2714 -0.4387  0.7545
   70CHL1   C26 7653   4.783   2.606   7.592  0.0052 -0.1104 -0.0713
   70CHL1  H26A 7654   4.841   2.693   7.629  1.9845 -1.3955 -0.0360
   70CHL1  H26B 7655   4.747   2.559   7.686  0.4245 -0.3122 -0.0080
   70CHL1  H26C 7656   4.852   2.536   7.539 -0.4498  1.0531 -2.2396
   70CHL1   C27 7657   4.595   2.778   7.585 -0.4114 -0.0894  0.4460
   70CHL1  H27A 7658   4.557   2.758   7.687 -0.2191 -0.8061  0.3783
   70CHL1  H27B 7659   4.667   2.861   7.576 -1.5339  0.7817 -0.7182
   70CHL1  H27C 7660   4.504   2.810   7.529  0.9229  0.7851 -1.2885
   71CHL1    C3 7661   2.163   3.692   6.132  0.2528 -0.2667  0.0839
   71CHL1    H3 7662   2.107   3.781   6.168  0.4880 -1.0994  2.5990
   71CHL1    O3 7663   2.132   3.693   5.990 -0.1305 -0.4290 -0.1040
   71CHL1   H3' 7664   2.045   3.653   5.981 -0.5685  0.5695 -0.3510
   71CHL1    C4 7665   2.308   3.713   6.156 -0.3518  1.1209  0.4839
   71CHL1   H4A 7666   2.372   3.642   6.098 -1.3949 -0.1680  0.8859
   71CHL1   H4B 7667   2.335   3.811   6.109 -1.0241  0.4423 -1.3710
   71CHL1    C5 7668   2.338   3.705   6.305 -0.4651  0.4788  1.2400
   71CHL1    C6 7669   2.398   3.809   6.366 -0.1192 -0.0524 -0.0637
   71CHL1    H6 7670   2.435   3.893   6.306  0.4611  0.4568  0.9958
   71CHL1    C7 7671   2.426   3.813   6.513 -0.3753 -0.0576 -0.4619
   71CHL1   H7A 7672   2.533   3.842   6.524 -0.9165  1.5260  0.8568
   71CHL1   H7B 7673   2.351   3.877   6.563  0.0411 -0.9447  1.3693
   71CHL1    C8 7674   2.405   3.668   6.585  0.0461 -0.0856  0.0095
   71CHL1    H8 7675   2.495   3.606   6.568 -0.2468 -0.1865 -1.1794
   71CHL1   C14 7676   2.379   3.683   6.737 -0.7725 -0.6284 -0.6105
   71CHL1   H14 7677   2.274   3.719   6.742 -0.4940 -0.1355  3.5590
   71CHL1   C15 7678   2.461   3.790   6.809  0.3010  0.0995 -0.2626
   71CHL1  H15A 7679   2.569   3.780   6.785 -0.2596 -3.9029 -1.5409
   71CHL1  H15B 7680   2.430   3.895   6.790  1.8862  0.3616 -1.4566
   71CHL1   C16 7681   2.451   3.748   6.957 -0.0357 -0.5502 -0.2765
   71CHL1  H16A 7682   2.556   3.716   6.973  0.5555 -0.0485 -2.8694
   71CHL1  H16B 7683   2.404   3.831   7.013 -0.9823 -1.1861 -0.1106
   71CHL1   C17 7684   2.362   3.625   6.955  0.2867  1.0148  0.3081
   71CHL1   H17 7685   2.255   3.652   6.950  0.3245  1.3336  1.2305
   71CHL1   C13 7686   2.376   3.552   6.815  0.0688 -0.6231  0.0548
   71CHL1   C18 7687   2.509   3.478   6.803 -0.0291 -0.4826 -0.2513
   71CHL1  H18A 7688   2.595   3.545   6.822  0.4591 -1.2236  0.1764
   71CHL1  H18B 7689   2.509   3.393   6.874  0.8630  0.6258  1.0883
   71CHL1  H18C 7690   2.520   3.437   6.700 -1.9653 -1.6202 -0.0401
   71CHL1   C12 7691   2.258   3.468   6.764 -0.3187 -0.1409 -0.1405
   71CHL1  H12A 7692   2.272   3.364   6.800 -0.3287 -0.3551 -0.7683
   71CHL1  H12B 7693   2.163   3.514   6.800  1.2657  3.3248 -0.1830
   71CHL1   C11 7694   2.265   3.453   6.612 -0.3860  0.0094 -0.1660
   71CHL1  H11A 7695   2.347   3.380   6.594 -0.0280  0.3062  0.2303
   71CHL1  H11B 7696   2.165   3.413   6.585 -0.1137 -1.2181  0.5870
   71CHL1    C9 7697   2.287   3.587   6.535 -0.6781 -0.3330  0.0090
   71CHL1    H9 7698   2.201   3.652   6.559  0.4817  0.5895  1.7744
   71CHL1   C10 7699   2.282   3.581   6.381  0.7231 -0.1922 -0.3901
   71CHL1   C19 7700   2.367   3.465   6.332 -0.0751  0.2866  0.2451
   71CHL1  H19A 7701   2.327   3.371   6.375  1.5318 -1.4330 -1.9445
   71CHL1  H19B 7702   2.356   3.443   6.224 -2.3514 -1.0254  0.7106
   71CHL1  H19C 7703   2.475   3.476   6.357  0.3084 -2.9518  0.1258
   71CHL1    C1 7704   2.127   3.564   6.345 -0.4592 -0.4147 -0.4186
   71CHL1   H1A 7705   2.092   3.465   6.381  0.6190 -0.1280  1.5154
   71CHL1   H1B 7706   2.071   3.644   6.399  0.7464 -0.7258  1.3485
   71CHL1    C2 7707   2.105   3.570   6.194 -0.2282  0.0692  0.5615
   71CHL1   H2A 7708   1.996   3.574   6.175 -0.1875  0.8432  0.4662
   71CHL1   H2B 7709   2.143   3.474   6.152 -0.6394  0.5224 -0.8795
   71CHL1   C20 7710   2.355   3.531   7.075  0.4866  0.0454  0.2668
   71CHL1   H20 7711   2.307   3.439   7.036 -2.1773  1.1492  0.8743
   71CHL1   C21 7712   2.257   3.607   7.172  0.8374  0.4367  0.0768
   71CHL1  H21A 7713   2.152   3.616   7.137  0.3267 -1.0846  1.1665
   71CHL1  H21B 7714   2.298   3.710   7.181  3.1004 -0.2224 -2.1117
   71CHL1  H21C 7715   2.249   3.559   7.272 -0.9936  1.6085  0.5219
   71CHL1   C22 7716   2.495   3.509   7.143  0.0203 -0.4277  0.0084
   71CHL1  H22A 7717   2.571   3.462   7.077 -0.6800 -0.7004 -0.6210
   71CHL1  H22B 7718   2.526   3.613   7.164  2.3682 -0.9485 -0.7508
   71CHL1   C23 7719   2.474   3.426   7.272  1.1670 -0.5745  0.5501
   71CHL1  H23A 7720   2.424   3.484   7.352 -1.7906 -0.2110 -1.4907
   71CHL1  H23B 7721   2.411   3.339   7.247 -0.9713  0.8867  0.6654
   71CHL1   C24 7722   2.615   3.378   7.324 -0.7704  0.0396 -0.1310
   71CHL1  H24A 7723   2.659   3.300   7.258 -0.0744  0.1057  0.2531
   71CHL1  H24B 7724   2.680   3.466   7.306  0.9985 -1.3057 -0.5250
   71CHL1   C25 7725   2.641   3.305   7.460 -0.9516  0.2955 -0.3826
   71CHL1   H25 7726   2.744   3.264   7.456 -0.6777  0.7831  1.3006
   71CHL1   C26 7727   2.625   3.395   7.588 -0.4081  0.2021 -0.3480
   71CHL1  H26A 7728   2.725   3.435   7.615  0.6564 -1.6599 -1.4067
   71CHL1  H26B 7729   2.551   3.472   7.559 -0.3529  0.3202 -0.1780
   71CHL1  H26C 7730   2.583   3.327   7.665  0.6451 -0.3352 -0.2368
   71CHL1   C27 7731   2.549   3.184   7.472 -0.8329  0.2224 -0.2934
   71CHL1  H27A 7732   2.589   3.116   7.551 -1.9462 -1.6092 -1.2803
   71CHL1  H27B 7733   2.445   3.203   7.508 -1.0051 -0.5276 -0.3960
   71CHL1  H27C 7734   2.541   3.124   7.379  2.6319 -0.1960 -0.3719
   72CHL1    C3 7735   4.689   3.016   5.962  0.2108  0.2854  0.5088
   72CHL1    H3 7736   4.683   3.127   5.959 -0.2718  0.2565  0.3712
   72CHL1    O3 7737   4.676   2.972   5.826  0.7879 -0.1567 -0.0925
   72CHL1   H3' 7738   4.655   2.879   5.838 -0.8673  0.2220  0.1372
   72CHL1    C4 7739   4.808   2.965   6.040  0.0264  0.1905 -1.0445
   72CHL1   H4A 7740   4.821   2.855   6.043 -2.0059 -0.0197  1.7903
   72CHL1   H4B 7741   4.898   3.001   5.986  0.0645 -0.9908 -1.7861
   72CHL1    C5 7742   4.812   3.014   6.182 -0.1215  1.0708  1.1861
   72CHL1    C6 7743   4.909   3.088   6.231  0.4094  0.3755  0.5148
   72CHL1    H6 7744   4.985   3.113   6.156  0.5687 -1.1460  0.1427
   72CHL1    C7 7745   4.926   3.136   6.367 -0.1718 -0.1373 -0.3494
   72CHL1   H7A 7746   5.029   3.129   6.409 -0.9904  0.0379  1.7317
   72CHL1   H7B 7747   4.896   3.243   6.365  0.8818  0.1629 -3.2448
   72CHL1    C8 7748   4.832   3.049   6.462 -0.7460 -0.7217  0.8575
   72CHL1    H8 7749   4.877   2.948   6.475  3.9238  0.8371 -1.9980
   72CHL1   C14 7750   4.821   3.120   6.591 -0.3774 -0.7026  0.2005
   72CHL1   H14 7751   4.764   3.214   6.573  2.1272  0.6459 -0.8538
   72CHL1   C15 7752   4.954   3.167   6.660 -0.1696 -1.1467 -0.0156
   72CHL1  H15A 7753   5.033   3.098   6.625  2.8648  2.0871  0.2085
   72CHL1  H15B 7754   4.972   3.273   6.631  0.9290 -1.6273 -1.1153
   72CHL1   C16 7755   4.923   3.166   6.809 -0.4618  0.6775 -0.2953
   72CHL1  H16A 7756   4.980   3.084   6.858 -1.4701 -0.8205 -1.5830
   72CHL1  H16B 7757   4.951   3.259   6.863  1.8795 -1.0444  1.5538
   72CHL1   C17 7758   4.770   3.135   6.816  0.1072 -0.4078 -0.8396
   72CHL1   H17 7759   4.728   3.238   6.811 -0.2076 -0.4595  0.5385
   72CHL1   C13 7760   4.737   3.046   6.694  0.0518 -0.5729  0.5919
   72CHL1   C18 7761   4.788   2.900   6.712 -0.7273  0.2099 -0.3055
   72CHL1  H18A 7762   4.898   2.886   6.707 -0.9268 -1.7051  0.4260
   72CHL1  H18B 7763   4.769   2.863   6.815 -0.9825  1.1396 -0.0164
   72CHL1  H18C 7764   4.742   2.831   6.639  2.0856 -1.6954 -0.3493
   72CHL1   C12 7765   4.590   3.036   6.645  0.7564 -0.2990 -0.4819
   72CHL1  H12A 7766   4.528   2.986   6.724  1.2589  0.4877  0.4229
   72CHL1  H12B 7767   4.549   3.139   6.645  1.3703 -0.0573 -0.4727
   72CHL1   C11 7768   4.584   2.979   6.502  0.0459 -0.8469  0.1463
   72CHL1  H11A 7769   4.591   2.868   6.507 -0.4192 -0.8798  0.0983
   72CHL1  H11B 7770   4.482   2.984   6.459 -0.2229  0.3623  0.8746
   72CHL1    C9 7771   4.695   3.035   6.402 -0.5945  0.2238 -0.5087
   72CHL1    H9 7772   4.663   3.137   6.374  2.9768  0.9455 -2.2551
   72CHL1   C10 7773   4.688   2.965   6.262  0.2336 -0.1925 -1.1019
   72CHL1   C19 7774   4.700   2.818   6.280  0.5442 -0.5113  0.3410
   72CHL1  H19A 7775   4.601   2.779   6.313  1.3537 -0.7431  2.5398
   72CHL1  H19B 7776   4.729   2.765   6.187 -0.0052 -0.5802  0.2070
   72CHL1  H19C 7777   4.776   2.800   6.359  0.1825 -1.4963  0.4782
   72CHL1    C1 7778   4.567   3.009   6.186  0.1153 -0.4809 -0.5306
   72CHL1   H1A 7779   4.479   2.964   6.236  0.0745  0.9510  0.7036
   72CHL1   H1B 7780   4.562   3.120   6.195 -1.0454 -0.5533 -0.1816
   72CHL1    C2 7781   4.566   2.975   6.039  0.0025  1.0303 -0.5697
   72CHL1   H2A 7782   4.475   3.013   5.988 -1.4354 -0.5633  0.7508
   72CHL1   H2B 7783   4.555   2.865   6.039  1.2698  0.8976  0.9092
   72CHL1   C20 7784   4.736   3.083   6.958 -0.0096  0.8758 -0.2126
   72CHL1   H20 7785   4.767   2.977   6.968 -1.2634  0.4316 -0.9383
   72CHL1   C21 7786   4.587   3.100   6.986  0.1554  0.4557  0.5265
   72CHL1  H21A 7787   4.546   3.032   7.065  0.1188 -2.6660 -2.0860
   72CHL1  H21B 7788   4.545   3.081   6.885  0.7499  1.2634  0.1233
   72CHL1  H21C 7789   4.574   3.208   7.009  1.3007  0.2550  2.1651
   72CHL1   C22 7790   4.826   3.138   7.074  0.4965  0.1610  0.4655
   72CHL1  H22A 7791   4.932   3.111   7.054 -0.4561 -1.5899 -2.6085
   72CHL1  H22B 7792   4.823   3.248   7.056 -0.2882  0.0076 -0.3712
   72CHL1   C23 7793   4.782   3.108   7.219 -0.1001  0.1873  0.3300
   72CHL1  H23A 7794   4.701   3.176   7.252  0.2035  0.0964  1.2625
   72CHL1  H23B 7795   4.736   3.007   7.224  1.1426 -0.4360 -0.5335
   72CHL1   C24 7796   4.902   3.113   7.318  1.2417 -0.4537  0.6123
   72CHL1  H24A 7797   4.966   3.027   7.291  1.5062 -0.3078  0.7698
   72CHL1  H24B 7798   4.954   3.211   7.319 -0.0918  0.2665  1.5305
   72CHL1   C25 7799   4.865   3.083   7.467  0.0710  0.5983 -0.1076
   72CHL1   H25 7800   4.801   2.992   7.463  2.1359 -0.8324 -2.8457
   72CHL1   C26 7801   4.994   3.067   7.547 -0.5460 -0.0362  0.1591
   72CHL1  H26A 7802   5.075   3.142   7.538  2.3464 -2.8489  1.6396
   72CHL1  H26B 7803   4.977   3.047   7.655 -0.3521  0.4762  0.2829
   72CHL1  H26C 7804   5.033   2.966   7.521  3.0529  1.8800 -2.2925
   72CHL1   C27 7805   4.782   3.194   7.528  0.1083 -0.0751 -0.1032
   72CHL1  H27A 7806   4.787   3.202   7.638  1.2397  0.9890 -0.2338
   72CHL1  H27B 7807   4.800   3.290   7.477 -1.2061  0.9185  1.2514
   72CHL1  H27C 7808   4.676   3.171   7.501  0.2887 -0.1077 -0.7963
   73CHL1    C3 7809   2.592   4.741   6.145  0.2711  0.0354  0.8299
   73CHL1    H3 7810   2.532   4.648   6.157 -1.3968  1.4038  3.4926
   73CHL1    O3 7811   2.598   4.787   6.015 -0.3671 -0.1788 -0.3344
   73CHL1   H3' 7812   2.667   4.854   6.014  1.1730 -1.7250 -2.5547
   73CHL1    C4 7813   2.526   4.848   6.219  0.2075 -0.3009  0.0672
   73CHL1   H4A 7814   2.587   4.939   6.199 -0.5643  0.0766 -0.5778
   73CHL1   H4B 7815   2.426   4.871   6.178  0.5412 -1.5360 -1.5220
   73CHL1    C5 7816   2.526   4.823   6.371  0.0879  0.0713  0.1932
   73CHL1    C6 7817   2.411   4.825   6.437  0.4304 -0.1749  0.0200
   73CHL1    H6 7818   2.320   4.838   6.376  1.8470 -1.0104 -2.3287
   73CHL1    C7 7819   2.393   4.802   6.585 -0.4501  0.5137  0.2557
   73CHL1   H7A 7820   2.325   4.878   6.629 -1.6012 -0.8284  0.8351
   73CHL1   H7B 7821   2.352   4.699   6.590  0.8392 -0.0368 -0.2076
   73CHL1    C8 7822   2.530   4.808   6.665  0.5966  1.1373  0.1144
   73CHL1    H8 7823   2.559   4.915   6.680  0.8333  1.4045 -2.0176
   73CHL1   C14 7824   2.504   4.739   6.796  0.3514  0.6089  0.2198
   73CHL1   H14 7825   2.500   4.633   6.763  0.4277  0.5805  0.3003
   73CHL1   C15 7826   2.372   4.760   6.877 -0.2596  0.0995 -0.2838
   73CHL1  H15A 7827   2.358   4.869   6.888 -0.0652  0.2734 -1.6828
   73CHL1  H15B 7828   2.287   4.705   6.831  0.8561 -1.8845 -0.0426
   73CHL1   C16 7829   2.406   4.698   7.015 -0.6475 -0.7825 -0.5187
   73CHL1  H16A 7830   2.397   4.783   7.086 -0.0067  0.8950 -2.3987
   73CHL1  H16B 7831   2.337   4.620   7.054  0.3712 -1.2430  0.4000
   73CHL1   C17 7832   2.553   4.661   7.002  0.1478  0.2328  0.2618
   73CHL1   H17 7833   2.569   4.557   6.965  0.7096  0.3321  0.2256
   73CHL1   C13 7834   2.619   4.744   6.889 -0.2757  0.4081  0.1051
   73CHL1   C18 7835   2.658   4.897   6.915 -0.4564  0.1972  0.1073
   73CHL1  H18A 7836   2.569   4.954   6.949  0.6166  0.8075  1.9648
   73CHL1  H18B 7837   2.726   4.906   7.003  0.0648  0.4792 -0.3259
   73CHL1  H18C 7838   2.694   4.964   6.834 -2.8109  0.8794 -0.4167
   73CHL1   C12 7839   2.747   4.681   6.823 -0.3177 -0.5170 -0.5359
   73CHL1  H12A 7840   2.840   4.681   6.883 -2.0137  0.3802  2.1986
   73CHL1  H12B 7841   2.713   4.575   6.814  0.4448 -0.8670  0.5878
   73CHL1   C11 7842   2.775   4.727   6.674 -0.6806 -0.0654  0.1100
   73CHL1  H11A 7843   2.819   4.828   6.688  2.0165 -1.2490  0.5013
   73CHL1  H11B 7844   2.856   4.667   6.627 -1.1733 -0.2490 -0.5084
   73CHL1    C9 7845   2.641   4.740   6.585  0.6150  0.4318 -0.3094
   73CHL1    H9 7846   2.608   4.635   6.571  1.0808 -0.1318  2.4259
   73CHL1   C10 7847   2.658   4.800   6.439 -1.2599  0.3708 -0.5499
   73CHL1   C19 7848   2.751   4.926   6.439 -0.0527 -0.5629 -0.5190
   73CHL1  H19A 7849   2.753   4.973   6.338 -0.1803  1.4000  0.3662
   73CHL1  H19B 7850   2.715   5.001   6.512 -2.6529 -1.9920 -0.2740
   73CHL1  H19C 7851   2.855   4.892   6.456  0.1494 -0.0857 -0.7795
   73CHL1    C1 7852   2.731   4.686   6.356  0.0376 -0.2239  0.2493
   73CHL1   H1A 7853   2.827   4.660   6.406 -1.4001 -2.1936  2.0508
   73CHL1   H1B 7854   2.680   4.589   6.370 -1.2320  0.4442  0.3297
   73CHL1    C2 7855   2.738   4.718   6.204 -0.5420  0.0949  0.5400
   73CHL1   H2A 7856   2.775   4.622   6.162  1.7522  0.9388  0.5800
   73CHL1   H2B 7857   2.806   4.803   6.186 -3.2092  2.4000  0.9972
   73CHL1   C20 7858   2.617   4.676   7.139 -0.2691 -0.0845  0.0246
   73CHL1   H20 7859   2.611   4.786   7.154  0.8681 -0.0468  0.2571
   73CHL1   C21 7860   2.766   4.639   7.141  0.7645  0.6463  0.9452
   73CHL1  H21A 7861   2.825   4.706   7.075  0.0848  0.3547  0.0418
   73CHL1  H21B 7862   2.785   4.535   7.107  0.9788  0.3252  2.0249
   73CHL1  H21C 7863   2.809   4.636   7.244 -2.6393 -0.1243  2.4047
   73CHL1   C22 7864   2.538   4.601   7.248  0.4314 -0.0618  0.1930
   73CHL1  H22A 7865   2.576   4.610   7.352 -2.7812 -0.3239  1.4618
   73CHL1  H22B 7866   2.436   4.645   7.251  0.5448  0.3425 -1.3764
   73CHL1   C23 7867   2.509   4.451   7.211  0.6617 -0.4616  0.3894
   73CHL1  H23A 7868   2.437   4.466   7.128  0.7851 -0.0380  0.3585
   73CHL1  H23B 7869   2.605   4.409   7.176  1.1585 -0.4495  1.6961
   73CHL1   C24 7870   2.458   4.370   7.329  0.0597 -0.0035  0.1453
   73CHL1  H24A 7871   2.415   4.273   7.298 -0.5934  0.6407 -1.0119
   73CHL1  H24B 7872   2.545   4.361   7.397  2.3509  3.1711 -2.1894
   73CHL1   C25 7873   2.337   4.435   7.398 -0.1461  0.2379  0.4934
   73CHL1   H25 7874   2.361   4.543   7.408 -0.2408  0.3543 -0.4644
   73CHL1   C26 7875   2.200   4.417   7.319  0.1623  0.5295  0.1340
   73CHL1  H26A 7876   2.205   4.438   7.211  1.5869 -2.6501 -0.4795
   73CHL1  H26B 7877   2.159   4.314   7.325 -1.9615  1.4262  1.5508
   73CHL1  H26C 7878   2.126   4.485   7.367 -1.5438  1.0055 -3.0404
   73CHL1   C27 7879   2.326   4.378   7.544 -0.2821  0.0099  0.0938
   73CHL1  H27A 7880   2.423   4.388   7.597  0.0435  0.8770 -0.6466
   73CHL1  H27B 7881   2.239   4.409   7.605  0.8303 -0.3137  1.8821
   73CHL1  H27C 7882   2.313   4.267   7.543  1.8240 -0.2614 -0.9063
   74CHL1    C3 7883   1.525   4.372   6.216  0.0829  0.1262 -0.3921
   74CHL1    H3 7884   1.511   4.477   6.248 -0.6881  0.7333 -2.6400
   74CHL1    O3 7885   1.574   4.387   6.087  0.5394  0.0219 -0.0998
   74CHL1   H3' 7886   1.630   4.311   6.071  0.2780 -0.9916  3.3108
   74CHL1    C4 7887   1.649   4.306   6.288  0.3451 -0.3185 -0.2513
   74CHL1   H4A 7888   1.658   4.206   6.240  1.2078 -0.4998  0.2755
   74CHL1   H4B 7889   1.748   4.355   6.281  0.0281  0.4327  0.4066
   74CHL1    C5 7890   1.610   4.286   6.433 -0.4109 -0.1463  0.1874
   74CHL1    C6 7891   1.685   4.341   6.526 -0.5773  0.4007 -0.0064
   74CHL1    H6 7892   1.777   4.394   6.497 -1.7013  2.0071 -0.7089
   74CHL1    C7 7893   1.670   4.309   6.672 -0.1362 -0.2590 -0.3396
   74CHL1   H7A 7894   1.769   4.278   6.713  1.0092  1.5304 -1.6678
   74CHL1   H7B 7895   1.643   4.399   6.732  1.1206  1.2188 -1.9342
   74CHL1    C8 7896   1.559   4.204   6.693  0.1227  0.5639  0.2039
   74CHL1    H8 7897   1.619   4.116   6.663 -0.5238 -0.1495  0.9540
   74CHL1   C14 7898   1.524   4.213   6.839  0.0579 -0.5173 -0.3899
   74CHL1   H14 7899   1.481   4.315   6.854  2.6292  0.6628 -0.7671
   74CHL1   C15 7900   1.639   4.195   6.940 -0.7839 -0.1744  0.1376
   74CHL1  H15A 7901   1.706   4.112   6.910  1.8914  2.3076 -1.0103
   74CHL1  H15B 7902   1.697   4.290   6.946 -0.4557 -0.3914  0.3776
   74CHL1   C16 7903   1.576   4.159   7.075  0.0479  0.2308  0.1249
   74CHL1  H16A 7904   1.624   4.065   7.110  0.1838 -0.1074 -0.9674
   74CHL1  H16B 7905   1.592   4.236   7.154  1.5031 -0.1086  0.1908
   74CHL1   C17 7906   1.419   4.131   7.043 -0.1219  0.1409 -0.1604
   74CHL1   H17 7907   1.365   4.226   7.058  1.6822  0.8498  2.2653
   74CHL1   C13 7908   1.420   4.113   6.886 -0.2747 -0.5975 -0.0110
   74CHL1   C18 7909   1.448   3.961   6.868  0.5791  0.4668  0.2360
   74CHL1  H18A 7910   1.532   3.930   6.935  1.7874  0.2460 -1.3317
   74CHL1  H18B 7911   1.362   3.898   6.899  1.0822  0.3367  1.4147
   74CHL1  H18C 7912   1.486   3.935   6.767 -0.1918  0.4948 -0.0604
   74CHL1   C12 7913   1.296   4.145   6.804 -0.1975  0.2178  0.2902
   74CHL1  H12A 7914   1.209   4.088   6.842 -1.0543  0.8831 -0.6344
   74CHL1  H12B 7915   1.271   4.252   6.825  0.9093  0.3232  1.1210
   74CHL1   C11 7916   1.325   4.132   6.652  0.6949  0.4855  0.3078
   74CHL1  H11A 7917   1.331   4.028   6.614  2.2483 -0.3163  2.6316
   74CHL1  H11B 7918   1.235   4.152   6.590  0.8386 -1.5051 -0.5949
   74CHL1    C9 7919   1.441   4.217   6.604  0.2520 -0.1048 -0.1664
   74CHL1    H9 7920   1.408   4.323   6.617 -2.1352 -0.8704  0.3367
   74CHL1   C10 7921   1.478   4.205   6.455  0.2925  0.1491  0.0949
   74CHL1   C19 7922   1.506   4.057   6.419  0.2207 -0.1007 -0.7031
   74CHL1  H19A 7923   1.548   4.051   6.316 -0.9533  1.7082 -1.3157
   74CHL1  H19B 7924   1.579   4.005   6.484 -0.8174 -0.5386  0.1292
   74CHL1  H19C 7925   1.417   3.991   6.425  0.5094 -0.4684 -0.4375
   74CHL1    C1 7926   1.361   4.261   6.376  0.0802 -0.2295 -0.8650
   74CHL1   H1A 7927   1.274   4.193   6.373  0.6568 -1.1159  1.3186
   74CHL1   H1B 7928   1.342   4.366   6.408  0.4527  0.4998 -2.9497
   74CHL1    C2 7929   1.407   4.276   6.228  0.0947 -0.4950  0.9911
   74CHL1   H2A 7930   1.323   4.297   6.158  0.1975  1.3966  1.4093
   74CHL1   H2B 7931   1.446   4.178   6.193 -0.6783 -1.2102  2.1114
   74CHL1   C20 7932   1.345   4.033   7.129 -0.2501 -0.3365  0.0759
   74CHL1   H20 7933   1.355   3.926   7.103 -1.2546 -0.5993  0.7715
   74CHL1   C21 7934   1.193   4.066   7.131 -0.4356  0.5297 -0.0182
   74CHL1  H21A 7935   1.174   4.174   7.147 -0.0567  0.6603 -0.4468
   74CHL1  H21B 7936   1.132   4.011   7.206  1.4909 -1.7896 -0.1183
   74CHL1  H21C 7937   1.147   4.049   7.031 -1.0726  2.3548 -0.0531
   74CHL1   C22 7938   1.401   4.037   7.269 -0.3535  0.4894  0.5874
   74CHL1  H22A 7939   1.511   4.018   7.271  0.1923  2.9997 -1.5656
   74CHL1  H22B 7940   1.392   4.145   7.294 -0.8159  1.3299 -2.9629
   74CHL1   C23 7941   1.342   3.944   7.377  0.2403  0.0587 -0.3752
   74CHL1  H23A 7942   1.233   3.935   7.393 -0.1243  2.4925 -1.2522
   74CHL1  H23B 7943   1.377   3.847   7.337  1.5638  1.0094 -1.5927
   74CHL1   C24 7944   1.414   3.975   7.511 -1.1279 -0.6936 -0.2152
   74CHL1  H24A 7945   1.523   3.965   7.496 -1.2570 -0.6417 -1.1947
   74CHL1  H24B 7946   1.385   4.074   7.554 -1.4127 -0.7544 -0.2653
   74CHL1   C25 7947   1.365   3.878   7.627  0.0390 -0.0729  0.0528
   74CHL1   H25 7948   1.255   3.893   7.632  0.0791  0.9625 -1.8635
   74CHL1   C26 7949   1.398   3.732   7.597 -0.3176 -0.0558 -0.1028
   74CHL1  H26A 7950   1.347   3.671   7.675 -0.3460 -0.4000 -0.3876
   74CHL1  H26B 7951   1.382   3.694   7.494  0.8176  0.0712 -0.3375
   74CHL1  H26C 7952   1.506   3.722   7.621 -0.4492 -0.5743  0.3063
   74CHL1   C27 7953   1.416   3.930   7.760 -0.4986 -0.1376  0.1652
   74CHL1  H27A 7954   1.386   3.879   7.854 -2.7778 -1.1195 -1.0613
   74CHL1  H27B 7955   1.526   3.938   7.775 -0.7726 -0.3097  2.4397
   74CHL1  H27C 7956   1.377   4.034   7.772 -0.7237 -0.1397 -0.5315
   75CHL1    C3 7957   4.972   5.373   6.187 -0.2998 -0.5338  0.4344
   75CHL1    H3 7958   4.974   5.477   6.149 -0.4238 -0.6171  0.1934
   75CHL1    O3 7959   5.015   5.284   6.084 -0.8562 -0.2831  0.2698
   75CHL1   H3' 7960   5.014   5.199   6.127 -2.3418  0.1858  1.2079
   75CHL1    C4 7961   5.065   5.347   6.308  0.3628  0.4177 -0.0790
   75CHL1   H4A 7962   5.085   5.240   6.330 -0.7170  0.6318  2.0126
   75CHL1   H4B 7963   5.168   5.379   6.280  0.2362  2.2395  1.5091
   75CHL1    C5 7964   5.010   5.419   6.433 -0.3185  0.6561 -0.4968
   75CHL1    C6 7965   5.081   5.513   6.498 -0.0791  0.2915 -0.5349
   75CHL1    H6 7966   5.188   5.521   6.477 -0.1225  1.3572 -0.3740
   75CHL1    C7 7967   5.039   5.577   6.624  0.1825 -0.3900  0.7413
   75CHL1   H7A 7968   5.119   5.570   6.700 -0.3287  1.1818  1.4446
   75CHL1   H7B 7969   5.039   5.687   6.605  0.9600 -0.1086  2.3316
   75CHL1    C8 7970   4.908   5.516   6.680  0.1512  0.4243  0.4154
   75CHL1    H8 7971   4.935   5.424   6.736  0.1526  0.1035 -0.1141
   75CHL1   C14 7972   4.849   5.606   6.785  0.0301  0.0882  0.5591
   75CHL1   H14 7973   4.823   5.704   6.740  2.3164  1.5973  2.4315
   75CHL1   C15 7974   4.939   5.648   6.905  0.1208 -0.2658 -1.1560
   75CHL1  H15A 7975   5.000   5.558   6.928 -1.0352 -0.7892 -0.0991
   75CHL1  H15B 7976   5.000   5.735   6.871  0.7348 -0.4567 -0.5499
   75CHL1   C16 7977   4.842   5.688   7.020  0.7653  0.0413 -0.0539
   75CHL1  H16A 7978   4.863   5.620   7.104 -0.1332  0.0912  0.2150
   75CHL1  H16B 7979   4.861   5.794   7.049 -0.1641  0.5300 -1.1878
   75CHL1   C17 7980   4.703   5.664   6.959 -0.4312 -0.9662  0.1131
   75CHL1   H17 7981   4.680   5.762   6.912  0.4476 -1.2249 -0.8872
   75CHL1   C13 7982   4.720   5.561   6.849 -0.3669 -0.2352  0.0003
   75CHL1   C18 7983   4.740   5.425   6.921  0.1703 -0.9822  0.1503
   75CHL1  H18A 7984   4.806   5.424   7.010  1.2664 -0.7648 -0.6522
   75CHL1  H18B 7985   4.643   5.385   6.957  0.3395 -0.5574  1.0875
   75CHL1  H18C 7986   4.788   5.349   6.856  2.0355  0.9992 -0.8377
   75CHL1   C12 7987   4.620   5.561   6.737 -0.8312  0.3336 -0.4341
   75CHL1  H12A 7988   4.524   5.513   6.768 -0.3633 -0.7466 -0.6434
   75CHL1  H12B 7989   4.609   5.668   6.712  2.4283  1.0266  0.8711
   75CHL1   C11 7990   4.669   5.471   6.622  0.2346  0.0355  0.4356
   75CHL1  H11A 7991   4.666   5.372   6.673 -0.9595  0.2792  0.8569
   75CHL1  H11B 7992   4.595   5.473   6.539 -0.1769 -1.2178  0.7545
   75CHL1    C9 7993   4.810   5.498   6.570 -0.8981  0.8185  0.1514
   75CHL1    H9 7994   4.807   5.592   6.511 -1.6219 -0.7846 -2.4560
   75CHL1   C10 7995   4.856   5.393   6.468 -0.2144 -0.0088  0.7960
   75CHL1   C19 7996   4.854   5.253   6.533  0.0136  0.1344  0.0262
   75CHL1  H19A 7997   4.921   5.244   6.622  0.6324  0.3231 -0.4164
   75CHL1  H19B 7998   4.748   5.230   6.558 -0.2699  0.3639 -0.9812
   75CHL1  H19C 7999   4.899   5.180   6.462 -3.5830 -2.7861  0.5931
   75CHL1    C1 8000   4.768   5.403   6.346  1.0361 -0.5392  0.0099
   75CHL1   H1A 8001   4.668   5.360   6.369  0.3975  1.3601  0.8420
   75CHL1   H1B 8002   4.752   5.509   6.316  2.0384 -0.5116 -0.4604
   75CHL1    C2 8003   4.828   5.330   6.225 -0.8419 -0.2057 -0.0905
   75CHL1   H2A 8004   4.764   5.334   6.134 -0.9793  1.6795  0.0647
   75CHL1   H2B 8005   4.838   5.225   6.258 -0.0505 -0.4598 -1.1010
   75CHL1   C20 8006   4.599   5.651   7.079 -0.1137 -0.3371 -0.7020
   75CHL1   H20 8007   4.584   5.547   7.113 -3.0841  0.2854  0.0007
   75CHL1   C21 8008   4.463   5.680   7.024 -0.0006 -0.0855  0.8695
   75CHL1  H21A 8009   4.380   5.648   7.092 -1.2491 -0.8112 -0.9594
   75CHL1  H21B 8010   4.445   5.622   6.931 -0.6437  2.0676 -0.3965
   75CHL1  H21C 8011   4.467   5.789   7.001  0.8941 -1.1363 -4.4799
   75CHL1   C22 8012   4.618   5.756   7.194 -0.5526 -0.1812  0.3782
   75CHL1  H22A 8013   4.725   5.758   7.226 -0.9669 -0.8449  1.8441
   75CHL1  H22B 8014   4.590   5.862   7.175  0.6269  0.1976  0.7090
   75CHL1   C23 8015   4.522   5.729   7.307  0.4344 -0.5109 -1.2016
   75CHL1  H23A 8016   4.422   5.778   7.300  0.9544  0.5857 -1.0395
   75CHL1  H23B 8017   4.506   5.619   7.309 -1.3407 -0.2566 -0.2528
   75CHL1   C24 8018   4.588   5.761   7.443  0.1395 -0.2270  0.2947
   75CHL1  H24A 8019   4.686   5.709   7.452 -0.9495 -2.5897 -1.1962
   75CHL1  H24B 8020   4.613   5.869   7.452 -0.1445 -0.1200 -0.2300
   75CHL1   C25 8021   4.505   5.717   7.562 -0.3446  0.1082 -0.1961
   75CHL1   H25 8022   4.449   5.624   7.535  0.7755 -0.6568  0.0919
   75CHL1   C26 8023   4.577   5.692   7.697  0.1121 -0.7476  0.4346
   75CHL1  H26A 8024   4.499   5.660   7.769 -2.6943  0.1365 -2.1443
   75CHL1  H26B 8025   4.647   5.606   7.687  2.3192  0.8426  1.6562
   75CHL1  H26C 8026   4.624   5.789   7.725  1.7257 -1.5745  0.6688
   75CHL1   C27 8027   4.400   5.830   7.590  0.5129  0.0260 -0.4093
   75CHL1  H27A 8028   4.334   5.787   7.668  2.4214  0.3865  1.4338
   75CHL1  H27B 8029   4.448   5.918   7.638  0.3697 -0.9985  1.6552
   75CHL1  H27C 8030   4.335   5.853   7.502 -0.3559 -1.4555 -0.1800
   76CHL1    C3 8031   2.637   1.154   6.088 -0.3930  0.5461 -0.2361
   76CHL1    H3 8032   2.682   1.060   6.126 -0.4792  0.7773  0.4333
   76CHL1    O3 8033   2.605   1.151   5.951  0.4765  0.1887 -0.7417
   76CHL1   H3' 8034   2.539   1.218   5.933  1.9600  1.9427  0.1536
   76CHL1    C4 8035   2.509   1.171   6.177  0.1769 -0.0710 -0.3134
   76CHL1   H4A 8036   2.467   1.274   6.170 -0.3891 -0.1032  2.2381
   76CHL1   H4B 8037   2.443   1.089   6.144 -1.6205  1.4492 -0.5423
   76CHL1    C5 8038   2.553   1.158   6.326  0.0398 -0.5487  0.6046
   76CHL1    C6 8039   2.523   1.055   6.399 -0.1481 -0.2439  1.3911
   76CHL1    H6 8040   2.449   0.988   6.353  1.6427 -1.3065 -0.0355
   76CHL1    C7 8041   2.568   1.027   6.540 -0.0198  0.6285 -1.1278
   76CHL1   H7A 8042   2.487   0.992   6.607 -0.5856  1.6807 -1.2566
   76CHL1   H7B 8043   2.656   0.959   6.531  0.0173  0.8067 -2.1355
   76CHL1    C8 8044   2.629   1.162   6.606 -0.4102  0.2141  0.5467
   76CHL1    H8 8045   2.544   1.231   6.622  0.2924  1.0300  0.7779
   76CHL1   C14 8046   2.702   1.126   6.735  0.2837 -0.3818  0.2522
   76CHL1   H14 8047   2.765   1.043   6.699 -0.9793 -1.9347  1.5667
   76CHL1   C15 8048   2.627   1.065   6.846 -0.2362 -0.3094 -0.7173
   76CHL1  H15A 8049   2.530   1.118   6.861 -0.3679  0.0061 -2.4795
   76CHL1  H15B 8050   2.598   0.958   6.835 -1.1390 -0.2396  0.8396
   76CHL1   C16 8051   2.723   1.067   6.962 -0.1940 -0.1514 -0.0692
   76CHL1  H16A 8052   2.683   1.106   7.059  0.9043 -0.9518  0.7178
   76CHL1  H16B 8053   2.765   0.965   6.972 -0.4115 -0.1640  0.8555
   76CHL1   C17 8054   2.832   1.165   6.919 -0.1262  0.3893 -0.5553
   76CHL1   H17 8055   2.911   1.094   6.887 -1.0528 -1.4814  1.1801
   76CHL1   C13 8056   2.783   1.236   6.790  0.1244  0.0004 -1.2278
   76CHL1   C18 8057   2.694   1.349   6.853  0.3484 -0.0827  0.1575
   76CHL1  H18A 8058   2.758   1.433   6.888 -0.2863  0.5250 -0.1033
   76CHL1  H18B 8059   2.629   1.404   6.781  1.4152  1.2441  0.1790
   76CHL1  H18C 8060   2.624   1.315   6.932  2.3840  2.4101  3.1391
   76CHL1   C12 8061   2.885   1.286   6.692 -0.3065 -0.4619  0.9108
   76CHL1  H12A 8062   2.960   1.359   6.730  0.2072 -0.3051 -0.3527
   76CHL1  H12B 8063   2.946   1.197   6.666 -0.3632 -0.4083  0.5880
   76CHL1   C11 8064   2.822   1.342   6.564 -0.0781 -0.3529 -0.2300
   76CHL1  H11A 8065   2.761   1.435   6.570  1.1830  0.4683 -0.0301
   76CHL1  H11B 8066   2.900   1.366   6.489 -1.6151  1.5600 -1.2385
   76CHL1    C9 8067   2.728   1.227   6.504 -0.3913 -0.3686  0.2189
   76CHL1    H9 8068   2.803   1.150   6.476  1.2572  0.5859  1.8703
   76CHL1   C10 8069   2.663   1.261   6.370  0.4721  0.0923 -0.0968
   76CHL1   C19 8070   2.567   1.392   6.388 -0.0829  1.0653 -0.3296
   76CHL1  H19A 8071   2.528   1.439   6.295 -0.7662 -0.8252 -1.0107
   76CHL1  H19B 8072   2.485   1.363   6.457 -0.4924 -2.4899 -2.1768
   76CHL1  H19C 8073   2.631   1.476   6.425  1.8118  0.6505 -2.5424
   76CHL1    C1 8074   2.773   1.288   6.264  0.2542  1.0547  0.0117
   76CHL1   H1A 8075   2.817   1.386   6.292 -0.3577  1.2206  0.4044
   76CHL1   H1B 8076   2.857   1.216   6.260 -1.3657 -0.9952  1.9574
   76CHL1    C2 8077   2.722   1.285   6.119 -0.0426  0.8300  0.1065
   76CHL1   H2A 8078   2.818   1.281   6.062 -0.6900  2.5811 -1.1611
   76CHL1   H2B 8079   2.656   1.372   6.097 -1.7307  0.0290  1.9125
   76CHL1   C20 8080   2.902   1.240   7.037 -1.1765 -0.4494  0.5113
   76CHL1   H20 8081   2.830   1.310   7.086 -1.2466  1.2244 -1.8609
   76CHL1   C21 8082   3.017   1.345   6.995  0.3316 -0.2001 -0.0412
   76CHL1  H21A 8083   3.051   1.400   7.086  0.0302  1.2512 -0.8019
   76CHL1  H21B 8084   2.979   1.419   6.922 -1.8953 -0.8375  0.4405
   76CHL1  H21C 8085   3.111   1.294   6.965  0.8665 -0.6190  2.2302
   76CHL1   C22 8086   2.960   1.140   7.145  0.4976  0.5625  0.6252
   76CHL1  H22A 8087   2.883   1.063   7.163 -0.6494  1.7009  0.6702
   76CHL1  H22B 8088   3.044   1.085   7.098 -0.3498 -0.4773  0.3286
   76CHL1   C23 8089   2.994   1.206   7.279 -0.3756  0.7681 -0.2002
   76CHL1  H23A 8090   3.081   1.272   7.259 -0.8022  1.7771  1.2067
   76CHL1  H23B 8091   2.906   1.263   7.315  0.2947  0.8775  1.3183
   76CHL1   C24 8092   3.060   1.121   7.391 -0.4991 -0.3051 -0.0712
   76CHL1  H24A 8093   2.984   1.054   7.436 -0.7092 -0.3937 -0.5574
   76CHL1  H24B 8094   3.144   1.059   7.354  2.8749  2.6791  2.2564
   76CHL1   C25 8095   3.097   1.197   7.520  0.1345 -0.5163 -0.0090
   76CHL1   H25 8096   3.010   1.257   7.555 -1.1391 -0.9925 -2.3051
   76CHL1   C26 8097   3.129   1.101   7.636  0.2263 -0.0024  1.0818
   76CHL1  H26A 8098   3.042   1.034   7.656 -1.5656  2.1114  0.5946
   76CHL1  H26B 8099   3.218   1.040   7.608 -0.2724 -1.0064  1.6352
   76CHL1  H26C 8100   3.135   1.158   7.731  0.5523 -0.5668  1.4045
   76CHL1   C27 8101   3.222   1.279   7.493 -0.8282  0.5270 -0.6881
   76CHL1  H27A 8102   3.227   1.329   7.592 -1.3828 -3.3346  1.3889
   76CHL1  H27B 8103   3.312   1.217   7.474 -1.0190 -0.3225  1.0353
   76CHL1  H27C 8104   3.231   1.363   7.421 -2.2200  1.7594  0.5294
   77CHL1    C3 8105   1.357   5.524   6.249 -0.1340 -0.7398 -0.1192
   77CHL1    H3 8106   1.448   5.573   6.207  0.7235  0.1747  2.6931
   77CHL1    O3 8107   1.249   5.573   6.176 -0.1387 -0.2664  0.2408
   77CHL1   H3' 8108   1.181   5.511   6.201 -1.7276  1.1698 -0.4080
   77CHL1    C4 8109   1.383   5.374   6.226  0.4527  0.4976 -0.5113
   77CHL1   H4A 8110   1.299   5.323   6.277  2.5143 -0.2317  2.2556
   77CHL1   H4B 8111   1.387   5.353   6.117 -0.1412 -0.5760 -0.3223
   77CHL1    C5 8112   1.506   5.331   6.308  1.1130  0.4543  0.1228
   77CHL1    C6 8113   1.609   5.271   6.248 -0.4837 -0.0306  0.3571
   77CHL1    H6 8114   1.609   5.245   6.141 -0.4526 -1.7531  0.7606
   77CHL1    C7 8115   1.740   5.240   6.316  0.7576  0.1170  0.5653
   77CHL1   H7A 8116   1.773   5.138   6.285 -0.2803  0.4271 -1.6215
   77CHL1   H7B 8117   1.810   5.324   6.298 -1.3761  2.9213  4.4982
   77CHL1    C8 8118   1.722   5.229   6.466  0.0621 -0.1585  0.0485
   77CHL1    H8 8119   1.658   5.141   6.489 -2.5300  1.1606 -1.8558
   77CHL1   C14 8120   1.860   5.218   6.524  0.3783  0.4713 -0.2292
   77CHL1   H14 8121   1.913   5.307   6.485  0.7834  0.8283  1.0905
   77CHL1   C15 8122   1.962   5.110   6.481  0.3396 -1.1371 -0.1748
   77CHL1  H15A 8123   1.914   5.012   6.458 -1.6370  0.3261 -2.5223
   77CHL1  H15B 8124   2.009   5.148   6.388  0.9935  0.0931  0.6562
   77CHL1   C16 8125   2.056   5.091   6.595 -0.0963 -0.6168  0.0237
   77CHL1  H16A 8126   2.037   4.987   6.629 -1.2939 -0.7830 -1.1089
   77CHL1  H16B 8127   2.165   5.104   6.578 -0.2555 -0.8895 -1.2796
   77CHL1   C17 8128   2.012   5.204   6.702 -0.3026  0.2770  0.9081
   77CHL1   H17 8129   2.062   5.294   6.660  1.3211 -0.1122  1.9667
   77CHL1   C13 8130   1.864   5.224   6.680 -1.2827  0.1081  0.1237
   77CHL1   C18 8131   1.794   5.104   6.748 -0.3137 -0.0742 -0.1605
   77CHL1  H18A 8132   1.823   5.112   6.855 -0.1500  0.5131 -0.2475
   77CHL1  H18B 8133   1.685   5.122   6.736  0.1526  2.7137 -0.5091
   77CHL1  H18C 8134   1.813   5.003   6.705  0.0229 -1.0851  2.2471
   77CHL1   C12 8135   1.806   5.367   6.725 -0.1509 -0.7336  0.6303
   77CHL1  H12A 8136   1.806   5.377   6.836 -1.6647  1.7226  0.4412
   77CHL1  H12B 8137   1.868   5.444   6.675 -2.6813 -0.6631 -2.5378
   77CHL1   C11 8138   1.662   5.381   6.668  0.0688  0.1120  0.2199
   77CHL1  H11A 8139   1.603   5.310   6.730 -0.7121  2.7531  2.6138
   77CHL1  H11B 8140   1.628   5.485   6.688 -2.0083 -0.3511 -0.8478
   77CHL1    C9 8141   1.655   5.358   6.515 -0.5161 -0.6006 -0.5312
   77CHL1    H9 8142   1.722   5.439   6.478 -1.8361  1.4135  1.3925
   77CHL1   C10 8143   1.517   5.382   6.455  0.1325  0.1076  0.1198
   77CHL1   C19 8144   1.412   5.302   6.532  0.2052 -0.0961 -0.2878
   77CHL1  H19A 8145   1.448   5.200   6.554  1.5230 -0.2009 -2.8160
   77CHL1  H19B 8146   1.395   5.354   6.630  1.0065  0.1340 -0.2680
   77CHL1  H19C 8147   1.318   5.293   6.473  0.1288 -1.4140  0.0262
   77CHL1    C1 8148   1.479   5.532   6.462  0.4749 -0.4567 -0.0949
   77CHL1   H1A 8149   1.470   5.563   6.568 -2.3544 -0.2088 -0.3660
   77CHL1   H1B 8150   1.561   5.594   6.420  2.7270 -3.1818  0.0961
   77CHL1    C2 8151   1.345   5.575   6.390 -0.7788  0.1938 -0.1916
   77CHL1   H2A 8152   1.332   5.685   6.389 -2.8375 -0.0271 -0.4293
   77CHL1   H2B 8153   1.268   5.518   6.448 -0.1064  0.0626  0.5847
   77CHL1   C20 8154   2.072   5.172   6.836  0.5865 -0.3348 -0.1266
   77CHL1   H20 8155   2.035   5.072   6.868  0.6690 -0.6892 -1.1335
   77CHL1   C21 8156   2.035   5.281   6.945  0.1351  0.1758 -0.0613
   77CHL1  H21A 8157   2.061   5.386   6.917 -2.3230  0.4697 -1.3550
   77CHL1  H21B 8158   2.100   5.260   7.033 -1.5962 -2.0286  0.7392
   77CHL1  H21C 8159   1.926   5.283   6.966  0.2806  0.2998  0.6978
   77CHL1   C22 8160   2.224   5.146   6.833  0.7606  0.4105  0.0646
   77CHL1  H22A 8161   2.248   5.127   6.940 -2.4937  3.9036  1.5422
   77CHL1  H22B 8162   2.251   5.057   6.773 -0.8092  0.4781 -0.7652
   77CHL1   C23 8163   2.315   5.256   6.779 -0.2238 -0.0512 -0.1450
   77CHL1  H23A 8164   2.284   5.301   6.682  1.1173 -0.5180 -0.7916
   77CHL1  H23B 8165   2.303   5.341   6.850  0.2023 -1.7986  2.0783
   77CHL1   C24 8166   2.457   5.193   6.762 -1.1490 -0.2809 -0.6975
   77CHL1  H24A 8167   2.483   5.114   6.835 -1.5096  0.8761  0.7099
   77CHL1  H24B 8168   2.455   5.133   6.669  3.0233 -1.6231 -0.0338
   77CHL1   C25 8169   2.566   5.300   6.746  0.5410 -0.5289 -0.6981
   77CHL1   H25 8170   2.536   5.373   6.668 -0.2734 -2.4237 -2.1940
   77CHL1   C26 8171   2.591   5.366   6.883 -0.7128  0.1646 -0.1752
   77CHL1  H26A 8172   2.606   5.296   6.968 -0.1549  1.0722  0.4840
   77CHL1  H26B 8173   2.678   5.435   6.877  1.5589 -2.5113  1.4016
   77CHL1  H26C 8174   2.514   5.440   6.915  0.7110  0.5547  2.4209
   77CHL1   C27 8175   2.698   5.241   6.694 -0.3463 -0.7010  0.7330
   77CHL1  H27A 8176   2.777   5.317   6.679 -1.4802  0.2628 -0.5376
   77CHL1  H27B 8177   2.745   5.159   6.752  1.6465 -0.3354 -0.3135
   77CHL1  H27C 8178   2.683   5.209   6.589 -2.2019 -0.7987  1.0012
   78CHL1    C3 8179   4.869   1.513   5.987 -0.3250  0.1782 -0.2718
   78CHL1    H3 8180   4.955   1.559   6.039 -0.4026  0.6773 -0.5848
   78CHL1    O3 8181   4.902   1.532   5.852  0.0178  0.5720  0.5473
   78CHL1   H3' 8182   4.901   1.628   5.843  3.0692  0.5480 -0.4882
   78CHL1    C4 8183   4.881   1.360   6.014  0.2262 -0.0938  0.1122
   78CHL1   H4A 8184   4.801   1.328   5.943 -0.4136  1.5088  0.0920
   78CHL1   H4B 8185   4.982   1.327   5.981  0.8167 -0.2085  1.9688
   78CHL1    C5 8186   4.863   1.326   6.159  0.4726  0.2177  0.3067
   78CHL1    C6 8187   4.964   1.252   6.225  0.6742  0.3204  0.0185
   78CHL1    H6 8188   5.041   1.205   6.162  0.3400 -3.1911  2.1079
   78CHL1    C7 8189   4.955   1.212   6.367  0.5454 -0.2942  0.8016
   78CHL1   H7A 8190   4.982   1.107   6.386 -1.4912 -1.2774 -1.3933
   78CHL1   H7B 8191   5.025   1.277   6.424 -0.3562  1.0217  0.4560
   78CHL1    C8 8192   4.813   1.233   6.417 -0.2394 -0.2824  0.0578
   78CHL1    H8 8193   4.748   1.156   6.370  1.9251 -1.4663 -1.1164
   78CHL1   C14 8194   4.810   1.221   6.574  0.4217 -0.1391 -0.3388
   78CHL1   H14 8195   4.879   1.300   6.612 -1.0808  0.4114  1.3080
   78CHL1   C15 8196   4.871   1.087   6.633 -0.9835  0.5504 -0.4654
   78CHL1  H15A 8197   4.813   1.007   6.582 -1.1012 -1.1565  2.2657
   78CHL1  H15B 8198   4.981   1.072   6.627 -1.1508 -0.8273 -0.2548
   78CHL1   C16 8199   4.825   1.089   6.781  0.7276  0.0058  0.0170
   78CHL1  H16A 8200   4.777   0.992   6.806  1.3854 -0.7728 -1.6449
   78CHL1  H16B 8201   4.910   1.115   6.848  1.4153 -0.5273 -0.6402
   78CHL1   C17 8202   4.728   1.208   6.796  0.0973 -0.2881 -0.2376
   78CHL1   H17 8203   4.789   1.300   6.807 -0.1142 -0.0511 -1.0244
   78CHL1   C13 8204   4.685   1.238   6.648 -1.0850 -0.1450 -0.5301
   78CHL1   C18 8205   4.576   1.144   6.597 -0.1864 -0.2205 -0.4710
   78CHL1  H18A 8206   4.605   1.037   6.611  2.5308  0.4774 -0.4819
   78CHL1  H18B 8207   4.475   1.168   6.637 -0.1211  2.4763 -1.8383
   78CHL1  H18C 8208   4.570   1.152   6.486  2.9799 -1.0599 -0.7579
   78CHL1   C12 8209   4.646   1.390   6.611 -0.2989  0.6437  0.1432
   78CHL1  H12A 8210   4.550   1.406   6.665 -0.6878 -0.8972 -0.0698
   78CHL1  H12B 8211   4.724   1.454   6.658 -0.5051  0.7908  0.2870
   78CHL1   C11 8212   4.628   1.413   6.462  0.7023 -0.4377 -0.1193
   78CHL1  H11A 8213   4.538   1.358   6.430 -0.9464  0.6633  2.4610
   78CHL1  H11B 8214   4.606   1.519   6.436 -0.3939 -0.0434  2.3011
   78CHL1    C9 8215   4.749   1.367   6.381  0.3723  0.1324 -0.3256
   78CHL1    H9 8216   4.832   1.439   6.401  2.6888 -2.4878 -0.1524
   78CHL1   C10 8217   4.727   1.384   6.227  0.5626  0.1282 -0.0718
   78CHL1   C19 8218   4.597   1.315   6.182 -0.4150  0.4423 -0.0686
   78CHL1  H19A 8219   4.506   1.377   6.194  0.4469  1.6649  0.2549
   78CHL1  H19B 8220   4.599   1.295   6.073  0.7858  0.4267 -0.0615
   78CHL1  H19C 8221   4.593   1.219   6.238 -0.0832 -0.8452 -2.1852
   78CHL1    C1 8222   4.720   1.538   6.188 -0.4177  0.3896 -0.0251
   78CHL1   H1A 8223   4.620   1.570   6.225 -1.8538 -2.2525 -1.4615
   78CHL1   H1B 8224   4.791   1.605   6.240  1.4083 -0.6353 -1.1340
   78CHL1    C2 8225   4.735   1.561   6.038 -0.1737 -0.3826 -0.1059
   78CHL1   H2A 8226   4.721   1.670   6.022  0.8638 -0.4964 -2.0171
   78CHL1   H2B 8227   4.650   1.510   5.989 -0.0699  0.3053 -1.0079
   78CHL1   C20 8228   4.617   1.203   6.902 -0.4568  0.1407  0.4379
   78CHL1   H20 8229   4.531   1.266   6.868 -2.0712 -1.8516  0.7646
   78CHL1   C21 8230   4.673   1.291   7.020 -0.4006 -0.4760  0.0586
   78CHL1  H21A 8231   4.692   1.395   6.988  0.6070 -1.0545 -1.2980
   78CHL1  H21B 8232   4.771   1.241   7.041  0.1677 -0.0516 -1.5634
   78CHL1  H21C 8233   4.606   1.271   7.107  0.1877 -0.9010  0.4176
   78CHL1   C22 8234   4.568   1.062   6.945 -0.0744 -0.2502  0.4924
   78CHL1  H22A 8235   4.572   0.996   6.855 -2.6861  1.0334 -0.6055
   78CHL1  H22B 8236   4.647   1.024   7.013  0.1833  2.0675  1.5339
   78CHL1   C23 8237   4.437   1.043   7.016  0.4141 -0.0760 -0.6208
   78CHL1  H23A 8238   4.420   1.113   7.101 -1.5703 -0.8179 -0.3834
   78CHL1  H23B 8239   4.355   1.055   6.943  0.1495  1.4371 -0.0984
   78CHL1   C24 8240   4.436   0.905   7.080 -0.2004  0.2699  0.2648
   78CHL1  H24A 8241   4.449   0.828   7.001 -1.2832 -1.7174  1.9678
   78CHL1  H24B 8242   4.510   0.907   7.163 -1.3325 -2.8891  1.4251
   78CHL1   C25 8243   4.297   0.867   7.138 -0.3913  0.3224  0.1437
   78CHL1   H25 8244   4.220   0.904   7.067 -0.7565 -0.7125 -0.0019
   78CHL1   C26 8245   4.280   0.714   7.150 -0.1580 -0.3161  0.6326
   78CHL1  H26A 8246   4.298   0.661   7.054  2.1182 -0.9753  1.3847
   78CHL1  H26B 8247   4.357   0.681   7.223  1.3750  1.5125 -0.1139
   78CHL1  H26C 8248   4.181   0.676   7.181  0.6071 -1.0628  2.2553
   78CHL1   C27 8249   4.283   0.937   7.275 -0.0885  1.1233 -0.5461
   78CHL1  H27A 8250   4.186   0.920   7.325 -0.5199 -0.4581 -1.8676
   78CHL1  H27B 8251   4.366   0.892   7.334  0.6441  1.4291 -1.3322
   78CHL1  H27C 8252   4.314   1.043   7.271  0.0989  1.1089  0.4134
   79CHL1    C3 8253   4.107   6.262   5.948 -1.0055 -0.0930 -0.3161
   79CHL1    H3 8254   4.136   6.156   5.964 -0.4094  0.3625  1.7798
   79CHL1    O3 8255   4.106   6.284   5.808 -0.4455  0.1513  0.3058
   79CHL1   H3' 8256   4.092   6.378   5.792 -2.3832  0.0206  1.0743
   79CHL1    C4 8257   3.967   6.283   6.016 -0.6468  0.2977  0.5650
   79CHL1   H4A 8258   3.943   6.387   5.985 -0.2773  0.4947  0.9296
   79CHL1   H4B 8259   3.899   6.209   5.969  0.1989  0.6990 -1.3194
   79CHL1    C5 8260   3.970   6.283   6.167  0.5242  0.6493 -0.1717
   79CHL1    C6 8261   3.884   6.200   6.232 -0.2790  0.3859 -0.1252
   79CHL1    H6 8262   3.815   6.136   6.176  0.5150 -1.5828  1.1127
   79CHL1    C7 8263   3.857   6.212   6.379 -0.4793 -0.7229 -0.1979
   79CHL1   H7A 8264   3.750   6.232   6.401 -0.4911 -0.8327 -0.1549
   79CHL1   H7B 8265   3.876   6.121   6.439 -1.0070 -0.5501  0.2348
   79CHL1    C8 8266   3.941   6.331   6.449 -0.3789  0.0646 -0.4109
   79CHL1    H8 8267   3.882   6.423   6.427 -0.2512  0.2284 -0.0728
   79CHL1   C14 8268   3.951   6.310   6.594 -0.8363 -0.3798 -0.3976
   79CHL1   H14 8269   4.018   6.222   6.609  1.5032  1.4338  0.0518
   79CHL1   C15 8270   3.821   6.276   6.666 -0.0388  0.1966 -0.6222
   79CHL1  H15A 8271   3.735   6.336   6.631 -0.2666  0.6787  0.7230
   79CHL1  H15B 8272   3.797   6.169   6.649 -0.6908  0.8149 -3.9345
   79CHL1   C16 8273   3.853   6.308   6.809  0.3638 -0.9065 -1.0514
   79CHL1  H16A 8274   3.789   6.392   6.844 -0.3480 -2.3844  1.3615
   79CHL1  H16B 8275   3.834   6.227   6.883  1.5998  0.8145  1.2446
   79CHL1   C17 8276   3.999   6.362   6.816 -0.2101  0.3634 -0.3991
   79CHL1   H17 8277   4.068   6.275   6.815 -0.7231 -0.0353 -0.8991
   79CHL1   C13 8278   4.028   6.416   6.673  0.5132  0.3455 -0.4882
   79CHL1   C18 8279   3.961   6.552   6.652  0.4973  0.3269 -1.2650
   79CHL1  H18A 8280   3.863   6.556   6.704  0.7443 -0.4364 -0.7395
   79CHL1  H18B 8281   4.018   6.627   6.710  0.6366 -1.3834  0.8658
   79CHL1  H18C 8282   3.954   6.589   6.547  1.1127  2.3819 -0.6062
   79CHL1   C12 8283   4.172   6.421   6.621 -0.2639  0.8587  0.1489
   79CHL1  H12A 8284   4.237   6.496   6.671  0.4132  0.8927 -0.7677
   79CHL1  H12B 8285   4.231   6.330   6.647  0.5484  1.2268 -0.3534
   79CHL1   C11 8286   4.181   6.447   6.468 -0.3594  0.9963 -0.1049
   79CHL1  H11A 8287   4.140   6.550   6.455 -3.0157  0.1362  1.0818
   79CHL1  H11B 8288   4.284   6.424   6.434 -1.1374 -1.7366 -0.7379
   79CHL1    C9 8289   4.084   6.352   6.384 -0.0269  0.5364  0.2609
   79CHL1    H9 8290   4.129   6.251   6.382 -4.5284 -1.5987  0.6483
   79CHL1   C10 8291   4.075   6.380   6.231  0.2288 -0.3855  1.1494
   79CHL1   C19 8292   4.039   6.530   6.214 -0.0859  0.6713 -0.5520
   79CHL1  H19A 8293   3.950   6.555   6.275 -1.0125 -0.5382 -1.3770
   79CHL1  H19B 8294   4.122   6.593   6.254 -0.8007  0.9680  0.4652
   79CHL1  H19C 8295   4.026   6.557   6.107 -0.5533 -0.5145 -0.7962
   79CHL1    C1 8296   4.215   6.360   6.164  0.3107 -0.4129 -0.1606
   79CHL1   H1A 8297   4.288   6.437   6.198 -1.0987  1.4149 -1.2063
   79CHL1   H1B 8298   4.245   6.260   6.202  1.2492 -1.5217 -3.6471
   79CHL1    C2 8299   4.206   6.353   6.014  0.9084  0.4663  0.5266
   79CHL1   H2A 8300   4.310   6.338   5.977  0.5298  0.1099 -0.4168
   79CHL1   H2B 8301   4.179   6.458   5.986 -0.9695 -0.6191 -1.9739
   79CHL1   C20 8302   4.052   6.452   6.932 -0.5129 -0.3646 -0.3187
   79CHL1   H20 8303   4.087   6.543   6.879 -3.1412  0.2945 -0.9977
   79CHL1   C21 8304   4.184   6.384   6.985 -0.6054 -0.3588 -0.0716
   79CHL1  H21A 8305   4.158   6.286   7.030  1.4106  0.5708  3.2858
   79CHL1  H21B 8306   4.217   6.444   7.072 -0.7203  0.4922 -0.6069
   79CHL1  H21C 8307   4.256   6.377   6.901 -0.8514 -0.2129 -0.2974
   79CHL1   C22 8308   3.950   6.479   7.044  0.2097  0.5721  0.1010
   79CHL1  H22A 8309   3.855   6.508   6.995  0.8329  0.6098 -1.1046
   79CHL1  H22B 8310   3.928   6.381   7.092  3.3955 -0.1082  0.2911
   79CHL1   C23 8311   3.987   6.587   7.157  0.3035 -0.5263  0.7444
   79CHL1  H23A 8312   4.094   6.591   7.189  0.2108 -0.7528  1.0854
   79CHL1  H23B 8313   3.975   6.687   7.111  0.0804 -1.2681 -0.8468
   79CHL1   C24 8314   3.903   6.594   7.282  0.1126 -0.2072 -0.3710
   79CHL1  H24A 8315   3.951   6.675   7.341 -1.0814 -1.2533  2.1277
   79CHL1  H24B 8316   3.798   6.615   7.255 -0.3327  0.7300  1.9267
   79CHL1   C25 8317   3.915   6.477   7.380 -0.8795  0.2063 -0.2390
   79CHL1   H25 8318   3.881   6.378   7.342  0.2745  0.2819 -1.5265
   79CHL1   C26 8319   4.061   6.454   7.420  0.0016  0.7158  0.1722
   79CHL1  H26A 8320   4.121   6.407   7.339  0.5371  0.3506  0.7843
   79CHL1  H26B 8321   4.099   6.554   7.448 -1.0922  1.2719 -0.3059
   79CHL1  H26C 8322   4.066   6.393   7.513  1.4477 -0.4509 -0.6425
   79CHL1   C27 8323   3.833   6.517   7.500  0.3981 -0.2134  0.2361
   79CHL1  H27A 8324   3.823   6.437   7.576 -1.4372  1.4937  1.8327
   79CHL1  H27B 8325   3.877   6.604   7.553  1.6045  0.6388 -2.1027
   79CHL1  H27C 8326   3.726   6.544   7.484  0.0365  0.3859  3.4750
   80CHL1    C3 8327   0.885   4.437   6.154  0.3928 -0.7094 -0.2089
   80CHL1    H3 8328   0.821   4.526   6.139  0.1084 -0.6041  1.5602
   80CHL1    O3 8329   0.941   4.390   6.028  0.4096  0.4704 -0.0004
   80CHL1   H3' 8330   0.903   4.452   5.965 -1.3360 -0.6645 -0.1220
   80CHL1    C4 8331   1.000   4.492   6.241 -0.5386 -0.0739  0.1262
   80CHL1   H4A 8332   1.077   4.413   6.252 -0.1305  0.2954 -0.0710
   80CHL1   H4B 8333   1.054   4.574   6.189  1.9765 -0.9608  1.2601
   80CHL1    C5 8334   0.963   4.533   6.381  0.1629  0.7943 -0.4862
   80CHL1    C6 8335   0.975   4.655   6.436  0.1881  0.0298 -0.0936
   80CHL1    H6 8336   1.007   4.743   6.378 -2.5924  0.5885 -0.8511
   80CHL1    C7 8337   0.922   4.697   6.567 -0.0803  0.4755 -0.1435
   80CHL1   H7A 8338   1.002   4.761   6.610  1.6791 -2.2807  0.8444
   80CHL1   H7B 8339   0.827   4.753   6.558  0.7633  2.0074  0.3544
   80CHL1    C8 8340   0.923   4.571   6.659  0.2267  0.7061 -0.0715
   80CHL1    H8 8341   1.027   4.533   6.664 -0.7831 -2.1840  0.0243
   80CHL1   C14 8342   0.861   4.611   6.793 -0.2982  0.6810 -0.0270
   80CHL1   H14 8343   0.756   4.639   6.767 -0.0437 -1.2431 -3.3672
   80CHL1   C15 8344   0.907   4.732   6.880 -0.2550  0.1280 -0.1200
   80CHL1  H15A 8345   1.018   4.743   6.888 -0.2834  1.6599 -1.5249
   80CHL1  H15B 8346   0.884   4.828   6.829 -1.7592  0.6343  1.4658
   80CHL1   C16 8347   0.837   4.710   7.018 -0.1300 -0.2197 -0.0505
   80CHL1  H16A 8348   0.907   4.731   7.102  2.0392 -1.3302 -1.5296
   80CHL1  H16B 8349   0.758   4.789   7.018  0.7154  0.6735  1.6667
   80CHL1   C17 8350   0.787   4.567   7.012  0.4063  0.7335  0.1154
   80CHL1   H17 8351   0.680   4.580   6.983  0.0537 -0.3971  0.8803
   80CHL1   C13 8352   0.851   4.498   6.892  0.1211  0.0367 -0.0649
   80CHL1   C18 8353   0.995   4.449   6.927 -0.4412  0.1992 -0.2281
   80CHL1  H18A 8354   1.046   4.427   6.831 -0.6031  2.1291 -0.7757
   80CHL1  H18B 8355   1.062   4.517   6.985  0.2398 -0.5972 -0.0703
   80CHL1  H18C 8356   0.980   4.354   6.983 -3.3506  1.8303  1.8757
   80CHL1   C12 8357   0.771   4.389   6.827 -0.6819 -0.1123  0.6883
   80CHL1  H12A 8358   0.757   4.307   6.900 -1.7687 -2.2443 -1.8072
   80CHL1  H12B 8359   0.669   4.429   6.810 -0.4836  0.0382 -0.2062
   80CHL1   C11 8360   0.827   4.343   6.696 -0.5258 -0.1265 -0.1906
   80CHL1  H11A 8361   0.915   4.284   6.730 -0.0176  1.2997  1.0145
   80CHL1  H11B 8362   0.751   4.277   6.648  0.9250  0.2946 -3.1683
   80CHL1    C9 8363   0.843   4.461   6.597 -0.1932  0.5581 -0.3493
   80CHL1    H9 8364   0.740   4.497   6.580 -0.8835 -0.1975  2.0734
   80CHL1   C10 8365   0.899   4.417   6.458  0.5165 -0.4193  0.7744
   80CHL1   C19 8366   1.001   4.300   6.489  0.0820 -0.7391 -0.0873
   80CHL1  H19A 8367   0.945   4.214   6.531  0.0878 -2.4763 -3.4813
   80CHL1  H19B 8368   1.052   4.256   6.401  0.8501 -0.6433  0.3053
   80CHL1  H19C 8369   1.075   4.340   6.562 -2.6396  0.4234  2.1413
   80CHL1    C1 8370   0.787   4.352   6.373  0.4680 -0.4326 -0.6342
   80CHL1   H1A 8371   0.753   4.255   6.413 -0.5858  0.7581  1.4254
   80CHL1   H1B 8372   0.687   4.399   6.380  0.5624 -0.4675  1.1151
   80CHL1    C2 8373   0.826   4.311   6.227 -0.3076  0.1382  0.2399
   80CHL1   H2A 8374   0.740   4.284   6.162 -1.0494  0.2780  1.1503
   80CHL1   H2B 8375   0.907   4.236   6.223 -0.9023 -0.4426 -1.2405
   80CHL1   C20 8376   0.777   4.487   7.143 -0.5656  0.6924 -0.0834
   80CHL1   H20 8377   0.760   4.381   7.115  1.1818  0.8039 -1.7236
   80CHL1   C21 8378   0.650   4.528   7.218 -0.3276 -0.1004 -0.5731
   80CHL1  H21A 8379   0.562   4.510   7.152  0.7494 -1.9285 -1.5891
   80CHL1  H21B 8380   0.647   4.634   7.249 -3.5247 -0.4024  0.3146
   80CHL1  H21C 8381   0.650   4.469   7.312 -2.0867  1.6445  0.5462
   80CHL1   C22 8382   0.906   4.493   7.236 -0.2836 -0.2078  0.0480
   80CHL1  H22A 8383   0.996   4.480   7.172 -0.7474  1.3922 -0.9513
   80CHL1  H22B 8384   0.908   4.592   7.287 -1.1892 -0.7966  1.2625
   80CHL1   C23 8385   0.916   4.387   7.339  0.9272 -0.7276 -0.0552
   80CHL1  H23A 8386   0.843   4.410   7.418  0.6157 -1.5501 -0.0986
   80CHL1  H23B 8387   0.876   4.292   7.296 -0.0765 -0.4206  0.2031
   80CHL1   C24 8388   1.049   4.370   7.418  0.0675 -0.2237  0.8658
   80CHL1  H24A 8389   1.116   4.346   7.334 -2.6024  0.6495 -1.6126
   80CHL1  H24B 8390   1.076   4.468   7.463 -0.3838  1.1664 -1.8018
   80CHL1   C25 8391   1.049   4.273   7.538  0.3511  0.0856 -0.0527
   80CHL1   H25 8392   0.959   4.285   7.602  1.6356 -1.7175  2.1760
   80CHL1   C26 8393   1.048   4.122   7.481 -0.3149  0.0635  0.6267
   80CHL1  H26A 8394   1.134   4.121   7.411 -0.0893  0.7126  0.8852
   80CHL1  H26B 8395   1.056   4.061   7.574 -0.1350  1.4664  1.5551
   80CHL1  H26C 8396   0.955   4.106   7.423  0.6762  0.5323 -1.1224
   80CHL1   C27 8397   1.173   4.304   7.630 -0.1013  0.2626 -0.4912
   80CHL1  H27A 8398   1.185   4.221   7.703  0.1789  0.9802  0.2979
   80CHL1  H27B 8399   1.264   4.308   7.566  2.2549 -1.2898  2.6253
   80CHL1  H27C 8400   1.162   4.398   7.689  1.5174  1.8899 -2.6662
   81CHL1    C3 8401   6.271   2.743   6.146 -0.9228  0.3344 -0.0620
   81CHL1    H3 8402   6.380   2.746   6.170 -0.9205  2.2767 -0.1700
   81CHL1    O3 8403   6.259   2.773   6.008 -0.3756  0.8711 -0.3423
   81CHL1   H3' 8404   6.165   2.768   5.991 -0.8144 -0.5259  2.3501
   81CHL1    C4 8405   6.211   2.602   6.167  0.0404 -0.4937  0.0434
   81CHL1   H4A 8406   6.114   2.604   6.112  0.2067 -2.8988 -0.3871
   81CHL1   H4B 8407   6.266   2.533   6.101 -2.6675 -1.6362 -1.0792
   81CHL1    C5 8408   6.190   2.564   6.312  0.0178 -0.3493  0.1213
   81CHL1    C6 8409   6.237   2.448   6.359 -0.7723  0.3212  1.1876
   81CHL1    H6 8410   6.281   2.382   6.282 -2.0480  2.3835 -1.3697
   81CHL1    C7 8411   6.213   2.394   6.495  0.2224  0.6407  0.0786
   81CHL1   H7A 8412   6.180   2.288   6.500 -0.2098  0.8255  1.1498
   81CHL1   H7B 8413   6.312   2.394   6.545  1.2819  2.0029 -1.9350
   81CHL1    C8 8414   6.112   2.482   6.569  0.2483  0.4741  0.2236
   81CHL1    H8 8415   6.010   2.456   6.534  0.2039  0.2336  0.5337
   81CHL1   C14 8416   6.126   2.458   6.716  0.1056 -0.2267  0.2176
   81CHL1   H14 8417   6.227   2.498   6.738 -0.6290  1.4338  0.6481
   81CHL1   C15 8418   6.137   2.315   6.765  0.4316  0.3618  1.1430
   81CHL1  H15A 8419   6.051   2.267   6.714  0.4388  1.9122 -0.3629
   81CHL1  H15B 8420   6.233   2.268   6.735 -0.9640 -1.6002 -0.3006
   81CHL1   C16 8421   6.104   2.323   6.912  0.3954 -0.6975  0.2187
   81CHL1  H16A 8422   6.005   2.280   6.940  1.4845 -1.9898  2.2299
   81CHL1  H16B 8423   6.166   2.258   6.977 -1.6087 -1.4298  1.4579
   81CHL1   C17 8424   6.100   2.473   6.948  0.6082  0.4491  0.2464
   81CHL1   H17 8425   6.206   2.506   6.955  0.7220  0.5695 -1.8178
   81CHL1   C13 8426   6.040   2.536   6.809 -0.2867  0.9405  0.0039
   81CHL1   C18 8427   5.891   2.502   6.787  0.0545  0.6102  0.0918
   81CHL1  H18A 8428   5.825   2.547   6.865  1.1757  1.0058  0.8251
   81CHL1  H18B 8429   5.863   2.530   6.683  0.0852  1.9776  0.4343
   81CHL1  H18C 8430   5.869   2.394   6.795  2.4659  0.2061  1.5557
   81CHL1   C12 8431   6.061   2.691   6.786 -0.1425  0.1194  1.1610
   81CHL1  H12A 8432   5.975   2.735   6.840  0.9424  1.1488  2.0622
   81CHL1  H12B 8433   6.163   2.719   6.820 -0.0430  1.7081 -0.3748
   81CHL1   C11 8434   6.048   2.721   6.637 -0.3630 -0.4675  0.0390
   81CHL1  H11A 8435   5.940   2.703   6.616  0.2878 -2.7585 -1.5936
   81CHL1  H11B 8436   6.072   2.828   6.619  2.9496 -1.5327 -2.4084
   81CHL1    C9 8437   6.136   2.631   6.543  0.2727  0.0279 -0.3216
   81CHL1    H9 8438   6.242   2.652   6.572 -0.5126  3.1385  0.4874
   81CHL1   C10 8439   6.138   2.675   6.394 -1.1779  0.4932 -0.9056
   81CHL1   C19 8440   5.985   2.690   6.347  0.5618 -0.0136  0.5596
   81CHL1  H19A 8441   5.973   2.713   6.239  0.9675 -2.4738 -0.0391
   81CHL1  H19B 8442   5.934   2.593   6.367  1.1842  0.0418  2.5540
   81CHL1  H19C 8443   5.941   2.776   6.402 -1.3761 -0.6312  0.0188
   81CHL1    C1 8444   6.203   2.822   6.382  0.0154  0.3360  0.3214
   81CHL1   H1A 8445   6.146   2.891   6.448 -0.0150  0.3163  0.3146
   81CHL1   H1B 8446   6.301   2.824   6.433 -0.0091  0.0552  0.3754
   81CHL1    C2 8447   6.208   2.854   6.224 -0.4901  0.4606  0.5233
   81CHL1   H2A 8448   6.255   2.953   6.204  0.3990 -0.2357 -0.8949
   81CHL1   H2B 8449   6.107   2.855   6.179 -0.6020 -1.3685  0.6854
   81CHL1   C20 8450   6.030   2.506   7.079  0.0916  0.5002  0.0707
   81CHL1   H20 8451   5.922   2.529   7.070 -0.1897  0.6951  3.3460
   81CHL1   C21 8452   6.096   2.626   7.136  0.1470  0.7027 -0.2903
   81CHL1  H21A 8453   6.077   2.712   7.068  1.6983  2.0975  1.0063
   81CHL1  H21B 8454   6.206   2.617   7.151 -0.0396 -0.8451  0.1670
   81CHL1  H21C 8455   6.070   2.668   7.235  0.7712  0.3598  0.0208
   81CHL1   C22 8456   6.044   2.394   7.185 -0.5144  0.9589  0.3451
   81CHL1  H22A 8457   5.979   2.311   7.152 -0.3242  1.9967 -2.7797
   81CHL1  H22B 8458   6.152   2.372   7.197 -0.5606 -0.0966 -1.1080
   81CHL1   C23 8459   5.989   2.420   7.330  0.3531 -0.1044  0.3847
   81CHL1  H23A 8460   6.061   2.489   7.378  0.7439  0.4452 -0.9604
   81CHL1  H23B 8461   5.893   2.475   7.325  0.0399 -0.7351 -0.9644
   81CHL1   C24 8462   5.991   2.302   7.425  0.2984  0.5978  0.2997
   81CHL1  H24A 8463   5.945   2.220   7.366  1.1409  0.7686 -0.5946
   81CHL1  H24B 8464   6.095   2.273   7.449 -0.5466 -1.7281  1.2774
   81CHL1   C25 8465   5.914   2.326   7.556 -0.5016  0.3113  0.9559
   81CHL1   H25 8466   5.809   2.300   7.532 -0.6298 -0.3520  2.2089
   81CHL1   C26 8467   5.971   2.229   7.660 -0.2535  0.4011 -0.4112
   81CHL1  H26A 8468   5.912   2.242   7.754  0.2767 -0.9827  0.1213
   81CHL1  H26B 8469   5.957   2.127   7.620  1.0829  0.9380 -2.2980
   81CHL1  H26C 8470   6.077   2.254   7.684  0.3384 -2.4645  0.0735
   81CHL1   C27 8471   5.922   2.473   7.616 -0.2136 -0.0780  0.7348
   81CHL1  H27A 8472   5.858   2.477   7.707 -1.4465  0.7613 -0.1620
   81CHL1  H27B 8473   6.027   2.509   7.628 -0.7966  1.6360  0.8315
   81CHL1  H27C 8474   5.877   2.546   7.545  0.6538 -0.5461 -0.3169
   82CHL1    C3 8475   5.449   5.721   6.120 -0.3526  0.4909  0.6570
   82CHL1    H3 8476   5.408   5.824   6.116 -3.0176 -0.5640  0.0272
   82CHL1    O3 8477   5.428   5.667   5.989  0.1023  0.2340 -0.4166
   82CHL1   H3' 8478   5.351   5.611   5.999  0.6439 -0.5505 -0.5671
   82CHL1    C4 8479   5.601   5.722   6.136 -0.0871  0.3491 -0.2824
   82CHL1   H4A 8480   5.637   5.618   6.122 -2.1199 -0.5123  0.7136
   82CHL1   H4B 8481   5.659   5.776   6.058  0.7541  0.7558  0.6121
   82CHL1    C5 8482   5.633   5.774   6.278 -0.6052  0.7190 -0.2961
   82CHL1    C6 8483   5.708   5.881   6.302 -0.1424 -0.5143 -0.5729
   82CHL1    H6 8484   5.755   5.939   6.222  0.8641  1.2015  1.2347
   82CHL1    C7 8485   5.741   5.927   6.443  0.1615  0.2961 -0.4125
   82CHL1   H7A 8486   5.847   5.959   6.451  0.5801 -1.0540 -0.3698
   82CHL1   H7B 8487   5.675   6.012   6.469 -0.0824 -0.0332  0.0403
   82CHL1    C8 8488   5.724   5.821   6.549  0.1962  0.4702  0.3776
   82CHL1    H8 8489   5.810   5.750   6.540 -0.8614 -0.8187  0.2587
   82CHL1   C14 8490   5.718   5.875   6.688 -0.0171 -0.3981 -0.5896
   82CHL1   H14 8491   5.640   5.953   6.702  1.3524  0.7561  0.7875
   82CHL1   C15 8492   5.840   5.959   6.735  0.2405  0.2661 -0.0424
   82CHL1  H15A 8493   5.934   5.906   6.709  0.3792  1.0311 -1.1199
   82CHL1  H15B 8494   5.844   6.062   6.693  0.1328 -0.3698 -1.6322
   82CHL1   C16 8495   5.816   5.975   6.890  0.6919 -0.2560  0.4067
   82CHL1  H16A 8496   5.916   5.956   6.937  1.1388  1.5339  0.1998
   82CHL1  H16B 8497   5.798   6.082   6.915 -0.3399 -0.6558  1.4364
   82CHL1   C17 8498   5.714   5.871   6.932 -0.5097 -0.3657  0.0334
   82CHL1   H17 8499   5.621   5.932   6.930 -1.4346 -1.7517  0.0331
   82CHL1   C13 8500   5.702   5.776   6.810 -0.6417 -0.3576 -0.9798
   82CHL1   C18 8501   5.823   5.672   6.807 -0.9295 -0.4203 -0.5836
   82CHL1  H18A 8502   5.809   5.596   6.886 -1.0918 -0.9096 -1.0781
   82CHL1  H18B 8503   5.821   5.632   6.703  2.1713  2.7686 -1.9778
   82CHL1  H18C 8504   5.919   5.725   6.821 -1.9950  1.6196 -0.7633
   82CHL1   C12 8505   5.567   5.714   6.792  0.3749 -0.1010 -0.5197
   82CHL1  H12A 8506   5.541   5.635   6.865 -0.2316 -0.2790 -0.9254
   82CHL1  H12B 8507   5.490   5.794   6.795 -1.2484 -1.5708 -2.2772
   82CHL1   C11 8508   5.551   5.646   6.654 -0.1078 -0.0172  0.7462
   82CHL1  H11A 8509   5.615   5.556   6.653 -1.3362 -0.8968 -1.4828
   82CHL1  H11B 8510   5.446   5.614   6.636  0.2980 -0.3565 -1.1154
   82CHL1    C9 8511   5.592   5.744   6.536 -0.5830 -0.1687  0.2248
   82CHL1    H9 8512   5.518   5.827   6.539  1.8981  2.2115 -1.9737
   82CHL1   C10 8513   5.575   5.684   6.392  0.4840  0.1822  0.0127
   82CHL1   C19 8514   5.646   5.548   6.391 -0.9029 -0.6000 -0.2987
   82CHL1  H19A 8515   5.743   5.558   6.444 -0.9637  2.8793 -0.7363
   82CHL1  H19B 8516   5.583   5.478   6.451  0.8930 -1.5577  0.4881
   82CHL1  H19C 8517   5.657   5.511   6.287  3.5935  0.2563 -0.2261
   82CHL1    C1 8518   5.425   5.657   6.365  0.2457 -0.2544  0.1354
   82CHL1   H1A 8519   5.387   5.573   6.426 -0.9964 -0.8941 -1.4758
   82CHL1   H1B 8520   5.365   5.746   6.392 -1.8266 -1.8834  1.0385
   82CHL1    C2 8521   5.381   5.624   6.218 -0.4725  1.2792  0.3603
   82CHL1   H2A 8522   5.271   5.630   6.200 -0.4585 -1.9639 -1.1324
   82CHL1   H2B 8523   5.404   5.518   6.194  1.6127  1.5059  1.3160
   82CHL1   C20 8524   5.711   5.823   7.081  0.8415  0.3083 -0.3948
   82CHL1   H20 8525   5.622   5.758   7.089  1.0547  0.2433  1.7936
   82CHL1   C21 8526   5.679   5.948   7.164  0.3989  0.0637  0.9396
   82CHL1  H21A 8527   5.773   6.008   7.169  0.5491 -0.0023 -0.7889
   82CHL1  H21B 8528   5.649   5.924   7.269  0.3264  1.9739  1.3794
   82CHL1  H21C 8529   5.597   6.014   7.126 -0.6336 -2.1833 -0.8229
   82CHL1   C22 8530   5.831   5.734   7.119  0.0354 -0.4967  0.0396
   82CHL1  H22A 8531   5.818   5.629   7.083  0.5705 -0.9106  1.0424
   82CHL1  H22B 8532   5.918   5.777   7.065  0.4411  1.5780  2.2717
   82CHL1   C23 8533   5.857   5.726   7.270  0.1361 -0.0042  0.1498
   82CHL1  H23A 8534   5.960   5.689   7.291  0.6040  0.9552 -0.4370
   82CHL1  H23B 8535   5.859   5.831   7.305 -0.8116 -0.2641  0.9846
   82CHL1   C24 8536   5.753   5.644   7.354  0.5470  0.3642  0.6008
   82CHL1  H24A 8537   5.657   5.689   7.320  0.3288 -2.6367 -3.1453
   82CHL1  H24B 8538   5.747   5.544   7.308  0.9913  0.7296 -0.2741
   82CHL1   C25 8539   5.770   5.643   7.509 -0.0435 -0.6347  0.0440
   82CHL1   H25 8540   5.879   5.648   7.526  0.1822  0.4820 -1.6067
   82CHL1   C26 8541   5.720   5.769   7.584 -0.5168  0.0384 -0.1144
   82CHL1  H26A 8542   5.612   5.792   7.570 -0.5702  1.0082  1.7215
   82CHL1  H26B 8543   5.728   5.763   7.694  0.0776 -1.4344 -0.2260
   82CHL1  H26C 8544   5.783   5.857   7.557 -0.6382 -0.1250 -0.9413
   82CHL1   C27 8545   5.710   5.522   7.582  0.4008  0.1429  0.6790
   82CHL1  H27A 8546   5.773   5.502   7.671  0.3724  1.0253  0.9097
   82CHL1  H27B 8547   5.610   5.546   7.623  0.9681  0.2956  2.0244
   82CHL1  H27C 8548   5.690   5.437   7.514 -0.6876  0.1475  0.9861
   83CHL1    C3 8549   3.637   6.590   6.097 -1.3451 -0.5796  0.2324
   83CHL1    H3 8550   3.696   6.496   6.102  1.3820  0.8813 -2.5637
   83CHL1    O3 8551   3.627   6.608   5.949 -0.6252 -0.4008 -0.1799
   83CHL1   H3' 8552   3.534   6.632   5.938 -0.7993 -0.8977  0.1784
   83CHL1    C4 8553   3.496   6.573   6.159  0.5190 -0.3960 -0.9086
   83CHL1   H4A 8554   3.425   6.651   6.127  0.7076 -0.1787 -0.7979
   83CHL1   H4B 8555   3.455   6.473   6.134 -0.6195  0.1285 -1.1341
   83CHL1    C5 8556   3.501   6.576   6.312  0.1882  0.8127  0.5992
   83CHL1    C6 8557   3.454   6.469   6.385  0.2018  0.4733  0.5406
   83CHL1    H6 8558   3.421   6.376   6.337  0.4974  0.6782 -0.0616
   83CHL1    C7 8559   3.464   6.456   6.536  0.1230 -0.0213 -0.2670
   83CHL1   H7A 8560   3.374   6.404   6.575  0.1379 -0.1448 -0.3940
   83CHL1   H7B 8561   3.552   6.392   6.559 -0.6937 -1.1463 -0.2184
   83CHL1    C8 8562   3.486   6.599   6.597  0.6034  0.7482 -0.1189
   83CHL1    H8 8563   3.394   6.656   6.574  0.4374 -0.5596 -2.9731
   83CHL1   C14 8564   3.497   6.587   6.748  0.0285  0.5029 -0.1793
   83CHL1   H14 8565   3.586   6.521   6.757  1.1611  2.3434  2.7737
   83CHL1   C15 8566   3.387   6.521   6.829  0.6256  0.0803  0.0664
   83CHL1  H15A 8567   3.285   6.552   6.796 -0.9045 -1.6183  3.0213
   83CHL1  H15B 8568   3.384   6.410   6.820 -0.1007  0.0877  0.1626
   83CHL1   C16 8569   3.404   6.562   6.978  0.1818  0.4618  0.4384
   83CHL1  H16A 8570   3.305   6.605   7.003  0.5217  0.3836  1.9524
   83CHL1  H16B 8571   3.427   6.477   7.044  3.5975 -0.0966 -1.3614
   83CHL1   C17 8572   3.510   6.661   6.972  0.0381 -0.1192 -0.1518
   83CHL1   H17 8573   3.607   6.610   6.988 -0.2229 -0.7173 -0.4561
   83CHL1   C13 8574   3.522   6.717   6.825  0.8693 -0.1726  0.4020
   83CHL1   C18 8575   3.404   6.819   6.811  0.4903  0.1798  0.1836
   83CHL1  H18A 8576   3.420   6.915   6.864  0.9698 -0.2065  0.7519
   83CHL1  H18B 8577   3.390   6.848   6.705  1.5244 -1.8641 -0.5448
   83CHL1  H18C 8578   3.308   6.771   6.843  0.0388  0.8151 -0.2262
   83CHL1   C12 8579   3.653   6.771   6.769 -0.3879 -0.2914 -1.3892
   83CHL1  H12A 8580   3.693   6.863   6.817 -2.2465  0.0112 -0.3755
   83CHL1  H12B 8581   3.733   6.693   6.777  1.5092  1.6208 -1.2518
   83CHL1   C11 8582   3.642   6.801   6.617 -0.4444  0.4797  0.9669
   83CHL1  H11A 8583   3.569   6.883   6.598  0.0691  1.2316  2.1323
   83CHL1  H11B 8584   3.741   6.818   6.570 -1.1284 -1.5128 -1.3102
   83CHL1    C9 8585   3.605   6.670   6.532 -0.4731 -1.1083 -0.2546
   83CHL1    H9 8586   3.688   6.599   6.550  0.1105 -0.3322  0.1574
   83CHL1   C10 8587   3.577   6.692   6.380 -0.0230  0.0624  0.3488
   83CHL1   C19 8588   3.490   6.822   6.357  0.1842  0.0593 -0.0606
   83CHL1  H19A 8589   3.407   6.827   6.430  0.9295  0.3410  0.7846
   83CHL1  H19B 8590   3.560   6.907   6.374  0.7165 -0.6437  1.3357
   83CHL1  H19C 8591   3.452   6.830   6.253  0.9219  0.9767 -0.2670
   83CHL1    C1 8592   3.712   6.712   6.308 -0.3421 -0.8553 -0.7261
   83CHL1   H1A 8593   3.762   6.802   6.349  0.8867 -1.7960 -0.1008
   83CHL1   H1B 8594   3.773   6.623   6.336 -0.3128 -0.0766  1.8819
   83CHL1    C2 8595   3.710   6.708   6.153 -0.4915  0.2959 -0.4187
   83CHL1   H2A 8596   3.811   6.712   6.108 -0.8629  1.8422 -1.1698
   83CHL1   H2B 8597   3.655   6.799   6.120  0.9494  0.3845 -2.6180
   83CHL1   C20 8598   3.507   6.768   7.086  0.0702 -0.0906  0.1880
   83CHL1   H20 8599   3.427   6.842   7.065  0.7353  0.2060 -1.3645
   83CHL1   C21 8600   3.643   6.841   7.088 -0.4676  0.2950 -0.0322
   83CHL1  H21A 8601   3.722   6.764   7.083 -0.3064  0.3660  1.1161
   83CHL1  H21B 8602   3.652   6.909   7.176  1.8871 -0.3155  0.2427
   83CHL1  H21C 8603   3.654   6.903   6.997 -0.9033 -0.5933 -0.6936
   83CHL1   C22 8604   3.466   6.712   7.230  0.7607 -0.1908  0.2744
   83CHL1  H22A 8605   3.378   6.644   7.222  2.3611 -2.1166 -1.4908
   83CHL1  H22B 8606   3.549   6.642   7.255 -0.0617 -0.7681  1.4640
   83CHL1   C23 8607   3.436   6.812   7.338 -0.4350 -0.4067  0.1662
   83CHL1  H23A 8608   3.505   6.899   7.328 -0.9751 -0.1785 -1.6906
   83CHL1  H23B 8609   3.329   6.842   7.341 -0.3263  0.0789 -0.7225
   83CHL1   C24 8610   3.466   6.751   7.477  0.5766 -0.4486  0.3585
   83CHL1  H24A 8611   3.394   6.669   7.500  0.1281 -0.0865  0.2504
   83CHL1  H24B 8612   3.569   6.709   7.481  0.3497 -1.2315 -1.6209
   83CHL1   C25 8613   3.440   6.853   7.602  0.4050 -0.4531  0.9683
   83CHL1   H25 8614   3.517   6.932   7.591 -0.9026  0.8476  1.1225
   83CHL1   C26 8615   3.302   6.908   7.587 -0.3860 -0.1858  0.2058
   83CHL1  H26A 8616   3.223   6.834   7.614 -0.4630  0.0758  0.7089
   83CHL1  H26B 8617   3.298   6.984   7.668  1.0502 -0.5749  0.6770
   83CHL1  H26C 8618   3.286   6.955   7.488 -1.2510  1.5687  1.1641
   83CHL1   C27 8619   3.464   6.777   7.732 -0.2953  0.3275 -0.3414
   83CHL1  H27A 8620   3.373   6.721   7.762  1.3124 -0.4027  3.3354
   83CHL1  H27B 8621   3.542   6.699   7.723 -2.0871 -1.6081  0.4292
   83CHL1  H27C 8622   3.491   6.853   7.808 -1.2919 -0.9453  1.3257
   84CHL1    C3 8623   5.997   1.927   6.142 -0.1272 -0.2697  0.4008
   84CHL1    H3 8624   5.914   1.854   6.141  0.0628 -0.4927 -1.9340
   84CHL1    O3 8625   6.014   1.972   6.016 -0.2401 -0.2079 -0.0538
   84CHL1   H3' 8626   6.088   2.032   6.021  1.8777 -2.5494 -1.5718
   84CHL1    C4 8627   5.976   2.045   6.240  0.2724 -0.0214  0.0631
   84CHL1   H4A 8628   6.044   2.133   6.243  1.3638 -0.8884  2.9260
   84CHL1   H4B 8629   5.879   2.088   6.208 -1.0569 -1.4688  2.0211
   84CHL1    C5 8630   5.958   1.993   6.386  0.3910 -0.1793  0.6088
   84CHL1    C6 8631   5.844   2.014   6.458  0.1145 -0.3107  0.1089
   84CHL1    H6 8632   5.765   2.067   6.403  2.0307  3.0334  0.4094
   84CHL1    C7 8633   5.827   1.972   6.599 -0.6345 -0.0147 -0.2076
   84CHL1   H7A 8634   5.789   2.060   6.655  2.7972  1.6602 -0.3636
   84CHL1   H7B 8635   5.751   1.892   6.611  0.3056 -0.6982  1.3656
   84CHL1    C8 8636   5.962   1.935   6.659 -1.0660 -0.2657  0.1884
   84CHL1    H8 8637   6.017   2.031   6.663  1.0760 -1.4899  0.9775
   84CHL1   C14 8638   5.946   1.868   6.793 -0.4178 -0.2266 -0.6623
   84CHL1   H14 8639   5.901   1.769   6.771  0.3304 -0.7128 -0.0076
   84CHL1   C15 8640   5.848   1.936   6.891 -0.0106  0.0620 -0.0707
   84CHL1  H15A 8641   5.850   2.047   6.897  0.7841 -0.0205  1.5321
   84CHL1  H15B 8642   5.746   1.900   6.869  0.8175 -1.6340 -1.2613
   84CHL1   C16 8643   5.901   1.889   7.032 -0.5278 -0.0833  0.4935
   84CHL1  H16A 8644   5.916   1.980   7.093  0.4124 -0.2456  0.5076
   84CHL1  H16B 8645   5.820   1.822   7.068 -1.6948  0.6783 -0.6747
   84CHL1   C17 8646   6.025   1.799   7.005  0.1403 -0.5414 -0.0199
   84CHL1   H17 8647   5.985   1.696   7.005  1.1306 -0.9387  0.2574
   84CHL1   C13 8648   6.075   1.844   6.868 -0.2813 -0.2020  0.1221
   84CHL1   C18 8649   6.156   1.975   6.886 -0.1269 -0.3404 -0.4255
   84CHL1  H18A 8650   6.196   2.016   6.790 -0.2679  0.2679 -0.2248
   84CHL1  H18B 8651   6.098   2.047   6.947 -0.9884 -0.3067 -1.2618
   84CHL1  H18C 8652   6.250   1.942   6.935  0.1338  0.9395 -0.0476
   84CHL1   C12 8653   6.153   1.732   6.789 -0.1951 -0.3089  0.0571
   84CHL1  H12A 8654   6.254   1.719   6.832 -0.9196  2.2053  2.7264
   84CHL1  H12B 8655   6.108   1.631   6.793  1.2559 -1.0237 -1.0519
   84CHL1   C11 8656   6.176   1.783   6.647  0.2486 -0.0003  0.3239
   84CHL1  H11A 8657   6.251   1.866   6.650  0.2932  0.0256 -1.2851
   84CHL1  H11B 8658   6.223   1.708   6.580  1.3022 -1.1054  2.2529
   84CHL1    C9 8659   6.048   1.838   6.572  0.3552 -0.1266  0.6463
   84CHL1    H9 8660   5.979   1.754   6.548  0.0479  0.5057 -0.7960
   84CHL1   C10 8661   6.079   1.907   6.435  0.4189 -0.2111 -0.0730
   84CHL1   C19 8662   6.204   2.003   6.457 -0.8008  0.0638 -0.1367
   84CHL1  H19A 8663   6.184   2.049   6.556 -2.4843 -2.5210  0.7953
   84CHL1  H19B 8664   6.298   1.943   6.463 -0.2448  0.9601  0.1354
   84CHL1  H19C 8665   6.211   2.079   6.377  0.2788  1.1770  1.0020
   84CHL1    C1 8666   6.098   1.795   6.329 -0.1159  0.5217 -0.0232
   84CHL1   H1A 8667   6.188   1.733   6.348 -0.6020 -0.2015 -0.0562
   84CHL1   H1B 8668   6.016   1.720   6.331  1.3821 -1.1281  2.1608
   84CHL1    C2 8669   6.120   1.853   6.187  0.6577 -0.8216  0.6569
   84CHL1   H2A 8670   6.144   1.770   6.118 -3.0002 -1.6477  0.2761
   84CHL1   H2B 8671   6.201   1.929   6.189  0.4491 -0.6291  2.4116
   84CHL1   C20 8672   6.126   1.802   7.124 -0.0447 -0.5148  0.0023
   84CHL1   H20 8673   6.197   1.887   7.118  0.8553 -1.2124  0.4613
   84CHL1   C21 8674   6.222   1.679   7.114  0.1029 -0.0223  0.5521
   84CHL1  H21A 8675   6.284   1.704   7.025 -0.7940  1.6571  0.3932
   84CHL1  H21B 8676   6.152   1.593   7.102  0.5576 -0.2867 -0.2518
   84CHL1  H21C 8677   6.286   1.669   7.205  1.6829  0.6944 -0.4536
   84CHL1   C22 8678   6.057   1.808   7.259 -0.2476 -0.4194  0.0146
   84CHL1  H22A 8679   5.975   1.882   7.266  0.5939  0.6263 -1.0460
   84CHL1  H22B 8680   6.009   1.712   7.289 -2.2341  0.2115 -1.0641
   84CHL1   C23 8681   6.155   1.846   7.373 -0.3040  0.3187  0.9191
   84CHL1  H23A 8682   6.234   1.768   7.377  1.6395  2.1681 -0.4922
   84CHL1  H23B 8683   6.196   1.944   7.342 -2.0471  1.3118  1.6720
   84CHL1   C24 8684   6.099   1.877   7.510 -0.2681 -0.2377  0.3208
   84CHL1  H24A 8685   6.046   1.973   7.495  1.9720  0.8884 -0.7010
   84CHL1  H24B 8686   6.017   1.807   7.538 -0.1251  0.3691  2.3282
   84CHL1   C25 8687   6.203   1.883   7.622 -0.4613  0.3667  0.2729
   84CHL1   H25 8688   6.262   1.789   7.609  1.5242  1.8203 -1.7710
   84CHL1   C26 8689   6.306   2.002   7.618  0.7784  0.0120  0.0226
   84CHL1  H26A 8690   6.242   2.092   7.606 -0.2414 -0.6433  0.4243
   84CHL1  H26B 8691   6.363   2.003   7.713 -0.8566 -0.2752  1.0323
   84CHL1  H26C 8692   6.376   1.991   7.532  2.6345 -2.0084  1.7276
   84CHL1   C27 8693   6.140   1.887   7.760  0.3245  0.4442 -0.0817
   84CHL1  H27A 8694   6.090   1.984   7.779 -1.3826 -0.9458  3.0816
   84CHL1  H27B 8695   6.069   1.802   7.772 -0.0370  0.6142 -0.9803
   84CHL1  H27C 8696   6.211   1.874   7.845 -1.9697 -1.1131  1.6934
   85CHL1    C3 8697   4.829   5.787   6.007  0.0873 -0.3782 -0.3264
   85CHL1    H3 8698   4.794   5.683   6.025  2.4611 -1.4991 -1.9533
   85CHL1    O3 8699   4.796   5.823   5.872  0.4603  0.7646 -0.5714
   85CHL1   H3' 8700   4.854   5.897   5.851 -0.3507  0.9760 -2.1730
   85CHL1    C4 8701   4.758   5.891   6.105  0.3655 -0.0269 -0.3739
   85CHL1   H4A 8702   4.759   5.988   6.052 -0.4670  1.1125  1.6242
   85CHL1   H4B 8703   4.650   5.863   6.101  0.1054  0.2499  3.0763
   85CHL1    C5 8704   4.810   5.903   6.249 -0.7504 -0.0296  0.0279
   85CHL1    C6 8705   4.737   5.884   6.358  0.1685  0.7451 -0.1666
   85CHL1    H6 8706   4.631   5.861   6.339  0.7654 -1.2013 -1.3080
   85CHL1    C7 8707   4.794   5.898   6.497 -0.4182  1.3024 -0.2405
   85CHL1   H7A 8708   4.718   5.949   6.560  0.4753  3.8715 -1.2214
   85CHL1   H7B 8709   4.819   5.800   6.543 -1.5958  0.5380 -1.1951
   85CHL1    C8 8710   4.918   5.984   6.490 -1.1339  0.0452 -0.1113
   85CHL1    H8 8711   4.899   6.089   6.459 -0.5965  0.6030  1.3541
   85CHL1   C14 8712   4.988   5.977   6.632  1.0759  0.2422 -0.6716
   85CHL1   H14 8713   5.016   5.873   6.658  0.0636  0.3350  0.9214
   85CHL1   C15 8714   4.903   6.020   6.750  0.2999 -0.5327  0.1431
   85CHL1  H15A 8715   4.865   6.124   6.738 -0.7856 -0.9586 -0.0855
   85CHL1  H15B 8716   4.818   5.950   6.755 -0.0380 -0.3694 -2.7035
   85CHL1   C16 8717   4.998   6.020   6.871  0.5442 -0.2724 -0.6353
   85CHL1  H16A 8718   4.985   6.116   6.925  0.1621 -0.5821 -0.1791
   85CHL1  H16B 8719   4.985   5.934   6.940  0.3506  0.5395  0.3546
   85CHL1   C17 8720   5.143   6.013   6.804  0.2649  0.2213 -0.6799
   85CHL1   H17 8721   5.171   5.905   6.810  2.9659  0.9121  0.0170
   85CHL1   C13 8722   5.126   6.045   6.653 -0.3737 -0.2326 -0.0021
   85CHL1   C18 8723   5.114   6.201   6.626 -0.3194 -0.0644 -0.1217
   85CHL1  H18A 8724   5.215   6.247   6.623 -0.9112  1.2033 -1.6374
   85CHL1  H18B 8725   5.064   6.219   6.528 -2.2568  0.3063  0.8946
   85CHL1  H18C 8726   5.053   6.252   6.704  0.6729  0.2501  0.4541
   85CHL1   C12 8727   5.224   5.982   6.555  0.7364 -0.3702 -0.5467
   85CHL1  H12A 8728   5.320   6.038   6.560 -0.3497  1.5550 -0.5933
   85CHL1  H12B 8729   5.238   5.872   6.557  0.3353 -0.4149  1.5106
   85CHL1   C11 8730   5.158   5.999   6.415 -0.0948 -0.9474  0.8074
   85CHL1  H11A 8731   5.157   6.109   6.398  0.4522 -1.2147 -1.0733
   85CHL1  H11B 8732   5.225   5.959   6.336 -1.6302 -0.4165 -0.7915
   85CHL1    C9 8733   5.019   5.920   6.393  0.0612 -0.2987 -0.4090
   85CHL1    H9 8734   5.033   5.815   6.426 -0.2020  0.4395  2.1438
   85CHL1   C10 8735   4.960   5.922   6.250 -1.2135 -0.7049 -0.0878
   85CHL1   C19 8736   4.996   6.063   6.190 -0.6192  0.6409  0.0791
   85CHL1  H19A 8737   4.956   6.086   6.088  0.4529  1.4094 -0.1828
   85CHL1  H19B 8738   4.959   6.149   6.250 -0.7694  2.5385 -2.6303
   85CHL1  H19C 8739   5.106   6.074   6.176 -0.2918 -3.0517 -0.9183
   85CHL1    C1 8740   5.031   5.821   6.163  0.2339  0.1124 -0.1241
   85CHL1   H1A 8741   5.139   5.848   6.161  0.5164 -0.9509  0.2670
   85CHL1   H1B 8742   5.034   5.722   6.212  1.4509 -0.3687 -1.1377
   85CHL1    C2 8743   4.982   5.805   6.022 -0.4862  0.1801 -0.7611
   85CHL1   H2A 8744   5.032   5.714   5.983  0.0558 -0.2719  0.9498
   85CHL1   H2B 8745   5.017   5.901   5.978 -0.2712  0.8070  0.7600
   85CHL1   C20 8746   5.247   6.094   6.888 -0.0246 -0.0613 -0.3015
   85CHL1   H20 8747   5.205   6.196   6.905  4.2425  1.9116 -0.8475
   85CHL1   C21 8748   5.380   6.091   6.820  0.3352 -0.6571  0.3977
   85CHL1  H21A 8749   5.424   5.992   6.796 -1.9614 -1.7441  0.5832
   85CHL1  H21B 8750   5.453   6.147   6.883 -1.1257  0.4536  1.1357
   85CHL1  H21C 8751   5.382   6.150   6.726  2.7298 -2.2221 -0.5823
   85CHL1   C22 8752   5.258   6.038   7.036 -0.2493  1.0989  0.0975
   85CHL1  H22A 8753   5.344   6.086   7.087 -1.6368  2.8184  0.8767
   85CHL1  H22B 8754   5.165   6.066   7.090 -0.3135 -1.6951  1.5549
   85CHL1   C23 8755   5.272   5.886   7.056 -0.3059 -0.0117  0.0051
   85CHL1  H23A 8756   5.172   5.844   7.035 -1.6641  2.2946  1.6419
   85CHL1  H23B 8757   5.348   5.852   6.982 -0.2266  1.3992 -0.5779
   85CHL1   C24 8758   5.304   5.846   7.200 -0.9034  0.1100  0.0890
   85CHL1  H24A 8759   5.406   5.878   7.230 -1.9936  1.8393  2.0922
   85CHL1  H24B 8760   5.236   5.916   7.254  0.8396  0.4767  1.8749
   85CHL1   C25 8761   5.283   5.702   7.243  0.5307  0.9521  0.5804
   85CHL1   H25 8762   5.183   5.666   7.211  1.5264 -1.0007 -0.3803
   85CHL1   C26 8763   5.387   5.609   7.194  0.8614 -0.2226 -1.2626
   85CHL1  H26A 8764   5.423   5.626   7.090  3.9316 -0.1229 -0.2263
   85CHL1  H26B 8765   5.474   5.615   7.263 -1.6077 -0.2928  1.9281
   85CHL1  H26C 8766   5.354   5.503   7.191  0.1681 -0.0455 -0.1450
   85CHL1   C27 8767   5.284   5.706   7.400 -0.1869  0.2468  1.0674
   85CHL1  H27A 8768   5.278   5.605   7.447 -0.8654 -1.3334 -2.2615
   85CHL1  H27B 8769   5.387   5.737   7.428  0.6426 -1.9413  0.5141
   85CHL1  H27C 8770   5.208   5.777   7.439 -2.0612 -1.9871  1.5927
   86CHL1    C3 8771   6.967   4.075   6.059 -0.0550  0.0718 -0.0637
   86CHL1    H3 8772   7.042   4.156   6.074  0.7827 -0.4244 -1.4878
   86CHL1    O3 8773   6.975   4.042   5.919  0.4202 -0.6333  0.3135
   86CHL1   H3' 8774   6.915   3.971   5.894 -2.3329  1.9278 -0.5341
   86CHL1    C4 8775   6.998   3.950   6.141  0.4355  0.2965 -0.3134
   86CHL1   H4A 8776   6.938   3.861   6.116  0.3663  0.8934 -2.3844
   86CHL1   H4B 8777   7.103   3.918   6.122  0.8830  0.4499  1.7798
   86CHL1    C5 8778   6.996   3.989   6.288  0.3806  0.1985 -0.1261
   86CHL1    C6 8779   7.102   3.968   6.373 -0.1483  0.5604  0.2468
   86CHL1    H6 8780   7.199   3.939   6.330 -0.4576  2.3569 -1.7336
   86CHL1    C7 8781   7.098   4.004   6.519  0.2764 -1.0682 -0.1710
   86CHL1   H7A 8782   7.145   3.937   6.594  1.2227 -0.9077 -0.6135
   86CHL1   H7B 8783   7.146   4.104   6.528 -0.9672 -0.5663  1.0144
   86CHL1    C8 8784   6.951   4.017   6.580 -0.0258  0.2813  0.2367
   86CHL1    H8 8785   6.915   3.913   6.590  0.3960  0.1369  0.2660
   86CHL1   C14 8786   6.951   4.075   6.724  0.8048 -0.4378 -0.6633
   86CHL1   H14 8787   6.990   4.178   6.707 -0.2444  0.3603  1.6060
   86CHL1   C15 8788   7.025   4.004   6.835 -1.3181 -0.1580  0.5031
   86CHL1  H15A 8789   7.009   3.894   6.825 -2.5273 -0.1720  2.3059
   86CHL1  H15B 8790   7.135   4.015   6.822 -1.6469  0.8786 -1.6026
   86CHL1   C16 8791   6.974   4.068   6.967 -0.2414  0.1535 -1.1383
   86CHL1  H16A 8792   6.964   3.984   7.040 -1.4107  0.0392 -1.4216
   86CHL1  H16B 8793   7.058   4.132   7.002 -1.8600  1.6039  0.1929
   86CHL1   C17 8794   6.853   4.151   6.923 -0.3231  0.2060  0.8838
   86CHL1   H17 8795   6.883   4.257   6.907  1.9042 -0.7122 -1.4898
   86CHL1   C13 8796   6.819   4.102   6.783  0.1647 -0.2772  0.5257
   86CHL1   C18 8797   6.741   3.969   6.795  0.1215  0.4860 -0.1709
   86CHL1  H18A 8798   6.729   3.909   6.702 -1.0552 -3.1028  2.1875
   86CHL1  H18B 8799   6.786   3.895   6.864 -0.9142  1.7870  1.9562
   86CHL1  H18C 8800   6.635   3.974   6.830  0.0167  0.4852 -0.4772
   86CHL1   C12 8801   6.737   4.201   6.691  0.6448  0.3829  0.0528
   86CHL1  H12A 8802   6.631   4.222   6.718 -0.0334 -3.1836  0.4946
   86CHL1  H12B 8803   6.793   4.296   6.698 -0.9971  1.6065 -2.5784
   86CHL1   C11 8804   6.737   4.154   6.545  0.2628 -0.0171 -0.4251
   86CHL1  H11A 8805   6.655   4.079   6.546  0.2503  0.0032  2.2502
   86CHL1  H11B 8806   6.696   4.240   6.487  0.2431 -0.2663 -0.7834
   86CHL1    C9 8807   6.871   4.104   6.482 -0.6547 -0.1490 -0.3423
   86CHL1    H9 8808   6.937   4.193   6.478  1.9453 -2.0414 -0.6666
   86CHL1   C10 8809   6.868   4.054   6.334 -0.1855 -0.2395 -0.0393
   86CHL1   C19 8810   6.758   3.941   6.325 -0.0482 -0.2190  0.1841
   86CHL1  H19A 8811   6.754   3.882   6.419  2.6912 -0.2501  0.3225
   86CHL1  H19B 8812   6.655   3.984   6.321 -0.5704 -1.3216  1.2005
   86CHL1  H19C 8813   6.767   3.880   6.232  1.1881 -0.6105  0.5609
   86CHL1    C1 8814   6.826   4.170   6.236 -0.4074 -0.6755  0.0813
   86CHL1   H1A 8815   6.725   4.199   6.271 -0.7027  0.6067 -1.7546
   86CHL1   H1B 8816   6.896   4.253   6.256  1.2805 -1.9577 -0.4028
   86CHL1    C2 8817   6.825   4.137   6.084  0.1372  0.6909 -0.1935
   86CHL1   H2A 8818   6.811   4.232   6.029  2.3790  1.3059  0.2759
   86CHL1   H2B 8819   6.741   4.067   6.064 -0.9595  1.8146  0.4234
   86CHL1   C20 8820   6.752   4.138   7.037 -0.1291 -0.0929 -0.2958
   86CHL1   H20 8821   6.718   4.035   7.056 -0.1569  0.5287  3.2500
   86CHL1   C21 8822   6.623   4.222   7.002  0.0726 -0.5997  0.2342
   86CHL1  H21A 8823   6.555   4.164   6.936 -1.7224  0.6391  0.9603
   86CHL1  H21B 8824   6.653   4.311   6.943  0.0989 -0.8649 -0.1514
   86CHL1  H21C 8825   6.556   4.244   7.088 -1.2064 -0.6095 -0.7555
   86CHL1   C22 8826   6.818   4.198   7.166 -0.3593  0.2719  0.3226
   86CHL1  H22A 8827   6.920   4.164   7.195 -0.6073 -1.1551 -0.4516
   86CHL1  H22B 8828   6.836   4.308   7.161 -2.1242  0.5445 -0.5468
   86CHL1   C23 8829   6.728   4.174   7.286 -0.2216  0.2493  1.0839
   86CHL1  H23A 8830   6.624   4.158   7.251 -0.2435  0.3227  1.1131
   86CHL1  H23B 8831   6.743   4.077   7.338  1.0715  0.7527  1.6681
   86CHL1   C24 8832   6.715   4.288   7.400  0.3620  0.0735  0.6518
   86CHL1  H24A 8833   6.708   4.386   7.349 -2.6118  0.2381  1.3044
   86CHL1  H24B 8834   6.615   4.266   7.444 -0.2668  2.2778  0.3634
   86CHL1   C25 8835   6.824   4.285   7.503  0.1755 -0.0764 -1.2161
   86CHL1   H25 8836   6.826   4.384   7.553 -0.5081 -1.7695  2.3297
   86CHL1   C26 8837   6.791   4.186   7.625 -1.1833  0.3989 -0.3301
   86CHL1  H26A 8838   6.681   4.198   7.639 -1.4265  1.9001 -3.1801
   86CHL1  H26B 8839   6.809   4.083   7.589  2.3076  0.9897 -0.4495
   86CHL1  H26C 8840   6.856   4.190   7.715 -1.9040  2.0595  0.1525
   86CHL1   C27 8841   6.970   4.258   7.451 -0.3374 -0.6401  0.4796
   86CHL1  H27A 8842   6.989   4.310   7.355  1.1098  0.6005  1.4069
   86CHL1  H27B 8843   7.036   4.297   7.532  0.9174  0.7138 -1.1710
   86CHL1  H27C 8844   6.979   4.149   7.433 -1.9468 -0.9296  1.2590
   87CHL1    C3 8845   0.831   2.279   6.084 -0.1068  0.0982 -0.5245
   87CHL1    H3 8846   0.769   2.356   6.134  0.6185 -0.3425  1.0664
   87CHL1    O3 8847   0.813   2.302   5.946 -0.1422 -0.1562 -0.2807
   87CHL1   H3' 8848   0.772   2.219   5.918 -0.7437  0.5003 -1.3918
   87CHL1    C4 8849   0.979   2.303   6.113  0.2493 -0.2600 -0.6071
   87CHL1   H4A 8850   1.036   2.238   6.043  1.2058 -2.4254  2.0949
   87CHL1   H4B 8851   1.011   2.405   6.080  1.3224 -0.5322 -0.4453
   87CHL1    C5 8852   1.018   2.261   6.250  0.5668  0.3923  1.0964
   87CHL1    C6 8853   1.075   2.349   6.333  0.4061 -0.0685 -0.9198
   87CHL1    H6 8854   1.090   2.450   6.292  1.1156 -0.4060 -1.5118
   87CHL1    C7 8855   1.118   2.312   6.474 -0.1445  0.0189  0.2214
   87CHL1   H7A 8856   1.224   2.342   6.485 -0.2598  0.5759 -0.1618
   87CHL1   H7B 8857   1.061   2.374   6.547 -1.2252 -1.0725  0.3318
   87CHL1    C8 8858   1.106   2.161   6.502 -0.1325  0.4708 -0.5610
   87CHL1    H8 8859   1.192   2.107   6.458  1.4241  1.1247  1.5795
   87CHL1   C14 8860   1.115   2.144   6.652  0.9227  0.1001  0.7149
   87CHL1   H14 8861   1.034   2.206   6.697  0.2939 -0.8489  0.8999
   87CHL1   C15 8862   1.243   2.207   6.729  1.2415  0.4527  0.8437
   87CHL1  H15A 8863   1.338   2.187   6.675  0.2793  0.3839 -0.8571
   87CHL1  H15B 8864   1.230   2.317   6.740 -0.8339  0.3332 -0.1689
   87CHL1   C16 8865   1.241   2.132   6.864  0.3899  0.3269  0.6743
   87CHL1  H16A 8866   1.332   2.068   6.877 -0.7855 -1.3799  0.6419
   87CHL1  H16B 8867   1.238   2.208   6.945  2.1916  0.5378  0.5653
   87CHL1   C17 8868   1.117   2.041   6.856 -0.0372  0.0352  0.3397
   87CHL1   H17 8869   1.036   2.111   6.884 -0.1387  0.7557 -1.7170
   87CHL1   C13 8870   1.103   2.005   6.707 -0.2021  0.0163  0.3284
   87CHL1   C18 8871   1.218   1.914   6.666  0.1412 -0.1597  0.1396
   87CHL1  H18A 8872   1.203   1.811   6.705 -0.5345 -0.1156  0.0109
   87CHL1  H18B 8873   1.225   1.906   6.556 -2.1862  1.0409 -0.1237
   87CHL1  H18C 8874   1.313   1.953   6.709 -0.0490  2.3795 -1.6370
   87CHL1   C12 8875   0.970   1.944   6.667  0.8468 -0.5741  0.0248
   87CHL1  H12A 8876   0.974   1.836   6.689  0.3950 -0.7236 -0.5905
   87CHL1  H12B 8877   0.891   2.003   6.719 -1.4315  0.4354 -4.3136
   87CHL1   C11 8878   0.943   1.967   6.518  0.4393 -0.7689  0.1313
   87CHL1  H11A 8879   0.998   1.897   6.452 -1.9102 -0.6180 -2.1063
   87CHL1  H11B 8880   0.838   1.935   6.500  0.4471 -0.6082 -0.2177
   87CHL1    C9 8881   0.974   2.105   6.450  0.5078  0.7574  0.5769
   87CHL1    H9 8882   0.897   2.178   6.483 -0.5153 -1.1683  2.6422
   87CHL1   C10 8883   0.980   2.114   6.295  0.5955 -0.4983 -0.0269
   87CHL1   C19 8884   1.072   2.016   6.224  0.0859  0.3743 -0.2289
   87CHL1  H19A 8885   1.040   1.912   6.249 -0.3190  0.3663 -0.7696
   87CHL1  H19B 8886   1.077   2.023   6.113 -1.3286  0.0035 -0.3269
   87CHL1  H19C 8887   1.176   2.028   6.260  0.1411 -1.0642  0.1539
   87CHL1    C1 8888   0.838   2.095   6.252  0.3827 -0.6757  0.4706
   87CHL1   H1A 8889   0.800   1.991   6.267 -1.6160 -0.0030  0.1580
   87CHL1   H1B 8890   0.770   2.156   6.316  0.0221  0.2878 -0.8155
   87CHL1    C2 8891   0.789   2.139   6.108 -0.3943  0.7516  0.3105
   87CHL1   H2A 8892   0.679   2.122   6.106 -0.4786  1.2653  0.6270
   87CHL1   H2B 8893   0.839   2.069   6.037 -1.6943 -0.3316  0.4424
   87CHL1   C20 8894   1.105   1.924   6.954  0.1057 -0.1019 -0.0204
   87CHL1   H20 8895   1.129   1.831   6.898  3.2060  0.3338  0.5229
   87CHL1   C21 8896   0.959   1.932   7.006 -0.5823  0.0780  0.6438
   87CHL1  H21A 8897   0.957   1.859   7.090  1.0645 -3.6991 -2.4384
   87CHL1  H21B 8898   0.899   1.909   6.915 -0.8330  1.2471  0.5121
   87CHL1  H21C 8899   0.929   2.032   7.042 -1.9820 -0.1993  0.2913
   87CHL1   C22 8900   1.201   1.947   7.066  0.1384  0.9090  0.2105
   87CHL1  H22A 8901   1.307   1.960   7.035  0.6593 -0.8663  1.1402
   87CHL1  H22B 8902   1.185   2.044   7.117  1.9776 -0.7362  4.1745
   87CHL1   C23 8903   1.194   1.828   7.170  0.3680  0.5891 -0.5573
   87CHL1  H23A 8904   1.098   1.824   7.226 -0.0569  0.9164 -1.2497
   87CHL1  H23B 8905   1.226   1.729   7.132 -2.3617  0.0218 -1.4863
   87CHL1   C24 8906   1.303   1.866   7.279 -0.6042 -0.5240 -0.4245
   87CHL1  H24A 8907   1.401   1.891   7.232 -1.1260 -0.2568 -1.3837
   87CHL1  H24B 8908   1.258   1.949   7.337  0.0143  0.0809 -0.8057
   87CHL1   C25 8909   1.333   1.743   7.374  0.4702 -0.8065  0.0162
   87CHL1   H25 8910   1.311   1.651   7.317 -1.9697 -0.5287  0.4613
   87CHL1   C26 8911   1.479   1.742   7.415  0.3527  0.8359 -0.6667
   87CHL1  H26A 8912   1.498   1.839   7.465  0.3820  0.7877 -0.5855
   87CHL1  H26B 8913   1.506   1.667   7.492  1.1428  1.6824 -0.1165
   87CHL1  H26C 8914   1.551   1.728   7.332 -0.4871 -2.9226 -0.8718
   87CHL1   C27 8915   1.253   1.747   7.505  0.9298  0.1957 -0.9125
   87CHL1  H27A 8916   1.255   1.656   7.569  0.2130  0.0564 -1.0804
   87CHL1  H27B 8917   1.284   1.834   7.566  1.2375  0.6781 -1.7553
   87CHL1  H27C 8918   1.145   1.764   7.485  1.0815  1.1427 -0.9161
   88CHL1    C3 8919   4.603   0.352   5.945 -1.1141  0.2475 -0.9604
   88CHL1    H3 8920   4.616   0.252   5.991 -1.8770 -0.1655 -1.6257
   88CHL1    O3 8921   4.586   0.340   5.809  0.5966  0.1826  0.5890
   88CHL1   H3' 8922   4.500   0.300   5.798  1.1112 -0.6184 -0.6994
   88CHL1    C4 8923   4.492   0.431   6.010  0.1017 -0.1380 -0.6216
   88CHL1   H4A 8924   4.475   0.525   5.952 -1.6972  0.1810  0.3762
   88CHL1   H4B 8925   4.402   0.367   5.994 -0.7155  0.2579  2.1258
   88CHL1    C5 8926   4.503   0.467   6.156 -0.0335  0.6374  0.3800
   88CHL1    C6 8927   4.401   0.437   6.240  0.2477 -0.4635 -0.5388
   88CHL1    H6 8928   4.301   0.410   6.203  1.0410 -2.3620 -1.3095
   88CHL1    C7 8929   4.416   0.446   6.389  0.0558  0.3501 -0.2197
   88CHL1   H7A 8930   4.321   0.488   6.428 -0.5378 -0.5617 -0.6705
   88CHL1   H7B 8931   4.425   0.342   6.427 -0.0715  0.0160 -1.1006
   88CHL1    C8 8932   4.533   0.533   6.436 -0.5248 -0.4025 -0.6820
   88CHL1    H8 8933   4.508   0.638   6.410 -1.3169 -0.7278 -1.2451
   88CHL1   C14 8934   4.572   0.507   6.581 -0.0266 -0.4886  0.3480
   88CHL1   H14 8935   4.626   0.410   6.583  1.2646  0.2162  0.1312
   88CHL1   C15 8936   4.460   0.507   6.680  0.9918 -0.0499 -0.1431
   88CHL1  H15A 8937   4.392   0.594   6.667 -0.7482 -1.0948  1.7025
   88CHL1  H15B 8938   4.395   0.417   6.682  1.3635 -0.3234 -0.2734
   88CHL1   C16 8939   4.531   0.524   6.813  0.5919  0.2025  0.2128
   88CHL1  H16A 8940   4.493   0.607   6.876 -2.6650 -1.2201  0.2260
   88CHL1  H16B 8941   4.521   0.434   6.877 -1.5094 -0.5575 -1.1196
   88CHL1   C17 8942   4.682   0.550   6.782  0.4147 -0.7266  0.0765
   88CHL1   H17 8943   4.739   0.455   6.785  2.9429  0.6132 -2.3827
   88CHL1   C13 8944   4.672   0.601   6.636 -0.1138  0.0021  0.5013
   88CHL1   C18 8945   4.621   0.751   6.645 -0.1518  0.3091  0.3135
   88CHL1  H18A 8946   4.703   0.823   6.663 -0.9525  1.1107  0.7777
   88CHL1  H18B 8947   4.584   0.771   6.542 -0.2596 -0.9780  0.0911
   88CHL1  H18C 8948   4.538   0.763   6.718 -0.3470  1.1259 -0.0322
   88CHL1   C12 8949   4.803   0.584   6.560 -0.4505 -0.1961 -0.5996
   88CHL1  H12A 8950   4.876   0.654   6.605 -1.5248 -0.2562  1.2930
   88CHL1  H12B 8951   4.834   0.480   6.584  0.9158 -0.1047 -1.8680
   88CHL1   C11 8952   4.786   0.588   6.408  0.0726  0.2295 -0.4679
   88CHL1  H11A 8953   4.775   0.696   6.383 -3.3039 -0.8144 -3.9902
   88CHL1  H11B 8954   4.880   0.558   6.357  1.0798  0.7256  1.0629
   88CHL1    C9 8955   4.659   0.506   6.359  0.1420  0.3681 -0.0485
   88CHL1    H9 8956   4.691   0.400   6.371  0.4976  0.4895  0.0824
   88CHL1   C10 8957   4.637   0.522   6.201 -0.1612 -0.1079  0.0843
   88CHL1   C19 8958   4.626   0.671   6.163 -0.3518  0.1999 -0.1224
   88CHL1  H19A 8959   4.712   0.736   6.190  0.9822 -2.2568  1.7098
   88CHL1  H19B 8960   4.610   0.678   6.053 -1.4458  0.6686  0.0595
   88CHL1  H19C 8961   4.545   0.721   6.221  0.4373  1.4304 -0.0646
   88CHL1    C1 8962   4.753   0.454   6.119  1.0268  0.3924 -1.0051
   88CHL1   H1A 8963   4.850   0.504   6.141  1.9061 -1.5775 -0.2678
   88CHL1   H1B 8964   4.769   0.354   6.166  1.1087  0.2865 -1.2552
   88CHL1    C2 8965   4.728   0.436   5.971 -0.2083 -0.0174 -0.6535
   88CHL1   H2A 8966   4.810   0.377   5.926  2.1004  2.0602  0.7348
   88CHL1   H2B 8967   4.725   0.528   5.909  0.2738 -0.7658 -1.7906
   88CHL1   C20 8968   4.729   0.640   6.900 -0.4256 -0.7386  0.4455
   88CHL1   H20 8969   4.661   0.728   6.900  0.4264 -0.0230 -1.8969
   88CHL1   C21 8970   4.869   0.700   6.880 -0.4462 -1.0408  0.3742
   88CHL1  H21A 8971   4.942   0.618   6.863  1.6969  0.7433  0.8124
   88CHL1  H21B 8972   4.887   0.756   6.974 -0.0331  0.4008 -0.5405
   88CHL1  H21C 8973   4.887   0.773   6.798  2.0972 -1.9118  0.1014
   88CHL1   C22 8974   4.711   0.573   7.041  0.2065 -0.1049  1.2596
   88CHL1  H22A 8975   4.719   0.648   7.122  3.2169 -0.0406  0.9653
   88CHL1  H22B 8976   4.618   0.513   7.051 -0.4674  0.0090 -3.3425
   88CHL1   C23 8977   4.815   0.465   7.084 -0.0086 -0.2761  0.2846
   88CHL1  H23A 8978   4.832   0.386   7.007  0.2916  1.1036 -1.0836
   88CHL1  H23B 8979   4.905   0.529   7.092  0.2756 -0.8455  1.8200
   88CHL1   C24 8980   4.784   0.386   7.220 -0.0772  0.1000  0.7964
   88CHL1  H24A 8981   4.762   0.461   7.298 -1.3139  2.0704 -1.3774
   88CHL1  H24B 8982   4.690   0.331   7.198 -1.5038  2.9193 -0.3939
   88CHL1   C25 8983   4.897   0.287   7.275 -0.3117 -0.4519  0.0289
   88CHL1   H25 8984   4.994   0.341   7.263  0.8691 -2.2913  1.0519
   88CHL1   C26 8985   4.869   0.261   7.425  0.2089 -0.3502 -0.2346
   88CHL1  H26A 8986   4.827   0.354   7.468  0.7483  0.4483 -1.4066
   88CHL1  H26B 8987   4.788   0.185   7.437  0.0800 -0.0444  0.8524
   88CHL1  H26C 8988   4.966   0.236   7.474 -0.5140 -0.0731  1.3517
   88CHL1   C27 8989   4.911   0.156   7.208  0.4338  0.0579 -0.1210
   88CHL1  H27A 8990   4.811   0.108   7.204 -1.4974  3.6869  1.5609
   88CHL1  H27B 8991   4.939   0.175   7.102  1.9023 -0.7127  0.1276
   88CHL1  H27C 8992   4.983   0.094   7.265 -0.3582 -0.5761  0.2071
   89CHL1    C3 8993   7.071   4.626   5.911  0.0823 -0.0538  1.0489
   89CHL1    H3 8994   7.018   4.724   5.910  0.6923  0.2722 -1.2844
   89CHL1    O3 8995   7.097   4.591   5.774 -0.3285 -0.0560  0.0719
   89CHL1   H3' 8996   7.165   4.523   5.775  0.1439  0.3851 -0.8925
   89CHL1    C4 8997   7.200   4.628   5.987  0.4085 -0.7046  0.5212
   89CHL1   H4A 8998   7.269   4.541   5.976  1.1384  0.1830 -2.2485
   89CHL1   H4B 8999   7.252   4.708   5.932  0.7997 -0.3576  1.3827
   89CHL1    C5 9000   7.176   4.661   6.135  0.7047  0.1242 -0.1506
   89CHL1    C6 9001   7.236   4.761   6.192 -0.2889  0.4902 -0.7084
   89CHL1    H6 9002   7.299   4.833   6.137 -0.7000  0.3748 -1.3378
   89CHL1    C7 9003   7.217   4.795   6.337 -0.2960 -0.4194 -0.1761
   89CHL1   H7A 9004   7.309   4.831   6.388 -0.7452  1.4147 -0.6237
   89CHL1   H7B 9005   7.140   4.875   6.345 -1.4104 -1.7193  2.5022
   89CHL1    C8 9006   7.159   4.677   6.418  0.5879  0.8251  0.7442
   89CHL1    H8 9007   7.239   4.599   6.421  0.6282  0.8972  1.5495
   89CHL1   C14 9008   7.116   4.722   6.558 -0.5230 -0.4215  0.1691
   89CHL1   H14 9009   7.038   4.801   6.557 -1.0014 -0.8680  1.3474
   89CHL1   C15 9010   7.222   4.769   6.654 -0.5891 -0.2261  0.9420
   89CHL1  H15A 9011   7.316   4.715   6.627 -0.6851  0.5533 -1.0558
   89CHL1  H15B 9012   7.234   4.879   6.639  0.9956 -0.8162 -2.6506
   89CHL1   C16 9013   7.167   4.737   6.793 -0.6608 -0.6220  0.2433
   89CHL1  H16A 9014   7.253   4.690   6.845  0.2898 -0.4146 -1.1079
   89CHL1  H16B 9015   7.136   4.822   6.858 -0.6219 -1.4637  1.3728
   89CHL1   C17 9016   7.035   4.656   6.775 -0.0154 -0.1146 -0.3294
   89CHL1   H17 9017   6.955   4.733   6.771 -2.5085 -2.5563  0.6663
   89CHL1   C13 9018   7.051   4.606   6.636  0.4967 -0.0782  0.8745
   89CHL1   C18 9019   7.135   4.479   6.650 -0.2169 -0.2823 -0.5680
   89CHL1  H18A 9020   7.076   4.393   6.689 -3.2169  2.5369  1.3778
   89CHL1  H18B 9021   7.187   4.448   6.557 -1.4387 -0.3529 -1.2397
   89CHL1  H18C 9022   7.211   4.494   6.730  0.4180  0.1015 -1.2387
   89CHL1   C12 9023   6.928   4.572   6.563  0.1756  0.0212 -0.0395
   89CHL1  H12A 9024   6.882   4.486   6.616 -0.2002  1.2238  1.6384
   89CHL1  H12B 9025   6.856   4.657   6.563 -0.9713 -0.9399 -1.0890
   89CHL1   C11 9026   6.958   4.517   6.418  0.3947 -0.4544  0.0471
   89CHL1  H11A 9027   7.012   4.420   6.430  0.6340 -0.3814 -0.4291
   89CHL1  H11B 9028   6.857   4.496   6.376  0.4121  0.1097 -0.2717
   89CHL1    C9 9029   7.040   4.616   6.337 -1.1917  0.6023  0.4688
   89CHL1    H9 9030   6.972   4.702   6.320 -1.3608  0.7582  1.8667
   89CHL1   C10 9031   7.075   4.553   6.201 -0.0983 -0.7647  0.0669
   89CHL1   C19 9032   7.149   4.416   6.210 -0.5957 -0.9400  0.0067
   89CHL1  H19A 9033   7.223   4.415   6.293 -1.6363 -0.1130  0.9708
   89CHL1  H19B 9034   7.067   4.343   6.228 -0.0175 -1.7346 -0.5826
   89CHL1  H19C 9035   7.195   4.378   6.117  0.3690  1.5011 -0.5670
   89CHL1    C1 9036   6.947   4.546   6.115  0.2151 -0.3080 -0.1238
   89CHL1   H1A 9037   6.875   4.471   6.153  0.8327 -0.2666  1.1568
   89CHL1   H1B 9038   6.903   4.648   6.124  1.7299  0.2126  1.7314
   89CHL1    C2 9039   6.979   4.517   5.969  0.5413  0.0490 -0.8312
   89CHL1   H2A 9040   6.882   4.520   5.916  0.8722 -0.6557 -1.4788
   89CHL1   H2B 9041   7.012   4.410   5.969  0.8303  0.1248  0.1392
   89CHL1   C20 9042   6.983   4.553   6.878 -0.6818 -0.0368 -0.2835
   89CHL1   H20 9043   6.943   4.460   6.832 -1.1937  0.8709 -1.6783
   89CHL1   C21 9044   6.854   4.605   6.940 -0.8622  0.1502  0.3107
   89CHL1  H21A 9045   6.819   4.517   6.999  0.4872 -0.7821 -0.2357
   89CHL1  H21B 9046   6.785   4.626   6.856 -2.5408 -1.7222  1.1647
   89CHL1  H21C 9047   6.867   4.694   7.004  0.0151  2.6926 -3.2567
   89CHL1   C22 9048   7.079   4.509   6.986 -0.1499 -0.4966 -0.3723
   89CHL1  H22A 9049   7.027   4.433   7.048 -0.3612 -0.6424 -0.7232
   89CHL1  H22B 9050   7.167   4.467   6.933  1.2817 -1.4081  2.6548
   89CHL1   C23 9051   7.120   4.620   7.086  0.1936  0.2829  0.1801
   89CHL1  H23A 9052   7.223   4.596   7.121  1.2157  3.1304 -0.7056
   89CHL1  H23B 9053   7.139   4.720   7.041 -0.2971  0.1269 -0.3704
   89CHL1   C24 9054   7.038   4.651   7.216  0.7352 -0.3831  0.1187
   89CHL1  H24A 9055   6.950   4.713   7.187 -0.1769 -2.0328 -0.7144
   89CHL1  H24B 9056   7.001   4.557   7.262 -0.8924  0.4813  0.6253
   89CHL1   C25 9057   7.108   4.728   7.339 -0.1288  0.2384  0.2200
   89CHL1   H25 9058   7.038   4.729   7.425  0.6275  1.3106  0.8422
   89CHL1   C26 9059   7.246   4.680   7.393  1.0384  0.7248  0.2860
   89CHL1  H26A 9060   7.316   4.678   7.307 -0.2255 -1.4023 -0.7404
   89CHL1  H26B 9061   7.281   4.746   7.475  0.6466  1.6148 -0.2643
   89CHL1  H26C 9062   7.227   4.576   7.428  2.1941  0.5161  0.3196
   89CHL1   C27 9063   7.128   4.877   7.297 -0.4334 -0.2214  0.0044
   89CHL1  H27A 9064   7.180   4.948   7.365  1.3425 -0.4247 -1.0974
   89CHL1  H27B 9065   7.191   4.874   7.205  1.9667 -1.6598  1.6686
   89CHL1  H27C 9066   7.026   4.916   7.274 -1.1142 -1.8880  0.1567
   90CHL1    C3 9067   0.397   4.721   5.990 -0.3616  0.5073  0.3241
   90CHL1    H3 9068   0.288   4.700   5.998  0.0032 -1.1339  1.3313
   90CHL1    O3 9069   0.431   4.716   5.856 -0.0534 -0.1642 -0.2696
   90CHL1   H3' 9070   0.392   4.638   5.815 -1.6732  0.3549  0.2628
   90CHL1    C4 9071   0.429   4.864   6.043  0.5909 -0.0425  0.9561
   90CHL1   H4A 9072   0.534   4.892   6.020  0.6214  1.0765  2.3763
   90CHL1   H4B 9073   0.358   4.930   5.988  3.0442  2.5027  0.7048
   90CHL1    C5 9074   0.421   4.888   6.195  0.4631  0.1960 -0.4262
   90CHL1    C6 9075   0.342   4.985   6.241  0.5621  0.0006 -0.9870
   90CHL1    H6 9076   0.304   5.056   6.166  1.0374  1.1851 -0.1259
   90CHL1    C7 9077   0.326   5.023   6.383 -0.1950 -0.0958  0.2269
   90CHL1   H7A 9078   0.349   5.131   6.385  1.3596 -0.3492 -1.7573
   90CHL1   H7B 9079   0.219   5.011   6.409 -0.1280  1.2505  1.1681
   90CHL1    C8 9080   0.413   4.935   6.477  0.3132  0.0238 -0.2278
   90CHL1    H8 9081   0.514   4.982   6.485 -0.1906  0.8354  1.5828
   90CHL1   C14 9082   0.357   4.935   6.628  0.2237 -0.6179  0.3352
   90CHL1   H14 9083   0.258   4.885   6.619 -0.6036  1.1443 -0.7988
   90CHL1   C15 9084   0.326   5.072   6.685  0.2929 -0.0138  0.3957
   90CHL1  H15A 9085   0.406   5.141   6.650  0.4825 -1.9428 -3.1808
   90CHL1  H15B 9086   0.234   5.125   6.651  1.8251  1.6609 -1.2612
   90CHL1   C16 9087   0.326   5.051   6.836 -0.0166 -0.2516  0.0667
   90CHL1  H16A 9088   0.410   5.103   6.887  0.8362 -1.1381 -0.4284
   90CHL1  H16B 9089   0.235   5.081   6.892 -0.2939 -0.2672 -0.3713
   90CHL1   C17 9090   0.355   4.898   6.858  0.2290  0.4264  0.0585
   90CHL1   H17 9091   0.250   4.861   6.851 -0.4573  1.7670  2.5915
   90CHL1   C13 9092   0.432   4.861   6.730  0.0598 -0.4434 -0.4622
   90CHL1   C18 9093   0.577   4.924   6.754 -0.7725 -0.2513  0.2409
   90CHL1  H18A 9094   0.636   4.853   6.815  0.2048  0.8020  0.5497
   90CHL1  H18B 9095   0.626   4.929   6.655 -0.3404  1.5514  0.5248
   90CHL1  H18C 9096   0.568   5.024   6.803 -0.2166 -0.1993  0.2386
   90CHL1   C12 9097   0.449   4.717   6.680 -0.1793 -0.5981  0.6670
   90CHL1  H12A 9098   0.517   4.658   6.746 -0.1009 -0.1904  0.9579
   90CHL1  H12B 9099   0.345   4.679   6.672 -0.2980 -0.5212  1.6775
   90CHL1   C11 9100   0.509   4.707   6.537  0.3133  0.0987 -0.2814
   90CHL1  H11A 9101   0.615   4.739   6.533  0.5192 -0.0128  2.9892
   90CHL1  H11B 9102   0.521   4.603   6.503 -1.8384 -1.2061  2.6777
   90CHL1    C9 9103   0.436   4.789   6.432 -0.5468 -0.5900  0.4172
   90CHL1    H9 9104   0.334   4.745   6.434 -0.3090 -1.1705 -0.0086
   90CHL1   C10 9105   0.489   4.784   6.284  0.9024  0.6352 -0.2645
   90CHL1   C19 9106   0.640   4.811   6.272 -0.3648 -0.1057  0.5756
   90CHL1  H19A 9107   0.697   4.735   6.329  0.1720  1.1954  1.8196
   90CHL1  H19B 9108   0.681   4.797   6.170 -1.2843 -0.2664  0.2243
   90CHL1  H19C 9109   0.663   4.919   6.288 -1.2911 -0.0783  1.7971
   90CHL1    C1 9110   0.461   4.641   6.225  0.2044  0.2610  0.2800
   90CHL1   H1A 9111   0.533   4.572   6.273 -1.4295  0.0275  2.5318
   90CHL1   H1B 9112   0.360   4.607   6.257  0.4804 -1.0161 -0.1920
   90CHL1    C2 9113   0.477   4.618   6.071 -0.1151  0.4682  0.3043
   90CHL1   H2A 9114   0.452   4.516   6.036 -0.0222  0.8103 -0.7959
   90CHL1   H2B 9115   0.581   4.644   6.043 -0.5030  1.2099 -0.4869
   90CHL1   C20 9116   0.404   4.854   6.997 -0.2485  0.0816 -0.2287
   90CHL1   H20 9117   0.511   4.884   7.004  0.2721 -2.1109  1.6277
   90CHL1   C21 9118   0.390   4.701   7.019  0.6736  0.1502 -0.9232
   90CHL1  H21A 9119   0.455   4.653   6.943 -0.8037  0.8135 -2.6393
   90CHL1  H21B 9120   0.287   4.662   7.008 -0.1660  1.9781  0.2529
   90CHL1  H21C 9121   0.419   4.668   7.121  1.7897  0.7550 -1.0358
   90CHL1   C22 9122   0.325   4.933   7.103 -0.4229  0.1658 -0.9741
   90CHL1  H22A 9123   0.318   5.043   7.089  0.9049  0.3727 -0.1503
   90CHL1  H22B 9124   0.226   4.883   7.100 -0.8599  1.0869 -2.5044
   90CHL1   C23 9125   0.389   4.912   7.245  0.5309 -0.3144 -0.1564
   90CHL1  H23A 9126   0.378   4.808   7.281  1.3595 -0.3200  0.0834
   90CHL1  H23B 9127   0.494   4.943   7.261  0.0611  0.2627  1.9677
   90CHL1   C24 9128   0.298   4.990   7.344 -0.1841  0.0376  0.4051
   90CHL1  H24A 9129   0.322   5.098   7.350  0.5734 -0.0509 -0.8763
   90CHL1  H24B 9130   0.192   4.975   7.315 -0.3975  0.7627  0.7969
   90CHL1   C25 9131   0.330   4.938   7.492  0.8054 -0.0782 -0.0698
   90CHL1   H25 9132   0.317   4.829   7.483  0.8175 -0.0783 -0.0863
   90CHL1   C26 9133   0.473   4.965   7.533 -0.0652 -0.0539 -0.5178
   90CHL1  H26A 9134   0.468   4.933   7.639 -2.2139  0.5616 -0.4098
   90CHL1  H26B 9135   0.543   4.912   7.465 -1.7104 -2.8848 -0.0793
   90CHL1  H26C 9136   0.481   5.075   7.521 -0.3068 -0.2659 -2.8945
   90CHL1   C27 9137   0.230   4.984   7.601  0.2823  0.0936 -0.1215
   90CHL1  H27A 9138   0.257   4.935   7.697  0.1745 -0.1037 -0.1924
   90CHL1  H27B 9139   0.234   5.094   7.616  2.1021  0.0643 -0.3343
   90CHL1  H27C 9140   0.122   4.967   7.581 -0.3853 -0.6598  3.6345
   91CHL1    C3 9141   1.921   6.733   6.091 -0.2251  0.3680 -0.4329
   91CHL1    H3 9142   1.819   6.711   6.130 -0.1258 -0.8068 -0.8097
   91CHL1    O3 9143   1.924   6.740   5.950  0.3782 -0.7437  0.3508
   91CHL1   H3' 9144   1.878   6.818   5.918  0.6233 -1.0591 -0.7905
   91CHL1    C4 9145   1.976   6.871   6.145 -0.1659  0.2188  0.2342
   91CHL1   H4A 9146   2.075   6.880   6.096  0.0698 -1.5667  0.3551
   91CHL1   H4B 9147   1.912   6.955   6.109  1.5453  1.5003  0.1421
   91CHL1    C5 9148   2.004   6.875   6.296 -0.2837  1.1656 -0.0012
   91CHL1    C6 9149   1.944   6.978   6.361 -0.1925 -0.1313  0.6687
   91CHL1    H6 9150   1.886   7.047   6.298  3.3589 -0.3978 -3.1190
   91CHL1    C7 9151   1.940   6.986   6.510 -0.8534 -0.2546  0.2599
   91CHL1   H7A 9152   1.977   7.087   6.538 -1.5201 -0.0326  0.3464
   91CHL1   H7B 9153   1.839   6.969   6.553 -0.7017 -1.6206  0.1019
   91CHL1    C8 9154   2.033   6.882   6.578  0.3333  0.6855  0.0777
   91CHL1    H8 9155   2.137   6.921   6.576  0.8341 -0.5338  1.1413
   91CHL1   C14 9156   1.981   6.864   6.725 -0.2632  0.1042  0.4362
   91CHL1   H14 9157   1.873   6.836   6.726  0.0403 -1.1031 -0.2437
   91CHL1   C15 9158   1.975   6.992   6.812 -0.3593 -0.3099 -0.5272
   91CHL1  H15A 9159   2.066   7.055   6.821 -0.1876 -0.5587 -0.5243
   91CHL1  H15B 9160   1.895   7.059   6.775 -0.5502  0.1260  0.6647
   91CHL1   C16 9161   1.952   6.929   6.953  0.9839  0.7149 -0.2116
   91CHL1  H16A 9162   2.034   6.956   7.022  3.1934 -2.2827 -1.5581
   91CHL1  H16B 9163   1.859   6.966   7.001  0.2200 -1.2185 -0.1375
   91CHL1   C17 9164   1.961   6.771   6.937 -0.3366 -0.0923  0.5909
   91CHL1   H17 9165   1.861   6.727   6.917 -0.0556 -0.5703  0.2285
   91CHL1   C13 9166   2.041   6.755   6.808 -0.3908  0.0401 -0.3851
   91CHL1   C18 9167   2.189   6.785   6.835 -0.6801  1.0622  0.0315
   91CHL1  H18A 9168   2.244   6.809   6.742  0.7114 -0.7598  0.3545
   91CHL1  H18B 9169   2.204   6.866   6.909  1.0313 -0.3341  1.2586
   91CHL1  H18C 9170   2.233   6.695   6.884 -0.3111 -0.8156 -3.5608
   91CHL1   C12 9171   2.022   6.617   6.732 -0.2736 -0.4203 -0.3797
   91CHL1  H12A 9172   2.070   6.539   6.795  0.1967 -0.5224 -0.8565
   91CHL1  H12B 9173   1.916   6.587   6.724 -0.7462  0.7151  1.3076
   91CHL1   C11 9174   2.087   6.621   6.595  0.1753  0.4671  0.3409
   91CHL1  H11A 9175   2.194   6.647   6.610  0.4329  1.3071 -2.5821
   91CHL1  H11B 9176   2.065   6.526   6.541 -0.1670  0.0664  1.1863
   91CHL1    C9 9177   2.025   6.740   6.514 -0.0893  0.0750  0.0527
   91CHL1    H9 9178   1.914   6.735   6.520 -0.0951  0.4903  0.2993
   91CHL1   C10 9179   2.062   6.738   6.357 -0.1663 -0.5027  1.4170
   91CHL1   C19 9180   2.217   6.752   6.356 -0.2021  0.0983 -0.2228
   91CHL1  H19A 9181   2.258   6.770   6.253 -0.5450 -0.0573 -0.3852
   91CHL1  H19B 9182   2.254   6.835   6.420  3.5978 -1.4614 -0.2610
   91CHL1  H19C 9183   2.274   6.662   6.388 -0.1779  0.2847  0.2623
   91CHL1    C1 9184   2.001   6.613   6.287  0.3920  0.1900  0.3207
   91CHL1   H1A 9185   2.055   6.524   6.325 -2.0229 -0.4142  2.5737
   91CHL1   H1B 9186   1.896   6.602   6.323  0.8471  1.1193  1.9864
   91CHL1    C2 9187   1.997   6.614   6.143 -0.1129  0.5895  0.4530
   91CHL1   H2A 9188   1.958   6.517   6.105 -1.1118  1.1890 -0.0909
   91CHL1   H2B 9189   2.102   6.618   6.107 -0.0524  2.7319  0.8264
   91CHL1   C20 9190   2.011   6.708   7.070  0.0305  0.2950  0.2718
   91CHL1   H20 9191   2.111   6.748   7.098  1.3841 -1.8666 -1.4073
   91CHL1   C21 9192   2.018   6.552   7.061 -0.3580 -0.0502 -0.1488
   91CHL1  H21A 9193   1.927   6.524   7.004 -0.1845  1.6505 -1.2943
   91CHL1  H21B 9194   2.022   6.498   7.158 -1.3697  0.5825  0.2500
   91CHL1  H21C 9195   2.103   6.511   7.002  1.1733  1.5112  0.9238
   91CHL1   C22 9196   1.918   6.746   7.185 -0.1441  0.2899  0.0719
   91CHL1  H22A 9197   1.886   6.852   7.173 -0.7891 -0.1133 -2.0445
   91CHL1  H22B 9198   1.816   6.706   7.172 -0.0693 -0.2981  1.2857
   91CHL1   C23 9199   1.960   6.712   7.325 -0.2011  0.0300 -0.7975
   91CHL1  H23A 9200   2.038   6.632   7.325 -0.1065  0.1235 -0.8468
   91CHL1  H23B 9201   2.024   6.800   7.348 -2.9565  1.8532  0.1307
   91CHL1   C24 9202   1.841   6.693   7.427 -0.2638  0.0761  0.2898
   91CHL1  H24A 9203   1.776   6.783   7.416 -1.3104 -0.9137 -1.9595
   91CHL1  H24B 9204   1.790   6.604   7.384 -0.0104  0.3747 -0.6436
   91CHL1   C25 9205   1.868   6.669   7.577 -0.2788 -0.0918  0.0497
   91CHL1   H25 9206   1.949   6.735   7.615  0.0059 -0.3658 -0.0754
   91CHL1   C26 9207   1.759   6.712   7.675  0.0307  1.0006  0.3543
   91CHL1  H26A 9208   1.665   6.659   7.650  1.6469 -1.7036 -0.1806
   91CHL1  H26B 9209   1.796   6.679   7.774  0.8928 -0.6884 -0.5072
   91CHL1  H26C 9210   1.740   6.821   7.677  0.1753  1.2359 -4.8266
   91CHL1   C27 9211   1.893   6.518   7.605  0.2617 -0.3630 -0.5707
   91CHL1  H27A 9212   1.919   6.499   7.711  1.2093  0.5482 -0.6231
   91CHL1  H27B 9213   1.805   6.461   7.569  0.5025  0.0285 -1.8090
   91CHL1  H27C 9214   1.974   6.482   7.537  1.6119 -0.2012  0.9118
   92CHL1    C3 9215   5.971   1.297   6.061 -0.1132  0.6450  0.1863
   92CHL1    H3 9216   6.044   1.214   6.055 -0.3905  0.1307  3.0747
   92CHL1    O3 9217   5.911   1.311   5.935 -0.2985 -0.1228 -0.2953
   92CHL1   H3' 9218   5.860   1.392   5.940  0.6279  0.3929  0.7929
   92CHL1    C4 9219   5.856   1.261   6.160  0.2327  0.3825  0.3490
   92CHL1   H4A 9220   5.789   1.350   6.167  1.4822  1.3573 -0.0002
   92CHL1   H4B 9221   5.806   1.171   6.117  0.0237  0.3435  0.6681
   92CHL1    C5 9222   5.909   1.239   6.300  1.2304 -1.1243  0.0303
   92CHL1    C6 9223   5.883   1.126   6.366  0.3571 -0.2179 -0.4298
   92CHL1    H6 9224   5.815   1.051   6.322 -0.6877  0.8437 -0.6645
   92CHL1    C7 9225   5.924   1.086   6.499 -0.5770  0.4878 -0.3789
   92CHL1   H7A 9226   5.835   1.068   6.563 -1.4307  0.7934 -1.4581
   92CHL1   H7B 9227   6.000   1.005   6.502 -0.6744  0.2918 -2.3560
   92CHL1    C8 9228   5.994   1.210   6.570  1.3992 -0.0055  0.3460
   92CHL1    H8 9229   5.914   1.272   6.616  0.7687 -2.3430  2.4678
   92CHL1   C14 9230   6.086   1.155   6.684 -0.5327  0.0667  0.2593
   92CHL1   H14 9231   6.178   1.116   6.636 -0.2296  0.7743  0.2640
   92CHL1   C15 9232   6.033   1.040   6.780  0.1413 -0.0988  0.2179
   92CHL1  H15A 9233   5.929   1.065   6.811  0.6222  2.7597 -0.2802
   92CHL1  H15B 9234   6.025   0.935   6.746  2.1591  0.2785 -1.5530
   92CHL1   C16 9235   6.137   1.056   6.895  0.2345  0.4850  0.9317
   92CHL1  H16A 9236   6.077   1.050   6.988 -0.2262 -2.9384  0.4732
   92CHL1  H16B 9237   6.197   0.964   6.907 -0.1413 -0.0285 -1.0196
   92CHL1   C17 9238   6.222   1.183   6.873 -0.2356 -0.5052 -0.0158
   92CHL1   H17 9239   6.310   1.149   6.814 -0.9790  0.2324 -1.5778
   92CHL1   C13 9240   6.145   1.269   6.775  0.4849 -0.6705  0.0887
   92CHL1   C18 9241   6.024   1.335   6.849 -0.5754  0.0220  0.0471
   92CHL1  H18A 9242   5.967   1.269   6.918  0.4084 -2.1677 -1.2049
   92CHL1  H18B 9243   6.066   1.415   6.915 -0.0708  0.0051 -0.2501
   92CHL1  H18C 9244   5.952   1.391   6.786 -3.4155 -2.3924  1.0496
   92CHL1   C12 9245   6.214   1.376   6.695 -0.4624 -0.0847  0.8288
   92CHL1  H12A 9246   6.238   1.461   6.763  0.0957  0.4413 -0.0283
   92CHL1  H12B 9247   6.315   1.341   6.668 -1.0694 -0.5700 -0.8661
   92CHL1   C11 9248   6.134   1.421   6.564 -0.3193 -0.9406  0.5019
   92CHL1  H11A 9249   6.063   1.492   6.613 -1.0248 -2.5068  1.8057
   92CHL1  H11B 9250   6.197   1.479   6.494  0.7951 -2.8338 -0.0939
   92CHL1    C9 9251   6.067   1.302   6.478  0.2469  0.0684 -0.9507
   92CHL1    H9 9252   6.153   1.241   6.442 -0.5979 -0.0845 -2.7621
   92CHL1   C10 9253   5.994   1.348   6.353  0.3214 -0.8651  0.2713
   92CHL1   C19 9254   5.890   1.456   6.393 -0.6902 -0.1727 -0.1126
   92CHL1  H19A 9255   5.824   1.409   6.468  1.1804 -0.4135  1.4176
   92CHL1  H19B 9256   5.941   1.546   6.434  1.7719 -1.1290 -0.9739
   92CHL1  H19C 9257   5.834   1.503   6.309  0.9887  1.2058 -0.4994
   92CHL1    C1 9258   6.094   1.409   6.258 -0.8631  0.4962 -0.5360
   92CHL1   H1A 9259   6.149   1.496   6.299  0.6077 -0.2617 -0.8595
   92CHL1   H1B 9260   6.172   1.332   6.240  0.8756  2.2692 -0.6568
   92CHL1    C2 9261   6.035   1.431   6.119 -0.0128 -0.0927 -0.5397
   92CHL1   H2A 9262   6.114   1.457   6.045 -0.5406 -2.2836 -1.9046
   92CHL1   H2B 9263   5.957   1.511   6.111 -0.8123 -0.8589 -0.4295
   92CHL1   C20 9264   6.265   1.245   7.005  0.2027  0.2250 -0.7066
   92CHL1   H20 9265   6.171   1.269   7.059  0.2079 -0.4298 -0.3980
   92CHL1   C21 9266   6.352   1.367   6.986 -0.6306 -0.0807 -0.2782
   92CHL1  H21A 9267   6.429   1.352   6.907 -0.7014  0.4425 -0.4457
   92CHL1  H21B 9268   6.419   1.367   7.075 -0.9225  0.8334 -0.0520
   92CHL1  H21C 9269   6.301   1.463   6.962  0.8896  1.5084  2.5412
   92CHL1   C22 9270   6.345   1.144   7.101 -0.6674 -0.3396  0.2296
   92CHL1  H22A 9271   6.313   1.041   7.076 -1.6094 -0.1533  0.6287
   92CHL1  H22B 9272   6.451   1.142   7.069 -0.8911 -2.8275 -0.4372
   92CHL1   C23 9273   6.327   1.173   7.252 -0.8587  0.5355  0.6907
   92CHL1  H23A 9274   6.335   1.282   7.271  2.5874  0.2226  1.4553
   92CHL1  H23B 9275   6.225   1.136   7.274 -0.8967 -0.0402 -0.4150
   92CHL1   C24 9276   6.429   1.103   7.342 -0.5735  0.7043 -0.5423
   92CHL1  H24A 9277   6.425   0.992   7.344  1.3691  0.6326  0.0237
   92CHL1  H24B 9278   6.521   1.128   7.285  0.8015 -0.5770  1.0706
   92CHL1   C25 9279   6.430   1.163   7.482  0.2597  0.0179  0.6628
   92CHL1   H25 9280   6.440   1.274   7.488 -0.9395  0.2024 -0.6069
   92CHL1   C26 9281   6.293   1.140   7.552 -0.3956  0.2052 -0.1711
   92CHL1  H26A 9282   6.214   1.187   7.490 -0.2469  0.7522  0.0565
   92CHL1  H26B 9283   6.280   1.029   7.551 -0.9319  0.1954  2.7519
   92CHL1  H26C 9284   6.287   1.186   7.653  1.4525 -0.4228  0.2369
   92CHL1   C27 9285   6.542   1.096   7.572  0.8710 -0.2406 -0.3257
   92CHL1  H27A 9286   6.639   1.088   7.519  1.1748  0.4762  0.1119
   92CHL1  H27B 9287   6.543   1.147   7.671  0.5000 -0.3412 -0.2672
   92CHL1  H27C 9288   6.491   0.998   7.588  1.1852 -0.3842 -0.2099
   93CHL1    C3 9289   5.779   6.409   6.118 -0.0769  0.0366  0.2302
   93CHL1    H3 9290   5.676   6.381   6.087 -0.0660  0.7640 -0.5179
   93CHL1    O3 9291   5.855   6.418   5.998  0.2479 -0.7379 -0.1261
   93CHL1   H3' 9292   5.949   6.420   6.021 -0.3748  0.9129  2.4450
   93CHL1    C4 9293   5.776   6.548   6.186  0.2576  0.0766  0.9659
   93CHL1   H4A 9294   5.881   6.579   6.203  0.6979 -1.2507  0.6718
   93CHL1   H4B 9295   5.715   6.615   6.122  1.0979  1.4028  1.5114
   93CHL1    C5 9296   5.706   6.540   6.319  0.9703  0.0362 -1.0375
   93CHL1    C6 9297   5.599   6.619   6.346  0.2245  0.3575 -0.1216
   93CHL1    H6 9298   5.555   6.684   6.269  0.6425  2.2288  1.1778
   93CHL1    C7 9299   5.541   6.637   6.483  0.1231 -0.4176 -0.5552
   93CHL1   H7A 9300   5.544   6.744   6.513  0.9451 -0.4162 -0.6163
   93CHL1   H7B 9301   5.433   6.613   6.488  0.0063  0.2511  0.3744
   93CHL1    C8 9302   5.621   6.566   6.600  0.4874 -0.1921 -0.3608
   93CHL1    H8 9303   5.704   6.632   6.631  0.3262  0.3911 -1.1746
   93CHL1   C14 9304   5.532   6.544   6.721  0.0758  0.5726  0.5115
   93CHL1   H14 9305   5.465   6.462   6.687 -0.5856  1.0859  0.5820
   93CHL1   C15 9306   5.435   6.657   6.771  0.6772 -0.4591 -0.0203
   93CHL1  H15A 9307   5.492   6.752   6.780 -0.2357  0.0304  0.6657
   93CHL1  H15B 9308   5.344   6.671   6.709  0.6458 -0.4001  0.0396
   93CHL1   C16 9309   5.401   6.606   6.914 -0.1421 -0.1954 -0.4427
   93CHL1  H16A 9310   5.411   6.678   6.998  0.7836 -1.8778  0.9237
   93CHL1  H16B 9311   5.293   6.582   6.913 -0.4782  1.3133 -0.8911
   93CHL1   C17 9312   5.487   6.487   6.946 -0.0972 -0.7273 -0.2892
   93CHL1   H17 9313   5.440   6.395   6.906  0.5789 -0.4355 -1.7823
   93CHL1   C13 9314   5.603   6.497   6.848 -0.6508  0.2855  0.6060
   93CHL1   C18 9315   5.709   6.599   6.902  0.4464  0.0606 -0.2582
   93CHL1  H18A 9316   5.658   6.698   6.907  0.6358  0.1007  0.9978
   93CHL1  H18B 9317   5.746   6.571   7.003  1.1731  3.0743  0.3659
   93CHL1  H18C 9318   5.793   6.618   6.832  1.4907  0.5390  1.1015
   93CHL1   C12 9319   5.664   6.358   6.809 -0.3949 -0.2410  0.5024
   93CHL1  H12A 9320   5.717   6.317   6.897 -1.1595  1.1830  1.6467
   93CHL1  H12B 9321   5.578   6.295   6.777  0.5800 -0.2504 -2.2372
   93CHL1   C11 9322   5.752   6.368   6.682 -0.6007 -0.0254 -0.6554
   93CHL1  H11A 9323   5.848   6.416   6.714 -0.5221 -0.6128 -0.0043
   93CHL1  H11B 9324   5.782   6.264   6.656 -1.1116 -0.7639  1.6833
   93CHL1    C9 9325   5.685   6.433   6.558  0.3112  0.1034  1.1870
   93CHL1    H9 9326   5.597   6.368   6.536  0.5416  0.4440 -0.8329
   93CHL1   C10 9327   5.768   6.444   6.424 -0.3557  0.7500  0.2667
   93CHL1   C19 9328   5.918   6.492   6.455  0.2174  0.2130  0.4886
   93CHL1  H19A 9329   5.987   6.505   6.370 -1.7815  0.1656 -1.1747
   93CHL1  H19B 9330   5.915   6.579   6.525  1.9663  0.9495 -0.3548
   93CHL1  H19C 9331   5.971   6.418   6.519  0.7098  1.0918  1.0997
   93CHL1    C1 9332   5.777   6.305   6.351 -0.0210  0.3468 -0.4186
   93CHL1   H1A 9333   5.838   6.227   6.401  1.1441  1.0196 -0.7484
   93CHL1   H1B 9334   5.675   6.265   6.336  0.2207 -0.5557  0.2988
   93CHL1    C2 9335   5.844   6.307   6.206 -0.5129  0.1976 -0.1687
   93CHL1   H2A 9336   5.847   6.204   6.163  1.3612  0.3674 -0.4879
   93CHL1   H2B 9337   5.950   6.336   6.215 -1.0084  1.8145  0.6083
   93CHL1   C20 9338   5.523   6.458   7.102  1.1845  0.4131  0.2234
   93CHL1   H20 9339   5.581   6.544   7.140  0.9224 -0.0677  1.7681
   93CHL1   C21 9340   5.598   6.329   7.112  0.3329 -0.0376  0.8526
   93CHL1  H21A 9341   5.707   6.336   7.090 -0.1855  1.8025 -1.3432
   93CHL1  H21B 9342   5.551   6.260   7.039  1.5427 -0.7703  0.7495
   93CHL1  H21C 9343   5.578   6.275   7.206 -3.5639 -0.1930  0.0168
   93CHL1   C22 9344   5.387   6.449   7.180 -0.0261  0.0665 -0.2408
   93CHL1  H22A 9345   5.403   6.412   7.283 -2.2011  2.0201  0.8478
   93CHL1  H22B 9346   5.350   6.552   7.199 -1.5946 -0.5706  0.2516
   93CHL1   C23 9347   5.265   6.368   7.128 -0.1405 -0.6208 -0.9497
   93CHL1  H23A 9348   5.264   6.374   7.017 -0.8161 -0.2432 -0.9216
   93CHL1  H23B 9349   5.283   6.263   7.160  3.5354  0.4656  0.8595
   93CHL1   C24 9350   5.133   6.420   7.195  0.0486 -0.1404 -0.1083
   93CHL1  H24A 9351   5.142   6.435   7.305 -0.3991 -0.2253 -0.0585
   93CHL1  H24B 9352   5.108   6.520   7.154 -1.2190  0.9535  3.1364
   93CHL1   C25 9353   5.003   6.337   7.178  0.6306 -0.0059  0.1857
   93CHL1   H25 9354   4.984   6.299   7.075 -2.9081 -0.1385  0.8411
   93CHL1   C26 9355   5.008   6.212   7.267  0.2427  0.0056 -0.1685
   93CHL1  H26A 9356   4.924   6.141   7.251  1.2323 -1.4185  0.8290
   93CHL1  H26B 9357   5.100   6.149   7.258  0.2133 -0.3292  1.7030
   93CHL1  H26C 9358   5.003   6.256   7.368 -0.0491 -0.3440 -0.0306
   93CHL1   C27 9359   4.889   6.429   7.228  0.1087  0.2015  0.6967
   93CHL1  H27A 9360   4.912   6.464   7.331  0.9924  2.5760 -0.2796
   93CHL1  H27B 9361   4.884   6.518   7.162  2.4390 -0.6701 -0.7093
   93CHL1  H27C 9362   4.790   6.379   7.220  1.0845 -1.9675  1.5264
   94CHL1    C3 9363   0.250   1.914   6.076  0.0535  0.2708 -0.8834
   94CHL1    H3 9364   0.158   1.962   6.115 -0.2420 -1.3020  0.3896
   94CHL1    O3 9365   0.251   1.886   5.940 -0.1121  0.7317  0.2990
   94CHL1   H3' 9366   0.304   1.807   5.927 -0.2448  0.6220  0.4220
   94CHL1    C4 9367   0.373   2.003   6.113  0.7154  0.3389  0.0900
   94CHL1   H4A 9368   0.461   1.968   6.054  1.2997 -1.4902  1.9962
   94CHL1   H4B 9369   0.349   2.104   6.074  2.4628  1.4727  1.8628
   94CHL1    C5 9370   0.399   2.006   6.265  0.5025  0.2241 -0.0615
   94CHL1    C6 9371   0.394   2.123   6.331 -0.1075  0.5351 -0.5505
   94CHL1    H6 9372   0.400   2.212   6.267  2.6063  1.5387  0.9898
   94CHL1    C7 9373   0.410   2.141   6.475  0.5186  0.5854 -0.4186
   94CHL1   H7A 9374   0.487   2.219   6.497 -0.5162  1.5734 -0.2176
   94CHL1   H7B 9375   0.311   2.171   6.515  0.3130 -1.6635  0.8009
   94CHL1    C8 9376   0.446   2.006   6.549  0.5133 -0.1248 -0.9562
   94CHL1    H8 9377   0.548   1.982   6.514  1.2086  1.2769  0.0860
   94CHL1   C14 9378   0.440   2.021   6.699 -0.6916 -0.0178 -0.6873
   94CHL1   H14 9379   0.336   2.050   6.727  0.4956  2.9522  0.9503
   94CHL1   C15 9380   0.517   2.136   6.776 -0.5932 -0.5281  0.7808
   94CHL1  H15A 9381   0.626   2.136   6.754 -0.6969  0.9020  0.2552
   94CHL1  H15B 9382   0.479   2.239   6.766  1.6124  0.4344  1.9408
   94CHL1   C16 9383   0.499   2.092   6.923  0.2108 -0.3356 -0.0267
   94CHL1  H16A 9384   0.593   2.106   6.980 -0.1634  0.7364  0.3220
   94CHL1  H16B 9385   0.421   2.150   6.976 -0.5906 -3.0347  1.8651
   94CHL1   C17 9386   0.453   1.940   6.920 -0.0520  0.2676 -0.0776
   94CHL1   H17 9387   0.343   1.944   6.938 -0.1337 -0.9164 -0.2440
   94CHL1   C13 9388   0.474   1.889   6.771 -0.1013 -0.2352  0.1037
   94CHL1   C18 9389   0.620   1.851   6.750 -0.8439  0.2915  0.3935
   94CHL1  H18A 9390   0.648   1.858   6.643 -1.1047 -1.7292  0.1760
   94CHL1  H18B 9391   0.679   1.920   6.813  2.8552 -2.0009 -0.4545
   94CHL1  H18C 9392   0.648   1.752   6.792 -1.1354 -0.0929 -0.3103
   94CHL1   C12 9393   0.384   1.783   6.716 -0.3841 -0.2993 -0.8918
   94CHL1  H12A 9394   0.400   1.687   6.769  0.4855 -0.0537 -0.7038
   94CHL1  H12B 9395   0.277   1.811   6.725 -0.2853 -0.6644  1.8219
   94CHL1   C11 9396   0.409   1.757   6.566  0.0082 -0.3805  0.3998
   94CHL1  H11A 9397   0.510   1.716   6.542  1.2569  2.8561 -0.0975
   94CHL1  H11B 9398   0.340   1.677   6.533  1.0150 -0.8380 -0.6575
   94CHL1    C9 9399   0.371   1.881   6.491  0.3707  0.4974  0.4391
   94CHL1    H9 9400   0.262   1.897   6.506 -0.0789 -0.4204 -1.7334
   94CHL1   C10 9401   0.391   1.871   6.340 -0.3710 -0.6647  0.5784
   94CHL1   C19 9402   0.528   1.803   6.312 -0.1744 -0.3023  0.0357
   94CHL1  H19A 9403   0.617   1.837   6.368  0.3501  0.2039 -1.0859
   94CHL1  H19B 9404   0.516   1.692   6.319  0.5346 -0.5688 -2.4302
   94CHL1  H19C 9405   0.563   1.818   6.207  1.6485  0.4402  0.7279
   94CHL1    C1 9406   0.268   1.794   6.290  0.5830  0.3836  0.2143
   94CHL1   H1A 9407   0.260   1.694   6.338 -1.5796  0.3397 -0.1814
   94CHL1   H1B 9408   0.178   1.849   6.326  0.7094 -0.1253  1.3324
   94CHL1    C2 9409   0.261   1.775   6.141  0.3621  0.6312  0.4658
   94CHL1   H2A 9410   0.171   1.710   6.131  0.9228 -0.6932  3.4234
   94CHL1   H2B 9411   0.343   1.716   6.096 -0.2843  0.3161 -0.3091
   94CHL1   C20 9412   0.513   1.845   7.023 -0.1928  0.1305  0.4833
   94CHL1   H20 9413   0.615   1.815   6.993 -0.5580  0.2166 -0.8839
   94CHL1   C21 9414   0.429   1.710   7.032 -0.1058  0.4142 -0.4867
   94CHL1  H21A 9415   0.318   1.723   7.033 -0.1212  0.2900 -0.6264
   94CHL1  H21B 9416   0.467   1.652   7.118 -0.7700  2.8620  1.5083
   94CHL1  H21C 9417   0.442   1.643   6.945 -0.3976  0.0810 -0.2760
   94CHL1   C22 9418   0.509   1.910   7.161  0.5221 -0.1049 -0.0852
   94CHL1  H22A 9419   0.548   2.014   7.157 -0.9743  0.6035  2.6403
   94CHL1  H22B 9420   0.403   1.923   7.190  0.0449  2.1396 -2.5438
   94CHL1   C23 9421   0.595   1.828   7.264  0.2891 -0.1930 -0.8048
   94CHL1  H23A 9422   0.578   1.718   7.267 -0.8227 -0.0130 -0.1075
   94CHL1  H23B 9423   0.701   1.831   7.233  0.1466 -1.2235 -1.3942
   94CHL1   C24 9424   0.559   1.884   7.400 -0.0996  0.0515 -0.0410
   94CHL1  H24A 9425   0.633   1.860   7.479  1.1635  0.8795 -0.9449
   94CHL1  H24B 9426   0.560   1.994   7.389  0.1251 -0.0180 -0.7411
   94CHL1   C25 9427   0.436   1.830   7.471 -0.0062  0.4851  0.5005
   94CHL1   H25 9428   0.352   1.849   7.401 -2.8599 -0.3296  3.5441
   94CHL1   C26 9429   0.456   1.687   7.519 -0.5073  0.1808 -1.2567
   94CHL1  H26A 9430   0.520   1.682   7.610 -3.0633  2.6861  0.7804
   94CHL1  H26B 9431   0.363   1.654   7.571 -1.4116  1.8742 -1.7535
   94CHL1  H26C 9432   0.476   1.610   7.442 -0.6118 -0.6777 -0.4284
   94CHL1   C27 9433   0.402   1.920   7.597 -0.5167 -0.2155  0.0019
   94CHL1  H27A 9434   0.306   1.890   7.644 -0.2509 -0.5942  0.3119
   94CHL1  H27B 9435   0.483   1.911   7.672  0.4528  0.6393 -0.9192
   94CHL1  H27C 9436   0.389   2.026   7.566 -0.5677 -0.0963  0.4327
   95CHL1    C3 9437   5.548   0.191   6.004 -0.1760 -0.2017  0.6654
   95CHL1    H3 9438   5.452   0.246   5.992 -0.6570 -0.7162  2.0672
   95CHL1    O3 9439   5.581   0.109   5.894 -0.0343  0.5967 -0.1784
   95CHL1   H3' 9440   5.672   0.084   5.914 -1.2155 -1.4782  3.0391
   95CHL1    C4 9441   5.655   0.293   6.017  0.4393 -0.9015 -0.0911
   95CHL1   H4A 9442   5.758   0.251   6.018  0.9335  0.2638 -0.4040
   95CHL1   H4B 9443   5.646   0.359   5.928 -0.8843 -0.0479  0.6603
   95CHL1    C5 9444   5.650   0.374   6.146  0.5564 -0.5953 -0.1764
   95CHL1    C6 9445   5.648   0.506   6.144 -0.4574 -0.6168  0.6259
   95CHL1    H6 9446   5.654   0.561   6.049 -0.5258 -0.0574  0.9428
   95CHL1    C7 9447   5.633   0.585   6.269  0.5006  0.4980 -0.2965
   95CHL1   H7A 9448   5.685   0.683   6.260  0.1374  0.7371  0.1978
   95CHL1   H7B 9449   5.527   0.612   6.288 -0.5983 -2.3770 -2.0699
   95CHL1    C8 9450   5.680   0.510   6.399 -0.1536  0.4895  0.1137
   95CHL1    H8 9451   5.789   0.488   6.393 -0.2099 -0.0323  0.9284
   95CHL1   C14 9452   5.665   0.586   6.534 -0.7060 -0.1660  0.0985
   95CHL1   H14 9453   5.555   0.595   6.544 -1.0498 -2.6664 -1.1063
   95CHL1   C15 9454   5.730   0.728   6.539  0.0641 -0.4426 -0.2301
   95CHL1  H15A 9455   5.834   0.750   6.508 -0.0386  1.3968  0.6453
   95CHL1  H15B 9456   5.668   0.797   6.477 -2.8707 -2.8680 -0.0959
   95CHL1   C16 9457   5.730   0.757   6.696  0.0450 -0.1246 -0.0697
   95CHL1  H16A 9458   5.831   0.801   6.709 -0.0972  1.7173 -4.3329
   95CHL1  H16B 9459   5.652   0.835   6.711  0.3261  0.5217 -1.8988
   95CHL1   C17 9460   5.701   0.625   6.768  0.1891  0.1315 -0.2889
   95CHL1   H17 9461   5.590   0.632   6.774  0.1770 -0.0472 -0.2801
   95CHL1   C13 9462   5.718   0.521   6.658 -1.2661 -0.2240 -0.5707
   95CHL1   C18 9463   5.869   0.486   6.663 -0.2006 -0.2424 -0.2382
   95CHL1  H18A 9464   5.934   0.576   6.652  0.7425 -0.6619  1.7056
   95CHL1  H18B 9465   5.898   0.428   6.754  0.7952  0.1458 -0.3023
   95CHL1  H18C 9466   5.888   0.416   6.579 -0.2712  0.4994 -0.8836
   95CHL1   C12 9467   5.643   0.381   6.673  0.4709  0.0345  0.2291
   95CHL1  H12A 9468   5.687   0.333   6.763 -0.4551 -2.8316 -0.7933
   95CHL1  H12B 9469   5.537   0.391   6.705 -0.1079 -1.7639 -1.0750
   95CHL1   C11 9470   5.647   0.299   6.549 -0.0687  0.7015 -0.1733
   95CHL1  H11A 9471   5.747   0.250   6.552  0.1201  1.1836  2.5765
   95CHL1  H11B 9472   5.581   0.212   6.568  0.3238  0.8029  1.7332
   95CHL1    C9 9473   5.610   0.375   6.411 -0.1491  0.3122  0.3633
   95CHL1    H9 9474   5.503   0.404   6.422 -0.6023 -1.2256  0.0489
   95CHL1   C10 9475   5.631   0.287   6.282 -0.3404  0.6241  0.5999
   95CHL1   C19 9476   5.762   0.205   6.305  0.8204  0.3517  0.2619
   95CHL1  H19A 9477   5.754   0.126   6.382  0.0207 -0.5295 -0.7115
   95CHL1  H19B 9478   5.791   0.157   6.209  1.4119 -2.1526  1.6621
   95CHL1  H19C 9479   5.838   0.274   6.349  1.2817  0.0856 -0.1159
   95CHL1    C1 9480   5.513   0.186   6.256 -0.2021 -1.4266  0.1761
   95CHL1   H1A 9481   5.502   0.129   6.351  0.3450  0.4738  1.4183
   95CHL1   H1B 9482   5.420   0.242   6.234  0.3078 -1.1435 -1.3646
   95CHL1    C2 9483   5.532   0.096   6.130  0.8448 -0.3554  0.0398
   95CHL1   H2A 9484   5.448   0.024   6.121  0.4669  0.1406 -0.4297
   95CHL1   H2B 9485   5.621   0.030   6.139 -0.3035 -1.7255  1.6834
   95CHL1   C20 9486   5.753   0.607   6.912  0.1622 -0.7803  0.1297
   95CHL1   H20 9487   5.767   0.497   6.924 -2.7838 -0.9944  2.0574
   95CHL1   C21 9488   5.629   0.635   7.012  0.6426  0.0084  0.1257
   95CHL1  H21A 9489   5.658   0.601   7.114 -1.0235  0.2387  0.6904
   95CHL1  H21B 9490   5.533   0.586   6.986  1.0767  0.3763 -2.2400
   95CHL1  H21C 9491   5.623   0.746   7.013 -0.3128 -0.0243 -1.6796
   95CHL1   C22 9492   5.881   0.688   6.953  0.3089 -0.6370 -0.6192
   95CHL1  H22A 9493   5.964   0.656   6.887  0.3883  0.2587 -0.9529
   95CHL1  H22B 9494   5.852   0.794   6.936  1.6662 -0.5130 -2.2535
   95CHL1   C23 9495   5.927   0.678   7.104  0.2714 -0.6408 -0.1232
   95CHL1  H23A 9496   5.842   0.716   7.163  0.1876  0.9570 -1.2590
   95CHL1  H23B 9497   5.944   0.569   7.123  0.8473 -0.4534  0.4803
   95CHL1   C24 9498   6.056   0.742   7.150 -0.2465 -0.4252 -0.1255
   95CHL1  H24A 9499   6.151   0.725   7.094 -0.2230 -1.3374  0.1908
   95CHL1  H24B 9500   6.040   0.852   7.152  0.6789 -0.2900 -0.0424
   95CHL1   C25 9501   6.099   0.704   7.298  0.3272 -0.1865 -0.4112
   95CHL1   H25 9502   6.011   0.722   7.364  0.2858  1.9486 -0.9945
   95CHL1   C26 9503   6.143   0.560   7.315 -0.1839 -0.2003  0.4716
   95CHL1  H26A 9504   6.182   0.532   7.415 -3.2203 -1.8600  1.2529
   95CHL1  H26B 9505   6.071   0.486   7.273  0.3976 -1.2016  1.1989
   95CHL1  H26C 9506   6.240   0.549   7.261 -0.3254 -0.8124  0.3420
   95CHL1   C27 9507   6.215   0.800   7.332 -0.3295 -0.0974  0.0248
   95CHL1  H27A 9508   6.224   0.800   7.443 -0.0136 -2.7264  0.0317
   95CHL1  H27B 9509   6.314   0.773   7.290 -0.2417 -0.1341  0.2528
   95CHL1  H27C 9510   6.186   0.902   7.300 -0.3749 -0.4253 -1.0113
   96CHL1    C3 9511   5.871   7.026   6.074 -0.3801  0.1733 -0.2274
   96CHL1    H3 9512   5.794   7.106   6.068 -0.2406  0.1755 -2.4476
   96CHL1    O3 9513   5.901   6.992   5.939 -0.1599  0.3148  0.1744
   96CHL1   H3' 9514   5.936   6.903   5.942  0.6574  0.6049 -0.5777
   96CHL1    C4 9515   6.002   7.078   6.136  0.9338  0.0810  1.4157
   96CHL1   H4A 9516   6.080   6.998   6.128 -0.0048 -0.6677 -0.7243
   96CHL1   H4B 9517   6.024   7.172   6.082 -1.5243  0.2479  0.6530
   96CHL1    C5 9518   5.987   7.099   6.290  0.4901 -0.5180 -0.0199
   96CHL1    C6 9519   6.025   7.211   6.354  0.3295 -0.5911  0.9139
   96CHL1    H6 9520   6.056   7.299   6.296  1.8249 -2.7709 -1.7223
   96CHL1    C7 9521   6.013   7.232   6.501  0.5660 -0.6758  0.7993
   96CHL1   H7A 9522   6.113   7.260   6.542  0.8161 -2.2279  1.2706
   96CHL1   H7B 9523   5.947   7.321   6.512 -1.2686 -1.6326 -2.0076
   96CHL1    C8 9524   5.961   7.109   6.585  0.5211  0.5903  0.0433
   96CHL1    H8 9525   6.048   7.044   6.610  1.7461  2.0604 -0.3153
   96CHL1   C14 9526   5.904   7.158   6.716  0.1601 -0.1238  0.8257
   96CHL1   H14 9527   5.815   7.219   6.689 -0.0462 -0.9417 -0.3714
   96CHL1   C15 9528   5.996   7.238   6.811 -0.1804  0.3577  0.3805
   96CHL1  H15A 9529   6.095   7.190   6.824 -0.1374  0.6006  0.9623
   96CHL1  H15B 9530   6.005   7.336   6.758  1.5161 -0.8414 -1.6034
   96CHL1   C16 9531   5.919   7.239   6.939  0.9135 -0.5463 -0.2079
   96CHL1  H16A 9532   5.987   7.227   7.026 -2.3007 -2.2341  2.1653
   96CHL1  H16B 9533   5.873   7.340   6.946  0.5417 -0.6424 -1.1396
   96CHL1   C17 9534   5.807   7.137   6.930  0.1696 -0.3687  0.6944
   96CHL1   H17 9535   5.717   7.195   6.898  1.9595  1.9583 -0.2541
   96CHL1   C13 9536   5.850   7.047   6.807 -0.2248  0.4023 -0.2831
   96CHL1   C18 9537   5.967   6.961   6.857 -0.4196  0.5125 -0.5427
   96CHL1  H18A 9538   5.945   6.862   6.903 -0.5955  0.9189  0.2458
   96CHL1  H18B 9539   6.036   6.937   6.772 -2.2657 -1.2149 -1.5898
   96CHL1  H18C 9540   6.024   7.014   6.936 -0.9288  0.9694 -0.4836
   96CHL1   C12 9541   5.748   6.959   6.729 -0.6127 -0.4829  0.2387
   96CHL1  H12A 9542   5.722   6.874   6.796 -0.6764 -1.0029 -0.4400
   96CHL1  H12B 9543   5.666   7.031   6.710 -0.1849  0.3760  1.6012
   96CHL1   C11 9544   5.800   6.911   6.596 -0.3561 -0.1287 -0.8762
   96CHL1  H11A 9545   5.875   6.829   6.600 -1.9072 -1.7482 -3.1878
   96CHL1  H11B 9546   5.708   6.874   6.545 -0.3279 -0.3973 -0.7288
   96CHL1    C9 9547   5.860   7.024   6.507 -0.0089 -0.1982 -0.0079
   96CHL1    H9 9548   5.774   7.092   6.490  0.6975  0.5480 -0.5971
   96CHL1   C10 9549   5.916   6.979   6.366  0.0236 -0.1105  0.4417
   96CHL1   C19 9550   6.023   6.869   6.382 -0.1097  0.6621 -0.6276
   96CHL1  H19A 9551   6.109   6.911   6.439  1.2059 -2.5238 -0.1304
   96CHL1  H19B 9552   5.985   6.778   6.432  0.4411  0.1059 -1.2029
   96CHL1  H19C 9553   6.074   6.843   6.286 -0.4485 -0.3403 -0.5358
   96CHL1    C1 9554   5.792   6.932   6.285  0.0829 -0.3162 -0.4114
   96CHL1   H1A 9555   5.746   6.841   6.331 -0.8073 -0.7416 -2.1169
   96CHL1   H1B 9556   5.722   7.017   6.298 -0.9648 -1.1273 -0.6072
   96CHL1    C2 9557   5.820   6.899   6.135  0.1056 -0.0383 -0.1689
   96CHL1   H2A 9558   5.728   6.870   6.081 -0.8545  1.1395  0.7854
   96CHL1   H2B 9559   5.899   6.821   6.133  1.6189  1.4911 -2.5312
   96CHL1   C20 9560   5.787   7.074   7.072 -0.3693 -0.0691 -0.9807
   96CHL1   H20 9561   5.892   7.056   7.103 -1.0312 -0.0044  1.3600
   96CHL1   C21 9562   5.708   6.942   7.061  0.4358 -0.1921 -0.3165
   96CHL1  H21A 9563   5.681   6.900   7.160 -1.7650  1.5202 -0.1344
   96CHL1  H21B 9564   5.768   6.865   7.008  0.3183  0.6233 -1.6708
   96CHL1  H21C 9565   5.619   6.972   7.000  2.8343  1.8381 -2.9467
   96CHL1   C22 9566   5.722   7.169   7.173  0.4108  0.0951  0.0659
   96CHL1  H22A 9567   5.759   7.273   7.171  0.6722  0.0232  1.0552
   96CHL1  H22B 9568   5.614   7.174   7.146 -0.0084  1.4140  1.9084
   96CHL1   C23 9569   5.733   7.126   7.319 -0.3438 -0.0516  0.3275
   96CHL1  H23A 9570   5.683   7.214   7.365 -2.6739 -1.1337 -0.0310
   96CHL1  H23B 9571   5.667   7.038   7.337 -1.7858  0.8455 -0.3927
   96CHL1   C24 9572   5.875   7.113   7.375  0.5980 -0.2981  0.0776
   96CHL1  H24A 9573   5.924   7.024   7.328 -0.7237 -0.6081 -0.7349
   96CHL1  H24B 9574   5.926   7.203   7.335 -2.7211  1.9547  0.7335
   96CHL1   C25 9575   5.897   7.107   7.525 -0.1797  0.9488 -0.0780
   96CHL1   H25 9576   5.811   7.049   7.565  0.0821 -0.9259 -2.1185
   96CHL1   C26 9577   6.025   7.021   7.558  0.4308  0.1239  0.4829
   96CHL1  H26A 9578   6.116   7.068   7.516 -0.7552  0.1773 -2.1571
   96CHL1  H26B 9579   6.045   6.995   7.664 -0.5787 -0.1844  0.6109
   96CHL1  H26C 9580   6.011   6.925   7.503 -2.2518  1.1068 -0.6445
   96CHL1   C27 9581   5.900   7.242   7.605 -0.1293  0.7256 -0.3430
   96CHL1  H27A 9582   5.879   7.226   7.712 -0.7971 -1.1511 -0.7455
   96CHL1  H27B 9583   6.008   7.270   7.611 -0.2925  1.3501 -0.3116
   96CHL1  H27C 9584   5.862   7.333   7.552 -3.3201 -0.0685  0.4874
   97OSM      N 9585   3.344   2.923   9.915  0.3987  0.4372 -0.4372
   97OSM    C15 9586   3.487   2.951   9.946  0.3780  0.2278  0.2997
   97OSM   H15A 9587   3.489   3.023  10.027 -2.8632  0.2674  0.4134
   97OSM   H15B 9588   3.534   3.003   9.864  0.3300  0.6997  0.5651
   97OSM   H15C 9589   3.538   2.863   9.980  2.5241  1.1975 -0.2940
   97OSM    C14 9590   3.282   2.842  10.026 -0.4466 -0.0257  0.0747
   97OSM   H14A 9591   3.295   2.886  10.124  2.8178  0.6006 -0.5872
   97OSM   H14B 9592   3.333   2.747  10.037 -2.2786 -1.0861 -0.3310
   97OSM   H14C 9593   3.178   2.818  10.010 -0.3296 -0.2022 -0.4208
   97OSM    C13 9594   3.266   3.056   9.912  0.0082  0.0828  0.0659
   97OSM   H13A 9595   3.275   3.111  10.004  0.6182  1.4567 -0.7844
   97OSM   H13B 9596   3.162   3.033   9.896  0.6546 -2.2187 -1.0466
   97OSM   H13C 9597   3.297   3.109   9.823 -1.0712  0.7429  0.0778
   97OSM    C12 9598   3.329   2.852   9.782  0.4531 -0.0737 -0.3077
   97OSM   H12A 9599   3.373   2.754   9.790  0.1464 -0.2047 -0.2234
   97OSM   H12B 9600   3.388   2.906   9.709 -1.3990  1.5679 -0.6287
   97OSM    C11 9601   3.191   2.827   9.714  0.2014 -0.3400 -0.0605
   97OSM   H11A 9602   3.212   2.781   9.615  0.2330  0.1647 -0.2888
   97OSM   H11B 9603   3.139   2.923   9.697 -1.9189 -1.0653  2.0757
   97OSM      P 9604   3.126   2.584   9.778 -0.0005 -0.4999  0.2552
   97OSM    O13 9605   3.267   2.546   9.798  0.0608  0.1041  0.1128
   97OSM    O14 9606   3.026   2.523   9.867  0.2544 -0.2001 -0.3945
   97OSM    O11 9607   3.086   2.563   9.627  0.7931 -0.2784  0.1119
   97OSM    O12 9608   3.111   2.744   9.796  0.3366  0.3515 -0.1331
   97OSM    C1S 9609   2.962   2.616   9.574 -0.7164 -0.8445 -0.1354
   97OSM    H1S 9610   2.932   2.703   9.636  0.0804  1.4574 -2.9069
   97OSM    H1T 9611   2.881   2.539   9.580 -0.8134 -0.6885  0.5607
   97OSM     NF 9612   2.861   2.723   9.374 -0.0314 -0.3461 -0.7102
   97OSM    HNF 9613   2.793   2.661   9.336  1.0836 -1.4022 -0.9945
   97OSM    C2S 9614   2.981   2.654   9.424  0.0448 -0.0300 -0.4818
   97OSM    H2S 9615   3.068   2.723   9.423  0.6086 -0.6646  1.8422
   97OSM    C3S 9616   3.023   2.533   9.334 -0.3499  0.1721  0.0037
   97OSM    H3S 9617   2.937   2.464   9.317  0.9429 -1.1638 -1.2769
   97OSM     O3 9618   3.122   2.452   9.399  0.5949  0.3698  0.2155
   97OSM    HO3 9619   3.119   2.477   9.492  3.2331  0.2824  0.3678
   97OSM    C4S 9620   3.058   2.581   9.189  0.1684  0.2884  0.0620
   97OSM    H4S 9621   2.983   2.591   9.110 -1.8428  1.6277  2.0832
   97OSM    C5S 9622   3.186   2.589   9.147 -0.2588  0.0620  0.0017
   97OSM    H5S 9623   3.268   2.575   9.219 -0.2777  0.4090  0.0930
   97OSM    C6S 9624   3.221   2.629   9.010 -0.1341 -0.9957  0.1466
   97OSM    H6S 9625   3.300   2.706   9.016 -0.4139 -0.8654  2.5420
   97OSM    H6T 9626   3.139   2.671   8.947  1.2289  0.0955 -0.9210
   97OSM    C7S 9627   3.284   2.511   8.930  0.1803 -0.3552  0.4310
   97OSM    H7S 9628   3.213   2.427   8.949 -1.9826  1.0660 -1.1144
   97OSM    H7T 9629   3.383   2.476   8.967  0.1040 -1.7283 -0.6246
   97OSM    C8S 9630   3.300   2.533   8.780  0.0231  0.1734  0.5871
   97OSM    H8S 9631   3.204   2.580   8.751 -1.2557 -3.4957 -1.3387
   97OSM    H8T 9632   3.301   2.442   8.716 -0.2660  2.2274 -2.4946
   97OSM    C9S 9633   3.412   2.629   8.743 -0.5199 -0.4250  0.1087
   97OSM    H9S 9634   3.514   2.588   8.761 -0.5377 -0.4609  0.1295
   97OSM    H9T 9635   3.389   2.718   8.805 -2.2032 -1.7069  1.3663
   97OSM   C10S 9636   3.407   2.680   8.595  0.7374 -0.2602 -0.2668
   97OSM   H10S 9637   3.308   2.663   8.549 -0.2396  0.1726  1.6499
   97OSM   H10T 9638   3.487   2.627   8.538 -0.2022 -2.3734  0.3347
   97OSM   C11S 9639   3.437   2.832   8.579 -0.7570  0.2564 -0.0899
   97OSM   H11S 9640   3.516   2.857   8.653  0.0111  0.6721 -1.0521
   97OSM   H11T 9641   3.349   2.896   8.601 -3.0250 -2.0778 -2.0767
   97OSM   C12S 9642   3.482   2.861   8.432 -0.7090 -0.1199 -0.4305
   97OSM   H12S 9643   3.570   2.794   8.418  0.1356  1.1102 -1.1827
   97OSM   H12T 9644   3.520   2.964   8.412  2.0447 -0.5926  2.0232
   97OSM   C13S 9645   3.371   2.848   8.329 -0.0720 -0.5973 -0.1871
   97OSM   H13S 9646   3.276   2.890   8.369  0.3179  0.9081 -0.8251
   97OSM   H13T 9647   3.354   2.738   8.324  2.6670 -1.0051 -1.2732
   97OSM   C14S 9648   3.417   2.901   8.190 -0.1688  0.5834 -0.1126
   97OSM   H14S 9649   3.493   2.830   8.151  0.2031  0.9448 -0.0460
   97OSM   H14T 9650   3.464   3.001   8.193 -1.8729  1.3495  2.4481
   97OSM   C15S 9651   3.305   2.891   8.089 -0.3599 -0.0246 -0.0213
   97OSM   H15S 9652   3.218   2.936   8.141  0.8262 -0.9335  2.8410
   97OSM   H15T 9653   3.258   2.790   8.086 -1.7621  0.5926  0.4984
   97OSM   C16S 9654   3.326   2.959   7.953 -0.8042  0.5481 -0.4256
   97OSM   H16S 9655   3.391   3.047   7.975 -0.9052  0.3386  0.7492
   97OSM   H16T 9656   3.235   3.007   7.911  0.2068  0.8930 -2.2708
   97OSM   C17S 9657   3.393   2.867   7.857 -0.0081  0.5465  0.0702
   97OSM   H17S 9658   3.473   2.813   7.913 -1.5135 -1.7962  0.0391
   97OSM   H17T 9659   3.450   2.937   7.792  1.7332  2.1372  3.2184
   97OSM   C18S 9660   3.299   2.758   7.789 -0.6471 -0.3181 -0.0432
   97OSM   H18S 9661   3.197   2.795   7.763 -0.4469  0.0380 -0.3320
   97OSM   H18T 9662   3.280   2.675   7.860 -0.5370  0.4945  0.9439
   97OSM   H18U 9663   3.344   2.712   7.698 -0.7027 -0.7243  0.1341
   97OSM    C1F 9664   2.820   2.841   9.432 -0.0071 -0.2132  0.0528
   97OSM     OF 9665   2.908   2.915   9.486  0.2902  0.6885  0.0734
   97OSM    C2F 9666   2.668   2.866   9.433 -0.3070  0.0118  0.2092
   97OSM    H2F 9667   2.650   2.932   9.521  0.3148  0.7470 -0.2166
   97OSM    H2G 9668   2.610   2.773   9.453  0.9412 -0.6168  1.0053
   97OSM    C3F 9669   2.618   2.925   9.298 -0.5456  0.2105 -0.1132
   97OSM    H3F 9670   2.682   3.016   9.290 -0.7634  0.4456  0.6939
   97OSM    H3G 9671   2.513   2.959   9.310 -0.8468 -0.2949 -1.3112
   97OSM    C4F 9672   2.638   2.830   9.182 -0.0002 -0.0290  0.1779
   97OSM    H4F 9673   2.618   2.722   9.199 -1.2501 -0.4186 -3.3068
   97OSM    H4G 9674   2.746   2.826   9.158  0.3957  1.2851  1.6538
   97OSM    C5F 9675   2.554   2.854   9.053  0.1211 -0.3774  0.2969
   97OSM    H5F 9676   2.563   2.962   9.032 -0.5679 -0.6410 -1.3972
   97OSM    H5G 9677   2.449   2.825   9.073 -0.0028  0.3243  0.6638
   97OSM    C6F 9678   2.602   2.778   8.932 -0.0608 -0.4668  0.3905
   97OSM    H6F 9679   2.638   2.681   8.972 -0.5560  0.2578  2.6783
   97OSM    H6G 9680   2.687   2.836   8.890 -1.0919  1.3057  0.7013
   97OSM    C7F 9681   2.491   2.760   8.821  0.3160  0.8442  0.1563
   97OSM    H7F 9682   2.407   2.697   8.856  0.5203  0.5898  0.1926
   97OSM    H7G 9683   2.528   2.704   8.732  1.5020 -0.4323  1.4231
   97OSM    C8F 9684   2.431   2.896   8.771 -0.1641 -0.4804 -0.5088
   97OSM    H8F 9685   2.387   2.951   8.857 -0.0580 -1.3584  0.1076
   97OSM    H8G 9686   2.340   2.864   8.716 -1.0094 -1.0581  1.2072
   97OSM    C9F 9687   2.530   2.979   8.697 -0.4017 -0.3329  0.9825
   97OSM    H9F 9688   2.601   3.027   8.766 -0.0132  2.4932 -1.2448
   97OSM   C10F 9689   2.563   2.994   8.567  0.6500 -0.3521 -0.4707
   97OSM   H10F 9690   2.648   3.054   8.531  2.5005 -2.6171  0.0513
   97OSM   C11F 9691   2.483   2.935   8.451 -0.1598  0.3575 -0.0932
   97OSM   H11F 9692   2.471   3.018   8.378  0.0219 -0.2999 -0.8809
   97OSM   H11G 9693   2.383   2.902   8.488  0.0710  0.3346  0.5104
   97OSM   C12F 9694   2.547   2.810   8.389  0.1458  0.4658  0.6845
   97OSM   H12F 9695   2.476   2.760   8.320 -0.0522 -2.1037  2.6633
   97OSM   H12G 9696   2.569   2.747   8.479  1.9830 -0.0921 -0.1414
   97OSM   C13F 9697   2.689   2.831   8.323  0.1479  0.8320 -0.5469
   97OSM   H13F 9698   2.770   2.832   8.399 -1.0153  2.9116  0.7261
   97OSM   H13G 9699   2.690   2.935   8.283  2.4744  1.0597 -0.0007
   97OSM   C14F 9700   2.729   2.739   8.203  0.0237 -0.7559  0.4199
   97OSM   H14F 9701   2.649   2.754   8.127 -0.2805 -0.4843  0.7922
   97OSM   H14G 9702   2.717   2.636   8.241  0.0433 -1.4504 -1.3986
   97OSM   C15F 9703   2.872   2.762   8.148  0.3542 -0.0173 -0.0316
   97OSM   H15F 9704   2.941   2.746   8.233  1.0498 -0.6216 -0.6944
   97OSM   H15G 9705   2.873   2.872   8.133 -2.2779  0.1545  0.7620
   97OSM   C16F 9706   2.910   2.682   8.021 -0.6177  0.4553  0.5465
   97OSM   H16F 9707   2.904   2.572   8.042 -1.4593  0.5227  0.6669
   97OSM   H16G 9708   3.015   2.700   7.989 -0.7576 -1.3014 -1.0006
   97OSM   C17F 9709   2.824   2.730   7.905  0.2302  0.4593  0.3611
   97OSM   H17F 9710   2.830   2.840   7.892 -0.8802  0.8338  2.8195
   97OSM   H17G 9711   2.717   2.706   7.923 -0.0985  2.3347  1.0751
   97OSM   C18F 9712   2.866   2.679   7.764  0.7604 -0.0891  0.5303
   97OSM   H18F 9713   2.973   2.705   7.753  1.1305 -1.1171  1.5121
   97OSM   H18G 9714   2.798   2.725   7.689 -0.8915  0.2799  2.2011
   97OSM   H18H 9715   2.875   2.569   7.774  1.1088 -0.4451 -3.3107
   98OSM      N 9716   2.588   2.688   9.946  0.3664 -0.9264  0.3472
   98OSM    C15 9717   2.585   2.576  10.039  0.0230 -0.2741  0.4659
   98OSM   H15A 9718   2.498   2.576  10.103  0.1154 -0.1547  0.5932
   98OSM   H15B 9719   2.670   2.581  10.106  1.4011 -3.2933 -0.9436
   98OSM   H15C 9720   2.598   2.479   9.993  0.4026  0.4608 -1.0098
   98OSM    C14 9721   2.603   2.810  10.021 -0.3316 -0.3432 -0.2729
   98OSM   H14A 9722   2.522   2.809  10.092  0.8377  2.4085  1.1657
   98OSM   H14B 9723   2.583   2.894   9.956 -1.9488 -0.3771  0.1741
   98OSM   H14C 9724   2.705   2.826  10.054 -0.9924  0.1469  1.5431
   98OSM    C13 9725   2.716   2.677   9.864 -0.2069  0.8521  0.0653
   98OSM   H13A 9726   2.798   2.654   9.932  1.2088 -0.6114 -2.0667
   98OSM   H13B 9727   2.733   2.771   9.814  0.8936  1.1389  0.9514
   98OSM   H13C 9728   2.721   2.593   9.796  1.5940  1.2459 -0.3229
   98OSM    C12 9729   2.463   2.699   9.858 -0.5332 -0.3140  0.5958
   98OSM   H12A 9730   2.377   2.705   9.922 -1.2323  2.3868 -0.5119
   98OSM   H12B 9731   2.440   2.608   9.805 -2.4073 -0.6373  1.9157
   98OSM    C11 9732   2.450   2.823   9.764  0.7720 -0.5983 -0.2932
   98OSM   H11A 9733   2.474   2.789   9.661 -0.3414 -0.6877 -0.5319
   98OSM   H11B 9734   2.526   2.897   9.797  0.9120 -0.2864 -1.2877
   98OSM      P 9735   2.201   2.788   9.696 -0.2998 -0.0371 -0.1294
   98OSM    O13 9736   2.220   2.641   9.719 -0.5404 -0.7568  0.3039
   98OSM    O14 9737   2.073   2.841   9.740  0.2360 -0.8330 -0.2192
   98OSM    O11 9738   2.222   2.836   9.554 -0.3237  0.5232  0.3905
   98OSM    O12 9739   2.314   2.864   9.773  0.4723  0.8432 -0.7221
   98OSM    C1S 9740   2.286   2.756   9.454 -0.1497 -0.2162 -0.3997
   98OSM    H1S 9741   2.340   2.670   9.501  1.0788  0.1345 -1.1539
   98OSM    H1T 9742   2.366   2.812   9.401 -0.9747  0.8480 -0.5235
   98OSM     NF 9743   2.274   2.633   9.232  0.0724 -0.1629 -0.5447
   98OSM    HNF 9744   2.274   2.684   9.147 -1.3879 -1.3457 -1.2593
   98OSM    C2S 9745   2.193   2.698   9.339 -0.5354 -0.6958 -0.1862
   98OSM    H2S 9746   2.121   2.618   9.369  0.8996 -1.7783  0.4346
   98OSM    C3S 9747   2.102   2.816   9.287  0.2231  0.0373  0.4895
   98OSM    H3S 9748   2.167   2.902   9.261 -1.5752  1.3373  0.2295
   98OSM     O3 9749   2.007   2.868   9.384  0.1086 -0.2492  0.1112
   98OSM    HO3 9750   2.030   2.834   9.471 -0.8790 -1.3176 -0.0399
   98OSM    C4S 9751   2.021   2.772   9.171 -0.5058  0.5562  0.2324
   98OSM    H4S 9752   1.938   2.708   9.204  0.4006 -0.1048  1.2484
   98OSM    C5S 9753   2.042   2.801   9.040 -0.0653 -0.3549  0.1768
   98OSM    H5S 9754   2.127   2.864   9.012 -0.2941  0.8577  2.1251
   98OSM    C6S 9755   1.970   2.753   8.920 -0.2147  0.3132 -0.1135
   98OSM    H6S 9756   1.893   2.676   8.943 -0.5594  0.6003 -0.2929
   98OSM    H6T 9757   2.030   2.696   8.845  1.8867  1.2285  0.8244
   98OSM    C7S 9758   1.892   2.866   8.858  0.2218 -0.6963 -0.1862
   98OSM    H7S 9759   1.970   2.923   8.802  0.8957 -0.9283  0.4991
   98OSM    H7T 9760   1.838   2.919   8.939  1.5719 -0.9060  0.8804
   98OSM    C8S 9761   1.773   2.829   8.765 -0.2495 -0.3632  0.6477
   98OSM    H8S 9762   1.728   2.925   8.732  2.2259  1.1140  1.4408
   98OSM    H8T 9763   1.694   2.774   8.821 -0.3405 -0.5438  0.3429
   98OSM    C9S 9764   1.811   2.751   8.639 -0.0569 -0.2384 -0.3529
   98OSM    H9S 9765   1.721   2.741   8.575 -0.1098 -1.0094 -0.1706
   98OSM    H9T 9766   1.819   2.642   8.660 -0.4353 -0.4350 -1.1914
   98OSM   C10S 9767   1.937   2.783   8.553 -0.3779 -0.4218  0.7029
   98OSM   H10S 9768   1.962   2.698   8.487  0.1712  0.8372 -0.7544
   98OSM   H10T 9769   2.027   2.802   8.617  0.8142  2.3105 -1.6286
   98OSM   C11S 9770   1.919   2.911   8.465 -0.8703  0.0483 -0.2307
   98OSM   H11S 9771   1.921   3.000   8.531 -0.0878  0.9644 -1.4717
   98OSM   H11T 9772   1.820   2.906   8.414 -0.8278 -1.5455 -0.1732
   98OSM   C12S 9773   2.035   2.913   8.367 -0.5701  0.1451  0.2912
   98OSM   H12S 9774   2.030   2.818   8.310  0.3898 -1.1773  2.3893
   98OSM   H12T 9775   2.131   2.915   8.423  0.6306  0.6064 -1.7415
   98OSM   C13S 9776   2.043   3.036   8.277  0.6077  0.0389 -0.2342
   98OSM   H13S 9777   2.047   3.130   8.337  1.2692  0.7881 -1.4357
   98OSM   H13T 9778   1.946   3.030   8.223  1.1358 -1.4053 -1.0339
   98OSM   C14S 9779   2.160   3.025   8.179 -0.1734 -0.0312 -0.0647
   98OSM   H14S 9780   2.145   2.936   8.115  1.5755 -0.9095  0.7237
   98OSM   H14T 9781   2.249   3.006   8.242 -0.9019 -2.0027  0.3936
   98OSM   C15S 9782   2.158   3.153   8.102 -0.2730 -0.4365  0.2837
   98OSM   H15S 9783   2.169   3.237   8.174 -0.3257  0.7739 -1.1020
   98OSM   H15T 9784   2.062   3.168   8.048  0.8633 -2.6413 -2.4466
   98OSM   C16S 9785   2.268   3.161   7.998  0.2112  0.2817 -0.6797
   98OSM   H16S 9786   2.270   3.263   7.955  0.0026 -0.2611 -1.9956
   98OSM   H16T 9787   2.231   3.101   7.912 -1.0973 -0.6426  0.5020
   98OSM   C17S 9788   2.404   3.118   8.059 -0.1878 -0.8982  0.3435
   98OSM   H17S 9789   2.398   3.007   8.068  0.9995 -1.1728 -1.9010
   98OSM   H17T 9790   2.416   3.152   8.164  1.7034 -3.9262  1.1746
   98OSM   C18S 9791   2.533   3.146   7.975  0.0221  0.5289 -0.0438
   98OSM   H18S 9792   2.611   3.085   8.026 -2.2147 -0.8809  1.7576
   98OSM   H18T 9793   2.560   3.254   7.979 -0.3307  0.5554  2.2306
   98OSM   H18U 9794   2.525   3.129   7.866 -2.8424 -0.1902  0.2431
   98OSM    C1F 9795   2.353   2.522   9.247  0.4897 -0.0385  0.3745
   98OSM     OF 9796   2.384   2.480   9.356 -0.6564  0.1508 -0.8552
   98OSM    C2F 9797   2.416   2.466   9.122  0.3678  0.4703 -0.7288
   98OSM    H2F 9798   2.482   2.384   9.157 -1.6163 -1.4793 -1.4092
   98OSM    H2G 9799   2.478   2.541   9.068 -1.2546  0.4639 -2.6717
   98OSM    C3F 9800   2.309   2.429   9.013 -0.2532 -0.2694  0.1767
   98OSM    H3F 9801   2.245   2.518   8.996  0.8666  0.8790  1.7837
   98OSM    H3G 9802   2.246   2.342   9.040 -0.4538 -0.4058 -0.7127
   98OSM    C4F 9803   2.376   2.391   8.877 -0.8260  0.3106 -0.0388
   98OSM    H4F 9804   2.445   2.471   8.844  0.3323 -0.1786  1.1449
   98OSM    H4G 9805   2.292   2.386   8.805  0.2400  1.1740 -1.3486
   98OSM    C5F 9806   2.457   2.256   8.879 -0.0962  0.3213 -0.7976
   98OSM    H5F 9807   2.533   2.249   8.960 -1.0381 -0.6148  0.0282
   98OSM    H5G 9808   2.506   2.248   8.780 -2.3913 -1.5618 -1.8353
   98OSM    C6F 9809   2.358   2.143   8.878  0.5206 -0.2348  0.7640
   98OSM    H6F 9810   2.286   2.157   8.795  1.3825  1.3484  0.2657
   98OSM    H6G 9811   2.296   2.146   8.970  1.4046 -0.7722  1.3835
   98OSM    C7F 9812   2.396   1.999   8.881  0.1202 -0.6214  0.3515
   98OSM    H7F 9813   2.312   1.930   8.902  0.4843 -1.8191 -1.9520
   98OSM    H7G 9814   2.474   1.973   8.956  1.1425  0.2128 -0.4040
   98OSM    C8F 9815   2.448   1.957   8.741 -0.3565  0.4970 -0.5079
   98OSM    H8F 9816   2.499   1.861   8.760  0.6342  1.5386  2.3048
   98OSM    H8G 9817   2.534   2.024   8.716 -0.1437  0.4789  0.1789
   98OSM    C9F 9818   2.351   1.952   8.626 -0.3360 -0.1831  0.4306
   98OSM    H9F 9819   2.262   1.895   8.655 -0.8299 -0.7271 -2.0275
   98OSM   C10F 9820   2.384   1.984   8.499 -0.1972  0.3364 -0.4331
   98OSM   H10F 9821   2.309   1.967   8.421 -1.2356 -1.6899  0.9494
   98OSM   C11F 9822   2.524   2.040   8.461 -0.3445  0.9714 -0.3471
   98OSM   H11F 9823   2.552   2.001   8.361 -0.2569 -1.6394  0.6445
   98OSM   H11G 9824   2.608   1.996   8.519  0.2007  0.8022 -1.2559
   98OSM   C12F 9825   2.522   2.198   8.449 -0.4843 -1.0069 -0.4376
   98OSM   H12F 9826   2.620   2.216   8.400  0.4441 -0.1485  1.6587
   98OSM   H12G 9827   2.522   2.240   8.552  2.4452  0.7065 -1.0854
   98OSM   C13F 9828   2.393   2.252   8.370  0.2324  0.1297  0.1301
   98OSM   H13F 9829   2.298   2.212   8.412  0.8101  0.1105  1.4182
   98OSM   H13G 9830   2.412   2.212   8.268 -0.4684  0.0087  0.0447
   98OSM   C14F 9831   2.388   2.406   8.356 -0.0625  0.0498  0.2241
   98OSM   H14F 9832   2.493   2.440   8.349 -0.5569  1.8341  1.1886
   98OSM   H14G 9833   2.340   2.443   8.449 -1.8877 -1.0454 -0.2508
   98OSM   C15F 9834   2.302   2.454   8.231  0.7236 -0.1270  0.0635
   98OSM   H15F 9835   2.346   2.426   8.133  2.2978 -0.4183  0.8442
   98OSM   H15G 9836   2.295   2.564   8.243 -1.5373 -0.1388 -0.8197
   98OSM   C16F 9837   2.152   2.411   8.246 -0.6402 -0.0859 -0.2132
   98OSM   H16F 9838   2.121   2.456   8.343 -0.1046 -0.5424  0.1677
   98OSM   H16G 9839   2.140   2.301   8.255  0.3994 -0.0955  1.3501
   98OSM   C17F 9840   2.071   2.466   8.126 -0.0049 -0.3709 -0.0752
   98OSM   H17F 9841   1.973   2.415   8.139  0.4685 -0.8111  1.9427
   98OSM   H17G 9842   2.105   2.425   8.029  5.3302 -0.0879  1.4989
   98OSM   C18F 9843   2.044   2.614   8.131 -0.4552  0.3071 -0.4683
   98OSM   H18F 9844   2.140   2.670   8.129 -0.5066  0.4428  0.5925
   98OSM   H18G 9845   1.991   2.633   8.226  3.2368  2.0678  1.3401
   98OSM   H18H 9846   1.975   2.645   8.049  0.1631  3.5797  0.1859
   99OSM      N 9847   2.832   1.820  10.104  0.3508 -0.2657 -0.0092
   99OSM    C15 9848   2.732   1.898  10.018  0.0452 -0.3636  0.5677
   99OSM   H15A 9849   2.680   1.965  10.086  1.0277  1.6577 -0.6163
   99OSM   H15B 9850   2.656   1.830   9.984 -0.8512  0.4326  0.9259
   99OSM   H15C 9851   2.782   1.955   9.941 -1.3680 -0.5245 -0.4822
   99OSM    C14 9852   2.920   1.917  10.173 -0.4367 -0.3226 -0.1592
   99OSM   H14A 9853   2.935   2.007  10.116 -0.7242 -3.4194 -5.4405
   99OSM   H14B 9854   3.016   1.869  10.190 -0.6886 -0.9034 -0.3834
   99OSM   H14C 9855   2.879   1.948  10.268 -2.7238 -2.4760 -0.3881
   99OSM    C13 9856   2.761   1.734  10.203 -0.0444  0.2790  0.1603
   99OSM   H13A 9857   2.701   1.657  10.155  0.8150 -0.7155  0.6626
   99OSM   H13B 9858   2.697   1.793  10.266  1.2725 -1.5203  3.2667
   99OSM   H13C 9859   2.836   1.690  10.267 -0.3469  2.1174  1.7969
   99OSM    C12 9860   2.921   1.733  10.007 -0.2223  0.5641 -0.2602
   99OSM   H12A 9861   2.847   1.668   9.963 -0.3834  0.8732 -0.4480
   99OSM   H12B 9862   2.997   1.680  10.062  0.5909  2.9258  0.9692
   99OSM    C11 9863   2.998   1.809   9.891  0.3943 -0.3482  0.5923
   99OSM   H11A 9864   2.922   1.858   9.826  0.2656  0.0702  1.0637
   99OSM   H11B 9865   3.043   1.724   9.834 -2.4554  1.2518 -4.2947
   99OSM      P 9866   3.101   2.048   9.867 -0.2074 -0.3146  0.1960
   99OSM    O13 9867   2.979   2.126   9.886  0.0844 -0.5979 -0.6121
   99OSM    O14 9868   3.226   2.110   9.893 -0.8343 -0.3582  0.1913
   99OSM    O11 9869   3.093   2.006   9.706 -0.5768 -0.4930  0.2160
   99OSM    O12 9870   3.094   1.906   9.942  0.6350  0.3731  0.0480
   99OSM    C1S 9871   3.167   2.099   9.622  0.4355  0.2401 -0.0169
   99OSM    H1S 9872   3.276   2.079   9.636  0.2248 -2.6381 -2.1492
   99OSM    H1T 9873   3.147   2.205   9.648  1.0082  0.9781 -2.4469
   99OSM     NF 9874   3.201   2.167   9.393  0.3346  0.3255  0.3193
   99OSM    HNF 9875   3.173   2.260   9.369 -1.6314 -0.2076  0.4686
   99OSM    C2S 9876   3.121   2.083   9.480 -0.0794 -0.1469 -0.3515
   99OSM    H2S 9877   3.138   1.975   9.458 -1.1351 -0.3777 -0.0609
   99OSM    C3S 9878   2.970   2.102   9.459  0.6105  0.1321  0.1612
   99OSM    H3S 9879   2.949   2.203   9.502  0.1529 -0.0894  0.4638
   99OSM     O3 9880   2.893   2.006   9.525  0.1855  0.9078 -0.1355
   99OSM    HO3 9881   2.958   1.953   9.572 -1.9899 -0.7012  1.1301
   99OSM    C4S 9882   2.938   2.101   9.311 -0.8957  0.8157  0.4441
   99OSM    H4S 9883   2.975   2.010   9.263 -1.6199  1.0638 -0.5929
   99OSM    C5S 9884   2.871   2.195   9.249  0.2840  0.6915  1.0072
   99OSM    H5S 9885   2.838   2.287   9.300 -1.6717  0.0992  0.8397
   99OSM    C6S 9886   2.845   2.196   9.098 -0.3197  0.4455 -0.8456
   99OSM    H6S 9887   2.736   2.189   9.078  0.0700 -1.3359 -2.4567
   99OSM    H6T 9888   2.904   2.122   9.040  1.2482  1.9493 -1.1827
   99OSM    C7S 9889   2.884   2.334   9.038  0.3562 -0.7420  1.0961
   99OSM    H7S 9890   2.994   2.345   9.029  0.1600  1.2318  0.8935
   99OSM    H7T 9891   2.848   2.423   9.094 -1.8277 -0.1171 -1.2325
   99OSM    C8S 9892   2.822   2.339   8.891 -0.6398 -0.0144 -0.9807
   99OSM    H8S 9893   2.716   2.365   8.913 -0.7046  0.2556 -1.5887
   99OSM    H8T 9894   2.829   2.234   8.855  0.5175 -0.1665 -0.3566
   99OSM    C9S 9895   2.895   2.446   8.806 -0.3472 -0.7044 -0.1141
   99OSM    H9S 9896   3.004   2.440   8.825 -0.3040 -0.9830 -0.4522
   99OSM    H9T 9897   2.846   2.543   8.830  2.9096  1.1915 -0.7619
   99OSM   C10S 9898   2.855   2.431   8.654 -0.4279 -0.3191  0.1365
   99OSM   H10S 9899   2.756   2.481   8.647  0.4411  1.4323  0.0963
   99OSM   H10T 9900   2.839   2.325   8.625 -2.0228  0.0872 -0.4947
   99OSM   C11S 9901   2.965   2.483   8.562 -0.2603 -0.5168  0.0219
   99OSM   H11S 9902   3.059   2.438   8.599 -0.5263  0.5892  2.0800
   99OSM   H11T 9903   2.974   2.594   8.558 -1.3300 -0.3335  2.1323
   99OSM   C12S 9904   2.931   2.435   8.410  0.2712 -0.2044 -0.0395
   99OSM   H12S 9905   2.920   2.324   8.409 -0.0132 -0.1707 -0.4112
   99OSM   H12T 9906   2.833   2.480   8.385 -0.4377 -1.3609  0.5628
   99OSM   C13S 9907   3.028   2.477   8.296  0.7576  0.0775  0.7494
   99OSM   H13S 9908   3.030   2.587   8.284 -3.1441  0.2708  1.3367
   99OSM   H13T 9909   2.987   2.433   8.203  2.2378  0.3449 -0.0307
   99OSM   C14S 9910   3.169   2.429   8.333  0.3503  0.3688 -0.1643
   99OSM   H14S 9911   3.160   2.320   8.356 -2.6752  0.1695 -2.0803
   99OSM   H14T 9912   3.204   2.487   8.421 -0.3718  0.4604  0.0648
   99OSM   C15S 9913   3.260   2.442   8.212  0.1165 -0.6880  0.1268
   99OSM   H15S 9914   3.234   2.536   8.159 -0.3470 -1.0238 -0.2516
   99OSM   H15T 9915   3.238   2.364   8.136  3.1012 -1.5460  0.0636
   99OSM   C16S 9916   3.410   2.431   8.242  0.4856 -0.1686  0.1266
   99OSM   H16S 9917   3.419   2.339   8.303  0.4603  0.3813  0.9695
   99OSM   H16T 9918   3.445   2.512   8.309 -1.2356 -0.2420  1.1317
   99OSM   C17S 9919   3.503   2.423   8.120  0.4854 -0.5640 -0.0158
   99OSM   H17S 9920   3.461   2.356   8.041  2.5009 -0.1104 -1.4974
   99OSM   H17T 9921   3.605   2.388   8.145  0.3184  0.2877  1.9498
   99OSM   C18S 9922   3.520   2.558   8.045  0.6330 -0.2766  0.3461
   99OSM   H18S 9923   3.427   2.601   8.004  0.1910 -1.2574  0.3041
   99OSM   H18T 9924   3.587   2.548   7.956  1.7553 -2.0399  1.3477
   99OSM   H18U 9925   3.583   2.624   8.109 -0.0806  0.8199 -0.0712
   99OSM    C1F 9926   3.320   2.150   9.364  0.1637  0.3116 -0.2031
   99OSM     OF 9927   3.367   2.035   9.375  0.7301 -0.7494  0.0510
   99OSM    C2F 9928   3.399   2.267   9.313  0.1372 -0.0401 -0.2910
   99OSM    H2F 9929   3.431   2.324   9.403 -1.3973  2.4999 -1.3036
   99OSM    H2G 9930   3.323   2.329   9.261 -0.9824 -0.3965  0.8921
   99OSM    C3F 9931   3.497   2.247   9.200  0.0344 -0.4157  0.1992
   99OSM    H3F 9932   3.536   2.349   9.179 -0.0249 -0.5444 -0.5654
   99OSM    H3G 9933   3.587   2.190   9.233  0.4478 -0.5622 -1.1468
   99OSM    C4F 9934   3.431   2.186   9.076  0.0831  0.2431 -0.6970
   99OSM    H4F 9935   3.341   2.243   9.046  0.1721 -0.7477 -2.8807
   99OSM    H4G 9936   3.397   2.087   9.112  1.5461  0.3587  1.1041
   99OSM    C5F 9937   3.524   2.178   8.949 -0.0967  0.6608  0.4531
   99OSM    H5F 9938   3.574   2.079   8.955 -0.7385  0.3876  1.4295
   99OSM    H5G 9939   3.606   2.252   8.953  0.9064 -0.4310  0.4576
   99OSM    C6F 9940   3.450   2.192   8.813  0.4090  0.0958 -0.1724
   99OSM    H6F 9941   3.524   2.214   8.733  0.7063  1.1532  0.3794
   99OSM    H6G 9942   3.376   2.273   8.830 -1.8472 -2.1073  0.9629
   99OSM    C7F 9943   3.385   2.050   8.785  0.1386  0.4767 -0.1742
   99OSM    H7F 9944   3.380   1.998   8.883  1.5039 -1.2563 -1.0014
   99OSM    H7G 9945   3.453   2.000   8.712  0.0508 -0.2546  0.2332
   99OSM    C8F 9946   3.237   2.059   8.721 -0.1780  0.2358 -0.2175
   99OSM    H8F 9947   3.171   2.139   8.759 -0.2343 -0.7321  1.7646
   99OSM    H8G 9948   3.181   1.966   8.746 -1.4260  0.8490 -0.6667
   99OSM    C9F 9949   3.250   2.052   8.567 -0.0931  0.4169 -0.1884
   99OSM    H9F 9950   3.256   2.151   8.520 -1.6633 -0.2217 -1.8205
   99OSM   C10F 9951   3.253   1.933   8.492  0.3950  0.2038 -0.4312
   99OSM   H10F 9952   3.259   1.944   8.383 -1.3070 -1.3767 -0.7118
   99OSM   C11F 9953   3.237   1.788   8.539 -0.1728 -0.1686  0.0490
   99OSM   H11F 9954   3.195   1.779   8.641  2.4169 -3.0339  0.9532
   99OSM   H11G 9955   3.339   1.745   8.546  0.1327  0.4957 -0.2396
   99OSM   C12F 9956   3.147   1.702   8.446  0.1361  0.7434  0.2383
   99OSM   H12F 9957   3.052   1.755   8.420  1.0615  1.8742 -0.8814
   99OSM   H12G 9958   3.117   1.613   8.505  3.1360 -2.3600 -2.6935
   99OSM   C13F 9959   3.214   1.655   8.314  0.2866 -0.2097 -0.8863
   99OSM   H13F 9960   3.289   1.577   8.340  0.6224  0.3471 -0.1862
   99OSM   H13G 9961   3.261   1.744   8.267 -0.8671  1.1603  0.5233
   99OSM   C14F 9962   3.111   1.590   8.215  0.2630 -0.6142  0.0676
   99OSM   H14F 9963   3.151   1.558   8.117  0.0293  0.9509 -0.5553
   99OSM   H14G 9964   3.021   1.655   8.203 -1.6167 -3.5086 -2.0274
   99OSM   C15F 9965   3.059   1.455   8.257  0.3568 -0.1591  0.2667
   99OSM   H15F 9966   2.997   1.460   8.348  0.7166 -0.6872  0.5417
   99OSM   H15G 9967   3.140   1.384   8.283  0.6107 -0.7696 -2.0353
   99OSM   C16F 9968   2.980   1.381   8.141 -0.0234 -0.1290  0.4783
   99OSM   H16F 9969   3.060   1.337   8.078 -0.0323 -1.5707  1.4669
   99OSM   H16G 9970   2.905   1.442   8.086  1.3268  2.5776  1.5018
   99OSM   C17F 9971   2.899   1.254   8.188 -0.2451  0.0593 -1.4906
   99OSM   H17F 9972   2.818   1.281   8.259  0.5070 -3.3373  0.7439
   99OSM   H17G 9973   2.970   1.183   8.234  1.4837  1.7499 -1.4934
   99OSM   C18F 9974   2.836   1.179   8.079  0.1441  0.0988 -0.0923
   99OSM   H18F 9975   2.897   1.127   8.001  0.7809  0.3664  0.2200
   99OSM   H18G 9976   2.752   1.237   8.037  0.0271  0.1186  0.1669
   99OSM   H18H 9977   2.795   1.090   8.131 -0.8485  1.6783  1.8669
  100OSM      N 9978   5.725   4.035  10.171 -0.3286 -0.7087  0.0608
  100OSM    C15 9979   5.846   4.113  10.172  0.9239  0.4728 -0.1751
  100OSM   H15A 9980   5.914   4.061  10.238  0.6009 -0.1912 -0.3586
  100OSM   H15B 9981   5.828   4.209  10.217  2.6548 -0.5028  2.7341
  100OSM   H15C 9982   5.883   4.127  10.072  1.9135  1.9613  0.3729
  100OSM    C14 9983   5.755   3.905  10.096  0.3301  0.0244  0.0088
  100OSM   H14A 9984   5.766   3.916   9.989 -1.9581 -0.1348 -0.2585
  100OSM   H14B 9985   5.665   3.846  10.103  2.1581 -2.7668  1.0806
  100OSM   H14C 9986   5.840   3.855  10.140 -0.4111 -0.4557  0.9237
  100OSM    C13 9987   5.689   4.004  10.313 -0.8579 -0.0053 -0.2113
  100OSM   H13A 9988   5.614   3.927  10.307  0.3501 -1.0538 -2.2359
  100OSM   H13B 9989   5.652   4.097  10.354 -2.0785 -1.6382  2.5121
  100OSM   H13C 9990   5.769   3.971  10.377 -1.5552  0.3413  0.8453
  100OSM    C12 9991   5.616   4.113  10.095 -0.3822  0.1986 -0.7090
  100OSM   H12A 9992   5.655   4.128   9.995  0.9348  1.8305  0.0396
  100OSM   H12B 9993   5.605   4.209  10.143  2.7080  0.8493 -1.2311
  100OSM    C11 9994   5.473   4.059  10.087  0.6121  0.0649 -0.4114
  100OSM   H11A 9995   5.418   4.142  10.038 -0.4295  0.5970  1.6293
  100OSM   H11B 9996   5.422   4.035  10.182 -0.0811  0.7843 -0.5947
  100OSM      P 9997   5.479   3.953   9.853  0.1332 -0.4563  0.0349
  100OSM    O13 9998   5.418   3.827   9.801 -0.4892  0.1185 -0.6668
  100OSM    O14 9999   5.438   4.085   9.799  0.1054  0.7150 -0.5430
  100OSM    O1110000   5.639   3.950   9.845 -0.1148 -0.3622  0.2798
  100OSM    O1210001   5.458   3.945  10.004 -0.4441  0.0874 -0.6195
  100OSM    C1S10002   5.711   3.870   9.748 -0.2986 -0.1636  0.5507
  100OSM    H1S10003   5.649   3.847   9.658 -0.4494  0.3959  0.5126
  100OSM    H1T10004   5.763   3.779   9.785  0.5546 -0.5773 -1.5986
  100OSM     NF10005   5.923   3.858   9.613  0.0384  0.8647  0.8807
  100OSM    HNF10006   6.021   3.854   9.629 -0.0381  1.8065  1.6002
  100OSM    C2S10007   5.836   3.946   9.686  0.0652  0.1637  0.1523
  100OSM    H2S10008   5.792   4.017   9.612 -0.1564 -0.3589 -0.2260
  100OSM    C3S10009   5.913   4.035   9.790  0.5402  0.5773 -0.5141
  100OSM    H3S10010   5.940   3.980   9.883 -1.0214  2.6274  1.1913
  100OSM     O310011   5.824   4.130   9.842 -0.0252 -0.0548  0.1585
  100OSM    HO310012   5.734   4.106   9.820 -0.2223  1.2819 -0.6207
  100OSM    C4S10013   6.030   4.095   9.720  0.5603 -0.1090 -0.1987
  100OSM    H4S10014   6.127   4.048   9.741  0.0999 -1.0045 -0.0069
  100OSM    C5S10015   6.024   4.210   9.646  0.1898 -0.1655 -0.1288
  100OSM    H5S10016   5.934   4.268   9.621 -0.4615 -1.6649 -1.4032
  100OSM    C6S10017   6.146   4.267   9.581  0.3978 -0.2049 -0.9722
  100OSM    H6S10018   6.228   4.273   9.655 -0.5902 -0.4489  0.1591
  100OSM    H6T10019   6.121   4.371   9.552 -3.3736 -1.2593 -1.8246
  100OSM    C7S10020   6.186   4.193   9.455 -0.5952 -0.4722 -0.7388
  100OSM    H7S10021   6.101   4.176   9.386 -1.1829  1.3589 -0.4977
  100OSM    H7T10022   6.232   4.098   9.489  1.7777  0.9761  0.2591
  100OSM    C8S10023   6.303   4.263   9.389  0.7275 -0.2764 -0.9766
  100OSM    H8S10024   6.399   4.228   9.432 -0.6809 -0.9437  1.7032
  100OSM    H8T10025   6.289   4.369   9.420  1.0551 -0.5862  0.2696
  100OSM    C9S10026   6.312   4.259   9.237 -0.2950 -0.4451 -0.5807
  100OSM    H9S10027   6.384   4.333   9.195 -0.6626  0.7173  0.8040
  100OSM    H9T10028   6.209   4.286   9.205 -0.8517 -1.4239  0.3280
  100OSM   C10S10029   6.335   4.118   9.174  0.4347 -0.3431  0.5699
  100OSM   H10S10030   6.267   4.046   9.223  0.7977 -1.7039 -0.9015
  100OSM   H10T10031   6.437   4.085   9.202  1.1440  0.7630 -0.6519
  100OSM   C11S10032   6.320   4.099   9.023  0.2128 -0.0705 -0.1111
  100OSM   H11S10033   6.392   4.159   8.963  3.5036 -1.2593  2.4946
  100OSM   H11T10034   6.216   4.120   8.990  0.2172 -1.2355 -0.9225
  100OSM   C12S10035   6.367   3.954   8.980  0.4299  0.0470 -0.0784
  100OSM   H12S10036   6.300   3.881   9.030 -0.4652  0.6494 -0.3787
  100OSM   H12T10037   6.469   3.928   9.013  0.4978 -2.0225 -1.8099
  100OSM   C13S10038   6.355   3.932   8.827  0.7248  0.5149 -0.0922
  100OSM   H13S10039   6.405   4.016   8.774 -2.2703  1.4187 -1.6034
  100OSM   H13T10040   6.250   3.932   8.792  1.2416 -0.0013 -1.6661
  100OSM   C14S10041   6.426   3.802   8.776  0.5195  1.2206 -0.0304
  100OSM   H14S10042   6.364   3.716   8.810  0.7549  0.9292 -0.3372
  100OSM   H14T10043   6.519   3.790   8.834  2.4881  1.1953 -3.0515
  100OSM   C15S10044   6.463   3.795   8.625 -0.3913 -0.2890 -0.1428
  100OSM   H15S10045   6.509   3.694   8.615 -1.0854 -0.7058  0.8060
  100OSM   H15T10046   6.531   3.872   8.584  0.3938 -0.9908 -0.1722
  100OSM   C16S10047   6.336   3.793   8.535  0.8415 -1.1498  0.6463
  100OSM   H16S10048   6.366   3.792   8.428 -0.9742  0.8603  0.0858
  100OSM   H16T10049   6.285   3.891   8.545  0.6230 -1.1166 -0.8027
  100OSM   C17S10050   6.235   3.682   8.564 -0.1204 -0.1868  0.7891
  100OSM   H17S10051   6.213   3.692   8.673  1.8475  0.0485  1.1956
  100OSM   H17T10052   6.283   3.582   8.553 -2.5093 -1.7851  3.9788
  100OSM   C18S10053   6.108   3.709   8.478 -0.4616  0.5108 -0.1566
  100OSM   H18S10054   6.136   3.761   8.384 -1.2819  0.5745 -0.3707
  100OSM   H18T10055   6.039   3.776   8.532  0.2071  0.2648  1.0049
  100OSM   H18U10056   6.054   3.612   8.466  2.3689 -1.1134 -0.3291
  100OSM    C1F10057   5.890   3.798   9.501  0.4363  0.4820 -0.4237
  100OSM     OF10058   5.793   3.836   9.437  0.0384 -0.1439  0.4254
  100OSM    C2F10059   5.988   3.703   9.445  0.3242 -1.1573 -0.1938
  100OSM    H2F10060   5.942   3.638   9.368  0.0880 -3.6243  1.9748
  100OSM    H2G10061   6.013   3.626   9.521 -1.7141 -2.7085 -1.0763
  100OSM    C3F10062   6.104   3.787   9.386 -0.4691 -0.0624  0.2951
  100OSM    H3F10063   6.145   3.865   9.454 -0.0207  1.2690 -1.4700
  100OSM    H3G10064   6.065   3.847   9.301 -0.9736 -1.1640 -0.2635
  100OSM    C4F10065   6.215   3.702   9.323 -0.6379 -0.3202  0.4233
  100OSM    H4F10066   6.256   3.624   9.391  1.3059  1.0393  0.8588
  100OSM    H4G10067   6.297   3.772   9.299 -1.2301 -0.4465 -2.1126
  100OSM    C5F10068   6.169   3.632   9.195  0.3681 -0.3985  0.2201
  100OSM    H5F10069   6.118   3.706   9.129 -0.1594 -1.0237 -0.0760
  100OSM    H5G10070   6.090   3.555   9.212 -2.2958  1.7023 -2.0396
  100OSM    C6F10071   6.285   3.562   9.126 -0.4578 -0.4738 -0.1319
  100OSM    H6F10072   6.369   3.527   9.190 -0.8476 -2.1921 -0.5248
  100OSM    H6G10073   6.331   3.636   9.057  1.0523 -0.9632  0.3443
  100OSM    C7F10074   6.240   3.431   9.054 -0.9629 -0.8372  0.2438
  100OSM    H7F10075   6.130   3.414   9.059 -1.2130 -1.0740 -3.8819
  100OSM    H7G10076   6.279   3.335   9.095  0.0973 -1.1608 -1.4748
  100OSM    C8F10077   6.279   3.436   8.903 -0.2857  0.1388  0.0838
  100OSM    H8F10078   6.385   3.460   8.879 -0.9370  1.6171 -1.4292
  100OSM    H8G10079   6.229   3.521   8.852  0.5464 -1.4153 -3.4248
  100OSM    C9F10080   6.255   3.307   8.841 -0.2104  0.2285  0.2887
  100OSM    H9F10081   6.305   3.217   8.880  1.0999  0.8297  0.0098
  100OSM   C10F10082   6.171   3.278   8.747 -0.6449  0.2962  0.2529
  100OSM   H10F10083   6.156   3.174   8.715 -0.1769  0.6212 -1.0693
  100OSM   C11F10084   6.093   3.380   8.656  0.1470  0.4860 -0.4431
  100OSM   H11F10085   6.129   3.370   8.551 -0.3568  2.1604 -0.7877
  100OSM   H11G10086   6.106   3.486   8.686  1.6606 -0.2047  1.4536
  100OSM   C12F10087   5.935   3.337   8.665  0.2577  0.7256  0.6501
  100OSM   H12F10088   5.910   3.324   8.772 -1.2608  0.8723  0.3261
  100OSM   H12G10089   5.911   3.245   8.609 -0.6293  1.5704 -0.3758
  100OSM   C13F10090   5.842   3.453   8.615  0.6238 -0.2670 -0.2939
  100OSM   H13F10091   5.878   3.549   8.658  0.0224  0.1653 -0.7590
  100OSM   H13G10092   5.744   3.429   8.660  0.7044  0.3074  0.2033
  100OSM   C14F10093   5.823   3.456   8.459  0.2500 -0.1349  0.3146
  100OSM   H14F10094   5.760   3.368   8.433 -0.0763  0.1140  0.2505
  100OSM   H14G10095   5.916   3.468   8.399 -0.1600 -1.7011 -0.6481
  100OSM   C15F10096   5.741   3.587   8.428 -0.9553  0.6994 -0.4944
  100OSM   H15F10097   5.801   3.672   8.468  2.7921 -2.2335  0.4896
  100OSM   H15G10098   5.650   3.580   8.490 -0.2748  0.1459  0.4566
  100OSM   C16F10099   5.713   3.597   8.281 -0.0523 -0.8815  0.2335
  100OSM   H16F10100   5.651   3.517   8.236 -0.3164 -2.2707  2.9673
  100OSM   H16G10101   5.809   3.586   8.225 -1.2671 -1.0310 -1.8918
  100OSM   C17F10102   5.656   3.740   8.244  0.8128  0.3376 -0.4674
  100OSM   H17F10103   5.650   3.748   8.133  0.5925 -1.8454 -0.6231
  100OSM   H17G10104   5.732   3.813   8.280  0.9604  0.8537 -1.7939
  100OSM   C18F10105   5.527   3.769   8.307  0.0061  0.0745 -0.8795
  100OSM   H18F10106   5.533   3.731   8.411  1.7431 -0.5448 -1.2022
  100OSM   H18G10107   5.446   3.706   8.265  1.5758 -1.0941 -2.1916
  100OSM   H18H10108   5.500   3.877   8.315  1.6722  0.5126 -0.9823
  101OSM      N10109   1.986   3.649   9.901 -0.9690 -0.5539  0.2844
  101OSM    C1510110   1.986   3.537  10.000 -1.0286 -1.0974 -0.6975
  101OSM   H15A10111   1.915   3.558  10.079  0.2972 -0.5372  0.3640
  101OSM   H15B10112   2.087   3.522  10.036 -0.1388  1.2721 -2.1639
  101OSM   H15C10113   1.945   3.447   9.956 -4.1363  0.2678 -0.7090
  101OSM    C1410114   2.070   3.755   9.955 -0.0204 -0.1950 -0.4528
  101OSM   H14A10115   2.054   3.773  10.061  0.4081 -1.4118 -0.1774
  101OSM   H14B10116   2.045   3.849   9.909 -0.2568  0.0275  0.1240
  101OSM   H14C10117   2.173   3.733   9.933 -0.3433  0.3634 -2.5669
  101OSM    C1310118   2.051   3.607   9.774  0.2325 -0.2442  0.1605
  101OSM   H13A10119   2.050   3.685   9.700 -0.5628 -1.8890 -1.6029
  101OSM   H13B10120   1.987   3.530   9.733  0.9840 -0.9687  0.3381
  101OSM   H13C10121   2.146   3.560   9.791  0.3125  0.1000  0.6753
  101OSM    C1210122   1.841   3.697   9.873  0.1332  0.4853  1.0401
  101OSM   H12A10123   1.798   3.722   9.969  0.7156 -0.6056  1.6095
  101OSM   H12B10124   1.789   3.611   9.832  0.2413  1.5451 -1.3682
  101OSM    C1110125   1.818   3.812   9.778  0.2756  0.5780  0.4512
  101OSM   H11A10126   1.709   3.833   9.769  0.4963  0.2923 -4.3803
  101OSM   H11B10127   1.860   3.796   9.676 -1.6546  2.4363 -0.6966
  101OSM      P10128   1.828   4.036   9.922  0.3142 -0.3682 -0.0890
  101OSM    O1310129   1.734   3.992  10.028  0.2562  0.2868  0.5590
  101OSM    O1410130   1.941   4.121   9.973  0.2422  0.3273 -0.5492
  101OSM    O1110131   1.743   4.116   9.812  0.1084  0.3291  0.2728
  101OSM    O1210132   1.886   3.920   9.836  0.0333 -0.1268 -0.2700
  101OSM    C1S10133   1.815   4.189   9.710  0.3538 -0.9122 -0.4105
  101OSM    H1S10134   1.904   4.128   9.684  0.4057 -0.9013 -0.2590
  101OSM    H1T10135   1.830   4.289   9.756  0.5702 -0.8144 -0.6934
  101OSM     NF10136   1.835   4.245   9.463 -1.0359  0.5349  0.1391
  101OSM    HNF10137   1.853   4.343   9.456  0.9926  0.0498 -2.3311
  101OSM    C2S10138   1.746   4.205   9.568  0.1455 -0.2222 -0.2884
  101OSM    H2S10139   1.704   4.107   9.537  1.6047 -1.4635  1.5785
  101OSM    C3S10140   1.626   4.292   9.581  0.3754 -0.0766  0.0345
  101OSM    H3S10141   1.671   4.391   9.605 -0.4656 -0.0035  1.3575
  101OSM     O310142   1.556   4.258   9.700  0.2042 -0.0915 -0.2053
  101OSM    HO310143   1.614   4.190   9.736 -0.8379 -1.1519 -0.4836
  101OSM    C4S10144   1.546   4.296   9.454  0.2628 -0.4523 -0.1676
  101OSM    H4S10145   1.571   4.224   9.375 -0.3099 -0.1128 -0.6525
  101OSM    C5S10146   1.436   4.377   9.445 -0.1192 -0.3919  0.1173
  101OSM    H5S10147   1.413   4.435   9.536 -0.1718 -0.3754  0.0946
  101OSM    C6S10148   1.342   4.388   9.328 -1.2988 -0.0880 -0.1095
  101OSM    H6S10149   1.330   4.497   9.312  0.8433  0.3190  0.8502
  101OSM    H6T10150   1.242   4.356   9.364 -0.5409 -0.0916  2.0734
  101OSM    C7S10151   1.394   4.324   9.197 -0.3329  0.0328 -0.5800
  101OSM    H7S10152   1.391   4.213   9.206  0.6715  0.0879  0.5360
  101OSM    H7T10153   1.501   4.347   9.178  0.0604 -1.2015  0.0342
  101OSM    C8S10154   1.313   4.386   9.082 -0.2634 -0.0213 -0.2420
  101OSM    H8S10155   1.341   4.493   9.068 -0.3631  0.2091  1.2191
  101OSM    H8T10156   1.210   4.379   9.124 -0.5363 -0.3702 -0.9817
  101OSM    C9S10157   1.317   4.307   8.948 -0.1788  0.2491 -0.0143
  101OSM    H9S10158   1.224   4.328   8.890 -1.0308  2.1020  1.9411
  101OSM    H9T10159   1.330   4.201   8.976  2.2268 -0.2042 -2.5849
  101OSM   C10S10160   1.431   4.368   8.864 -0.7205 -0.3660  0.6382
  101OSM   H10S10161   1.524   4.353   8.924  0.3989  0.3319 -0.8778
  101OSM   H10T10162   1.414   4.476   8.848  2.5744 -0.0339 -1.2600
  101OSM   C11S10163   1.458   4.289   8.735 -0.1359 -0.1838 -0.4528
  101OSM   H11S10164   1.500   4.362   8.662  1.2241 -0.8596 -0.3549
  101OSM   H11T10165   1.358   4.253   8.702  0.1799 -0.2084 -1.4108
  101OSM   C12S10166   1.543   4.165   8.759 -0.0505 -0.2009 -0.9323
  101OSM   H12S10167   1.496   4.087   8.823 -0.2291  1.3748  0.9054
  101OSM   H12T10168   1.636   4.200   8.807 -0.6855  0.8667 -0.4676
  101OSM   C13S10169   1.571   4.093   8.627  0.1955  0.4275  0.3367
  101OSM   H13S10170   1.473   4.088   8.574  0.3614  0.9568 -0.0251
  101OSM   H13T10171   1.599   3.987   8.639  0.7472  0.5431  0.0752
  101OSM   C14S10172   1.676   4.166   8.536  0.5058  1.0283 -1.5239
  101OSM   H14S10173   1.642   4.270   8.517  1.1139  0.9917 -2.8713
  101OSM   H14T10174   1.688   4.120   8.435  1.2060  1.0072 -1.4326
  101OSM   C15S10175   1.823   4.176   8.589 -0.7662  0.4634 -0.2533
  101OSM   H15S10176   1.824   4.231   8.685 -0.3953  1.4349 -0.8073
  101OSM   H15T10177   1.882   4.238   8.518 -1.9065 -0.3680 -1.9707
  101OSM   C16S10178   1.894   4.045   8.633  0.0895 -0.1601 -0.5938
  101OSM   H16S10179   1.851   3.961   8.574  0.8385 -0.0628 -1.2825
  101OSM   H16T10180   1.857   4.022   8.735  0.2383  1.3758 -0.1873
  101OSM   C17S10181   2.048   4.062   8.627 -0.2235 -0.0105 -0.3324
  101OSM   H17S10182   2.077   4.076   8.521 -1.1894  1.0609 -0.4713
  101OSM   H17T10183   2.101   3.971   8.661 -0.2818 -0.2850 -0.9722
  101OSM   C18S10184   2.109   4.187   8.701 -0.4465  0.2173  0.1757
  101OSM   H18S10185   2.080   4.185   8.808 -0.5842 -3.1443  0.1243
  101OSM   H18T10186   2.067   4.279   8.653 -0.7510 -0.0050  0.0188
  101OSM   H18U10187   2.220   4.183   8.689 -0.4389 -1.9904  0.7858
  101OSM    C1F10188   1.923   4.155   9.414 -0.6725  0.2917 -0.5871
  101OSM     OF10189   1.923   4.036   9.446  0.1969 -0.0958 -0.1054
  101OSM    C2F10190   2.028   4.205   9.324 -0.2043  0.7320 -0.6783
  101OSM    H2F10191   2.116   4.203   9.392  0.3387 -1.1030 -1.4130
  101OSM    H2G10192   1.999   4.312   9.315  1.1645  1.2688  0.9966
  101OSM    C3F10193   2.042   4.126   9.199  0.1783  0.3332 -0.1836
  101OSM    H3F10194   2.057   4.020   9.230 -2.5160  0.3977  1.4999
  101OSM    H3G10195   2.136   4.140   9.142 -0.2814  0.8005 -0.8260
  101OSM    C4F10196   1.929   4.153   9.096 -0.4928 -0.1002 -0.3918
  101OSM    H4F10197   1.973   4.200   9.006 -0.7744 -1.2566 -1.1445
  101OSM    H4G10198   1.866   4.236   9.135  2.0815  1.7249 -0.0252
  101OSM    C5F10199   1.857   4.029   9.059 -0.3654 -0.1297  0.4611
  101OSM    H5F10200   1.784   4.064   8.983  0.0138 -2.1385 -0.8560
  101OSM    H5G10201   1.799   3.987   9.143 -1.3309 -2.3862 -1.2824
  101OSM    C6F10202   1.937   3.925   8.996  0.5494  0.5308 -0.2017
  101OSM    H6F10203   1.975   3.935   8.893  0.8892  0.2518 -0.1015
  101OSM    H6G10204   2.025   3.893   9.056  1.8454  2.3746 -1.0614
  101OSM    C7F10205   1.848   3.793   8.987 -0.4992  0.4283  0.1620
  101OSM    H7F10206   1.764   3.816   8.918 -0.6369 -1.3118 -0.2698
  101OSM    H7G10207   1.814   3.766   9.089  1.5404  0.0230  0.7652
  101OSM    C8F10208   1.933   3.675   8.939  0.0998  0.0685 -0.1281
  101OSM    H8F10209   1.865   3.588   8.927  2.0606 -1.5399  0.0231
  101OSM    H8G10210   2.003   3.638   9.018 -1.8566 -0.0318  1.6099
  101OSM    C9F10211   2.005   3.693   8.805  0.0453  0.4516 -0.8681
  101OSM    H9F10212   2.079   3.774   8.811 -0.2208  0.8642 -2.6796
  101OSM   C10F10213   1.966   3.644   8.683  0.5181  0.5166 -0.7967
  101OSM   H10F10214   2.036   3.658   8.599  0.1890 -0.5285 -1.2410
  101OSM   C11F10215   1.839   3.574   8.648  0.5571 -0.2679 -0.0490
  101OSM   H11F10216   1.777   3.547   8.736 -2.9083  3.1095 -1.3288
  101OSM   H11G10217   1.844   3.480   8.588 -1.5440  1.3548 -2.8901
  101OSM   C12F10218   1.764   3.664   8.549 -0.5100  0.2839  0.0119
  101OSM   H12F10219   1.732   3.757   8.600  0.2814  1.2990 -1.3379
  101OSM   H12G10220   1.671   3.611   8.521 -1.0487  0.0571  2.0986
  101OSM   C13F10221   1.840   3.694   8.424  0.2088  0.2783  0.1114
  101OSM   H13F10222   1.910   3.614   8.393 -0.6369 -0.6174  0.4864
  101OSM   H13G10223   1.892   3.790   8.403 -1.9300  1.1618 -1.3303
  101OSM   C14F10224   1.735   3.707   8.309 -0.0228 -0.3907  0.3211
  101OSM   H14F10225   1.662   3.625   8.296  1.5412 -1.8738  0.6696
  101OSM   H14G10226   1.797   3.705   8.217 -0.9172 -0.6219 -0.2844
  101OSM   C15F10227   1.660   3.847   8.298 -0.8909 -0.1579 -0.6591
  101OSM   H15F10228   1.731   3.929   8.322 -0.3697 -0.4358 -1.2520
  101OSM   H15G10229   1.590   3.843   8.385 -1.2542  0.3874 -0.9252
  101OSM   C16F10230   1.592   3.878   8.168  0.0723  0.9307 -1.0049
  101OSM   H16F10231   1.527   3.796   8.131  2.6350 -1.1188 -1.1063
  101OSM   H16G10232   1.676   3.894   8.097  0.8316  0.2102 -0.2645
  101OSM   C17F10233   1.511   4.006   8.188  0.2853 -0.1000 -0.1839
  101OSM   H17F10234   1.465   4.033   8.091 -2.3058  1.5181  1.4141
  101OSM   H17G10235   1.565   4.094   8.229 -1.0705  0.8055 -0.3008
  101OSM   C18F10236   1.395   3.980   8.292  0.9571  0.3100 -0.1159
  101OSM   H18F10237   1.327   3.901   8.255  0.6071  0.3997  0.3318
  101OSM   H18G10238   1.322   4.063   8.301 -1.6328 -1.8109 -0.9491
  101OSM   H18H10239   1.433   3.960   8.395  2.0467  0.9500 -0.3724
  102OSM      N10240   3.392   5.409  10.140 -0.0240  0.6744  0.0149
  102OSM    C1510241   3.523   5.441  10.067  0.0258  0.1526 -0.4657
  102OSM   H15A10242   3.580   5.514  10.123  1.6746 -2.0286  0.7641
  102OSM   H15B10243   3.502   5.463   9.963 -1.0987  1.8111  0.0971
  102OSM   H15C10244   3.573   5.346  10.056 -1.7931 -0.7933 -0.7606
  102OSM    C1410245   3.326   5.288  10.075 -0.5390 -0.1216  0.5173
  102OSM   H14A10246   3.240   5.249  10.127 -0.7376 -1.8049 -0.9834
  102OSM   H14B10247   3.397   5.208  10.060 -2.1325 -1.3821 -0.5756
  102OSM   H14C10248   3.300   5.316   9.974 -2.5895 -1.4673  0.6277
  102OSM    C1310249   3.427   5.369  10.284  0.2393  0.3138 -0.3173
  102OSM   H13A10250   3.342   5.340  10.344  1.1425 -0.8809  0.4100
  102OSM   H13B10251   3.489   5.441  10.336 -0.3374 -0.1034  0.9670
  102OSM   H13C10252   3.481   5.276  10.288 -0.4540 -0.2502 -3.3585
  102OSM    C1210253   3.292   5.530  10.128 -0.6716  0.4237  0.1172
  102OSM   H12A10254   3.331   5.602  10.199  1.3336  0.0896 -0.5986
  102OSM   H12B10255   3.199   5.495  10.170 -1.3429  0.5004 -1.2993
  102OSM    C1110256   3.256   5.590   9.989 -0.0030 -0.1847 -0.2205
  102OSM   H11A10257   3.349   5.632   9.946 -0.8775 -0.6868 -2.6576
  102OSM   H11B10258   3.187   5.676   9.999  1.5554  1.3817 -2.5724
  102OSM      P10259   3.235   5.475   9.748  0.2916  0.0818  0.5524
  102OSM    O1310260   3.196   5.337   9.709 -0.0853 -0.1050  0.5532
  102OSM    O1410261   3.185   5.588   9.665  0.2222  0.4141 -0.7235
  102OSM    O1110262   3.395   5.468   9.748  0.6655  0.0705 -0.5360
  102OSM    O1210263   3.194   5.500   9.897 -0.2087  0.4265 -0.4186
  102OSM    C1S10264   3.467   5.377   9.663 -0.3863 -0.2831  0.5083
  102OSM    H1S10265   3.405   5.305   9.606  0.1819  0.6045 -1.2831
  102OSM    H1T10266   3.534   5.327   9.735  1.6674  0.4604 -0.8249
  102OSM     NF10267   3.588   5.371   9.448 -0.4062 -0.3334  0.9186
  102OSM    HNF10268   3.680   5.338   9.430 -0.1946 -1.7855  4.3376
  102OSM    C2S10269   3.557   5.453   9.561 -0.2243 -0.4822 -0.0313
  102OSM    H2S10270   3.504   5.539   9.516 -0.8883 -1.1115 -0.4769
  102OSM    C3S10271   3.684   5.518   9.630  0.1659  0.3536  0.0629
  102OSM    H3S10272   3.759   5.438   9.646 -0.5572 -0.3503  0.0169
  102OSM     O310273   3.649   5.574   9.758 -0.4511  0.1297 -0.4226
  102OSM    HO310274   3.554   5.560   9.760 -0.2329 -1.3831  0.2619
  102OSM    C4S10275   3.746   5.614   9.534 -0.8762  0.1391 -0.0970
  102OSM    H4S10276   3.684   5.700   9.504 -0.3194  0.1403 -1.2707
  102OSM    C5S10277   3.870   5.604   9.473  0.1533 -0.5504 -0.0228
  102OSM    H5S10278   3.938   5.520   9.494  0.4948 -0.5122 -0.9331
  102OSM    C6S10279   3.930   5.697   9.372  0.5069 -0.3863 -0.4186
  102OSM    H6S10280   3.996   5.635   9.307  0.2714 -1.1758  0.0926
  102OSM    H6T10281   3.987   5.768   9.435 -0.5521  0.7252 -0.6955
  102OSM    C7S10282   3.830   5.782   9.279 -1.0492 -0.5412 -0.0081
  102OSM    H7S10283   3.774   5.847   9.349  1.2508 -0.0666  1.4692
  102OSM    H7T10284   3.759   5.717   9.225 -1.9661 -0.2144  0.8015
  102OSM    C8S10285   3.904   5.873   9.174  0.1232  0.0497 -0.7191
  102OSM    H8S10286   3.990   5.909   9.234 -0.3225 -1.8942  1.1319
  102OSM    H8T10287   3.829   5.949   9.142  0.6598 -0.1101 -2.3855
  102OSM    C9S10288   3.942   5.802   9.047  0.1784  0.0343  0.3864
  102OSM    H9S10289   3.849   5.792   8.989  1.4207 -1.3505 -1.4217
  102OSM    H9T10290   3.974   5.701   9.081 -1.2293 -0.1204  1.2888
  102OSM   C10S10291   4.060   5.869   8.969  0.7416  0.7452 -0.4189
  102OSM   H10S10292   4.140   5.889   9.043  1.3281  1.0166 -1.1226
  102OSM   H10T10293   4.022   5.960   8.918  0.7477  1.1028  0.2036
  102OSM   C11S10294   4.124   5.780   8.864  1.0037  0.4291 -0.1261
  102OSM   H11S10295   4.044   5.709   8.832 -0.4515  0.8081  2.5185
  102OSM   H11T10296   4.206   5.725   8.915  1.2328  2.5307  1.8116
  102OSM   C12S10297   4.192   5.852   8.751 -0.0817 -0.2470  0.1279
  102OSM   H12S10298   4.245   5.941   8.790  2.3854 -0.9212 -1.5623
  102OSM   H12T10299   4.113   5.890   8.681  0.6842 -1.0291 -1.1886
  102OSM   C13S10300   4.291   5.763   8.675  0.7788 -0.3384 -0.4253
  102OSM   H13S10301   4.232   5.681   8.629 -0.8835  0.2795  0.5574
  102OSM   H13T10302   4.367   5.720   8.743  3.0514  1.5637 -1.6989
  102OSM   C14S10303   4.375   5.831   8.565 -0.3255  0.0732  0.3483
  102OSM   H14S10304   4.408   5.928   8.606 -0.3371 -0.2657  1.1584
  102OSM   H14T10305   4.329   5.849   8.465  0.5186  1.1669  0.1464
  102OSM   C15S10306   4.493   5.744   8.523  0.7819  0.1525  0.0114
  102OSM   H15S10307   4.459   5.651   8.473  0.3745 -0.1979  0.9279
  102OSM   H15T10308   4.552   5.722   8.614 -1.7407  1.1272  1.9224
  102OSM   C16S10309   4.588   5.826   8.430  0.3384  0.1567 -0.1880
  102OSM   H16S10310   4.678   5.762   8.419  0.3501 -0.2757  2.2005
  102OSM   H16T10311   4.615   5.920   8.483 -2.3696  0.6340  0.4279
  102OSM   C17S10312   4.535   5.864   8.296  0.2380 -0.4412 -0.2579
  102OSM   H17S10313   4.446   5.928   8.312 -0.2047 -1.6725  2.4890
  102OSM   H17T10314   4.507   5.769   8.245 -1.6846  0.6121 -1.2398
  102OSM   C18S10315   4.637   5.939   8.203  0.4260  0.0131 -0.2467
  102OSM   H18S10316   4.585   5.972   8.111 -0.2435 -0.0798  0.0982
  102OSM   H18T10317   4.723   5.874   8.175  0.4355  0.7681 -2.0304
  102OSM   H18U10318   4.686   6.028   8.247  0.2286  0.7841 -1.5682
  102OSM    C1F10319   3.485   5.345   9.366 -0.0227 -0.5600 -0.2409
  102OSM     OF10320   3.373   5.397   9.382 -0.0441 -0.6552 -0.4455
  102OSM    C2F10321   3.510   5.259   9.248  0.0230 -0.0814  0.7851
  102OSM    H2F10322   3.432   5.182   9.228  0.3793  0.0514 -1.2279
  102OSM    H2G10323   3.610   5.211   9.247 -0.3965 -0.9403 -1.2757
  102OSM    C3F10324   3.507   5.358   9.127  0.2453  0.2620 -0.1474
  102OSM    H3F10325   3.401   5.389   9.120  0.0374 -0.1439  1.1816
  102OSM    H3G10326   3.522   5.308   9.028 -1.6255 -2.3462  0.8297
  102OSM    C4F10327   3.609   5.473   9.134 -0.3599  0.0399  0.1458
  102OSM    H4F10328   3.713   5.454   9.165 -0.2406  0.0418 -0.2447
  102OSM    H4G10329   3.571   5.543   9.211 -2.6434  1.7929 -2.4535
  102OSM    C5F10330   3.607   5.561   9.000  0.1834 -0.2710  0.2666
  102OSM    H5F10331   3.615   5.491   8.913 -1.1843  1.4901 -1.3101
  102OSM    H5G10332   3.694   5.630   8.999  0.3426 -0.4686 -1.9009
  102OSM    C6F10333   3.486   5.646   8.989 -0.2148 -0.9494  0.3000
  102OSM    H6F10334   3.403   5.577   9.013 -0.4891 -2.1048 -3.6369
  102OSM    H6G10335   3.482   5.680   8.883  0.0815  1.5858  1.0500
  102OSM    C7F10336   3.490   5.773   9.082 -0.0804 -0.3809  0.3698
  102OSM    H7F10337   3.582   5.832   9.058 -1.5648  1.9790  0.3106
  102OSM    H7G10338   3.500   5.734   9.186 -0.5507  0.9027  0.9098
  102OSM    C8F10339   3.368   5.867   9.066  0.0076  0.2116  1.0142
  102OSM    H8F10340   3.370   5.899   8.960  0.7647 -1.3878  0.5195
  102OSM    H8G10341   3.385   5.946   9.142 -1.3345  2.0042 -0.5000
  102OSM    C9F10342   3.244   5.791   9.106 -0.4088 -0.0439 -0.5252
  102OSM    H9F10343   3.237   5.756   9.210 -1.9527 -0.2837 -0.6922
  102OSM   C10F10344   3.138   5.751   9.032 -0.2948 -0.3221  0.5774
  102OSM   H10F10345   3.061   5.683   9.073  1.2467 -3.0121 -0.8718
  102OSM   C11F10346   3.119   5.778   8.884 -0.1105 -0.3739  0.0330
  102OSM   H11F10347   3.214   5.787   8.828  0.9174  2.3795  2.0999
  102OSM   H11G10348   3.071   5.876   8.863  1.3387  0.2639 -0.3671
  102OSM   C12F10349   3.042   5.671   8.813  0.3200  0.2754  0.2748
  102OSM   H12F10350   2.939   5.651   8.849  0.3979 -0.0097  0.3416
  102OSM   H12G10351   3.096   5.575   8.808  3.0616  1.7512  0.4344
  102OSM   C13F10352   3.012   5.719   8.672  0.1344  0.2258  0.5514
  102OSM   H13F10353   2.930   5.656   8.634  0.5427  1.7024 -2.9870
  102OSM   H13G10354   3.107   5.707   8.615  0.7734 -2.1232  2.0213
  102OSM   C14F10355   2.961   5.862   8.654  0.4206  0.0132  0.3771
  102OSM   H14F10356   3.043   5.936   8.664  0.5659 -0.4063  2.5692
  102OSM   H14G10357   2.894   5.871   8.742  0.9792 -0.1363  0.8142
  102OSM   C15F10358   2.883   5.893   8.521 -0.2864 -0.2737 -1.0716
  102OSM   H15F10359   2.837   5.992   8.541 -0.3995 -0.5862  0.2827
  102OSM   H15G10360   2.804   5.816   8.508 -0.3586 -1.3780  4.7256
  102OSM   C16F10361   2.971   5.914   8.400 -0.4411 -0.3775 -0.4047
  102OSM   H16F10362   3.032   5.826   8.372  0.0157 -0.0745 -0.3789
  102OSM   H16G10363   3.047   5.994   8.416  2.2669 -2.9608  0.2035
  102OSM   C17F10364   2.891   5.949   8.270  0.3910  0.2485 -0.5639
  102OSM   H17F10365   2.974   5.938   8.197  0.4243 -0.4328 -0.4289
  102OSM   H17G10366   2.857   6.055   8.272 -0.4316 -0.0119  2.5404
  102OSM   C18F10367   2.770   5.860   8.240  0.0503  0.8009  0.7639
  102OSM   H18F10368   2.692   5.871   8.318 -0.7784 -0.2320  0.1006
  102OSM   H18G10369   2.802   5.755   8.223  1.9492  1.7870 -2.1036
  102OSM   H18H10370   2.712   5.879   8.147 -0.1457 -1.7920  0.3094
  103OSM      N10371   2.993   1.068  10.199 -0.2966  0.0796 -0.7975
  103OSM    C1510372   3.063   1.109  10.328  0.5613  0.0504  0.2792
  103OSM   H15A10373   3.036   1.209  10.358 -0.7307 -0.0012 -0.6410
  103OSM   H15B10374   3.170   1.099  10.317  0.3553 -1.0539 -0.8788
  103OSM   H15C10375   3.026   1.046  10.408 -1.1848  0.5039 -0.1319
  103OSM    C1410376   3.001   0.921  10.188  0.4912  1.1604 -0.2198
  103OSM   H14A10377   2.983   0.866  10.279 -2.4360  0.1977 -1.3181
  103OSM   H14B10378   3.088   0.888  10.134  0.6653 -1.5391  1.6124
  103OSM   H14C10379   2.923   0.884  10.123  0.7448  0.8186 -0.3288
  103OSM    C1310380   2.851   1.104  10.206  0.9970  0.6902  0.5488
  103OSM   H13A10381   2.795   1.048  10.279 -0.0516  1.1689  0.1157
  103OSM   H13B10382   2.809   1.068  10.113  0.3713  0.6421  0.8503
  103OSM   H13C10383   2.842   1.211  10.199  0.9087  0.7666  1.7062
  103OSM    C1210384   3.067   1.124  10.076 -0.0689  0.7959  0.5218
  103OSM   H12A10385   3.174   1.111  10.074 -0.0542  1.0147 -1.3955
  103OSM   H12B10386   3.046   1.230  10.080 -0.3329  0.6684  3.3645
  103OSM    C1110387   3.026   1.078   9.934  0.5286  0.0702 -0.0012
  103OSM   H11A10388   3.064   0.975   9.916 -0.9716 -0.2358 -1.5760
  103OSM   H11B10389   3.090   1.150   9.879  1.3798  1.8111  3.1864
  103OSM      P10390   2.800   0.987   9.843  0.1285  0.0355  0.2500
  103OSM    O1310391   2.780   0.874   9.940  0.0305  0.1497 -0.3043
  103OSM    O1410392   2.681   1.046   9.783  0.7985  0.3058 -0.2573
  103OSM    O1110393   2.896   0.932   9.735 -0.4378 -0.2200 -0.3323
  103OSM    O1210394   2.888   1.107   9.896  0.2469 -0.0879 -0.2629
  103OSM    C1S10395   2.861   0.836   9.642 -0.0287 -0.3473  0.0353
  103OSM    H1S10396   2.756   0.800   9.643 -0.7937  1.7329 -2.1129
  103OSM    H1T10397   2.916   0.747   9.681  0.2487  0.4092  1.3728
  103OSM     NF10398   2.845   0.755   9.404 -0.0645  0.7183 -0.7584
  103OSM    HNF10399   2.914   0.692   9.369 -0.8718  0.4314 -1.8425
  103OSM    C2S10400   2.897   0.863   9.490 -0.1130 -0.2658 -0.8802
  103OSM    H2S10401   2.853   0.962   9.462  1.5008  0.6088 -0.4017
  103OSM    C3S10402   3.051   0.871   9.467  0.7675  0.5461  0.2127
  103OSM    H3S10403   3.096   0.775   9.500 -1.8354 -1.2976 -1.4244
  103OSM     O310404   3.111   0.968   9.549  0.0745 -0.3328  0.2334
  103OSM    HO310405   3.044   0.988   9.615 -2.3475 -1.2844 -1.8253
  103OSM    C4S10406   3.073   0.900   9.322  0.9042  0.3950 -0.1196
  103OSM    H4S10407   3.110   0.813   9.265  1.0495 -1.0306  2.0609
  103OSM    C5S10408   3.052   1.024   9.262 -0.1070 -0.2930 -0.3104
  103OSM    H5S10409   3.040   1.113   9.324  1.2738  0.5721 -1.2440
  103OSM    C6S10410   3.074   1.040   9.117 -0.4428 -0.0107 -0.2719
  103OSM    H6S10411   3.164   1.103   9.098  0.6518 -1.3790  0.2870
  103OSM    H6T10412   2.993   1.109   9.084 -0.9861 -0.0294  1.0087
  103OSM    C7S10413   3.073   0.916   9.019  0.0413  0.0800 -0.4214
  103OSM    H7S10414   2.984   0.854   9.043  1.8813 -1.1089  3.7921
  103OSM    H7T10415   3.159   0.849   9.044 -0.8520 -0.9845 -0.1650
  103OSM    C8S10416   3.072   0.935   8.869 -0.1307 -1.2082  0.6326
  103OSM    H8S10417   3.104   0.840   8.821 -1.2259 -0.9966 -0.5335
  103OSM    H8T10418   3.157   1.005   8.848 -0.2900 -1.2960 -0.3455
  103OSM    C9S10419   2.936   0.990   8.812  0.1390  0.5346  0.4904
  103OSM    H9S10420   2.915   1.082   8.871  0.2994  1.0169 -0.1933
  103OSM    H9T10421   2.857   0.914   8.829  0.6469 -0.5763 -1.9143
  103OSM   C10S10422   2.931   1.010   8.658  0.8337  0.2273 -0.0748
  103OSM   H10S10423   2.998   1.092   8.623 -1.0943  2.4012  1.1955
  103OSM   H10T10424   2.828   1.041   8.630  1.5085  1.8769 -0.8447
  103OSM   C11S10425   2.981   0.892   8.563  0.2521  0.2084  0.8117
  103OSM   H11S10426   2.914   0.804   8.558  0.2644  0.1607  1.4635
  103OSM   H11T10427   3.082   0.873   8.604  1.2489  0.9928 -1.1730
  103OSM   C12S10428   3.004   0.941   8.422  0.2372 -0.2302 -0.1096
  103OSM   H12S10429   3.093   1.008   8.426  0.2829 -0.3135  0.2903
  103OSM   H12T10430   2.925   1.011   8.388  0.5285  0.9287  1.5600
  103OSM   C13S10431   3.052   0.833   8.319 -0.3474  0.6717  0.5081
  103OSM   H13S10432   2.964   0.769   8.296 -0.5391  1.4643 -0.9989
  103OSM   H13T10433   3.127   0.760   8.356 -1.8697 -0.1407  2.0688
  103OSM   C14S10434   3.092   0.895   8.187  0.6356 -0.9442 -0.6097
  103OSM   H14S10435   3.031   0.976   8.143  1.8414  0.6104  0.5450
  103OSM   H14T10436   3.074   0.807   8.121  2.4153 -1.7667 -0.0384
  103OSM   C15S10437   3.238   0.937   8.172 -0.2965  0.0170  0.4546
  103OSM   H15S10438   3.309   0.862   8.212  1.4343  0.0731 -2.3900
  103OSM   H15T10439   3.253   1.029   8.232  2.2164 -0.5593  0.7464
  103OSM   C16S10440   3.267   0.978   8.029  0.3322 -0.1024  0.1413
  103OSM   H16S10441   3.197   1.056   7.992  0.6996  0.4211  0.5428
  103OSM   H16T10442   3.267   0.892   7.958 -0.2909 -3.1996  3.7458
  103OSM   C17S10443   3.410   1.036   8.029  0.1152 -0.0094 -0.7181
  103OSM   H17S10444   3.465   0.941   8.047 -2.2797 -1.5482 -1.4164
  103OSM   H17T10445   3.425   1.104   8.115  2.3898 -1.1628 -0.1629
  103OSM   C18S10446   3.463   1.097   7.900  0.0374 -0.7054  0.0553
  103OSM   H18S10447   3.399   1.186   7.883  0.9828 -0.1518 -0.6558
  103OSM   H18T10448   3.455   1.029   7.812  1.1746 -0.0927 -0.5420
  103OSM   H18U10449   3.566   1.135   7.919  0.0786 -1.0497  0.5247
  103OSM    C1F10450   2.712   0.726   9.389 -0.3212  0.3624  0.4783
  103OSM     OF10451   2.629   0.787   9.449 -0.6634  0.1966 -0.1257
  103OSM    C2F10452   2.678   0.613   9.291 -0.2833  0.5090 -0.5926
  103OSM    H2F10453   2.613   0.542   9.346 -1.7217  0.8178 -1.8587
  103OSM    H2G10454   2.770   0.563   9.252 -1.5923 -2.6912  0.2663
  103OSM    C3F10455   2.613   0.657   9.160  0.0514 -0.1958 -0.4200
  103OSM    H3F10456   2.679   0.721   9.097 -0.6152  0.7845 -0.1189
  103OSM    H3G10457   2.526   0.721   9.185 -0.7492 -0.8909 -1.3709
  103OSM    C4F10458   2.560   0.532   9.078  0.0593  0.2228 -0.1669
  103OSM    H4F10459   2.449   0.528   9.081  0.0510  0.4550 -0.1137
  103OSM    H4G10460   2.609   0.441   9.117  1.1437  0.9188  0.1377
  103OSM    C5F10461   2.607   0.535   8.934  0.3332  0.1400  0.7465
  103OSM    H5F10462   2.566   0.625   8.883  0.1881  0.9465  2.2310
  103OSM    H5G10463   2.569   0.443   8.886 -0.6291  0.6384  0.5298
  103OSM    C6F10464   2.763   0.534   8.914  0.5965 -0.1282 -0.9270
  103OSM    H6F10465   2.799   0.454   8.982  0.7527  1.0740  0.4486
  103OSM    H6G10466   2.814   0.628   8.944  1.1198 -0.3630 -1.0898
  103OSM    C7F10467   2.806   0.486   8.778 -0.6411 -0.6878 -1.0108
  103OSM    H7F10468   2.761   0.385   8.772  1.1887 -1.7884  2.7027
  103OSM    H7G10469   2.916   0.472   8.766 -0.3716 -1.3511  1.8570
  103OSM    C8F10470   2.758   0.575   8.663  0.3897 -0.4420  0.0894
  103OSM    H8F10471   2.800   0.677   8.675 -1.6706  0.3294  0.9914
  103OSM    H8G10472   2.651   0.599   8.680 -0.1878 -1.7700 -1.4398
  103OSM    C9F10473   2.787   0.514   8.530  0.5002  1.3139 -0.1113
  103OSM    H9F10474   2.863   0.435   8.542 -2.4513 -1.2907  2.2564
  103OSM   C10F10475   2.717   0.528   8.417 -0.3067  0.0823 -0.0489
  103OSM   H10F10476   2.774   0.477   8.338  0.5668  0.8358  0.0831
  103OSM   C11F10477   2.589   0.611   8.386  0.1578  0.0846  0.2566
  103OSM   H11F10478   2.599   0.700   8.452 -0.8530 -0.1014  0.6627
  103OSM   H11G10479   2.508   0.555   8.437 -0.1825  1.1464  0.9101
  103OSM   C12F10480   2.544   0.651   8.238  0.0206  0.0241  0.3046
  103OSM   H12F10481   2.434   0.665   8.236  0.0662  0.4772  0.8457
  103OSM   H12G10482   2.558   0.569   8.165  1.1635 -0.0673  0.6160
  103OSM   C13F10483   2.611   0.779   8.185  0.2215  0.3702 -0.2341
  103OSM   H13F10484   2.720   0.762   8.192  0.1392 -0.4665 -0.8574
  103OSM   H13G10485   2.599   0.870   8.248  0.6540 -0.0974  0.5274
  103OSM   C14F10486   2.557   0.803   8.037 -0.4167  0.2781  0.2248
  103OSM   H14F10487   2.452   0.836   8.029 -0.6309 -0.6282 -0.8207
  103OSM   H14G10488   2.557   0.704   7.986 -0.1662  1.2025 -1.6261
  103OSM   C15F10489   2.637   0.905   7.954  0.0691  0.7536  0.0598
  103OSM   H15F10490   2.739   0.874   7.985  0.0957 -0.2972 -1.0526
  103OSM   H15G10491   2.614   1.008   7.988 -0.8824  0.1768  1.2091
  103OSM   C16F10492   2.610   0.891   7.803 -1.4868 -0.2930  0.1291
  103OSM   H16F10493   2.502   0.905   7.786 -1.3947  2.4683  1.5714
  103OSM   H16G10494   2.636   0.792   7.760 -0.3771  0.1342 -0.2063
  103OSM   C17F10495   2.679   0.998   7.727 -0.3692 -1.3181 -0.2130
  103OSM   H17F10496   2.780   1.007   7.772 -0.7599  0.7837  0.2951
  103OSM   H17G10497   2.624   1.094   7.738 -0.3697 -1.3203 -0.1971
  103OSM   C18F10498   2.695   0.953   7.583 -0.2674 -0.2660  0.2608
  103OSM   H18F10499   2.772   1.016   7.534 -1.5033  0.1625 -1.1887
  103OSM   H18G10500   2.597   0.952   7.530 -0.2620 -0.0935  0.2470
  103OSM   H18H10501   2.734   0.850   7.569 -0.5137 -0.0995 -1.8337
  104OSM      N10502   3.856   0.855  10.095  0.2670  0.2008 -0.3843
  104OSM    C1510503   3.816   0.735  10.016 -0.8093 -0.0783  0.6452
  104OSM   H15A10504   3.769   0.656  10.074 -1.0518 -0.2759  0.1821
  104OSM   H15B10505   3.908   0.705   9.968 -1.8507 -1.2927 -0.6331
  104OSM   H15C10506   3.744   0.775   9.946 -0.6032 -1.5401 -0.4411
  104OSM    C1410507   3.739   0.911  10.172 -0.3564 -0.0094 -0.1455
  104OSM   H14A10508   3.677   0.953  10.094  0.1287 -0.9683 -1.0701
  104OSM   H14B10509   3.775   0.986  10.240  0.8647 -1.4805  0.8825
  104OSM   H14C10510   3.688   0.834  10.227  0.7796  0.0731  1.0408
  104OSM    C1310511   3.963   0.812  10.194 -0.0388  0.2925  0.5291
  104OSM   H13A10512   3.914   0.760  10.276 -1.3798  0.5116 -0.1215
  104OSM   H13B10513   4.007   0.892  10.251  0.0702  1.1974 -0.8132
  104OSM   H13C10514   4.031   0.742  10.147 -1.5319 -1.5672  1.0341
  104OSM    C1210515   3.923   0.960  10.009 -0.1984 -0.3478 -0.0590
  104OSM   H12A10516   4.011   0.918   9.964  0.8310  1.5278  0.1532
  104OSM   H12B10517   3.970   1.029  10.079 -0.3551 -0.5046  0.2016
  104OSM    C1110518   3.830   1.050   9.921 -0.1414  0.0071  0.0947
  104OSM   H11A10519   3.763   0.982   9.864  0.9695  1.5056 -3.1359
  104OSM   H11B10520   3.898   1.103   9.850 -1.9402  0.0469 -1.6476
  104OSM      P10521   3.701   1.285   9.942  0.0377 -0.2565 -0.3222
  104OSM    O1310522   3.570   1.311  10.003 -0.3808  0.7680 -0.7235
  104OSM    O1410523   3.797   1.400   9.959  0.1609  0.6461 -0.3877
  104OSM    O1110524   3.685   1.248   9.791 -0.0569 -0.1286  0.2876
  104OSM    O1210525   3.764   1.147  10.001  0.6984 -0.4879  0.4024
  104OSM    C1S10526   3.678   1.351   9.688 -0.0388 -0.6918 -0.2755
  104OSM    H1S10527   3.744   1.437   9.710 -0.2432 -0.3753 -0.9103
  104OSM    H1T10528   3.577   1.397   9.685  1.6803  3.1285 -2.8385
  104OSM     NF10529   3.743   1.405   9.455  0.1216  0.4030 -0.3520
  104OSM    HNF10530   3.674   1.419   9.384 -1.2349  2.7009  1.3383
  104OSM    C2S10531   3.706   1.298   9.543 -0.6797 -0.3145  0.2796
  104OSM    H2S10532   3.788   1.224   9.534  0.1186  0.6884 -0.8636
  104OSM    C3S10533   3.584   1.219   9.500  0.1104  0.1234 -0.2142
  104OSM    H3S10534   3.504   1.295   9.516  0.0495 -0.1170  0.6502
  104OSM     O310535   3.552   1.112   9.590  0.2025  0.3662  0.6409
  104OSM    HO310536   3.602   1.145   9.666  0.8697  2.8404 -0.8282
  104OSM    C4S10537   3.589   1.177   9.355  0.5380 -0.6028 -0.2321
  104OSM    H4S10538   3.680   1.121   9.329  0.2892 -0.8590 -0.5525
  104OSM    C5S10539   3.495   1.202   9.259 -0.1857 -0.8789  0.1884
  104OSM    H5S10540   3.400   1.246   9.293  0.5640 -0.8220  2.2890
  104OSM    C6S10541   3.507   1.143   9.117  0.8803 -0.0627  0.0094
  104OSM    H6S10542   3.542   1.214   9.039  1.1793  1.4620  1.5012
  104OSM    H6T10543   3.412   1.100   9.079 -0.5034 -1.0163  4.2627
  104OSM    C7S10544   3.603   1.021   9.118 -0.1346  0.1318 -0.2147
  104OSM    H7S10545   3.571   0.935   9.180 -0.7016  0.2542 -0.3291
  104OSM    H7T10546   3.706   1.050   9.147 -0.0723  0.8862 -1.1261
  104OSM    C8S10547   3.624   0.963   8.972 -0.3058 -0.8439 -0.6300
  104OSM    H8S10548   3.635   1.045   8.899 -1.0858 -0.9131 -0.8362
  104OSM    H8T10549   3.528   0.916   8.940 -1.1541  1.6497 -1.8982
  104OSM    C9S10550   3.741   0.864   8.964 -0.9918  0.8052  0.7653
  104OSM    H9S10551   3.718   0.783   9.037 -2.5258  0.6462  0.1298
  104OSM    H9T10552   3.834   0.922   8.983 -0.1768  0.0296 -0.7958
  104OSM   C10S10553   3.753   0.821   8.820  0.1969 -0.3554 -0.6554
  104OSM   H10S10554   3.782   0.912   8.764 -0.7950 -0.3135 -1.1188
  104OSM   H10T10555   3.650   0.799   8.783 -0.7638  2.0309  0.5289
  104OSM   C11S10556   3.839   0.689   8.791  0.2369 -0.0939 -0.7539
  104OSM   H11S10557   3.815   0.601   8.854  0.3202 -1.1981 -2.2316
  104OSM   H11T10558   3.946   0.713   8.809  0.1038  0.8036 -1.1123
  104OSM   C12S10559   3.836   0.649   8.644 -0.2748  0.1883  0.0731
  104OSM   H12S10560   3.875   0.737   8.589  1.9330  0.1504  1.5069
  104OSM   H12T10561   3.731   0.620   8.620 -1.4632  1.7430  3.1065
  104OSM   C13S10562   3.934   0.540   8.626 -0.2568  0.7835  0.3002
  104OSM   H13S10563   3.895   0.448   8.675  3.0853 -0.3806  0.8374
  104OSM   H13T10564   4.033   0.551   8.675 -1.0679 -0.1056  2.2017
  104OSM   C14S10565   3.960   0.519   8.476  0.0523  0.0188 -0.4016
  104OSM   H14S10566   4.050   0.577   8.447 -0.8759  1.3995 -0.5915
  104OSM   H14T10567   3.876   0.553   8.411 -0.5576  0.9347  0.8299
  104OSM   C15S10568   3.990   0.370   8.433 -0.3961 -0.1345 -0.2453
  104OSM   H15S10569   3.891   0.326   8.455  0.4418 -0.1526  3.9489
  104OSM   H15T10570   4.068   0.327   8.499 -0.8568  0.3043  0.5960
  104OSM   C16S10571   4.024   0.359   8.279 -0.0466 -0.6756 -0.2692
  104OSM   H16S10572   4.051   0.253   8.263  1.4432 -0.6250  1.7036
  104OSM   H16T10573   4.108   0.428   8.255 -1.2628  0.5376 -1.1165
  104OSM   C17S10574   3.913   0.399   8.180  0.1770  0.2770 -0.5777
  104OSM   H17S10575   3.899   0.509   8.185 -2.6026 -0.1127  1.2149
  104OSM   H17T10576   3.820   0.355   8.222  0.0162  1.1569 -0.0038
  104OSM   C18S10577   3.940   0.350   8.030 -0.2575  0.1032 -0.9127
  104OSM   H18S10578   4.018   0.411   7.978  3.3249 -3.0815  0.5474
  104OSM   H18T10579   3.844   0.358   7.975 -1.2445  0.6385  0.8723
  104OSM   H18U10580   3.979   0.246   8.038  0.2096  0.0607 -3.3552
  104OSM    C1F10581   3.855   1.477   9.451 -0.0258  1.0480 -0.4146
  104OSM     OF10582   3.942   1.452   9.536 -0.2352 -0.6175 -0.2197
  104OSM    C2F10583   3.868   1.573   9.340  0.5011  0.6120  0.2465
  104OSM    H2F10584   3.906   1.667   9.386  2.1205 -0.4193  1.0439
  104OSM    H2G10585   3.776   1.589   9.279  1.0714  1.2962 -0.4487
  104OSM    C3F10586   3.976   1.516   9.239  0.9325  0.0939 -0.3655
  104OSM    H3F10587   4.059   1.478   9.302  0.1896 -1.7140 -0.4682
  104OSM    H3G10588   4.000   1.603   9.175  1.5768 -0.4322 -0.8322
  104OSM    C4F10589   3.924   1.407   9.149 -0.6711 -0.6683 -0.0743
  104OSM    H4F10590   3.882   1.325   9.211 -0.5580 -0.5223  0.1977
  104OSM    H4G10591   4.012   1.361   9.099  0.3341 -1.1506  2.0934
  104OSM    C5F10592   3.819   1.440   9.044 -0.4967  0.5044 -0.1826
  104OSM    H5F10593   3.850   1.531   8.988  1.0086 -0.5217 -1.0687
  104OSM    H5G10594   3.721   1.452   9.093  0.1021 -0.7147  1.3654
  104OSM    C6F10595   3.798   1.331   8.937 -0.5044  0.1148  0.0275
  104OSM    H6F10596   3.714   1.358   8.870 -1.2032 -0.2461  0.7610
  104OSM    H6G10597   3.779   1.237   8.993 -0.4050  0.3131  0.3915
  104OSM    C7F10598   3.917   1.321   8.838  0.7003 -0.8689 -0.3903
  104OSM    H7F10599   4.004   1.332   8.906  0.4335 -1.6733  0.0831
  104OSM    H7G10600   3.916   1.402   8.763  0.3343  0.3257  0.8784
  104OSM    C8F10601   3.939   1.187   8.774 -0.4980  0.0457 -0.5922
  104OSM    H8F10602   3.950   1.111   8.854  0.4036 -1.1122 -1.8109
  104OSM    H8G10603   4.036   1.203   8.723 -1.0842 -0.9335 -2.0472
  104OSM    C9F10604   3.832   1.155   8.672 -0.1769  0.0946  0.0052
  104OSM    H9F10605   3.730   1.127   8.701  0.4765 -2.0281  0.3285
  104OSM   C10F10606   3.848   1.164   8.543  0.2069 -0.3756  1.0835
  104OSM   H10F10607   3.761   1.160   8.476  1.1881 -0.6846 -0.1782
  104OSM   C11F10608   3.974   1.191   8.463  0.4378 -0.3834  0.7748
  104OSM   H11F10609   4.061   1.166   8.528 -0.0047 -2.0084  0.7498
  104OSM   H11G10610   3.986   1.300   8.446  2.0480 -0.7194 -0.3664
  104OSM   C12F10611   3.994   1.101   8.339  0.3097 -0.5305 -0.0104
  104OSM   H12F10612   3.913   1.122   8.266  0.3956  1.6615  0.4904
  104OSM   H12G10613   3.994   1.000   8.386  0.0441 -1.8108 -2.6817
  104OSM   C13F10614   4.136   1.128   8.267 -0.1841 -0.4598 -1.0168
  104OSM   H13F10615   4.218   1.119   8.342 -0.3787 -1.4870 -0.9167
  104OSM   H13G10616   4.128   1.233   8.230  0.9579  0.4227  1.1211
  104OSM   C14F10617   4.164   1.044   8.149  0.1673  1.1044 -0.6699
  104OSM   H14F10618   4.071   1.026   8.090 -1.2270  0.8022  1.5439
  104OSM   H14G10619   4.201   0.948   8.190 -0.7267  2.0359  2.4309
  104OSM   C15F10620   4.282   1.097   8.060 -0.1657 -0.6437  0.1291
  104OSM   H15F10621   4.280   1.033   7.969 -0.6293  0.6177 -0.7633
  104OSM   H15G10622   4.375   1.076   8.117 -0.0548  1.2328  0.6633
  104OSM   C16F10623   4.274   1.231   7.987 -0.0240 -0.0075 -0.3655
  104OSM   H16F10624   4.263   1.313   8.062  0.1357  2.3725 -2.8621
  104OSM   H16G10625   4.177   1.227   7.933  0.6313 -2.5072 -1.4184
  104OSM   C17F10626   4.394   1.260   7.893  0.0174 -1.4756 -0.1916
  104OSM   H17F10627   4.385   1.214   7.793  1.7714  1.4734 -1.7832
  104OSM   H17G10628   4.484   1.221   7.945 -0.5152 -0.9067  1.2113
  104OSM   C18F10629   4.399   1.412   7.871  0.1514  0.0672 -0.5941
  104OSM   H18F10630   4.407   1.458   7.972 -3.8514  1.1138 -0.6427
  104OSM   H18G10631   4.313   1.456   7.815 -0.3446  0.6730  0.6023
  104OSM   H18H10632   4.492   1.442   7.819  1.9838 -0.4774  2.2441
  105OSM      N10633   1.006   4.210  10.118  0.1520 -0.7352  0.4043
  105OSM    C1510634   1.155   4.234  10.126  0.1230 -0.1779  0.1238
  105OSM   H15A10635   1.205   4.176  10.202  1.3014  1.0551  0.3008
  105OSM   H15B10636   1.175   4.336  10.152  0.2491 -0.2053  0.1346
  105OSM   H15C10637   1.197   4.224  10.027  0.7064  0.0003  0.3567
  105OSM    C1410638   0.980   4.065  10.084 -0.2601 -0.1453 -0.1321
  105OSM   H14A10639   1.037   4.000  10.149 -0.6941 -0.1421  0.2556
  105OSM   H14B10640   0.996   4.043   9.980  2.3951  2.8587 -0.4476
  105OSM   H14C10641   0.878   4.038  10.108  0.2311 -0.8976  1.1645
  105OSM    C1310642   0.945   4.239  10.246 -0.2007 -0.4139  0.1931
  105OSM   H13A10643   0.838   4.224  10.245 -0.2613  0.0027 -0.4836
  105OSM   H13B10644   0.962   4.343  10.272  0.9631 -0.4481 -0.3960
  105OSM   H13C10645   0.989   4.179  10.324 -1.6032 -2.6046 -0.6746
  105OSM    C1210646   0.952   4.300  10.008  1.0037 -0.1597  0.0707
  105OSM   H12A10647   0.988   4.252   9.918  0.6043 -0.6102  0.1504
  105OSM   H12B10648   1.003   4.394  10.023 -0.4681  0.5400  0.7586
  105OSM    C1110649   0.798   4.324  10.008  0.5058  0.3745 -0.0522
  105OSM   H11A10650   0.758   4.371  10.100 -0.6169  0.5734 -0.6281
  105OSM   H11B10651   0.739   4.231  10.000 -0.0840  0.7390  0.0220
  105OSM      P10652   0.709   4.341   9.762  0.3765 -0.2102 -0.2192
  105OSM    O1310653   0.759   4.201   9.750  0.4025 -0.7934 -0.6197
  105OSM    O1410654   0.559   4.350   9.761 -0.2330 -0.6824 -0.1078
  105OSM    O1110655   0.762   4.433   9.640 -0.2592  0.0565 -0.0185
  105OSM    O1210656   0.757   4.406   9.894 -0.0703 -0.3545  0.4172
  105OSM    C1S10657   0.855   4.535   9.655  0.5620  0.2025  0.1053
  105OSM    H1S10658   0.948   4.483   9.685  1.1329  0.9273 -0.3873
  105OSM    H1T10659   0.832   4.595   9.746 -0.9760 -0.8271  0.4290
  105OSM     NF10660   0.999   4.700   9.532 -0.1662  0.4749  0.0081
  105OSM    HNF10661   0.989   4.795   9.561 -0.1872  1.1583 -2.1527
  105OSM    C2S10662   0.875   4.623   9.522 -0.2988 -0.0546 -0.8156
  105OSM    H2S10663   0.890   4.554   9.436 -1.4061 -0.3721 -0.7715
  105OSM    C3S10664   0.750   4.698   9.493  0.5721  0.3528  0.2619
  105OSM    H3S10665   0.725   4.755   9.585 -1.0475  1.0092 -0.5653
  105OSM     O310666   0.635   4.608   9.464 -0.1031  0.0957  0.2464
  105OSM    HO310667   0.676   4.522   9.475 -0.7766 -0.5526 -1.9739
  105OSM    C4S10668   0.767   4.784   9.370  0.5659  0.1673 -0.3223
  105OSM    H4S10669   0.749   4.889   9.400 -0.8699 -0.5890  1.5968
  105OSM    C5S10670   0.785   4.754   9.239  0.3968  0.5639  0.1862
  105OSM    H5S10671   0.799   4.654   9.197  2.1482  0.0485  1.9485
  105OSM    C6S10672   0.793   4.864   9.137  0.2789  0.1714 -0.4281
  105OSM    H6S10673   0.751   4.961   9.172 -0.6138 -1.4462  3.1877
  105OSM    H6T10674   0.725   4.832   9.056 -1.8494  1.4709  0.8029
  105OSM    C7S10675   0.934   4.889   9.087  0.4796 -0.4887 -0.2155
  105OSM    H7S10676   0.971   4.800   9.030  2.1715  0.3450 -0.4563
  105OSM    H7T10677   1.002   4.910   9.172  0.5454 -0.9690 -0.1486
  105OSM    C8S10678   0.945   5.012   8.992  0.1261  0.1724 -0.1447
  105OSM    H8S10679   1.053   5.035   8.977 -0.0360  2.5779  2.2210
  105OSM    H8T10680   0.902   5.103   9.037 -1.4201  0.3109 -1.8616
  105OSM    C9S10681   0.881   4.997   8.852 -0.2131  0.0529  0.3043
  105OSM    H9S10682   0.784   5.049   8.864  1.0354  2.3632  0.5714
  105OSM    H9T10683   0.856   4.894   8.819 -0.9003  0.9360 -2.0266
  105OSM   C10S10684   0.961   5.063   8.736 -0.0649 -0.1122  0.1638
  105OSM   H10S10685   1.033   4.988   8.698  0.7741  0.3045  0.9132
  105OSM   H10T10686   1.005   5.148   8.792 -2.9565 -0.1745  2.6367
  105OSM   C11S10687   0.876   5.123   8.629 -0.4103 -0.0550 -0.3584
  105OSM   H11S10688   0.815   5.203   8.676  1.5774  1.0376  0.3791
  105OSM   H11T10689   0.809   5.040   8.595 -2.2813  0.8159  1.1319
  105OSM   C12S10690   0.954   5.183   8.513 -0.1666 -0.5207 -0.1962
  105OSM   H12S10691   1.014   5.111   8.453  0.0855 -0.3445 -0.1530
  105OSM   H12T10692   1.032   5.249   8.557  1.1752  0.0779 -3.3374
  105OSM   C13S10693   0.868   5.276   8.425 -0.0338 -0.2830  0.0256
  105OSM   H13S10694   0.829   5.373   8.464 -1.1834 -0.9095  0.4388
  105OSM   H13T10695   0.780   5.211   8.412 -1.3827  1.2129  1.4702
  105OSM   C14S10696   0.946   5.311   8.300  0.7981 -0.6499 -0.4487
  105OSM   H14S10697   0.967   5.212   8.254 -1.3247 -1.1804 -0.3458
  105OSM   H14T10698   1.047   5.355   8.315  0.9859 -0.8003 -1.2555
  105OSM   C15S10699   0.864   5.394   8.204 -0.7744 -0.6244 -0.1312
  105OSM   H15S10700   0.843   5.490   8.257 -1.7975 -0.4165 -0.8917
  105OSM   H15T10701   0.770   5.337   8.189 -2.0968  1.1451  1.1565
  105OSM   C16S10702   0.940   5.420   8.075 -0.3751 -0.9418  0.8253
  105OSM   H16S10703   0.975   5.330   8.019 -0.0319  0.2443 -0.8747
  105OSM   H16T10704   1.032   5.474   8.106 -1.3972  0.3094  1.7037
  105OSM   C17S10705   0.863   5.500   7.977 -0.7107 -0.1735  0.3108
  105OSM   H17S10706   0.806   5.581   8.027  0.6686  1.7988 -1.2285
  105OSM   H17T10707   0.795   5.427   7.927  0.0973  0.1105 -1.2475
  105OSM   C18S10708   0.963   5.554   7.881 -0.8217  0.2408 -0.6403
  105OSM   H18S10709   0.999   5.651   7.921 -4.2732  0.6610  1.6784
  105OSM   H18T10710   0.917   5.566   7.781  2.2211 -3.0190 -2.5537
  105OSM   H18U10711   1.044   5.479   7.868 -1.3099  0.1091 -3.1471
  105OSM    C1F10712   1.116   4.649   9.537  0.5806 -0.6763  0.5987
  105OSM     OF10713   1.140   4.531   9.512  0.2756 -0.5515  0.3611
  105OSM    C2F10714   1.231   4.733   9.574  0.2268  1.2546  0.3179
  105OSM    H2F10715   1.320   4.673   9.548 -1.3209 -0.4673 -1.1353
  105OSM    H2G10716   1.243   4.759   9.682 -0.1830 -2.5786  1.3401
  105OSM    C3F10717   1.248   4.861   9.488 -0.8286  0.1189 -0.1964
  105OSM    H3F10718   1.338   4.914   9.525 -1.5299  1.3928 -0.3103
  105OSM    H3G10719   1.161   4.929   9.502 -0.2353  1.1398 -1.4258
  105OSM    C4F10720   1.262   4.813   9.338 -0.0515 -0.2218  0.3425
  105OSM    H4F10721   1.165   4.806   9.285 -0.6275  3.6553  0.6876
  105OSM    H4G10722   1.292   4.707   9.330 -1.0306 -0.4632 -0.1123
  105OSM    C5F10723   1.363   4.900   9.259 -0.3032  0.1987 -0.2290
  105OSM    H5F10724   1.457   4.908   9.318 -0.7208 -0.5063  0.5401
  105OSM    H5G10725   1.317   4.999   9.241 -2.5912 -0.5845  1.0876
  105OSM    C6F10726   1.396   4.841   9.120 -0.3098  0.0239 -0.1167
  105OSM    H6F10727   1.421   4.734   9.135  0.8224  0.4074  0.8064
  105OSM    H6G10728   1.483   4.895   9.075 -0.9323  0.1913 -1.1346
  105OSM    C7F10729   1.277   4.852   9.023 -0.3678 -0.2541  0.0037
  105OSM    H7F10730   1.214   4.941   9.045  0.1085 -0.5164  2.5098
  105OSM    H7G10731   1.201   4.770   9.023 -1.2131  0.5207  0.1445
  105OSM    C8F10732   1.330   4.872   8.877 -0.4149  0.1106 -0.1996
  105OSM    H8F10733   1.425   4.930   8.880  0.2482 -1.0033  0.5574
  105OSM    H8G10734   1.250   4.921   8.817 -0.9774 -0.1524  0.3359
  105OSM    C9F10735   1.362   4.742   8.801 -0.4527 -0.3245 -0.1755
  105OSM    H9F10736   1.443   4.683   8.847  1.5161  0.6293 -2.3089
  105OSM   C10F10737   1.329   4.706   8.676  0.5765 -0.3568  0.1578
  105OSM   H10F10738   1.362   4.606   8.645 -1.1461 -0.0708 -2.7080
  105OSM   C11F10739   1.249   4.780   8.571  0.8376  0.0388 -0.3019
  105OSM   H11F10740   1.293   4.802   8.472 -0.3566  0.3142 -0.7774
  105OSM   H11G10741   1.225   4.882   8.606 -2.9344  0.2654 -3.2690
  105OSM   C12F10742   1.115   4.716   8.550 -0.0919 -0.0769  0.3532
  105OSM   H12F10743   1.062   4.731   8.647  2.2255  0.2495  1.6087
  105OSM   H12G10744   1.121   4.609   8.522 -1.8790 -0.2623  0.6313
  105OSM   C13F10745   1.040   4.798   8.441  0.3950 -0.3122 -0.4627
  105OSM   H13F10746   1.065   4.906   8.452  1.0003 -0.4139 -0.7913
  105OSM   H13G10747   0.931   4.781   8.457 -0.0582 -0.7852 -3.7871
  105OSM   C14F10748   1.062   4.743   8.297  0.1482 -0.0860  0.6434
  105OSM   H14F10749   1.024   4.640   8.285  0.6431 -0.1034 -0.9342
  105OSM   H14G10750   1.170   4.753   8.270 -0.2028  4.7481  0.4769
  105OSM   C15F10751   0.986   4.831   8.194 -0.1110 -0.0589 -0.0438
  105OSM   H15F10752   0.995   4.936   8.230  2.0716 -1.1805  2.7621
  105OSM   H15G10753   0.877   4.810   8.180 -0.0208 -0.3504 -0.3075
  105OSM   C16F10754   1.052   4.815   8.058  0.4241 -0.2325  0.6748
  105OSM   H16F10755   1.076   4.712   8.022 -4.0762 -1.4188  0.6817
  105OSM   H16G10756   1.155   4.854   8.068  0.7575 -0.5525 -1.3582
  105OSM   C17F10757   0.966   4.888   7.954  0.1528 -0.0257 -0.0200
  105OSM   H17F10758   0.864   4.843   7.951  0.2216 -0.1262 -1.6985
  105OSM   H17G10759   1.013   4.874   7.854  0.9964  1.4199  0.1601
  105OSM   C18F10760   0.950   5.039   7.982  0.0931  0.0491  0.6967
  105OSM   H18F10761   0.894   5.044   8.078 -1.0554  1.6592 -0.0422
  105OSM   H18G10762   0.874   5.076   7.909 -1.3980 -0.4464  1.9593
  105OSM   H18H10763   1.043   5.098   7.970 -0.5705  0.9227 -0.3491
  106OSM      N10764   0.899   2.468   9.665 -0.3682  0.3195  0.1469
  106OSM    C1510765   1.015   2.550   9.701 -0.1519 -0.1366  0.7235
  106OSM   H15A10766   0.990   2.655   9.705 -0.0640 -0.1280  1.2139
  106OSM   H15B10767   1.102   2.538   9.638 -1.2591 -0.8346 -0.6849
  106OSM   H15C10768   1.058   2.534   9.799 -0.5849  4.7116  1.8416
  106OSM    C1410769   0.857   2.506   9.532 -0.6528 -0.2369 -0.8180
  106OSM   H14A10770   0.930   2.481   9.456  0.1630 -1.4910  0.3411
  106OSM   H14B10771   0.819   2.607   9.534  1.0562  0.4047  0.9148
  106OSM   H14C10772   0.774   2.442   9.505 -2.3830  0.4060  2.7553
  106OSM    C1310773   0.966   2.336   9.673 -0.3913 -0.0241 -0.6531
  106OSM   H13A10774   1.003   2.323   9.774 -0.2617 -1.3703 -0.8654
  106OSM   H13B10775   1.045   2.306   9.607 -1.0727 -1.0788 -1.0107
  106OSM   H13C10776   0.890   2.260   9.663 -1.7486  1.3344 -0.8592
  106OSM    C1210777   0.793   2.474   9.773 -0.6470  0.1991 -0.6184
  106OSM   H12A10778   0.836   2.456   9.871 -0.2591 -1.8638 -1.1624
  106OSM   H12B10779   0.727   2.393   9.746  0.6448 -0.5766 -1.4677
  106OSM    C1110780   0.702   2.601   9.785 -0.0388  0.0928  0.4996
  106OSM   H11A10781   0.642   2.603   9.878 -0.1727  0.9422  0.3997
  106OSM   H11B10782   0.630   2.584   9.702  1.6757 -0.5545 -0.9147
  106OSM      P10783   0.832   2.814   9.885 -0.4477  0.1412 -0.0258
  106OSM    O1310784   0.719   2.892   9.936  1.0034  0.4554  0.5266
  106OSM    O1410785   0.896   2.716   9.977 -0.0020 -0.4367  0.6142
  106OSM    O1110786   0.944   2.905   9.826 -0.0109  0.3375  0.5250
  106OSM    O1210787   0.780   2.728   9.760  0.2167 -0.5198 -0.2287
  106OSM    C1S10788   0.992   2.903   9.690 -0.9410  0.1906  0.8190
  106OSM    H1S10789   0.933   2.837   9.624 -0.4789  0.8218 -0.2479
  106OSM    H1T10790   1.093   2.857   9.685 -0.2747  1.6918  0.2440
  106OSM     NF10791   0.996   3.054   9.490 -0.1922 -0.9466  0.4331
  106OSM    HNF10792   1.080   3.097   9.458 -0.4849  1.0576  2.2408
  106OSM    C2S10793   0.997   3.050   9.635  1.0704  0.0532  0.1662
  106OSM    H2S10794   0.903   3.102   9.664  0.9133 -1.9862  3.5569
  106OSM    C3S10795   1.097   3.139   9.707  0.5671  0.5790  0.5302
  106OSM    H3S10796   1.199   3.103   9.684  0.8936  0.8543  1.5059
  106OSM     O310797   1.086   3.129   9.848  0.2302  0.4853  0.2615
  106OSM    HO310798   1.029   3.053   9.860 -0.7174  0.7987 -2.1285
  106OSM    C4S10799   1.084   3.284   9.664  0.1988  0.0463  0.3786
  106OSM    H4S10800   1.161   3.298   9.587  2.6776  0.3660  2.8394
  106OSM    C5S10801   1.007   3.388   9.700 -0.2307 -0.0788  0.6240
  106OSM    H5S10802   0.943   3.375   9.788  1.5978 -2.4769  1.6453
  106OSM    C6S10803   1.009   3.526   9.635  0.4370 -0.6071 -0.0072
  106OSM    H6S10804   1.094   3.524   9.563 -1.1146  0.7388 -1.9178
  106OSM    H6T10805   1.032   3.605   9.710 -0.4064 -0.9895  0.6628
  106OSM    C7S10806   0.885   3.565   9.550 -0.5564 -0.3260 -0.4272
  106OSM    H7S10807   0.915   3.669   9.523 -0.2463  0.5247  2.9392
  106OSM    H7T10808   0.802   3.576   9.623  1.0471  0.8235  1.2696
  106OSM    C8S10809   0.853   3.491   9.422 -0.5407 -0.2075 -0.8333
  106OSM    H8S10810   0.799   3.396   9.439  0.0942 -0.0265  2.4151
  106OSM    H8T10811   0.948   3.468   9.369 -0.4359 -1.2785 -0.1694
  106OSM    C9S10812   0.775   3.578   9.325 -0.3174 -0.0348  0.0621
  106OSM    H9S10813   0.821   3.676   9.301  1.9249 -1.4221 -1.4300
  106OSM    H9T10814   0.680   3.582   9.383 -2.2791 -1.2657 -2.9607
  106OSM   C10S10815   0.749   3.495   9.193  0.0862  0.5425 -0.3133
  106OSM   H10S10816   0.676   3.418   9.226  1.0447  0.1544  0.9788
  106OSM   H10T10817   0.843   3.453   9.151  1.8929  3.1235  0.9642
  106OSM   C11S10818   0.678   3.589   9.094 -0.3448  0.5966 -0.3942
  106OSM   H11S10819   0.739   3.682   9.092 -0.8637  0.9599  0.6160
  106OSM   H11T10820   0.580   3.627   9.130 -0.9846  0.0653 -1.5470
  106OSM   C12S10821   0.682   3.544   8.950  0.0934  0.0935  0.0806
  106OSM   H12S10822   0.602   3.471   8.925 -0.0959  0.8294 -1.5347
  106OSM   H12T10823   0.776   3.494   8.918  1.1768  2.1993 -0.1082
  106OSM   C13S10824   0.680   3.662   8.852  0.3021  0.2929  0.4218
  106OSM   H13S10825   0.746   3.745   8.884 -0.2833  1.4836 -1.4410
  106OSM   H13T10826   0.578   3.704   8.859  1.0466  2.5235 -1.5091
  106OSM   C14S10827   0.689   3.618   8.708 -0.3124  0.0886  0.3403
  106OSM   H14S10828   0.605   3.548   8.687  0.1025  0.2424 -1.9977
  106OSM   H14T10829   0.782   3.558   8.695 -0.0793  0.4232  0.4706
  106OSM   C15S10830   0.679   3.732   8.601  0.0788  0.2130 -0.1094
  106OSM   H15S10831   0.764   3.803   8.612  0.1529 -0.1195  1.6380
  106OSM   H15T10832   0.583   3.785   8.616  0.1878  1.2053 -2.7526
  106OSM   C16S10833   0.697   3.686   8.456 -0.0019 -0.1244 -0.1484
  106OSM   H16S10834   0.791   3.628   8.441  0.8308  1.6439 -1.9298
  106OSM   H16T10835   0.694   3.775   8.390  0.2150  0.5980  0.8095
  106OSM   C17S10836   0.586   3.594   8.412 -0.8184  0.1498  0.1139
  106OSM   H17S10837   0.490   3.649   8.412 -0.8003  0.2002  1.3471
  106OSM   H17T10838   0.571   3.509   8.481  0.1823  0.9594  1.3587
  106OSM   C18S10839   0.597   3.533   8.267 -0.2977 -0.0898 -0.5402
  106OSM   H18S10840   0.533   3.442   8.259  0.9249 -0.9795 -0.3605
  106OSM   H18T10841   0.705   3.520   8.243  0.0167 -0.6901  1.1074
  106OSM   H18U10842   0.563   3.611   8.196  0.5930 -1.0277 -2.0246
  106OSM    C1F10843   0.914   3.010   9.401 -1.0307  0.6861  0.4080
  106OSM     OF10844   0.812   2.960   9.436  0.2209  0.0872  0.4702
  106OSM    C2F10845   0.963   2.999   9.253  0.4973  0.0343  0.1627
  106OSM    H2F10846   0.996   2.897   9.224 -0.5510 -0.9905  2.4528
  106OSM    H2G10847   1.044   3.076   9.252  3.0796 -2.5763  1.1380
  106OSM    C3F10848   0.845   3.031   9.158 -0.5012 -0.0257 -0.1134
  106OSM    H3F10849   0.796   3.127   9.186  1.6643  1.6615 -1.8656
  106OSM    H3G10850   0.770   2.950   9.156 -0.3529 -0.1386 -1.4050
  106OSM    C4F10851   0.894   3.055   9.018 -0.0149  0.5457 -0.3889
  106OSM    H4F10852   0.938   2.963   8.975  0.6918  1.1502 -0.9810
  106OSM    H4G10853   0.972   3.134   9.028  0.3524  0.2851 -1.1296
  106OSM    C5F10854   0.792   3.108   8.921  0.0586  0.4648  0.0196
  106OSM    H5F10855   0.739   3.200   8.955  1.0985  0.7820  0.8270
  106OSM    H5G10856   0.718   3.025   8.916  0.3685  0.2848 -1.6190
  106OSM    C6F10857   0.840   3.140   8.773 -0.0795 -0.3418  0.2306
  106OSM    H6F10858   0.907   3.064   8.728 -0.7689 -1.6339  1.3392
  106OSM    H6G10859   0.901   3.232   8.783  0.3464 -0.4649 -1.1443
  106OSM    C7F10860   0.718   3.152   8.681  1.1283 -0.8798 -0.0678
  106OSM    H7F10861   0.669   3.241   8.726  0.6117 -0.5642 -1.2286
  106OSM    H7G10862   0.647   3.069   8.701  0.0503 -0.5522 -2.3027
  106OSM    C8F10863   0.742   3.170   8.534  0.0889 -0.5119  0.1935
  106OSM    H8F10864   0.653   3.176   8.467  0.0745 -2.9825 -0.0737
  106OSM    H8G10865   0.801   3.080   8.505  0.9856  0.8505 -2.3576
  106OSM    C9F10866   0.822   3.299   8.502 -0.9584  0.0160  0.2889
  106OSM    H9F10867   0.781   3.388   8.551  0.2388  0.5542  0.3196
  106OSM   C10F10868   0.919   3.312   8.415 -0.1211  0.7346  0.9516
  106OSM   H10F10869   0.968   3.410   8.403  1.3488 -0.1389 -0.5138
  106OSM   C11F10870   0.980   3.198   8.327 -0.1017  0.8616  0.0487
  106OSM   H11F10871   0.966   3.228   8.221 -0.9016  1.2245  0.2580
  106OSM   H11G10872   0.923   3.104   8.340 -0.5682  1.1805  0.3125
  106OSM   C12F10873   1.130   3.178   8.345  0.3124  0.7984 -0.5925
  106OSM   H12F10874   1.142   3.162   8.454  3.1007 -0.6009 -1.0639
  106OSM   H12G10875   1.186   3.268   8.312  2.7232 -0.1815  0.6357
  106OSM   C13F10876   1.195   3.063   8.270  0.1673 -0.2052 -0.2365
  106OSM   H13F10877   1.133   2.971   8.269  0.9587 -0.8004  1.7247
  106OSM   H13G10878   1.297   3.037   8.306  0.6617  0.0724 -1.4310
  106OSM   C14F10879   1.219   3.104   8.121 -0.4347 -1.2697  0.2460
  106OSM   H14F10880   1.282   3.195   8.122 -0.8286 -0.9994  0.3946
  106OSM   H14G10881   1.123   3.133   8.072  0.9967 -0.0740 -1.9312
  106OSM   C15F10882   1.289   2.996   8.039  0.4617 -0.3873  0.1516
  106OSM   H15F10883   1.364   2.954   8.109  0.8162  0.5707  0.3457
  106OSM   H15G10884   1.340   3.054   7.959 -1.6210  2.3067  0.6915
  106OSM   C16F10885   1.197   2.894   7.969  0.0597 -0.0043 -0.1367
  106OSM   H16F10886   1.150   2.964   7.896 -1.3374  0.9663  1.6312
  106OSM   H16G10887   1.122   2.838   8.029 -1.6513  2.1277 -0.1787
  106OSM   C17F10888   1.281   2.790   7.893  0.4199  0.4332  0.0295
  106OSM   H17F10889   1.213   2.729   7.830  1.1499 -1.3204  0.8860
  106OSM   H17G10890   1.337   2.727   7.965 -0.4476 -0.3794  0.0059
  106OSM   C18F10891   1.373   2.856   7.789  0.7822 -0.0373 -0.3869
  106OSM   H18F10892   1.325   2.947   7.747 -0.4963 -0.0299  1.0218
  106OSM   H18G10893   1.380   2.791   7.700  0.0849 -3.9758  2.2997
  106OSM   H18H10894   1.472   2.882   7.834 -1.1571  1.9013  3.0020
  107OSM      N10895   2.431   0.652   9.847 -0.2696  0.3480  0.1351
  107OSM    C1510896   2.526   0.576   9.926  0.1169  0.4243 -0.4059
  107OSM   H15A10897   2.577   0.633  10.003  0.8074 -1.3539  0.5037
  107OSM   H15B10898   2.601   0.535   9.860 -0.4971 -0.7354 -0.4035
  107OSM   H15C10899   2.463   0.503   9.975  0.1931 -1.2899 -2.8214
  107OSM    C1410900   2.346   0.723   9.949 -0.1231 -0.1422 -0.1011
  107OSM   H14A10901   2.284   0.797   9.902  1.9548  0.7818 -1.4267
  107OSM   H14B10902   2.411   0.780  10.014 -1.0175  1.9158 -0.9987
  107OSM   H14C10903   2.292   0.658  10.016  1.3633  2.8746  4.2821
  107OSM    C1310904   2.504   0.766   9.776  0.0493 -0.0137  0.5293
  107OSM   H13A10905   2.560   0.822   9.850 -0.7472  0.1885  0.9836
  107OSM   H13B10906   2.432   0.827   9.724  1.7293  0.2737 -1.5181
  107OSM   H13C10907   2.573   0.731   9.701 -1.8394 -2.9095  0.0716
  107OSM    C1210908   2.344   0.568   9.759  0.1712 -0.4062 -0.1993
  107OSM   H12A10909   2.283   0.636   9.703  1.2897 -0.3290 -1.3583
  107OSM   H12B10910   2.264   0.535   9.824 -0.6561 -0.0494 -1.0324
  107OSM    C1110911   2.414   0.478   9.655 -0.0045  0.1428 -0.1376
  107OSM   H11A10912   2.486   0.544   9.601 -1.2332  1.2168 -0.4825
  107OSM   H11B10913   2.336   0.440   9.587 -1.0035  2.4932 -0.3598
  107OSM      P10914   2.393   0.246   9.769  0.0517 -0.0847 -0.0458
  107OSM    O1310915   2.479   0.146   9.830 -0.4169  0.3674 -0.5660
  107OSM    O1410916   2.276   0.298   9.845  0.1077  0.2119  1.2243
  107OSM    O1110917   2.333   0.191   9.636 -0.3353  0.8764 -0.2687
  107OSM    O1210918   2.485   0.362   9.714  0.0451  0.3135  0.2496
  107OSM    C1S10919   2.417   0.153   9.526 -0.2227  0.2494 -0.1619
  107OSM    H1S10920   2.482   0.074   9.568 -1.1352  0.1272  1.0676
  107OSM    H1T10921   2.478   0.239   9.492  0.4059 -0.1904 -0.1474
  107OSM     NF10922   2.441   0.074   9.290 -0.3167  0.1913 -0.2441
  107OSM    HNF10923   2.447   0.134   9.211  0.1070  0.0010 -0.3540
  107OSM    C2S10924   2.345   0.100   9.397  1.2419  0.1396  0.1586
  107OSM    H2S10925   2.295   0.004   9.423  1.3819  0.3684  1.3358
  107OSM    C3S10926   2.228   0.196   9.349 -0.0549  0.7231  0.4334
  107OSM    H3S10927   2.268   0.299   9.341  0.3168  0.5872  0.5564
  107OSM     O310928   2.124   0.213   9.443 -0.2985 -0.2143 -0.1547
  107OSM    HO310929   2.159   0.159   9.514  0.3414  1.0792  0.5440
  107OSM    C4S10930   2.155   0.166   9.214 -0.1894  0.0950 -0.2335
  107OSM    H4S10931   2.090   0.077   9.213  1.9393 -1.5247  0.2761
  107OSM    C5S10932   2.163   0.244   9.105  0.6642 -0.4352 -0.5847
  107OSM    H5S10933   2.218   0.338   9.119 -0.8796  0.3095  0.6445
  107OSM    C6S10934   2.087   0.226   8.976  0.9844  0.1392 -0.4056
  107OSM    H6S10935   2.051   0.328   8.950 -0.0151  0.4708  2.1550
  107OSM    H6T10936   2.000   0.157   8.985 -0.8440  2.0993 -2.2960
  107OSM    C7S10937   2.175   0.200   8.845  0.0764 -0.4485  0.0714
  107OSM    H7S10938   2.113   0.186   8.754 -0.0219  0.6119 -0.0308
  107OSM    H7T10939   2.232   0.106   8.860 -1.2911 -0.8585  3.0740
  107OSM    C8S10940   2.272   0.319   8.815  0.1668 -0.0268  1.1208
  107OSM    H8S10941   2.344   0.328   8.899  0.7968 -1.2385  0.7291
  107OSM    H8T10942   2.210   0.410   8.800  0.7289  0.6994  3.0942
  107OSM    C9S10943   2.358   0.298   8.687 -0.6632 -0.0829 -0.0317
  107OSM    H9S10944   2.381   0.189   8.688 -3.4226 -0.7010 -0.0127
  107OSM    H9T10945   2.456   0.351   8.694  0.9077 -2.8564 -0.4026
  107OSM   C10S10946   2.299   0.339   8.556  0.1730 -0.5757  0.2208
  107OSM   H10S10947   2.279   0.448   8.544 -1.1161 -0.8516 -0.1697
  107OSM   H10T10948   2.195   0.301   8.548 -0.8676  2.0900  0.4745
  107OSM   C11S10949   2.385   0.296   8.436 -0.3380 -0.4103 -0.8285
  107OSM   H11S10950   2.401   0.186   8.439  3.3822  0.1538  2.6686
  107OSM   H11T10951   2.478   0.355   8.441 -0.7438  0.3031 -1.5122
  107OSM   C12S10952   2.317   0.350   8.307 -0.0384  0.2935  0.4079
  107OSM   H12S10953   2.319   0.461   8.308  0.2057  0.2960 -0.0969
  107OSM   H12T10954   2.211   0.318   8.318  0.0035  1.1832  4.0444
  107OSM   C13S10955   2.378   0.309   8.171 -0.2638  0.5223 -0.0364
  107OSM   H13S10956   2.382   0.198   8.175 -0.2116  0.4435 -1.8903
  107OSM   H13T10957   2.481   0.350   8.163 -0.7977  2.5143  2.7630
  107OSM   C14S10958   2.294   0.369   8.054 -0.1912 -0.2426 -0.4288
  107OSM   H14S10959   2.295   0.480   8.059  0.2150 -0.2345 -0.6358
  107OSM   H14T10960   2.189   0.335   8.064  1.0528 -3.6592  1.8321
  107OSM   C15S10961   2.341   0.321   7.912  0.5262 -0.6705  0.0578
  107OSM   H15S10962   2.321   0.212   7.918 -1.3463 -0.3427  0.2425
  107OSM   H15T10963   2.448   0.348   7.906  0.5878 -1.0339 -0.5654
  107OSM   C16S10964   2.256   0.398   7.803 -0.7584  0.0592 -0.8183
  107OSM   H16S10965   2.310   0.394   7.706 -0.1773  1.4814 -0.5686
  107OSM   H16T10966   2.259   0.505   7.831 -0.4425  0.2540 -1.5884
  107OSM   C17S10967   2.118   0.343   7.797 -0.2558  0.0813 -0.3944
  107OSM   H17S10968   2.074   0.381   7.892  1.6673 -2.2495  1.4953
  107OSM   H17T10969   2.127   0.233   7.810 -0.5551  0.1866  0.7568
  107OSM   C18S10970   2.023   0.385   7.681 -1.0931  0.1731  0.2230
  107OSM   H18S10971   2.034   0.335   7.582 -0.3887 -0.5705  0.6772
  107OSM   H18T10972   2.033   0.495   7.666  0.9069  0.3058  2.2938
  107OSM   H18U10973   1.918   0.366   7.710 -0.4694 -1.4099  1.4982
  107OSM    C1F10974   2.529  -0.025   9.299  0.7153 -0.2926  0.2869
  107OSM     OF10975   2.525  -0.098   9.398 -0.1959  0.1225  0.3018
  107OSM    C2F10976   2.630  -0.031   9.189  0.0366 -0.1421 -0.5945
  107OSM    H2F10977   2.680  -0.130   9.183 -0.2878 -0.4362  1.1477
  107OSM    H2G10978   2.713   0.038   9.217 -0.7984 -0.4174  2.7480
  107OSM    C3F10979   2.574   0.016   9.056 -0.6306 -0.3034  0.7282
  107OSM    H3F10980   2.519   0.112   9.054  0.2599  0.1887 -1.0588
  107OSM    H3G10981   2.510  -0.061   9.009  1.2170 -1.3955 -0.0583
  107OSM    C4F10982   2.692   0.042   8.960  0.4364 -0.3375 -0.3205
  107OSM    H4F10983   2.740  -0.057   8.949 -2.6359 -2.1933  2.0110
  107OSM    H4G10984   2.766   0.118   8.993 -2.1732  2.3684 -0.5345
  107OSM    C5F10985   2.658   0.086   8.814  0.0695  0.3048  0.0833
  107OSM    H5F10986   2.619   0.189   8.800 -0.4579  0.0757 -0.1676
  107OSM    H5G10987   2.565   0.033   8.784  0.0260  1.4415 -1.9107
  107OSM    C6F10988   2.773   0.067   8.711  0.3711 -0.5109  0.7071
  107OSM    H6F10989   2.813  -0.036   8.709  0.4297 -0.5007  1.4624
  107OSM    H6G10990   2.862   0.131   8.728  0.4003  0.3054 -2.1909
  107OSM    C7F10991   2.714   0.104   8.576  0.2762  0.0722 -0.4740
  107OSM    H7F10992   2.687   0.211   8.572 -0.5508 -0.1694 -1.7149
  107OSM    H7G10993   2.624   0.047   8.545 -0.8281  1.9113 -0.7081
  107OSM    C8F10994   2.811   0.056   8.466 -0.7640 -0.7689 -0.4670
  107OSM    H8F10995   2.761   0.065   8.367  0.4939 -0.1037 -1.0600
  107OSM    H8G10996   2.839  -0.051   8.471  0.2366 -0.4641  0.7987
  107OSM    C9F10997   2.940   0.133   8.476  0.7008 -0.2909 -0.1975
  107OSM    H9F10998   2.985   0.128   8.576 -0.6068  2.4945  0.5821
  107OSM   C10F10999   2.990   0.204   8.374 -0.3679 -0.2902  0.6819
  107OSM   H10F11000   3.090   0.249   8.389 -0.7104  0.5088  0.5932
  107OSM   C11F11001   2.923   0.229   8.244 -0.6836  0.9368 -0.2261
  107OSM   H11F11002   2.948   0.327   8.199  2.3277  0.6135  0.6472
  107OSM   H11G11003   2.812   0.231   8.254 -0.6195  0.5745  0.5874
  107OSM   C12F11004   2.957   0.123   8.136  0.2903  0.2438  0.2592
  107OSM   H12F11005   2.925   0.027   8.182 -1.3159  0.0739 -1.1868
  107OSM   H12G11006   3.068   0.134   8.126  0.1855  2.7031  1.3103
  107OSM   C13F11007   2.887   0.153   8.003  0.6201 -0.6182  0.0435
  107OSM   H13F11008   2.778   0.135   8.009  0.5243 -1.0621 -2.4195
  107OSM   H13G11009   2.929   0.085   7.925  3.5411  1.3675 -0.1991
  107OSM   C14F11010   2.898   0.295   7.954 -1.0373 -0.8751 -1.0244
  107OSM   H14F11011   3.007   0.314   7.969 -1.6302  1.7351  0.2168
  107OSM   H14G11012   2.849   0.375   8.013  0.3305 -0.3488 -0.5620
  107OSM   C15F11013   2.850   0.320   7.810  0.2332  0.5956 -0.2977
  107OSM   H15F11014   2.741   0.301   7.810 -0.1259  2.4187  1.9262
  107OSM   H15G11015   2.893   0.253   7.733  2.5633 -0.2929  1.7017
  107OSM   C16F11016   2.876   0.467   7.773 -0.6419 -0.1089 -0.4069
  107OSM   H16F11017   2.985   0.478   7.756 -0.4435 -1.1275  0.2028
  107OSM   H16G11018   2.854   0.536   7.857  1.1275 -1.3509  1.1243
  107OSM   C17F11019   2.793   0.520   7.652 -0.2668  0.2502 -0.3156
  107OSM   H17F11020   2.816   0.624   7.619  0.7522 -0.0266 -0.4802
  107OSM   H17G11021   2.689   0.508   7.688 -0.2154 -0.7968 -0.5243
  107OSM   C18F11022   2.817   0.430   7.528  0.5328 -0.1941  0.2974
  107OSM   H18F11023   2.925   0.420   7.504  0.5323  0.3979  0.0158
  107OSM   H18G11024   2.769   0.466   7.434  1.6523 -0.1385 -0.2708
  107OSM   H18H11025   2.765   0.334   7.548  1.1274 -0.6641 -0.3739
  108OSM      N11026   0.822   1.303   9.695 -0.6180 -0.5516 -0.5837
  108OSM    C1511027   0.734   1.200   9.635  0.1079 -0.4665 -0.2071
  108OSM   H15A11028   0.629   1.220   9.647 -0.2895 -2.0708 -0.7880
  108OSM   H15B11029   0.743   1.113   9.699 -2.6305  0.3591  1.3443
  108OSM   H15C11030   0.768   1.178   9.535  2.4582 -1.0460  0.6746
  108OSM    C1411031   0.772   1.325   9.833 -0.0104  0.6060  0.0498
  108OSM   H14A11032   0.666   1.343   9.831  0.1770  1.8538  0.6579
  108OSM   H14B11033   0.822   1.403   9.889 -1.1439  2.1636 -1.0617
  108OSM   H14C11034   0.792   1.234   9.889  1.5711  0.5156 -0.6356
  108OSM    C1311035   0.965   1.279   9.681  1.1728  0.9245 -0.1564
  108OSM   H13A11036   1.009   1.291   9.583 -0.6172  0.0425 -1.0756
  108OSM   H13B11037   0.984   1.176   9.707 -0.7640  0.9123  1.3014
  108OSM   H13C11038   1.019   1.339   9.754 -0.4408  2.2158  0.0032
  108OSM    C1211039   0.808   1.436   9.620 -0.7431 -0.0222  0.2638
  108OSM   H12A11040   0.710   1.480   9.633 -1.2584 -0.6999 -1.1846
  108OSM   H12B11041   0.824   1.423   9.514  0.5165 -2.0355  0.6804
  108OSM    C1111042   0.900   1.552   9.669 -0.2726  0.1580 -0.3407
  108OSM   H11A11043   0.896   1.629   9.589 -2.2723 -0.1384 -0.5590
  108OSM   H11B11044   1.009   1.530   9.669 -0.5142 -1.0484 -0.5451
  108OSM      P11045   0.711   1.681   9.815 -0.3664 -0.2919 -0.2645
  108OSM    O1311046   0.631   1.597   9.911 -0.2651 -0.3453 -0.2990
  108OSM    O1411047   0.752   1.816   9.853 -0.2727  0.1439  0.4026
  108OSM    O1111048   0.645   1.682   9.669 -0.0795  0.2060  0.0923
  108OSM    O1211049   0.856   1.608   9.789  0.5232  0.0904 -0.1097
  108OSM    C1S11050   0.679   1.784   9.576 -0.5658  0.6230 -0.8813
  108OSM    H1S11051   0.772   1.761   9.520  0.1624 -1.7828  1.2127
  108OSM    H1T11052   0.697   1.881   9.627 -0.8117  0.5074 -0.5764
  108OSM     NF11053   0.599   1.909   9.376  0.1963 -0.3981  0.1257
  108OSM    HNF11054   0.559   2.000   9.385  2.5399  0.5123  1.5797
  108OSM    C2S11055   0.558   1.814   9.474 -0.1915  0.4203 -0.2528
  108OSM    H2S11056   0.528   1.720   9.421 -0.9656  0.1058  0.7172
  108OSM    C3S11057   0.428   1.846   9.561 -0.3351 -0.2799 -0.2209
  108OSM    H3S11058   0.442   1.909   9.652  1.0964 -1.1026  0.1422
  108OSM     O311059   0.378   1.725   9.620  0.3839 -0.3003 -0.1207
  108OSM    HO311060   0.456   1.671   9.638  1.6550  1.9238  1.4109
  108OSM    C4S11061   0.318   1.903   9.471 -0.0124  0.2868 -0.3038
  108OSM    H4S11062   0.263   1.826   9.414 -1.3091  0.2142  1.0120
  108OSM    C5S11063   0.290   2.032   9.450 -0.5844 -0.4332 -0.1064
  108OSM    H5S11064   0.354   2.106   9.501 -1.6458  0.2660  0.2502
  108OSM    C6S11065   0.197   2.078   9.342 -0.2542  0.3636 -0.4369
  108OSM    H6S11066   0.239   2.172   9.300 -0.2329  0.1236 -0.9481
  108OSM    H6T11067   0.095   2.104   9.378 -0.3874  1.6380 -1.6743
  108OSM    C7S11068   0.184   1.993   9.216 -0.2950 -0.2162 -1.1327
  108OSM    H7S11069   0.121   1.902   9.214  1.0552 -1.1543 -1.7263
  108OSM    H7T11070   0.287   1.961   9.192  0.3460  2.8546 -2.8242
  108OSM    C8S11071   0.134   2.082   9.093 -0.0312  0.2148 -0.3001
  108OSM    H8S11072   0.031   2.118   9.114 -1.2555 -2.5843 -1.2241
  108OSM    H8T11073   0.111   2.005   9.016  0.0215  0.1946 -0.2954
  108OSM    C9S11074   0.212   2.206   9.049  0.2388  0.5978  0.4140
  108OSM    H9S11075   0.199   2.289   9.120  0.2545  1.9451 -1.1343
  108OSM    H9T11076   0.165   2.230   8.951 -0.6336 -1.1776  0.3606
  108OSM   C10S11077   0.359   2.187   9.003 -0.3497  0.3554 -0.5660
  108OSM   H10S11078   0.365   2.084   8.963  0.2170 -0.8372  2.4615
  108OSM   H10T11079   0.426   2.199   9.090 -0.9621 -2.9913  0.4348
  108OSM   C11S11080   0.405   2.281   8.887  0.1583  0.0718 -0.2032
  108OSM   H11S11081   0.375   2.385   8.910  1.0166  0.4914 -0.9275
  108OSM   H11T11082   0.343   2.257   8.798  0.2333  0.3941 -0.3440
  108OSM   C12S11083   0.556   2.275   8.859  0.3933  0.0731 -0.4192
  108OSM   H12S11084   0.570   2.173   8.818 -0.2752 -0.9709  1.8741
  108OSM   H12T11085   0.616   2.286   8.952  0.3812  0.6348 -0.4725
  108OSM   C13S11086   0.606   2.374   8.751 -0.0024 -0.5518 -0.5771
  108OSM   H13S11087   0.711   2.344   8.732  0.0642  0.5106 -1.9381
  108OSM   H13T11088   0.608   2.477   8.791  3.0422 -0.5273 -0.6733
  108OSM   C14S11089   0.545   2.362   8.613  0.2679  0.0762 -0.9060
  108OSM   H14S11090   0.477   2.449   8.611  0.3480  0.1365 -1.0361
  108OSM   H14T11091   0.478   2.274   8.612  1.7801 -1.1032 -2.3572
  108OSM   C15S11092   0.655   2.350   8.501 -0.2464  0.0399  0.0479
  108OSM   H15S11093   0.695   2.247   8.505  1.8942  0.8876  2.2916
  108OSM   H15T11094   0.728   2.434   8.509 -1.3639  0.9492  0.8872
  108OSM   C16S11095   0.598   2.374   8.356 -0.0585 -0.2565 -0.5132
  108OSM   H16S11096   0.568   2.480   8.339 -0.9721 -0.0686  1.9756
  108OSM   H16T11097   0.506   2.313   8.342 -0.7162  0.7678 -0.7475
  108OSM   C17S11098   0.697   2.338   8.250  0.5854 -0.3112 -1.1036
  108OSM   H17S11099   0.705   2.227   8.253  0.8928 -0.2740 -0.6388
  108OSM   H17T11100   0.799   2.369   8.280 -0.4019  1.1558  0.8631
  108OSM   C18S11101   0.676   2.402   8.115 -0.1393  0.0202  0.2185
  108OSM   H18S11102   0.681   2.512   8.129 -0.1701  0.1472 -0.7585
  108OSM   H18T11103   0.574   2.379   8.076 -0.1098  0.9285 -0.4213
  108OSM   H18U11104   0.756   2.382   8.041 -3.5190 -2.5892 -2.9639
  108OSM    C1F11105   0.698   1.884   9.287  0.2600  0.0742  0.2264
  108OSM     OF11106   0.742   1.774   9.281 -0.0525 -0.6666 -0.1067
  108OSM    C2F11107   0.728   1.999   9.197 -0.4113 -0.1149  0.1378
  108OSM    H2F11108   0.757   2.085   9.261 -1.4057  0.9329 -0.7725
  108OSM    H2G11109   0.640   2.040   9.141  0.3421  2.7298  0.9641
  108OSM    C3F11110   0.843   1.964   9.098 -0.2692 -0.5708  0.2199
  108OSM    H3F11111   0.819   1.878   9.032 -1.8927 -0.5178  0.7290
  108OSM    H3G11112   0.937   1.939   9.152 -0.8738 -0.2290  1.4459
  108OSM    C4F11113   0.866   2.076   9.002  0.0174  0.0295  0.2273
  108OSM    H4F11114   0.893   2.173   9.049  1.2074  0.1126 -0.6023
  108OSM    H4G11115   0.772   2.091   8.945  0.3951 -0.5442 -0.5558
  108OSM    C5F11116   0.986   2.039   8.902 -0.4970 -0.2372 -0.2481
  108OSM    H5F11117   0.951   1.948   8.849  0.0325 -0.7643  0.2941
  108OSM    H5G11118   1.073   1.997   8.958 -0.8486  1.7427  1.8371
  108OSM    C6F11119   1.033   2.151   8.807  0.7731  0.0958 -0.2342
  108OSM    H6F11120   1.082   2.229   8.868  2.1659  0.4357 -1.7345
  108OSM    H6G11121   0.950   2.200   8.752  2.0204  1.9081 -0.5309
  108OSM    C7F11122   1.133   2.101   8.699 -0.8421 -0.1831  0.3463
  108OSM    H7F11123   1.084   2.028   8.631 -0.0619 -0.6105  0.2448
  108OSM    H7G11124   1.224   2.055   8.742  0.4205  1.4296 -0.5452
  108OSM    C8F11125   1.165   2.222   8.602  0.1325  0.3311  0.6931
  108OSM    H8F11126   1.191   2.300   8.677  1.6935 -0.2753  0.8013
  108OSM    H8G11127   1.072   2.253   8.550  1.6237  3.5863 -0.1747
  108OSM    C9F11128   1.283   2.174   8.520 -0.1010 -0.3199  0.0453
  108OSM    H9F11129   1.344   2.103   8.576  0.9776  1.7877  1.6089
  108OSM   C10F11130   1.303   2.196   8.395 -0.2055  0.1151 -0.3110
  108OSM   H10F11131   1.374   2.128   8.345  0.4760 -0.5056  1.4366
  108OSM   C11F11132   1.227   2.285   8.294 -0.4791  0.3001  0.2261
  108OSM   H11F11133   1.311   2.346   8.256  0.7155 -2.0108 -0.9242
  108OSM   H11G11134   1.157   2.353   8.347  0.2572 -0.3596  2.0893
  108OSM   C12F11135   1.165   2.196   8.179 -0.1545 -0.2581 -0.5091
  108OSM   H12F11136   1.100   2.119   8.226 -1.6954  0.6266 -1.1517
  108OSM   H12G11137   1.243   2.138   8.125 -0.0829  0.4418 -1.1642
  108OSM   C13F11138   1.085   2.274   8.078  0.2426 -0.0587 -0.5992
  108OSM   H13F11139   1.049   2.367   8.126  2.2319  0.8854 -0.8874
  108OSM   H13G11140   0.997   2.221   8.037  0.2122 -1.2590  0.9795
  108OSM   C14F11141   1.187   2.324   7.968 -0.7227 -0.4858  0.3504
  108OSM   H14F11142   1.229   2.234   7.919  1.1189  0.0202  0.9777
  108OSM   H14G11143   1.271   2.370   8.024  0.6618 -1.5293 -0.8250
  108OSM   C15F11144   1.140   2.430   7.866 -0.2416  0.3737 -0.9451
  108OSM   H15F11145   1.120   2.527   7.915 -0.1531 -0.0491 -0.0607
  108OSM   H15G11146   1.043   2.390   7.830  0.2293 -1.3183 -0.3581
  108OSM   C16F11147   1.234   2.458   7.746  0.0764  1.5191  0.0775
  108OSM   H16F11148   1.338   2.477   7.780 -0.0275 -0.3183  1.5139
  108OSM   H16G11149   1.200   2.545   7.687 -1.4762  0.6612 -0.3245
  108OSM   C17F11150   1.246   2.333   7.652  0.7294 -0.5500  0.5829
  108OSM   H17F11151   1.145   2.288   7.663 -1.1705  3.3206 -0.4649
  108OSM   H17G11152   1.312   2.253   7.693  0.2400  0.1271  2.7471
  108OSM   C18F11153   1.292   2.357   7.511  0.1870 -0.2993  0.1396
  108OSM   H18F11154   1.390   2.409   7.512 -0.6981  1.4582  2.0839
  108OSM   H18G11155   1.213   2.425   7.471 -0.6669 -0.5678  1.3206
  108OSM   H18H11156   1.293   2.260   7.458  1.6954  0.3953 -1.1381
  109OSM      N11157   5.977   1.427   9.919 -0.1543  0.0217  0.4013
  109OSM    C1511158   6.093   1.411  10.017 -0.3174  0.7551 -0.0741
  109OSM   H15A11159   6.152   1.331   9.973 -0.7113  0.0042  0.7356
  109OSM   H15B11160   6.069   1.354  10.105 -1.3408 -0.4508 -1.1125
  109OSM   H15C11161   6.155   1.496  10.039 -0.1151  0.9309 -1.2476
  109OSM    C1411162   5.900   1.548   9.962  0.0627 -0.3386 -0.4237
  109OSM   H14A11163   5.959   1.637   9.977 -0.8169  0.1995 -0.1307
  109OSM   H14B11164   5.850   1.531  10.056  2.4726 -1.8130  0.6339
  109OSM   H14C11165   5.819   1.571   9.895  0.8233  2.5182 -0.4245
  109OSM    C1311166   6.038   1.465   9.788 -0.0909  0.0571  0.9597
  109OSM   H13A11167   6.120   1.534   9.802  0.8498 -0.6530 -0.9069
  109OSM   H13B11168   5.959   1.501   9.724 -0.1072 -2.3644 -0.4636
  109OSM   H13C11169   6.076   1.374   9.743 -0.7751 -0.9739  2.4444
  109OSM    C1211170   5.877   1.315   9.893 -0.2364 -0.4867 -0.2242
  109OSM   H12A11171   5.817   1.350   9.810  0.2664  2.2959  0.5265
  109OSM   H12B11172   5.819   1.292   9.981  1.8364 -0.1517  1.2832
  109OSM    C1111173   5.938   1.180   9.848 -0.4770 -0.0700  0.4055
  109OSM   H11A11174   5.855   1.107   9.848 -0.6646  0.1470 -0.3875
  109OSM   H11B11175   6.003   1.155   9.935 -0.5682 -0.8364  0.2535
  109OSM      P11176   6.081   1.049   9.685 -0.2242 -0.1808  0.7618
  109OSM    O1311177   6.189   1.038   9.781 -0.5983 -0.2352  0.2573
  109OSM    O1411178   5.989   0.935   9.666  0.2254  0.4556 -0.3762
  109OSM    O1111179   6.139   1.083   9.547  0.3007  0.2591  0.1506
  109OSM    O1211180   6.014   1.188   9.724 -0.0745 -0.5954  0.2721
  109OSM    C1S11181   6.046   1.106   9.441 -0.4974  0.8797 -0.0279
  109OSM    H1S11182   5.970   1.025   9.438  1.4533 -1.0959  1.7533
  109OSM    H1T11183   6.102   1.102   9.346 -1.0717  1.1183 -0.3762
  109OSM     NF11184   5.886   1.245   9.335 -0.4933  0.6403  0.0977
  109OSM    HNF11185   5.884   1.330   9.283 -2.0429  0.7385  0.3017
  109OSM    C2S11186   5.975   1.245   9.449  0.4664 -0.3217 -0.2202
  109OSM    H2S11187   5.902   1.259   9.532  0.2730 -1.1496 -0.2397
  109OSM    C3S11188   6.077   1.363   9.460 -0.2010  1.0150  0.2224
  109OSM    H3S11189   6.123   1.353   9.560  0.3251 -1.2700 -0.2249
  109OSM     O311190   6.024   1.498   9.468 -0.3748 -0.5399  0.4179
  109OSM    HO311191   5.932   1.496   9.495 -0.9709 -0.4493 -1.4834
  109OSM    C4S11192   6.172   1.353   9.347 -0.1009 -0.6023 -0.0662
  109OSM    H4S11193   6.277   1.322   9.362 -0.6790 -3.0290 -0.9296
  109OSM    C5S11194   6.143   1.407   9.227 -0.5085 -0.3361  0.5804
  109OSM    H5S11195   6.045   1.452   9.204  0.0240  0.1005 -0.9049
  109OSM    C6S11196   6.243   1.403   9.118 -0.2088  0.1557 -0.6026
  109OSM    H6S11197   6.244   1.305   9.064  0.0494 -0.7270  0.9696
  109OSM    H6T11198   6.346   1.422   9.154 -0.3938 -1.0811  0.6257
  109OSM    C7S11199   6.209   1.523   9.026 -0.2143  0.0433  0.6110
  109OSM    H7S11200   6.221   1.620   9.080 -0.1107  0.9043 -0.9281
  109OSM    H7T11201   6.109   1.518   8.977 -1.1912 -1.1319  2.6477
  109OSM    C8S11202   6.315   1.556   8.920  0.3183 -0.4697  0.1174
  109OSM    H8S11203   6.414   1.513   8.947 -0.7456 -1.7135  2.1027
  109OSM    H8T11204   6.331   1.665   8.902  1.2173 -0.5161  0.6049
  109OSM    C9S11205   6.276   1.500   8.784 -0.3222  0.2834  0.4676
  109OSM    H9S11206   6.186   1.549   8.740 -0.9167 -1.6896 -0.5745
  109OSM    H9T11207   6.264   1.393   8.811  0.9771  0.6097  2.3854
  109OSM   C10S11208   6.395   1.514   8.691  0.3791  0.1459 -0.5462
  109OSM   H10S11209   6.481   1.454   8.726 -0.7386 -0.0861  1.8545
  109OSM   H10T11210   6.423   1.622   8.695 -1.7950  0.6460  2.8731
  109OSM   C11S11211   6.352   1.485   8.545  0.2765 -0.8236 -0.0506
  109OSM   H11S11212   6.260   1.540   8.517  1.9028  2.1175  0.2471
  109OSM   H11T11213   6.318   1.379   8.541 -3.1616  0.2529 -1.7895
  109OSM   C12S11214   6.464   1.514   8.448 -0.4405  0.5832  0.1297
  109OSM   H12S11215   6.553   1.451   8.469  0.2798  1.2070 -1.0080
  109OSM   H12T11216   6.508   1.614   8.464  1.6159  0.1884 -2.6288
  109OSM   C13S11217   6.420   1.482   8.301  0.3788 -0.7308  0.1989
  109OSM   H13S11218   6.336   1.552   8.284  1.7033  0.1152 -3.2375
  109OSM   H13T11219   6.386   1.376   8.299  0.4096 -0.7459  0.4240
  109OSM   C14S11220   6.524   1.515   8.194 -0.4966  0.0741 -1.5124
  109OSM   H14S11221   6.619   1.475   8.234 -0.6111 -0.2629 -1.5746
  109OSM   H14T11222   6.535   1.625   8.184 -0.8180  0.0832 -1.7705
  109OSM   C15S11223   6.484   1.463   8.057 -0.2918  0.3640  0.4819
  109OSM   H15S11224   6.475   1.352   8.064 -2.1883  0.4857  0.2796
  109OSM   H15T11225   6.565   1.490   7.986 -0.3097 -2.0276 -0.5048
  109OSM   C16S11226   6.347   1.504   7.996  0.3630 -0.4406 -0.0993
  109OSM   H16S11227   6.272   1.528   8.075  1.5634 -5.2606  2.7066
  109OSM   H16T11228   6.301   1.414   7.951 -2.8384 -0.7670  3.5368
  109OSM   C17S11229   6.357   1.606   7.889  0.1335 -1.0332  0.1961
  109OSM   H17S11230   6.399   1.704   7.919 -1.3535 -0.1764 -0.4422
  109OSM   H17T11231   6.255   1.625   7.849 -0.2299 -0.6881  1.2645
  109OSM   C18S11232   6.434   1.560   7.763 -0.5079 -0.2631 -0.2619
  109OSM   H18S11233   6.394   1.459   7.739  1.3692 -1.1472  0.2367
  109OSM   H18T11234   6.539   1.545   7.795 -0.0199  1.1022 -1.2150
  109OSM   H18U11235   6.427   1.617   7.669  1.3969 -0.6086 -0.6286
  109OSM    C1F11236   5.791   1.156   9.294 -0.5196 -0.5671  0.7196
  109OSM     OF11237   5.726   1.091   9.369 -0.1898  0.0075  0.3069
  109OSM    C2F11238   5.775   1.145   9.146  0.3914 -0.6374  0.4413
  109OSM    H2F11239   5.690   1.208   9.113  1.5445  0.5288 -0.3601
  109OSM    H2G11240   5.753   1.039   9.124 -0.6276 -0.3143 -0.1741
  109OSM    C3F11241   5.900   1.193   9.061 -0.4452  0.6514 -0.2188
  109OSM    H3F11242   5.982   1.119   9.073 -0.5563  0.7926  1.4885
  109OSM    H3G11243   5.950   1.283   9.102  1.8757 -0.5081 -0.4587
  109OSM    C4F11244   5.866   1.210   8.912 -0.4002  0.2468  0.5571
  109OSM    H4F11245   5.815   1.308   8.906 -0.4309  0.1623 -0.5966
  109OSM    H4G11246   5.790   1.136   8.879 -0.6717  0.2987  1.0553
  109OSM    C5F11247   5.989   1.213   8.818  0.2285  0.5059 -0.1701
  109OSM    H5F11248   6.030   1.112   8.797 -2.2135 -0.5766  0.1362
  109OSM    H5G11249   6.068   1.278   8.862 -1.0106  0.9307  1.4657
  109OSM    C6F11250   5.963   1.286   8.681  0.2048 -0.5863  0.1666
  109OSM    H6F11251   5.912   1.223   8.606  0.5379 -0.2646 -0.3279
  109OSM    H6G11252   6.063   1.309   8.639  0.5733  0.6012  1.6213
  109OSM    C7F11253   5.875   1.416   8.689  0.1528 -0.6256 -0.1114
  109OSM    H7F11254   5.924   1.486   8.760 -0.3574 -0.2241 -0.1543
  109OSM    H7G11255   5.778   1.389   8.737  0.9652  1.0991  2.6041
  109OSM    C8F11256   5.841   1.487   8.553 -0.6274 -0.4498 -0.5499
  109OSM    H8F11257   5.766   1.567   8.570  0.2178  0.2752 -0.1396
  109OSM    H8G11258   5.800   1.425   8.471  3.2580 -2.0719 -1.3810
  109OSM    C9F11259   5.969   1.561   8.514  0.6724 -0.1155 -0.7836
  109OSM    H9F11260   6.004   1.640   8.580  2.0318  0.1834 -1.8515
  109OSM   C10F11261   6.034   1.544   8.400  0.7359 -0.4882  0.1061
  109OSM   H10F11262   6.115   1.612   8.371 -0.9309  2.0031  1.1463
  109OSM   C11F11263   6.005   1.440   8.297  0.4455 -0.1970 -0.2719
  109OSM   H11F11264   5.960   1.351   8.347  0.5303  0.2172  0.5430
  109OSM   H11G11265   6.104   1.422   8.250  1.1915 -0.4706  1.3539
  109OSM   C12F11266   5.915   1.491   8.177 -0.9148  0.1849  0.1030
  109OSM   H12F11267   5.870   1.401   8.130 -1.6172  0.7972 -0.4274
  109OSM   H12G11268   5.979   1.532   8.096 -0.2743  1.1014  1.0696
  109OSM   C13F11269   5.807   1.586   8.214  0.4342 -0.2247 -0.1731
  109OSM   H13F11270   5.851   1.684   8.243  1.8066 -1.5100  2.1660
  109OSM   H13G11271   5.743   1.547   8.296  0.9138 -1.0246 -0.1789
  109OSM   C14F11272   5.720   1.620   8.089  0.1744  0.6790  0.0884
  109OSM   H14F11273   5.786   1.658   8.008 -1.1379  0.4411 -1.1093
  109OSM   H14G11274   5.652   1.698   8.130 -0.8303  0.3239 -0.8921
  109OSM   C15F11275   5.636   1.510   8.029  0.5975 -0.4490  0.0741
  109OSM   H15F11276   5.599   1.435   8.101 -1.7466 -0.1466 -0.7782
  109OSM   H15G11277   5.714   1.446   7.983 -0.4172 -0.6632 -1.3966
  109OSM   C16F11278   5.521   1.562   7.937  0.5880  0.2528  0.0172
  109OSM   H16F11279   5.553   1.644   7.870 -0.7551  1.0598  0.3431
  109OSM   H16G11280   5.455   1.603   8.017  1.2263 -0.2568  0.8185
  109OSM   C17F11281   5.440   1.448   7.865  0.4332  0.2275 -0.4590
  109OSM   H17F11282   5.344   1.487   7.826  0.4860 -0.5962 -1.4358
  109OSM   H17G11283   5.423   1.363   7.934 -1.7379  0.8275 -0.1962
  109OSM   C18F11284   5.518   1.396   7.744  0.0896  0.0822 -0.0246
  109OSM   H18F11285   5.585   1.310   7.767  0.1704 -0.0043 -0.5850
  109OSM   H18G11286   5.572   1.478   7.692  0.3036 -0.7717 -1.1615
  109OSM   H18H11287   5.444   1.354   7.672  1.1319  0.0054 -1.0564
  110OSM      N11288   5.774   6.931   9.899  0.0089  0.3657 -0.1509
  110OSM    C1511289   5.720   6.806   9.958  0.1282  0.1201  0.7036
  110OSM   H15A11290   5.621   6.780   9.923  0.3050  1.2246 -0.6666
  110OSM   H15B11291   5.717   6.817  10.065 -1.8292 -0.0412  0.6883
  110OSM   H15C11292   5.785   6.724   9.931 -0.3457  0.4319 -1.4609
  110OSM    C1411293   5.905   6.952   9.970 -0.0291  0.2968 -0.5155
  110OSM   H14A11294   5.980   6.878   9.946  1.2094  2.0837 -2.3220
  110OSM   H14B11295   5.886   6.946  10.076 -2.1092 -0.8902 -0.9226
  110OSM   H14C11296   5.955   7.045   9.949  1.5716 -0.6190 -0.8043
  110OSM    C1311297   5.798   6.907   9.755 -0.4356  0.2805  0.1432
  110OSM   H13A11298   5.865   6.984   9.721 -1.3301  0.3969 -1.3679
  110OSM   H13B11299   5.711   6.904   9.692 -1.2589  1.4033  1.1950
  110OSM   H13C11300   5.851   6.814   9.740  0.4021  0.7987 -0.1602
  110OSM    C1211301   5.690   7.059   9.923  0.7874 -0.3779  0.4427
  110OSM   H12A11302   5.743   7.146   9.888 -0.8603  0.1599 -0.7872
  110OSM   H12B11303   5.681   7.068  10.030  1.5165  0.4091  0.4412
  110OSM    C1111304   5.546   7.052   9.862 -0.7385 -0.5590  0.5262
  110OSM   H11A11305   5.569   7.043   9.753 -1.1802 -6.3002  0.7324
  110OSM   H11B11306   5.501   7.149   9.891 -0.7052 -0.2457 -0.4300
  110OSM      P11307   5.327   6.947   9.814  0.2910 -0.1725  0.1177
  110OSM    O1311308   5.235   6.842   9.852 -0.2945  0.0226  0.1193
  110OSM    O1411309   5.265   7.078   9.797 -0.0628 -0.1079 -0.6356
  110OSM    O1111310   5.388   6.907   9.676  0.1587 -0.7924  0.3318
  110OSM    O1211311   5.456   6.942   9.902 -0.0820  0.2014 -0.5162
  110OSM    C1S11312   5.439   6.769   9.657 -0.0500  0.3392 -0.4733
  110OSM    H1S11313   5.383   6.694   9.717  0.1173  0.7189  0.1666
  110OSM    H1T11314   5.541   6.762   9.701  0.5643 -0.5444 -2.0151
  110OSM     NF11315   5.465   6.590   9.481  0.3673  0.2481 -0.1033
  110OSM    HNF11316   5.531   6.562   9.412 -1.2383 -0.4371 -1.3948
  110OSM    C2S11317   5.452   6.734   9.509 -0.2866  0.1351 -0.0687
  110OSM    H2S11318   5.349   6.763   9.477  0.1082  0.1911 -1.3135
  110OSM    C3S11319   5.558   6.812   9.440  0.0388  0.3504  0.6149
  110OSM    H3S11320   5.659   6.776   9.470 -0.5453 -1.6996  0.1920
  110OSM     O311321   5.554   6.954   9.473 -0.2488  0.0659 -0.0306
  110OSM    HO311322   5.484   6.970   9.537 -1.1447 -0.5452 -0.8377
  110OSM    C4S11323   5.562   6.801   9.294  0.3846 -0.1280  0.0519
  110OSM    H4S11324   5.637   6.729   9.258 -0.5959  0.9072 -4.3322
  110OSM    C5S11325   5.494   6.871   9.203  0.3443  0.1478  0.5998
  110OSM    H5S11326   5.421   6.947   9.235  1.5328  1.9484 -0.8794
  110OSM    C6S11327   5.509   6.857   9.057  0.7008 -0.2916 -0.7662
  110OSM    H6S11328   5.553   6.944   9.004 -0.1585 -0.1425 -1.2437
  110OSM    H6T11329   5.412   6.849   9.004  0.8620 -2.0775 -0.8347
  110OSM    C7S11330   5.606   6.742   9.013 -0.7209  0.2428  0.4903
  110OSM    H7S11331   5.555   6.649   9.047  0.7179 -0.9749 -0.6344
  110OSM    H7T11332   5.709   6.735   9.054  0.5063  1.8575 -2.2251
  110OSM    C8S11333   5.616   6.721   8.861  0.3809 -1.0090  0.7785
  110OSM    H8S11334   5.658   6.813   8.815 -2.4904 -0.6364 -1.2190
  110OSM    H8T11335   5.518   6.723   8.808  0.2618 -0.1016  1.0194
  110OSM    C9S11336   5.698   6.593   8.838  0.7068 -0.4747  0.1420
  110OSM    H9S11337   5.667   6.516   8.912 -0.0908  2.0859  2.5962
  110OSM    H9T11338   5.805   6.614   8.861  1.0997  1.2357 -3.0585
  110OSM   C10S11339   5.691   6.537   8.689  0.1615  0.5819  0.0768
  110OSM   H10S11340   5.595   6.482   8.680  0.4598  0.1149 -0.2995
  110OSM   H10T11341   5.775   6.465   8.675 -0.8137 -0.2936 -1.4170
  110OSM   C11S11342   5.696   6.644   8.582 -0.3511 -0.1265  0.3391
  110OSM   H11S11343   5.785   6.709   8.592  1.1323 -1.8282 -1.3576
  110OSM   H11T11344   5.602   6.701   8.564 -0.6577 -0.6070  0.4046
  110OSM   C12S11345   5.728   6.566   8.453  0.3264 -0.0334 -0.1928
  110OSM   H12S11346   5.655   6.489   8.422  1.0849  0.0865 -2.3323
  110OSM   H12T11347   5.827   6.516   8.464 -0.1004 -0.5888  1.2831
  110OSM   C13S11348   5.736   6.660   8.334  0.0213  0.3271 -0.7614
  110OSM   H13S11349   5.753   6.769   8.350  0.6842  0.0541  0.3859
  110OSM   H13T11350   5.638   6.655   8.281 -0.3716  3.3569 -0.4339
  110OSM   C14S11351   5.845   6.613   8.233 -0.5451 -0.0183 -0.5135
  110OSM   H14S11352   5.827   6.503   8.232  1.6428 -0.4081 -1.4093
  110OSM   H14T11353   5.941   6.630   8.287 -1.3422 -1.9532  1.5938
  110OSM   C15S11354   5.825   6.678   8.094  0.0964 -0.2998 -0.7071
  110OSM   H15S11355   5.718   6.667   8.067  0.3711 -1.5814 -1.3204
  110OSM   H15T11356   5.887   6.634   8.013  0.7811 -1.6273  0.5189
  110OSM   C16S11357   5.865   6.830   8.102  0.4250  0.1023  0.5797
  110OSM   H16S11358   5.967   6.836   8.147  0.5688 -0.8042  0.3915
  110OSM   H16T11359   5.794   6.888   8.165 -1.1058 -0.4292 -0.6312
  110OSM   C17S11360   5.865   6.899   7.968  0.1965  0.0542  0.1341
  110OSM   H17S11361   5.768   6.872   7.921  0.9566  0.2784 -1.5939
  110OSM   H17T11362   5.947   6.862   7.902  0.3612  0.1275  0.2993
  110OSM   C18S11363   5.880   7.051   7.977  0.1208 -0.1128  0.4609
  110OSM   H18S11364   5.985   7.075   8.007 -0.5569 -0.2616  3.1150
  110OSM   H18T11365   5.815   7.107   8.048 -1.1991  0.9777 -1.5784
  110OSM   H18U11366   5.860   7.085   7.873 -2.2644 -0.5034  0.7800
  110OSM    C1F11367   5.370   6.501   9.520 -0.1605 -0.3432  0.2802
  110OSM     OF11368   5.274   6.527   9.590  0.0164 -0.1472 -0.3957
  110OSM    C2F11369   5.378   6.371   9.441 -0.6655  0.1930 -0.0885
  110OSM    H2F11370   5.357   6.289   9.513  0.3253  0.1520  0.1611
  110OSM    H2G11371   5.483   6.358   9.406 -1.3603 -2.1290 -1.4064
  110OSM    C3F11372   5.283   6.357   9.317  0.0294  0.1961  0.0292
  110OSM    H3F11373   5.182   6.371   9.359 -0.4631 -1.7783 -0.4264
  110OSM    H3G11374   5.296   6.251   9.284 -1.2426  0.1668 -0.3867
  110OSM    C4F11375   5.329   6.447   9.198  0.2602  1.4365 -0.3440
  110OSM    H4F11376   5.440   6.445   9.189  0.2632  0.0536 -0.0456
  110OSM    H4G11377   5.302   6.550   9.229 -0.3063  0.8764  1.0798
  110OSM    C5F11378   5.248   6.416   9.078  0.2029  0.8490 -0.2872
  110OSM    H5F11379   5.139   6.427   9.096  0.4439  1.6790  0.6893
  110OSM    H5G11380   5.259   6.307   9.060  0.5815 -0.0326  4.5412
  110OSM    C6F11381   5.289   6.495   8.952 -0.6949  0.6997  0.1038
  110OSM    H6F11382   5.397   6.477   8.934 -1.0225 -1.9293  0.5624
  110OSM    H6G11383   5.269   6.604   8.960 -1.0274  0.4329  3.8733
  110OSM    C7F11384   5.216   6.454   8.822 -0.8175  0.5914  0.1515
  110OSM    H7F11385   5.108   6.453   8.846 -0.8196 -1.0253  0.1604
  110OSM    H7G11386   5.245   6.348   8.802  0.9978  1.0243  0.3252
  110OSM    C8F11387   5.257   6.544   8.703  0.6960  0.4500  0.3820
  110OSM    H8F11388   5.362   6.531   8.668  0.4544 -0.4888 -0.0288
  110OSM    H8G11389   5.252   6.648   8.742  0.9304  1.4477 -2.1430
  110OSM    C9F11390   5.158   6.540   8.592 -0.8443 -0.0091  0.8924
  110OSM    H9F11391   5.051   6.536   8.618 -1.7551  1.4235 -2.4239
  110OSM   C10F11392   5.176   6.562   8.458 -0.3943  0.5223  0.1585
  110OSM   H10F11393   5.085   6.551   8.397 -1.2434 -1.7671  1.7718
  110OSM   C11F11394   5.306   6.578   8.388  0.4878 -0.5601  0.4928
  110OSM   H11F11395   5.328   6.487   8.328  2.1160 -1.8785  3.0304
  110OSM   H11G11396   5.391   6.606   8.454 -0.8214  0.5180  1.7529
  110OSM   C12F11397   5.301   6.695   8.283  0.0332 -0.1141  0.0656
  110OSM   H12F11398   5.390   6.684   8.217 -0.5914  0.8447 -0.9529
  110OSM   H12G11399   5.319   6.792   8.335  1.6174  0.8102 -2.1599
  110OSM   C13F11400   5.170   6.732   8.205  0.1017 -0.1971 -0.2150
  110OSM   H13F11401   5.096   6.749   8.286 -0.2026  0.6006 -0.6513
  110OSM   H13G11402   5.143   6.642   8.145  0.6277 -0.1964 -0.4575
  110OSM   C14F11403   5.188   6.855   8.121  0.1114  0.1508 -0.2525
  110OSM   H14F11404   5.254   6.819   8.039 -0.2258 -0.9808 -0.0284
  110OSM   H14G11405   5.233   6.934   8.186  0.9338 -1.1589  0.7922
  110OSM   C15F11406   5.061   6.910   8.069  0.2825 -0.2859 -0.5524
  110OSM   H15F11407   5.069   7.019   8.047  1.3310  0.5048  3.3382
  110OSM   H15G11408   4.987   6.894   8.151  1.7033 -0.3117  0.7635
  110OSM   C16F11409   5.018   6.847   7.936  0.2435 -0.7772  0.3852
  110OSM   H16F11410   5.034   6.738   7.948 -1.9560 -0.9914  1.5810
  110OSM   H16G11411   5.082   6.887   7.855 -0.1554 -0.2779  0.3153
  110OSM   C17F11412   4.872   6.873   7.917 -0.4104 -0.1251 -0.0994
  110OSM   H17F11413   4.845   6.981   7.925 -0.0143 -0.0315 -0.0034
  110OSM   H17G11414   4.819   6.829   8.005  0.6275  0.4298  0.8230
  110OSM   C18F11415   4.807   6.805   7.797  0.1982 -0.1926  0.2020
  110OSM   H18F11416   4.828   6.696   7.789  0.9555  0.0226 -0.8337
  110OSM   H18G11417   4.831   6.847   7.697  1.4731  2.1188  1.4563
  110OSM   H18H11418   4.696   6.811   7.810 -0.0323 -1.9696 -0.6950
  111OSM      N11419   7.183   5.516   9.959 -0.3315  0.2422 -0.2483
  111OSM    C1511420   7.171   5.589   9.832 -0.3059 -0.3438 -0.4157
  111OSM   H15A11421   7.268   5.591   9.784 -0.1173 -0.1141 -0.0300
  111OSM   H15B11422   7.151   5.691   9.860  1.7958 -0.0218  0.0405
  111OSM   H15C11423   7.090   5.564   9.766 -1.9805  0.8406  1.1583
  111OSM    C1411424   7.304   5.554  10.037 -0.2401 -0.1811  0.1008
  111OSM   H14A11425   7.396   5.527   9.986  0.5523  2.1926  0.2109
  111OSM   H14B11426   7.311   5.502  10.131  0.8297  0.3981  0.3535
  111OSM   H14C11427   7.314   5.659  10.062 -1.1590 -0.4644  1.6938
  111OSM    C1311428   7.055   5.528  10.037 -0.2391  0.6389 -0.0228
  111OSM   H13A11429   6.969   5.483   9.990 -0.2465 -0.1602  0.7354
  111OSM   H13B11430   7.031   5.632  10.055 -1.1425  0.1030  1.9834
  111OSM   H13C11431   7.067   5.478  10.132 -2.5554 -2.3199 -1.2072
  111OSM    C1211432   7.197   5.367   9.910 -0.3636  0.3905  0.1291
  111OSM   H12A11433   7.261   5.372   9.824 -0.5763 -0.6407 -0.0923
  111OSM   H12B11434   7.100   5.334   9.875 -0.2201 -1.3178  1.2847
  111OSM    C1111435   7.250   5.257  10.006 -0.1030  0.1491 -0.3402
  111OSM   H11A11436   7.237   5.152   9.974  1.6024 -0.2258  0.1425
  111OSM   H11B11437   7.182   5.269  10.093  1.8333 -1.9985  1.5469
  111OSM      P11438   7.502   5.183  10.001 -0.4598 -0.2116 -0.2481
  111OSM    O1311439   7.629   5.260   9.969  0.1509 -0.2230 -0.0408
  111OSM    O1411440   7.521   5.063  10.099 -0.5278  0.1217 -0.1753
  111OSM    O1111441   7.444   5.132   9.866 -0.0839  0.2146 -0.3132
  111OSM    O1211442   7.384   5.271  10.053 -0.7811  0.0002  0.0208
  111OSM    C1S11443   7.415   4.994   9.836  0.8142 -0.6164 -0.5070
  111OSM    H1S11444   7.322   4.968   9.891  0.7095 -0.7305 -0.7371
  111OSM    H1T11445   7.499   4.924   9.857  0.9660 -0.0897  0.7164
  111OSM     NF11446   7.346   4.825   9.651  0.3823 -0.6261 -0.1119
  111OSM    HNF11447   7.422   4.762   9.639  0.3446 -0.2069 -2.9592
  111OSM    C2S11448   7.381   4.970   9.680  0.2597  0.6153  0.4137
  111OSM    H2S11449   7.307   5.044   9.643  0.2716 -0.7690 -2.4695
  111OSM    C3S11450   7.507   5.018   9.604 -0.5665 -1.1387 -0.0593
  111OSM    H3S11451   7.590   4.951   9.631  1.1080  1.2511  0.9172
  111OSM     O311452   7.533   5.159   9.634  0.0686  0.4583 -0.0703
  111OSM    HO311453   7.512   5.172   9.726  2.3292 -0.9117  0.7015
  111OSM    C4S11454   7.489   5.017   9.454 -0.5614  0.4333  0.5955
  111OSM    H4S11455   7.415   5.084   9.407 -0.0507  0.6290  0.0665
  111OSM    C5S11456   7.562   4.933   9.377 -0.1661  0.3960  0.2335
  111OSM    H5S11457   7.629   4.853   9.411 -0.3819 -1.3514 -3.3082
  111OSM    C6S11458   7.545   4.938   9.230 -0.3675 -0.0730 -0.7585
  111OSM    H6S11459   7.438   4.953   9.204  0.1359  0.8181 -2.3328
  111OSM    H6T11460   7.567   4.847   9.170 -0.4521  0.4875 -1.6505
  111OSM    C7S11461   7.621   5.061   9.168  0.0960  0.2153  0.3401
  111OSM    H7S11462   7.726   5.068   9.203 -0.8588  0.5459  3.2957
  111OSM    H7T11463   7.560   5.147   9.204  1.1036  1.7566 -1.5436
  111OSM    C8S11464   7.621   5.077   9.020 -0.3923 -0.6113 -0.1665
  111OSM    H8S11465   7.519   5.075   8.975 -0.2993  0.6104 -0.4446
  111OSM    H8T11466   7.684   4.997   8.975  0.9476  1.3276 -1.7998
  111OSM    C9S11467   7.664   5.220   8.982 -0.3126 -0.5556 -0.4553
  111OSM    H9S11468   7.757   5.249   9.035 -1.4315  1.2833  0.5772
  111OSM    H9T11469   7.580   5.288   9.011  0.3292  0.4504 -0.9295
  111OSM   C10S11470   7.690   5.239   8.835 -0.7876  0.7882 -0.3911
  111OSM   H10S11471   7.599   5.194   8.790 -1.4351  0.9244  0.7608
  111OSM   H10T11472   7.773   5.166   8.830 -1.8357 -0.3799 -1.0879
  111OSM   C11S11473   7.718   5.374   8.794  0.6485 -0.2600  0.0327
  111OSM   H11S11474   7.802   5.403   8.860 -0.1887 -0.4833  1.2295
  111OSM   H11T11475   7.624   5.429   8.819  0.2024 -1.4695  1.0624
  111OSM   C12S11476   7.735   5.387   8.642  0.0904 -0.4173 -0.9566
  111OSM   H12S11477   7.659   5.359   8.566 -1.5405 -0.2870  0.6043
  111OSM   H12T11478   7.826   5.326   8.623 -0.9678 -2.0387 -0.9789
  111OSM   C13S11479   7.763   5.533   8.617  0.2701  1.1025 -0.0617
  111OSM   H13S11480   7.840   5.557   8.694  0.4747  1.1229 -0.2738
  111OSM   H13T11481   7.662   5.579   8.624 -1.0361 -1.9772  2.8655
  111OSM   C14S11482   7.809   5.579   8.482  0.4863 -0.5954  0.8378
  111OSM   H14S11483   7.752   5.529   8.401  0.0436 -0.4122  1.0325
  111OSM   H14T11484   7.914   5.546   8.471  0.8838  0.2582  1.9660
  111OSM   C15S11485   7.802   5.729   8.472 -0.4115 -0.1092  0.4412
  111OSM   H15S11486   7.878   5.766   8.399  0.8241  0.3912  1.9448
  111OSM   H15T11487   7.832   5.780   8.566  0.5276 -0.2068  0.2053
  111OSM   C16S11488   7.664   5.785   8.421 -0.4292 -0.1288  0.4337
  111OSM   H16S11489   7.659   5.893   8.446  0.9426 -0.2673  1.3459
  111OSM   H16T11490   7.584   5.737   8.482  2.6954 -1.1972  3.9216
  111OSM   C17S11491   7.643   5.771   8.268  0.5510  0.1063  0.3647
  111OSM   H17S11492   7.655   5.663   8.244  1.6174  0.5082 -0.9382
  111OSM   H17T11493   7.731   5.812   8.215 -1.1435  2.8151 -0.4090
  111OSM   C18S11494   7.511   5.815   8.204  0.1751 -0.3124  0.0436
  111OSM   H18S11495   7.434   5.753   8.255  0.2801  2.2848  3.5133
  111OSM   H18T11496   7.518   5.781   8.098  0.6928  0.1316 -0.0650
  111OSM   H18U11497   7.482   5.922   8.212 -1.0460 -0.7611  1.9996
  111OSM    C1F11498   7.228   4.770   9.697  0.0889 -0.2699 -0.0194
  111OSM     OF11499   7.135   4.846   9.733  0.1929 -0.3010 -0.1444
  111OSM    C2F11500   7.224   4.623   9.716  0.0414  0.0992  0.2543
  111OSM    H2F11501   7.201   4.593   9.820 -2.8183 -0.4067 -0.4582
  111OSM    H2G11502   7.315   4.573   9.679 -0.5860 -1.7277  1.1588
  111OSM    C3F11503   7.112   4.561   9.628 -0.0065  0.2785 -0.2687
  111OSM    H3F11504   7.020   4.576   9.688 -0.1562 -0.2339 -0.3652
  111OSM    H3G11505   7.135   4.454   9.646 -0.0519  0.3431  0.1843
  111OSM    C4F11506   7.109   4.598   9.475  0.3722  0.0526 -0.5871
  111OSM    H4F11507   7.066   4.700   9.482  0.0959 -0.0655 -0.5815
  111OSM    H4G11508   7.033   4.545   9.415 -0.3453  1.7283 -1.1966
  111OSM    C5F11509   7.241   4.599   9.402 -0.5856  0.1600  0.0044
  111OSM    H5F11510   7.320   4.660   9.451 -1.8240  2.5435 -0.8830
  111OSM    H5G11511   7.218   4.658   9.310 -0.7862  1.0003  0.5890
  111OSM    C6F11512   7.292   4.458   9.356 -0.8830 -0.5168 -0.3908
  111OSM    H6F11513   7.236   4.416   9.269 -0.6896  0.2361 -0.8869
  111OSM    H6G11514   7.270   4.391   9.442 -0.5893 -0.6930 -0.4513
  111OSM    C7F11515   7.438   4.466   9.308 -0.8709  0.0542 -0.2985
  111OSM    H7F11516   7.485   4.367   9.292 -1.8885 -0.6527  1.0251
  111OSM    H7G11517   7.502   4.507   9.389  0.4319 -0.3398 -1.1176
  111OSM    C8F11518   7.465   4.558   9.186 -0.7617 -0.0099  0.6797
  111OSM    H8F11519   7.428   4.658   9.218 -0.3837  0.7376 -1.1445
  111OSM    H8G11520   7.402   4.520   9.103 -0.3136 -0.1570  0.4062
  111OSM    C9F11521   7.616   4.566   9.157 -0.6021  0.4698 -0.2645
  111OSM    H9F11522   7.670   4.539   9.249  0.2160  1.4375 -0.4537
  111OSM   C10F11523   7.682   4.589   9.042  0.8723 -0.0039 -0.2088
  111OSM   H10F11524   7.788   4.559   9.042  0.2726 -2.1904  1.1069
  111OSM   C11F11525   7.623   4.608   8.904 -0.3871  0.1358 -0.2403
  111OSM   H11F11526   7.518   4.640   8.920 -0.4438 -0.3267  0.3214
  111OSM   H11G11527   7.625   4.517   8.840  1.3637  0.5605 -0.8357
  111OSM   C12F11528   7.697   4.723   8.838 -0.2764  0.4873  1.0528
  111OSM   H12F11529   7.808   4.723   8.832 -0.3172  1.4962  0.2157
  111OSM   H12G11530   7.672   4.812   8.899 -1.8188  0.9642 -0.2493
  111OSM   C13F11531   7.647   4.772   8.703  0.2146  0.4391  1.0874
  111OSM   H13F11532   7.538   4.789   8.711  0.0326  1.4185 -2.4895
  111OSM   H13G11533   7.655   4.698   8.620 -0.7588 -0.0945  1.4650
  111OSM   C14F11534   7.713   4.904   8.659 -0.0382  0.0335  0.0500
  111OSM   H14F11535   7.823   4.889   8.655  0.0747  0.9613 -0.4759
  111OSM   H14G11536   7.673   4.988   8.720  1.5505 -1.0911  2.7110
  111OSM   C15F11537   7.682   4.935   8.510 -0.4601 -0.5255  0.0197
  111OSM   H15F11538   7.576   4.965   8.499 -1.0192 -1.7353  1.8780
  111OSM   H15G11539   7.682   4.842   8.448 -0.3346 -0.4702 -0.0625
  111OSM   C16F11540   7.775   5.037   8.445 -0.2012 -1.0496 -0.0581
  111OSM   H16F11541   7.875   4.994   8.423  1.1062  1.9695 -0.3570
  111OSM   H16G11542   7.809   5.110   8.521  0.2385 -1.4339  0.1155
  111OSM   C17F11543   7.731   5.090   8.309  0.0188  0.8567 -0.0684
  111OSM   H17F11544   7.806   5.164   8.273 -0.8930  2.0754  0.4637
  111OSM   H17G11545   7.637   5.148   8.321 -0.3198  0.1842  0.5198
  111OSM   C18F11546   7.740   4.982   8.196 -0.5042  0.4585  0.2355
  111OSM   H18F11547   7.713   5.032   8.101  3.6995  1.6727 -0.4500
  111OSM   H18G11548   7.672   4.897   8.219 -0.5676  0.3733 -0.2653
  111OSM   H18H11549   7.847   4.953   8.183 -0.4260  0.4991  0.7870
  112OSM      N11550   0.511   2.398  10.225 -0.0502 -0.4681  0.0862
  112OSM    C1511551   0.618   2.323  10.163 -0.0221 -0.7124 -0.3742
  112OSM   H15A11552   0.628   2.359  10.062  0.2386  0.4068  0.0440
  112OSM   H15B11553   0.594   2.218  10.149  2.3085 -1.0431 -2.4115
  112OSM   H15C11554   0.714   2.340  10.210 -0.5529 -1.9355  1.2184
  112OSM    C1411555   0.476   2.324  10.358 -0.1554  0.0490  0.7095
  112OSM   H14A11556   0.431   2.230  10.332 -1.0495  0.9611 -1.1835
  112OSM   H14B11557   0.410   2.381  10.421  0.6206 -0.0259  1.6016
  112OSM   H14C11558   0.565   2.313  10.419  0.2113  2.4783  0.6748
  112OSM    C1311559   0.556   2.537  10.262 -0.3341  0.1073 -0.4443
  112OSM   H13A11560   0.574   2.592  10.170 -2.2603 -0.2258 -1.0446
  112OSM   H13B11561   0.637   2.551  10.333 -1.0667 -0.0192  0.4235
  112OSM   H13C11562   0.477   2.593  10.309 -0.4047  0.1111 -0.5695
  112OSM    C1211563   0.394   2.399  10.134 -0.5133  0.2256  0.2879
  112OSM   H12A11564   0.309   2.447  10.181 -0.5672 -1.4179  1.9274
  112OSM   H12B11565   0.374   2.296  10.109  0.3846  0.0149  0.4125
  112OSM    C1111566   0.410   2.465   9.994 -0.4091 -0.1113 -0.1902
  112OSM   H11A11567   0.440   2.572  10.006 -3.3175  0.8754 -1.2852
  112OSM   H11B11568   0.310   2.466   9.945 -0.6343  1.2435  0.2770
  112OSM      P11569   0.472   2.277   9.832  0.4869  0.0928 -0.2250
  112OSM    O1311570   0.588   2.223   9.753 -0.2190  0.3136 -0.1431
  112OSM    O1411571   0.408   2.176   9.919 -0.0214 -0.0552  0.4149
  112OSM    O1111572   0.352   2.329   9.742 -0.4876 -0.3170  0.2053
  112OSM    O1211573   0.514   2.408   9.917  0.8872  0.3591 -0.2148
  112OSM    C1S11574   0.344   2.428   9.639 -0.1900 -0.0224 -0.3436
  112OSM    H1S11575   0.436   2.436   9.577 -0.0848  0.9580 -0.0694
  112OSM    H1T11576   0.345   2.520   9.701 -3.5218  0.2264 -0.6073
  112OSM     NF11577   0.195   2.518   9.465  1.6012 -0.3227  0.1440
  112OSM    HNF11578   0.140   2.599   9.486  1.9405 -0.3695  1.2284
  112OSM    C2S11579   0.212   2.405   9.555  0.4664  0.3620 -0.0778
  112OSM    H2S11580   0.230   2.308   9.502  0.7372 -0.4166  1.4226
  112OSM    C3S11581   0.087   2.375   9.649  0.3407 -0.3072 -0.1278
  112OSM    H3S11582   0.080   2.462   9.718 -0.6783 -1.0760  0.7484
  112OSM     O311583   0.097   2.265   9.727 -0.8439  0.4175 -0.1558
  112OSM    HO311584   0.189   2.279   9.749 -1.4276  0.9166  2.1219
  112OSM    C4S11585  -0.042   2.367   9.564  0.1874  0.1996 -0.9720
  112OSM    H4S11586  -0.077   2.469   9.540 -1.2998  0.1757  0.9678
  112OSM    C5S11587  -0.111   2.254   9.534  0.1802 -0.3990  0.1623
  112OSM    H5S11588  -0.064   2.162   9.572  3.1459  1.3166  0.7930
  112OSM    C6S11589  -0.238   2.258   9.465  0.1139 -0.0940 -0.2558
  112OSM    H6S11590  -0.296   2.352   9.479  2.0572  1.3195 -1.4584
  112OSM    H6T11591  -0.295   2.175   9.512 -1.6293  0.0448 -2.0376
  112OSM    C7S11592  -0.227   2.230   9.316 -0.7847 -0.2759 -0.1180
  112OSM    H7S11593  -0.163   2.140   9.303  0.0419  0.2481  0.2647
  112OSM    H7T11594  -0.174   2.315   9.268  1.7090 -1.7086 -0.0173
  112OSM    C8S11595  -0.365   2.216   9.251 -0.4326  0.3301 -0.1206
  112OSM    H8S11596  -0.419   2.313   9.260  2.4506  2.1076 -1.4004
  112OSM    H8T11597  -0.419   2.137   9.308  1.2578 -0.6377  0.1887
  112OSM    C9S11598  -0.355   2.181   9.101 -0.0848 -0.3730 -0.1961
  112OSM    H9S11599  -0.448   2.129   9.068  0.4926 -2.0015  0.6619
  112OSM    H9T11600  -0.272   2.108   9.093  0.1604  0.1116 -2.3218
  112OSM   C10S11601  -0.331   2.305   9.017  0.1712  0.3698  0.1239
  112OSM   H10S11602  -0.247   2.365   9.059  0.5377 -0.2676  0.2976
  112OSM   H10T11603  -0.422   2.368   9.006 -0.1521 -0.6760 -4.1020
  112OSM   C11S11604  -0.293   2.269   8.872 -0.1918 -0.7390 -0.2166
  112OSM   H11S11605  -0.295   2.366   8.818  1.0972 -0.1097  0.8385
  112OSM   H11T11606  -0.373   2.209   8.822 -1.5444 -1.3769  2.5940
  112OSM   C12S11607  -0.165   2.201   8.846  0.6844  0.7221 -0.0996
  112OSM   H12S11608  -0.155   2.100   8.891  3.6808 -0.2801 -2.9277
  112OSM   H12T11609  -0.086   2.262   8.894  2.6463 -2.0546  0.3241
  112OSM   C13S11610  -0.127   2.201   8.699  0.2479 -0.7186  0.8618
  112OSM   H13S11611  -0.129   2.302   8.653  1.9986 -0.4597  1.3030
  112OSM   H13T11612  -0.198   2.135   8.644 -1.6878 -0.2035  2.6866
  112OSM   C14S11613   0.019   2.147   8.672 -0.9398  0.2209 -0.6918
  112OSM   H14S11614   0.083   2.208   8.739 -2.3736 -0.9966  1.8480
  112OSM   H14T11615   0.046   2.171   8.567 -0.0807 -2.2164 -1.0409
  112OSM   C15S11616   0.038   2.000   8.699  0.4768 -0.0977  0.3844
  112OSM   H15S11617  -0.037   1.949   8.635  1.7263 -0.5265 -0.7825
  112OSM   H15T11618   0.025   1.967   8.804 -0.4267 -0.9353  0.0173
  112OSM   C16S11619   0.173   1.951   8.650 -0.2492  0.2535  0.3566
  112OSM   H16S11620   0.257   2.005   8.700 -0.1794 -0.6315  1.1992
  112OSM   H16T11621   0.184   1.976   8.542  2.6850 -2.6407 -0.1160
  112OSM   C17S11622   0.201   1.809   8.674  0.1328 -0.9016  0.4281
  112OSM   H17S11623   0.202   1.794   8.784  0.1085  0.2591  0.5987
  112OSM   H17T11624   0.304   1.789   8.639 -0.1626  0.9787 -1.6166
  112OSM   C18S11625   0.102   1.700   8.606 -0.0758  0.2684 -0.6193
  112OSM   H18S11626   0.163   1.608   8.594  1.4837  1.1495  0.3097
  112OSM   H18T11627   0.074   1.730   8.503 -0.6582 -1.1497 -0.8829
  112OSM   H18U11628   0.019   1.660   8.669 -0.1405  0.8427 -0.3381
  112OSM    C1F11629   0.271   2.526   9.357  0.0495 -0.0751 -0.5541
  112OSM     OF11630   0.346   2.434   9.341  0.2801  0.3082 -0.4243
  112OSM    C2F11631   0.266   2.645   9.271 -0.4377  0.1551  0.5092
  112OSM    H2F11632   0.368   2.684   9.253  0.1992 -1.1579  1.1735
  112OSM    H2G11633   0.218   2.733   9.318  0.0944 -0.3213  1.9947
  112OSM    C3F11634   0.215   2.616   9.128 -0.1090  1.5209 -0.7075
  112OSM    H3F11635   0.261   2.526   9.080 -1.9598  0.6124 -0.8405
  112OSM    H3G11636   0.224   2.708   9.067 -2.1480  1.1310 -1.6390
  112OSM    C4F11637   0.070   2.571   9.129  0.2232 -0.3917  0.0629
  112OSM    H4F11638  -0.004   2.647   9.163 -0.6820 -1.5836  0.8092
  112OSM    H4G11639   0.045   2.485   9.194  1.8893  0.3161  1.6824
  112OSM    C5F11640   0.018   2.536   8.988  0.0921  0.8809 -0.7627
  112OSM    H5F11641  -0.084   2.497   9.008  0.5372  0.2293  0.2926
  112OSM    H5G11642   0.076   2.447   8.954  0.3497 -0.4725  2.9456
  112OSM    C6F11643   0.013   2.649   8.884 -0.3443  1.0259 -0.3013
  112OSM    H6F11644   0.112   2.699   8.894 -0.0961  0.3428  0.6828
  112OSM    H6G11645  -0.061   2.724   8.919  0.5669  2.0732 -0.5883
  112OSM    C7F11646  -0.020   2.611   8.743  0.4383  0.7655  0.2129
  112OSM    H7F11647  -0.033   2.702   8.680 -1.2337 -0.0873 -0.7117
  112OSM    H7G11648  -0.121   2.565   8.745  0.3627  0.9532  3.8084
  112OSM    C8F11649   0.073   2.509   8.664  0.5017  0.4876 -0.2004
  112OSM    H8F11650   0.018   2.468   8.576  1.1338  0.5858 -0.6501
  112OSM    H8G11651   0.072   2.422   8.733 -1.7954  0.2765 -0.4612
  112OSM    C9F11652   0.218   2.546   8.640 -0.0099  0.5141  0.2870
  112OSM    H9F11653   0.279   2.531   8.730  0.5892 -3.3931 -0.6438
  112OSM   C10F11654   0.266   2.590   8.521 -0.1193 -0.0930 -0.0721
  112OSM   H10F11655   0.374   2.610   8.519  0.4734 -2.9468  0.6592
  112OSM   C11F11656   0.195   2.605   8.392  0.0898 -0.2433  0.0887
  112OSM   H11F11657   0.227   2.706   8.358 -0.1710  0.0884  0.8146
  112OSM   H11G11658   0.084   2.596   8.394  0.1069 -0.2643  1.1379
  112OSM   C12F11659   0.234   2.494   8.299  0.0019 -0.0136 -0.8037
  112OSM   H12F11660   0.216   2.389   8.330 -1.5069  0.9086  1.6391
  112OSM   H12G11661   0.342   2.496   8.276 -0.0112 -1.5755 -1.0669
  112OSM   C13F11662   0.178   2.515   8.149 -0.1932 -0.0109 -0.6779
  112OSM   H13F11663   0.206   2.616   8.112  0.7648 -0.6810 -1.8039
  112OSM   H13G11664   0.067   2.511   8.150 -0.1715 -0.5412 -0.2353
  112OSM   C14F11665   0.215   2.409   8.051 -0.2204 -0.7444 -0.1490
  112OSM   H14F11666   0.193   2.313   8.102 -0.5833  0.5681  2.2061
  112OSM   H14G11667   0.326   2.413   8.046 -0.2606 -0.7590 -1.1185
  112OSM   C15F11668   0.135   2.419   7.914 -0.5635 -0.0260 -0.3990
  112OSM   H15F11669   0.137   2.523   7.875 -0.3924  0.0757 -0.1210
  112OSM   H15G11670   0.027   2.398   7.930 -0.0776 -2.3286 -0.0000
  112OSM   C16F11671   0.192   2.319   7.814 -0.0443  0.0768  0.1229
  112OSM   H16F11672   0.180   2.217   7.856 -2.0947 -0.1277 -0.9579
  112OSM   H16G11673   0.297   2.352   7.796 -0.1361 -0.0944 -0.7536
  112OSM   C17F11674   0.136   2.319   7.672 -0.0415 -0.3155 -0.8381
  112OSM   H17F11675   0.027   2.295   7.667  0.4227 -2.2224 -2.2908
  112OSM   H17G11676   0.190   2.234   7.626  2.4108  1.0545 -0.5604
  112OSM   C18F11677   0.157   2.450   7.588 -0.1358 -0.2510  0.3868
  112OSM   H18F11678   0.086   2.451   7.502  1.4134 -1.0719 -0.9099
  112OSM   H18G11679   0.259   2.476   7.553  0.8539 -1.6591  2.1337
  112OSM   H18H11680   0.136   2.534   7.659  1.0049  1.5334 -1.3498
  113OSM      N11681   7.165   1.602  10.005 -0.3583 -0.4351  0.4226
  113OSM    C1511682   7.158   1.635   9.861  0.6877 -1.2211 -0.3682
  113OSM   H15A11683   7.082   1.710   9.845  1.8825 -0.2034 -1.3629
  113OSM   H15B11684   7.126   1.554   9.797  0.4002 -0.6320 -0.9848
  113OSM   H15C11685   7.251   1.673   9.822  1.0349 -0.6844  0.9559
  113OSM    C1411686   7.270   1.503  10.026  0.2830  0.8960  0.9225
  113OSM   H14A11687   7.298   1.479  10.127  0.5547  1.2430  0.9307
  113OSM   H14B11688   7.363   1.541   9.986 -0.7027  0.8159 -1.5754
  113OSM   H14C11689   7.241   1.410   9.979  0.6583  0.5555  1.3580
  113OSM    C1311690   7.206   1.722  10.087 -0.0024  0.4614  0.1117
  113OSM   H13A11691   7.134   1.802  10.080 -2.1483 -1.3561  0.7770
  113OSM   H13B11692   7.294   1.765  10.042  2.0096 -3.3022  0.2504
  113OSM   H13C11693   7.226   1.684  10.186 -0.6735 -0.4195 -0.0856
  113OSM    C1211694   7.040   1.550  10.062 -0.3683 -0.5674 -0.0623
  113OSM   H12A11695   6.965   1.623  10.039 -0.4855 -0.5709  0.3015
  113OSM   H12B11696   7.033   1.543  10.170  2.3492 -3.3505  0.0185
  113OSM    C1111697   6.982   1.410  10.020 -0.1014 -0.8081 -0.6352
  113OSM   H11A11698   6.894   1.385  10.084 -0.7227  0.6881 -0.8777
  113OSM   H11B11699   7.059   1.334  10.044  1.0198 -0.1850 -2.2008
  113OSM      P11700   6.817   1.449   9.832  0.5703 -0.0709  0.0448
  113OSM    O1311701   6.725   1.329   9.825 -0.0693  0.2983  0.3112
  113OSM    O1411702   6.774   1.568   9.907 -0.1872  0.9856  0.0215
  113OSM    O1111703   6.849   1.487   9.683 -0.2005 -0.2783 -0.0832
  113OSM    O1211704   6.958   1.399   9.882  0.2999 -0.1470 -0.0867
  113OSM    C1S11705   6.952   1.427   9.617 -0.5439  0.9244  0.5096
  113OSM    H1S11706   6.932   1.319   9.602  1.5149  0.4198  1.1410
  113OSM    H1T11707   7.044   1.440   9.678 -0.2321  0.6741  0.0898
  113OSM     NF11708   7.065   1.395   9.399  0.1177  0.2460 -0.1416
  113OSM    HNF11709   7.158   1.431   9.397  0.7676 -1.4400 -1.1900
  113OSM    C2S11710   6.962   1.474   9.469  0.1117 -0.3916 -0.8510
  113OSM    H2S11711   6.865   1.461   9.417 -0.2242  0.8357 -0.5288
  113OSM    C3S11712   6.987   1.632   9.459  0.6980 -0.7411 -0.5213
  113OSM    H3S11713   7.079   1.646   9.521  1.1532  0.2605 -1.3973
  113OSM     O311714   6.879   1.707   9.521  0.0875  0.2182  0.2694
  113OSM    HO311715   6.827   1.644   9.570  1.3148  1.7407  3.7192
  113OSM    C4S11716   6.999   1.671   9.320 -0.4464  0.1725 -0.0395
  113OSM    H4S11717   6.932   1.614   9.254  0.0133 -1.0902  0.5640
  113OSM    C5S11718   7.090   1.751   9.263  0.2488  0.0195  0.0774
  113OSM    H5S11719   7.166   1.787   9.333  0.6174 -0.0283 -0.2969
  113OSM    C6S11720   7.097   1.781   9.112  0.2547 -0.0529 -0.5122
  113OSM    H6S11721   7.201   1.752   9.090  0.8058  0.5521  1.2098
  113OSM    H6T11722   7.076   1.890   9.101  0.4428 -0.0802 -1.1308
  113OSM    C7S11723   6.992   1.712   9.024  0.0532  0.0270 -0.2905
  113OSM    H7S11724   6.893   1.723   9.073  0.5662 -1.5213  1.1320
  113OSM    H7T11725   7.019   1.605   9.036  0.3559 -0.0042 -1.2027
  113OSM    C8S11726   6.977   1.765   8.877 -0.3538  0.6595 -0.4880
  113OSM    H8S11727   7.069   1.730   8.825 -0.2853 -0.2238  0.1987
  113OSM    H8T11728   6.977   1.875   8.886  2.0209  0.6493  0.0803
  113OSM    C9S11729   6.849   1.705   8.809  0.1038  0.1186 -0.2594
  113OSM    H9S11730   6.761   1.707   8.876  0.1583 -0.4504 -0.1698
  113OSM    H9T11731   6.888   1.603   8.788 -0.1423 -0.0358  0.0387
  113OSM   C10S11732   6.812   1.774   8.676 -0.7873  0.3496  0.2829
  113OSM   H10S11733   6.816   1.885   8.684 -1.2994  0.2602  1.9532
  113OSM   H10T11734   6.705   1.748   8.663 -0.7847  0.3253  0.3071
  113OSM   C11S11735   6.915   1.720   8.565  0.5680  1.0756 -0.2401
  113OSM   H11S11736   6.893   1.612   8.578 -0.3268  1.4500  1.3291
  113OSM   H11T11737   7.021   1.744   8.589  0.6894 -0.1485  0.4359
  113OSM   C12S11738   6.902   1.775   8.432 -0.0942 -0.1315  0.5201
  113OSM   H12S11739   6.985   1.738   8.367  1.4163  2.9302  0.6411
  113OSM   H12T11740   6.910   1.884   8.448 -1.5099  0.1975 -0.8921
  113OSM   C13S11741   6.768   1.737   8.362  0.8950 -0.1518  0.8143
  113OSM   H13S11742   6.695   1.737   8.446  0.3317  0.3314  0.3254
  113OSM   H13T11743   6.773   1.636   8.316  0.6936 -0.0387  0.5409
  113OSM   C14S11744   6.712   1.841   8.264  0.0553 -0.1276  0.5703
  113OSM   H14S11745   6.718   1.946   8.302 -3.6863 -0.5484  2.4957
  113OSM   H14T11746   6.602   1.830   8.251  0.1611 -3.6846  2.3047
  113OSM   C15S11747   6.774   1.812   8.130 -0.4336 -0.4217  0.6482
  113OSM   H15S11748   6.795   1.705   8.110  2.1930  0.1973  0.0249
  113OSM   H15T11749   6.875   1.857   8.123 -0.5671 -0.1697  0.3408
  113OSM   C16S11750   6.694   1.863   8.010 -0.1224  0.2010  0.1951
  113OSM   H16S11751   6.693   1.974   8.014  0.9778  0.1532  3.2510
  113OSM   H16T11752   6.585   1.842   8.019  0.0601 -0.8725 -0.0325
  113OSM   C17S11753   6.754   1.822   7.877 -0.0259  0.4023 -0.8709
  113OSM   H17S11754   6.720   1.719   7.855 -0.9145  0.6218 -0.5347
  113OSM   H17T11755   6.865   1.827   7.885 -0.1120 -1.1745  2.1486
  113OSM   C18S11756   6.712   1.906   7.756 -0.5590  0.0192  0.3493
  113OSM   H18S11757   6.601   1.908   7.762 -0.6112 -0.1244 -0.4667
  113OSM   H18T11758   6.733   1.863   7.655  0.5629 -1.5364  1.2236
  113OSM   H18U11759   6.744   2.011   7.768  0.6139  0.2772 -3.9963
  113OSM    C1F11760   7.041   1.277   9.342  0.6683 -0.1114  0.0584
  113OSM     OF11761   6.925   1.237   9.323 -0.9973 -0.8845 -0.4079
  113OSM    C2F11762   7.163   1.204   9.282  0.1771 -0.1344 -0.3703
  113OSM    H2F11763   7.174   1.105   9.331  1.6903 -0.9142 -2.2306
  113OSM    H2G11764   7.257   1.257   9.309 -0.1332  1.3808 -2.1303
  113OSM    C3F11765   7.148   1.193   9.136 -0.0902  0.3624 -0.7275
  113OSM    H3F11766   7.053   1.140   9.113 -0.2821 -0.5206  1.9120
  113OSM    H3G11767   7.227   1.131   9.090  1.0213  1.1260  0.1381
  113OSM    C4F11768   7.139   1.316   9.053  0.0037 -0.7089  0.1035
  113OSM    H4F11769   7.215   1.388   9.090 -0.2048  0.2297 -1.2409
  113OSM    H4G11770   7.045   1.375   9.063  0.6215  0.7227 -2.1183
  113OSM    C5F11771   7.168   1.297   8.905 -0.4420  0.3594  0.1460
  113OSM    H5F11772   7.169   1.394   8.850  2.8986  0.3248  0.0617
  113OSM    H5G11773   7.089   1.238   8.852  1.4475 -0.9098 -1.3246
  113OSM    C6F11774   7.305   1.243   8.881 -0.1270  0.3807  0.7399
  113OSM    H6F11775   7.308   1.132   8.886  1.4219  0.3547 -0.3467
  113OSM    H6G11776   7.366   1.285   8.964 -1.1259 -0.0081  1.6927
  113OSM    C7F11777   7.363   1.282   8.742 -0.0914 -0.1340  0.8752
  113OSM    H7F11778   7.448   1.217   8.713 -0.9137 -1.2566  0.9165
  113OSM    H7G11779   7.385   1.390   8.755 -0.8466  0.0259  0.8854
  113OSM    C8F11780   7.263   1.267   8.624  0.5012  0.1823  0.3642
  113OSM    H8F11781   7.169   1.321   8.648  1.7113  2.7449 -0.5045
  113OSM    H8G11782   7.239   1.161   8.602  0.5234  0.4086 -0.7510
  113OSM    C9F11783   7.319   1.322   8.504 -0.8139  0.0258 -0.2548
  113OSM    H9F11784   7.322   1.431   8.494  2.0174  0.0653  0.5736
  113OSM   C10F11785   7.357   1.254   8.397  0.1960 -0.3834  0.6434
  113OSM   H10F11786   7.382   1.312   8.306 -2.8161 -1.3274 -0.8694
  113OSM   C11F11787   7.353   1.105   8.386 -0.3304  0.1219 -0.0029
  113OSM   H11F11788   7.256   1.063   8.419 -0.4819  0.7998  0.4259
  113OSM   H11G11789   7.431   1.059   8.451 -1.7288  0.9004  2.2958
  113OSM   C12F11790   7.385   1.067   8.241 -0.1882  0.5690  0.3779
  113OSM   H12F11791   7.488   1.098   8.213 -1.0925  3.2439 -0.1621
  113OSM   H12G11792   7.320   1.123   8.169 -1.2229 -2.0482 -0.7707
  113OSM   C13F11793   7.370   0.916   8.207  0.0764  0.6768 -0.2783
  113OSM   H13F11794   7.265   0.883   8.220  0.4843  0.1591  1.7846
  113OSM   H13G11795   7.445   0.859   8.266 -0.1791  1.3480  0.6967
  113OSM   C14F11796   7.406   0.869   8.064 -0.1402  0.7556 -0.2571
  113OSM   H14F11797   7.428   0.760   8.069  1.1865  0.9504 -1.4619
  113OSM   H14G11798   7.496   0.930   8.040 -0.9081  1.8522 -0.3720
  113OSM   C15F11799   7.304   0.906   7.958  0.0890  0.5293  0.2228
  113OSM   H15F11800   7.295   1.015   7.939  1.7489  0.4563 -1.1500
  113OSM   H15G11801   7.204   0.868   7.986 -0.1614  0.8355 -0.2470
  113OSM   C16F11802   7.328   0.822   7.831 -0.1460 -0.2585  0.4321
  113OSM   H16F11803   7.262   0.854   7.747  1.6206 -2.0135 -1.7019
  113OSM   H16G11804   7.306   0.715   7.854  1.2085 -0.6021  0.2147
  113OSM   C17F11805   7.471   0.812   7.777  0.5722 -0.1785 -0.1075
  113OSM   H17F11806   7.538   0.790   7.863  1.8079  0.9780 -0.7520
  113OSM   H17G11807   7.501   0.912   7.738  0.5702 -0.6274 -1.2711
  113OSM   C18F11808   7.500   0.710   7.671  0.0289  0.5691  0.6249
  113OSM   H18F11809   7.456   0.615   7.709 -2.2346  2.0595  1.8806
  113OSM   H18G11810   7.608   0.703   7.647 -0.6343 -1.8345 -1.9300
  113OSM   H18H11811   7.444   0.728   7.577 -1.8835 -1.5807  1.2983
  114OSM      N11812   6.877   0.532  10.135 -0.1399  0.4425  0.0615
  114OSM    C1511813   6.862   0.674  10.159  0.2990  0.7059 -0.2478
  114OSM   H15A11814   6.827   0.702  10.257  1.2747  0.0258  0.3035
  114OSM   H15B11815   6.802   0.725  10.085  2.5725  3.3866 -0.3500
  114OSM   H15C11816   6.959   0.717  10.136  0.1920  2.1585  1.8373
  114OSM    C1411817   6.978   0.477  10.230  0.6900 -0.2493 -0.3124
  114OSM   H14A11818   7.076   0.492  10.189  0.3450  0.7949 -0.7633
  114OSM   H14B11819   6.963   0.372  10.251  0.3711 -0.1504 -0.0347
  114OSM   H14C11820   6.974   0.527  10.326  1.5903  0.7201 -0.7734
  114OSM    C1311821   6.748   0.475  10.175 -0.3304  0.1858 -0.1357
  114OSM   H13A11822   6.724   0.483  10.280 -0.4397 -3.3601  0.1900
  114OSM   H13B11823   6.737   0.370  10.150  0.1571  0.0399  0.2446
  114OSM   H13C11824   6.676   0.529  10.115 -0.4281  0.0710 -0.1240
  114OSM    C1211825   6.915   0.503   9.987 -0.2281  0.4527  0.8372
  114OSM   H12A11826   6.829   0.544   9.935 -0.4025  0.2920  0.9973
  114OSM   H12B11827   6.931   0.397   9.983  1.7798  0.7358  1.0482
  114OSM    C1111828   7.048   0.548   9.937 -0.7012  0.0178  0.6321
  114OSM   H11A11829   7.060   0.658   9.952  1.0080 -0.0098 -0.3595
  114OSM   H11B11830   7.043   0.536   9.827 -1.5564  4.5429  0.0569
  114OSM      P11831   7.302   0.496   9.972 -0.4399  0.1850 -0.1284
  114OSM    O1311832   7.342   0.638   9.981 -0.0622  0.2450 -0.4753
  114OSM    O1411833   7.374   0.400  10.065 -0.2608 -0.8195  0.0698
  114OSM    O1111834   7.337   0.452   9.819  0.1312 -0.4117  0.2515
  114OSM    O1211835   7.149   0.469   9.995 -0.0087 -0.3616 -0.1915
  114OSM    C1S11836   7.291   0.321   9.772 -0.5641  0.6616 -0.2283
  114OSM    H1S11837   7.186   0.300   9.799 -0.3050 -1.7129 -0.8593
  114OSM    H1T11838   7.358   0.241   9.811 -1.6079 -0.2442 -0.2509
  114OSM     NF11839   7.237   0.203   9.564 -0.5937  0.1402 -0.6054
  114OSM    HNF11840   7.296   0.141   9.513  1.1057  1.1316  0.1186
  114OSM    C2S11841   7.285   0.328   9.615 -0.3533  0.3908  0.4123
  114OSM    H2S11842   7.209   0.404   9.591  0.1096  0.8157  0.2971
  114OSM    C3S11843   7.422   0.370   9.542  0.4764  0.2149  0.2996
  114OSM    H3S11844   7.492   0.284   9.551 -2.9142 -3.1124 -3.1702
  114OSM     O311845   7.490   0.481   9.599 -0.6815 -0.5501 -0.0899
  114OSM    HO311846   7.463   0.490   9.691 -2.3338 -2.7313 -0.3242
  114OSM    C4S11847   7.394   0.403   9.398 -0.6302  0.7873  0.1139
  114OSM    H4S11848   7.448   0.339   9.326 -2.4077 -1.1580  0.4717
  114OSM    C5S11849   7.327   0.508   9.351 -0.3428 -0.0374 -0.5968
  114OSM    H5S11850   7.280   0.579   9.421  2.2979 -0.0074  1.1858
  114OSM    C6S11851   7.316   0.529   9.197 -0.2816 -0.2972 -0.1443
  114OSM    H6S11852   7.219   0.576   9.171 -0.4394  0.0241  1.0293
  114OSM    H6T11853   7.328   0.444   9.126 -0.6460  0.4486 -1.1018
  114OSM    C7S11854   7.419   0.637   9.160  0.1353 -0.3539  0.3449
  114OSM    H7S11855   7.522   0.598   9.148 -0.1720 -1.6635  1.8039
  114OSM    H7T11856   7.427   0.719   9.234  1.2265 -0.7062  0.6283
  114OSM    C8S11857   7.388   0.726   9.036 -0.5203  0.7274 -0.2529
  114OSM    H8S11858   7.463   0.806   9.019 -0.8739  1.0618 -0.2487
  114OSM    H8T11859   7.298   0.784   9.065 -1.1272  1.4133 -3.3013
  114OSM    C9S11860   7.361   0.648   8.909  0.2692 -0.1295  0.3019
  114OSM    H9S11861   7.307   0.553   8.931  2.3554 -1.0954  1.3809
  114OSM    H9T11862   7.458   0.612   8.869 -0.1016  0.2560 -0.9516
  114OSM   C10S11863   7.295   0.733   8.805  0.2666 -0.1684  0.2847
  114OSM   H10S11864   7.356   0.813   8.758 -0.9014 -0.7304 -2.2489
  114OSM   H10T11865   7.207   0.781   8.852 -0.1196 -1.8249  1.2946
  114OSM   C11S11866   7.268   0.639   8.684  0.0165 -0.0748 -0.1851
  114OSM   H11S11867   7.174   0.675   8.640 -0.3333  0.3411  0.8795
  114OSM   H11T11868   7.259   0.532   8.712 -1.4015  0.1486  0.2342
  114OSM   C12S11869   7.383   0.640   8.586 -0.7824  0.1540  0.6831
  114OSM   H12S11870   7.479   0.658   8.639  0.5606 -0.1244 -1.6010
  114OSM   H12T11871   7.375   0.725   8.515 -0.6871 -0.8597 -0.5662
  114OSM   C13S11872   7.390   0.514   8.511 -0.0877  0.1352  0.6375
  114OSM   H13S11873   7.287   0.492   8.476  0.5597 -2.4557  0.2822
  114OSM   H13T11874   7.421   0.429   8.575  0.1868  0.1892  0.5757
  114OSM   C14S11875   7.492   0.545   8.394  0.1407  0.2854 -0.4805
  114OSM   H14S11876   7.589   0.579   8.436  0.2053 -0.6099  0.0949
  114OSM   H14T11877   7.447   0.623   8.329  2.3666  1.2822 -0.8711
  114OSM   C15S11878   7.506   0.421   8.308 -0.2190 -0.0984 -0.2311
  114OSM   H15S11879   7.409   0.395   8.259 -0.6239  0.9127  0.0270
  114OSM   H15T11880   7.541   0.335   8.369  1.5576 -0.2816 -1.4701
  114OSM   C16S11881   7.594   0.453   8.191 -0.5604 -0.5675 -0.6562
  114OSM   H16S11882   7.697   0.428   8.225 -1.3368 -0.1393  2.1777
  114OSM   H16T11883   7.583   0.561   8.167 -0.1238 -0.9694 -2.7522
  114OSM   C17S11884   7.560   0.368   8.068  0.1748  0.4342  0.2672
  114OSM   H17S11885   7.626   0.391   7.981  0.2597 -0.4620  0.0933
  114OSM   H17T11886   7.455   0.381   8.035 -0.4052  1.3073  2.3893
  114OSM   C18S11887   7.571   0.213   8.088 -0.0302 -0.5729  0.3778
  114OSM   H18S11888   7.553   0.160   7.992  2.5733 -0.8600  0.0238
  114OSM   H18T11889   7.502   0.175   8.167  0.0917  0.1606  0.8362
  114OSM   H18U11890   7.678   0.186   8.097  0.1996  0.0977 -0.3415
  114OSM    C1F11891   7.115   0.154   9.581 -0.3480  0.6418  1.0226
  114OSM     OF11892   7.036   0.206   9.657 -0.1977 -0.3700  0.4909
  114OSM    C2F11893   7.072   0.034   9.505 -0.1047  0.0697  0.7187
  114OSM    H2F11894   7.040  -0.040   9.582  2.7689 -0.0778  1.8298
  114OSM    H2G11895   7.156  -0.015   9.452 -1.6014  0.0933 -1.7232
  114OSM    C3F11896   6.960   0.038   9.403 -0.0133 -0.5328  0.3659
  114OSM    H3F11897   6.867   0.079   9.447 -1.2520 -0.9324 -1.7775
  114OSM    H3G11898   6.933  -0.068   9.381 -1.4114  0.3460 -2.4715
  114OSM    C4F11899   6.975   0.122   9.273 -0.3927  0.6037 -0.3718
  114OSM    H4F11900   6.995   0.229   9.296  3.3905  0.2459 -1.6294
  114OSM    H4G11901   6.884   0.116   9.211  0.3660  2.9206 -1.7724
  114OSM    C5F11902   7.088   0.073   9.183 -0.5735 -0.0568 -0.4643
  114OSM    H5F11903   7.182   0.047   9.235 -0.7609 -0.1981 -0.1977
  114OSM    H5G11904   7.110   0.156   9.112  1.0826 -0.2810 -0.2233
  114OSM    C6F11905   7.054  -0.058   9.108 -0.4810  0.2340  0.1578
  114OSM    H6F11906   6.950  -0.054   9.068  0.0137 -1.5981 -1.3477
  114OSM    H6G11907   7.065  -0.139   9.183 -2.2448  1.3064  1.6416
  114OSM    C7F11908   7.152  -0.091   8.997 -0.0076 -0.5140 -0.3895
  114OSM    H7F11909   7.136  -0.199   8.977  2.0686 -1.0278  0.6247
  114OSM    H7G11910   7.249  -0.088   9.050 -0.3392 -1.2300  0.2689
  114OSM    C8F11911   7.139  -0.005   8.875 -0.1359 -0.1289 -0.4290
  114OSM    H8F11912   7.034   0.030   8.872 -0.0264  0.2728  0.3528
  114OSM    H8G11913   7.168  -0.065   8.786  0.8033  0.2575 -0.3951
  114OSM    C9F11914   7.242   0.100   8.885 -0.9370  1.1679  0.1630
  114OSM    H9F11915   7.340   0.055   8.902 -0.1912  1.3228 -3.3309
  114OSM   C10F11916   7.234   0.232   8.881  0.0147  0.0268 -0.0470
  114OSM   H10F11917   7.320   0.300   8.887  1.0125 -1.2108 -0.0242
  114OSM   C11F11918   7.096   0.295   8.859  0.0869 -0.1266 -0.0266
  114OSM   H11F11919   7.080   0.395   8.904  1.9037  0.1225  0.0972
  114OSM   H11G11920   7.018   0.238   8.914 -1.6008  1.1511 -1.0650
  114OSM   C12F11921   7.038   0.304   8.716  0.0383 -0.0614 -0.4752
  114OSM   H12F11922   7.056   0.210   8.660 -2.1821 -0.2538 -0.9123
  114OSM   H12G11923   7.093   0.388   8.667  0.1699  1.1050  1.5889
  114OSM   C13F11924   6.887   0.341   8.716 -0.5109  0.1317  0.1199
  114OSM   H13F11925   6.860   0.437   8.766  1.5657  0.1331  1.2770
  114OSM   H13G11926   6.834   0.257   8.765  0.8236  0.1085  1.5576
  114OSM   C14F11927   6.836   0.354   8.570  0.7631 -0.0424 -0.1368
  114OSM   H14F11928   6.864   0.258   8.523 -0.2491 -0.0333 -0.7851
  114OSM   H14G11929   6.885   0.438   8.517 -0.6754 -0.5328 -2.2983
  114OSM   C15F11930   6.680   0.357   8.555  0.1219  0.4353 -0.4520
  114OSM   H15F11931   6.648   0.439   8.624  0.7267  0.8610 -0.6706
  114OSM   H15G11932   6.626   0.266   8.588  0.5938  1.2867  2.8598
  114OSM   C16F11933   6.633   0.382   8.406  0.3671  0.1855  0.3124
  114OSM   H16F11934   6.702   0.323   8.343 -0.3733 -0.6150  0.2434
  114OSM   H16G11935   6.655   0.489   8.387  0.1148  0.4005  1.1940
  114OSM   C17F11936   6.489   0.352   8.380 -0.2369  0.3726 -0.7163
  114OSM   H17F11937   6.432   0.395   8.465 -0.7297  1.8935 -1.7978
  114OSM   H17G11938   6.470   0.242   8.375 -0.6788  0.4952 -2.1067
  114OSM   C18F11939   6.442   0.418   8.250  0.1595  0.7223 -0.4479
  114OSM   H18F11940   6.502   0.378   8.165  0.4747 -0.3565  0.2683
  114OSM   H18G11941   6.456   0.528   8.261 -0.0647  0.7690 -0.6136
  114OSM   H18H11942   6.333   0.394   8.247  0.2826 -0.1023  0.9738
  115OSM      N11943   2.832   4.596   5.774 -0.5475 -0.3528  0.4678
  115OSM    C1511944   2.859   4.550   5.912  0.1069  0.0364  0.1676
  115OSM   H15A11945   2.847   4.629   5.985 -0.3486  0.0099  0.1235
  115OSM   H15B11946   2.955   4.501   5.926 -0.7743 -0.8781  3.5979
  115OSM   H15C11947   2.776   4.483   5.932  0.2024 -0.3093 -0.5747
  115OSM    C1411948   2.821   4.480   5.672  0.1367  0.0411 -0.9680
  115OSM   H14A11949   2.814   4.515   5.570  2.0797  2.1732 -0.4111
  115OSM   H14B11950   2.728   4.428   5.691  0.6335 -0.8907 -1.0410
  115OSM   H14C11951   2.901   4.407   5.673 -0.1523 -0.2725 -0.1463
  115OSM    C1311952   2.702   4.661   5.771  0.2206  0.5932  0.2307
  115OSM   H13A11953   2.622   4.592   5.793  0.8620  0.4869  2.3294
  115OSM   H13B11954   2.681   4.704   5.674 -0.5336  0.6315  0.4056
  115OSM   H13C11955   2.693   4.739   5.845  2.5508  1.2912 -0.1869
  115OSM    C1211956   2.939   4.695   5.723 -0.4675  0.6350 -0.4532
  115OSM   H12A11957   2.949   4.763   5.806 -0.1098 -0.1843  0.1760
  115OSM   H12B11958   2.902   4.737   5.630 -0.4815  0.4507 -0.5297
  115OSM    C1111959   3.076   4.633   5.695  0.0459  0.5407 -0.5477
  115OSM   H11A11960   3.136   4.714   5.648  1.6158  0.2436  0.8717
  115OSM   H11B11961   3.059   4.551   5.623  0.4258  0.0286 -0.0566
  115OSM      P11962   3.261   4.475   5.795  0.0793 -0.0923  0.1246
  115OSM    O1311963   3.227   4.365   5.700 -0.4217 -0.0978  0.2125
  115OSM    O1411964   3.387   4.551   5.765 -1.3105  0.6723 -0.4658
  115OSM    O1111965   3.274   4.410   5.939 -0.5483 -0.3855 -0.0620
  115OSM    O1211966   3.137   4.579   5.815  0.3306  0.0986  0.2465
  115OSM    C1S11967   3.276   4.483   6.068 -0.3444  0.8323  0.7684
  115OSM    H1S11968   3.293   4.591   6.048 -0.4026  0.9454  1.3150
  115OSM    H1T11969   3.374   4.459   6.114  2.1280  1.8065 -3.6534
  115OSM     NF11970   3.185   4.507   6.304  0.1740 -0.0446 -0.7064
  115OSM    HNF11971   3.190   4.448   6.385  2.3502  2.1687  0.8839
  115OSM    C2S11972   3.160   4.449   6.176  0.0450 -0.1958 -0.1654
  115OSM    H2S11973   3.063   4.493   6.144 -0.0799 -1.4427 -1.5673
  115OSM    C3S11974   3.138   4.297   6.180 -0.0511  0.3108  0.0188
  115OSM    H3S11975   3.234   4.248   6.207  0.2963  0.5615 -0.7559
  115OSM     O311976   3.092   4.248   6.057  0.1450 -0.3736 -0.2075
  115OSM    HO311977   3.143   4.287   5.986 -2.2106  0.8298 -1.3273
  115OSM    C4S11978   3.031   4.269   6.279 -0.2400  0.7405 -0.1056
  115OSM    H4S11979   2.928   4.305   6.263  0.1121  1.5517 -0.6151
  115OSM    C5S11980   3.038   4.195   6.387 -0.2030 -0.0582  0.0180
  115OSM    H5S11981   3.135   4.163   6.429 -0.0802  1.1301  0.6900
  115OSM    C6S11982   2.912   4.178   6.473 -0.0654 -0.2111 -0.0489
  115OSM    H6S11983   2.910   4.083   6.530 -3.0335 -0.1182  0.0389
  115OSM    H6T11984   2.823   4.167   6.407 -0.0952 -1.4492  0.1751
  115OSM    C7S11985   2.905   4.296   6.571  0.1294 -0.3695  1.2170
  115OSM    H7S11986   2.813   4.290   6.633 -0.3428 -1.2193  0.4368
  115OSM    H7T11987   2.898   4.392   6.516 -1.1904 -0.5602  1.0438
  115OSM    C8S11988   3.026   4.300   6.669 -0.4552 -0.0675 -0.6179
  115OSM    H8S11989   3.126   4.281   6.625 -0.0225 -1.5278  0.9327
  115OSM    H8T11990   3.011   4.207   6.728  1.0384  0.2970  0.3542
  115OSM    C9S11991   3.033   4.427   6.737 -0.0225  0.0979 -0.0578
  115OSM    H9S11992   2.930   4.446   6.774 -0.7620 -2.3442 -0.7853
  115OSM    H9T11993   3.051   4.512   6.668 -0.2203  0.9153  0.8819
  115OSM   C10S11994   3.133   4.434   6.846 -1.0194  0.9965  0.1339
  115OSM   H10S11995   3.234   4.462   6.809 -0.0960  0.7794  2.3663
  115OSM   H10T11996   3.147   4.337   6.899  2.2610  0.0959 -2.1893
  115OSM   C11S11997   3.085   4.534   6.955  1.0246  1.0583 -0.3131
  115OSM   H11S11998   2.990   4.495   6.996  0.9997  0.8819 -0.5326
  115OSM   H11T11999   3.058   4.632   6.910 -0.4753  0.4451 -0.7717
  115OSM   C12S12000   3.196   4.569   7.055 -0.7556  0.9957 -0.0583
  115OSM   H12S12001   3.152   4.656   7.106 -3.7175 -0.8839  0.7090
  115OSM   H12T12002   3.282   4.606   6.995 -1.0184  1.9857  0.1717
  115OSM   C13S12003   3.236   4.456   7.148 -0.0201  0.4722  0.1684
  115OSM   H13S12004   3.299   4.380   7.096  2.8021  2.8006  0.0508
  115OSM   H13T12005   3.144   4.398   7.172 -0.8528  0.6435 -2.4641
  115OSM   C14S12006   3.314   4.503   7.266 -0.8450  0.1746  0.3766
  115OSM   H14S12007   3.421   4.527   7.246 -0.3071 -2.4360 -0.0738
  115OSM   H14T12008   3.322   4.416   7.335 -1.8399 -0.5927 -0.4483
  115OSM   C15S12009   3.242   4.604   7.361  1.1663 -0.9897  0.2549
  115OSM   H15S12010   3.135   4.575   7.373  0.7489 -0.3411 -1.6608
  115OSM   H15T12011   3.229   4.706   7.319 -1.7517 -0.6156  1.9064
  115OSM   C16S12012   3.299   4.613   7.503 -0.2790 -0.7433  0.6872
  115OSM   H16S12013   3.320   4.510   7.539  0.7729 -0.4120  1.0417
  115OSM   H16T12014   3.224   4.660   7.571  0.3731  0.6838  0.4397
  115OSM   C17S12015   3.432   4.692   7.510 -0.5766 -0.2365 -0.3168
  115OSM   H17S12016   3.417   4.790   7.460 -0.7914  0.7057  1.5487
  115OSM   H17T12017   3.509   4.633   7.456 -0.2860 -0.7056  0.6054
  115OSM   C18S12018   3.478   4.729   7.644 -0.2310  0.2117 -0.0548
  115OSM   H18S12019   3.402   4.801   7.682  0.1964  0.9165 -0.5329
  115OSM   H18T12020   3.584   4.760   7.652 -0.2748  0.1914  0.6074
  115OSM   H18U12021   3.473   4.640   7.711  1.2987 -0.0653 -0.2852
  115OSM    C1F12022   3.190   4.637   6.318 -0.0788  0.4015  0.6445
  115OSM     OF12023   3.212   4.713   6.227 -0.2050  0.0540 -0.6553
  115OSM    C2F12024   3.167   4.681   6.460 -0.4757  0.0553 -0.3301
  115OSM    H2F12025   3.226   4.613   6.524 -1.1360  1.9516  2.3897
  115OSM    H2G12026   3.058   4.664   6.476  0.2105 -3.1376  1.3602
  115OSM    C3F12027   3.179   4.832   6.496 -0.1075  0.2128  0.4270
  115OSM    H3F12028   3.095   4.879   6.441 -0.9983 -1.4484  0.3218
  115OSM    H3G12029   3.276   4.876   6.463 -0.7374  1.1345 -0.2286
  115OSM    C4F12030   3.142   4.860   6.644 -0.4147 -0.1489  0.1677
  115OSM    H4F12031   3.223   4.820   6.709 -1.9194 -2.1079  0.8943
  115OSM    H4G12032   3.048   4.806   6.670 -1.6035  1.5103 -0.5671
  115OSM    C5F12033   3.122   5.010   6.665  0.9111 -0.4050 -0.3096
  115OSM    H5F12034   3.041   5.046   6.599  2.1818  1.8214 -0.7118
  115OSM    H5G12035   3.215   5.063   6.634 -1.4474  4.8134  0.9851
  115OSM    C6F12036   3.084   5.040   6.813 -0.3734  0.9931 -0.1597
  115OSM    H6F12037   3.161   5.002   6.884 -0.1726  1.7527  0.0300
  115OSM    H6G12038   2.984   4.995   6.834 -0.2900 -0.3100 -2.4985
  115OSM    C7F12039   3.052   5.192   6.840 -0.1801 -0.6799 -0.2625
  115OSM    H7F12040   2.993   5.233   6.756 -1.0574  1.1001  1.1838
  115OSM    H7G12041   3.147   5.250   6.842 -0.3390 -0.4230 -0.2144
  115OSM    C8F12042   2.988   5.210   6.980 -0.5052  0.6402  0.4560
  115OSM    H8F12043   2.899   5.145   6.975  1.1247 -1.5960 -0.6512
  115OSM    H8G12044   2.959   5.315   7.001  0.8642  0.9673  0.7839
  115OSM    C9F12045   3.088   5.164   7.086  1.0162 -0.2405 -0.0011
  115OSM    H9F12046   3.174   5.232   7.096  0.1260  1.1291 -1.4835
  115OSM   C10F12047   3.067   5.068   7.177  0.2293 -0.7128  0.2230
  115OSM   H10F12048   3.152   5.048   7.244 -0.8077 -0.8238  1.5293
  115OSM   C11F12049   2.942   4.981   7.198  0.5413  0.1483 -0.8838
  115OSM   H11F12050   2.973   4.875   7.213  0.7725  0.5171  1.4864
  115OSM   H11G12051   2.866   4.980   7.117 -1.0534  2.6584  0.5118
  115OSM   C12F12052   2.876   5.015   7.330 -0.5569 -0.8608  0.2353
  115OSM   H12F12053   2.774   4.972   7.342 -0.9805 -1.0419 -3.3454
  115OSM   H12G12054   2.861   5.125   7.324  3.9558 -0.2649 -2.2346
  115OSM   C13F12055   2.954   4.977   7.455  0.3063 -0.4537 -0.6661
  115OSM   H13F12056   2.917   5.040   7.538 -0.5056 -1.5218 -0.2065
  115OSM   H13G12057   3.064   4.990   7.446  0.5691 -1.3905  0.8831
  115OSM   C14F12058   2.940   4.828   7.500 -0.3050 -0.2967 -0.1472
  115OSM   H14F12059   2.997   4.817   7.595  0.6922  0.2179 -0.6947
  115OSM   H14G12060   2.998   4.767   7.428 -0.6590 -1.5191  0.5716
  115OSM   C15F12061   2.796   4.775   7.520 -0.3191  0.2467 -0.1958
  115OSM   H15F12062   2.799   4.673   7.563 -0.4846  0.5133  0.4541
  115OSM   H15G12063   2.764   4.763   7.415 -1.3085 -0.8475  0.2291
  115OSM   C16F12064   2.701   4.859   7.610 -0.7303  0.1371 -0.1289
  115OSM   H16F12065   2.693   4.959   7.562  0.9890 -0.4302 -1.6314
  115OSM   H16G12066   2.736   4.880   7.713 -0.3117 -0.7407 -0.0910
  115OSM   C17F12067   2.562   4.787   7.624 -0.6553  0.1554  0.0817
  115OSM   H17F12068   2.588   4.690   7.673 -0.4078 -0.2694 -0.8790
  115OSM   H17G12069   2.524   4.770   7.521 -1.0524 -0.7270  0.3647
  115OSM   C18F12070   2.461   4.852   7.710 -0.2410 -0.1614  0.4073
  115OSM   H18F12071   2.366   4.796   7.701 -2.1266  2.4798  2.8139
  115OSM   H18G12072   2.441   4.957   7.680 -2.2930 -1.0706 -1.4878
  115OSM   H18H12073   2.491   4.852   7.817  2.4866 -1.3220 -0.3094
  116OSM      N12074   2.267   2.559   5.653 -0.1418  0.0023  0.0312
  116OSM    C1512075   2.303   2.509   5.513 -0.2667  0.0362  0.6944
  116OSM   H15A12076   2.406   2.516   5.479 -1.0101  1.4175 -1.3925
  116OSM   H15B12077   2.242   2.565   5.444  0.1810 -0.5952 -0.2248
  116OSM   H15C12078   2.275   2.405   5.502 -2.6746  0.7811 -0.5289
  116OSM    C1412079   2.337   2.690   5.672  0.3931 -0.4479  0.2144
  116OSM   H14A12080   2.317   2.760   5.593 -0.4929 -1.0529 -0.1079
  116OSM   H14B12081   2.444   2.681   5.681  0.4660 -1.2085 -1.3128
  116OSM   H14C12082   2.298   2.741   5.759  0.0257  0.0402 -0.2325
  116OSM    C1312083   2.122   2.588   5.647 -0.6782 -0.6295  0.2659
  116OSM   H13A12084   2.101   2.649   5.561  1.7725 -0.1405 -0.0247
  116OSM   H13B12085   2.090   2.648   5.731 -2.2351  1.0627 -1.5044
  116OSM   H13C12086   2.066   2.496   5.653 -0.5060 -0.7023  0.8376
  116OSM    C1212087   2.307   2.457   5.758  0.3891  0.1764 -0.1174
  116OSM   H12A12088   2.259   2.361   5.741  1.1882 -0.2689  0.1065
  116OSM   H12B12089   2.270   2.503   5.848  1.5972  1.1738 -0.1126
  116OSM    C1112090   2.453   2.427   5.777 -0.8378 -0.3334 -0.6691
  116OSM   H11A12091   2.450   2.364   5.869  1.5309 -0.8730 -0.9331
  116OSM   H11B12092   2.513   2.519   5.791  0.1080 -0.9054 -0.8378
  116OSM      P12093   2.489   2.201   5.648 -0.1673 -0.4779  0.5403
  116OSM    O1312094   2.347   2.195   5.630  0.3005 -0.1737 -0.5975
  116OSM    O1412095   2.579   2.148   5.543 -0.5814 -0.0097  0.1498
  116OSM    O1112096   2.527   2.130   5.782  0.3208  0.4326 -0.2649
  116OSM    O1212097   2.521   2.357   5.670 -0.2360 -0.1662 -0.2553
  116OSM    C1S12098   2.660   2.162   5.839 -0.1707 -0.1238  0.5262
  116OSM    H1S12099   2.666   2.270   5.866 -0.2831  0.2022 -0.6999
  116OSM    H1T12100   2.742   2.138   5.768 -1.4286 -0.7472 -0.7406
  116OSM     NF12101   2.818   2.162   6.027 -0.4378 -0.4006  0.0369
  116OSM    HNF12102   2.897   2.100   6.024  1.1906  1.6948 -1.5581
  116OSM    C2S12103   2.700   2.087   5.973  0.1719  0.8137 -0.2044
  116OSM    H2S12104   2.621   2.098   6.049 -0.3929  1.9000 -0.9300
  116OSM    C3S12105   2.723   1.938   5.946 -0.4456  0.5049  0.0187
  116OSM    H3S12106   2.814   1.919   5.886  0.3002 -2.0429  1.8913
  116OSM     O312107   2.609   1.887   5.875 -0.0738  0.2980 -0.2723
  116OSM    HO312108   2.579   1.965   5.826 -1.8165  0.0532  0.3923
  116OSM    C4S12109   2.747   1.870   6.080 -0.8055 -0.3064  0.5148
  116OSM    H4S12110   2.846   1.885   6.126  0.0713 -0.0728 -1.4108
  116OSM    C5S12111   2.664   1.800   6.162 -0.2561 -0.6775 -0.2825
  116OSM    H5S12112   2.561   1.786   6.127 -0.4738 -0.0244  0.0943
  116OSM    C6S12113   2.705   1.731   6.291  0.8414 -0.0142  0.0336
  116OSM    H6S12114   2.771   1.650   6.253 -0.3363 -1.1054  0.2963
  116OSM    H6T12115   2.622   1.684   6.348 -1.5394 -0.5097 -3.6805
  116OSM    C7S12116   2.784   1.814   6.393 -0.7410 -0.1247  0.3899
  116OSM    H7S12117   2.736   1.911   6.418  0.2395  0.5595 -0.3375
  116OSM    H7T12118   2.882   1.823   6.340 -0.9294 -0.7410 -0.0712
  116OSM    C8S12119   2.808   1.746   6.532 -0.0112  0.1489  0.0984
  116OSM    H8S12120   2.870   1.656   6.516  2.6150  1.7978  0.7878
  116OSM    H8T12121   2.710   1.715   6.576  0.9829 -0.6807  1.8043
  116OSM    C9S12122   2.870   1.828   6.639 -0.0018  0.2012 -0.1788
  116OSM    H9S12123   2.799   1.902   6.681  1.7584  0.7252  1.9535
  116OSM    H9T12124   2.956   1.887   6.600 -0.1560  0.4584 -0.1232
  116OSM   C10S12125   2.918   1.754   6.759  0.2845  0.1196 -0.4553
  116OSM   H10S12126   3.008   1.797   6.809  0.3865  1.1727 -1.5305
  116OSM   H10T12127   2.942   1.651   6.725 -0.5846 -0.9228  1.9925
  116OSM   C11S12128   2.811   1.733   6.867  0.0278 -0.5790  0.9683
  116OSM   H11S12129   2.734   1.668   6.820 -3.2177  3.4558  0.3649
  116OSM   H11T12130   2.756   1.828   6.888 -0.8431 -0.6222 -1.0268
  116OSM   C12S12131   2.875   1.689   6.999 -0.5336 -0.7400  0.1375
  116OSM   H12S12132   2.918   1.783   7.040  0.1573 -1.3904  0.9194
  116OSM   H12T12133   2.956   1.615   6.977  0.1220 -0.4595  1.5499
  116OSM   C13S12134   2.769   1.631   7.101  0.5130 -0.6824 -0.4252
  116OSM   H13S12135   2.722   1.536   7.070 -2.6755  1.0055 -0.9909
  116OSM   H13T12136   2.693   1.711   7.117  1.5565  0.3461 -0.4822
  116OSM   C14S12137   2.844   1.598   7.231  0.4929  0.6047  0.1747
  116OSM   H14S12138   2.900   1.692   7.253 -0.8149  1.4927 -0.1816
  116OSM   H14T12139   2.909   1.510   7.216  0.3603  0.4980  0.2298
  116OSM   C15S12140   2.764   1.552   7.350  0.4062 -0.6284  0.1392
  116OSM   H15S12141   2.702   1.464   7.322 -2.0271  1.0037  0.2315
  116OSM   H15T12142   2.691   1.632   7.373  1.0591 -0.1509  0.5690
  116OSM   C16S12143   2.863   1.522   7.460 -0.2992  0.8616  0.4776
  116OSM   H16S12144   2.892   1.624   7.495 -1.5071  0.2485  3.3808
  116OSM   H16T12145   2.953   1.470   7.421  0.0490  2.0108 -0.3090
  116OSM   C17S12146   2.804   1.434   7.571  0.0126 -0.1221  1.0334
  116OSM   H17S12147   2.879   1.403   7.647  0.3594 -0.5683  0.5084
  116OSM   H17T12148   2.765   1.334   7.542  0.4210 -0.0936  0.3828
  116OSM   C18S12149   2.702   1.520   7.646 -0.8715 -0.3119  0.4439
  116OSM   H18S12150   2.605   1.485   7.603 -0.2070 -1.6229  0.0077
  116OSM   H18T12151   2.722   1.630   7.650  0.4533 -0.5697  1.1069
  116OSM   H18U12152   2.702   1.482   7.751 -0.8476 -0.4237  0.4023
  116OSM    C1F12153   2.823   2.279   6.073  0.3545 -0.0899  1.3853
  116OSM     OF12154   2.716   2.331   6.100 -0.0877  0.0278 -0.2718
  116OSM    C2F12155   2.958   2.347   6.087 -0.0782 -0.7181 -0.0482
  116OSM    H2F12156   2.947   2.436   6.022 -0.5170 -0.4136  0.4340
  116OSM    H2G12157   3.041   2.286   6.046  0.9866 -0.7523  2.1010
  116OSM    C3F12158   2.981   2.386   6.235 -0.1188 -0.0525  0.3530
  116OSM    H3F12159   2.950   2.492   6.245 -0.1089 -0.2996  3.6282
  116OSM    H3G12160   3.092   2.389   6.241 -0.0552  1.9778 -1.2585
  116OSM    C4F12161   2.933   2.291   6.338 -0.2962  0.3335  0.2956
  116OSM    H4F12162   2.973   2.189   6.321 -1.2503 -0.0340  0.2134
  116OSM    H4G12163   2.822   2.292   6.338 -0.3274  2.3841  1.6996
  116OSM    C5F12164   2.975   2.328   6.484  0.7957  0.7579  0.0113
  116OSM    H5F12165   2.947   2.434   6.500  0.7783  0.7382  0.1137
  116OSM    H5G12166   3.085   2.318   6.497  0.8569 -0.5840 -1.3634
  116OSM    C6F12167   2.913   2.228   6.589 -0.0026 -0.2657 -0.2701
  116OSM    H6F12168   2.952   2.125   6.575 -0.1114 -0.6870  2.2307
  116OSM    H6G12169   2.805   2.228   6.566  0.2444 -3.0490 -1.6821
  116OSM    C7F12170   2.954   2.257   6.732  0.1051 -0.3483  0.3259
  116OSM    H7F12171   2.916   2.356   6.765 -3.1610 -1.1116 -0.9792
  116OSM    H7G12172   3.065   2.254   6.741  0.0199 -0.9221  1.1686
  116OSM    C8F12173   2.909   2.146   6.830 -0.9311  0.0833  0.0539
  116OSM    H8F12174   2.968   2.160   6.922  0.7464  0.1350 -1.0035
  116OSM    H8G12175   2.917   2.044   6.786 -1.0473  0.0655  0.0729
  116OSM    C9F12176   2.764   2.176   6.848  0.3291  0.2523 -0.4971
  116OSM    H9F12177   2.720   2.233   6.765 -1.3952 -0.9392 -0.4198
  116OSM   C10F12178   2.686   2.130   6.944 -0.2834  0.4324  0.2952
  116OSM   H10F12179   2.578   2.153   6.950 -0.8632 -1.8797 -0.7231
  116OSM   C11F12180   2.743   2.041   7.058  0.0992  0.0696 -0.0929
  116OSM   H11F12181   2.842   2.001   7.027 -0.7708 -1.5909 -0.7440
  116OSM   H11G12182   2.684   1.947   7.061  0.1581  0.0162 -0.6001
  116OSM   C12F12183   2.763   2.122   7.185 -0.3641 -0.6753 -0.6062
  116OSM   H12F12184   2.663   2.162   7.212 -0.8869 -1.9090 -0.7231
  116OSM   H12G12185   2.834   2.203   7.157 -0.0951 -1.2057 -1.4441
  116OSM   C13F12186   2.829   2.057   7.306  0.1195 -0.1018 -0.4977
  116OSM   H13F12187   2.920   1.995   7.286  0.7994  0.3433  1.1200
  116OSM   H13G12188   2.753   1.984   7.341 -0.2696 -0.3734 -1.9005
  116OSM   C14F12189   2.860   2.147   7.426  0.2605 -0.2583  0.3407
  116OSM   H14F12190   2.768   2.150   7.488  1.8582  0.6858  2.7454
  116OSM   H14G12191   2.892   2.247   7.391 -0.3382  0.2168  1.1232
  116OSM   C15F12192   2.980   2.088   7.506 -0.2987  0.0782 -0.2886
  116OSM   H15F12193   3.002   2.151   7.596 -2.3871 -0.1447  0.3950
  116OSM   H15G12194   3.070   2.090   7.441 -1.5041  3.7360 -1.9737
  116OSM   C16F12195   2.952   1.956   7.571  0.5382  0.1605 -0.0882
  116OSM   H16F12196   3.029   1.934   7.648  0.9309  2.6634  0.2754
  116OSM   H16G12197   2.952   1.887   7.484  0.9646  0.0102  0.0289
  116OSM   C17F12198   2.815   1.944   7.638  0.3568  0.1009 -0.0477
  116OSM   H17F12199   2.811   1.840   7.677  0.7638 -0.1774 -0.7488
  116OSM   H17G12200   2.731   1.956   7.566  0.0897 -1.7376 -0.0591
  116OSM   C18F12201   2.772   2.047   7.754 -0.5790  0.2652 -0.1586
  116OSM   H18F12202   2.688   2.006   7.814  0.6643 -1.4398  0.4601
  116OSM   H18G12203   2.746   2.146   7.710 -1.2093 -0.4794 -1.4722
  116OSM   H18H12204   2.858   2.050   7.824  0.9967 -0.4571 -2.0262
  117OSM      N12205   2.253   3.632   5.601  0.6685  0.2844  0.3747
  117OSM    C1512206   2.243   3.774   5.562  0.3144  0.1236  0.9375
  117OSM   H15A12207   2.168   3.830   5.617 -0.5126  1.0470 -1.0486
  117OSM   H15B12208   2.195   3.772   5.465  0.0150 -1.4837  1.1064
  117OSM   H15C12209   2.336   3.828   5.573  0.3790  0.5266 -1.2943
  117OSM    C1412210   2.120   3.567   5.597 -0.6145 -0.5145 -0.1910
  117OSM   H14A12211   2.053   3.609   5.670 -2.0002 -1.2362 -1.0382
  117OSM   H14B12212   2.129   3.461   5.615 -0.6389 -0.6966 -1.2236
  117OSM   H14C12213   2.078   3.582   5.499  1.2154  3.4111 -0.4590
  117OSM    C1312214   2.349   3.562   5.509 -0.3324  0.1902  0.0674
  117OSM   H13A12215   2.306   3.547   5.411  0.1595  1.0778 -0.2909
  117OSM   H13B12216   2.375   3.469   5.557  0.5091  1.0334  1.2657
  117OSM   H13C12217   2.439   3.620   5.495 -0.2099 -0.7507 -3.3439
  117OSM    C1212218   2.303   3.635   5.743  0.1333  0.2637  0.1902
  117OSM   H12A12219   2.231   3.695   5.798  0.5965  0.5159  0.5222
  117OSM   H12B12220   2.400   3.681   5.746 -0.7968  2.3721 -1.1162
  117OSM    C1112221   2.311   3.491   5.812 -0.2666 -0.6634 -0.2871
  117OSM   H11A12222   2.210   3.446   5.813 -0.2847 -0.6786 -1.5510
  117OSM   H11B12223   2.338   3.503   5.919  0.9357 -0.8089 -0.5637
  117OSM      P12224   2.423   3.252   5.786  0.0319 -0.2303  0.0346
  117OSM    O1312225   2.368   3.177   5.673 -0.2068 -0.7781  0.4262
  117OSM    O1412226   2.560   3.221   5.820  0.5299  0.0957  0.2191
  117OSM    O1112227   2.340   3.247   5.918 -0.1709 -0.5230  0.2096
  117OSM    O1212228   2.410   3.404   5.745 -0.4049 -0.6492  0.2155
  117OSM    C1S12229   2.339   3.144   6.013 -0.3704  0.1680  0.0777
  117OSM    H1S12230   2.436   3.147   6.066 -1.5191  1.3689  2.1836
  117OSM    H1T12231   2.327   3.045   5.963  0.8030 -0.0239  0.1758
  117OSM     NF12232   2.249   3.057   6.220 -0.3313  0.0885  0.3687
  117OSM    HNF12233   2.178   2.987   6.213 -1.5369  1.2575  0.5616
  117OSM    C2S12234   2.228   3.163   6.122 -0.6145  0.1901 -0.1885
  117OSM    H2S12235   2.237   3.258   6.179  1.4364  1.2934 -2.2419
  117OSM    C3S12236   2.090   3.162   6.054 -0.7949  0.7980  1.0819
  117OSM    H3S12237   2.089   3.071   5.991 -0.6765  0.9471  0.8641
  117OSM     O312238   2.061   3.271   5.967 -0.5594 -0.0012 -0.5289
  117OSM    HO312239   2.148   3.313   5.964 -1.2587  1.4641 -0.9743
  117OSM    C4S12240   1.992   3.156   6.166  0.5957 -0.2877  0.5153
  117OSM    H4S12241   1.976   3.051   6.196  0.8915 -0.1411  1.1901
  117OSM    C5S12242   1.913   3.250   6.219 -0.7844 -0.5218  0.4151
  117OSM    H5S12243   1.912   3.353   6.181  0.4600 -0.3953  0.7054
  117OSM    C6S12244   1.811   3.222   6.328 -0.7883  0.1337 -0.5394
  117OSM    H6S12245   1.763   3.122   6.331  0.0100 -0.2301  0.7775
  117OSM    H6T12246   1.726   3.292   6.324 -1.0558 -0.1936 -0.5855
  117OSM    C7S12247   1.882   3.244   6.466  0.2309 -0.3604 -0.4060
  117OSM    H7S12248   1.875   3.349   6.501 -2.1135 -1.3227  2.2407
  117OSM    H7T12249   1.985   3.202   6.468 -0.4530 -2.2927 -3.0864
  117OSM    C8S12250   1.816   3.159   6.588 -0.6144 -0.3546  0.2381
  117OSM    H8S12251   1.825   3.050   6.573 -1.0454 -0.2400 -0.8382
  117OSM    H8T12252   1.707   3.181   6.587 -0.3822  0.8159 -3.0387
  117OSM    C9S12253   1.861   3.204   6.728  0.4900 -0.0816  0.0229
  117OSM    H9S12254   1.866   3.315   6.730  1.3019 -0.1261  0.4838
  117OSM    H9T12255   1.966   3.176   6.750  0.4401  0.9846  1.6683
  117OSM   C10S12256   1.750   3.162   6.828 -0.7485 -0.0661  0.0678
  117OSM   H10S12257   1.753   3.051   6.836  2.4551  0.0154  0.7661
  117OSM   H10T12258   1.653   3.184   6.778 -0.6614  0.6299  0.2064
  117OSM   C11S12259   1.766   3.221   6.967 -0.0855 -0.7216  0.5500
  117OSM   H11S12260   1.668   3.215   7.021 -0.4864 -1.9044 -0.2686
  117OSM   H11T12261   1.766   3.329   6.944  1.5642 -0.6750  0.7616
  117OSM   C12S12262   1.880   3.164   7.036  0.7569 -0.5898  0.6188
  117OSM   H12S12263   1.969   3.172   6.971 -0.3058  0.3905 -0.7490
  117OSM   H12T12264   1.868   3.058   7.066  2.6426 -1.0711 -0.2956
  117OSM   C13S12265   1.897   3.242   7.169  0.0205 -0.1776  0.5841
  117OSM   H13S12266   1.808   3.242   7.236  0.7601 -2.0138  1.6124
  117OSM   H13T12267   1.930   3.345   7.143 -3.2823  1.4835  2.7122
  117OSM   C14S12268   2.013   3.177   7.240  0.4703 -0.4807  1.1506
  117OSM   H14S12269   2.098   3.170   7.169 -0.9265 -0.3352 -0.5804
  117OSM   H14T12270   1.987   3.073   7.272 -0.6827  1.0323  5.4659
  117OSM   C15S12271   2.058   3.251   7.364  0.8270  0.8383  0.9871
  117OSM   H15S12272   1.973   3.253   7.435  1.3684 -2.3852  1.7897
  117OSM   H15T12273   2.083   3.356   7.337 -1.7236  1.2869  0.2725
  117OSM   C16S12274   2.169   3.184   7.444  0.9746 -0.3682 -0.5413
  117OSM   H16S12275   2.270   3.199   7.400  1.2263  0.7737  0.3935
  117OSM   H16T12276   2.143   3.076   7.440  1.6343 -0.5982  1.0254
  117OSM   C17S12277   2.168   3.221   7.595  0.0352 -0.3277  0.1056
  117OSM   H17S12278   2.235   3.155   7.653 -1.6245 -1.3100  0.9521
  117OSM   H17T12279   2.067   3.210   7.640 -1.2420 -1.2362 -2.8622
  117OSM   C18S12280   2.214   3.367   7.610  0.5327  0.8296 -0.3413
  117OSM   H18S12281   2.316   3.383   7.569  0.3647 -0.6132 -1.3761
  117OSM   H18T12282   2.218   3.397   7.717 -0.6601 -1.1477  0.2934
  117OSM   H18U12283   2.144   3.441   7.565 -2.1194 -0.2817  1.7922
  117OSM    C1F12284   2.347   3.050   6.306  0.3016  0.6219 -0.6273
  117OSM     OF12285   2.423   3.144   6.315 -0.1992 -0.1663  0.5913
  117OSM    C2F12286   2.349   2.934   6.397  0.2863  0.1040 -0.2107
  117OSM    H2F12287   2.284   2.854   6.355  0.7843 -1.5890  2.1814
  117OSM    H2G12288   2.294   2.954   6.491  1.7588 -0.5557  0.7943
  117OSM    C3F12289   2.489   2.885   6.420 -0.0170  0.1703 -0.0234
  117OSM    H3F12290   2.477   2.801   6.490  2.1974 -0.5318 -0.4517
  117OSM    H3G12291   2.556   2.961   6.464  1.5260  0.3019 -2.4668
  117OSM    C4F12292   2.569   2.841   6.298 -0.4669  0.1249  0.4659
  117OSM    H4F12293   2.573   2.929   6.229 -2.6300  0.2763  0.4999
  117OSM    H4G12294   2.516   2.761   6.243  2.1933 -1.4951  0.1830
  117OSM    C5F12295   2.715   2.794   6.325  0.0695 -0.1819  0.2961
  117OSM    H5F12296   2.784   2.879   6.342  1.9175 -1.7205  0.6552
  117OSM    H5G12297   2.755   2.738   6.237 -1.6228  0.2666 -0.7913
  117OSM    C6F12298   2.727   2.690   6.441 -0.3645  0.5894 -0.1682
  117OSM    H6F12299   2.704   2.738   6.538 -1.3882 -2.0889  0.9708
  117OSM    H6G12300   2.829   2.644   6.441 -0.2827  0.7718 -0.2052
  117OSM    C7F12301   2.623   2.579   6.425  0.0044 -0.0206 -0.4696
  117OSM    H7F12302   2.640   2.531   6.327 -2.2032 -2.7246  0.4064
  117OSM    H7G12303   2.519   2.618   6.431 -0.5232 -1.3152 -1.0754
  117OSM    C8F12304   2.640   2.475   6.535  0.0244  0.3418  0.1537
  117OSM    H8F12305   2.647   2.524   6.635  0.0002  2.3263 -0.7880
  117OSM    H8G12306   2.736   2.426   6.509  0.1414  0.8570 -0.4048
  117OSM    C9F12307   2.541   2.366   6.514 -0.4306  0.2482  0.5030
  117OSM    H9F12308   2.558   2.295   6.432 -2.1322  0.6892 -0.2419
  117OSM   C10F12309   2.417   2.355   6.565  0.3457 -0.7147  0.2683
  117OSM   H10F12310   2.354   2.266   6.554  0.1567 -0.5971  0.3997
  117OSM   C11F12311   2.370   2.459   6.662  0.1583  0.2704 -0.7059
  117OSM   H11F12312   2.275   2.502   6.623  1.5003  3.4304 -0.6496
  117OSM   H11G12313   2.437   2.546   6.679 -0.6206  0.3376  2.4858
  117OSM   C12F12314   2.339   2.402   6.801  0.6129  0.0284 -0.3173
  117OSM   H12F12315   2.421   2.340   6.843 -0.5993  0.4009  2.7072
  117OSM   H12G12316   2.256   2.330   6.814  2.0116 -1.2257  1.9330
  117OSM   C13F12317   2.313   2.512   6.896 -0.3210  0.3384  0.2131
  117OSM   H13F12318   2.219   2.563   6.865 -0.4497  0.5349  0.9036
  117OSM   H13G12319   2.404   2.576   6.894 -0.7241  1.0327  2.7389
  117OSM   C14F12320   2.303   2.458   7.042  0.0797  0.0496 -0.5602
  117OSM   H14F12321   2.402   2.414   7.065 -0.5358 -1.5591 -0.9161
  117OSM   H14G12322   2.221   2.383   7.046  0.5547 -0.4189  0.9328
  117OSM   C15F12323   2.275   2.563   7.148  0.7275  0.1976 -0.1664
  117OSM   H15F12324   2.315   2.665   7.128 -0.2059  0.4481 -0.7978
  117OSM   H15G12325   2.319   2.521   7.241  1.4308 -1.0396 -1.0530
  117OSM   C16F12326   2.124   2.582   7.179  0.0530 -1.1924 -0.6310
  117OSM   H16F12327   2.110   2.514   7.265 -0.6877  0.5488  0.6418
  117OSM   H16G12328   2.057   2.551   7.096 -1.3854  1.1772 -0.4000
  117OSM   C17F12329   2.072   2.726   7.208  0.4403  0.3322  0.1814
  117OSM   H17F12330   2.110   2.766   7.304 -0.7549 -0.7456  1.1293
  117OSM   H17G12331   2.113   2.790   7.128 -2.1578  1.6191 -0.1549
  117OSM   C18F12332   1.917   2.748   7.208  0.2867  0.1982 -0.0263
  117OSM   H18F12333   1.870   2.716   7.113 -1.3945  0.3161  0.7581
  117OSM   H18G12334   1.901   2.857   7.219  0.5772  0.3930 -1.4713
  117OSM   H18H12335   1.861   2.699   7.291 -1.1468  0.4782 -0.8175
  118OSM      N12336   5.040   5.465   5.665  0.4432 -0.0370 -0.5890
  118OSM    C1512337   4.978   5.485   5.522 -0.2698  0.2387 -0.3265
  118OSM   H15A12338   4.959   5.388   5.477  0.0838 -0.5519  1.1868
  118OSM   H15B12339   5.046   5.534   5.455  2.7206 -2.8906  0.2489
  118OSM   H15C12340   4.882   5.533   5.533 -0.1057  0.4939  0.0154
  118OSM    C1412341   5.148   5.358   5.657 -0.8345 -0.0391  0.0671
  118OSM   H14A12342   5.218   5.395   5.584 -0.1614  0.6115  1.0411
  118OSM   H14B12343   5.112   5.266   5.614 -0.3376  0.5487 -1.6658
  118OSM   H14C12344   5.189   5.341   5.755  1.0542 -2.3231 -1.0845
  118OSM    C1312345   5.104   5.589   5.713  0.2357 -0.0653 -0.5990
  118OSM   H13A12346   5.148   5.572   5.810 -2.1597  0.1980  0.5714
  118OSM   H13B12347   5.039   5.673   5.731  0.1666 -0.2268 -0.0762
  118OSM   H13C12348   5.187   5.622   5.652  1.1898  1.1780  1.3370
  118OSM    C1212349   4.929   5.424   5.751  0.0859  0.6698 -0.7409
  118OSM   H12A12350   4.853   5.500   5.756  3.5254  4.1299  1.7966
  118OSM   H12B12351   4.962   5.400   5.851 -1.5285  1.6281  0.0327
  118OSM    C1112352   4.861   5.294   5.723  0.2795 -1.0530  0.0473
  118OSM   H11A12353   4.819   5.285   5.621  0.3559 -0.2923 -0.0494
  118OSM   H11B12354   4.771   5.299   5.788 -0.2444  1.5271 -0.8097
  118OSM      P12355   4.946   5.045   5.672 -0.0375  0.5742  0.5768
  118OSM    O1312356   4.916   5.063   5.531  0.3312 -0.4241  0.5806
  118OSM    O1412357   5.070   4.972   5.709  0.3351 -0.0324  0.2117
  118OSM    O1112358   4.827   4.971   5.747  0.4089 -0.0714  0.4001
  118OSM    O1212359   4.954   5.185   5.746  0.4403 -0.6721 -0.0919
  118OSM    C1S12360   4.839   4.932   5.885 -0.2415 -0.4831  1.0104
  118OSM    H1S12361   4.938   4.921   5.933  0.6081 -0.8599 -0.7578
  118OSM    H1T12362   4.810   4.826   5.899 -0.4706 -0.6137 -0.3159
  118OSM     NF12363   4.734   4.958   6.105  0.3495 -0.3222 -0.4425
  118OSM    HNF12364   4.646   4.916   6.126  0.1199  0.3304 -0.0908
  118OSM    C2S12365   4.748   5.020   5.975 -0.0471 -0.4369  0.8601
  118OSM    H2S12366   4.797   5.119   5.988 -0.4600  0.2179 -2.1220
  118OSM    C3S12367   4.607   5.040   5.911  0.3713 -1.0554  0.2016
  118OSM    H3S12368   4.561   4.939   5.924 -1.8705  0.1905  2.5094
  118OSM     O312369   4.596   5.067   5.769  0.3071  0.5558  0.7748
  118OSM    HO312370   4.684   5.046   5.735  0.4619  1.5884  0.4980
  118OSM    C4S12371   4.523   5.129   5.994  0.3656  0.2896 -0.2065
  118OSM    H4S12372   4.532   5.236   5.972  0.0733  0.7302  1.7672
  118OSM    C5S12373   4.437   5.080   6.083  0.3957 -0.4488  1.4184
  118OSM    H5S12374   4.438   4.974   6.111  1.8921 -1.1719 -1.2539
  118OSM    C6S12375   4.356   5.176   6.166  0.5125 -0.0766  0.8625
  118OSM    H6S12376   4.348   5.134   6.268 -0.9211  0.6858  1.0792
  118OSM    H6T12377   4.248   5.187   6.141  0.7453  0.9078  0.2621
  118OSM    C7S12378   4.415   5.315   6.186  0.4116  0.5305  0.4871
  118OSM    H7S12379   4.404   5.363   6.087 -0.3052 -1.2211 -0.3086
  118OSM    H7T12380   4.520   5.297   6.216 -0.1187  0.6001  2.4755
  118OSM    C8S12381   4.342   5.409   6.286  0.8728 -0.5170 -0.1559
  118OSM    H8S12382   4.252   5.443   6.230  1.0735  2.9685  1.5284
  118OSM    H8T12383   4.393   5.505   6.310  0.1255 -0.1177 -0.1374
  118OSM    C9S12384   4.311   5.335   6.422  0.2369 -0.8979  0.2674
  118OSM    H9S12385   4.404   5.293   6.465  2.1673  0.5756 -2.3238
  118OSM    H9T12386   4.238   5.251   6.423 -2.4616  1.3806 -0.6077
  118OSM   C10S12387   4.257   5.437   6.531  0.5579  0.6018  0.1518
  118OSM   H10S12388   4.153   5.453   6.496  0.1808 -1.3015  0.3647
  118OSM   H10T12389   4.324   5.524   6.512  0.4702  0.6856  0.2224
  118OSM   C11S12390   4.258   5.379   6.677  0.1814  0.0658 -0.4125
  118OSM   H11S12391   4.359   5.349   6.714 -0.5243  0.2780  1.7295
  118OSM   H11T12392   4.208   5.280   6.675 -1.2700  0.7820 -0.3851
  118OSM   C12S12393   4.190   5.472   6.779  0.4862  0.0201  0.4562
  118OSM   H12S12394   4.086   5.504   6.757  0.6302 -0.6263 -1.2894
  118OSM   H12T12395   4.241   5.570   6.777  1.1255 -0.3138  0.3080
  118OSM   C13S12396   4.183   5.418   6.921  0.3031 -0.7795  0.2872
  118OSM   H13S12397   4.287   5.401   6.958  0.2004  2.6961  2.4251
  118OSM   H13T12398   4.121   5.328   6.937  1.9618 -1.4801  3.2649
  118OSM   C14S12399   4.116   5.522   7.009  0.0751  0.3632  0.0238
  118OSM   H14S12400   4.011   5.536   6.977  0.1272 -0.3218 -0.4466
  118OSM   H14T12401   4.162   5.621   6.991 -1.5638  1.2986  0.8029
  118OSM   C15S12402   4.111   5.479   7.155  0.0796  0.3585  0.0491
  118OSM   H15S12403   4.196   5.418   7.191 -1.0824 -0.6720  1.1097
  118OSM   H15T12404   4.033   5.400   7.154  1.6221 -1.1890  0.7766
  118OSM   C16S12405   4.084   5.589   7.252 -0.1229  0.2721  0.2339
  118OSM   H16S12406   3.998   5.654   7.225 -0.5571 -1.3181 -2.4193
  118OSM   H16T12407   4.172   5.655   7.267 -0.3353  0.4565  0.6880
  118OSM   C17S12408   4.057   5.513   7.380  0.0297 -0.3520 -0.1663
  118OSM   H17S12409   4.148   5.458   7.412 -0.2733 -0.7878 -0.0343
  118OSM   H17T12410   3.979   5.433   7.380  1.2139 -1.6380  3.5774
  118OSM   C18S12411   4.026   5.614   7.490 -0.3327  0.4247 -0.4776
  118OSM   H18S12412   4.095   5.701   7.484  0.2324  0.1384  1.5919
  118OSM   H18T12413   4.038   5.563   7.587 -1.0552  2.7122  0.8540
  118OSM   H18U12414   3.922   5.654   7.488 -0.4011  0.2097 -1.3450
  118OSM    C1F12415   4.830   4.971   6.191 -0.1176 -0.0288  0.4213
  118OSM     OF12416   4.934   5.020   6.164 -0.2651  0.0054 -0.1324
  118OSM    C2F12417   4.808   4.915   6.333 -0.0011  0.1219 -0.1534
  118OSM    H2F12418   4.890   4.964   6.389  1.3855 -1.5608 -0.6600
  118OSM    H2G12419   4.831   4.806   6.332 -2.1981 -0.3944  1.1467
  118OSM    C3F12420   4.672   4.962   6.399  0.1230  0.8990 -0.3166
  118OSM    H3F12421   4.579   4.923   6.353  0.7856 -1.6549  0.4643
  118OSM    H3G12422   4.669   5.074   6.399  2.0010  0.9605  0.7211
  118OSM    C4F12423   4.662   4.921   6.546  0.0847 -0.0559 -0.4653
  118OSM    H4F12424   4.756   4.952   6.598  1.8045  0.3032 -3.6742
  118OSM    H4G12425   4.642   4.812   6.553 -1.8763  0.2155 -1.6211
  118OSM    C5F12426   4.553   5.010   6.623 -0.6798  0.2665  0.0014
  118OSM    H5F12427   4.458   5.022   6.568 -0.5625  1.5433  0.0441
  118OSM    H5G12428   4.596   5.112   6.610 -0.6452 -0.0006 -2.0298
  118OSM    C6F12429   4.552   4.976   6.773  0.1402 -0.2635 -0.6610
  118OSM    H6F12430   4.652   4.949   6.811  0.1518  2.2601  1.2361
  118OSM    H6G12431   4.481   4.892   6.790  0.4391 -0.0744  1.5861
  118OSM    C7F12432   4.489   5.097   6.845  0.5591  0.5134 -0.2839
  118OSM    H7F12433   4.384   5.097   6.807  0.7819  0.4168 -0.9076
  118OSM    H7G12434   4.547   5.184   6.808 -1.0558  2.2435  1.0857
  118OSM    C8F12435   4.482   5.077   6.995  0.7106 -0.2651 -0.1917
  118OSM    H8F12436   4.588   5.094   7.024  0.6964  2.1889 -1.5170
  118OSM    H8G12437   4.450   4.972   7.010 -0.1609 -0.0219 -0.3340
  118OSM    C9F12438   4.414   5.174   7.086  0.4812 -0.2811  0.4172
  118OSM    H9F12439   4.310   5.192   7.056  0.6626 -0.1408 -0.1356
  118OSM   C10F12440   4.459   5.246   7.186 -0.7875  0.6942 -0.0994
  118OSM   H10F12441   4.387   5.316   7.231 -1.5720  0.3421 -0.7977
  118OSM   C11F12442   4.595   5.260   7.241  0.5638  0.8695 -0.5150
  118OSM   H11F12443   4.626   5.366   7.253  0.3740  1.1531 -2.3965
  118OSM   H11G12444   4.662   5.202   7.174 -0.5997 -0.2061 -0.7768
  118OSM   C12F12445   4.618   5.174   7.371  0.1890 -0.4994 -0.4298
  118OSM   H12F12446   4.728   5.165   7.381  0.6706  0.6644 -3.9367
  118OSM   H12G12447   4.581   5.069   7.359 -2.0014  0.1157  0.7392
  118OSM   C13F12448   4.555   5.237   7.497 -0.3129 -0.7077 -0.6519
  118OSM   H13F12449   4.447   5.258   7.491  0.4350  3.0128 -2.2410
  118OSM   H13G12450   4.605   5.336   7.506  3.2055 -2.5246  0.8865
  118OSM   C14F12451   4.583   5.162   7.626 -0.0334  1.2060 -0.5123
  118OSM   H14F12452   4.526   5.214   7.707  1.3086  2.3113 -0.2433
  118OSM   H14G12453   4.689   5.163   7.660 -0.8510  0.3348  2.2012
  118OSM   C15F12454   4.552   5.014   7.634  0.0512 -0.1637  0.1452
  118OSM   H15F12455   4.556   4.969   7.736  2.5945  0.8241  0.5154
  118OSM   H15G12456   4.617   4.946   7.575  0.0583  0.0647 -0.1112
  118OSM   C16F12457   4.396   4.992   7.613 -0.4842 -0.2405 -0.5516
  118OSM   H16F12458   4.377   5.040   7.515 -1.4196  3.2364  1.2783
  118OSM   H16G12459   4.340   5.043   7.694  1.3119  0.5264  0.2507
  118OSM   C17F12460   4.361   4.842   7.600 -0.1986 -0.5687 -0.7495
  118OSM   H17F12461   4.250   4.837   7.610 -0.2490  2.5628  0.6768
  118OSM   H17G12462   4.410   4.787   7.683 -0.2593 -1.6365 -1.4061
  118OSM   C18F12463   4.414   4.780   7.474  0.7949 -0.0572 -0.1260
  118OSM   H18F12464   4.525   4.780   7.465  0.8315 -0.8772  0.2801
  118OSM   H18G12465   4.381   4.834   7.383  1.6890 -1.8275 -1.5489
  118OSM   H18H12466   4.375   4.677   7.459  0.9282 -0.1790  0.3529
  119OSM      N12467   4.822   4.664   5.547 -0.7814 -0.3893 -0.0436
  119OSM    C1512468   4.808   4.533   5.478  0.0944 -0.8131 -0.3532
  119OSM   H15A12469   4.886   4.504   5.410  1.2571 -0.5472  0.8562
  119OSM   H15B12470   4.713   4.525   5.426 -0.6336  1.3542  0.6122
  119OSM   H15C12471   4.805   4.450   5.547 -0.1321  0.9614  1.8022
  119OSM    C1412472   4.835   4.771   5.447  0.5977 -0.0066 -0.7989
  119OSM   H14A12473   4.826   4.867   5.498 -0.3802 -0.8518  0.6680
  119OSM   H14B12474   4.761   4.774   5.368  0.0715 -1.6163 -0.3854
  119OSM   H14C12475   4.935   4.768   5.407  1.0148  1.0679  0.1127
  119OSM    C1312476   4.698   4.695   5.631  0.3560  0.1031  0.0819
  119OSM   H13A12477   4.609   4.720   5.576  1.1755 -2.4023 -2.5434
  119OSM   H13B12478   4.726   4.779   5.693  3.4066 -0.4075 -0.4996
  119OSM   H13C12479   4.682   4.614   5.700 -0.0250 -1.2163 -1.5087
  119OSM    C1212480   4.944   4.669   5.639  0.5204  0.6577 -0.0794
  119OSM   H12A12481   4.974   4.766   5.675  0.6825  0.7684 -0.5207
  119OSM   H12B12482   5.022   4.641   5.570 -0.3982  0.4147 -1.0270
  119OSM    C1112483   4.925   4.571   5.767 -0.1000 -0.0228  1.0897
  119OSM   H11A12484   4.895   4.472   5.726 -1.2441  1.2452 -1.2628
  119OSM   H11B12485   4.840   4.606   5.829 -1.6851  1.8786 -1.9998
  119OSM      P12486   5.163   4.487   5.759  0.1745  0.2457 -0.1585
  119OSM    O1312487   5.117   4.435   5.626  0.0135 -0.1660 -0.4318
  119OSM    O1412488   5.269   4.594   5.771  0.2464  0.0809 -0.1282
  119OSM    O1112489   5.196   4.364   5.856 -0.1431  0.3054 -0.0139
  119OSM    O1212490   5.042   4.560   5.838 -0.3320  0.8754 -0.0980
  119OSM    C1S12491   5.264   4.391   5.981 -0.2545 -0.0547 -0.2253
  119OSM    H1S12492   5.248   4.498   6.007 -0.2323  0.1219 -0.9296
  119OSM    H1T12493   5.370   4.360   5.980 -0.2444 -0.0346 -2.1282
  119OSM     NF12494   5.293   4.352   6.211  0.5635 -0.2167 -0.2057
  119OSM    HNF12495   5.378   4.300   6.224  0.3898  0.0877  2.4023
  119OSM    C2S12496   5.209   4.315   6.103 -0.6714 -0.3167  0.2776
  119OSM    H2S12497   5.106   4.349   6.123 -0.5456 -0.1657  0.6712
  119OSM    C3S12498   5.211   4.160   6.080  0.9489 -0.8924 -0.9111
  119OSM    H3S12499   5.318   4.133   6.070  1.3939  1.3636 -2.6078
  119OSM     O312500   5.134   4.122   5.963 -0.4819  0.2855  0.0348
  119OSM    HO312501   5.107   4.201   5.916 -1.4545  0.4629  0.8737
  119OSM    C4S12502   5.165   4.095   6.209  0.0317  0.3389  0.2936
  119OSM    H4S12503   5.240   4.043   6.270  0.6414 -0.1938 -0.8912
  119OSM    C5S12504   5.036   4.071   6.247  0.3867 -0.4702  0.4676
  119OSM    H5S12505   4.954   4.106   6.183 -0.3071 -0.4133  1.3811
  119OSM    C6S12506   4.996   3.993   6.372  0.6341 -0.2254  0.2755
  119OSM    H6S12507   4.992   3.883   6.353  2.2423  0.0648 -1.9803
  119OSM    H6T12508   4.894   4.029   6.397  0.8608  0.1492  0.6703
  119OSM    C7S12509   5.074   4.026   6.500  0.0704  0.2679  0.4669
  119OSM    H7S12510   5.068   4.136   6.517 -2.1985 -0.0063  1.6506
  119OSM    H7T12511   5.183   4.005   6.488 -0.0007 -0.0455  0.3886
  119OSM    C8S12512   5.024   3.948   6.626  0.5920  0.0359 -0.3088
  119OSM    H8S12513   5.107   3.947   6.699  0.6384 -2.5347 -0.3464
  119OSM    H8T12514   5.003   3.842   6.599 -1.3180  0.9479 -2.5741
  119OSM    C9S12515   4.896   4.003   6.688  0.0825  0.6323 -0.5115
  119OSM    H9S12516   4.807   3.973   6.629 -0.8003  0.4604  0.8694
  119OSM    H9T12517   4.918   4.112   6.698  2.6333  0.1585 -0.7116
  119OSM   C10S12518   4.870   3.938   6.826 -0.0920  0.4830 -0.4149
  119OSM   H10S12519   4.894   3.829   6.820  0.4163  0.6291 -1.0984
  119OSM   H10T12520   4.761   3.940   6.849  0.4473 -1.8749  2.8373
  119OSM   C11S12521   4.936   4.002   6.939  0.3127  0.0676  0.5296
  119OSM   H11S12522   4.901   4.107   6.948  0.2651  0.1757 -0.8089
  119OSM   H11T12523   5.045   4.007   6.921  0.2607 -0.4156  0.0623
  119OSM   C12S12524   4.908   3.949   7.076  0.0572 -0.0985 -0.1044
  119OSM   H12S12525   4.957   3.850   7.091  0.4381  0.2571  1.0241
  119OSM   H12T12526   4.799   3.933   7.093  0.3415 -0.8120  1.1087
  119OSM   C13S12527   4.963   4.039   7.191  0.6160 -0.0830  0.8930
  119OSM   H13S12528   4.916   4.139   7.191 -0.1821 -0.4360  3.1686
  119OSM   H13T12529   5.067   4.073   7.169  0.4825 -0.8029 -1.0020
  119OSM   C14S12530   4.945   3.979   7.326 -0.5450 -0.4780  0.5628
  119OSM   H14S12531   5.003   3.884   7.329  0.3763  0.0852  0.8353
  119OSM   H14T12532   4.837   3.958   7.338 -0.4245 -2.1242 -0.9475
  119OSM   C15S12533   4.999   4.059   7.445 -0.6006  0.6193  0.1649
  119OSM   H15S12534   5.109   4.073   7.439 -0.4720 -0.2281  0.5506
  119OSM   H15T12535   4.958   4.008   7.534 -1.3998 -0.5723 -0.8709
  119OSM   C16S12536   4.928   4.206   7.452  0.7167 -0.2419  0.1407
  119OSM   H16S12537   4.822   4.183   7.431  1.0077 -0.0504 -1.6207
  119OSM   H16T12538   4.969   4.267   7.369 -2.3823 -0.8632 -1.8981
  119OSM   C17S12539   4.940   4.281   7.593 -0.2803  0.2160  0.2529
  119OSM   H17S12540   4.919   4.387   7.568  0.1260  0.2547  0.0654
  119OSM   H17T12541   5.048   4.264   7.616  0.1596 -1.1771 -2.7210
  119OSM   C18S12542   4.849   4.233   7.704  0.1499 -1.1562 -0.1874
  119OSM   H18S12543   4.864   4.123   7.711 -0.6184 -1.3117 -0.8630
  119OSM   H18T12544   4.742   4.252   7.681  0.2458 -1.5191 -0.9647
  119OSM   H18U12545   4.877   4.281   7.799  1.3521 -1.3607 -0.4349
  119OSM    C1F12546   5.275   4.466   6.284  0.2021  0.6059  0.1706
  119OSM     OF12547   5.180   4.539   6.262 -0.2748 -0.7140  0.4036
  119OSM    C2F12548   5.378   4.493   6.384  0.0327 -0.0871 -0.1915
  119OSM    H2F12549   5.444   4.577   6.352 -1.2615  1.0085 -0.0228
  119OSM    H2G12550   5.447   4.408   6.403  1.1753  1.1625  1.4164
  119OSM    C3F12551   5.329   4.532   6.528 -0.2226 -0.0305  0.2837
  119OSM    H3F12552   5.274   4.629   6.527 -1.3906 -0.6867 -1.9202
  119OSM    H3G12553   5.420   4.561   6.585 -0.3805  3.6054 -1.1863
  119OSM    C4F12554   5.266   4.419   6.617 -0.1089  0.1331  0.8995
  119OSM    H4F12555   5.215   4.346   6.551 -0.4173  2.9823 -2.1867
  119OSM    H4G12556   5.188   4.464   6.682 -1.2982 -1.8465  0.8863
  119OSM    C5F12557   5.366   4.344   6.702 -0.4345 -0.0569  0.4888
  119OSM    H5F12558   5.420   4.414   6.770  0.1468  0.0104 -0.0342
  119OSM    H5G12559   5.448   4.303   6.638 -1.5467 -1.1324 -0.2650
  119OSM    C6F12560   5.311   4.223   6.785  0.4364  0.8570  0.1277
  119OSM    H6F12561   5.394   4.153   6.808 -0.6540 -0.0104  1.5474
  119OSM    H6G12562   5.244   4.179   6.707  1.2476  0.3314 -0.2762
  119OSM    C7F12563   5.240   4.258   6.918  1.0332  0.5812  0.1355
  119OSM    H7F12564   5.214   4.165   6.972  0.1333  1.0108  0.4681
  119OSM    H7G12565   5.140   4.296   6.887  1.0486 -1.0957 -2.0949
  119OSM    C8F12566   5.320   4.348   7.011  0.5972  0.1071 -0.4449
  119OSM    H8F12567   5.350   4.438   6.954  0.8187  0.0915 -0.3498
  119OSM    H8G12568   5.416   4.301   7.040  0.3049 -0.0421  0.2829
  119OSM    C9F12569   5.237   4.388   7.131 -0.0055 -0.4275  0.0494
  119OSM    H9F12570   5.128   4.393   7.115  0.1400  0.8208 -0.6099
  119OSM   C10F12571   5.278   4.399   7.261 -0.1253  0.2598 -0.2606
  119OSM   H10F12572   5.214   4.423   7.348  1.1260  0.5862  0.5799
  119OSM   C11F12573   5.428   4.382   7.297 -0.2331  0.1071 -0.5072
  119OSM   H11F12574   5.491   4.394   7.207  0.7231  0.9431  0.2569
  119OSM   H11G12575   5.450   4.283   7.341 -0.4753 -0.1134 -0.8785
  119OSM   C12F12576   5.487   4.500   7.386 -0.3309  0.4155  0.2056
  119OSM   H12F12577   5.471   4.590   7.323 -0.9207 -1.1271 -1.9340
  119OSM   H12G12578   5.596   4.491   7.405 -0.2391 -0.6297 -0.7645
  119OSM   C13F12579   5.428   4.525   7.517  0.0271 -0.6209 -0.3620
  119OSM   H13F12580   5.421   4.435   7.582 -1.2987 -1.2603 -1.3741
  119OSM   H13G12581   5.327   4.569   7.503  0.5450  0.4974 -0.6068
  119OSM   C14F12582   5.506   4.630   7.600 -0.2808  0.7443 -0.4867
  119OSM   H14F12583   5.447   4.661   7.689 -1.3629 -1.3270 -0.4506
  119OSM   H14G12584   5.523   4.722   7.540 -0.6600  0.7423 -0.5961
  119OSM   C15F12585   5.641   4.582   7.650  0.1777 -0.4422 -0.1039
  119OSM   H15F12586   5.642   4.471   7.653  2.2241 -0.4078  0.7648
  119OSM   H15G12587   5.649   4.611   7.757 -0.3341  0.7269 -0.3753
  119OSM   C16F12588   5.761   4.619   7.573  0.3839 -0.6131 -0.1317
  119OSM   H16F12589   5.736   4.634   7.466  1.8274 -1.2524 -0.5575
  119OSM   H16G12590   5.847   4.549   7.577  1.8028  1.0591 -0.7899
  119OSM   C17F12591   5.810   4.755   7.619 -0.9650  0.3010 -0.2327
  119OSM   H17F12592   5.837   4.743   7.726 -4.0234 -1.5651  0.3960
  119OSM   H17G12593   5.727   4.827   7.599 -0.3891  1.4947  1.5534
  119OSM   C18F12594   5.943   4.799   7.552 -0.1851 -0.2467 -0.4660
  119OSM   H18F12595   6.020   4.722   7.571 -1.9826 -2.3189 -1.4093
  119OSM   H18G12596   5.968   4.901   7.589  1.6937 -0.6356 -0.6562
  119OSM   H18H12597   5.936   4.795   7.442 -0.9634 -2.5367 -0.3630
  120OSM      N12598   3.095   2.044   5.679 -0.0324  0.1764  0.1332
  120OSM    C1512599   3.022   2.061   5.553 -0.0956  0.0059 -0.2048
  120OSM   H15A12600   2.921   2.029   5.572 -1.0289  2.6459 -0.4643
  120OSM   H15B12601   3.062   2.002   5.472  1.9798  3.0880 -1.5474
  120OSM   H15C12602   3.025   2.166   5.528 -0.7480 -0.2808 -1.5221
  120OSM    C1412603   3.031   2.142   5.763 -0.1556  0.0123  0.3360
  120OSM   H14A12604   2.928   2.122   5.789 -0.2257 -0.7933 -0.5278
  120OSM   H14B12605   3.037   2.242   5.721  0.5417  0.6600  1.9413
  120OSM   H14C12606   3.092   2.149   5.852 -2.6699  0.1767  2.1027
  120OSM    C1312607   3.066   1.907   5.734 -0.0934 -0.6534 -0.2846
  120OSM   H13A12608   2.964   1.872   5.739 -0.6410  0.8392 -0.7653
  120OSM   H13B12609   3.109   1.895   5.832 -0.5814  2.8128  0.4135
  120OSM   H13C12610   3.107   1.830   5.669 -1.0163 -1.9327  0.6121
  120OSM    C1212611   3.252   2.064   5.668 -0.2413  0.4647  0.3609
  120OSM   H12A12612   3.268   2.157   5.616 -0.6740  1.0525  1.2650
  120OSM   H12B12613   3.300   1.986   5.611  3.5016  3.2725 -0.5372
  120OSM    C1112614   3.345   2.071   5.793  0.1352 -0.1958  0.4209
  120OSM   H11A12615   3.319   2.151   5.865  0.2190 -1.1068  1.4822
  120OSM   H11B12616   3.449   2.074   5.754  0.1526  1.2398  0.5621
  120OSM      P12617   3.398   1.820   5.833 -0.1358 -0.6551 -0.3530
  120OSM    O1312618   3.334   1.706   5.904  0.2408 -0.2567  0.5095
  120OSM    O1412619   3.397   1.810   5.682 -0.2861 -0.5262 -0.2467
  120OSM    O1112620   3.541   1.842   5.868  0.1490  0.3224  0.8785
  120OSM    O1212621   3.327   1.953   5.873  0.1925 -0.5801 -0.6348
  120OSM    C1S12622   3.591   1.865   6.002 -0.0473  0.4465  0.6128
  120OSM    H1S12623   3.610   1.772   6.059 -2.5275  0.3647  1.3873
  120OSM    H1T12624   3.524   1.932   6.060  1.2315  0.7371  1.7757
  120OSM     NF12625   3.746   1.961   6.157 -0.0044  0.8330  0.6565
  120OSM    HNF12626   3.723   2.054   6.184  0.6799  1.0892  0.3877
  120OSM    C2S12627   3.734   1.926   6.013  0.0935  0.4254  0.4144
  120OSM    H2S12628   3.804   1.844   5.987 -2.0454 -2.4765  3.3510
  120OSM    C3S12629   3.752   2.039   5.912  0.1537 -0.4948 -1.0691
  120OSM    H3S12630   3.671   2.114   5.918  2.0420  1.5182 -0.0148
  120OSM     O312631   3.752   2.005   5.777  0.1639 -0.3243 -0.1340
  120OSM    HO312632   3.703   1.922   5.778  0.3977 -0.4551  0.3876
  120OSM    C4S12633   3.886   2.111   5.921 -0.1811  1.2546 -0.1864
  120OSM    H4S12634   3.971   2.075   5.862  0.8259 -1.5248  2.8328
  120OSM    C5S12635   3.903   2.226   5.994 -0.4165  0.0215 -0.5080
  120OSM    H5S12636   3.825   2.264   6.062 -0.5158 -3.0522  1.1888
  120OSM    C6S12637   4.042   2.289   6.013 -1.0840 -0.0795  0.2636
  120OSM    H6S12638   4.034   2.358   6.099 -1.6048 -2.1195  1.8913
  120OSM    H6T12639   4.063   2.361   5.931 -3.1475  0.0854 -0.1590
  120OSM    C7S12640   4.174   2.207   6.028  0.4939  0.1742 -0.0260
  120OSM    H7S12641   4.255   2.283   6.032 -0.0799  0.9227 -1.9062
  120OSM    H7T12642   4.192   2.143   5.939 -1.4534  0.0600 -0.3754
  120OSM    C8S12643   4.186   2.115   6.159 -0.6795 -0.7527  0.4623
  120OSM    H8S12644   4.288   2.072   6.152 -0.5529 -0.1739 -1.9687
  120OSM    H8T12645   4.105   2.038   6.153  0.0311 -1.5300  0.8424
  120OSM    C9S12646   4.170   2.188   6.294  0.2278  0.7786 -0.0868
  120OSM    H9S12647   4.073   2.242   6.289  0.3055  0.7977 -2.0077
  120OSM    H9T12648   4.257   2.250   6.324  2.7080 -2.8272  0.4053
  120OSM   C10S12649   4.152   2.096   6.413 -0.2699  0.4974 -0.1572
  120OSM   H10S12650   4.238   2.026   6.421 -0.8980 -0.2408  0.0791
  120OSM   H10T12651   4.068   2.025   6.401  0.0001  0.4907 -2.1921
  120OSM   C11S12652   4.136   2.175   6.539 -0.3394 -0.1151 -0.1401
  120OSM   H11S12653   4.078   2.134   6.624  0.0517  1.2850  0.8276
  120OSM   H11T12654   4.091   2.274   6.517 -1.6848 -0.7289 -0.1956
  120OSM   C12S12655   4.268   2.207   6.617  0.1274  0.2090 -0.8775
  120OSM   H12S12656   4.238   2.290   6.684 -2.0653 -0.6047 -0.7952
  120OSM   H12T12657   4.349   2.245   6.551 -1.4578  2.3958 -1.6562
  120OSM   C13S12658   4.324   2.093   6.697 -0.6871 -0.5483 -0.1987
  120OSM   H13S12659   4.419   2.122   6.747 -0.5666 -1.1193 -0.0910
  120OSM   H13T12660   4.355   2.014   6.625 -0.4624 -0.4635 -0.1970
  120OSM   C14S12661   4.234   2.035   6.809  0.7697 -0.2929  0.3217
  120OSM   H14S12662   4.131   2.015   6.773  0.9080 -0.1784 -0.1484
  120OSM   H14T12663   4.211   2.117   6.881 -0.3237  2.8551 -3.4162
  120OSM   C15S12664   4.274   1.915   6.895 -0.1760  0.8772  1.2346
  120OSM   H15S12665   4.189   1.893   6.964 -1.1224 -1.0125 -0.4837
  120OSM   H15T12666   4.370   1.948   6.941  3.0663 -2.0573 -3.0846
  120OSM   C16S12667   4.317   1.785   6.811 -0.9681 -0.1989 -0.4452
  120OSM   H16S12668   4.338   1.802   6.703 -0.5584  0.8451 -0.2002
  120OSM   H16T12669   4.227   1.720   6.810 -0.2162 -1.2451 -1.0032
  120OSM   C17S12670   4.440   1.709   6.866 -0.2324 -0.1719  0.0896
  120OSM   H17S12671   4.537   1.761   6.851 -0.0452 -0.0474  1.6139
  120OSM   H17T12672   4.447   1.615   6.807  0.0713  0.2890 -0.6081
  120OSM   C18S12673   4.427   1.672   7.015  0.1765 -0.6713  0.1971
  120OSM   H18S12674   4.439   1.765   7.073 -0.0867 -0.9462  0.6958
  120OSM   H18T12675   4.511   1.605   7.043 -0.1663 -0.5141  1.6548
  120OSM   H18U12676   4.323   1.639   7.037  0.0020 -1.4549 -1.7283
  120OSM    C1F12677   3.774   1.873   6.242  0.6115  0.8091 -0.3259
  120OSM     OF12678   3.803   1.759   6.203 -0.1826  0.6600  0.6025
  120OSM    C2F12679   3.765   1.911   6.385 -0.4565  0.1600 -0.2561
  120OSM    H2F12680   3.738   2.017   6.403  0.1304  0.4373 -0.9567
  120OSM    H2G12681   3.869   1.893   6.420 -0.3498 -1.5783 -1.3960
  120OSM    C3F12682   3.670   1.831   6.478 -0.0184 -0.6458 -0.2023
  120OSM    H3F12683   3.673   1.723   6.453 -2.6252 -0.7449 -0.2162
  120OSM    H3G12684   3.565   1.864   6.465 -0.9435 -2.7922  1.5535
  120OSM    C4F12685   3.704   1.838   6.627 -0.1982 -0.6223  0.3793
  120OSM    H4F12686   3.623   1.802   6.693 -0.7848 -2.5899 -1.3638
  120OSM    H4G12687   3.722   1.944   6.654  0.1459 -0.4480 -0.5156
  120OSM    C5F12688   3.838   1.772   6.670  0.2127 -0.2429  0.2130
  120OSM    H5F12689   3.924   1.839   6.650  0.2404  0.4379  2.5048
  120OSM    H5G12690   3.846   1.674   6.618  0.1526 -0.1935  0.1100
  120OSM    C6F12691   3.840   1.743   6.827  0.4167  0.0886  0.2478
  120OSM    H6F12692   3.945   1.719   6.850 -0.4437 -2.7009  1.3732
  120OSM    H6G12693   3.781   1.652   6.850 -0.4379  0.2977 -1.0001
  120OSM    C7F12694   3.792   1.851   6.920 -0.5795  0.1871 -0.4725
  120OSM    H7F12695   3.687   1.872   6.890 -0.4086 -0.6352 -1.6654
  120OSM    H7G12696   3.844   1.949   6.912 -1.0850  0.7790  2.6557
  120OSM    C8F12697   3.803   1.814   7.073  0.3716 -0.1657  0.5559
  120OSM    H8F12698   3.722   1.742   7.098 -0.3447  0.9970  1.6663
  120OSM    H8G12699   3.771   1.902   7.134  2.0543 -0.9037  2.5466
  120OSM    C9F12700   3.930   1.749   7.125  1.0648 -0.5725 -0.3738
  120OSM    H9F12701   4.003   1.733   7.045  0.1238  3.4671 -2.1747
  120OSM   C10F12702   3.952   1.719   7.256 -0.5165 -0.3454  0.0102
  120OSM   H10F12703   4.043   1.659   7.272  0.7138  1.0924 -1.3121
  120OSM   C11F12704   3.870   1.749   7.378 -0.0078 -0.2071 -1.2073
  120OSM   H11F12705   3.882   1.679   7.463  1.2398  2.4880  0.9304
  120OSM   H11G12706   3.764   1.737   7.350 -0.5731  1.4447  0.1284
  120OSM   C12F12707   3.896   1.894   7.429 -0.7539  0.2582 -0.2360
  120OSM   H12F12708   3.863   1.964   7.349 -0.5770  1.0531  0.3892
  120OSM   H12G12709   4.004   1.902   7.450 -1.1194  1.7070  1.1566
  120OSM   C13F12710   3.829   1.926   7.561 -0.2099 -0.6938 -0.0423
  120OSM   H13F12711   3.847   1.850   7.640  1.1888  1.0108  1.3380
  120OSM   H13G12712   3.724   1.923   7.525 -0.5251 -0.9334  0.8720
  120OSM   C14F12713   3.858   2.066   7.619  0.2517  0.6210  0.3793
  120OSM   H14F12714   3.772   2.104   7.678  1.5442  2.3228  1.2116
  120OSM   H14G12715   3.884   2.131   7.532  0.0154 -0.2628 -0.3574
  120OSM   C15F12716   3.976   2.061   7.718  0.8161  0.3725  0.4950
  120OSM   H15F12717   4.064   2.036   7.655  1.8206 -0.1383  2.0474
  120OSM   H15G12718   3.956   1.978   7.789 -0.4502 -0.7775 -1.1719
  120OSM   C16F12719   4.005   2.198   7.789 -0.2976  0.8292  0.8720
  120OSM   H16F12720   3.977   2.277   7.715  2.8274  0.5506 -0.6618
  120OSM   H16G12721   4.113   2.218   7.807 -0.0710  0.3101  0.0978
  120OSM   C17F12722   3.933   2.201   7.923 -0.5620 -0.7843  0.0795
  120OSM   H17F12723   3.969   2.116   7.986 -0.3632  0.1594  1.2543
  120OSM   H17G12724   3.827   2.175   7.903 -0.7637 -0.1475  0.3167
  120OSM   C18F12725   3.926   2.335   8.004 -0.5024  0.0510 -0.1955
  120OSM   H18F12726   4.028   2.370   8.032  0.1111 -1.9047  0.0786
  120OSM   H18G12727   3.880   2.313   8.102 -0.0270 -1.5114 -0.3150
  120OSM   H18H12728   3.874   2.421   7.957 -0.7570 -0.2461 -0.4610
  121OSM      N12729   5.328   4.091   5.553 -0.0314 -0.0679  0.3087
  121OSM    C1512730   5.195   4.052   5.502  0.2746 -0.4905  0.7472
  121OSM   H15A12731   5.158   3.964   5.554 -0.2636 -0.7211 -0.0294
  121OSM   H15B12732   5.206   4.035   5.396 -0.6537  0.6157  0.4661
  121OSM   H15C12733   5.131   4.137   5.518  1.0927  0.4851 -1.0560
  121OSM    C1412734   5.438   4.002   5.495  0.3738 -0.6312 -0.0133
  121OSM   H14A12735   5.535   4.029   5.533 -0.4043  1.5194  0.5340
  121OSM   H14B12736   5.437   4.012   5.388 -5.1010 -1.6151 -0.2385
  121OSM   H14C12737   5.417   3.898   5.517  0.7580 -0.6577  0.2326
  121OSM    C1312738   5.356   4.230   5.510 -0.6196 -0.9569 -0.1628
  121OSM   H13A12739   5.445   4.281   5.544 -0.8180  0.0546 -1.1694
  121OSM   H13B12740   5.277   4.296   5.542  1.5485  1.6068  0.1468
  121OSM   H13C12741   5.359   4.238   5.403 -1.2049  0.2810 -0.0917
  121OSM    C1212742   5.330   4.080   5.702  0.2393  0.6792  0.2913
  121OSM   H12A12743   5.345   3.973   5.711  0.4455  0.7675  0.9521
  121OSM   H12B12744   5.238   4.121   5.742 -1.9515 -1.8004 -1.9497
  121OSM    C1112745   5.447   4.143   5.779  0.3166 -0.6046  0.3912
  121OSM   H11A12746   5.423   4.125   5.887 -0.8663  2.4441  0.6661
  121OSM   H11B12747   5.435   4.251   5.757 -2.2645 -0.6802  1.2195
  121OSM      P12748   5.648   3.975   5.793 -0.0219  0.2516 -0.6652
  121OSM    O1312749   5.578   3.855   5.746  0.0567  0.5967  0.9739
  121OSM    O1412750   5.792   3.984   5.760  0.3395  0.3844  0.1021
  121OSM    O1112751   5.629   3.990   5.947  0.4774 -0.7180  0.0821
  121OSM    O1212752   5.568   4.101   5.730 -0.3525 -0.5667 -0.7906
  121OSM    C1S12753   5.698   4.080   6.030  0.5831 -0.8426 -0.1757
  121OSM    H1S12754   5.637   4.172   6.031  1.3697 -0.3219  0.3771
  121OSM    H1T12755   5.796   4.113   5.989  0.1973  0.9326  0.3298
  121OSM     NF12756   5.735   4.105   6.282 -0.1053 -0.3667  0.2682
  121OSM    HNF12757   5.830   4.094   6.310  0.4433  2.4753 -0.3155
  121OSM    C2S12758   5.711   4.016   6.167 -0.2532 -0.3305  0.2903
  121OSM    H2S12759   5.615   3.964   6.187  0.0461 -0.5024  1.3336
  121OSM    C3S12760   5.812   3.902   6.155 -0.4768  0.8128  0.2181
  121OSM    H3S12761   5.915   3.941   6.139 -0.4000  0.3615 -0.3963
  121OSM     O312762   5.800   3.807   6.050  0.3800  0.1799 -0.5579
  121OSM    HO312763   5.746   3.859   5.990  1.8040  1.2553 -0.9338
  121OSM    C4S12764   5.803   3.815   6.280 -0.0068 -0.1335 -0.0648
  121OSM    H4S12765   5.703   3.786   6.314 -0.0077  1.1349  1.0813
  121OSM    C5S12766   5.907   3.780   6.363  0.5905 -0.6974 -0.0299
  121OSM    H5S12767   6.009   3.815   6.344  0.6390 -0.4349  0.7175
  121OSM    C6S12768   5.886   3.689   6.485  0.9484  0.0339 -0.2286
  121OSM    H6S12769   5.958   3.604   6.485 -0.2389 -1.0029 -1.5258
  121OSM    H6T12770   5.783   3.649   6.478  1.2174 -0.4353 -1.7345
  121OSM    C7S12771   5.890   3.772   6.614  0.1201  0.3937  0.1835
  121OSM    H7S12772   5.824   3.861   6.616  3.4156  2.9390 -0.6317
  121OSM    H7T12773   5.993   3.813   6.610 -0.1984  1.5086  2.9074
  121OSM    C8S12774   5.860   3.679   6.744 -0.6813  0.2701  0.9412
  121OSM    H8S12775   5.922   3.589   6.721 -1.9689 -0.8066  1.5619
  121OSM    H8T12776   5.751   3.660   6.734 -0.3716 -1.7563  1.1261
  121OSM    C9S12777   5.888   3.753   6.877  0.0108  0.2991  0.2438
  121OSM    H9S12778   5.823   3.843   6.887 -1.9559 -0.9315 -0.9896
  121OSM    H9T12779   5.990   3.796   6.874 -0.1249  0.5736 -0.6416
  121OSM   C10S12780   5.874   3.660   6.995 -0.1095 -0.1604  0.3441
  121OSM   H10S12781   5.927   3.567   6.964 -1.1485 -1.6126  2.7405
  121OSM   H10T12782   5.769   3.625   7.004  0.4448 -1.5589  1.7130
  121OSM   C11S12783   5.927   3.712   7.126  0.1150  0.3854  1.2708
  121OSM   H11S12784   5.877   3.808   7.152  1.6179  2.2316 -2.2432
  121OSM   H11T12785   6.032   3.738   7.097  0.0704  2.7662  3.1121
  121OSM   C12S12786   5.918   3.630   7.251  0.3806  0.3125  0.3102
  121OSM   H12S12787   5.815   3.589   7.264 -1.2398  2.7301 -3.7621
  121OSM   H12T12788   5.947   3.688   7.341 -0.1407 -0.7981  1.2076
  121OSM   C13S12789   6.020   3.509   7.255 -0.0818 -0.3308  0.2982
  121OSM   H13S12790   6.104   3.562   7.206 -0.4674  0.7673  0.7952
  121OSM   H13T12791   5.994   3.429   7.183  0.0675 -0.8614  0.8295
  121OSM   C14S12792   6.061   3.449   7.388 -0.2923 -0.3081  0.3835
  121OSM   H14S12793   6.096   3.517   7.469  0.7068 -3.7204  2.9614
  121OSM   H14T12794   6.135   3.367   7.372 -0.3338 -0.7597  2.3413
  121OSM   C15S12795   5.931   3.386   7.461  0.8251 -0.0065 -1.0908
  121OSM   H15S12796   5.875   3.320   7.392  1.2138 -2.5467  0.9515
  121OSM   H15T12797   5.860   3.469   7.480  1.4383  0.0621  0.9941
  121OSM   C16S12798   5.963   3.308   7.596 -0.3458  0.1090  0.0396
  121OSM   H16S12799   6.028   3.223   7.567 -1.1393 -0.2690 -0.6490
  121OSM   H16T12800   5.867   3.270   7.639 -2.4829  2.3616 -2.5574
  121OSM   C17S12801   6.035   3.387   7.700  0.4604 -0.0163  0.1388
  121OSM   H17S12802   5.985   3.486   7.708  2.1656  0.7753  1.1899
  121OSM   H17T12803   6.141   3.412   7.679  0.7314 -1.1052  0.1769
  121OSM   C18S12804   6.030   3.308   7.826  0.1804 -0.6155  0.2838
  121OSM   H18S12805   6.093   3.216   7.817  2.3642  0.8551  0.1528
  121OSM   H18T12806   5.934   3.253   7.837  0.1172 -0.9241 -1.7159
  121OSM   H18U12807   6.052   3.364   7.920 -1.7108  2.4174 -1.0149
  121OSM    C1F12808   5.648   4.197   6.324 -0.3351  0.6071 -0.6906
  121OSM     OF12809   5.552   4.230   6.263 -0.2615 -0.3018  0.0976
  121OSM    C2F12810   5.704   4.277   6.438  1.3781 -0.3675  0.2513
  121OSM    H2F12811   5.637   4.353   6.483  1.8398 -1.2417  2.4710
  121OSM    H2G12812   5.795   4.331   6.403  1.3252 -1.1993 -1.2067
  121OSM    C3F12813   5.734   4.186   6.561 -0.3583  0.2649 -1.1383
  121OSM    H3F12814   5.822   4.120   6.553  0.1939  0.4208  2.8770
  121OSM    H3G12815   5.647   4.122   6.586  1.3295 -0.7911  2.2340
  121OSM    C4F12816   5.766   4.285   6.688  1.0706  0.4902  0.1554
  121OSM    H4F12817   5.697   4.372   6.691  1.7409  0.9893  1.9420
  121OSM    H4G12818   5.870   4.325   6.688  1.7012 -1.0748 -2.5694
  121OSM    C5F12819   5.737   4.211   6.819  0.9814  0.2658  0.4309
  121OSM    H5F12820   5.770   4.105   6.817 -0.7394 -0.2600 -1.6141
  121OSM    H5G12821   5.629   4.206   6.841  0.7634  2.7661  0.0519
  121OSM    C6F12822   5.819   4.275   6.928 -0.4642  0.6741  0.3157
  121OSM    H6F12823   5.807   4.385   6.929 -1.6534  0.5703  3.3994
  121OSM    H6G12824   5.929   4.258   6.924 -0.4675  0.0774  2.3270
  121OSM    C7F12825   5.774   4.224   7.069 -0.3085  0.0636  0.2445
  121OSM    H7F12826   5.799   4.117   7.081  0.3001  0.4048  2.1050
  121OSM    H7G12827   5.666   4.248   7.066 -0.3334 -0.1588 -1.5015
  121OSM    C8F12828   5.849   4.306   7.171 -0.1424  0.2321 -0.2399
  121OSM    H8F12829   5.854   4.411   7.136 -2.5605  0.6370  0.4758
  121OSM    H8G12830   5.950   4.261   7.162 -0.4693 -0.8343  1.1480
  121OSM    C9F12831   5.804   4.283   7.309  0.6328 -0.7194 -0.4340
  121OSM    H9F12832   5.713   4.339   7.336 -0.3373 -1.3695 -2.2973
  121OSM   C10F12833   5.862   4.200   7.397 -0.1627 -0.1608  0.5596
  121OSM   H10F12834   5.813   4.203   7.495  0.0793  2.9803  0.6514
  121OSM   C11F12835   5.979   4.108   7.382 -0.2598 -0.0209 -0.6584
  121OSM   H11F12836   6.070   4.137   7.437 -0.5830 -1.9928  0.9735
  121OSM   H11G12837   6.007   4.098   7.275 -0.5303  0.3261 -0.7628
  121OSM   C12F12838   5.937   3.973   7.436  0.6766 -0.6245 -0.1871
  121OSM   H12F12839   6.019   3.908   7.399 -0.9920 -3.3261  0.7115
  121OSM   H12G12840   5.842   3.935   7.394  0.5771 -2.2396  1.4365
  121OSM   C13F12841   5.926   3.970   7.585 -0.1380 -0.0611 -0.0866
  121OSM   H13F12842   5.831   4.025   7.602 -0.5548 -0.7261 -0.2240
  121OSM   H13G12843   6.018   4.014   7.629 -0.4232 -0.7622  1.2453
  121OSM   C14F12844   5.905   3.840   7.657 -0.5508  0.0288  0.0451
  121OSM   H14F12845   5.895   3.856   7.766  2.0615 -2.0815  0.6402
  121OSM   H14G12846   5.993   3.775   7.640 -0.6997 -0.3953  0.8895
  121OSM   C15F12847   5.775   3.762   7.603 -0.7793 -0.3784 -0.7680
  121OSM   H15F12848   5.799   3.711   7.507 -1.1730 -1.3883 -0.3272
  121OSM   H15G12849   5.696   3.839   7.588 -1.5088 -1.5888 -3.5692
  121OSM   C16F12850   5.733   3.657   7.703  0.2732  0.2290  0.2135
  121OSM   H16F12851   5.729   3.701   7.805 -0.1208  3.7916 -1.2634
  121OSM   H16G12852   5.824   3.594   7.710 -0.4849 -1.0335 -0.9557
  121OSM   C17F12853   5.617   3.568   7.669 -0.0741  0.2103 -1.0324
  121OSM   H17F12854   5.622   3.522   7.568  2.7329 -1.1566 -0.2974
  121OSM   H17G12855   5.525   3.630   7.667  0.1644  0.7630  2.4824
  121OSM   C18F12856   5.586   3.459   7.770  0.3391  0.2649  1.2233
  121OSM   H18F12857   5.666   3.383   7.786  1.1778  0.3735 -2.1261
  121OSM   H18G12858   5.499   3.400   7.735  0.0703  1.0130  0.6363
  121OSM   H18H12859   5.552   3.503   7.866 -3.5216  0.8250 -0.3189
  122OSM      N12860   2.629   5.416   5.714  0.5503  0.7049  1.0131
  122OSM    C1512861   2.740   5.390   5.616 -0.5394  1.4567  0.0073
  122OSM   H15A12862   2.780   5.290   5.629  1.2744  2.1694  0.0093
  122OSM   H15B12863   2.816   5.462   5.640  0.3535  0.2555  0.8060
  122OSM   H15C12864   2.710   5.402   5.513 -1.3661 -0.2581  0.0157
  122OSM    C1412865   2.530   5.309   5.681  0.3436 -0.1071  0.0278
  122OSM   H14A12866   2.523   5.299   5.574  0.1260  1.9195 -0.1622
  122OSM   H14B12867   2.437   5.324   5.734 -0.0354 -1.6592 -0.1743
  122OSM   H14C12868   2.565   5.210   5.708 -0.6292 -0.6578 -0.6938
  122OSM    C1312869   2.684   5.401   5.850  0.0459  0.4978  0.2941
  122OSM   H13A12870   2.754   5.477   5.880  0.3689  1.2634 -2.2833
  122OSM   H13B12871   2.735   5.306   5.854 -0.1124  0.1878 -3.0481
  122OSM   H13C12872   2.609   5.394   5.927 -1.1364 -3.6662 -1.0918
  122OSM    C1212873   2.566   5.552   5.702  0.3251 -0.1925  0.3009
  122OSM   H12A12874   2.515   5.553   5.607  0.2355 -0.8580  0.3402
  122OSM   H12B12875   2.648   5.622   5.693  1.9187 -2.0012  0.5481
  122OSM    C1112876   2.465   5.604   5.811 -0.6935  0.0821  0.0771
  122OSM   H11A12877   2.434   5.702   5.770  1.7693  1.2514  0.9203
  122OSM   H11B12878   2.514   5.636   5.905  0.0774  1.7182 -0.8529
  122OSM      P12879   2.215   5.553   5.797  0.0274 -0.5128 -0.4533
  122OSM    O1312880   2.199   5.615   5.664 -0.4076  0.2057 -0.2179
  122OSM    O1412881   2.122   5.443   5.834  0.1106  0.1889 -0.2786
  122OSM    O1112882   2.190   5.668   5.895  0.4672 -0.4000 -0.4225
  122OSM    O1212883   2.362   5.515   5.830 -0.1935  0.4542 -0.0841
  122OSM    C1S12884   2.184   5.657   6.040 -0.3645 -0.2947  0.6100
  122OSM    H1S12885   2.160   5.552   6.066  0.7688 -1.1233 -1.5409
  122OSM    H1T12886   2.098   5.718   6.076 -0.4760  0.2806 -0.6171
  122OSM     NF12887   2.295   5.699   6.251  0.4251 -0.1932 -0.7241
  122OSM    HNF12888   2.275   5.784   6.299  1.4329 -0.6417  0.5364
  122OSM    C2S12889   2.313   5.715   6.108  0.1834 -0.7660  0.3366
  122OSM    H2S12890   2.396   5.650   6.071  1.6969  2.1585 -1.5463
  122OSM    C3S12891   2.341   5.862   6.062  0.3091 -0.8111 -0.2237
  122OSM    H3S12892   2.255   5.930   6.082  1.1471  0.3293 -0.4249
  122OSM     O312893   2.363   5.882   5.926 -0.2605  0.9313  0.5483
  122OSM    HO312894   2.330   5.801   5.887  1.3260  0.4589  0.1666
  122OSM    C4S12895   2.462   5.916   6.137 -0.3356  0.0273 -0.3460
  122OSM    H4S12896   2.429   5.964   6.230  2.4464  0.6999  0.3376
  122OSM    C5S12897   2.593   5.902   6.108 -0.0702 -0.3419 -0.1142
  122OSM    H5S12898   2.624   5.836   6.026  0.7066  0.8461 -0.7852
  122OSM    C6S12899   2.708   5.951   6.188  0.5384  0.4796 -0.1951
  122OSM    H6S12900   2.765   6.029   6.134  0.2886  0.7933 -0.0060
  122OSM    H6T12901   2.785   5.873   6.202 -1.1849 -0.8964  2.0377
  122OSM    C7S12902   2.685   5.993   6.340 -0.3349 -0.4606 -0.3394
  122OSM    H7S12903   2.637   5.909   6.395  0.5707 -0.2003  0.8769
  122OSM    H7T12904   2.603   6.068   6.339  0.7254  0.7574  1.0791
  122OSM    C8S12905   2.804   6.034   6.421 -0.0950 -0.5717  0.8775
  122OSM    H8S12906   2.863   6.096   6.350 -0.0082 -0.3914  1.1084
  122OSM    H8T12907   2.855   5.942   6.458  1.7052  0.1054  0.1416
  122OSM    C9S12908   2.780   6.117   6.546 -0.1771 -0.3148  0.3483
  122OSM    H9S12909   2.718   6.050   6.610 -0.8579 -1.4146 -1.4206
  122OSM    H9T12910   2.720   6.208   6.526  0.6734  0.1424 -0.1287
  122OSM   C10S12911   2.905   6.158   6.622  0.2766 -0.3489  0.6935
  122OSM   H10S12912   2.969   6.199   6.541 -0.7857  1.1296  0.5770
  122OSM   H10T12913   2.956   6.069   6.666 -0.0339 -1.2642 -0.7567
  122OSM   C11S12914   2.876   6.264   6.733 -0.2145  0.2050  0.0343
  122OSM   H11S12915   2.777   6.234   6.773 -0.2704  0.0700 -0.2012
  122OSM   H11T12916   2.856   6.368   6.699 -2.4027 -0.2187 -0.0175
  122OSM   C12S12917   2.974   6.280   6.856  0.3063  0.1552 -0.7483
  122OSM   H12S12918   3.076   6.304   6.817  0.7710 -0.4397  0.0936
  122OSM   H12T12919   2.983   6.183   6.909 -1.8978  0.5896  0.4924
  122OSM   C13S12920   2.931   6.397   6.956 -0.1380 -0.3335 -0.2130
  122OSM   H13S12921   2.831   6.382   7.002 -0.4939 -0.9214 -1.1488
  122OSM   H13T12922   2.922   6.486   6.890 -1.8259  1.0375  1.7808
  122OSM   C14S12923   3.037   6.410   7.067  0.2642  0.2419  0.2762
  122OSM   H14S12924   3.020   6.504   7.124  1.7018  1.1947 -0.8361
  122OSM   H14T12925   3.135   6.418   7.015  1.0853 -3.3656  1.0987
  122OSM   C15S12926   3.031   6.290   7.163  0.5862 -0.3285 -0.4320
  122OSM   H15S12927   3.035   6.194   7.108 -0.9501 -0.8729  0.4103
  122OSM   H15T12928   2.940   6.289   7.226  2.1303  1.5394  1.9434
  122OSM   C16S12929   3.153   6.293   7.251 -0.4915 -0.3782 -0.1299
  122OSM   H16S12930   3.144   6.381   7.318 -1.0384 -0.7867  0.3253
  122OSM   H16T12931   3.244   6.315   7.190  0.1196 -0.4715  0.7494
  122OSM   C17S12932   3.170   6.167   7.336  0.0247 -1.0136  0.3634
  122OSM   H17S12933   3.086   6.164   7.409 -0.9526  1.0257 -0.6314
  122OSM   H17T12934   3.269   6.179   7.384  0.3740 -0.5050 -0.4658
  122OSM   C18S12935   3.178   6.033   7.263 -0.2754  0.7567  0.7776
  122OSM   H18S12936   3.190   5.956   7.341 -2.2335 -1.3563 -0.9144
  122OSM   H18T12937   3.260   6.030   7.189  0.7699 -0.3927  1.9717
  122OSM   H18U12938   3.081   6.007   7.215  0.5234 -1.3317  0.2427
  122OSM    C1F12939   2.292   5.584   6.319 -0.1270 -0.5116  0.2992
  122OSM     OF12940   2.297   5.474   6.258  0.8504 -0.4185 -0.4591
  122OSM    C2F12941   2.289   5.584   6.470  0.0177 -0.2238  0.3717
  122OSM    H2F12942   2.384   5.540   6.506  0.5882 -0.2750 -1.1457
  122OSM    H2G12943   2.215   5.505   6.493 -0.6126  0.3147  0.2347
  122OSM    C3F12944   2.252   5.719   6.539  0.3957 -0.5364  0.5512
  122OSM    H3F12945   2.148   5.722   6.500  1.0312 -1.1555 -1.2235
  122OSM    H3G12946   2.318   5.791   6.486 -1.2448  0.6009  0.0002
  122OSM    C4F12947   2.243   5.725   6.696 -0.6249 -0.1345 -0.2597
  122OSM    H4F12948   2.177   5.645   6.736 -1.8761  1.0827  0.1900
  122OSM    H4G12949   2.190   5.821   6.719  1.2811  1.1223 -1.0252
  122OSM    C5F12950   2.387   5.740   6.757 -0.2585  0.1341  0.6685
  122OSM    H5F12951   2.457   5.790   6.687  1.8654 -0.2936  2.4256
  122OSM    H5G12952   2.432   5.639   6.769 -2.1189 -1.6385 -5.2784
  122OSM    C6F12953   2.399   5.804   6.897  0.1786 -0.3575 -0.1414
  122OSM    H6F12954   2.357   5.730   6.968 -0.5469  0.6030  0.4464
  122OSM    H6G12955   2.333   5.893   6.910 -0.3774 -0.9654  1.3813
  122OSM    C7F12956   2.545   5.824   6.938  0.0133 -0.1470 -0.3906
  122OSM    H7F12957   2.586   5.916   6.891 -0.0602  0.4425  0.6926
  122OSM    H7G12958   2.604   5.733   6.911  3.0436  1.0128  2.0566
  122OSM    C8F12959   2.554   5.827   7.096  0.6437 -0.3678  0.5790
  122OSM    H8F12960   2.661   5.807   7.122  0.7707  0.1447  0.4516
  122OSM    H8G12961   2.489   5.740   7.121 -0.7762 -0.0894 -1.9608
  122OSM    C9F12962   2.505   5.961   7.150  0.1612  0.0465  0.0773
  122OSM    H9F12963   2.400   5.979   7.124 -0.9462 -2.1444  2.7383
  122OSM   C10F12964   2.567   6.052   7.229 -0.0305  0.0553  0.2046
  122OSM   H10F12965   2.510   6.142   7.258  0.8493  1.3226 -1.8701
  122OSM   C11F12966   2.710   6.039   7.268  0.7248  0.3170 -0.0425
  122OSM   H11F12967   2.764   6.134   7.287  0.1058 -0.0358  3.7645
  122OSM   H11G12968   2.766   5.988   7.186  2.1825 -1.7758  2.1876
  122OSM   C12F12969   2.721   5.950   7.392 -0.1827 -0.5819  0.8134
  122OSM   H12F12970   2.665   5.854   7.398  1.8333 -1.8429  0.1216
  122OSM   H12G12971   2.679   6.019   7.468  1.3740  1.9087 -0.5275
  122OSM   C13F12972   2.868   5.925   7.426  0.0084 -0.5043 -0.8347
  122OSM   H13F12973   2.917   6.023   7.406 -3.3116  0.9736 -2.0071
  122OSM   H13G12974   2.905   5.848   7.355  0.8100 -0.8435 -0.0640
  122OSM   C14F12975   2.902   5.876   7.569  0.6054 -0.5231 -0.0985
  122OSM   H14F12976   2.870   5.770   7.574 -1.7264  0.1181 -0.8981
  122OSM   H14G12977   2.845   5.919   7.654  2.3884 -0.2840  1.0076
  122OSM   C15F12978   3.050   5.882   7.605 -0.3596 -0.2156 -0.2794
  122OSM   H15F12979   3.077   5.989   7.596 -1.1272  0.0468  0.4700
  122OSM   H15G12980   3.107   5.830   7.525  0.4788  1.6420 -0.8992
  122OSM   C16F12981   3.083   5.824   7.746 -0.2737 -0.1783 -0.2093
  122OSM   H16F12982   3.068   5.714   7.750 -0.0396 -0.2773 -1.8876
  122OSM   H16G12983   3.011   5.865   7.820  0.1992  0.6532 -0.2106
  122OSM   C17F12984   3.229   5.842   7.788 -0.2349  0.0597 -0.1705
  122OSM   H17F12985   3.294   5.785   7.719 -0.1429  0.7839 -0.6830
  122OSM   H17G12986   3.236   5.805   7.893 -0.6033  2.3476  0.6959
  122OSM   C18F12987   3.285   5.986   7.797  0.1427  0.2193 -0.3027
  122OSM   H18F12988   3.312   6.021   7.695 -0.0449  1.1545 -0.0372
  122OSM   H18G12989   3.384   5.997   7.848  0.5501 -1.6625 -0.6432
  122OSM   H18H12990   3.214   6.052   7.851 -0.4574  0.4561 -1.3786
  123OSM      N12991   2.091   1.559   5.639 -0.2751 -0.3645  0.4591
  123OSM    C1512992   2.016   1.533   5.510  0.1674 -0.0060  0.0237
  123OSM   H15A12993   2.061   1.581   5.424 -0.8852  1.2340  0.1429
  123OSM   H15B12994   1.914   1.565   5.520 -0.6655 -2.1000 -1.4638
  123OSM   H15C12995   2.020   1.426   5.501  0.6030 -0.1334  1.5214
  123OSM    C1412996   2.240   1.553   5.605  0.2518 -0.0021  0.3531
  123OSM   H14A12997   2.273   1.616   5.523  0.2288  0.3656  0.6235
  123OSM   H14B12998   2.271   1.451   5.589  0.2553 -0.0343  0.5704
  123OSM   H14C12999   2.298   1.586   5.689  0.1012 -0.5609  0.6758
  123OSM    C1313000   2.061   1.696   5.692  0.1116  0.8496 -0.5330
  123OSM   H13A13001   1.957   1.723   5.690  0.6347  3.0312  0.1586
  123OSM   H13B13002   2.111   1.765   5.625  2.0098 -0.7028 -0.7652
  123OSM   H13C13003   2.102   1.697   5.792  1.1052  2.1750 -0.9430
  123OSM    C1213004   2.050   1.459   5.745 -0.4454  0.2366 -0.2337
  123OSM   H12A13005   1.946   1.475   5.768  0.3916  3.0606  1.8698
  123OSM   H12B13006   2.093   1.488   5.840 -1.4074 -1.4200  0.7489
  123OSM    C1113007   2.075   1.310   5.710  0.6638  0.3925 -0.7560
  123OSM   H11A13008   2.044   1.275   5.610 -0.1274 -4.4042  1.0427
  123OSM   H11B13009   2.013   1.244   5.774  3.0676 -0.4139  0.8127
  123OSM      P13010   2.277   1.268   5.879  0.2270  0.0122  0.0354
  123OSM    O1313011   2.264   1.126   5.927 -0.1504  0.3604 -0.0662
  123OSM    O1413012   2.413   1.327   5.873 -0.3957  0.5519 -0.2001
  123OSM    O1113013   2.179   1.356   5.980 -0.1155 -0.5517  0.3473
  123OSM    O1213014   2.211   1.273   5.733 -0.8606  0.6626  0.1188
  123OSM    C1S13015   2.239   1.459   6.067  0.2713  0.7224  0.0051
  123OSM    H1S13016   2.215   1.554   6.015 -2.0994 -0.1337 -0.5345
  123OSM    H1T13017   2.348   1.445   6.082 -0.1464  0.2460  2.7895
  123OSM     NF13018   2.245   1.557   6.292 -0.4631  0.6993  0.0332
  123OSM    HNF13019   2.319   1.522   6.348 -1.5119 -0.1540  0.9071
  123OSM    C2S13020   2.180   1.458   6.209  0.4478  0.0875  0.5530
  123OSM    H2S13021   2.072   1.482   6.208  0.3154 -0.4978  0.7258
  123OSM    C3S13022   2.184   1.315   6.279  0.4252 -0.0009 -0.0708
  123OSM    H3S13023   2.286   1.272   6.270 -0.3731 -2.1323  0.7988
  123OSM     O313024   2.109   1.222   6.209  0.3852  0.2207 -0.4873
  123OSM    HO313025   2.101   1.254   6.118  1.2227 -0.0551 -0.6658
  123OSM    C4S13026   2.139   1.321   6.423  0.0338 -0.7890  1.1107
  123OSM    H4S13027   2.042   1.369   6.446  0.2416 -0.7930  2.0099
  123OSM    C5S13028   2.206   1.259   6.522 -0.1439  0.8400  0.1890
  123OSM    H5S13029   2.287   1.195   6.484 -0.3634 -0.0711  1.2348
  123OSM    C6S13030   2.165   1.266   6.672 -0.3228 -0.4061  0.6537
  123OSM    H6S13031   2.133   1.169   6.714  0.7321 -1.9109 -1.8772
  123OSM    H6T13032   2.077   1.332   6.687 -0.2606 -0.0531 -0.4136
  123OSM    C7S13033   2.276   1.314   6.766 -0.2103 -0.4158  0.1435
  123OSM    H7S13034   2.306   1.414   6.729  0.1423  1.0851  4.2522
  123OSM    H7T13035   2.367   1.252   6.756  2.6371  3.2740  2.1063
  123OSM    C8S13036   2.232   1.332   6.914  1.0149  0.2766 -0.0522
  123OSM    H8S13037   2.317   1.378   6.968 -0.7334  1.1614  2.0260
  123OSM    H8T13038   2.215   1.229   6.952 -2.0694  1.0157  0.7381
  123OSM    C9S13039   2.110   1.420   6.941  0.0076  0.1420 -0.4846
  123OSM    H9S13040   2.017   1.378   6.897  0.0685  2.8922 -3.4566
  123OSM    H9T13041   2.123   1.523   6.902 -5.8908  1.8442  1.5174
  123OSM   C10S13042   2.096   1.436   7.094  0.2263 -0.3698 -0.3436
  123OSM   H10S13043   2.194   1.472   7.131  0.3241 -1.6041  0.6156
  123OSM   H10T13044   2.081   1.339   7.145  1.1332 -0.6003 -0.5032
  123OSM   C11S13045   1.985   1.531   7.138  0.1269 -0.2569  0.0215
  123OSM   H11S13046   1.893   1.510   7.079  1.4461 -2.1553 -1.4481
  123OSM   H11T13047   2.016   1.635   7.118  1.5893 -0.8812 -1.0355
  123OSM   C12S13048   1.940   1.506   7.282  0.2435  0.0386 -0.6880
  123OSM   H12S13049   1.943   1.398   7.307 -1.0433  0.0374 -0.5038
  123OSM   H12T13050   1.833   1.537   7.284 -0.0000 -0.8566  1.0858
  123OSM   C13S13051   2.022   1.572   7.392  0.2048  0.3658  0.3011
  123OSM   H13S13052   2.021   1.683   7.380  2.8576  0.3563 -0.1842
  123OSM   H13T13053   2.130   1.546   7.388 -0.0655 -0.6176 -0.7410
  123OSM   C14S13054   1.977   1.530   7.531 -0.2397  0.6114 -0.0640
  123OSM   H14S13055   2.050   1.569   7.605  0.6721  0.5852 -0.9406
  123OSM   H14T13056   1.966   1.420   7.537  2.0428  0.3505 -0.1135
  123OSM   C15S13057   1.846   1.597   7.568  0.8139  0.0457  0.2867
  123OSM   H15S13058   1.767   1.581   7.492  0.7710  0.0854  0.3232
  123OSM   H15T13059   1.859   1.707   7.570 -0.0823  0.1810 -1.0930
  123OSM   C16S13060   1.798   1.567   7.710  0.4106  0.3758  0.3281
  123OSM   H16S13061   1.869   1.611   7.784  2.4045 -2.1362 -0.0312
  123OSM   H16T13062   1.803   1.457   7.725 -0.8124  0.3053  0.2586
  123OSM   C17S13063   1.647   1.608   7.731 -0.0627  0.2548 -0.6052
  123OSM   H17S13064   1.582   1.567   7.651 -0.1822 -1.3631  0.2972
  123OSM   H17T13065   1.643   1.719   7.722  1.0991  0.2631 -1.1180
  123OSM   C18S13066   1.591   1.548   7.866  0.3704 -0.1132 -0.4482
  123OSM   H18S13067   1.592   1.437   7.861  1.1667 -0.1260 -0.0417
  123OSM   H18T13068   1.489   1.591   7.875 -0.4469 -2.2756  1.0165
  123OSM   H18U13069   1.655   1.582   7.950 -0.5377  1.0534 -0.2125
  123OSM    C1F13070   2.235   1.685   6.264 -0.3431 -0.1694  0.3248
  123OSM     OF13071   2.159   1.721   6.175 -0.2640 -0.0790 -0.0655
  123OSM    C2F13072   2.322   1.788   6.335 -0.2368 -0.0007  0.1343
  123OSM    H2F13073   2.413   1.791   6.270  0.0431 -0.3257  0.5088
  123OSM    H2G13074   2.348   1.743   6.434  0.6495  1.1430  0.4353
  123OSM    C3F13075   2.282   1.932   6.316 -0.1182  0.7376 -0.6639
  123OSM    H3F13076   2.183   1.938   6.367  0.0616  2.1338 -0.4631
  123OSM    H3G13077   2.252   1.965   6.214  0.2087 -2.3664 -1.8133
  123OSM    C4F13078   2.385   2.023   6.377 -0.8813  0.2401 -0.4777
  123OSM    H4F13079   2.342   2.124   6.395  0.0357  0.5043  0.2721
  123OSM    H4G13080   2.459   2.022   6.294  0.9497  2.1002  1.0597
  123OSM    C5F13081   2.455   1.981   6.506  0.0235 -0.1633  0.2863
  123OSM    H5F13082   2.526   2.064   6.525 -2.2487  1.9303 -0.1352
  123OSM    H5G13083   2.513   1.888   6.484 -0.5000 -0.3255 -0.4589
  123OSM    C6F13084   2.364   1.941   6.625  0.2375 -0.4484 -0.3434
  123OSM    H6F13085   2.298   1.856   6.596 -1.9459  1.0615  0.0933
  123OSM    H6G13086   2.304   2.029   6.658 -1.3185 -2.3044  1.9616
  123OSM    C7F13087   2.434   1.900   6.753 -0.5975  0.1189  0.0030
  123OSM    H7F13088   2.498   1.984   6.786 -0.4610 -0.9320  2.4875
  123OSM    H7G13089   2.492   1.808   6.731 -0.1883 -0.4533  3.2516
  123OSM    C8F13090   2.323   1.854   6.848  0.6553 -0.2551 -0.6767
  123OSM    H8F13091   2.354   1.773   6.918  1.0140 -0.4487 -1.0546
  123OSM    H8G13092   2.246   1.794   6.795 -0.6430 -0.0809  0.9779
  123OSM    C9F13093   2.256   1.968   6.916 -0.3572 -0.8728  0.2172
  123OSM    H9F13094   2.179   2.007   6.847  1.5833  2.9051  0.0704
  123OSM   C10F13095   2.287   2.034   7.029  0.5773 -0.9542  0.7685
  123OSM   H10F13096   2.227   2.119   7.065  2.1421  1.0095 -1.0599
  123OSM   C11F13097   2.395   1.999   7.122 -0.0421  0.8210 -0.1779
  123OSM   H11F13098   2.443   2.086   7.172 -0.2303 -0.2213  1.8529
  123OSM   H11G13099   2.480   1.950   7.070  1.1758  0.5012  2.0513
  123OSM   C12F13100   2.344   1.903   7.230 -0.0707  0.5386 -0.0701
  123OSM   H12F13101   2.294   1.812   7.190 -3.3666  1.6661  1.2987
  123OSM   H12G13102   2.272   1.953   7.299 -1.4075 -2.9250  1.1217
  123OSM   C13F13103   2.451   1.862   7.332  0.7030 -0.3369  0.5749
  123OSM   H13F13104   2.472   1.941   7.407 -0.3511 -0.0757  0.6069
  123OSM   H13G13105   2.542   1.847   7.271 -1.5980 -3.1374 -2.2952
  123OSM   C14F13106   2.428   1.723   7.396  0.0205  0.3262  0.0214
  123OSM   H14F13107   2.515   1.694   7.459 -0.5376  1.4364  1.3265
  123OSM   H14G13108   2.399   1.650   7.318 -1.6246  0.1868  0.7427
  123OSM   C15F13109   2.309   1.729   7.495  0.6135  0.1298  0.3014
  123OSM   H15F13110   2.282   1.629   7.535  0.4155 -1.5057 -3.7422
  123OSM   H15G13111   2.215   1.777   7.461  1.6374  1.7549 -0.2882
  123OSM   C16F13112   2.336   1.808   7.621 -0.8329  0.5296  0.5730
  123OSM   H16F13113   2.322   1.916   7.597  0.9129  0.6272 -0.0369
  123OSM   H16G13114   2.435   1.783   7.664 -0.8311 -1.1407 -0.4025
  123OSM   C17F13115   2.235   1.765   7.736 -0.6019 -0.3905  1.1554
  123OSM   H17F13116   2.211   1.657   7.721 -0.7348 -0.2244  0.1071
  123OSM   H17G13117   2.142   1.823   7.716  0.1090 -0.0640 -1.4044
  123OSM   C18F13118   2.291   1.787   7.876 -0.1151 -0.2470 -0.0895
  123OSM   H18F13119   2.365   1.707   7.897  1.3086  1.3335  1.1007
  123OSM   H18G13120   2.214   1.781   7.957 -1.6950 -0.0475 -1.5467
  123OSM   H18H13121   2.340   1.887   7.876  2.2441 -1.3859  0.0471
  124OSM      N13122   1.138   4.095   5.234  0.1119 -0.0947 -0.4505
  124OSM    C1513123   1.094   4.206   5.151  0.5876  0.5956 -0.3726
  124OSM   H15A13124   1.075   4.298   5.204 -0.2433  0.1123  0.1860
  124OSM   H15B13125   0.995   4.187   5.111  0.1607  2.1539 -0.0830
  124OSM   H15C13126   1.150   4.212   5.059 -2.2645  0.9626 -2.1545
  124OSM    C1413127   1.054   4.098   5.361 -0.1521 -0.0780 -0.0914
  124OSM   H14A13128   1.091   4.043   5.447 -1.2094 -1.4864 -0.5230
  124OSM   H14B13129   0.950   4.072   5.349 -0.4367  1.0071 -0.0994
  124OSM   H14C13130   1.054   4.197   5.405 -0.1808 -0.3322  0.4887
  124OSM    C1313131   1.130   3.965   5.169  0.1853 -0.4220 -0.0651
  124OSM   H13A13132   1.025   3.942   5.166 -0.1870  0.9120  1.7312
  124OSM   H13B13133   1.178   3.903   5.243 -0.7127 -1.2178 -0.1396
  124OSM   H13C13134   1.177   3.966   5.072  0.2794  1.4876 -0.0222
  124OSM    C1213135   1.280   4.124   5.277 -0.2264  0.8863  0.4571
  124OSM   H12A13136   1.338   4.129   5.186 -0.5869 -0.7110  0.1086
  124OSM   H12B13137   1.317   4.042   5.337  3.8114  0.7551 -2.0180
  124OSM    C1113138   1.317   4.249   5.352 -0.3164  0.5758  0.8304
  124OSM   H11A13139   1.278   4.331   5.289 -1.0710  0.2743  0.8895
  124OSM   H11B13140   1.427   4.261   5.346 -0.2557 -0.6182 -0.7792
  124OSM      P13141   1.346   4.165   5.584 -0.3652 -0.3202 -0.0887
  124OSM    O1313142   1.420   4.055   5.522 -0.4893  0.0535 -0.4940
  124OSM    O1413143   1.422   4.271   5.657  0.1344 -0.6965 -0.3992
  124OSM    O1113144   1.249   4.093   5.680  0.5295 -0.0252  0.1647
  124OSM    O1213145   1.262   4.251   5.481 -0.4371  0.4980  0.2456
  124OSM    C1S13146   1.129   4.149   5.727 -0.1708  0.5280 -0.7923
  124OSM    H1S13147   1.054   4.146   5.646  2.5549  0.0008 -3.3923
  124OSM    H1T13148   1.150   4.257   5.748  0.3990  0.7489 -2.4617
  124OSM     NF13149   0.948   4.133   5.889  0.3149 -0.3520 -0.2030
  124OSM    HNF13150   0.939   4.203   5.959 -3.7721 -0.2563 -0.7155
  124OSM    C2S13151   1.082   4.075   5.857 -0.4491  0.3430 -0.0553
  124OSM    H2S13152   1.072   3.967   5.831 -1.2448  0.3925  0.0159
  124OSM    C3S13153   1.184   4.098   5.969 -0.0263 -0.6702 -0.7205
  124OSM    H3S13154   1.184   4.201   6.011  2.1344 -0.7758 -0.4451
  124OSM     O313155   1.317   4.074   5.931  0.1172 -0.3502  0.0559
  124OSM    HO313156   1.311   4.056   5.837  1.1148 -1.3180  0.1725
  124OSM    C4S13157   1.154   4.012   6.091  0.8427  0.2356 -0.7223
  124OSM    H4S13158   1.103   4.062   6.175  1.1055 -0.0559 -0.3886
  124OSM    C5S13159   1.198   3.890   6.129 -0.0364 -0.3255  0.2591
  124OSM    H5S13160   1.272   3.840   6.065  0.7145 -0.4736  1.2456
  124OSM    C6S13161   1.165   3.829   6.256  0.6791 -0.8264 -0.1245
  124OSM    H6S13162   1.256   3.787   6.304  1.6789  0.1289 -1.1587
  124OSM    H6T13163   1.091   3.750   6.230 -0.3763  0.1786 -0.1863
  124OSM    C7S13164   1.101   3.914   6.361  0.4480  0.1428  0.1045
  124OSM    H7S13165   1.010   3.958   6.315  0.9331  0.9695 -0.0842
  124OSM    H7T13166   1.160   4.007   6.381  0.0942 -0.0920  2.4515
  124OSM    C8S13167   1.049   3.849   6.493  0.3301  0.3581 -0.6251
  124OSM    H8S13168   1.120   3.812   6.570 -0.9771  2.3729  1.6161
  124OSM    H8T13169   0.998   3.758   6.454 -0.2998  1.3022 -2.0429
  124OSM    C9S13170   0.949   3.932   6.571 -0.8081 -0.5004  0.7828
  124OSM    H9S13171   0.866   3.973   6.509  2.1307  1.9687 -1.6453
  124OSM    H9T13172   1.004   4.023   6.605 -0.7371  0.2207 -1.2103
  124OSM   C10S13173   0.897   3.869   6.705 -0.0049 -0.4447 -0.4020
  124OSM   H10S13174   0.978   3.808   6.751 -1.3953 -1.7355  0.3442
  124OSM   H10T13175   0.817   3.801   6.671 -0.0094 -0.2739 -0.7365
  124OSM   C11S13176   0.851   3.976   6.807 -0.7817 -0.1927 -0.1876
  124OSM   H11S13177   0.761   4.017   6.756  0.0526  1.4079 -0.4059
  124OSM   H11T13178   0.934   4.050   6.810 -0.8801 -0.1473  2.2701
  124OSM   C12S13179   0.823   3.927   6.947 -0.3393  0.0656 -0.1993
  124OSM   H12S13180   0.923   3.905   6.991 -0.1618  0.3079 -0.4784
  124OSM   H12T13181   0.766   3.831   6.947  0.8883 -0.7129  2.1064
  124OSM   C13S13182   0.771   4.030   7.044 -0.2586 -0.1328 -0.4705
  124OSM   H13S13183   0.670   4.055   7.004 -0.4714  2.1157  1.4365
  124OSM   H13T13184   0.843   4.114   7.038 -0.3690  0.0298  0.5352
  124OSM   C14S13185   0.772   3.991   7.195  0.7721 -0.2538 -0.1034
  124OSM   H14S13186   0.752   4.077   7.261  1.2244 -1.5037  1.6975
  124OSM   H14T13187   0.876   3.953   7.209 -0.6259 -3.6272  1.6765
  124OSM   C15S13188   0.677   3.877   7.231 -0.2562 -0.3567  0.4242
  124OSM   H15S13189   0.732   3.789   7.192  0.1392  0.7876 -1.6424
  124OSM   H15T13190   0.579   3.886   7.180 -1.0705  0.1658  2.0555
  124OSM   C16S13191   0.652   3.868   7.382  0.3370  0.1147 -0.9901
  124OSM   H16S13192   0.753   3.842   7.418 -1.1491 -2.8520  1.2669
  124OSM   H16T13193   0.590   3.775   7.389 -0.0150  0.3688 -0.6747
  124OSM   C17S13194   0.585   3.983   7.453 -0.8969 -0.4929 -0.3655
  124OSM   H17S13195   0.641   4.079   7.450 -0.2242 -0.9088 -1.4342
  124OSM   H17T13196   0.584   3.956   7.561  2.0205  1.7881  0.2912
  124OSM   C18S13197   0.444   4.024   7.407 -0.6054  0.2881 -0.1683
  124OSM   H18S13198   0.407   4.113   7.461 -0.2783  1.3848 -1.7317
  124OSM   H18T13199   0.386   3.931   7.430  0.3308 -0.5744 -1.2308
  124OSM   H18U13200   0.442   4.045   7.298  0.6960  1.6270  0.0530
  124OSM    C1F13201   0.838   4.073   5.848  0.2497 -0.2141  0.1748
  124OSM     OF13202   0.847   3.971   5.781 -0.8373  0.3463 -0.2153
  124OSM    C2F13203   0.707   4.136   5.883 -0.5664  0.1275 -0.0855
  124OSM    H2F13204   0.734   4.242   5.899 -2.8221  0.8728 -1.0071
  124OSM    H2G13205   0.670   4.089   5.978  0.1372  0.2379  0.2426
  124OSM    C3F13206   0.604   4.128   5.763  0.2350 -0.2303  0.2172
  124OSM    H3F13207   0.569   4.022   5.758 -1.7866  0.2965  2.4312
  124OSM    H3G13208   0.661   4.149   5.670 -0.0779  0.8022  0.2630
  124OSM    C4F13209   0.500   4.233   5.777  0.2351  0.8769 -0.0022
  124OSM    H4F13210   0.444   4.239   5.682  2.7345  0.5231 -1.5512
  124OSM    H4G13211   0.542   4.336   5.782 -2.2739  2.0249 -1.8096
  124OSM    C5F13212   0.390   4.208   5.882 -0.1215 -0.1987  0.2993
  124OSM    H5F13213   0.332   4.119   5.851 -1.8503  1.6646 -1.9761
  124OSM    H5G13214   0.325   4.298   5.881  0.4286  0.2263  1.4801
  124OSM    C6F13215   0.426   4.179   6.022 -1.4558  0.0508  0.4509
  124OSM    H6F13216   0.503   4.255   6.047  2.0310 -2.3897 -2.4071
  124OSM    H6G13217   0.461   4.079   6.058 -0.7672  0.6168  1.3779
  124OSM    C7F13218   0.310   4.214   6.116 -0.0579  0.3088 -0.5457
  124OSM    H7F13219   0.222   4.146   6.105  0.4799 -0.6225  0.8348
  124OSM    H7G13220   0.276   4.316   6.089  0.0789  0.3455 -0.5763
  124OSM    C8F13221   0.360   4.228   6.263 -0.2440  0.0986 -0.5258
  124OSM    H8F13222   0.408   4.327   6.283  0.3372 -0.3549  0.3478
  124OSM    H8G13223   0.444   4.158   6.282  0.0167  0.4318 -0.4366
  124OSM    C9F13224   0.246   4.212   6.368 -0.0631  0.7555 -0.2572
  124OSM    H9F13225   0.165   4.143   6.340 -1.9163  3.0371 -0.6275
  124OSM   C10F13226   0.248   4.268   6.488  0.4428 -0.1798  0.4898
  124OSM   H10F13227   0.163   4.235   6.549 -0.2950 -1.0751 -0.9932
  124OSM   C11F13228   0.350   4.362   6.548  0.1286 -0.0683 -0.8947
  124OSM   H11F13229   0.324   4.466   6.522  1.4348  0.0730 -1.7113
  124OSM   H11G13230   0.450   4.338   6.505  0.3886  0.6291 -0.6887
  124OSM   C12F13231   0.347   4.348   6.699  0.4071  0.0298 -0.0877
  124OSM   H12F13232   0.246   4.348   6.746 -0.9924 -0.8400 -2.9789
  124OSM   H12G13233   0.399   4.439   6.738  2.2210 -1.1513  0.3253
  124OSM   C13F13234   0.421   4.221   6.744 -0.7036  0.1237 -0.4078
  124OSM   H13F13235   0.529   4.229   6.718 -0.5307  1.3144  0.6731
  124OSM   H13G13236   0.386   4.132   6.687 -0.8471  0.0371 -0.1867
  124OSM   C14F13237   0.413   4.180   6.891  0.4143  0.3336  0.9221
  124OSM   H14F13238   0.437   4.260   6.965  1.7676 -1.6708  2.7355
  124OSM   H14G13239   0.480   4.094   6.910  0.0254  0.6401  4.0525
  124OSM   C15F13240   0.272   4.129   6.922  0.5033  0.3624  0.3990
  124OSM   H15F13241   0.253   4.050   6.846 -0.2833 -0.6017  1.5777
  124OSM   H15G13242   0.209   4.219   6.902  3.5067  2.5697  0.5614
  124OSM   C16F13243   0.254   4.076   7.060 -0.7446 -0.2033 -0.3470
  124OSM   H16F13244   0.284   4.163   7.122 -1.1201  1.9367 -3.0638
  124OSM   H16G13245   0.323   3.994   7.089 -1.1950  0.1827  1.9378
  124OSM   C17F13246   0.109   4.043   7.096 -0.4197  0.1234  0.3104
  124OSM   H17F13247   0.070   3.952   7.046  0.2783  0.5387 -1.0299
  124OSM   H17G13248   0.050   4.123   7.046  1.1772 -0.5101 -2.7231
  124OSM   C18F13249   0.062   4.033   7.237 -0.0487 -0.0408 -0.0116
  124OSM   H18F13250   0.108   3.945   7.286 -0.2299 -0.2671 -0.2422
  124OSM   H18G13251  -0.048   4.013   7.240 -0.2501  0.7918 -1.1719
  124OSM   H18H13252   0.080   4.130   7.289 -0.9412  0.7672 -1.1548
  125OSM      N13253   5.698   1.482   5.185 -0.3534 -0.2254  0.2194
  125OSM    C1513254   5.722   1.396   5.062 -0.3883 -0.2327  0.1217
  125OSM   H15A13255   5.824   1.403   5.028 -0.1158 -1.6192  0.6013
  125OSM   H15B13256   5.657   1.428   4.983  1.0091  2.5226  0.0328
  125OSM   H15C13257   5.715   1.288   5.072  0.4717 -0.2005  1.2490
  125OSM    C1413258   5.816   1.464   5.274 -0.2227 -0.0700  0.6100
  125OSM   H14A13259   5.912   1.457   5.225 -0.6978 -1.2213 -0.1816
  125OSM   H14B13260   5.796   1.373   5.329  1.3058 -1.8080 -1.6003
  125OSM   H14C13261   5.811   1.545   5.345  1.8357 -0.9023  1.7604
  125OSM    C1313262   5.711   1.627   5.162  0.0390  0.2536  0.0264
  125OSM   H13A13263   5.635   1.673   5.101 -0.2540  1.3806  1.2385
  125OSM   H13B13264   5.814   1.640   5.130  0.2022 -2.6074 -0.7964
  125OSM   H13C13265   5.712   1.673   5.259 -0.9481 -0.5405  0.4202
  125OSM    C1213266   5.566   1.439   5.246 -0.0931 -0.5991  0.5375
  125OSM   H12A13267   5.574   1.336   5.278 -1.0443 -0.5310  1.0098
  125OSM   H12B13268   5.493   1.445   5.167  0.4643 -2.5077 -0.1357
  125OSM    C1113269   5.501   1.528   5.355  0.2640 -0.1933  0.4562
  125OSM   H11A13270   5.398   1.494   5.381  0.1604  0.3494  0.7790
  125OSM   H11B13271   5.475   1.625   5.307  3.3550 -1.1508 -3.3890
  125OSM      P13272   5.603   1.449   5.584  0.3873 -0.7348  0.6177
  125OSM    O1313273   5.470   1.392   5.614 -0.1935 -0.2552 -0.7203
  125OSM    O1413274   5.712   1.355   5.552  0.0533  0.3973 -0.2230
  125OSM    O1113275   5.640   1.545   5.702 -0.0248 -0.0949  0.2982
  125OSM    O1213276   5.592   1.553   5.462  0.5487  0.1136 -0.3055
  125OSM    C1S13277   5.547   1.647   5.744 -0.8992  0.4005 -0.0648
  125OSM    H1S13278   5.450   1.634   5.692 -0.0369  1.0165 -1.8520
  125OSM    H1T13279   5.589   1.746   5.716  0.6672  0.2377  1.6064
  125OSM     NF13280   5.420   1.755   5.941 -1.0981  0.2701 -0.6238
  125OSM    HNF13281   5.443   1.827   6.006  0.3611  0.0983 -0.9333
  125OSM    C2S13282   5.515   1.653   5.905 -0.9682 -0.0504 -0.2037
  125OSM    H2S13283   5.461   1.560   5.932  0.3724 -0.3480  1.6321
  125OSM    C3S13284   5.648   1.659   5.990 -0.5466 -0.2989  0.5200
  125OSM    H3S13285   5.693   1.758   5.967 -0.1335 -0.3927  0.9351
  125OSM     O313286   5.739   1.564   5.941 -0.3731  0.0993  0.2917
  125OSM    HO313287   5.699   1.535   5.859 -1.0362 -2.0101  1.3156
  125OSM    C4S13288   5.619   1.634   6.139 -0.1067 -0.2421 -0.0455
  125OSM    H4S13289   5.573   1.539   6.170  1.0542 -0.1906  1.8998
  125OSM    C5S13290   5.645   1.729   6.232  0.1470 -0.2869  0.1441
  125OSM    H5S13291   5.677   1.830   6.202  0.2862  0.0769  1.5016
  125OSM    C6S13292   5.620   1.709   6.377  0.0839 -0.2948  0.3841
  125OSM    H6S13293   5.559   1.794   6.415  1.7598  1.6093 -1.0774
  125OSM    H6T13294   5.720   1.721   6.424  0.4916  1.3045 -0.8685
  125OSM    C7S13295   5.551   1.578   6.425 -0.2915  1.4836 -0.3029
  125OSM    H7S13296   5.607   1.487   6.398 -0.9785  0.2609  2.1961
  125OSM    H7T13297   5.454   1.572   6.372 -0.2438 -0.3467 -0.1887
  125OSM    C8S13298   5.536   1.570   6.578  0.0609  0.0061  0.0429
  125OSM    H8S13299   5.464   1.485   6.592 -0.3971  0.1930 -1.1092
  125OSM    H8T13300   5.476   1.661   6.601  0.1133 -0.2462  1.2019
  125OSM    C9S13301   5.665   1.573   6.663 -0.4152 -0.0965  0.1293
  125OSM    H9S13302   5.743   1.639   6.619  0.8954  0.0830  2.6545
  125OSM    H9T13303   5.703   1.470   6.650  1.6454  0.7679 -1.0572
  125OSM   C10S13304   5.661   1.610   6.812 -0.5919  0.2215  0.2769
  125OSM   H10S13305   5.556   1.588   6.842  0.4213 -2.3670  2.1747
  125OSM   H10T13306   5.680   1.719   6.824  0.0986  0.3569 -1.8800
  125OSM   C11S13307   5.747   1.520   6.902  0.6019 -0.0940  0.9043
  125OSM   H11S13308   5.856   1.537   6.892  0.8860 -1.1637  2.0691
  125OSM   H11T13309   5.734   1.413   6.875  1.4854  0.0620 -0.1855
  125OSM   C12S13310   5.697   1.537   7.048  0.0708  0.1424  0.5280
  125OSM   H12S13311   5.596   1.492   7.054 -0.0573  0.6112  2.0996
  125OSM   H12T13312   5.699   1.646   7.069  3.0049  0.2109  0.1785
  125OSM   C13S13313   5.788   1.460   7.146  0.6880 -0.4774 -0.0438
  125OSM   H13S13314   5.889   1.499   7.120 -0.0626 -0.2543 -2.7761
  125OSM   H13T13315   5.789   1.350   7.132  1.5798 -0.6902  1.5340
  125OSM   C14S13316   5.775   1.500   7.291  0.1079  0.7581 -0.1275
  125OSM   H14S13317   5.676   1.458   7.316  0.1827 -1.0821 -2.6900
  125OSM   H14T13318   5.771   1.608   7.319 -1.6098  0.4052  1.0803
  125OSM   C15S13319   5.892   1.442   7.371  0.7386  0.2873 -0.1957
  125OSM   H15S13320   5.990   1.484   7.340  1.9010 -1.4944  0.9528
  125OSM   H15T13321   5.902   1.334   7.344  0.1370  0.4219 -0.9535
  125OSM   C16S13322   5.879   1.459   7.522 -0.2521 -0.5158 -0.4674
  125OSM   H16S13323   5.798   1.390   7.553 -2.9649  1.4249 -3.0384
  125OSM   H16T13324   5.847   1.563   7.545 -1.1430 -1.1571  1.3108
  125OSM   C17S13325   6.007   1.415   7.601 -0.1155  0.6815  0.2536
  125OSM   H17S13326   6.097   1.471   7.566  0.8182 -1.1209 -0.2974
  125OSM   H17T13327   6.027   1.308   7.581  1.4039  0.6928  1.6644
  125OSM   C18S13328   6.000   1.437   7.756 -0.4388  0.1127 -0.1677
  125OSM   H18S13329   5.907   1.400   7.805 -0.7930  0.2057 -0.7612
  125OSM   H18T13330   6.029   1.541   7.783  1.0535 -0.6236  1.0939
  125OSM   H18U13331   6.081   1.384   7.809 -0.8513 -1.0874 -0.7247
  125OSM    C1F13332   5.292   1.750   5.894 -0.2321 -0.9390 -0.1408
  125OSM     OF13333   5.256   1.663   5.821  0.2626  0.4787  0.2075
  125OSM    C2F13334   5.194   1.856   5.950  0.1703 -0.5118  0.4228
  125OSM    H2F13335   5.117   1.874   5.872  0.5966  0.3318  0.1845
  125OSM    H2G13336   5.258   1.945   5.968 -0.8857  0.2233  0.5840
  125OSM    C3F13337   5.119   1.828   6.080  0.2580  0.0149 -0.1577
  125OSM    H3F13338   5.028   1.773   6.049 -0.4259  0.0277  1.7396
  125OSM    H3G13339   5.070   1.916   6.127  0.2256 -0.0058 -0.1524
  125OSM    C4F13340   5.196   1.750   6.187  0.2626 -1.0886 -0.0543
  125OSM    H4F13341   5.283   1.806   6.227  0.7273 -1.0678 -1.0799
  125OSM    H4G13342   5.242   1.658   6.146  1.0079 -0.7816  0.0895
  125OSM    C5F13343   5.103   1.708   6.311  0.8369 -0.2932 -0.9036
  125OSM    H5F13344   5.012   1.654   6.274 -0.5810  1.4971 -0.0914
  125OSM    H5G13345   5.064   1.798   6.362 -0.8616 -0.7133 -1.3965
  125OSM    C6F13346   5.179   1.624   6.413 -0.4753  0.7739 -0.1733
  125OSM    H6F13347   5.265   1.689   6.442  1.0033 -1.3446  0.2957
  125OSM    H6G13348   5.210   1.525   6.374  1.7560  0.9589  1.0610
  125OSM    C7F13349   5.083   1.586   6.530  0.5848  0.4791  0.6781
  125OSM    H7F13350   5.013   1.507   6.496 -0.8256  2.1018 -0.3166
  125OSM    H7G13351   5.028   1.681   6.548 -1.7622 -0.9542  1.1788
  125OSM    C8F13352   5.156   1.548   6.656  0.5188  0.1326 -0.8857
  125OSM    H8F13353   5.232   1.628   6.671 -2.4315  2.8208  0.3839
  125OSM    H8G13354   5.207   1.452   6.634 -1.3134 -1.2016  0.5177
  125OSM    C9F13355   5.055   1.544   6.776  0.1116  0.3400  0.9206
  125OSM    H9F13356   4.980   1.625   6.777  0.1215  0.3374  2.2921
  125OSM   C10F13357   5.041   1.454   6.873 -0.1881  0.1016 -0.5032
  125OSM   H10F13358   4.961   1.464   6.948 -0.5661  0.5448 -0.9623
  125OSM   C11F13359   5.127   1.334   6.902  0.5268 -0.2111 -0.1486
  125OSM   H11F13360   5.150   1.301   6.798 -2.7927 -0.2050 -0.9204
  125OSM   H11G13361   5.067   1.259   6.958 -0.0489  0.4769  0.1644
  125OSM   C12F13362   5.260   1.357   6.977 -0.4781  0.3394  0.0480
  125OSM   H12F13363   5.322   1.437   6.930  0.5126 -0.2558  0.3096
  125OSM   H12G13364   5.328   1.269   6.969 -2.7127 -1.4813  0.4896
  125OSM   C13F13365   5.227   1.406   7.121 -0.1676  0.0166 -0.5910
  125OSM   H13F13366   5.134   1.353   7.152  0.4678 -1.4388 -1.1339
  125OSM   H13G13367   5.200   1.514   7.117 -0.9690 -0.1157  0.7952
  125OSM   C14F13368   5.333   1.388   7.221  1.1442  0.0223 -0.2047
  125OSM   H14F13369   5.430   1.437   7.196  0.6176 -0.4477 -3.4808
  125OSM   H14G13370   5.356   1.280   7.216 -1.2815 -0.6327  1.7776
  125OSM   C15F13371   5.299   1.428   7.366 -0.4461  0.3702 -0.4854
  125OSM   H15F13372   5.397   1.427   7.420  0.3070  2.5423 -1.7390
  125OSM   H15G13373   5.229   1.360   7.420 -0.2016  1.5446  1.3673
  125OSM   C16F13374   5.232   1.562   7.380 -0.2658  0.2522 -0.1845
  125OSM   H16F13375   5.128   1.546   7.344  0.3483 -0.7854 -1.5562
  125OSM   H16G13376   5.288   1.640   7.325  1.0162 -0.6324 -0.1451
  125OSM   C17F13377   5.227   1.616   7.522 -0.2023  0.5944 -0.2241
  125OSM   H17F13378   5.324   1.632   7.574 -0.6467 -3.3286  2.0501
  125OSM   H17G13379   5.176   1.536   7.581  2.4480 -0.2074  1.0961
  125OSM   C18F13380   5.143   1.741   7.547  0.2538 -0.1144  0.7987
  125OSM   H18F13381   5.202   1.821   7.496  1.7648 -1.5672  0.2512
  125OSM   H18G13382   5.133   1.770   7.653  0.0453  0.4702  0.6235
  125OSM   H18H13383   5.038   1.743   7.508  0.5320 -0.0993  0.0317
  126OSM      N13384   3.252   0.727   5.263  0.6641 -0.7159 -0.5314
  126OSM    C1513385   3.301   0.635   5.160  0.5025 -0.4891  0.5548
  126OSM   H15A13386   3.395   0.595   5.197 -0.6005 -1.1151  2.8084
  126OSM   H15B13387   3.312   0.691   5.069 -2.0929 -0.0387  0.4897
  126OSM   H15C13388   3.239   0.547   5.148  0.4195  0.0089 -3.0267
  126OSM    C1413389   3.357   0.829   5.295  0.4203 -0.6910 -1.0283
  126OSM   H14A13390   3.441   0.782   5.343 -0.6842  0.7795  2.5616
  126OSM   H14B13391   3.319   0.908   5.359 -1.5931 -1.4578 -1.2243
  126OSM   H14C13392   3.388   0.873   5.202 -2.4849  2.6215 -0.5169
  126OSM    C1313393   3.123   0.785   5.216  0.9493 -0.4795 -0.4684
  126OSM   H13A13394   3.057   0.710   5.175  1.7764 -1.4062 -0.1074
  126OSM   H13B13395   3.138   0.863   5.143  1.7058 -0.7182 -0.5728
  126OSM   H13C13396   3.073   0.824   5.304  0.8505  0.6266 -1.0075
  126OSM    C1213397   3.216   0.633   5.374  0.3607  0.6546  0.1247
  126OSM   H12A13398   3.299   0.568   5.398  1.8350  2.6304  0.5163
  126OSM   H12B13399   3.136   0.568   5.341  1.6712 -1.1243  0.3655
  126OSM    C1113400   3.172   0.693   5.508  0.0703  0.4626 -0.6891
  126OSM   H11A13401   3.116   0.616   5.565  1.8330  0.5063  1.1657
  126OSM   H11B13402   3.091   0.769   5.498 -0.0551  0.8730  2.7571
  126OSM      P13403   3.389   0.660   5.647  0.2198  0.1547 -0.1558
  126OSM    O1313404   3.417   0.538   5.571  0.5638  0.8713  0.6731
  126OSM    O1413405   3.501   0.750   5.675 -0.6551  0.7159  0.1848
  126OSM    O1113406   3.318   0.627   5.785 -0.6223 -0.1151 -0.5064
  126OSM    O1213407   3.281   0.746   5.575 -0.9985 -1.1096 -0.1106
  126OSM    C1S13408   3.228   0.726   5.850 -0.2110  0.4120  0.0354
  126OSM    H1S13409   3.128   0.701   5.807 -0.3295 -0.1556  0.6268
  126OSM    H1T13410   3.233   0.831   5.814 -0.4583  0.6236  0.6101
  126OSM     NF13411   3.148   0.818   6.056  0.1418 -0.0870 -0.5770
  126OSM    HNF13412   3.188   0.902   6.094  0.4997 -0.4726 -0.0956
  126OSM    C2S13413   3.238   0.725   6.001  0.1588 -0.2222 -0.1244
  126OSM    H2S13414   3.211   0.620   6.026  1.0258 -0.1153  1.3387
  126OSM    C3S13415   3.382   0.755   6.050 -0.8712  1.0937 -0.1823
  126OSM    H3S13416   3.411   0.856   6.012 -1.7312  1.7592  0.9048
  126OSM     O313417   3.485   0.675   5.986 -0.5551  0.1531  0.4995
  126OSM    HO313418   3.439   0.624   5.919  3.0911  0.4419 -2.4354
  126OSM    C4S13419   3.379   0.747   6.195 -0.3730 -0.1305 -0.5516
  126OSM    H4S13420   3.324   0.663   6.241 -0.7104  1.1129  1.3845
  126OSM    C5S13421   3.457   0.832   6.281  0.7393 -0.2612  0.4289
  126OSM    H5S13422   3.517   0.918   6.248 -1.5482  1.5600  0.9752
  126OSM    C6S13423   3.444   0.815   6.432  0.0795 -0.5012  1.0782
  126OSM    H6S13424   3.537   0.773   6.476  0.5103 -1.4392 -0.6801
  126OSM    H6T13425   3.368   0.738   6.455  0.4638 -1.6155 -1.2358
  126OSM    C7S13426   3.402   0.948   6.498 -0.7419 -0.2857 -0.1697
  126OSM    H7S13427   3.310   0.984   6.448 -1.6595 -2.2605  0.0349
  126OSM    H7T13428   3.475   1.031   6.485  0.8336 -1.3374  1.6628
  126OSM    C8S13429   3.373   0.921   6.645  0.2689 -0.7488 -0.0932
  126OSM    H8S13430   3.458   0.878   6.701  0.9841  1.7460  0.8171
  126OSM    H8T13431   3.289   0.849   6.651  0.3088 -0.6870  1.3810
  126OSM    C9S13432   3.333   1.050   6.720 -0.6136  0.1926  0.0421
  126OSM    H9S13433   3.233   1.072   6.675 -0.0438  1.3436 -0.6891
  126OSM    H9T13434   3.405   1.132   6.701  1.2344 -1.5222 -0.5040
  126OSM   C10S13435   3.304   1.023   6.870 -1.0713  0.2410  0.2663
  126OSM   H10S13436   3.212   0.963   6.890 -1.6501  1.2926  0.7949
  126OSM   H10T13437   3.270   1.122   6.909 -0.7187 -0.3271  2.0762
  126OSM   C11S13438   3.417   0.959   6.945  0.4820 -0.5004 -0.2764
  126OSM   H11S13439   3.512   1.005   6.911  0.3472  0.3974  0.5339
  126OSM   H11T13440   3.429   0.850   6.928 -1.5036 -0.6064 -1.0762
  126OSM   C12S13441   3.410   0.994   7.098 -0.0924  1.0713  0.6390
  126OSM   H12S13442   3.308   0.964   7.129 -0.8038  2.8620  0.1293
  126OSM   H12T13443   3.413   1.105   7.091  0.4642  0.8274 -5.1927
  126OSM   C13S13444   3.505   0.913   7.187 -0.0058  0.2248  0.8266
  126OSM   H13S13445   3.607   0.947   7.161  0.2080 -1.1282 -0.1526
  126OSM   H13T13446   3.497   0.804   7.166 -1.1425  0.5007 -0.2141
  126OSM   C14S13447   3.469   0.938   7.333  0.2321 -0.2492 -0.7204
  126OSM   H14S13448   3.360   0.931   7.357  0.5220  1.2291  1.1565
  126OSM   H14T13449   3.486   1.045   7.355  2.7845 -0.5275 -1.2123
  126OSM   C15S13450   3.544   0.842   7.426 -0.0663  0.1996 -0.0567
  126OSM   H15S13451   3.653   0.851   7.408 -0.5179  2.8989 -1.5872
  126OSM   H15T13452   3.521   0.734   7.412 -0.5737  0.0961  1.5052
  126OSM   C16S13453   3.502   0.871   7.571 -0.0767 -0.0290  0.2669
  126OSM   H16S13454   3.402   0.828   7.592  0.0100 -1.1099 -1.4843
  126OSM   H16T13455   3.473   0.978   7.581 -1.5757 -0.2071 -2.0574
  126OSM   C17S13456   3.594   0.825   7.690 -0.3880  0.6829 -0.9208
  126OSM   H17S13457   3.540   0.844   7.785 -1.2789 -1.5165 -0.9617
  126OSM   H17T13458   3.681   0.894   7.688 -1.5694  2.2044 -0.8983
  126OSM   C18S13459   3.633   0.678   7.688  1.0902 -0.0364 -0.7874
  126OSM   H18S13460   3.537   0.623   7.702  1.5915 -0.8757 -0.6050
  126OSM   H18T13461   3.701   0.667   7.776  2.4651  0.1360 -1.8242
  126OSM   H18U13462   3.680   0.645   7.593  0.2007  0.3383 -1.3598
  126OSM    C1F13463   3.015   0.812   6.058  0.0799 -0.5069  0.2459
  126OSM     OF13464   2.963   0.729   5.990 -0.0972 -0.0353  0.6854
  126OSM    C2F13465   2.937   0.922   6.122 -0.1791 -0.1292 -0.6018
  126OSM    H2F13466   2.860   0.955   6.050  0.6585  0.7497 -1.1096
  126OSM    H2G13467   3.010   1.004   6.139 -0.2518  0.4132 -2.6870
  126OSM    C3F13468   2.882   0.876   6.255  0.1025 -0.2910  0.2795
  126OSM    H3F13469   2.812   0.794   6.226 -1.4141  1.3097 -0.6893
  126OSM    H3G13470   2.814   0.958   6.289 -1.6422 -1.6051  0.0199
  126OSM    C4F13471   2.978   0.831   6.365 -0.6348 -0.1715  0.5250
  126OSM    H4F13472   3.063   0.900   6.387 -1.5199  0.7933  0.9820
  126OSM    H4G13473   3.035   0.737   6.350  2.2201  1.3217  1.4384
  126OSM    C5F13474   2.896   0.821   6.488 -0.0362  0.0840 -0.0813
  126OSM    H5F13475   2.800   0.767   6.474 -0.6586  1.1948 -0.1610
  126OSM    H5G13476   2.866   0.925   6.510 -1.0010 -0.1199 -0.4223
  126OSM    C6F13477   2.967   0.749   6.609 -0.7599  0.0712  0.3439
  126OSM    H6F13478   3.057   0.809   6.634  0.2877 -1.1446 -0.4030
  126OSM    H6G13479   2.998   0.648   6.572 -1.1281 -0.1789  0.7090
  126OSM    C7F13480   2.880   0.732   6.731 -0.6030  0.3936 -0.6585
  126OSM    H7F13481   2.779   0.698   6.702  0.0159 -0.7758 -1.4849
  126OSM    H7G13482   2.878   0.832   6.780 -2.5276 -0.3062  0.7517
  126OSM    C8F13483   2.926   0.621   6.834  0.0475 -0.0290 -0.4168
  126OSM    H8F13484   2.863   0.604   6.924  3.2167  0.4070  1.9893
  126OSM    H8G13485   3.016   0.660   6.886  1.9699 -1.2348 -2.7327
  126OSM    C9F13486   2.957   0.488   6.770 -0.3113  0.1916 -0.1812
  126OSM    H9F13487   2.875   0.415   6.774  0.5684 -1.0310 -3.0579
  126OSM   C10F13488   3.081   0.452   6.727  0.1836 -0.3249  0.1494
  126OSM   H10F13489   3.092   0.356   6.674  0.3874  0.1014 -0.5891
  126OSM   C11F13490   3.203   0.536   6.733 -0.1263 -0.7853  0.2759
  126OSM   H11F13491   3.209   0.589   6.830  0.2580  0.4945 -0.4332
  126OSM   H11G13492   3.192   0.615   6.655 -0.8816 -0.8269  0.3449
  126OSM   C12F13493   3.338   0.455   6.717 -0.3107 -0.4904  0.6968
  126OSM   H12F13494   3.349   0.438   6.608 -1.8751  2.8800 -0.0774
  126OSM   H12G13495   3.345   0.359   6.772  0.3726 -1.9003 -1.7702
  126OSM   C13F13496   3.451   0.550   6.747 -0.1604 -0.0022  0.0553
  126OSM   H13F13497   3.425   0.651   6.708  0.8256  0.4821  0.6430
  126OSM   H13G13498   3.544   0.525   6.692  1.3867  3.5668  0.8829
  126OSM   C14F13499   3.494   0.555   6.897 -1.0485  0.0027 -0.0197
  126OSM   H14F13500   3.519   0.450   6.924  1.0802  0.9266  1.7175
  126OSM   H14G13501   3.420   0.582   6.975 -0.5367 -0.1207  0.5084
  126OSM   C15F13502   3.632   0.624   6.924  1.3626  0.0950  0.4780
  126OSM   H15F13503   3.599   0.730   6.928 -0.3063 -0.3407 -1.1974
  126OSM   H15G13504   3.710   0.608   6.847 -0.4139  1.2056 -1.6052
  126OSM   C16F13505   3.681   0.589   7.064 -0.9574  0.1695 -0.9660
  126OSM   H16F13506   3.702   0.480   7.070 -0.0704  0.4362  1.1720
  126OSM   H16G13507   3.591   0.595   7.128 -0.9518 -2.0920 -0.7074
  126OSM   C17F13508   3.791   0.686   7.127  0.4393  0.2038  0.2095
  126OSM   H17F13509   3.751   0.790   7.129  0.9440  0.3774  1.5270
  126OSM   H17G13510   3.874   0.701   7.055  0.4758  1.4427  0.4904
  126OSM   C18F13511   3.848   0.628   7.256 -0.2182  0.3774  0.2043
  126OSM   H18F13512   3.762   0.594   7.317  0.8759 -0.7836  1.1265
  126OSM   H18G13513   3.913   0.696   7.316  0.1424  0.5109 -0.3383
  126OSM   H18H13514   3.905   0.536   7.234  0.6352  1.0810 -0.6102
  127OSM      N13515   1.340   1.015   5.556 -0.2915 -0.2177 -0.2167
  127OSM    C1513516   1.216   0.991   5.640  0.1836  0.4501 -0.2526
  127OSM   H15A13517   1.188   0.888   5.624  2.2218  0.0026 -1.0703
  127OSM   H15B13518   1.139   1.057   5.605 -0.3516  0.0004  0.0547
  127OSM   H15C13519   1.241   1.014   5.743 -0.3974  0.6546 -0.1596
  127OSM    C1413520   1.312   0.950   5.424 -0.8336  0.0477 -0.4112
  127OSM   H14A13521   1.397   0.955   5.357 -2.4404  0.5990 -2.4543
  127OSM   H14B13522   1.225   0.982   5.369  0.0274  2.2573 -0.5312
  127OSM   H14C13523   1.288   0.847   5.449  0.1147  0.0405  0.5015
  127OSM    C1313524   1.364   1.155   5.531 -0.4903  0.1264  0.0798
  127OSM   H13A13525   1.364   1.214   5.621 -1.0988 -1.7802  1.3369
  127OSM   H13B13526   1.296   1.188   5.453  0.4047  0.4664 -0.5609
  127OSM   H13C13527   1.461   1.163   5.485  0.2991 -3.2614  1.0657
  127OSM    C1213528   1.463   0.943   5.609  1.1664 -0.1147  0.2712
  127OSM   H12A13529   1.542   0.940   5.535  0.3706  1.3970 -0.6611
  127OSM   H12B13530   1.436   0.838   5.611  0.8029 -0.0457 -0.7019
  127OSM    C1113531   1.515   0.982   5.755  0.1773  0.3396 -0.3365
  127OSM   H11A13532   1.592   0.906   5.778 -1.6382 -1.1694  0.9284
  127OSM   H11B13533   1.430   0.963   5.825  1.0852 -1.3468  0.3458
  127OSM      P13534   1.690   1.154   5.718 -0.1497 -0.4252 -0.1677
  127OSM    O1313535   1.693   1.134   5.571  0.3985 -1.0323 -0.7757
  127OSM    O1413536   1.721   1.286   5.777 -0.0953  0.0789 -0.5935
  127OSM    O1113537   1.800   1.059   5.789 -1.1283  0.4993 -0.2862
  127OSM    O1213538   1.558   1.114   5.779  0.8962  0.2275 -0.4068
  127OSM    C1S13539   1.850   1.074   5.926  0.2429 -0.2902 -0.2528
  127OSM    H1S13540   1.813   1.166   5.975 -1.0566 -1.8397  1.7822
  127OSM    H1T13541   1.961   1.077   5.931  0.2092 -0.2002  0.4701
  127OSM     NF13542   1.841   0.978   6.156  0.0189  0.1624  0.0520
  127OSM    HNF13543   1.917   0.936   6.205  0.0564  1.7302  1.3823
  127OSM    C2S13544   1.818   0.948   6.018 -0.1654 -0.1238 -0.4457
  127OSM    H2S13545   1.712   0.921   5.998 -0.1760  0.9053 -1.8697
  127OSM    C3S13546   1.896   0.826   5.961  0.0187 -0.5976  0.9819
  127OSM    H3S13547   2.002   0.856   5.948 -0.0133 -1.5907 -1.9502
  127OSM     O313548   1.848   0.781   5.833  0.0881  0.5432 -0.3175
  127OSM    HO313549   1.784   0.845   5.800  0.3095  1.6656  1.3769
  127OSM    C4S13550   1.888   0.708   6.054 -0.0002  0.0923  0.4072
  127OSM    H4S13551   1.797   0.650   6.034 -0.5639  1.3477 -0.7284
  127OSM    C5S13552   1.979   0.663   6.147  0.4066 -0.2484 -0.1826
  127OSM    H5S13553   2.070   0.724   6.163  0.2419  0.0083 -0.2138
  127OSM    C6S13554   1.964   0.535   6.233  0.2284 -0.0719  0.1493
  127OSM    H6S13555   2.058   0.481   6.258  0.8827  1.5354  1.1908
  127OSM    H6T13556   1.903   0.460   6.178  1.7596 -1.4118  0.2186
  127OSM    C7S13557   1.903   0.576   6.368  0.3513 -0.2250  0.1237
  127OSM    H7S13558   1.872   0.486   6.425 -1.9375  1.0005  0.8529
  127OSM    H7T13559   1.816   0.641   6.349  0.9074  0.5557  0.2042
  127OSM    C8S13560   2.004   0.652   6.447  0.1856  0.0349  0.0392
  127OSM    H8S13561   2.021   0.760   6.424 -1.0149  0.7998  2.5967
  127OSM    H8T13562   2.104   0.604   6.448  0.7725  1.2511  0.9561
  127OSM    C9S13563   1.961   0.656   6.599 -0.2927  0.3054  0.0653
  127OSM    H9S13564   1.956   0.554   6.643 -0.6510 -0.8252 -2.4699
  127OSM    H9T13565   1.855   0.688   6.597 -0.5672 -0.6016 -0.0924
  127OSM   C10S13566   2.018   0.758   6.700  0.4384 -0.6655 -0.2921
  127OSM   H10S13567   1.973   0.749   6.801 -1.3569 -2.2040 -1.2034
  127OSM   H10T13568   2.003   0.860   6.660 -0.7305 -0.1386  1.4593
  127OSM   C11S13569   2.169   0.734   6.717 -0.4997 -0.1358 -0.0008
  127OSM   H11S13570   2.212   0.723   6.616 -0.7478 -0.7544 -0.0403
  127OSM   H11T13571   2.198   0.633   6.752 -3.1332 -1.8356 -2.5121
  127OSM   C12S13572   2.254   0.838   6.800 -0.2904 -0.4359  0.2559
  127OSM   H12S13573   2.241   0.943   6.765  0.1735 -0.8002 -1.0445
  127OSM   H12T13574   2.362   0.814   6.791 -0.1444  0.3636 -0.2055
  127OSM   C13S13575   2.210   0.833   6.948  0.6782  0.0858  0.7469
  127OSM   H13S13576   2.157   0.741   6.981 -0.0993 -0.2384 -1.3735
  127OSM   H13T13577   2.128   0.908   6.954  1.1039  1.0347 -3.8787
  127OSM   C14S13578   2.312   0.876   7.048 -0.3251 -0.7691 -0.4563
  127OSM   H14S13579   2.376   0.959   7.010 -1.0128 -0.3392 -0.6929
  127OSM   H14T13580   2.377   0.791   7.076  0.8955  1.3695  3.5972
  127OSM   C15S13581   2.246   0.930   7.179 -0.9655  0.2895  0.9671
  127OSM   H15S13582   2.150   0.876   7.197 -1.1495  0.6540  1.0738
  127OSM   H15T13583   2.234   1.039   7.165 -1.2356  0.0668 -0.6181
  127OSM   C16S13584   2.337   0.911   7.300  0.5421 -0.2758  0.5218
  127OSM   H16S13585   2.306   0.989   7.372  0.8834 -0.8996  1.3537
  127OSM   H16T13586   2.442   0.934   7.270  0.5714  2.6058  2.6629
  127OSM   C17S13587   2.321   0.770   7.359  0.1324  0.3803 -0.0811
  127OSM   H17S13588   2.346   0.683   7.295  1.1552 -1.6738  3.0027
  127OSM   H17T13589   2.213   0.754   7.380 -0.3132  2.8129 -0.4177
  127OSM   C18S13590   2.394   0.739   7.490  0.7870  0.1118 -0.5689
  127OSM   H18S13591   2.505   0.742   7.490  0.9392 -2.1716  2.6732
  127OSM   H18T13592   2.375   0.631   7.507 -0.7580  0.2359 -1.4202
  127OSM   H18U13593   2.364   0.792   7.583  2.3812  1.0337 -0.5579
  127OSM    C1F13594   1.767   1.068   6.228 -0.0525  0.5986 -0.1770
  127OSM     OF13595   1.670   1.125   6.175  0.3246  0.0104  0.4665
  127OSM    C2F13596   1.817   1.090   6.360 -0.4064  0.8049  0.3235
  127OSM    H2F13597   1.904   1.160   6.361 -1.3033  1.9236  0.9804
  127OSM    H2G13598   1.852   0.996   6.407 -1.1776 -0.6475 -1.9308
  127OSM    C3F13599   1.722   1.176   6.445 -0.0404  0.1850 -0.3560
  127OSM    H3F13600   1.616   1.143   6.445  0.4901 -1.6422  1.5349
  127OSM    H3G13601   1.733   1.284   6.422 -1.7258  0.6993  1.0783
  127OSM    C4F13602   1.763   1.162   6.597 -0.1378  0.2435 -0.0620
  127OSM    H4F13603   1.867   1.197   6.613  0.0351 -0.3704  0.1897
  127OSM    H4G13604   1.749   1.053   6.613 -2.2174  0.4245 -0.4893
  127OSM    C5F13605   1.666   1.225   6.700 -0.1018 -0.4045  0.9283
  127OSM    H5F13606   1.563   1.186   6.688  0.1399 -1.5156  2.2443
  127OSM    H5G13607   1.662   1.334   6.684 -1.1733 -0.2654  2.0636
  127OSM    C6F13608   1.715   1.199   6.847 -0.4005  0.0862 -0.0219
  127OSM    H6F13609   1.639   1.242   6.916  0.9608 -0.3622  1.7872
  127OSM    H6G13610   1.810   1.255   6.863 -0.2243 -0.8547  2.5104
  127OSM    C7F13611   1.725   1.053   6.892 -0.0683  0.2522 -0.4479
  127OSM    H7F13612   1.801   0.996   6.835  1.4079  1.6070  0.1453
  127OSM    H7G13613   1.630   0.998   6.872  0.5597 -1.9889  2.3893
  127OSM    C8F13614   1.747   1.029   7.043 -0.3188 -0.2221 -0.4616
  127OSM    H8F13615   1.740   0.919   7.056  1.1369 -0.1497  1.1172
  127OSM    H8G13616   1.673   1.081   7.108 -0.7823 -0.6072 -0.6852
  127OSM    C9F13617   1.889   1.079   7.086 -0.1910 -0.6780 -0.0802
  127OSM    H9F13618   1.964   1.076   7.006 -1.3231  0.7844 -1.2106
  127OSM   C10F13619   1.926   1.123   7.211  0.2533  0.2563 -0.1610
  127OSM   H10F13620   2.034   1.131   7.232  0.2052  0.7746 -0.1029
  127OSM   C11F13621   1.833   1.138   7.334 -0.2552 -0.5848  0.1942
  127OSM   H11F13622   1.760   1.054   7.331 -1.3352  0.2311  2.5653
  127OSM   H11G13623   1.769   1.228   7.321  1.3011  0.4042 -0.7681
  127OSM   C12F13624   1.890   1.136   7.474  0.2159 -0.0553 -0.3514
  127OSM   H12F13625   1.952   1.225   7.494  0.9270 -0.5935 -0.1498
  127OSM   H12G13626   1.946   1.043   7.495  0.1683 -0.1410 -0.5964
  127OSM   C13F13627   1.776   1.133   7.575  0.6501  0.8850  0.3629
  127OSM   H13F13628   1.719   1.041   7.549  2.3602  0.8186 -3.5781
  127OSM   H13G13629   1.725   1.228   7.550 -0.0218 -0.0527 -1.9318
  127OSM   C14F13630   1.833   1.120   7.718 -0.4249  0.6936 -0.1913
  127OSM   H14F13631   1.896   1.210   7.733  1.1900 -0.6000  0.8688
  127OSM   H14G13632   1.890   1.027   7.736 -2.3105 -0.1919  1.3969
  127OSM   C15F13633   1.718   1.127   7.821  0.3445  0.5806  0.1664
  127OSM   H15F13634   1.645   1.047   7.797  1.7770 -0.6279 -0.2102
  127OSM   H15G13635   1.661   1.221   7.804 -1.1697  0.0314  1.9639
  127OSM   C16F13636   1.748   1.110   7.976  0.2049  0.3511 -0.3946
  127OSM   H16F13637   1.812   1.019   7.971  1.5882  1.2190  1.2040
  127OSM   H16G13638   1.655   1.090   8.034  0.0988  0.6516 -0.4613
  127OSM   C17F13639   1.830   1.233   8.026  0.4996  0.1016  0.7063
  127OSM   H17F13640   1.756   1.317   8.027  0.5057  0.1902 -1.8228
  127OSM   H17G13641   1.900   1.261   7.944 -0.0304 -0.8625 -0.0907
  127OSM   C18F13642   1.910   1.210   8.152 -0.3751  0.1847 -0.2600
  127OSM   H18F13643   1.844   1.170   8.232  1.6014 -2.7565  0.0074
  127OSM   H18G13644   1.955   1.305   8.188  0.6428 -1.0187  1.7600
  127OSM   H18H13645   1.990   1.134   8.133  0.0794  0.7719 -0.7065
  128OSM      N13646   5.662   5.575   5.622 -0.3343  0.0347  0.6010
  128OSM    C1513647   5.570   5.622   5.736 -0.1020  0.7376 -0.0456
  128OSM   H15A13648   5.537   5.538   5.795  2.0199 -0.8384 -1.0475
  128OSM   H15B13649   5.493   5.690   5.701  0.6256  0.8693 -1.4056
  128OSM   H15C13650   5.631   5.679   5.804 -0.0197 -0.0838  0.5784
  128OSM    C1413651   5.568   5.506   5.526  0.2469 -0.1955  0.6851
  128OSM   H14A13652   5.615   5.469   5.436  1.4311 -2.7170  2.2836
  128OSM   H14B13653   5.485   5.570   5.501 -0.1551 -0.8919  0.1779
  128OSM   H14C13654   5.530   5.418   5.576  0.2988 -0.8553 -0.4097
  128OSM    C1313655   5.714   5.693   5.548 -0.0715 -0.4126  0.1143
  128OSM   H13A13656   5.637   5.744   5.492 -0.9490 -0.3495  1.3442
  128OSM   H13B13657   5.788   5.656   5.479 -0.0415  1.3254 -0.8183
  128OSM   H13C13658   5.768   5.765   5.609  1.2605 -0.7489 -0.6499
  128OSM    C1213659   5.771   5.479   5.670 -0.9626 -0.1987 -0.3364
  128OSM   H12A13660   5.817   5.435   5.583  2.1948  1.5550  0.3555
  128OSM   H12B13661   5.725   5.394   5.718 -2.7315  1.1455  0.4216
  128OSM    C1113662   5.871   5.528   5.773 -0.4184  0.1536 -0.6702
  128OSM   H11A13663   5.939   5.445   5.804 -0.0296 -0.5742 -3.3889
  128OSM   H11B13664   5.813   5.543   5.867 -0.6116 -2.9803 -0.2082
  128OSM      P13665   6.063   5.630   5.621  0.2146  0.0244  0.0536
  128OSM    O1313666   6.070   5.498   5.553 -0.1619  0.5372  0.6038
  128OSM    O1413667   6.049   5.751   5.534  0.1269  0.1522  0.0214
  128OSM    O1113668   6.199   5.661   5.693  0.1764  0.2823 -0.1911
  128OSM    O1213669   5.951   5.633   5.729 -0.1682 -0.3533  0.1651
  128OSM    C1S13670   6.213   5.720   5.821 -0.0120 -0.4207 -0.2349
  128OSM    H1S13671   6.138   5.801   5.836  0.8639  0.7659 -2.1735
  128OSM    H1T13672   6.311   5.771   5.822  0.6716 -1.7171 -0.5679
  128OSM     NF13673   6.233   5.685   6.056  0.3213  0.3992  0.7146
  128OSM    HNF13674   6.323   5.700   6.096  1.0841 -0.8975 -0.4816
  128OSM    C2S13675   6.223   5.613   5.934  0.5137 -0.0635 -0.0466
  128OSM    H2S13676   6.129   5.554   5.925  1.2024 -1.4314  1.6437
  128OSM    C3S13677   6.341   5.512   5.913  1.2240  0.4218  0.6208
  128OSM    H3S13678   6.441   5.559   5.921  1.4715  0.4319 -2.0441
  128OSM     O313679   6.330   5.451   5.785 -0.2157 -0.4277 -0.0363
  128OSM    HO313680   6.248   5.478   5.743 -0.6260 -0.7836  0.5206
  128OSM    C4S13681   6.338   5.410   6.023 -0.2519 -1.0641  0.0834
  128OSM    H4S13682   6.251   5.347   6.046 -0.8608  0.3003  1.6359
  128OSM    C5S13683   6.439   5.386   6.107 -0.5557 -0.7638  0.3452
  128OSM    H5S13684   6.531   5.447   6.101 -0.2087 -1.3960 -1.0468
  128OSM    C6S13685   6.443   5.277   6.212  0.2770  0.3705  0.1008
  128OSM    H6S13686   6.500   5.183   6.193 -3.2731 -2.0674  0.8390
  128OSM    H6T13687   6.343   5.228   6.211  0.1161  0.7039 -0.8824
  128OSM    C7S13688   6.481   5.318   6.357  0.0888 -0.2690  0.0227
  128OSM    H7S13689   6.433   5.411   6.393  0.2178  0.3663 -1.3910
  128OSM    H7T13690   6.591   5.335   6.353 -0.1239  1.2512  0.1032
  128OSM    C8S13691   6.444   5.208   6.457 -0.1299  0.0273  0.0043
  128OSM    H8S13692   6.504   5.115   6.445 -0.4213  0.0760 -1.8896
  128OSM    H8T13693   6.335   5.187   6.447 -0.6369  1.2936  2.4736
  128OSM    C9S13694   6.484   5.262   6.594  0.5476  0.1095  0.1362
  128OSM    H9S13695   6.415   5.344   6.621 -0.2737  0.0395 -1.6634
  128OSM    H9T13696   6.587   5.303   6.583 -0.1420  1.3682 -1.9852
  128OSM   C10S13697   6.490   5.157   6.710  0.5992  0.3785  0.6506
  128OSM   H10S13698   6.562   5.079   6.678  1.1314  0.4857  1.5666
  128OSM   H10T13699   6.393   5.102   6.719  0.8521 -0.4136 -1.3070
  128OSM   C11S13700   6.533   5.234   6.831 -0.8427  1.0133 -0.9252
  128OSM   H11S13701   6.459   5.306   6.872 -1.1026 -0.3750  1.1134
  128OSM   H11T13702   6.617   5.299   6.799  0.9516 -0.5402  0.5598
  128OSM   C12S13703   6.570   5.134   6.941  0.2359  0.6330  0.1862
  128OSM   H12S13704   6.655   5.070   6.908 -0.7682 -0.6883  0.1366
  128OSM   H12T13705   6.491   5.058   6.958  1.2915 -0.4150  0.4675
  128OSM   C13S13706   6.626   5.204   7.060 -0.1621  0.2716 -0.7333
  128OSM   H13S13707   6.563   5.293   7.081  2.5695  2.1282 -0.2036
  128OSM   H13T13708   6.726   5.244   7.034 -0.5574  0.7733 -1.5376
  128OSM   C14S13709   6.619   5.117   7.187 -0.0660  0.4639  0.2393
  128OSM   H14S13710   6.521   5.065   7.186 -0.3395  0.9008  2.1628
  128OSM   H14T13711   6.632   5.174   7.281 -0.7566  0.1100  0.5489
  128OSM   C15S13712   6.731   5.007   7.196  0.2083  0.1687  0.1258
  128OSM   H15S13713   6.828   5.059   7.185  0.0308  0.4415 -0.1657
  128OSM   H15T13714   6.735   4.930   7.117  0.8036  0.4244 -0.0949
  128OSM   C16S13715   6.710   4.921   7.323  0.6125 -0.4920 -0.7868
  128OSM   H16S13716   6.678   4.982   7.410  0.4730  0.9239 -1.8131
  128OSM   H16T13717   6.809   4.879   7.349  0.1967 -0.0679  1.5156
  128OSM   C17S13718   6.614   4.805   7.300  0.7049  0.1031 -0.5548
  128OSM   H17S13719   6.512   4.841   7.272  0.7385 -0.7573 -1.8555
  128OSM   H17T13720   6.606   4.750   7.396  1.2565 -1.6542 -1.4763
  128OSM   C18S13721   6.660   4.698   7.198 -0.4677  0.0667 -0.7002
  128OSM   H18S13722   6.682   4.730   7.094 -1.6264 -0.6176 -1.1613
  128OSM   H18T13723   6.570   4.634   7.187 -2.0960  2.2791 -0.4644
  128OSM   H18U13724   6.759   4.651   7.222  1.2093  3.6494 -0.2955
  128OSM    C1F13725   6.124   5.732   6.114  0.4563 -0.7665  0.4807
  128OSM     OF13726   6.011   5.726   6.067  0.0404  0.2971  0.2124
  128OSM    C2F13727   6.152   5.788   6.256  0.5327  0.0077  0.2371
  128OSM    H2F13728   6.130   5.897   6.246  2.4185  0.2363 -1.6619
  128OSM    H2G13729   6.259   5.770   6.280  1.1285 -0.4908 -2.6541
  128OSM    C3F13730   6.058   5.707   6.353 -0.2033  0.2350  0.1294
  128OSM    H3F13731   6.067   5.598   6.336  1.3753 -0.2381  3.6341
  128OSM    H3G13732   5.951   5.728   6.328 -0.1819  0.7694  0.4705
  128OSM    C4F13733   6.094   5.736   6.501 -0.1213  0.4622 -0.3864
  128OSM    H4F13734   5.999   5.714   6.554  0.4284  1.5373  1.0661
  128OSM    H4G13735   6.116   5.843   6.521  0.3929  0.1975  0.5107
  128OSM    C5F13736   6.212   5.660   6.543  0.1009  0.0768  0.8005
  128OSM    H5F13737   6.308   5.682   6.492 -0.9320 -0.2190 -1.2947
  128OSM    H5G13738   6.186   5.553   6.530 -0.3809  0.4495 -1.3508
  128OSM    C6F13739   6.242   5.687   6.692  0.5584 -0.1575  0.4252
  128OSM    H6F13740   6.147   5.713   6.743  0.8301  2.9112 -0.4755
  128OSM    H6G13741   6.312   5.773   6.699  0.1407  0.2908 -0.7506
  128OSM    C7F13742   6.328   5.569   6.749  0.6240  0.4124 -0.4464
  128OSM    H7F13743   6.419   5.539   6.692 -0.7202 -3.2090 -0.7930
  128OSM    H7G13744   6.264   5.479   6.757  1.5630 -0.1320  1.3462
  128OSM    C8F13745   6.368   5.599   6.892 -0.2936 -0.0793 -0.2122
  128OSM    H8F13746   6.444   5.680   6.881 -0.0278 -0.2528  0.3394
  128OSM    H8G13747   6.428   5.517   6.936 -0.1062  0.8020  1.2235
  128OSM    C9F13748   6.246   5.633   6.982 -0.4320 -0.1956  0.5311
  128OSM    H9F13749   6.186   5.724   6.965 -2.3888 -1.3392  1.1793
  128OSM   C10F13750   6.207   5.571   7.093 -0.2861 -0.2265 -0.3142
  128OSM   H10F13751   6.134   5.624   7.156 -1.2373 -2.1473  0.2443
  128OSM   C11F13752   6.260   5.447   7.161 -0.1835  0.2102 -0.3425
  128OSM   H11F13753   6.291   5.367   7.090 -1.6314 -0.2586 -0.4713
  128OSM   H11G13754   6.172   5.407   7.217 -1.1289  0.0320 -1.9368
  128OSM   C12F13755   6.378   5.470   7.264  0.1175 -0.0592 -0.1979
  128OSM   H12F13756   6.366   5.569   7.312 -0.5253  0.2614 -0.9970
  128OSM   H12G13757   6.471   5.472   7.203 -0.5419 -3.3872 -1.4484
  128OSM   C13F13758   6.387   5.376   7.385 -0.7218 -0.1099  0.4565
  128OSM   H13F13759   6.402   5.274   7.343 -0.3010 -0.1432  0.6932
  128OSM   H13G13760   6.283   5.363   7.423 -1.5773  0.0354 -1.7421
  128OSM   C14F13761   6.499   5.402   7.487  0.3043 -0.1131  0.3804
  128OSM   H14F13762   6.601   5.380   7.450  1.2715  3.5915  0.6289
  128OSM   H14G13763   6.490   5.334   7.574 -0.6745 -0.9001 -0.3260
  128OSM   C15F13764   6.514   5.553   7.539  0.5487  0.2248 -0.0383
  128OSM   H15F13765   6.415   5.588   7.576  0.2517  0.5904 -1.1762
  128OSM   H15G13766   6.549   5.622   7.460  0.5065 -0.1010 -0.3415
  128OSM   C16F13767   6.621   5.555   7.641 -0.8162 -0.3964  0.0410
  128OSM   H16F13768   6.716   5.518   7.597 -0.0368  2.7641 -1.0300
  128OSM   H16G13769   6.590   5.504   7.735  0.4382 -1.8799 -0.3349
  128OSM   C17F13770   6.662   5.703   7.684  0.1715  0.4073 -0.4828
  128OSM   H17F13771   6.712   5.762   7.604  1.5635  1.2290  0.9537
  128OSM   H17G13772   6.736   5.688   7.766  0.4149  1.0870 -0.5703
  128OSM   C18F13773   6.547   5.776   7.754  0.6463  1.1002  0.3351
  128OSM   H18F13774   6.497   5.710   7.828 -0.6277  1.8905  0.1883
  128OSM   H18G13775   6.470   5.797   7.677 -1.1594  0.0585  1.8340
  128OSM   H18H13776   6.578   5.865   7.814  1.6297  1.2832 -0.4368
  129OSM      N13777   4.352   0.716   5.644 -0.2242 -0.1326  0.6171
  129OSM    C1513778   4.465   0.621   5.615 -0.1544 -0.2864  0.1862
  129OSM   H15A13779   4.479   0.538   5.683  0.6235 -1.4972 -1.4343
  129OSM   H15B13780   4.560   0.671   5.609  0.3950 -0.8700  3.1007
  129OSM   H15C13781   4.435   0.578   5.521 -1.4537  0.5252  0.2177
  129OSM    C1413782   4.399   0.809   5.750  0.2703  0.3146 -0.4118
  129OSM   H14A13783   4.468   0.876   5.701  0.4520 -0.5484 -1.3469
  129OSM   H14B13784   4.453   0.759   5.829  0.0113 -0.9062 -1.0046
  129OSM   H14C13785   4.314   0.865   5.789 -0.0193  0.1508 -0.8133
  129OSM    C1313786   4.339   0.791   5.517  0.1891  0.6076  0.0534
  129OSM   H13A13787   4.285   0.884   5.531  2.7566  2.0790  0.4495
  129OSM   H13B13788   4.277   0.735   5.448  1.6631 -3.6620  2.0319
  129OSM   H13C13789   4.440   0.812   5.485  0.5954 -0.5677  0.5571
  129OSM    C1213790   4.231   0.635   5.690 -0.4720  0.1932  0.2899
  129OSM   H12A13791   4.210   0.570   5.607  0.9489 -1.2075  1.0045
  129OSM   H12B13792   4.150   0.707   5.688 -0.1806  0.5103 -0.1583
  129OSM    C1113793   4.247   0.548   5.816  0.3707 -0.5777 -0.3784
  129OSM   H11A13794   4.273   0.613   5.903  0.7981 -1.6285  0.2886
  129OSM   H11B13795   4.321   0.467   5.800 -0.5766 -1.7529  1.0418
  129OSM      P13796   4.054   0.383   5.810  0.5992 -0.1506  0.0430
  129OSM    O1313797   3.908   0.399   5.834  0.7682  0.2512  0.3776
  129OSM    O1413798   4.109   0.325   5.687  0.4018 -0.2962 -0.4185
  129OSM    O1113799   4.112   0.296   5.930  0.0600 -0.5076  0.0058
  129OSM    O1213800   4.115   0.516   5.848 -0.0895  0.3517  0.1701
  129OSM    C1S13801   4.091   0.155   5.932  0.5399  0.3745 -0.5481
  129OSM    H1S13802   4.154   0.115   5.849 -0.5302 -0.6996 -0.8625
  129OSM    H1T13803   3.985   0.130   5.907  1.3241 -1.1759 -2.4485
  129OSM     NF13804   4.111  -0.062   6.052  0.0795 -0.7347 -0.2029
  129OSM    HNF13805   4.042  -0.096   6.116 -0.5502 -1.1770 -1.1013
  129OSM    C2S13806   4.130   0.086   6.063 -0.0521  0.3347  0.1222
  129OSM    H2S13807   4.239   0.106   6.067 -0.0243  0.2907 -0.4730
  129OSM    C3S13808   4.058   0.150   6.181  0.2743  0.1366 -0.1799
  129OSM    H3S13809   3.950   0.144   6.156  0.5276 -1.5832 -0.8967
  129OSM     O313810   4.063   0.288   6.190  0.3722 -0.4442 -0.2002
  129OSM    HO313811   4.086   0.315   6.101  1.7130  0.6129  0.4485
  129OSM    C4S13812   4.090   0.087   6.311 -0.2948  0.3114 -0.6239
  129OSM    H4S13813   4.019   0.005   6.332  1.9957 -1.3119  1.0641
  129OSM    C5S13814   4.186   0.110   6.400  0.3164 -0.2490  0.4712
  129OSM    H5S13815   4.246   0.201   6.382  2.2529 -1.3223  1.3677
  129OSM    C6S13816   4.214   0.039   6.538 -0.5121  0.1712  0.1995
  129OSM    H6S13817   4.213   0.117   6.616  0.7778  0.6235 -0.2276
  129OSM    H6T13818   4.322   0.016   6.543 -1.0027 -1.8378  2.0553
  129OSM    C7S13819   4.128  -0.081   6.564  0.1794  0.6240  0.3550
  129OSM    H7S13820   4.148  -0.172   6.504  1.2496  1.1183 -0.0503
  129OSM    H7T13821   4.020  -0.055   6.556  0.7020  3.0035  0.6506
  129OSM    C8S13822   4.150  -0.136   6.710  0.3380  1.1372  0.2151
  129OSM    H8S13823   4.167  -0.051   6.779 -0.8874  0.9343  0.7619
  129OSM    H8T13824   4.247  -0.191   6.705 -0.8745 -0.9900 -0.0702
  129OSM    C9S13825   4.030  -0.222   6.752 -0.2102  0.1247 -0.2591
  129OSM    H9S13826   3.983  -0.267   6.662  0.9028 -0.7508 -0.4052
  129OSM    H9T13827   3.967  -0.148   6.807  0.7512  1.3033 -0.7563
  129OSM   C10S13828   4.073  -0.341   6.850 -0.7084 -0.5251  0.8414
  129OSM   H10S13829   4.152  -0.397   6.796 -0.5341 -1.1330  1.7239
  129OSM   H10T13830   3.973  -0.390   6.856 -1.1850  0.1437 -1.1748
  129OSM   C11S13831   4.124  -0.292   6.988 -0.6506  0.3325 -0.0504
  129OSM   H11S13832   4.222  -0.239   6.985  0.7800 -2.0137  2.5733
  129OSM   H11T13833   4.143  -0.388   7.040  1.5823 -0.5402 -2.3860
  129OSM   C12S13834   4.036  -0.207   7.085 -0.3740  0.1780 -0.3747
  129OSM   H12S13835   3.931  -0.245   7.084 -0.5643  0.1438  4.8099
  129OSM   H12T13836   4.036  -0.097   7.069  1.1026  0.3187  0.5507
  129OSM   C13S13837   4.095  -0.222   7.228  0.7631 -0.2838  0.1511
  129OSM   H13S13838   4.194  -0.172   7.215  1.1606 -1.4040 -1.2972
  129OSM   H13T13839   4.115  -0.329   7.249 -1.4067 -0.2496  2.4569
  129OSM   C14S13840   4.000  -0.150   7.325 -0.2457 -0.4765  0.6323
  129OSM   H14S13841   3.911  -0.215   7.337 -1.2711  0.7377 -0.2275
  129OSM   H14T13842   3.956  -0.052   7.297 -1.2616 -1.0879  0.1079
  129OSM   C15S13843   4.063  -0.129   7.460  0.0321  0.4659 -0.0862
  129OSM   H15S13844   4.147  -0.056   7.461 -0.5391  1.1261  0.1919
  129OSM   H15T13845   4.102  -0.225   7.499 -3.0027 -1.0894 -0.7443
  129OSM   C16S13846   3.968  -0.088   7.572 -0.5846  0.2027  0.0657
  129OSM   H16S13847   3.878  -0.152   7.558 -0.9255  0.8568 -0.8692
  129OSM   H16T13848   3.930   0.017   7.574  0.0781  0.4145  1.5768
  129OSM   C17S13849   4.033  -0.098   7.708 -0.2893 -0.0108 -0.0213
  129OSM   H17S13850   4.130  -0.044   7.717 -0.2037 -0.0468 -0.7141
  129OSM   H17T13851   4.060  -0.200   7.743 -1.1662 -0.4147 -0.5301
  129OSM   C18S13852   3.943  -0.038   7.823  0.2315  0.8391  0.0815
  129OSM   H18S13853   3.945   0.073   7.815  1.2532  0.7334 -1.3009
  129OSM   H18T13854   3.986  -0.047   7.925 -1.9114  1.4566  1.0640
  129OSM   H18U13855   3.838  -0.074   7.821 -0.0077  1.5014  0.4997
  129OSM    C1F13856   4.186  -0.145   5.985  0.0122 -0.4023  0.4215
  129OSM     OF13857   4.278  -0.102   5.916 -0.0759 -0.2670  0.0109
  129OSM    C2F13858   4.157  -0.290   5.999  0.0742  0.1899 -0.6364
  129OSM    H2F13859   4.152  -0.332   5.897  3.2212  1.5096 -1.4026
  129OSM    H2G13860   4.055  -0.298   6.041 -0.1708  3.7955 -0.4171
  129OSM    C3F13861   4.271  -0.367   6.078 -0.5669 -0.1765 -0.0347
  129OSM    H3F13862   4.374  -0.353   6.040 -0.5336  1.4319  0.6276
  129OSM    H3G13863   4.252  -0.475   6.055 -0.6599 -0.3308  0.7366
  129OSM    C4F13864   4.272  -0.331   6.231 -0.7319 -0.0567  0.6810
  129OSM    H4F13865   4.169  -0.336   6.273 -0.4848 -0.0799  1.2824
  129OSM    H4G13866   4.314  -0.229   6.240  0.4237 -0.4096 -0.4047
  129OSM    C5F13867   4.357  -0.421   6.319 -0.4451  0.0167 -0.1803
  129OSM    H5F13868   4.449  -0.444   6.262 -0.5874  0.1708 -0.4793
  129OSM    H5G13869   4.293  -0.511   6.331 -1.3609  0.5234 -1.1352
  129OSM    C6F13870   4.376  -0.351   6.458  0.1138  0.4051  1.0759
  129OSM    H6F13871   4.271  -0.334   6.492  1.0747  1.7877  3.4288
  129OSM    H6G13872   4.421  -0.251   6.440 -0.6297  0.6181  0.3679
  129OSM    C7F13873   4.459  -0.425   6.561 -0.5609  0.7943 -0.0171
  129OSM    H7F13874   4.562  -0.432   6.519 -0.2915  0.6107  0.6816
  129OSM    H7G13875   4.425  -0.529   6.578 -1.3777  0.8673 -1.1424
  129OSM    C8F13876   4.492  -0.343   6.686 -0.4075  0.7624 -0.6696
  129OSM    H8F13877   4.408  -0.302   6.745  1.0598  1.3722  1.0321
  129OSM    H8G13878   4.534  -0.247   6.650  1.7700  1.2245  2.9445
  129OSM    C9F13879   4.587  -0.414   6.778 -1.0577 -0.6434  0.2267
  129OSM    H9F13880   4.694  -0.405   6.752 -1.1998 -0.0691 -0.1726
  129OSM   C10F13881   4.557  -0.484   6.893 -0.0661  0.1190  0.2605
  129OSM   H10F13882   4.633  -0.553   6.933 -0.3772  1.2391  2.8580
  129OSM   C11F13883   4.412  -0.518   6.944  0.2980 -0.4951  0.6406
  129OSM   H11F13884   4.385  -0.611   6.890 -2.8377  1.1846 -0.8036
  129OSM   H11G13885   4.334  -0.441   6.926  0.0250 -1.1546 -1.1221
  129OSM   C12F13886   4.427  -0.551   7.092 -0.0027 -0.6296  0.5579
  129OSM   H12F13887   4.512  -0.613   7.127 -1.2067 -1.7326  1.6069
  129OSM   H12G13888   4.340  -0.612   7.127 -1.9940  1.8176  0.0048
  129OSM   C13F13889   4.426  -0.418   7.177 -0.2199 -0.1697 -0.7557
  129OSM   H13F13890   4.343  -0.352   7.145 -0.9245  0.8411  2.9602
  129OSM   H13G13891   4.523  -0.366   7.169 -0.8523  0.8969 -1.6441
  129OSM   C14F13892   4.401  -0.449   7.327  0.6899 -0.1602  0.7359
  129OSM   H14F13893   4.311  -0.511   7.343  1.5520 -1.3732  0.9814
  129OSM   H14G13894   4.386  -0.350   7.375 -0.2360  0.3395 -0.5550
  129OSM   C15F13895   4.521  -0.510   7.394  0.3761  0.2180  0.4837
  129OSM   H15F13896   4.613  -0.459   7.358  0.9185 -1.4985 -0.6487
  129OSM   H15G13897   4.534  -0.619   7.375  2.3631  0.4241  0.4893
  129OSM   C16F13898   4.519  -0.492   7.549  0.7280 -0.0270  0.3371
  129OSM   H16F13899   4.502  -0.391   7.591  1.1191  1.1288 -2.2267
  129OSM   H16G13900   4.618  -0.522   7.588  0.0609 -0.5428  1.6560
  129OSM   C17F13901   4.421  -0.587   7.617  1.1640 -0.0042  0.1762
  129OSM   H17F13902   4.427  -0.688   7.570 -3.0936  0.2324 -1.1276
  129OSM   H17G13903   4.316  -0.550   7.611  0.7156 -0.6554  3.1803
  129OSM   C18F13904   4.442  -0.618   7.769  0.0514 -0.1408 -0.6115
  129OSM   H18F13905   4.408  -0.721   7.792  0.1367 -0.2408 -0.9318
  129OSM   H18G13906   4.418  -0.540   7.845  1.3508  2.3378 -2.6549
  129OSM   H18H13907   4.552  -0.619   7.784 -0.0706 -2.3372  0.3935
  130OSM      N13908   0.262   3.041   5.614  0.4675  0.4263 -0.1010
  130OSM    C1513909   0.202   2.932   5.543 -0.4134 -0.2944  0.1267
  130OSM   H15A13910   0.101   2.950   5.510 -0.0004 -2.5128 -2.6360
  130OSM   H15B13911   0.196   2.847   5.609 -4.2974  0.6838  1.1693
  130OSM   H15C13912   0.249   2.905   5.449 -1.0222 -1.0241  0.0275
  130OSM    C1413913   0.401   2.989   5.658  0.7863  0.2220  0.3746
  130OSM   H14A13914   0.449   2.941   5.574 -0.0384  0.8584 -0.4737
  130OSM   H14B13915   0.382   2.916   5.736  1.9510 -3.3612 -2.5641
  130OSM   H14C13916   0.456   3.069   5.704 -0.2298  1.3016 -0.2611
  130OSM    C1313917   0.281   3.152   5.513  0.6771  0.1196  0.6807
  130OSM   H13A13918   0.335   3.236   5.555 -0.4585  1.5762 -0.7139
  130OSM   H13B13919   0.180   3.178   5.485  0.9379  0.9262  0.4833
  130OSM   H13C13920   0.322   3.114   5.420 -0.0107 -1.7929  1.1416
  130OSM    C1213921   0.188   3.086   5.736 -0.0494 -0.4184 -0.3048
  130OSM   H12A13922   0.087   3.117   5.713  0.9081  2.3855 -0.8588
  130OSM   H12B13923   0.232   3.179   5.768 -0.8893  0.2612 -1.1035
  130OSM    C1113924   0.181   2.982   5.858 -0.3879  0.3289  0.1875
  130OSM   H11A13925   0.124   3.017   5.947  1.9689  0.5954  1.6311
  130OSM   H11B13926   0.285   2.958   5.887 -0.4869 -0.0502  0.2296
  130OSM      P13927  -0.029   2.826   5.850  0.0404 -0.2669  0.0039
  130OSM    O1313928  -0.118   2.942   5.833 -0.8564 -0.1032 -0.5889
  130OSM    O1413929  -0.077   2.694   5.786  0.1985 -0.2949  0.2559
  130OSM    O1113930  -0.027   2.798   6.006 -0.1394 -0.0053  0.0406
  130OSM    O1213931   0.123   2.852   5.826 -1.0831  0.0991 -0.2439
  130OSM    C1S13932   0.055   2.695   6.059 -0.0409 -0.9229  0.0570
  130OSM    H1S13933   0.162   2.723   6.049  0.0187 -1.0299  0.3788
  130OSM    H1T13934   0.050   2.597   6.008 -0.6756 -1.2707  0.7839
  130OSM     NF13935   0.141   2.582   6.256 -0.0485 -0.3510 -0.5944
  130OSM    HNF13936   0.129   2.483   6.255  0.8150 -0.4525 -1.0747
  130OSM    C2S13937   0.023   2.658   6.210 -0.2027  0.1048  0.1060
  130OSM    H2S13938   0.010   2.752   6.268  0.0262  0.8954 -1.1023
  130OSM    C3S13939  -0.104   2.585   6.208  0.0876 -0.3809 -0.5461
  130OSM    H3S13940  -0.088   2.495   6.145  1.3730 -0.1969 -0.4873
  130OSM     O313941  -0.209   2.662   6.150 -0.1150  0.2500 -0.1783
  130OSM    HO313942  -0.157   2.732   6.110 -1.9393 -0.5457 -4.1277
  130OSM    C4S13943  -0.139   2.548   6.350 -0.1866  0.1052 -0.3187
  130OSM    H4S13944  -0.178   2.628   6.415 -1.8948 -0.0166 -1.1484
  130OSM    C5S13945  -0.115   2.424   6.385 -0.6295 -0.0936  0.6690
  130OSM    H5S13946  -0.061   2.351   6.322 -0.6971 -0.5240  1.1060
  130OSM    C6S13947  -0.130   2.368   6.527  0.6975 -0.6361 -0.4429
  130OSM    H6S13948  -0.033   2.328   6.563  0.3643 -1.1877 -0.1610
  130OSM    H6T13949  -0.198   2.280   6.524 -0.1192 -0.1212  2.0955
  130OSM    C7S13950  -0.186   2.455   6.646  0.1072  0.3159  0.2019
  130OSM    H7S13951  -0.280   2.509   6.624  0.8160  1.1972 -0.7400
  130OSM    H7T13952  -0.105   2.529   6.665 -0.0293  0.8790 -1.3115
  130OSM    C8S13953  -0.220   2.380   6.773 -0.2685 -0.2622 -1.1629
  130OSM    H8S13954  -0.134   2.327   6.820  1.3654  2.6169 -0.8098
  130OSM    H8T13955  -0.303   2.311   6.749 -3.7363  2.8484  1.3850
  130OSM    C9S13956  -0.265   2.475   6.890  0.2139 -0.0304  0.0532
  130OSM    H9S13957  -0.376   2.479   6.896 -0.0330 -1.4571 -2.5794
  130OSM    H9T13958  -0.223   2.573   6.859  0.7045 -0.1410  0.3730
  130OSM   C10S13959  -0.208   2.440   7.025  0.3715  0.1972  0.0850
  130OSM   H10S13960  -0.098   2.430   7.007  0.7802  1.5524  1.6813
  130OSM   H10T13961  -0.253   2.350   7.072 -2.2403  1.8646  0.8843
  130OSM   C11S13962  -0.221   2.558   7.122 -0.2188 -0.6737 -0.0440
  130OSM   H11S13963  -0.320   2.571   7.170 -0.6499  0.5909 -1.2351
  130OSM   H11T13964  -0.206   2.653   7.066 -0.9103 -0.0198  0.8588
  130OSM   C12S13965  -0.129   2.550   7.240  0.2726 -0.0339  0.1060
  130OSM   H12S13966  -0.024   2.564   7.205  1.3349 -0.2055  3.0671
  130OSM   H12T13967  -0.135   2.444   7.273  0.8440  0.5617  2.1541
  130OSM   C13S13968  -0.143   2.639   7.363  0.2417 -0.0932  0.5161
  130OSM   H13S13969  -0.069   2.618   7.442 -2.5335 -0.4669  3.0933
  130OSM   H13T13970  -0.241   2.612   7.408 -0.1584 -0.0744 -0.3274
  130OSM   C14S13971  -0.145   2.791   7.338 -0.5676 -0.4236 -0.3269
  130OSM   H14S13972  -0.183   2.854   7.421 -0.0246  0.5699 -0.8121
  130OSM   H14T13973  -0.222   2.818   7.263 -2.2219 -0.5738  1.2857
  130OSM   C15S13974  -0.003   2.836   7.291  0.1844 -0.4098  0.2461
  130OSM   H15S13975   0.012   2.793   7.190 -0.3690 -0.2121  0.0830
  130OSM   H15T13976   0.073   2.782   7.353 -0.4692 -1.3413  0.2424
  130OSM   C16S13977   0.015   2.988   7.283 -0.2257 -0.0392 -0.1027
  130OSM   H16S13978   0.018   3.037   7.383 -2.1489 -1.1373  0.5100
  130OSM   H16T13979  -0.074   3.023   7.228  0.0008 -0.4794 -0.7582
  130OSM   C17S13980   0.146   3.028   7.207  0.6501  1.0028 -0.2051
  130OSM   H17S13981   0.134   3.002   7.100  0.5872  2.6409 -0.6053
  130OSM   H17T13982   0.231   2.967   7.244  0.7959 -0.1049 -2.3064
  130OSM   C18S13983   0.181   3.178   7.219 -0.5667 -0.4536 -0.4697
  130OSM   H18S13984   0.118   3.240   7.152 -2.5493 -1.4475  0.4204
  130OSM   H18T13985   0.287   3.195   7.190  0.6423 -0.7401  3.5648
  130OSM   H18U13986   0.170   3.210   7.324 -1.1297 -0.6137 -0.4743
  130OSM    C1F13987   0.259   2.631   6.282  0.2385  0.1589  0.0902
  130OSM     OF13988   0.291   2.746   6.272 -0.1766  0.2364 -0.2023
  130OSM    C2F13989   0.366   2.527   6.325  0.8302  0.7062  0.2210
  130OSM    H2F13990   0.458   2.552   6.267  0.9076 -0.7497 -0.2840
  130OSM    H2G13991   0.335   2.424   6.298  0.9481  0.1204  2.2585
  130OSM    C3F13992   0.392   2.533   6.476  0.7332  0.5585  0.2678
  130OSM    H3F13993   0.421   2.630   6.524 -1.8541 -0.2135  3.5393
  130OSM    H3G13994   0.470   2.457   6.498 -2.2370 -2.9210 -0.8394
  130OSM    C4F13995   0.265   2.480   6.544  0.3670 -0.0647  0.1154
  130OSM    H4F13996   0.232   2.386   6.496 -0.7415  1.6590 -2.6260
  130OSM    H4G13997   0.185   2.553   6.519  0.4119 -0.4165 -1.0493
  130OSM    C5F13998   0.266   2.485   6.695 -0.4207 -0.1653  0.3964
  130OSM    H5F13999   0.349   2.418   6.725  1.6741  2.7750  1.3758
  130OSM    H5G14000   0.172   2.449   6.741  0.0977 -0.7984  0.9769
  130OSM    C6F14001   0.307   2.620   6.766  0.1552 -0.0564  0.7366
  130OSM    H6F14002   0.239   2.703   6.740 -0.2017 -0.3607  0.6918
  130OSM    H6G14003   0.410   2.657   6.747 -0.0012 -0.5700 -1.1860
  130OSM    C7F14004   0.287   2.604   6.923 -0.3871 -0.5127  0.8405
  130OSM    H7F14005   0.339   2.521   6.975  0.7437 -0.3139  0.0627
  130OSM    H7G14006   0.178   2.589   6.936 -0.3981 -0.7947  0.4428
  130OSM    C8F14007   0.323   2.729   6.998  0.5132 -0.7559  0.5107
  130OSM    H8F14008   0.248   2.805   6.969  0.0268 -1.3166  0.2974
  130OSM    H8G14009   0.420   2.756   6.952 -0.2549  0.9360 -0.1436
  130OSM    C9F14010   0.319   2.704   7.151 -0.5853  0.0005 -0.4161
  130OSM    H9F14011   0.245   2.635   7.194 -0.0950 -0.7719 -0.8094
  130OSM   C10F14012   0.415   2.743   7.242  0.0724  0.5143 -0.1204
  130OSM   H10F14013   0.408   2.715   7.348 -1.1590  3.0972  0.5063
  130OSM   C11F14014   0.552   2.814   7.219  0.3924  0.0673  0.5995
  130OSM   H11F14015   0.594   2.787   7.120 -1.6615 -0.7351 -0.0763
  130OSM   H11G14016   0.619   2.787   7.303  0.5286  1.9012  1.1101
  130OSM   C12F14017   0.565   2.972   7.203 -0.0788 -0.9612 -0.5248
  130OSM   H12F14018   0.490   3.008   7.129 -2.0109 -1.1332  1.3311
  130OSM   H12G14019   0.663   3.009   7.165 -0.2785 -0.7625 -0.8495
  130OSM   C13F14020   0.534   3.043   7.340  0.2519  0.0692  0.1386
  130OSM   H13F14021   0.439   2.994   7.371  0.4622 -0.3409  0.1355
  130OSM   H13G14022   0.527   3.153   7.325  1.0084 -0.0070 -0.7650
  130OSM   C14F14023   0.652   3.028   7.446  0.5979 -0.3478  0.2826
  130OSM   H14F14024   0.742   3.054   7.387 -1.5696  1.7745 -2.2338
  130OSM   H14G14025   0.656   2.923   7.484  1.4994 -0.5396 -0.3367
  130OSM   C15F14026   0.609   3.114   7.570  0.0361  0.2630 -0.2888
  130OSM   H15F14027   0.505   3.094   7.604  0.3930  0.5148  0.9601
  130OSM   H15G14028   0.614   3.219   7.531  1.6514 -0.1721 -1.3150
  130OSM   C16F14029   0.712   3.098   7.684  0.4177 -0.6551 -0.0561
  130OSM   H16F14030   0.809   3.114   7.633  0.6841 -1.2171  0.2716
  130OSM   H16G14031   0.710   2.996   7.728  0.1612 -0.8448 -0.5054
  130OSM   C17F14032   0.695   3.207   7.792  0.1472 -0.0170 -0.1361
  130OSM   H17F14033   0.593   3.193   7.833 -0.1077  0.4646 -0.6042
  130OSM   H17G14034   0.701   3.309   7.748  0.7731 -0.6427 -1.5174
  130OSM   C18F14035   0.801   3.197   7.905 -0.1527 -0.2562  0.5113
  130OSM   H18F14036   0.900   3.209   7.857  0.1270 -4.1041 -0.0496
  130OSM   H18G14037   0.798   3.093   7.945  0.5049  0.2581  1.9161
  130OSM   H18H14038   0.790   3.272   7.986 -2.7998 -2.2851  2.1200
  131OSM      N14039   1.104   0.515   5.237 -0.6442 -0.0431  0.4430
  131OSM    C1514040   1.129   0.381   5.161 -0.3229 -0.0308  0.0632
  131OSM   H15A14041   1.197   0.326   5.224 -1.8753 -0.9714  0.9504
  131OSM   H15B14042   1.175   0.389   5.063  0.1244 -0.9907  0.1934
  131OSM   H15C14043   1.039   0.324   5.141 -1.6762  1.3615  2.0798
  131OSM    C1414044   1.246   0.575   5.240  0.4795 -0.1427  0.2443
  131OSM   H14A14045   1.287   0.593   5.142 -2.5430 -0.8946 -1.2029
  131OSM   H14B14046   1.313   0.505   5.288  0.3887  1.1063  2.2524
  131OSM   H14C14047   1.248   0.661   5.306 -0.9972 -0.0983  0.2441
  131OSM    C1314048   1.019   0.610   5.161  0.4961  0.0774 -0.4181
  131OSM   H13A14049   1.056   0.629   5.061 -0.9194 -2.3980 -1.4339
  131OSM   H13B14050   1.029   0.710   5.202  0.7023 -0.8031  1.7791
  131OSM   H13C14051   0.918   0.575   5.150  0.9460 -1.5520  0.4077
  131OSM    C1214052   1.046   0.496   5.373  0.4030  0.4738  0.1583
  131OSM   H12A14053   1.112   0.428   5.425 -0.1639 -0.3012 -0.1212
  131OSM   H12B14054   0.947   0.453   5.367 -1.0901  3.5841  1.7126
  131OSM    C1114055   1.038   0.615   5.469 -0.1171 -1.1040 -0.3799
  131OSM   H11A14056   0.979   0.585   5.558 -0.6450 -0.0888 -0.3860
  131OSM   H11B14057   0.971   0.697   5.437 -1.8760 -2.3099  0.1183
  131OSM      P14058   1.264   0.579   5.599 -0.1183  0.0814  0.0248
  131OSM    O1314059   1.251   0.438   5.569 -0.3380 -0.2225 -0.2291
  131OSM    O1414060   1.401   0.637   5.593  0.2833 -0.3991  0.6784
  131OSM    O1114061   1.189   0.605   5.736 -0.1881 -0.0855 -0.2201
  131OSM    O1214062   1.175   0.660   5.498 -0.2042 -0.0629 -0.6830
  131OSM    C1S14063   1.254   0.632   5.860  0.3887 -0.7015 -0.0125
  131OSM    H1S14064   1.365   0.625   5.854  0.3865 -0.4571 -0.3407
  131OSM    H1T14065   1.221   0.546   5.922  1.5847  0.2526  2.0106
  131OSM     NF14066   1.259   0.775   6.069 -0.2546 -0.2024  0.2987
  131OSM    HNF14067   1.193   0.770   6.144 -1.9894  4.7421 -0.6703
  131OSM    C2S14068   1.202   0.762   5.936  0.6751  0.0528 -0.5108
  131OSM    H2S14069   1.231   0.856   5.884  3.7727 -0.1759  0.6995
  131OSM    C3S14070   1.050   0.760   5.942  0.6511  0.2387 -0.0367
  131OSM    H3S14071   1.023   0.666   5.995  0.2001  0.7574  0.6536
  131OSM     O314072   0.981   0.755   5.818 -0.3454 -0.1010 -0.9251
  131OSM    HO314073   1.049   0.721   5.759  0.6646 -1.7508  1.1528
  131OSM    C4S14074   0.997   0.875   6.027 -0.1539 -0.6979  0.4645
  131OSM    H4S14075   1.056   0.967   6.012  1.0418 -1.4366  0.6403
  131OSM    C5S14076   0.905   0.854   6.128 -0.2033  0.1317  0.1250
  131OSM    H5S14077   0.876   0.749   6.145 -0.3997  0.3548  1.2005
  131OSM    C6S14078   0.856   0.960   6.225  0.0890  0.1637  0.3945
  131OSM    H6S14079   0.863   0.926   6.330 -0.4770 -2.7739 -0.4868
  131OSM    H6T14080   0.751   0.988   6.204  0.3659  0.3424 -0.7761
  131OSM    C7S14081   0.927   1.101   6.215  0.1921 -0.0164 -0.3200
  131OSM    H7S14082   0.906   1.148   6.117 -1.6115  2.3386  1.1380
  131OSM    H7T14083   1.036   1.086   6.230  0.1016  0.6089  1.1142
  131OSM    C8S14084   0.881   1.210   6.315 -1.1824 -0.4876 -0.3268
  131OSM    H8S14085   0.775   1.220   6.284 -0.8796  1.0116 -0.9208
  131OSM    H8T14086   0.942   1.301   6.296  0.4632 -1.1256  1.6981
  131OSM    C9S14087   0.889   1.181   6.468 -0.2986  0.5974  0.6602
  131OSM    H9S14088   0.812   1.102   6.483 -0.3849  0.7400  0.9623
  131OSM    H9T14089   0.860   1.268   6.531  1.9894  1.0329  1.1427
  131OSM   C10S14090   1.031   1.141   6.513 -0.2002 -0.0588 -0.3917
  131OSM   H10S14091   1.103   1.216   6.472 -1.2559  2.8519  2.8738
  131OSM   H10T14092   1.056   1.048   6.458 -1.3237 -1.1135  0.8439
  131OSM   C11S14093   1.042   1.150   6.660  0.0662  0.3762  0.4042
  131OSM   H11S14094   0.958   1.092   6.705 -1.0128  1.9339  0.4530
  131OSM   H11T14095   1.035   1.253   6.702  1.2658  0.8656 -0.5695
  131OSM   C12S14096   1.170   1.096   6.718  0.3538  0.4649 -0.5773
  131OSM   H12S14097   1.253   1.099   6.644  1.8431  0.1881  1.0502
  131OSM   H12T14098   1.144   0.991   6.743  1.8659  0.1277 -0.3528
  131OSM   C13S14099   1.216   1.169   6.836 -0.8832 -0.6094  0.9544
  131OSM   H13S14100   1.136   1.195   6.908 -0.5456 -0.0651  1.1392
  131OSM   H13T14101   1.274   1.259   6.804 -1.3457 -0.8942 -0.7298
  131OSM   C14S14102   1.313   1.088   6.929  0.3208  0.3088 -0.0358
  131OSM   H14S14103   1.370   1.154   6.998  0.0031 -0.9360  1.4450
  131OSM   H14T14104   1.395   1.050   6.864  0.6544  1.1946 -0.1367
  131OSM   C15S14105   1.246   0.971   7.004  0.4686 -0.0056  0.0329
  131OSM   H15S14106   1.198   0.902   6.932 -1.8036  1.0125  0.5478
  131OSM   H15T14107   1.165   1.015   7.066 -1.7740  0.2753 -2.9953
  131OSM   C16S14108   1.350   0.894   7.087 -0.2217 -0.1912 -0.1660
  131OSM   H16S14109   1.392   0.966   7.160 -1.4164 -0.1541  0.4997
  131OSM   H16T14110   1.432   0.859   7.020  0.0993  0.2219  0.0089
  131OSM   C17S14111   1.300   0.769   7.172 -0.2345  0.2347 -0.7361
  131OSM   H17S14112   1.248   0.700   7.103 -1.7439  0.4594  0.1464
  131OSM   H17T14113   1.231   0.813   7.248  1.6782  2.4797 -0.2220
  131OSM   C18S14114   1.413   0.679   7.227 -0.2170  0.0362  0.0085
  131OSM   H18S14115   1.367   0.590   7.275  0.7235 -0.7597 -0.5534
  131OSM   H18T14116   1.477   0.736   7.297 -0.3496 -0.0959  0.2395
  131OSM   H18U14117   1.474   0.643   7.142 -1.1668 -0.1077 -0.6269
  131OSM    C1F14118   1.395   0.787   6.083 -0.1124  0.1764 -0.8506
  131OSM     OF14119   1.476   0.788   5.992  0.5956  0.3926  0.0876
  131OSM    C2F14120   1.439   0.792   6.230 -0.0479  0.4487  0.4587
  131OSM    H2F14121   1.531   0.853   6.225 -1.4416  2.7716  1.8936
  131OSM    H2G14122   1.458   0.686   6.259  0.4928  0.4248  0.0200
  131OSM    C3F14123   1.341   0.858   6.318 -0.4721 -0.4707  0.4294
  131OSM    H3F14124   1.260   0.787   6.345 -1.1873  0.5036  0.8758
  131OSM    H3G14125   1.306   0.954   6.275  1.5168 -0.0276 -0.2264
  131OSM    C4F14126   1.393   0.893   6.456 -0.0123  0.5118  0.0939
  131OSM    H4F14127   1.307   0.936   6.513  0.4130 -1.1964  2.0744
  131OSM    H4G14128   1.477   0.965   6.463  1.1226 -0.8351  0.4290
  131OSM    C5F14129   1.444   0.774   6.540 -0.5383 -0.2173 -0.2054
  131OSM    H5F14130   1.539   0.737   6.496 -1.0158 -0.4095 -1.0783
  131OSM    H5G14131   1.373   0.690   6.526  0.0175 -0.7631  0.2186
  131OSM    C6F14132   1.470   0.810   6.687 -0.4727 -0.6618 -0.4105
  131OSM    H6F14133   1.383   0.841   6.748 -0.8784 -0.9100 -0.8627
  131OSM    H6G14134   1.539   0.897   6.689 -1.6999  0.3241 -0.6748
  131OSM    C7F14135   1.532   0.695   6.766 -0.2697 -0.4282  0.5821
  131OSM    H7F14136   1.615   0.727   6.832  1.6538 -0.9803 -1.5094
  131OSM    H7G14137   1.592   0.635   6.694  1.2085  2.2845 -0.5130
  131OSM    C8F14138   1.432   0.609   6.847  0.5250  0.3057  0.4648
  131OSM    H8F14139   1.355   0.672   6.898  0.7595  0.4295  0.6681
  131OSM    H8G14140   1.495   0.552   6.919  4.4833  1.0483 -2.2487
  131OSM    C9F14141   1.350   0.519   6.755 -0.3606 -0.4389 -0.1977
  131OSM    H9F14142   1.253   0.564   6.730 -1.1752 -0.9741  1.9336
  131OSM   C10F14143   1.375   0.393   6.724  0.2825 -0.1020  0.3270
  131OSM   H10F14144   1.299   0.337   6.667 -0.7049  1.5834 -0.0801
  131OSM   C11F14145   1.497   0.307   6.771 -0.3414 -0.1852  0.3330
  131OSM   H11F14146   1.580   0.376   6.798 -1.3943  0.4939  1.9566
  131OSM   H11G14147   1.534   0.241   6.690  2.2099  1.1501  0.3685
  131OSM   C12F14148   1.457   0.208   6.894  0.0968 -0.2115  0.1117
  131OSM   H12F14149   1.541   0.137   6.911 -0.6717 -1.1547 -0.0264
  131OSM   H12G14150   1.372   0.139   6.877  0.2701 -0.5345  0.5432
  131OSM   C13F14151   1.430   0.276   7.026 -0.3415  0.3778  0.3174
  131OSM   H13F14152   1.326   0.273   7.063  0.3080  3.1905  2.5432
  131OSM   H13G14153   1.457   0.384   7.025  1.2400  0.0354  2.6238
  131OSM   C14F14154   1.508   0.207   7.138 -0.1137  0.3421 -0.3318
  131OSM   H14F14155   1.616   0.218   7.115 -0.4332  3.3458 -0.5489
  131OSM   H14G14156   1.469   0.102   7.134  3.1039 -0.8201 -2.8639
  131OSM   C15F14157   1.479   0.269   7.274 -0.2307  0.1685 -0.4301
  131OSM   H15F14158   1.377   0.243   7.309 -0.1690 -0.5779 -0.7880
  131OSM   H15G14159   1.481   0.380   7.279  0.4614  0.0849  1.6272
  131OSM   C16F14160   1.589   0.236   7.370 -0.1303 -0.1472  0.0310
  131OSM   H16F14161   1.688   0.269   7.331  0.4064 -0.1049  1.3874
  131OSM   H16G14162   1.588   0.125   7.376 -2.6613 -0.0977  0.8635
  131OSM   C17F14163   1.564   0.290   7.512  0.2523 -0.3838  0.0175
  131OSM   H17F14164   1.453   0.282   7.513  0.1346  1.0011 -0.7029
  131OSM   H17G14165   1.597   0.395   7.506 -1.2975  0.2154  1.3516
  131OSM   C18F14166   1.629   0.207   7.624 -0.5189  0.0674 -0.8673
  131OSM   H18F14167   1.737   0.226   7.607  0.1459 -0.4731  2.3248
  131OSM   H18G14168   1.605   0.100   7.610 -2.6239  0.3010  0.7377
  131OSM   H18H14169   1.598   0.247   7.723 -1.5522  1.8060 -1.8669
  132OSM      N14170   0.794   7.078   5.654  0.5162  0.3008  0.2350
  132OSM    C1514171   0.674   7.154   5.635 -0.4082 -0.4192  0.1818
  132OSM   H15A14172   0.603   7.131   5.557 -2.8271  0.1915  2.1288
  132OSM   H15B14173   0.695   7.259   5.618 -0.2748 -0.5134 -0.2338
  132OSM   H15C14174   0.622   7.150   5.730 -1.1887 -2.7727 -0.3360
  132OSM    C1414175   0.752   6.945   5.708  0.3387  0.3296 -0.1522
  132OSM   H14A14176   0.832   6.872   5.704 -0.2582 -0.3713  0.5094
  132OSM   H14B14177   0.677   6.895   5.648  0.5896  0.7415 -0.8193
  132OSM   H14C14178   0.725   6.943   5.812  1.5683 -0.2255  0.1712
  132OSM    C1314179   0.867   7.059   5.519 -0.0992  0.1206 -0.6838
  132OSM   H13A14180   0.857   7.150   5.461  0.7213  0.2529 -0.6174
  132OSM   H13B14181   0.825   6.973   5.470  1.2577 -0.8575 -0.1687
  132OSM   H13C14182   0.965   7.027   5.550 -1.4944 -0.4708  3.4615
  132OSM    C1214183   0.878   7.133   5.768  0.5442  0.1040  0.6234
  132OSM   H12A14184   0.815   7.140   5.855  0.8220  2.4008  0.6532
  132OSM   H12B14185   0.913   7.231   5.739 -0.6276 -0.0926 -1.5826
  132OSM    C1114186   1.009   7.049   5.807  0.2898 -0.4483  0.0991
  132OSM   H11A14187   0.976   6.952   5.849  3.2274 -1.2574  0.6461
  132OSM   H11B14188   1.056   7.099   5.894 -1.3950  1.0563  0.1839
  132OSM      P14189   1.253   7.019   5.693  0.4450 -0.4075 -0.3144
  132OSM    O1314190   1.289   6.920   5.585  0.7157  0.6011 -0.2852
  132OSM    O1414191   1.314   7.151   5.686  0.4331 -0.2353 -0.0795
  132OSM    O1114192   1.291   6.958   5.839  0.0410  0.2211 -0.2985
  132OSM    O1214193   1.096   7.035   5.689 -0.5763 -0.3319  0.4971
  132OSM    C1S14194   1.244   6.832   5.876 -0.0466 -0.1764 -0.0898
  132OSM    H1S14195   1.286   6.750   5.814 -2.0079 -2.0395  0.9913
  132OSM    H1T14196   1.134   6.818   5.875  0.2280 -2.5401  1.1860
  132OSM     NF14197   1.185   6.842   6.113 -0.1379  0.2886  0.0202
  132OSM    HNF14198   1.214   6.923   6.164  1.5594  0.2870 -0.8944
  132OSM    C2S14199   1.277   6.786   6.020 -0.7597  0.5712 -0.0421
  132OSM    H2S14200   1.253   6.678   6.030 -1.1485  0.7408  0.9613
  132OSM    C3S14201   1.431   6.797   6.060 -0.7403 -0.2193  0.1481
  132OSM    H3S14202   1.463   6.903   6.051 -0.6656 -0.2991 -0.5845
  132OSM     O314203   1.516   6.732   5.972  0.4712 -0.1371  0.0202
  132OSM    HO314204   1.459   6.696   5.903  0.7705 -0.8907  0.1622
  132OSM    C4S14205   1.462   6.756   6.201  0.1570  0.0369  0.0662
  132OSM    H4S14206   1.401   6.673   6.238 -1.8527  0.6224 -1.7972
  132OSM    C5S14207   1.558   6.817   6.281 -0.8571  0.4564  0.4705
  132OSM    H5S14208   1.615   6.904   6.246  3.0792 -1.2197  2.4544
  132OSM    C6S14209   1.600   6.765   6.416 -0.5368 -0.4042  0.0765
  132OSM    H6S14210   1.652   6.851   6.462  2.1555 -1.0796 -1.5866
  132OSM    H6T14211   1.678   6.687   6.404  0.5562  0.6115  0.5313
  132OSM    C7S14212   1.499   6.714   6.517 -0.2446 -0.9651  0.0010
  132OSM    H7S14213   1.436   6.632   6.476 -0.9850 -0.8333  0.8716
  132OSM    H7T14214   1.427   6.796   6.537  0.2644 -0.0514 -1.8226
  132OSM    C8S14215   1.573   6.677   6.646  0.1080  0.1928  0.1121
  132OSM    H8S14216   1.597   6.776   6.691  1.4958  1.3213 -2.9800
  132OSM    H8T14217   1.668   6.625   6.624  0.3088  1.0657 -1.1284
  132OSM    C9S14218   1.479   6.615   6.751 -0.2350 -0.1706  0.3132
  132OSM    H9S14219   1.472   6.506   6.729 -0.4088 -0.4681  1.7620
  132OSM    H9T14220   1.381   6.663   6.771 -0.6818 -1.0353  0.2225
  132OSM   C10S14221   1.544   6.617   6.900 -0.1721 -0.7731 -0.8508
  132OSM   H10S14222   1.541   6.721   6.941 -0.3797 -0.0992 -2.5583
  132OSM   H10T14223   1.653   6.595   6.895  0.0034 -0.7081  1.7165
  132OSM   C11S14224   1.469   6.527   6.995 -0.6641  0.0143  0.5049
  132OSM   H11S14225   1.465   6.425   6.951 -1.9736  0.1944  0.2124
  132OSM   H11T14226   1.360   6.543   7.001 -0.4142  1.4639  1.3088
  132OSM   C12S14227   1.540   6.527   7.131  0.1911  0.7566 -0.5364
  132OSM   H12S14228   1.551   6.633   7.161  0.5930  0.3594  0.7648
  132OSM   H12T14229   1.642   6.483   7.138 -1.3099 -2.4583  2.5285
  132OSM   C13S14230   1.447   6.462   7.240 -0.3031 -0.4233  0.2516
  132OSM   H13S14231   1.416   6.363   7.202 -0.4444 -0.0041 -0.7353
  132OSM   H13T14232   1.360   6.528   7.261  0.4602  0.7454 -0.2010
  132OSM   C14S14233   1.528   6.441   7.376  0.4780 -0.3137 -0.3230
  132OSM   H14S14234   1.579   6.534   7.406  2.4433 -1.5160  0.1379
  132OSM   H14T14235   1.600   6.361   7.349 -0.0180 -1.2945  1.1827
  132OSM   C15S14236   1.427   6.396   7.486  0.7160  0.2640  0.0541
  132OSM   H15S14237   1.390   6.293   7.467 -1.7254  0.8419  1.4262
  132OSM   H15T14238   1.346   6.472   7.491  1.1068  0.6024  1.3222
  132OSM   C16S14239   1.493   6.393   7.626  0.2789  0.1106  0.3262
  132OSM   H16S14240   1.417   6.378   7.706  2.7086 -1.7818  2.3391
  132OSM   H16T14241   1.530   6.497   7.639  2.1459 -0.4036 -0.6558
  132OSM   C17S14242   1.591   6.286   7.649  0.1842 -0.4231  0.5118
  132OSM   H17S14243   1.645   6.319   7.740  1.9282  1.6803 -1.2444
  132OSM   H17T14244   1.666   6.289   7.568 -1.2005 -0.5479 -0.8006
  132OSM   C18S14245   1.534   6.144   7.661  0.3583  0.8979  0.1106
  132OSM   H18S14246   1.469   6.143   7.751 -1.9992 -0.1675 -1.5517
  132OSM   H18T14247   1.622   6.083   7.690 -0.7346 -0.1738  1.2523
  132OSM   H18U14248   1.484   6.102   7.571  2.6370 -1.4370 -0.1143
  132OSM    C1F14249   1.051   6.809   6.118 -0.6463  0.3692  0.7740
  132OSM     OF14250   1.011   6.713   6.062  0.0862 -1.1123  0.0803
  132OSM    C2F14251   0.957   6.889   6.200  0.2580  0.5669  0.5303
  132OSM    H2F14252   0.874   6.907   6.128  0.9036 -0.7589 -0.5641
  132OSM    H2G14253   0.999   6.985   6.237  1.8585  1.1688 -2.7321
  132OSM    C3F14254   0.897   6.799   6.316 -0.2879  0.9115 -0.1592
  132OSM    H3F14255   0.870   6.700   6.272 -2.6477  0.7801  1.5260
  132OSM    H3G14256   0.808   6.843   6.363 -1.6592 -4.0516  2.2999
  132OSM    C4F14257   1.000   6.785   6.429 -0.5803 -0.7227  0.4438
  132OSM    H4F14258   1.034   6.887   6.457 -0.0276 -0.7612 -0.0713
  132OSM    H4G14259   1.090   6.734   6.386 -0.3410  0.0585  0.0169
  132OSM    C5F14260   0.948   6.709   6.555 -0.7112  0.4023 -0.0560
  132OSM    H5F14261   0.921   6.605   6.527  0.6236 -0.0969  0.4483
  132OSM    H5G14262   0.872   6.783   6.587  1.5083  3.5981 -1.8572
  132OSM    C6F14263   1.048   6.691   6.674 -0.6169  0.3541 -0.2945
  132OSM    H6F14264   1.080   6.795   6.697  1.2949 -0.3520  0.3076
  132OSM    H6G14265   1.139   6.636   6.640 -0.2392 -0.1448  1.4618
  132OSM    C7F14266   0.998   6.607   6.792 -0.2957  0.1645 -0.1157
  132OSM    H7F14267   0.947   6.514   6.760  2.7410 -2.0229  1.1447
  132OSM    H7G14268   0.912   6.657   6.840 -0.0484 -0.9175  1.4891
  132OSM    C8F14269   1.107   6.566   6.891  0.0711  0.6322 -0.0503
  132OSM    H8F14270   1.206   6.585   6.844 -0.6948  1.8216 -1.2421
  132OSM    H8G14271   1.085   6.459   6.913 -0.5483  0.2373 -2.4049
  132OSM    C9F14272   1.106   6.662   7.019  0.0828 -0.0542  0.0959
  132OSM    H9F14273   1.111   6.771   7.002  0.5234  0.2080  1.7549
  132OSM   C10F14274   1.096   6.627   7.155 -0.1766  0.2767  0.4508
  132OSM   H10F14275   1.104   6.702   7.234 -0.3691  2.4394 -1.5125
  132OSM   C11F14276   1.075   6.485   7.195  0.2681  0.5273  0.8379
  132OSM   H11F14277   1.169   6.441   7.234 -0.4325  0.2190  2.2082
  132OSM   H11G14278   1.051   6.422   7.107  0.3080  2.1458 -0.3555
  132OSM   C12F14279   0.957   6.462   7.294  0.6273  0.3984 -0.1499
  132OSM   H12F14280   0.966   6.533   7.378 -2.1882 -0.6527  1.1008
  132OSM   H12G14281   0.972   6.358   7.332 -2.3837  0.2369  0.6973
  132OSM   C13F14282   0.832   6.479   7.203  0.5508  0.0642 -0.1320
  132OSM   H13F14283   0.821   6.387   7.142  1.6084  0.8366 -1.5094
  132OSM   H13G14284   0.852   6.561   7.132  1.7621 -0.2257 -0.1410
  132OSM   C14F14285   0.707   6.514   7.282 -0.0469 -0.0200 -0.0903
  132OSM   H14F14286   0.718   6.606   7.343 -0.6505 -0.3411  0.5151
  132OSM   H14G14287   0.680   6.427   7.347  0.8324 -0.0973  0.1770
  132OSM   C15F14288   0.582   6.536   7.197 -0.0070 -0.7014  0.7278
  132OSM   H15F14289   0.553   6.442   7.145  0.0625 -0.0222 -0.5716
  132OSM   H15G14290   0.605   6.605   7.113  0.3417 -0.6533  0.8643
  132OSM   C16F14291   0.444   6.574   7.274 -0.0279  0.0110  0.0420
  132OSM   H16F14292   0.465   6.672   7.321  1.0762 -0.8663  1.4033
  132OSM   H16G14293   0.430   6.500   7.356 -0.1751 -2.5454 -2.1927
  132OSM   C17F14294   0.317   6.580   7.182  0.2920 -0.2074  0.2078
  132OSM   H17F14295   0.233   6.592   7.254  0.1303 -0.5953  0.0902
  132OSM   H17G14296   0.312   6.476   7.141 -0.0590 -1.4454  3.2412
  132OSM   C18F14297   0.299   6.685   7.077  0.9264  0.0598  0.0248
  132OSM   H18F14298   0.372   6.686   6.994 -0.6984 -0.4014 -1.4541
  132OSM   H18G14299   0.290   6.785   7.124  0.0728 -0.4750  1.0186
  132OSM   H18H14300   0.202   6.673   7.024  0.3410 -0.9140  1.2881
  133SAPE     N14301   2.825   3.492   9.963 -0.0135 -0.1004  0.1333
  133SAPE   HN114302   2.881   3.451   9.885  0.3962 -0.4651  0.6170
  133SAPE   HN214303   2.759   3.564   9.927 -0.9386 -1.5322 -1.0975
  133SAPE   HN314304   2.886   3.549  10.026 -1.4991  0.2422  1.2779
  133SAPE   C1214305   2.767   3.390  10.048 -0.7138  0.4303 -0.2086
  133SAPE  H12A14306   2.696   3.443  10.114 -0.9578  3.1675 -2.5871
  133SAPE  H12B14307   2.853   3.352  10.109 -0.2403  0.0369 -1.1095
  133SAPE   C1114308   2.719   3.269   9.962  0.1704 -0.0172  0.4192
  133SAPE  H11A14309   2.664   3.197  10.027  0.3237 -0.8016 -0.3130
  133SAPE  H11B14310   2.798   3.203   9.920 -0.1272  1.1556 -2.0398
  133SAPE     P14311   2.535   3.244   9.764 -0.6514  0.0905 -0.5434
  133SAPE   O1314312   2.612   3.128   9.714 -0.2916 -0.2252 -0.3350
  133SAPE   O1414313   2.398   3.214   9.821  0.0560 -0.3888 -0.0913
  133SAPE   O1214314   2.622   3.329   9.871  0.2136  0.2128  0.5796
  133SAPE   O1114315   2.522   3.345   9.651  0.7047 -0.5812  0.0349
  133SAPE    C114316   2.600   3.341   9.531  1.1534 -0.5308  0.2508
  133SAPE    HA14317   2.632   3.238   9.506 -0.5066 -0.4325 -2.4532
  133SAPE    HB14318   2.550   3.384   9.442  0.5076  1.1590  1.3959
  133SAPE    C214319   2.714   3.441   9.558 -0.0251  0.1558  0.7426
  133SAPE    HS14320   2.757   3.418   9.658  0.0246  0.6363  0.8321
  133SAPE   O2114321   2.658   3.578   9.569 -0.0691 -0.6128 -0.5764
  133SAPE   C2114322   2.747   3.663   9.602 -0.5452 -0.4707  0.3172
  133SAPE   O2214323   2.866   3.646   9.622 -0.0984 -0.4659  0.3706
  133SAPE   C2214324   2.685   3.800   9.619  0.0166  0.9507 -0.1013
  133SAPE   H2R14325   2.574   3.795   9.612 -0.0175 -1.6984  1.5914
  133SAPE   H2S14326   2.713   3.833   9.721 -0.6947  0.1840  0.3449
  133SAPE    C314327   2.832   3.418   9.452  0.6953 -0.5460 -0.4018
  133SAPE    HX14328   2.850   3.309   9.461 -1.4626 -0.7751  1.8685
  133SAPE    HY14329   2.918   3.484   9.478  0.5235 -0.2001 -0.7072
  133SAPE   O3114330   2.779   3.465   9.325  0.0943  0.3802 -0.5189
  133SAPE   C3114331   2.845   3.399   9.230  0.5458  0.0153  0.3259
  133SAPE   O3214332   2.940   3.328   9.246 -0.8067 -0.0548 -0.6015
  133SAPE   C3214333   2.771   3.421   9.098  0.4767 -0.0194 -0.3012
  133SAPE   H2X14334   2.842   3.479   9.035  0.2118 -0.7582 -1.3011
  133SAPE   H2Y14335   2.679   3.481   9.112  0.5554 -0.0333  0.2717
  133SAPE   C2314336   2.742   3.909   9.523 -0.1199 -0.0471  0.5523
  133SAPE   H3R14337   2.853   3.899   9.519 -0.1395 -0.6071  1.3593
  133SAPE   H3S14338   2.708   4.011   9.550  0.5696  0.2568  0.2834
  133SAPE   C2414339   2.694   3.871   9.375  0.5577  0.1496  0.5799
  133SAPE   H4R14340   2.586   3.894   9.381  0.0974 -1.1228 -2.1167
  133SAPE   H4S14341   2.722   3.764   9.362  1.2223  0.0318  2.7710
  133SAPE   C2514342   2.756   3.954   9.264 -0.2701  0.1710 -0.1177
  133SAPE   H5R14343   2.762   4.062   9.281 -1.5259  0.0753  1.0977
  133SAPE   C2614344   2.822   3.910   9.154  0.1734 -0.1759 -0.0748
  133SAPE   H6R14345   2.844   3.986   9.078  0.6016  1.0028  1.2297
  133SAPE   C2714346   2.861   3.771   9.125  0.0966 -0.3103 -0.0858
  133SAPE   H7R14347   2.893   3.777   9.018 -0.7820 -0.8640 -0.3867
  133SAPE   H7S14348   2.774   3.705   9.141  1.2900 -2.3365 -1.6358
  133SAPE   C2814349   2.970   3.725   9.214 -0.6005  0.5132 -0.4657
  133SAPE   H8R14350   2.963   3.761   9.317 -1.1240  0.6806 -0.5575
  133SAPE   C2914351   3.068   3.643   9.164 -0.0559  0.2546  0.0337
  133SAPE   H9R14352   3.148   3.608   9.231 -0.3281 -0.4771 -0.0310
  133SAPE  C21014353   3.098   3.592   9.028  0.8163  0.0071  0.5361
  133SAPE  H10R14354   3.033   3.645   8.956  0.9447 -1.2556 -0.5136
  133SAPE  H10S14355   3.067   3.486   9.019 -1.5982  0.6545  0.7159
  133SAPE  C21114356   3.240   3.620   8.983 -0.0951  0.4577 -0.5450
  133SAPE  H11R14357   3.312   3.592   9.061 -0.6104  2.3514  0.6403
  133SAPE  C21214358   3.298   3.648   8.858 -0.2177  0.6459  0.5392
  133SAPE  H12R14359   3.404   3.675   8.845 -0.4750  0.6543 -1.6535
  133SAPE  C21314360   3.218   3.653   8.728  0.1783 -0.2451 -0.1350
  133SAPE  H13R14361   3.110   3.644   8.749  0.0280  0.4639 -0.5860
  133SAPE  H13S14362   3.238   3.565   8.664 -1.2739 -1.2589  0.7911
  133SAPE  C21414363   3.229   3.779   8.646 -0.2436 -0.6341 -0.5045
  133SAPE  H14R14364   3.165   3.857   8.690  0.3527 -1.7022  2.3942
  133SAPE  C21514365   3.308   3.804   8.540  0.2192  0.6304  0.3990
  133SAPE  H15R14366   3.313   3.908   8.503  0.0061 -0.2071 -2.1008
  133SAPE  C21614367   3.403   3.700   8.485 -0.9510  0.3236 -0.2148
  133SAPE  H16R14368   3.394   3.711   8.375  0.7399  0.1400 -0.3906
  133SAPE  H16S14369   3.385   3.594   8.514 -0.5478  0.6854  1.3822
  133SAPE  C21714370   3.545   3.726   8.532 -0.0327  0.0341  0.0757
  133SAPE  H17R14371   3.551   3.709   8.642 -0.0145  1.0324  0.2363
  133SAPE  H17S14372   3.576   3.832   8.518 -2.3007  0.3891 -2.4545
  133SAPE  C21814373   3.646   3.620   8.485  0.3956 -0.0657  0.4123
  133SAPE  H18R14374   3.640   3.607   8.375  0.0335 -0.8972  0.5215
  133SAPE  H18S14375   3.607   3.518   8.508  2.1901 -1.6039 -3.0202
  133SAPE  C21914376   3.792   3.648   8.530 -0.0465 -0.1378  0.3446
  133SAPE  H19R14377   3.798   3.658   8.641  1.4664 -1.9412  0.4343
  133SAPE  H19S14378   3.817   3.742   8.476  0.4284  0.1918  1.1288
  133SAPE  C22014379   3.894   3.537   8.487  0.5122 -1.0104  0.5249
  133SAPE  H20R14380   3.965   3.520   8.571  0.7049 -2.0480  0.1590
  133SAPE  H20S14381   3.957   3.570   8.402  0.9526 -2.8322  0.1254
  133SAPE  H20T14382   3.838   3.445   8.460 -1.1449  0.0853  0.1071
  133SAPE   C3314383   2.740   3.287   9.022  0.1073 -0.1685 -0.3254
  133SAPE   H3X14384   2.647   3.237   9.056 -1.3434  2.8959  0.3616
  133SAPE   H3Y14385   2.818   3.212   9.046 -1.9560 -2.4123 -0.5340
  133SAPE   C3414386   2.751   3.290   8.864  0.6567 -0.4739  0.4989
  133SAPE   H4X14387   2.739   3.190   8.818  1.7740 -0.5383  0.3307
  133SAPE   H4Y14388   2.849   3.337   8.841  0.2286 -0.7607 -2.0080
  133SAPE   C3514389   2.637   3.373   8.803  0.9399  0.0882  0.0462
  133SAPE   H5X14390   2.644   3.472   8.853 -2.0901  0.2259  0.2433
  133SAPE   H5Y14391   2.538   3.332   8.832 -0.1519  1.6147 -1.4333
  133SAPE   C3614392   2.656   3.409   8.654 -0.6682 -0.0314  0.0361
  133SAPE   H6X14393   2.584   3.491   8.634  1.4796  1.3700 -2.2003
  133SAPE   H6Y14394   2.645   3.320   8.588  0.9749 -1.0777  1.1204
  133SAPE   C3714395   2.795   3.464   8.623  0.2575  0.1349  0.0061
  133SAPE   H7X14396   2.873   3.386   8.637  1.7977  1.2396 -2.1124
  133SAPE   H7Y14397   2.817   3.551   8.687  0.1335  1.3691 -1.6040
  133SAPE   C3814398   2.808   3.498   8.484  0.4028 -0.1050  0.3089
  133SAPE   H8X14399   2.741   3.581   8.453 -0.1473  0.1120  2.0141
  133SAPE   H8Y14400   2.784   3.410   8.421  1.1610 -0.2841  0.2630
  133SAPE   C3914401   2.951   3.547   8.458  0.8494  0.0701 -0.0047
  133SAPE   H9X14402   3.016   3.462   8.486  0.2722 -0.7710 -1.1362
  133SAPE   H9Y14403   2.968   3.636   8.523 -1.0342  0.1504  0.4076
  133SAPE  C31014404   2.966   3.563   8.306 -0.2608 -0.8293  0.1404
  133SAPE  H10X14405   2.869   3.604   8.270 -0.4843 -0.5068  1.0845
  133SAPE  H10Y14406   2.992   3.465   8.261  0.5715 -1.1087  1.2092
  133SAPE  C31114407   3.105   3.633   8.280  0.5541  0.3866 -0.0550
  133SAPE  H11X14408   3.193   3.578   8.319 -0.4374 -1.4509 -0.3439
  133SAPE  H11Y14409   3.093   3.734   8.324 -0.6959  0.9823 -1.6915
  133SAPE  C31214410   3.130   3.644   8.125  0.9121  0.2613  0.2843
  133SAPE  H12X14411   3.063   3.717   8.075 -0.0710 -1.8715 -1.6652
  133SAPE  H12Y14412   3.114   3.544   8.077  2.3187  1.9736 -4.0505
  133SAPE  C31314413   3.269   3.694   8.086  0.3240  0.2703 -0.3359
  133SAPE  H13X14414   3.345   3.628   8.133  0.0636  1.4039  1.7569
  133SAPE  H13Y14415   3.282   3.803   8.107  2.5016  0.9191 -4.5253
  133SAPE  C31414416   3.294   3.680   7.936  0.0006  0.8487 -0.0636
  133SAPE  H14X14417   3.211   3.734   7.886 -0.1675 -1.3507 -2.2394
  133SAPE  H14Y14418   3.269   3.574   7.912  1.1812  0.2799  1.1651
  133SAPE  C31514419   3.436   3.719   7.891 -0.2512  0.7234  0.7733
  133SAPE  H15X14420   3.507   3.655   7.948 -1.0614 -2.3728 -1.5745
  133SAPE  H15Y14421   3.446   3.825   7.923  2.2861  1.1689 -1.4098
  133SAPE  C31614422   3.465   3.709   7.744 -0.1085 -0.2352  0.0418
  133SAPE  H16X14423   3.472   3.601   7.717  0.0570 -0.2430  0.1181
  133SAPE  H16Y14424   3.562   3.744   7.704 -0.3570  1.2570  0.7172
  133SAPE  C31714425   3.357   3.780   7.666  0.1095 -0.2375 -0.1211
  133SAPE  H17X14426   3.260   3.732   7.690 -1.3696  2.2273 -0.9604
  133SAPE  H17Y14427   3.374   3.762   7.558 -1.0671 -0.4740 -0.2728
  133SAPE  C31814428   3.346   3.932   7.694  0.5263 -0.1148  0.4196
  133SAPE  H18X14429   3.449   3.970   7.682 -0.3862  1.9453 -1.3160
  133SAPE  H18Y14430   3.304   3.948   7.796 -1.2324  0.7374 -0.4240
  133SAPE  H18Z14431   3.272   3.987   7.632 -0.1289 -2.4806 -0.9784
  134SAPE     N14432   6.011   2.780  10.030  0.3561 -0.1183 -0.2155
  134SAPE   HN114433   6.017   2.868  10.086  0.4468  0.5129 -1.1859
  134SAPE   HN214434   6.028   2.703  10.097  3.1391  1.0158  0.5068
  134SAPE   HN314435   6.098   2.779   9.973  2.0281  1.0207  2.2107
  134SAPE   C1214436   5.887   2.773   9.945 -0.1784 -0.5979 -0.3220
  134SAPE  H12A14437   5.811   2.722  10.009  0.0691  0.5754  0.9356
  134SAPE  H12B14438   5.907   2.710   9.856 -0.5739  0.1849 -0.9640
  134SAPE   C1114439   5.838   2.914   9.927 -0.2305  0.1829  0.6884
  134SAPE  H11A14440   5.893   2.963   9.844  1.4562  2.5595  3.1240
  134SAPE  H11B14441   5.838   2.968  10.024 -2.7290  1.1821  0.1909
  134SAPE     P14442   5.633   3.011   9.781  0.0919  0.2177  0.5067
  134SAPE   O1314443   5.612   2.946   9.645 -0.4894  0.0092 -0.2923
  134SAPE   O1414444   5.512   3.064   9.853 -0.1282  0.6554  0.5388
  134SAPE   O1214445   5.707   2.912   9.883  0.1352 -0.0481 -0.6785
  134SAPE   O1114446   5.727   3.136   9.752 -0.5694 -0.0293  0.3388
  134SAPE    C114447   5.680   3.236   9.659 -0.0267  0.4457  0.0666
  134SAPE    HA14448   5.580   3.215   9.616  0.9044  0.1513 -2.0588
  134SAPE    HB14449   5.663   3.323   9.725 -0.3896  0.5409 -0.1521
  134SAPE    C214450   5.790   3.276   9.562  0.2355  0.4991 -0.0953
  134SAPE    HS14451   5.760   3.368   9.509  0.1448  0.4532 -0.1251
  134SAPE   O2114452   5.820   3.166   9.462 -0.1038  0.1397 -0.2389
  134SAPE   C2114453   5.721   3.146   9.375  0.4187 -0.7918 -0.2536
  134SAPE   O2214454   5.621   3.216   9.365  0.2675 -0.1441 -0.9943
  134SAPE   C2214455   5.757   3.035   9.274 -0.1847  0.0792  0.1503
  134SAPE   H2R14456   5.758   2.941   9.334 -1.3790 -0.7132 -1.0394
  134SAPE   H2S14457   5.678   3.038   9.196 -0.4673 -1.6864  0.3294
  134SAPE    C314458   5.912   3.299   9.645 -0.0011 -0.1751  0.6565
  134SAPE    HX14459   5.937   3.204   9.697 -0.1108 -0.7894 -0.3925
  134SAPE    HY14460   5.901   3.382   9.718 -0.5672  1.6071 -1.3983
  134SAPE   O3114461   6.017   3.326   9.549  0.5867 -0.2831 -0.0231
  134SAPE   C3114462   6.141   3.315   9.600 -0.8376  0.3629  1.2280
  134SAPE   O3214463   6.174   3.305   9.716  0.0008 -0.0957 -0.3002
  134SAPE   C3214464   6.242   3.308   9.484 -0.4552 -0.1489 -0.0653
  134SAPE   H2X14465   6.336   3.344   9.532 -0.9924 -0.2358  1.0871
  134SAPE   H2Y14466   6.203   3.367   9.399 -0.9390  0.1196  0.3454
  134SAPE   C2314467   5.894   3.061   9.204  0.5460  0.2723  0.3986
  134SAPE   H3R14468   5.911   2.963   9.156  0.5341 -0.0013  0.9443
  134SAPE   H3S14469   5.978   3.065   9.277  1.2661  1.6476 -0.4809
  134SAPE   C2414470   5.887   3.191   9.123  0.2089 -0.6292  0.7129
  134SAPE   H4R14471   5.992   3.206   9.088  0.6628 -0.2917  2.2070
  134SAPE   H4S14472   5.878   3.277   9.192  1.8116 -0.3485  0.5908
  134SAPE   C2514473   5.794   3.183   9.004  0.2396 -0.3825 -0.2294
  134SAPE   H5R14474   5.819   3.100   8.937  1.6246  0.3022 -0.5764
  134SAPE   C2614475   5.688   3.260   8.987 -0.0419  0.0247  0.8206
  134SAPE   H6R14476   5.627   3.246   8.897  0.7254 -3.2061  0.7423
  134SAPE   C2714477   5.639   3.373   9.072 -0.6598 -0.5633 -0.6497
  134SAPE   H7R14478   5.703   3.406   9.157 -1.7824  1.2713 -0.4932
  134SAPE   H7S14479   5.552   3.344   9.134 -1.1625  2.4966  0.1450
  134SAPE   C2814480   5.590   3.493   8.985 -0.0005 -0.2144 -0.6165
  134SAPE   H8R14481   5.493   3.467   8.940 -2.2166 -1.9556  4.7122
  134SAPE   C2914482   5.643   3.615   8.963  0.2125 -0.3856  0.1760
  134SAPE   H9R14483   5.583   3.681   8.900  0.8187  0.9902  1.0300
  134SAPE  C21014484   5.769   3.673   9.029 -0.2484 -0.2550  0.0920
  134SAPE  H10R14485   5.790   3.628   9.128  1.1819 -0.3562 -0.2560
  134SAPE  H10S14486   5.752   3.778   9.062  0.9310  0.2887 -1.0133
  134SAPE  C21114487   5.894   3.672   8.949 -0.3166 -0.2025 -0.0111
  134SAPE  H11R14488   5.958   3.584   8.963  0.9150  0.6835  0.0145
  134SAPE  C21214489   5.928   3.769   8.857  0.7240 -0.5207  0.5397
  134SAPE  H12R14490   6.025   3.753   8.808  0.0607 -5.2542  0.5213
  134SAPE  C21314491   5.858   3.895   8.826  0.7232  0.1097  0.0291
  134SAPE  H13R14492   5.788   3.928   8.906  0.2188  0.5513 -0.5831
  134SAPE  H13S14493   5.789   3.874   8.742  1.8989 -3.5586 -0.1023
  134SAPE  C21414494   5.952   4.014   8.789  0.2140 -0.3825 -0.1642
  134SAPE  H14R14495   6.026   4.048   8.862 -0.6676  1.8266 -0.2468
  134SAPE  C21514496   5.949   4.074   8.667  0.0020 -0.2621  0.2608
  134SAPE  H15R14497   6.027   4.148   8.646 -2.1729  1.2630 -2.9890
  134SAPE  C21614498   5.863   4.041   8.552  0.2519 -0.7181 -0.1070
  134SAPE  H16R14499   5.762   4.023   8.595 -0.0901  0.7822 -0.2613
  134SAPE  H16S14500   5.890   3.949   8.495  0.0607 -0.7846 -0.0898
  134SAPE  C21714501   5.841   4.149   8.442  0.0405  0.1087 -0.3327
  134SAPE  H17R14502   5.942   4.151   8.395  0.2830 -2.5405  0.0001
  134SAPE  H17S14503   5.819   4.245   8.494 -0.2531  1.8668 -3.6112
  134SAPE  C21814504   5.728   4.108   8.354 -0.5314  0.9724 -0.0075
  134SAPE  H18R14505   5.640   4.065   8.407 -1.3396  1.3355 -1.0221
  134SAPE  H18S14506   5.766   4.017   8.304 -2.5659 -0.5534  1.1463
  134SAPE  C21914507   5.698   4.220   8.254 -0.0976  0.2249  0.2553
  134SAPE  H19R14508   5.784   4.233   8.186  1.4329 -1.1935  1.8781
  134SAPE  H19S14509   5.681   4.308   8.321  0.8128  0.1667  0.5621
  134SAPE  C22014510   5.577   4.192   8.175  0.3407  0.1548 -0.1453
  134SAPE  H20R14511   5.566   4.087   8.140  1.1401  0.2892 -0.8277
  134SAPE  H20S14512   5.580   4.259   8.087 -2.0501  3.0480  1.8664
  134SAPE  H20T14513   5.488   4.222   8.234  0.4753 -0.9598  0.6461
  134SAPE   C3314514   6.259   3.157   9.438 -0.1792  0.5834  0.3210
  134SAPE   H3X14515   6.179   3.087   9.470  1.7760 -0.9836  1.9776
  134SAPE   H3Y14516   6.344   3.106   9.488 -1.3901  1.0970  2.9859
  134SAPE   C3414517   6.280   3.142   9.285  0.1933 -0.1387  0.5435
  134SAPE   H4X14518   6.371   3.191   9.245 -1.4138  1.5042 -1.2530
  134SAPE   H4Y14519   6.190   3.187   9.237  0.4836  2.5990  2.4727
  134SAPE   C3514520   6.292   2.994   9.240  0.0040 -0.2983 -0.7081
  134SAPE   H5X14521   6.193   2.954   9.270 -0.5227  0.3616 -1.5506
  134SAPE   H5Y14522   6.371   2.941   9.298 -0.6477  0.6214  1.0382
  134SAPE   C3614523   6.300   2.980   9.092  0.6398  0.1667  0.1131
  134SAPE   H6X14524   6.359   3.065   9.052  0.3184  1.9774  3.2611
  134SAPE   H6Y14525   6.196   2.999   9.057 -0.7597 -3.1543  2.1836
  134SAPE   C3714526   6.357   2.851   9.032  0.6071 -0.0835 -0.0818
  134SAPE   H7X14527   6.283   2.768   9.039  0.9698 -0.3503  0.6037
  134SAPE   H7Y14528   6.446   2.813   9.086 -0.3849 -2.3500  0.0255
  134SAPE   C3814529   6.412   2.870   8.889 -0.1363  0.1668 -0.1602
  134SAPE   H8X14530   6.466   2.776   8.864  0.7015  0.6150 -0.0170
  134SAPE   H8Y14531   6.481   2.956   8.878  0.9463 -0.9215 -2.1405
  134SAPE   C3914532   6.297   2.904   8.787  0.2480  0.3071 -0.0493
  134SAPE   H9X14533   6.269   3.010   8.808 -1.3427 -0.4120  1.5166
  134SAPE   H9Y14534   6.207   2.840   8.796  0.4352  0.1815  1.0424
  134SAPE  C31014535   6.351   2.888   8.642  0.1405  0.3471  1.0064
  134SAPE  H10X14536   6.340   2.781   8.616 -0.5466  1.0367 -1.6855
  134SAPE  H10Y14537   6.460   2.912   8.648  0.4362 -0.2013 -1.6333
  134SAPE  C31114538   6.291   2.977   8.532 -0.4411  0.4208  0.1129
  134SAPE  H11X14539   6.332   2.942   8.435  2.5201  1.8024  0.8275
  134SAPE  H11Y14540   6.311   3.084   8.558  2.1912 -0.4001  1.5761
  134SAPE  C31214541   6.136   2.957   8.530  0.0272 -0.2803 -0.2339
  134SAPE  H12X14542   6.094   3.000   8.623 -0.6736  1.4728 -1.3249
  134SAPE  H12Y14543   6.100   2.852   8.531  0.8108 -0.5760 -2.1016
  134SAPE  C31314544   6.060   3.043   8.427  1.1886  0.2070 -0.5427
  134SAPE  H13X14545   6.104   3.024   8.327 -0.0086  2.2106 -1.4657
  134SAPE  H13Y14546   6.085   3.147   8.456  2.0141 -0.1511  0.0520
  134SAPE  C31414547   5.908   3.022   8.406 -0.2869  0.0287  0.0658
  134SAPE  H14X14548   5.843   3.055   8.490 -0.8720  0.9415 -0.7469
  134SAPE  H14Y14549   5.890   2.915   8.381 -2.4654  0.2215  0.7777
  134SAPE  C31514550   5.852   3.100   8.282  0.3250 -0.0452 -0.0792
  134SAPE  H15X14551   5.920   3.072   8.199  0.5296  1.6196 -0.5015
  134SAPE  H15Y14552   5.852   3.210   8.298 -2.0032  0.1355 -1.1242
  134SAPE  C31614553   5.709   3.065   8.233 -1.0339 -0.2710 -0.1294
  134SAPE  H16X14554   5.637   3.109   8.307 -1.8106 -2.1469  0.2625
  134SAPE  H16Y14555   5.699   2.954   8.232  0.3122 -0.4085  0.6304
  134SAPE  C31714556   5.682   3.107   8.091 -0.5438 -0.1608  0.2479
  134SAPE  H17X14557   5.591   3.064   8.044  1.4564 -1.9662 -2.1523
  134SAPE  H17Y14558   5.766   3.071   8.026  0.0109  2.6742 -0.6605
  134SAPE  C31814559   5.678   3.256   8.078 -0.6877  0.5991  0.1124
  134SAPE  H18X14560   5.600   3.302   8.143 -1.5740  0.2509 -0.7014
  134SAPE  H18Y14561   5.643   3.283   7.977  0.3616 -0.8524 -0.6550
  134SAPE  H18Z14562   5.770   3.314   8.101 -0.3831  0.0932  0.1923
  135SAPE     N14563   4.794   2.063   9.675  0.1321 -0.3580 -0.2885
  135SAPE   HN114564   4.772   2.163   9.654 -0.9436 -0.8134 -1.3781
  135SAPE   HN214565   4.858   2.024   9.604  2.4421  0.5916  1.2168
  135SAPE   HN314566   4.707   2.008   9.663 -1.5957  1.8689  1.6016
  135SAPE   C1214567   4.848   2.058   9.819  0.4192 -0.6259  0.7219
  135SAPE  H12A14568   4.763   2.057   9.891  1.5661 -2.7997  2.0894
  135SAPE  H12B14569   4.909   2.147   9.845 -1.5508  0.3527  2.1590
  135SAPE   C1114570   4.922   1.923   9.836 -0.4437 -0.1802  0.1219
  135SAPE  H11A14571   4.855   1.842   9.800 -0.6618  0.4459 -0.9129
  135SAPE  H11B14572   4.943   1.909   9.944  0.1012  1.9812  0.3244
  135SAPE     P14573   5.179   1.866   9.821 -0.5024 -0.1548  0.0383
  135SAPE   O1314574   5.210   1.955   9.931 -1.1631 -0.4141 -0.2241
  135SAPE   O1414575   5.170   1.721   9.854 -0.1964 -0.1697  0.4944
  135SAPE   O1214576   5.039   1.910   9.754  0.5741  0.1201 -0.5022
  135SAPE   O1114577   5.273   1.896   9.701  0.1032 -0.0768 -0.1491
  135SAPE    C114578   5.231   1.892   9.561  0.1042  0.3140 -0.6599
  135SAPE    HA14579   5.310   1.850   9.495  0.4167  0.8117 -0.6086
  135SAPE    HB14580   5.142   1.828   9.545  0.0953 -0.4887  2.3844
  135SAPE    C214581   5.193   2.033   9.514  0.2314  0.5226 -0.2353
  135SAPE    HS14582   5.107   2.077   9.569  1.0223  3.5896 -1.3435
  135SAPE   O2114583   5.158   2.026   9.374 -0.2128 -0.4426  0.5321
  135SAPE   C2114584   5.025   2.004   9.346 -0.6738  0.0549 -0.2655
  135SAPE   O2214585   4.941   1.990   9.429 -0.6284  0.2129  0.3402
  135SAPE   C2214586   5.008   2.013   9.197  0.1269 -0.0306 -0.3379
  135SAPE   H2R14587   5.102   2.055   9.157 -1.0253  4.0451  0.9326
  135SAPE   H2S14588   4.997   1.911   9.153 -1.0940  0.2024 -0.5904
  135SAPE    C314589   5.314   2.123   9.538  0.2793 -0.7155  0.2462
  135SAPE    HX14590   5.401   2.069   9.495  1.2222 -1.1414  2.5737
  135SAPE    HY14591   5.325   2.139   9.648 -3.0882 -2.5882  0.9268
  135SAPE   O3114592   5.305   2.248   9.468  0.0033 -0.2104 -0.3590
  135SAPE   C3114593   5.420   2.320   9.475  0.9371 -0.4779  0.0747
  135SAPE   O3214594   5.515   2.297   9.547  0.5084  0.6772 -0.2755
  135SAPE   C3214595   5.421   2.426   9.364 -0.4425  0.4318  0.5567
  135SAPE   H2X14596   5.464   2.515   9.414  1.9771  0.1667 -0.9788
  135SAPE   H2Y14597   5.316   2.459   9.348  0.1730  1.4721 -1.5010
  135SAPE   C2314598   4.893   2.099   9.151  0.3992  0.4441  0.2577
  135SAPE   H3R14599   4.799   2.068   9.201 -0.7088  0.7108 -1.6060
  135SAPE   H3S14600   4.881   2.108   9.041  1.5520 -0.3069  0.0625
  135SAPE   C2414601   4.920   2.253   9.180 -0.5834 -0.0048  0.1021
  135SAPE   H4R14602   4.926   2.251   9.291 -0.9806  0.0874  0.1244
  135SAPE   H4S14603   4.832   2.318   9.161 -0.3009  0.1021 -0.9056
  135SAPE   C2514604   5.042   2.322   9.113  0.0499  0.1584 -0.0381
  135SAPE   H5R14605   5.124   2.335   9.185 -1.5652 -0.0201  1.8626
  135SAPE   C2614606   5.035   2.387   8.993 -0.0205  0.1129  0.3555
  135SAPE   H6R14607   5.126   2.442   8.965  0.9267 -0.2786  2.5880
  135SAPE   C2714608   4.917   2.402   8.912 -0.3638  0.3206 -0.8532
  135SAPE   H7R14609   4.869   2.488   8.963 -1.0869 -0.1157 -0.7934
  135SAPE   H7S14610   4.843   2.321   8.933  2.0680 -1.9518 -0.7825
  135SAPE   C2814611   4.940   2.438   8.768 -0.0469 -0.8953 -0.0878
  135SAPE   H8R14612   4.962   2.544   8.748  3.3910 -1.6683 -0.5833
  135SAPE   C2914613   4.961   2.346   8.670 -0.0410  0.7024 -0.2543
  135SAPE   H9R14614   4.960   2.392   8.570 -1.5139  1.1781 -0.0376
  135SAPE  C21014615   4.961   2.194   8.691 -0.0241  0.3213 -0.3788
  135SAPE  H10R14616   4.976   2.163   8.797 -0.8180 -3.7440 -1.3738
  135SAPE  H10S14617   5.052   2.143   8.652  0.5923 -0.1443  1.5628
  135SAPE  C21114618   4.840   2.128   8.625  0.2764  0.2461 -0.2299
  135SAPE  H11R14619   4.761   2.087   8.688  1.6008 -0.4131  1.0262
  135SAPE  C21214620   4.817   2.118   8.497  0.4136  0.2257 -0.4516
  135SAPE  H12R14621   4.726   2.066   8.466  1.3198 -1.4395 -0.3580
  135SAPE  C21314622   4.900   2.160   8.381  0.2566 -0.0386 -1.0777
  135SAPE  H13R14623   4.957   2.069   8.351  1.5475  0.5620 -0.5127
  135SAPE  H13S14624   4.970   2.243   8.404  1.2944 -1.1019 -0.3516
  135SAPE  C21414625   4.823   2.194   8.255 -0.2253 -0.2214  0.2725
  135SAPE  H14R14626   4.822   2.116   8.177 -2.8315 -2.2597  2.2445
  135SAPE  C21514627   4.739   2.300   8.237  0.2264 -0.5605 -0.0688
  135SAPE  H15R14628   4.705   2.329   8.137  1.5478  0.9857 -0.0945
  135SAPE  C21614629   4.713   2.410   8.337  0.7154  0.2382 -0.3167
  135SAPE  H16R14630   4.778   2.410   8.427  2.1263  1.6062 -1.3190
  135SAPE  H16S14631   4.611   2.393   8.377  1.0388 -0.1113  0.3625
  135SAPE  C21714632   4.727   2.541   8.265  0.5126 -0.0569 -0.2071
  135SAPE  H17R14633   4.674   2.537   8.167  0.6669 -2.0747 -0.2327
  135SAPE  H17S14634   4.834   2.560   8.244  0.6786 -0.7616 -0.0086
  135SAPE  C21814635   4.662   2.658   8.337 -0.6014  0.6151  0.6720
  135SAPE  H18R14636   4.699   2.661   8.442  0.6353  0.9567  0.2399
  135SAPE  H18S14637   4.554   2.640   8.350 -0.6301 -0.2872 -0.6958
  135SAPE  C21914638   4.692   2.793   8.280  0.0144  0.2354 -0.2118
  135SAPE  H19R14639   4.672   2.795   8.171 -0.9124 -1.7349 -0.0938
  135SAPE  H19S14640   4.799   2.815   8.301 -0.0180 -0.9242  1.2113
  135SAPE  C22014641   4.622   2.899   8.359  0.2893 -0.1677 -0.4591
  135SAPE  H20R14642   4.619   2.993   8.301 -1.2398  2.2214  3.2997
  135SAPE  H20S14643   4.669   2.929   8.455  2.0885 -0.7577 -1.1253
  135SAPE  H20T14644   4.522   2.863   8.389  1.7468 -2.0025  2.4219
  135SAPE   C3314645   5.515   2.381   9.251  0.0681 -0.3623  0.7081
  135SAPE   H3X14646   5.615   2.356   9.292  0.9169 -0.6538 -1.4718
  135SAPE   H3Y14647   5.522   2.465   9.179 -1.5065  0.3956  1.4106
  135SAPE   C3414648   5.466   2.255   9.176  0.3444 -0.1016  0.2648
  135SAPE   H4X14649   5.374   2.280   9.118  1.3828 -1.7005 -2.1402
  135SAPE   H4Y14650   5.450   2.168   9.243 -0.1645 -1.8304 -2.0740
  135SAPE   C3514651   5.566   2.204   9.069  0.2700  0.3503 -0.4496
  135SAPE   H5X14652   5.547   2.097   9.046 -0.5402 -0.0817  2.0004
  135SAPE   H5Y14653   5.660   2.217   9.126  0.0553  0.1213 -0.0372
  135SAPE   C3614654   5.582   2.279   8.939 -0.4002  0.3913 -0.3856
  135SAPE   H6X14655   5.679   2.258   8.889 -0.5792  1.3056 -1.1121
  135SAPE   H6Y14656   5.579   2.389   8.957 -1.0261  0.3931 -0.5098
  135SAPE   C3714657   5.478   2.247   8.832 -0.1199 -0.0039  0.9608
  135SAPE   H7X14658   5.385   2.302   8.857 -0.7164 -1.1000  1.1551
  135SAPE   H7Y14659   5.447   2.141   8.844 -1.3220  0.4876  2.3971
  135SAPE   C3814660   5.520   2.285   8.690 -0.1388 -0.2434  0.6383
  135SAPE   H8X14661   5.611   2.232   8.652 -0.2134 -0.6821  1.0643
  135SAPE   H8Y14662   5.532   2.395   8.694 -0.0282 -0.2597  0.7739
  135SAPE   C3914663   5.404   2.240   8.598 -0.4853  0.3728 -0.2537
  135SAPE   H9X14664   5.311   2.281   8.642  0.1480  1.7753 -0.2021
  135SAPE   H9Y14665   5.387   2.130   8.593 -1.1384  0.5520 -3.3040
  135SAPE  C31014666   5.424   2.287   8.454 -0.1570  0.3576 -0.2131
  135SAPE  H10X14667   5.509   2.233   8.408  1.3622  2.3995  0.1035
  135SAPE  H10Y14668   5.446   2.396   8.463  1.4265 -0.0380  0.6555
  135SAPE  C31114669   5.304   2.263   8.362  0.0223 -0.0254  0.2013
  135SAPE  H11X14670   5.223   2.300   8.429  0.0329 -0.8892  0.6970
  135SAPE  H11Y14671   5.284   2.155   8.349  1.4975 -0.2880  0.0755
  135SAPE  C31214672   5.296   2.330   8.222 -0.4972  0.0005  0.0236
  135SAPE  H12X14673   5.370   2.270   8.166 -0.9839 -1.4102  0.8458
  135SAPE  H12Y14674   5.338   2.432   8.229 -0.0688 -0.1332 -0.5621
  135SAPE  C31314675   5.161   2.337   8.146 -0.2435  0.1525 -0.4687
  135SAPE  H13X14676   5.094   2.399   8.210  0.4305 -0.6323  1.0217
  135SAPE  H13Y14677   5.111   2.239   8.137 -0.7136  0.3384  0.0723
  135SAPE  C31414678   5.174   2.394   8.007 -0.3164 -0.2386 -0.1342
  135SAPE  H14X14679   5.240   2.332   7.942  2.3259  1.4126  0.9193
  135SAPE  H14Y14680   5.219   2.495   8.015  0.9778 -0.8829  0.7576
  135SAPE  C31514681   5.038   2.414   7.932 -0.7012 -0.1152 -0.0089
  135SAPE  H15X14682   4.955   2.416   8.005  0.0362  0.3792  0.8100
  135SAPE  H15Y14683   5.021   2.323   7.870  0.4323 -1.4269  1.5844
  135SAPE  C31614684   5.037   2.547   7.836  0.0995  0.3078  0.2576
  135SAPE  H16X14685   5.052   2.637   7.898 -0.2208  1.2520 -1.0201
  135SAPE  H16Y14686   4.938   2.557   7.785  0.6058  1.4012 -0.5163
  135SAPE  C31714687   5.142   2.534   7.727 -0.3942  0.3961  0.0257
  135SAPE  H17X14688   5.096   2.470   7.649  0.4038 -1.0009  0.6760
  135SAPE  H17Y14689   5.234   2.485   7.766 -0.7447  0.5489  1.0446
  135SAPE  C31814690   5.185   2.663   7.660  0.5678  0.1245  0.0227
  135SAPE  H18X14691   5.095   2.716   7.623  0.8149  0.3562 -0.2453
  135SAPE  H18Y14692   5.242   2.647   7.566  0.9475 -0.2099  0.3075
  135SAPE  H18Z14693   5.239   2.731   7.729 -0.0902  1.0574 -0.3711
  136SAPE     N14694   1.820   2.918   9.763 -0.2707  0.2309 -0.3419
  136SAPE   HN114695   1.776   2.940   9.854 -0.2285  1.4551 -0.5977
  136SAPE   HN214696   1.921   2.895   9.769 -0.2106  0.1587 -1.4464
  136SAPE   HN314697   1.804   2.994   9.693 -0.9176 -1.2737 -1.8453
  136SAPE   C1214698   1.740   2.792   9.711 -0.2053 -0.1439  0.5593
  136SAPE  H12A14699   1.799   2.746   9.628  0.1337  0.4287  0.4810
  136SAPE  H12B14700   1.641   2.836   9.690  0.8671  1.4712 -1.3353
  136SAPE   C1114701   1.722   2.693   9.829 -0.6287  0.5176 -0.0084
  136SAPE  H11A14702   1.648   2.618   9.795  0.7837 -1.9917  2.2644
  136SAPE  H11B14703   1.681   2.754   9.913 -1.8536  0.2086 -0.3752
  136SAPE     P14704   1.844   2.470   9.905  0.0293 -0.3243  0.0126
  136SAPE   O1314705   1.968   2.437   9.981 -0.0428 -0.0730 -0.1217
  136SAPE   O1414706   1.714   2.434   9.973  0.5861 -0.2222  0.0116
  136SAPE   O1214707   1.845   2.624   9.867  0.2134 -0.2339 -0.3783
  136SAPE   O1114708   1.846   2.399   9.764 -0.2382 -0.0703  0.1143
  136SAPE    C114709   1.939   2.430   9.664 -0.1541 -0.0168  0.2898
  136SAPE    HA14710   1.947   2.540   9.654  0.5661 -0.0846  0.1188
  136SAPE    HB14711   2.040   2.395   9.693 -0.1060 -0.5502 -0.4945
  136SAPE    C214712   1.917   2.362   9.535 -0.6058 -0.0414 -0.0310
  136SAPE    HS14713   1.994   2.388   9.459  2.3976 -2.1732  2.1756
  136SAPE   O2114714   1.786   2.400   9.482 -0.5461 -0.6436 -0.1477
  136SAPE   C2114715   1.788   2.520   9.413 -0.3073 -0.3456  0.8151
  136SAPE   O2214716   1.890   2.591   9.400 -0.1602  0.1602 -0.2252
  136SAPE   C2214717   1.645   2.552   9.374 -0.1609 -0.3527 -0.1651
  136SAPE   H2R14718   1.597   2.453   9.359  1.7905 -1.5234  1.1085
  136SAPE   H2S14719   1.603   2.610   9.459  0.2140  0.3255 -0.4327
  136SAPE    C314720   1.928   2.209   9.556 -0.2780  0.1923 -0.7166
  136SAPE    HX14721   1.881   2.181   9.652  0.5768  0.5142 -0.2013
  136SAPE    HY14722   2.031   2.192   9.593 -0.2059 -2.2683 -1.9755
  136SAPE   O3114723   1.881   2.123   9.448 -0.5354 -0.9626 -0.6872
  136SAPE   C3114724   1.981   2.080   9.369 -0.3204 -0.2839  0.0646
  136SAPE   O3214725   2.088   2.137   9.353  0.0550 -0.4143 -0.7345
  136SAPE   C3214726   1.938   1.951   9.297  0.3243 -0.1281  0.4389
  136SAPE   H2X14727   1.836   1.969   9.258  1.0771  0.9044 -1.0831
  136SAPE   H2Y14728   1.938   1.859   9.360  4.0541 -1.2736 -1.0773
  136SAPE   C2314729   1.647   2.634   9.236  0.6011  0.3636 -1.1311
  136SAPE   H3R14730   1.730   2.707   9.237  0.2886  0.7124  1.6065
  136SAPE   H3S14731   1.557   2.699   9.241  0.2054 -0.2877  0.5526
  136SAPE   C2414732   1.651   2.551   9.107  0.1350 -0.6325  0.0467
  136SAPE   H4R14733   1.745   2.492   9.096 -0.6337 -1.9632  0.4699
  136SAPE   H4S14734   1.657   2.636   9.036  0.0200  0.9131  1.8535
  136SAPE   C2514735   1.540   2.454   9.080  0.7061  0.5026  0.3179
  136SAPE   H5R14736   1.502   2.402   9.169 -0.0645  0.7062  0.1063
  136SAPE   C2614737   1.486   2.420   8.961  0.1931 -0.2746  0.2537
  136SAPE   H6R14738   1.398   2.355   8.953 -0.8923  1.2681 -0.7170
  136SAPE   C2714739   1.544   2.483   8.835  0.8638 -0.4080 -0.1826
  136SAPE   H7R14740   1.644   2.435   8.831  0.4393 -1.2978 -0.4268
  136SAPE   H7S14741   1.561   2.593   8.831  0.7107 -0.4054 -0.9421
  136SAPE   C2814742   1.468   2.435   8.712 -0.9414  0.5987 -0.0484
  136SAPE   H8R14743   1.449   2.327   8.716  3.7156 -0.2958  1.5668
  136SAPE   C2914744   1.439   2.496   8.596  0.0580 -0.4309 -0.3727
  136SAPE   H9R14745   1.417   2.424   8.515 -0.9648 -0.0126 -0.4716
  136SAPE  C21014746   1.459   2.629   8.541  0.3739  0.4864 -0.2485
  136SAPE  H10R14747   1.567   2.652   8.536  0.7474 -0.9944  0.7179
  136SAPE  H10S14748   1.420   2.704   8.613 -0.6824 -0.6095  0.3416
  136SAPE  C21114749   1.392   2.650   8.406 -0.0549 -0.1158 -0.7482
  136SAPE  H11R14750   1.283   2.658   8.420  0.0826  0.2991  0.1412
  136SAPE  C21214751   1.443   2.663   8.283 -0.6129  0.4840  0.1144
  136SAPE  H12R14752   1.371   2.667   8.200 -1.1401  1.6026  0.6113
  136SAPE  C21314753   1.590   2.676   8.259  0.0676 -0.5214  0.4807
  136SAPE  H13R14754   1.608   2.627   8.161 -2.1782  1.8020 -1.1608
  136SAPE  H13S14755   1.651   2.636   8.343 -0.5811  1.3143  1.8788
  136SAPE  C21414756   1.640   2.815   8.251  0.2814 -0.1001 -0.3190
  136SAPE  H14R14757   1.619   2.871   8.343  2.0657  0.1118 -0.0244
  136SAPE  C21514758   1.693   2.882   8.145 -0.5778 -0.1433  0.3486
  136SAPE  H15R14759   1.719   2.988   8.160 -1.6500  0.0159  1.1921
  136SAPE  C21614760   1.720   2.821   8.012  0.1066 -0.1804  0.0602
  136SAPE  H16R14761   1.631   2.828   7.945  0.2700 -1.8363 -0.3607
  136SAPE  H16S14762   1.737   2.711   8.013 -1.5243 -0.4641 -1.1079
  136SAPE  C21714763   1.835   2.895   7.943 -0.3665 -0.0173  0.7166
  136SAPE  H17R14764   1.917   2.901   8.018  1.0410  2.0111 -0.9303
  136SAPE  H17S14765   1.807   2.994   7.902  2.5283  1.1919  1.5802
  136SAPE  C21814766   1.887   2.826   7.818 -0.1093 -0.3443 -0.1210
  136SAPE  H18R14767   1.800   2.788   7.760  0.1238  0.3355 -0.9294
  136SAPE  H18S14768   1.950   2.738   7.845  0.8729 -0.3394 -2.3123
  136SAPE  C21914769   1.969   2.913   7.719 -0.3119  0.0468 -0.3831
  136SAPE  H19R14770   2.073   2.926   7.755 -0.1010 -0.7705 -0.7019
  136SAPE  H19S14771   1.913   3.008   7.705 -1.8323 -0.4353  2.0251
  136SAPE  C22014772   1.981   2.844   7.579 -0.0076 -0.5082 -0.0174
  136SAPE  H20R14773   2.011   2.739   7.597  2.2205  0.1290  0.1283
  136SAPE  H20S14774   2.057   2.894   7.515 -0.7367 -0.4004 -0.8210
  136SAPE  H20T14775   1.883   2.829   7.529 -0.7105 -2.8619  1.9766
  136SAPE   C3314776   2.018   1.925   9.163  0.0308  0.9646 -0.0968
  136SAPE   H3X14777   2.027   1.816   9.148 -1.3481  0.9141 -0.6424
  136SAPE   H3Y14778   2.121   1.965   9.173  0.4170 -0.4655  2.0387
  136SAPE   C3414779   1.963   1.992   9.041 -0.1220 -0.6169  0.2661
  136SAPE   H4X14780   1.861   1.949   9.028 -0.6054  0.3979  0.5841
  136SAPE   H4Y14781   2.020   1.973   8.948  0.8163  2.3765  0.1907
  136SAPE   C3514782   1.953   2.141   9.053 -0.3991 -0.1025 -0.3516
  136SAPE   H5X14783   2.045   2.194   9.085 -0.6416  1.7554 -2.6156
  136SAPE   H5Y14784   1.867   2.172   9.117 -0.2354  0.8149 -0.5660
  136SAPE   C3614785   1.915   2.219   8.928 -0.1551 -0.1935 -0.0767
  136SAPE   H6X14786   1.914   2.325   8.962  1.2585 -0.6221  1.3151
  136SAPE   H6Y14787   1.808   2.197   8.905  0.0972 -2.5009  0.8525
  136SAPE   C3714788   2.014   2.202   8.813 -0.4594 -0.0405  0.2837
  136SAPE   H7X14789   2.017   2.097   8.777 -1.8938 -0.7684  2.2441
  136SAPE   H7Y14790   2.115   2.236   8.845 -0.1412 -0.4333 -0.2851
  136SAPE   C3814791   1.986   2.294   8.695 -0.4472  0.0178 -0.2309
  136SAPE   H8X14792   2.074   2.292   8.626  0.2645  2.9491  0.5394
  136SAPE   H8Y14793   1.968   2.400   8.722 -0.2524  0.0409 -0.1924
  136SAPE   C3914794   1.857   2.256   8.624 -0.1398 -0.6210  0.0757
  136SAPE   H9X14795   1.765   2.247   8.685 -1.3090 -1.9574 -1.8297
  136SAPE   H9Y14796   1.880   2.163   8.568  0.0126 -0.7019  0.2718
  136SAPE  C31014797   1.816   2.366   8.525 -0.0662 -0.2462 -0.3501
  136SAPE  H10X14798   1.911   2.389   8.471 -0.3168  3.9811  0.8480
  136SAPE  H10Y14799   1.781   2.445   8.595  1.0638 -0.0654  0.0204
  136SAPE  C31114800   1.702   2.319   8.426 -0.2898 -0.7220 -0.1114
  136SAPE  H11X14801   1.673   2.407   8.365  3.0863 -1.4999 -3.0427
  136SAPE  H11Y14802   1.613   2.280   8.479  0.1208 -2.1310 -0.4405
  136SAPE  C31214803   1.759   2.222   8.324 -0.4873 -0.1383 -0.6631
  136SAPE  H12X14804   1.819   2.138   8.367 -1.1998 -0.7139 -0.7856
  136SAPE  H12Y14805   1.833   2.281   8.266 -0.9120 -0.4977 -1.5750
  136SAPE  C31314806   1.648   2.174   8.224  0.4763 -0.0475  0.0980
  136SAPE  H13X14807   1.577   2.111   8.281  0.7317 -0.9387 -0.5587
  136SAPE  H13Y14808   1.694   2.099   8.155 -0.1819 -0.1394 -0.2465
  136SAPE  C31414809   1.578   2.279   8.139  0.0398  0.5818  0.2714
  136SAPE  H14X14810   1.545   2.365   8.203 -0.4469  0.6287 -0.0421
  136SAPE  H14Y14811   1.492   2.218   8.103  1.2153 -1.8519  1.4752
  136SAPE  C31514812   1.659   2.338   8.024 -0.5671 -0.7770  0.3197
  136SAPE  H15X14813   1.712   2.260   7.966  1.2120 -0.7186  1.8188
  136SAPE  H15Y14814   1.751   2.383   8.066 -0.1592 -2.5801  1.4020
  136SAPE  C31614815   1.591   2.430   7.928  0.1350  0.2445  0.2243
  136SAPE  H16X14816   1.552   2.525   7.970 -1.2950 -0.0097 -0.4907
  136SAPE  H16Y14817   1.504   2.388   7.873  1.0161  0.6284 -1.4946
  136SAPE  C31714818   1.680   2.458   7.799 -0.2759  0.2173 -0.8597
  136SAPE  H17X14819   1.673   2.364   7.741 -1.5190 -1.6723  2.1969
  136SAPE  H17Y14820   1.787   2.470   7.828 -0.2240 -0.4459 -0.7664
  136SAPE  C31814821   1.637   2.568   7.711  0.5696 -0.0086 -0.6246
  136SAPE  H18X14822   1.608   2.658   7.771  0.4413 -1.4146  1.4738
  136SAPE  H18Y14823   1.544   2.532   7.663 -0.5210  2.1832 -0.2533
  136SAPE  H18Z14824   1.709   2.592   7.630  1.0207  0.2084 -0.1622
  137SAPE     N14825   5.870   5.384   9.565 -0.1780  0.1948  0.0979
  137SAPE   HN114826   5.870   5.366   9.668 -0.5824 -2.8778 -0.3899
  137SAPE   HN214827   5.911   5.306   9.510  0.0371 -0.0279  0.5691
  137SAPE   HN314828   5.932   5.468   9.560  0.0640  0.0720  0.8856
  137SAPE   C1214829   5.733   5.413   9.516  0.6809 -0.2755 -0.6896
  137SAPE  H12A14830   5.669   5.345   9.576  1.6969  1.0413  1.9236
  137SAPE  H12B14831   5.721   5.391   9.407 -2.5581  0.4821 -0.5320
  137SAPE   C1114832   5.684   5.560   9.537 -0.5481 -0.8306  0.1962
  137SAPE  H11A14833   5.589   5.573   9.482 -0.6620  1.5802  0.8883
  137SAPE  H11B14834   5.754   5.630   9.485 -0.1571 -0.5256  1.1104
  137SAPE     P14835   5.539   5.542   9.755 -0.3985  0.3518  0.1918
  137SAPE   O1314836   5.570   5.411   9.811  0.4420 -0.0420 -0.8502
  137SAPE   O1414837   5.506   5.646   9.850  0.3792 -0.4714  0.2360
  137SAPE   O1214838   5.674   5.580   9.678 -0.4745 -0.3447  0.6936
  137SAPE   O1114839   5.427   5.537   9.640 -0.4433 -0.9035  0.0347
  137SAPE    C114840   5.288   5.562   9.658 -0.5590  0.0158  0.3483
  137SAPE    HA14841   5.276   5.663   9.703  0.5704 -0.5829  2.0447
  137SAPE    HB14842   5.245   5.569   9.556 -0.2844 -0.2732  0.2126
  137SAPE    C214843   5.212   5.452   9.719 -0.0568 -0.8073 -0.3430
  137SAPE    HS14844   5.243   5.445   9.825  2.5653  1.9406 -0.8244
  137SAPE   O2114845   5.241   5.331   9.651 -0.0854  0.0974  0.4734
  137SAPE   C2114846   5.197   5.218   9.712 -0.3504  0.1720 -0.5592
  137SAPE   O2214847   5.147   5.212   9.820  0.5050  0.0018 -0.1829
  137SAPE   C2214848   5.248   5.094   9.631 -0.6228 -0.2749 -0.1620
  137SAPE   H2R14849   5.329   5.050   9.693 -0.1047  0.2823 -0.4472
  137SAPE   H2S14850   5.170   5.014   9.635 -1.5847  0.5865 -1.5981
  137SAPE    C314851   5.058   5.490   9.716 -0.2645 -0.0762  0.0858
  137SAPE    HX14852   5.049   5.591   9.760  0.1772  0.8137 -1.8084
  137SAPE    HY14853   5.004   5.421   9.784  1.0656 -1.0004  0.2307
  137SAPE   O3114854   5.000   5.493   9.578  0.0529 -0.0496 -0.0596
  137SAPE   C3114855   4.881   5.422   9.571  0.0520 -0.1705 -0.1937
  137SAPE   O3214856   4.829   5.376   9.669  0.0334 -0.4876 -0.3605
  137SAPE   C3214857   4.845   5.390   9.428  1.2530  0.0924 -0.8245
  137SAPE   H2X14858   4.829   5.485   9.371 -1.9790 -0.0842 -0.3176
  137SAPE   H2Y14859   4.741   5.352   9.439  0.5611  0.8735 -3.9985
  137SAPE   C2314860   5.302   5.120   9.490  0.0928  0.2761  0.3929
  137SAPE   H3R14861   5.236   5.189   9.434  2.4578 -0.0221 -2.9433
  137SAPE   H3S14862   5.273   5.020   9.452  0.5215 -0.0854  1.0028
  137SAPE   C2414863   5.451   5.142   9.482  0.3028  0.1145 -0.0470
  137SAPE   H4R14864   5.505   5.062   9.538 -0.4368 -0.7330 -0.5440
  137SAPE   H4S14865   5.466   5.240   9.532 -2.3452  1.0827 -1.0719
  137SAPE   C2514866   5.503   5.137   9.340  0.9297 -0.0223  0.0483
  137SAPE   H5R14867   5.544   5.042   9.302  1.5359  0.3273 -0.1798
  137SAPE   C2614868   5.507   5.240   9.257  0.5836  0.3305 -0.0130
  137SAPE   H6R14869   5.535   5.229   9.151 -0.6233 -1.0321 -0.2062
  137SAPE   C2714870   5.456   5.378   9.281  0.3673 -0.4408 -0.2102
  137SAPE   H7R14871   5.528   5.452   9.240 -2.3296  1.7093 -1.2189
  137SAPE   H7S14872   5.461   5.406   9.389 -0.0964 -0.0240 -0.2966
  137SAPE   C2814873   5.326   5.402   9.223  0.6115  0.8040  0.2088
  137SAPE   H8R14874   5.238   5.375   9.284 -0.6068 -1.0709 -2.2952
  137SAPE   C2914875   5.297   5.445   9.100 -0.6910  0.3707 -0.0543
  137SAPE   H9R14876   5.191   5.469   9.084 -0.6699  0.5866  0.1292
  137SAPE  C21014877   5.395   5.489   8.993  0.5844  0.3513  0.2251
  137SAPE  H10R14878   5.480   5.544   9.038  2.5280 -1.4172 -1.1740
  137SAPE  H10S14879   5.346   5.563   8.927  1.0707  0.3561 -0.1404
  137SAPE  C21114880   5.458   5.381   8.912 -0.0752  0.2134  0.0307
  137SAPE  H11R14881   5.481   5.287   8.963 -0.0949  1.5488  2.5718
  137SAPE  C21214882   5.505   5.402   8.790 -0.3414  0.4467  0.0600
  137SAPE  H12R14883   5.561   5.318   8.746 -0.2412  0.1318  0.7836
  137SAPE  C21314884   5.494   5.524   8.702  0.6622 -0.5161 -0.2151
  137SAPE  H13R14885   5.510   5.611   8.771  2.4090 -0.6294 -0.4495
  137SAPE  H13S14886   5.394   5.542   8.659 -0.2914 -0.8210  1.8135
  137SAPE  C21414887   5.617   5.521   8.610  0.3395  0.1280 -0.0924
  137SAPE  H14R14888   5.713   5.530   8.662  1.3201 -1.6788 -1.5278
  137SAPE  C21514889   5.605   5.488   8.477 -0.1473 -0.2316  0.0149
  137SAPE  H15R14890   5.700   5.474   8.425 -0.6105  1.2101 -1.2464
  137SAPE  C21614891   5.486   5.460   8.388 -0.2437 -0.0581  0.6387
  137SAPE  H16R14892   5.536   5.456   8.289 -0.6208 -0.4868  0.4635
  137SAPE  H16S14893   5.402   5.533   8.382  0.0198 -0.0014 -4.4448
  137SAPE  C21714894   5.416   5.317   8.395  0.2246 -0.0736 -0.0277
  137SAPE  H17R14895   5.352   5.310   8.486  2.3739 -2.1506  1.3780
  137SAPE  H17S14896   5.499   5.243   8.404  0.2995  0.0038 -0.0865
  137SAPE  C21814897   5.336   5.286   8.268  0.5221 -1.6526  0.0139
  137SAPE  H18R14898   5.416   5.284   8.191  2.0860 -1.6057  1.6093
  137SAPE  H18S14899   5.274   5.378   8.254 -2.0174 -3.0957  1.3752
  137SAPE  C21914900   5.251   5.163   8.256 -0.2645  0.1359  0.7917
  137SAPE  H19R14901   5.165   5.163   8.327 -1.6020 -1.7420 -0.7832
  137SAPE  H19S14902   5.320   5.077   8.264  1.3543  1.2987 -0.4203
  137SAPE  C22014903   5.184   5.146   8.118 -0.0974  0.1102  0.4407
  137SAPE  H20R14904   5.260   5.136   8.037 -3.7361 -0.5662 -3.0674
  137SAPE  H20S14905   5.129   5.235   8.079  1.7584  0.6672 -1.0309
  137SAPE  H20T14906   5.114   5.061   8.131 -2.0820  1.7847  1.0363
  137SAPE   C3314907   4.945   5.305   9.355  0.8264 -0.3152  0.4749
  137SAPE   H3X14908   4.935   5.195   9.362 -0.9498 -0.2497 -0.7415
  137SAPE   H3Y14909   5.046   5.328   9.394  0.6652  0.0730  0.6666
  137SAPE   C3414910   4.949   5.338   9.202  0.0575  0.4443 -0.6788
  137SAPE   H4X14911   5.000   5.436   9.198 -0.8611  0.9032 -1.5736
  137SAPE   H4Y14912   4.841   5.335   9.174 -0.0469 -2.5823 -0.1167
  137SAPE   C3514913   5.006   5.227   9.111 -0.0367  0.0893 -0.1193
  137SAPE   H5X14914   4.946   5.135   9.127 -3.6333  2.2520 -0.6990
  137SAPE   H5Y14915   5.108   5.194   9.143  0.6614  1.7003 -0.6138
  137SAPE   C3614916   5.000   5.259   8.964 -0.3924 -0.1711  0.5168
  137SAPE   H6X14917   5.060   5.345   8.930 -0.8947  0.2238  0.6218
  137SAPE   H6Y14918   4.892   5.275   8.944 -0.1034  0.8484 -0.2458
  137SAPE   C3714919   5.055   5.133   8.888 -0.0952 -0.5537 -0.8221
  137SAPE   H7X14920   4.995   5.043   8.912  0.5409 -0.2803  1.9452
  137SAPE   H7Y14921   5.152   5.121   8.940 -1.1384 -3.0115  0.6943
  137SAPE   C3814922   5.084   5.168   8.738  0.4567 -0.3582 -0.2812
  137SAPE   H8X14923   5.130   5.267   8.716  2.3758 -0.7341  1.8802
  137SAPE   H8Y14924   4.985   5.169   8.687 -0.8637 -2.4644  2.1022
  137SAPE   C3914925   5.176   5.068   8.669 -1.0273  0.4920  0.0653
  137SAPE   H9X14926   5.279   5.085   8.709 -0.3253 -1.9841 -0.6059
  137SAPE   H9Y14927   5.166   5.110   8.567  0.0938  1.0380  0.1591
  137SAPE  C31014928   5.133   4.923   8.659  0.4102  0.2779 -0.1527
  137SAPE  H10X14929   5.041   4.922   8.598 -1.3869  3.0281  2.3897
  137SAPE  H10Y14930   5.120   4.888   8.764  0.3111 -0.9663 -0.5706
  137SAPE  C31114931   5.237   4.828   8.601 -0.3811  0.1535  0.5278
  137SAPE  H11X14932   5.197   4.729   8.570  1.4374 -0.7518  1.0184
  137SAPE  H11Y14933   5.315   4.808   8.677 -0.0124 -0.6525 -0.0545
  137SAPE  C31214934   5.297   4.893   8.475 -0.4082  0.2025  0.2148
  137SAPE  H12X14935   5.332   4.994   8.507  2.0202 -0.5721  0.0703
  137SAPE  H12Y14936   5.209   4.907   8.408  0.2540  1.1897 -0.4734
  137SAPE  C31314937   5.413   4.822   8.395 -0.5197  0.9171  0.8208
  137SAPE  H13X14938   5.504   4.823   8.458  0.2991  1.6522 -0.3520
  137SAPE  H13Y14939   5.429   4.879   8.301 -0.4938 -1.2224 -0.5165
  137SAPE  C31414940   5.362   4.679   8.346  0.2225 -0.2638 -0.8169
  137SAPE  H14X14941   5.271   4.691   8.283  0.2959  1.2906 -0.6623
  137SAPE  H14Y14942   5.335   4.616   8.433  0.9712 -0.1996 -0.5422
  137SAPE  C31514943   5.460   4.593   8.268 -0.5522 -0.4988  0.0513
  137SAPE  H15X14944   5.388   4.521   8.223 -0.0074  0.8747 -3.1818
  137SAPE  H15Y14945   5.522   4.538   8.342 -1.4704  0.4316  1.5189
  137SAPE  C31614946   5.545   4.663   8.163  0.8932  0.2152  0.1238
  137SAPE  H16X14947   5.623   4.593   8.124 -1.0870 -2.0717  0.1271
  137SAPE  H16Y14948   5.595   4.754   8.201  1.1667  0.9351 -1.8960
  137SAPE  C31714949   5.457   4.709   8.041  0.2232  0.1781 -0.1122
  137SAPE  H17X14950   5.370   4.757   8.090  0.7420  2.6629 -1.5329
  137SAPE  H17Y14951   5.415   4.620   7.989 -3.4011  0.4625  2.1617
  137SAPE  C31814952   5.527   4.804   7.942 -0.1242  0.4398  0.2775
  137SAPE  H18X14953   5.570   4.893   7.994 -0.3832 -0.3109  1.8152
  137SAPE  H18Y14954   5.458   4.853   7.871 -0.9776  2.6133  2.5187
  137SAPE  H18Z14955   5.604   4.748   7.886 -0.1250  0.1002  0.6104
  138SAPE     N14956   2.681   5.841   9.783 -0.3197 -0.3111 -0.7470
  138SAPE   HN114957   2.585   5.802   9.792  0.0681 -0.7303  2.0559
  138SAPE   HN214958   2.685   5.914   9.709 -0.8800  0.0998 -0.3722
  138SAPE   HN314959   2.739   5.761   9.749  0.0290 -0.3755 -0.0061
  138SAPE   C1214960   2.734   5.896   9.908 -0.1412  0.4773 -0.0659
  138SAPE  H12A14961   2.784   5.811   9.960 -0.5660 -0.1616 -0.6891
  138SAPE  H12B14962   2.648   5.938   9.965  2.2892  4.8078  0.6362
  138SAPE   C1114963   2.832   6.004   9.895  0.3265  0.8435 -0.0852
  138SAPE  H11A14964   2.919   5.976   9.831  0.7118 -1.9780  1.6054
  138SAPE  H11B14965   2.890   6.031   9.986  0.5548 -1.1412  0.3809
  138SAPE     P14966   2.728   6.179   9.716 -0.5436  0.3744 -0.8978
  138SAPE   O1314967   2.671   6.065   9.646  0.0031  0.2655 -0.4195
  138SAPE   O1414968   2.649   6.302   9.737 -0.0710  0.0855  0.6994
  138SAPE   O1214969   2.777   6.128   9.857  0.3654  0.3350 -0.5454
  138SAPE   O1114970   2.861   6.221   9.647  0.2356  0.5195 -0.5398
  138SAPE    C114971   2.911   6.201   9.511 -0.1885  0.3805  0.1480
  138SAPE    HA14972   2.884   6.100   9.474 -0.2805 -0.1604  1.6297
  138SAPE    HB14973   2.866   6.281   9.450 -2.1165  0.1578  1.2635
  138SAPE    C214974   3.060   6.201   9.519 -0.1431 -0.5916  0.0298
  138SAPE    HS14975   3.089   6.155   9.616  1.2342 -0.3508 -0.2608
  138SAPE   O2114976   3.113   6.336   9.502  0.1277  0.1262 -0.0932
  138SAPE   C2114977   3.206   6.368   9.580  1.0279 -0.8698  0.3796
  138SAPE   O2214978   3.259   6.304   9.669  0.6591 -0.1224 -0.0087
  138SAPE   C2214979   3.260   6.504   9.531 -0.6553  0.1078  0.3568
  138SAPE   H2R14980   3.173   6.562   9.492 -0.1046 -0.3319 -1.5576
  138SAPE   H2S14981   3.292   6.541   9.631 -0.3096 -2.7244  1.3533
  138SAPE    C314982   3.125   6.114   9.402 -0.3757  0.0093  0.3975
  138SAPE    HX14983   3.103   6.010   9.432 -2.2225  0.3375  0.2152
  138SAPE    HY14984   3.234   6.137   9.407 -0.0489 -0.9503 -1.6310
  138SAPE   O3114985   3.070   6.138   9.277  0.2326  0.0852 -0.4815
  138SAPE   C3114986   3.158   6.171   9.178  0.0357  0.1860  0.0108
  138SAPE   O3214987   3.280   6.181   9.188  0.6151  0.1677 -0.6475
  138SAPE   C3214988   3.078   6.201   9.050  0.2233 -0.2580  0.4291
  138SAPE   H2X14989   2.993   6.269   9.073 -0.8460 -1.1122 -0.8595
  138SAPE   H2Y14990   3.033   6.102   9.024  2.4041 -1.4173  0.9739
  138SAPE   C2314991   3.365   6.491   9.413  0.3011  0.1191  0.2198
  138SAPE   H3R14992   3.349   6.406   9.343  2.0302  0.1201 -0.2182
  138SAPE   H3S14993   3.466   6.475   9.459  1.0691  0.3874 -1.3468
  138SAPE   C2414994   3.381   6.619   9.330  0.0635 -0.9590  0.0776
  138SAPE   H4R14995   3.485   6.604   9.294  0.0792  1.7724 -1.1625
  138SAPE   H4S14996   3.390   6.709   9.395  2.6002 -0.9680 -0.2184
  138SAPE   C2514997   3.267   6.644   9.234 -0.2474 -0.4042  0.1859
  138SAPE   H5R14998   3.167   6.665   9.276 -0.1324 -1.3427  0.9591
  138SAPE   C2614999   3.279   6.662   9.099 -0.0112  0.3137 -0.1231
  138SAPE   H6R15000   3.184   6.654   9.044 -0.7932  0.6477  1.1508
  138SAPE   C2715001   3.403   6.662   9.013  0.6129 -0.6214 -0.1847
  138SAPE   H7R15002   3.390   6.585   8.934 -0.2654 -0.8365  0.1635
  138SAPE   H7S15003   3.484   6.629   9.081  1.0874 -2.5594 -1.6463
  138SAPE   C2815004   3.440   6.791   8.955 -0.2827  0.3567  0.7062
  138SAPE   H8R15005   3.484   6.867   9.022 -0.1868  1.2263 -0.3319
  138SAPE   C2915006   3.437   6.813   8.822 -0.1441  0.0992 -0.7885
  138SAPE   H9R15007   3.471   6.903   8.770 -2.7548  1.9083  0.5378
  138SAPE  C21015008   3.387   6.711   8.719  0.7736 -0.3395 -0.0282
  138SAPE  H10R15009   3.338   6.771   8.639 -0.4845 -0.5768  0.5454
  138SAPE  H10S15010   3.311   6.644   8.765 -0.1688 -0.2861 -1.4664
  138SAPE  C21115011   3.496   6.614   8.662  0.3915 -0.1573  0.0513
  138SAPE  H11R15012   3.479   6.515   8.709  2.5189 -0.8819 -0.6742
  138SAPE  C21215013   3.573   6.636   8.559 -0.2408 -0.2924  0.3696
  138SAPE  H12R15014   3.666   6.582   8.533 -0.1174 -0.5846  1.3794
  138SAPE  C21315015   3.575   6.762   8.478 -0.4917 -0.4816  0.0894
  138SAPE  H13R15016   3.572   6.851   8.545  0.1433  0.3922 -1.0303
  138SAPE  H13S15017   3.490   6.764   8.407 -0.6891  1.1107  0.3506
  138SAPE  C21415018   3.696   6.789   8.399 -0.0851 -0.4568  0.0989
  138SAPE  H14R15019   3.779   6.831   8.458 -1.4739 -1.3476  2.8098
  138SAPE  C21515020   3.716   6.747   8.275  0.7795 -0.2714  0.1287
  138SAPE  H15R15021   3.812   6.771   8.228  0.8425  0.2636  0.5255
  138SAPE  C21615022   3.634   6.665   8.183  0.0415  0.6123 -0.0728
  138SAPE  H16R15023   3.537   6.645   8.233  0.5975  1.8775  1.6104
  138SAPE  H16S15024   3.693   6.577   8.152  1.0357  1.5648 -0.9254
  138SAPE  C21715025   3.598   6.734   8.048  0.2913 -0.1249 -0.1859
  138SAPE  H17R15026   3.523   6.812   8.070  0.7046  0.0698  0.5732
  138SAPE  H17S15027   3.549   6.661   7.980  0.7515 -0.4546 -0.1692
  138SAPE  C21815028   3.715   6.801   7.978 -0.3433  0.9463 -0.1569
  138SAPE  H18R15029   3.778   6.867   8.041  0.4964 -1.6547  1.8198
  138SAPE  H18S15030   3.686   6.857   7.887  0.1383 -0.8651 -1.4512
  138SAPE  C21915031   3.808   6.691   7.937  0.0681  0.3770  0.0315
  138SAPE  H19R15032   3.764   6.604   7.884  1.5328 -0.7644  0.6818
  138SAPE  H19S15033   3.850   6.650   8.031 -0.7651  3.1358  1.6871
  138SAPE  C22015034   3.925   6.733   7.844  0.0657 -0.5659  0.6734
  138SAPE  H20R15035   3.981   6.824   7.874 -0.7992  0.1713  0.0714
  138SAPE  H20S15036   3.884   6.750   7.742  0.8153  0.5974  0.5564
  138SAPE  H20T15037   3.993   6.646   7.829 -1.1227 -0.8611 -3.5213
  138SAPE   C3315038   3.175   6.232   8.934  0.3711 -0.5927  1.4067
  138SAPE   H3X15039   3.235   6.140   8.919  1.6280  0.7067 -2.0363
  138SAPE   H3Y15040   3.248   6.313   8.959 -0.5786  0.4006  0.9896
  138SAPE   C3415041   3.102   6.299   8.818 -0.4916  0.1319  0.0241
  138SAPE   H4X15042   3.036   6.380   8.854  0.1512  1.3759 -1.5321
  138SAPE   H4Y15043   3.033   6.222   8.776 -0.2852  1.1101 -2.2005
  138SAPE   C3515044   3.187   6.353   8.702 -0.2599 -0.2741 -0.3733
  138SAPE   H5X15045   3.246   6.269   8.659 -1.5593 -1.0809 -0.5809
  138SAPE   H5Y15046   3.241   6.440   8.746  0.1872 -0.7614  0.0545
  138SAPE   C3615047   3.098   6.411   8.589  0.2828 -0.6042 -0.0984
  138SAPE   H6X15048   3.041   6.499   8.625 -0.7318 -1.1918 -0.2707
  138SAPE   H6Y15049   3.024   6.337   8.554 -0.9869  0.0579  1.1581
  138SAPE   C3715050   3.185   6.454   8.468  0.3313  0.0072  0.3645
  138SAPE   H7X15051   3.234   6.363   8.427  0.4457 -0.4363  1.4537
  138SAPE   H7Y15052   3.273   6.511   8.504  0.3758 -0.7575  1.4863
  138SAPE   C3815053   3.110   6.520   8.354 -0.3186  0.0519  0.5421
  138SAPE   H8X15054   3.169   6.516   8.259 -1.4447 -3.1586 -0.0829
  138SAPE   H8Y15055   3.091   6.629   8.368 -2.6170 -0.5347  2.1966
  138SAPE   C3915056   2.966   6.467   8.322 -0.0475 -0.6651  0.1897
  138SAPE   H9X15057   2.890   6.492   8.399  1.1668  0.4241  1.0652
  138SAPE   H9Y15058   2.986   6.358   8.313  0.4687 -0.5667  0.0907
  138SAPE  C31015059   2.905   6.512   8.196  0.0157  0.0997 -0.5098
  138SAPE  H10X15060   2.978   6.502   8.113 -0.3596 -1.9804 -0.6199
  138SAPE  H10Y15061   2.906   6.623   8.199  0.9791  0.1431 -1.9127
  138SAPE  C31115062   2.773   6.462   8.174  0.0423 -0.1044  0.2690
  138SAPE  H11X15063   2.704   6.457   8.261  0.2904  2.4110  0.6503
  138SAPE  H11Y15064   2.783   6.355   8.145  0.3037 -0.1101  0.3857
  138SAPE  C31215065   2.702   6.556   8.074  0.2419  0.4701  0.5053
  138SAPE  H12X15066   2.741   6.515   7.978 -2.0886  0.9667 -0.6881
  138SAPE  H12Y15067   2.727   6.664   8.088 -0.1831  0.6364 -0.0162
  138SAPE  C31315068   2.549   6.551   8.056  0.1613  0.3647 -0.3001
  138SAPE  H13X15069   2.506   6.554   8.158  0.5874  0.8690 -0.1326
  138SAPE  H13Y15070   2.529   6.451   8.012  0.1633  0.0828  0.3480
  138SAPE  C31415071   2.489   6.660   7.970 -0.2740 -0.0146 -0.3886
  138SAPE  H14X15072   2.530   6.756   8.007 -0.3612 -0.3995  0.7149
  138SAPE  H14Y15073   2.378   6.659   7.977 -0.2546 -1.5823 -0.0471
  138SAPE  C31515074   2.524   6.648   7.818  0.2583  0.6284 -0.6789
  138SAPE  H15X15075   2.481   6.562   7.762 -0.6501  1.5017 -1.3458
  138SAPE  H15Y15076   2.634   6.635   7.815  0.1139 -0.4830 -1.4635
  138SAPE  C31615077   2.483   6.771   7.734 -0.3576 -0.1956 -0.3880
  138SAPE  H16X15078   2.518   6.748   7.631  0.1382  0.0758 -0.2856
  138SAPE  H16Y15079   2.539   6.858   7.776  0.2719 -0.1337 -1.3526
  138SAPE  C31715080   2.332   6.812   7.725  0.4536 -0.2677 -0.4088
  138SAPE  H17X15081   2.320   6.906   7.667 -2.3278 -0.2603  0.0917
  138SAPE  H17Y15082   2.295   6.828   7.829  0.9262 -1.6396 -0.0082
  138SAPE  C31815083   2.228   6.708   7.668 -0.0289  0.7335 -0.0348
  138SAPE  H18X15084   2.122   6.722   7.699 -0.1747  0.5343 -0.4494
  138SAPE  H18Y15085   2.256   6.608   7.707 -0.8959  0.9866  1.2770
  138SAPE  H18Z15086   2.226   6.709   7.557 -1.5404  1.2506 -0.0248
  139SAPE     N15087   2.301   6.158  10.028  0.0769 -0.6283  0.2959
  139SAPE   HN115088   2.283   6.232  10.100  0.9630 -0.4909  0.3844
  139SAPE   HN215089   2.377   6.103  10.073  0.8499  0.5230  0.4184
  139SAPE   HN315090   2.334   6.210   9.945  2.3073  2.2618  2.8494
  139SAPE   C1215091   2.174   6.079  10.008  0.5074  0.3134 -0.0763
  139SAPE  H12A15092   2.089   6.149  10.015  0.7382  0.4261  1.8030
  139SAPE  H12B15093   2.170   6.008  10.093  0.7130  0.4878  0.0804
  139SAPE   C1115094   2.188   5.991   9.881  0.5178 -0.4951  0.3738
  139SAPE  H11A15095   2.216   6.070   9.808 -1.6028  0.5872  0.7179
  139SAPE  H11B15096   2.087   5.949   9.861 -1.1635  3.7493 -0.6224
  139SAPE     P15097   2.297   5.768   9.802  0.1983  0.3442  0.0932
  139SAPE   O1315098   2.432   5.715   9.802  0.3895  0.2072  0.1177
  139SAPE   O1415099   2.184   5.684   9.853 -0.3979  0.6159  1.2993
  139SAPE   O1215100   2.294   5.896   9.893  0.2849 -0.2043  0.1170
  139SAPE   O1115101   2.262   5.827   9.661  0.3812  0.2537 -0.1358
  139SAPE    C115102   2.362   5.912   9.603  0.7600  0.4533  0.0326
  139SAPE    HA15103   2.422   5.974   9.673  2.7374 -0.3307 -0.8951
  139SAPE    HB15104   2.444   5.848   9.562 -0.7072 -1.2659 -0.2566
  139SAPE    C215105   2.302   6.011   9.500 -1.0107  1.0503  0.6505
  139SAPE    HS15106   2.206   6.051   9.540 -0.4604  1.2415  1.7904
  139SAPE   O2115107   2.284   5.948   9.370 -0.0986  0.7603 -0.3119
  139SAPE   C2115108   2.162   5.959   9.321 -0.3858 -0.2571  0.2422
  139SAPE   O2215109   2.067   6.011   9.378 -0.3903  0.2494  0.5102
  139SAPE   C2215110   2.162   5.916   9.177 -0.0042 -0.6645  0.1909
  139SAPE   H2R15111   2.175   5.806   9.172  0.8092 -0.6209  1.1959
  139SAPE   H2S15112   2.056   5.921   9.146 -0.6898 -2.3893  2.1625
  139SAPE    C315113   2.402   6.129   9.480  0.0662  0.1397  0.6643
  139SAPE    HX15114   2.508   6.106   9.454 -0.3209 -0.9254  0.0075
  139SAPE    HY15115   2.411   6.182   9.578  2.1253 -1.3289  1.3251
  139SAPE   O3115116   2.348   6.207   9.369  0.0349 -0.0654 -0.2489
  139SAPE   C3115117   2.368   6.338   9.381 -0.5185  0.0120 -0.4237
  139SAPE   O3215118   2.431   6.392   9.468 -0.3884  0.6758 -0.5122
  139SAPE   C3215119   2.308   6.409   9.255  0.8785 -0.2035  0.0399
  139SAPE   H2X15120   2.266   6.503   9.296 -1.2504 -1.4023  0.7086
  139SAPE   H2Y15121   2.214   6.361   9.219 -0.4986  2.4785 -0.1173
  139SAPE   C2315122   2.243   6.001   9.073 -0.0660 -0.4421  0.3560
  139SAPE   H3R15123   2.342   6.014   9.122  1.6775  0.2808 -3.1856
  139SAPE   H3S15124   2.217   6.108   9.060 -0.2501 -0.4276  0.8617
  139SAPE   C2415125   2.248   5.930   8.939 -0.4241  0.0285  0.1299
  139SAPE   H4R15126   2.292   5.829   8.951 -0.7293 -0.3124 -1.4951
  139SAPE   H4S15127   2.318   5.987   8.874  0.0426  1.3304  1.7364
  139SAPE   C2515128   2.105   5.916   8.872  0.3254 -0.2649 -0.2359
  139SAPE   H5R15129   2.021   5.890   8.938 -1.0349 -0.8992 -2.1823
  139SAPE   C2615130   2.086   5.913   8.743  0.1276 -0.3625  0.3643
  139SAPE   H6R15131   1.979   5.906   8.716  0.1097 -3.4955  1.1012
  139SAPE   C2715132   2.177   5.921   8.622 -0.2184  0.1187 -0.8404
  139SAPE   H7R15133   2.152   5.841   8.549 -1.2600 -1.2034  0.9323
  139SAPE   H7S15134   2.284   5.902   8.646 -0.1353  2.4028  0.7409
  139SAPE   C2815135   2.164   6.061   8.561  0.2884  0.3718 -0.3674
  139SAPE   H8R15136   2.216   6.142   8.615 -1.7575  0.2850  1.8476
  139SAPE   C2915137   2.074   6.097   8.465  0.6404  0.2564 -0.2933
  139SAPE   H9R15138   2.077   6.198   8.422 -0.0167 -0.4017 -1.9452
  139SAPE  C21015139   1.990   5.997   8.391  0.6387  0.0854  0.0903
  139SAPE  H10R15140   1.903   6.052   8.348 -0.9011 -3.4151 -1.4850
  139SAPE  H10S15141   1.953   5.913   8.453 -2.6031 -0.6062 -2.6503
  139SAPE  C21115142   2.058   5.940   8.266  0.5569 -0.2680 -0.1451
  139SAPE  H11R15143   2.099   5.839   8.281  0.5385 -0.3669 -0.7596
  139SAPE  C21215144   2.062   6.000   8.146  0.2011 -0.0586  0.4607
  139SAPE  H12R15145   2.108   5.941   8.066  0.5741 -0.8911  1.2723
  139SAPE  C21315146   2.017   6.143   8.125  0.0536 -0.5661 -0.1490
  139SAPE  H13R15147   1.958   6.187   8.209  0.4233 -0.5865  0.1267
  139SAPE  H13S15148   1.943   6.148   8.042 -0.9707  1.0205  0.8251
  139SAPE  C21415149   2.135   6.228   8.094  0.5510 -0.1277  0.7712
  139SAPE  H14R15150   2.212   6.228   8.173  0.2209 -0.5134  1.0959
  139SAPE  C21515151   2.157   6.300   7.985  0.2381  0.5887 -0.3232
  139SAPE  H15R15152   2.257   6.345   7.976  1.2589 -1.2150  1.4718
  139SAPE  C21615153   2.070   6.324   7.864  0.7255 -0.2276  0.2210
  139SAPE  H16R15154   2.067   6.433   7.843 -0.8181  0.9060  5.4621
  139SAPE  H16S15155   1.965   6.288   7.876  0.6798 -0.5463 -1.1319
  139SAPE  C21715156   2.126   6.247   7.741 -0.3654 -0.0665 -0.0148
  139SAPE  H17R15157   2.041   6.246   7.669 -0.3498 -0.8611 -0.0361
  139SAPE  H17S15158   2.159   6.143   7.762  3.6441  1.1266  0.0001
  139SAPE  C21815159   2.255   6.314   7.678  0.2779  0.3106  0.1090
  139SAPE  H18R15160   2.329   6.332   7.759  0.3849  1.1629 -0.1824
  139SAPE  H18S15161   2.235   6.415   7.638  0.0481  0.0871 -0.3499
  139SAPE  C21915162   2.307   6.228   7.570  0.1757  0.0576 -0.0077
  139SAPE  H19R15163   2.230   6.218   7.490 -0.0111  2.3573 -0.1406
  139SAPE  H19S15164   2.331   6.134   7.625 -2.1715 -0.5186  0.0810
  139SAPE  C22015165   2.441   6.274   7.508  0.3778 -0.3777  0.6074
  139SAPE  H20R15166   2.479   6.192   7.444 -1.7318  0.1484 -1.3954
  139SAPE  H20S15167   2.526   6.299   7.574  0.5011 -0.1193  0.3562
  139SAPE  H20T15168   2.418   6.368   7.451 -1.7718 -0.7504  0.7985
  139SAPE   C3315169   2.414   6.430   9.140 -0.3146  0.3427  0.3345
  139SAPE   H3X15170   2.508   6.467   9.185  1.0244 -1.1048 -1.1856
  139SAPE   H3Y15171   2.379   6.504   9.064  1.0739 -0.1388 -0.8008
  139SAPE   C3415172   2.444   6.299   9.067  0.4705  0.5189 -0.4059
  139SAPE   H4X15173   2.346   6.261   9.032  0.6380 -1.1603  0.9082
  139SAPE   H4Y15174   2.491   6.228   9.138  1.4089  2.1194  0.5944
  139SAPE   C3515175   2.544   6.312   8.945 -0.4136 -0.4712 -0.1756
  139SAPE   H5X15176   2.641   6.356   8.977 -0.4115 -0.9847  0.5236
  139SAPE   H5Y15177   2.499   6.384   8.873  1.4421  0.8059 -0.1206
  139SAPE   C3615178   2.571   6.175   8.886 -0.0678  0.2824 -0.6361
  139SAPE   H6X15179   2.480   6.134   8.837  1.1330 -1.3232 -1.5981
  139SAPE   H6Y15180   2.586   6.109   8.974  1.0811  0.9159 -0.3445
  139SAPE   C3715181   2.690   6.172   8.794 -0.5533  0.9658 -0.6667
  139SAPE   H7X15182   2.718   6.065   8.780 -1.6205  0.7295 -1.0564
  139SAPE   H7Y15183   2.786   6.220   8.822  0.0678  1.3694 -3.3531
  139SAPE   C3815184   2.658   6.225   8.655  0.6277  0.0606  0.8523
  139SAPE   H8X15185   2.752   6.243   8.599  0.9306  1.2479  1.7025
  139SAPE   H8Y15186   2.609   6.324   8.669 -1.9700 -0.9934 -0.4313
  139SAPE   C3915187   2.568   6.136   8.563 -0.0217  0.1561  0.5013
  139SAPE   H9X15188   2.475   6.109   8.617  0.0530  1.1035  1.1172
  139SAPE   H9Y15189   2.617   6.043   8.528 -1.6006 -0.6941  0.4953
  139SAPE  C31015190   2.537   6.217   8.440 -0.3100 -0.4518 -0.5339
  139SAPE  H10X15191   2.630   6.268   8.407  0.7617 -3.2330 -2.0020
  139SAPE  H10Y15192   2.462   6.296   8.464  0.6444  0.1382  0.5210
  139SAPE  C31115193   2.488   6.125   8.320 -0.3549  0.1710  0.6735
  139SAPE  H11X15194   2.378   6.110   8.335 -0.7352  0.1253 -1.9212
  139SAPE  H11Y15195   2.532   6.023   8.326 -1.7056 -0.8828 -4.6548
  139SAPE  C31215196   2.510   6.185   8.182  0.1700  0.4268  0.5122
  139SAPE  H12X15197   2.618   6.211   8.175  0.1017  0.7643  0.7198
  139SAPE  H12Y15198   2.451   6.274   8.150  0.9479  0.3941 -1.0916
  139SAPE  C31315199   2.477   6.087   8.063  0.7944  0.2432 -0.9458
  139SAPE  H13X15200   2.372   6.054   8.071  1.0845 -1.1477 -2.5067
  139SAPE  H13Y15201   2.536   5.996   8.090 -1.9373 -1.1196  0.6566
  139SAPE  C31415202   2.527   6.139   7.931 -0.0984 -0.3532 -0.3343
  139SAPE  H14X15203   2.484   6.240   7.914  2.3564  0.6591 -0.8182
  139SAPE  H14Y15204   2.484   6.074   7.851  1.1354 -0.2875 -1.0664
  139SAPE  C31515205   2.684   6.131   7.918 -0.0787  0.7805  0.2445
  139SAPE  H15X15206   2.727   6.029   7.911 -2.7804 -0.3189 -0.9938
  139SAPE  H15Y15207   2.730   6.177   8.008  1.6734  1.0282 -0.7626
  139SAPE  C31615208   2.727   6.207   7.796  0.2171  0.0018  0.5524
  139SAPE  H16X15209   2.674   6.162   7.710 -0.6600 -0.0950  1.1317
  139SAPE  H16Y15210   2.686   6.311   7.802 -0.4331 -0.1715 -0.6778
  139SAPE  C31715211   2.882   6.198   7.776  0.2865  0.0344 -0.0193
  139SAPE  H17X15212   2.911   6.195   7.669 -1.6763 -0.7737 -0.5614
  139SAPE  H17Y15213   2.914   6.100   7.817 -0.4044  0.2120  0.9618
  139SAPE  C31815214   2.950   6.314   7.850 -0.4132 -0.8459 -0.2482
  139SAPE  H18X15215   2.911   6.412   7.817  0.5173 -0.4277 -0.1111
  139SAPE  H18Y15216   3.054   6.316   7.811 -0.3429 -1.9161 -0.1440
  139SAPE  H18Z15217   2.953   6.301   7.960  0.3384 -0.8888 -0.2665
  140SAPE     N15218   5.285   0.948   9.836 -0.1856  0.0951  0.5542
  140SAPE   HN115219   5.195   0.981   9.797 -0.9016 -2.1369  0.2460
  140SAPE   HN215220   5.265   0.886   9.918  0.3069  0.6635  1.1149
  140SAPE   HN315221   5.336   1.032   9.869  0.8313 -0.5965  0.7809
  140SAPE   C1215222   5.364   0.878   9.737 -0.5260 -0.1866 -0.3134
  140SAPE  H12A15223   5.408   0.953   9.668  1.6503  0.1354  1.3814
  140SAPE  H12B15224   5.306   0.794   9.692  0.3662 -0.0251 -1.7977
  140SAPE   C1115225   5.489   0.818   9.796 -0.6325 -0.2673  0.9484
  140SAPE  H11A15226   5.556   0.896   9.838  0.6572 -1.0772  0.4547
  140SAPE  H11B15227   5.551   0.774   9.714 -1.3722  2.3751 -1.0982
  140SAPE     P15228   5.437   0.565   9.846 -0.0447  0.1775  0.2533
  140SAPE   O1315229   5.510   0.470   9.939  0.1518 -0.0746  0.2680
  140SAPE   O1415230   5.289   0.541   9.847 -0.5340  0.4765 -0.1811
  140SAPE   O1215231   5.469   0.717   9.896 -0.6647  0.2866 -0.5026
  140SAPE   O1115232   5.502   0.563   9.701 -0.2075  0.4145  0.4611
  140SAPE    C115233   5.520   0.450   9.617  0.6433  0.4221 -0.7010
  140SAPE    HA15234   5.629   0.426   9.623  0.3134 -0.3285  3.4319
  140SAPE    HB15235   5.457   0.362   9.640 -1.1626  1.8026 -0.2667
  140SAPE    C215236   5.475   0.481   9.473  0.9829 -0.4265  0.2550
  140SAPE    HS15237   5.476   0.392   9.406  0.1484  0.5948 -1.1482
  140SAPE   O2115238   5.553   0.584   9.412 -0.1181  0.7819  0.0266
  140SAPE   C2115239   5.672   0.550   9.383 -0.2512  1.0428 -0.0195
  140SAPE   O2215240   5.720   0.439   9.392 -0.1322  0.6374 -0.1627
  140SAPE   C2215241   5.745   0.666   9.323  0.4004 -0.8085  0.0489
  140SAPE   H2R15242   5.668   0.739   9.289  1.8621  0.0968 -1.3773
  140SAPE   H2S15243   5.804   0.718   9.401  0.5791  0.3213 -0.8357
  140SAPE    C315244   5.327   0.530   9.477 -0.5007  0.0101 -0.2699
  140SAPE    HX15245   5.323   0.609   9.555 -0.2180  0.6408 -0.8862
  140SAPE    HY15246   5.263   0.444   9.506 -1.1828  1.0927  1.4780
  140SAPE   O3115247   5.277   0.589   9.352  0.5906 -0.0134 -0.2227
  140SAPE   C3115248   5.262   0.493   9.257  0.4630  0.3550 -0.3652
  140SAPE   O3215249   5.271   0.374   9.281  0.4116 -0.4681  0.1375
  140SAPE   C3215250   5.207   0.547   9.122 -0.2677 -0.2310 -0.5582
  140SAPE   H2X15251   5.153   0.643   9.134  0.9044  0.1150  2.6025
  140SAPE   H2Y15252   5.133   0.474   9.083 -0.4756 -0.5853  0.4631
  140SAPE   C2315253   5.840   0.625   9.210 -0.3580 -0.4142 -0.0185
  140SAPE   H3R15254   5.789   0.554   9.143  0.0761 -0.9718  0.2385
  140SAPE   H3S15255   5.921   0.570   9.262  0.6482  1.4998  0.5108
  140SAPE   C2415256   5.882   0.755   9.139  0.7347 -0.2858 -0.6112
  140SAPE   H4R15257   5.928   0.822   9.214 -0.4896 -2.0071  1.7183
  140SAPE   H4S15258   5.794   0.815   9.107  0.3751  1.2209  3.0522
  140SAPE   C2515259   5.981   0.734   9.026  0.3056  0.1358 -0.2481
  140SAPE   H5R15260   6.089   0.740   9.047  0.0472  0.5148  0.9900
  140SAPE   C2615261   5.951   0.719   8.897  0.3965 -0.1224 -0.2785
  140SAPE   H6R15262   6.021   0.674   8.825  1.6307  0.3843  0.5940
  140SAPE   C2715263   5.808   0.725   8.840  0.4785  0.0451  0.8310
  140SAPE   H7R15264   5.736   0.707   8.922  1.2242  0.8593  1.6666
  140SAPE   H7S15265   5.797   0.643   8.765  2.2487  2.6884 -2.5186
  140SAPE   C2815266   5.769   0.859   8.776  0.2845 -1.5461  0.8920
  140SAPE   H8R15267   5.826   0.943   8.817  1.1528  0.0986 -3.4173
  140SAPE   C2915268   5.683   0.880   8.672  0.2322  0.4110  0.0275
  140SAPE   H9R15269   5.655   0.982   8.641  0.0840 -0.2109 -1.9856
  140SAPE  C21015270   5.608   0.771   8.602 -0.1816  0.3338 -1.3135
  140SAPE  H10R15271   5.515   0.812   8.558 -1.1613 -1.2651 -0.8011
  140SAPE  H10S15272   5.578   0.684   8.665 -0.1362  1.1757 -0.1196
  140SAPE  C21115273   5.702   0.723   8.493  0.3022  0.4377  0.3549
  140SAPE  H11R15274   5.811   0.727   8.508  0.2417  1.0085  0.6470
  140SAPE  C21215275   5.666   0.695   8.364 -0.1994  0.4139 -0.2307
  140SAPE  H12R15276   5.751   0.664   8.301 -0.9628  0.8640 -1.4823
  140SAPE  C21315277   5.518   0.692   8.307 -0.2793  0.0396 -0.7449
  140SAPE  H13R15278   5.459   0.784   8.325  2.2222  1.7436 -1.0034
  140SAPE  H13S15279   5.469   0.619   8.375  1.3547  1.2151  1.7809
  140SAPE  C21415280   5.525   0.659   8.157 -0.4964 -0.0895  0.0791
  140SAPE  H14R15281   5.594   0.726   8.104  1.1719 -2.0439 -0.2933
  140SAPE  C21515282   5.485   0.550   8.091  0.4119  0.1748 -0.8801
  140SAPE  H15R15283   5.497   0.553   7.982 -0.1006 -1.9093 -1.0080
  140SAPE  C21615284   5.418   0.424   8.149  0.0171 -0.0959 -0.2744
  140SAPE  H16R15285   5.461   0.375   8.239  2.3047  0.3498 -1.0920
  140SAPE  H16S15286   5.421   0.344   8.072 -1.6112  0.2782 -0.7565
  140SAPE  C21715287   5.260   0.462   8.166 -0.2320 -0.8966 -0.0498
  140SAPE  H17R15288   5.223   0.511   8.073  1.6729 -0.5717 -0.6693
  140SAPE  H17S15289   5.248   0.536   8.247 -0.0520 -2.3669  1.3306
  140SAPE  C21815290   5.178   0.337   8.190  0.4735  0.0679  0.1502
  140SAPE  H18R15291   5.164   0.285   8.093  2.0209  1.5481 -0.9053
  140SAPE  H18S15292   5.071   0.366   8.205  1.0705  1.5097  1.8522
  140SAPE  C21915293   5.228   0.241   8.298 -0.0945 -0.2674  0.2918
  140SAPE  H19R15294   5.247   0.281   8.400  0.7239  0.8204 -0.2699
  140SAPE  H19S15295   5.324   0.200   8.260  1.4378  0.7894  2.9031
  140SAPE  C22015296   5.137   0.115   8.316  0.4112  0.0671 -0.5365
  140SAPE  H20R15297   5.116   0.065   8.219 -1.8383  2.2936 -1.2596
  140SAPE  H20S15298   5.032   0.145   8.341  0.5108 -1.0677  1.3732
  140SAPE  H20T15299   5.185   0.051   8.393  1.5039  0.5312 -0.8292
  140SAPE   C3315300   5.315   0.546   9.016  0.3506  0.2787  0.1075
  140SAPE   H3X15301   5.267   0.609   8.939 -1.7699  0.0730  1.2013
  140SAPE   H3Y15302   5.337   0.447   8.971 -0.4075 -0.3869  1.1710
  140SAPE   C3415303   5.450   0.620   9.052 -0.3318 -0.0407 -0.6759
  140SAPE   H4X15304   5.508   0.614   8.957 -0.3169 -1.2246 -0.5964
  140SAPE   H4Y15305   5.510   0.567   9.129 -1.4020  0.7222  0.6967
  140SAPE   C3515306   5.438   0.770   9.099  0.3378  0.2077  0.2420
  140SAPE   H5X15307   5.527   0.796   9.160  1.2773  0.0644 -1.0646
  140SAPE   H5Y15308   5.348   0.776   9.164 -0.8467 -2.2588 -1.0698
  140SAPE   C3615309   5.429   0.866   8.981 -0.3425 -0.2411 -0.7810
  140SAPE   H6X15310   5.326   0.874   8.941 -0.5876  2.7251  0.2613
  140SAPE   H6Y15311   5.503   0.830   8.906  0.6222 -2.6355  1.2511
  140SAPE   C3715312   5.445   1.014   9.017  0.3653  0.5000 -0.5197
  140SAPE   H7X15313   5.545   1.037   9.060 -0.9101  0.2976  2.7389
  140SAPE   H7Y15314   5.366   1.040   9.091  1.3506  0.3926  0.5766
  140SAPE   C3815315   5.411   1.098   8.887 -0.4277 -0.2657 -0.0552
  140SAPE   H8X15316   5.307   1.093   8.850 -0.3111  0.2096 -0.4468
  140SAPE   H8Y15317   5.477   1.072   8.802  0.6246  0.4131  0.5450
  140SAPE   C3915318   5.457   1.244   8.905 -0.2014  1.0261  0.0455
  140SAPE   H9X15319   5.563   1.236   8.871 -0.8244  0.0576 -1.7477
  140SAPE   H9Y15320   5.445   1.256   9.015 -1.8581 -2.9633  0.3942
  140SAPE  C31015321   5.386   1.344   8.807 -0.2804 -0.1812  0.3250
  140SAPE  H10X15322   5.421   1.447   8.829  2.1080 -0.8488 -0.1359
  140SAPE  H10Y15323   5.279   1.340   8.835 -1.0776 -1.3168 -2.6317
  140SAPE  C31115324   5.408   1.311   8.655  0.0249 -1.0411 -0.4220
  140SAPE  H11X15325   5.360   1.214   8.629 -2.7023  0.2777 -0.4413
  140SAPE  H11Y15326   5.515   1.312   8.624  0.2387 -1.5084  0.2801
  140SAPE  C31215327   5.327   1.416   8.579 -0.0734  0.1661 -0.1563
  140SAPE  H12X15328   5.384   1.510   8.590  2.7227 -1.5836  0.9149
  140SAPE  H12Y15329   5.218   1.421   8.599 -0.3136 -2.3931 -0.5472
  140SAPE  C31315330   5.334   1.385   8.431 -0.2406 -0.0131  0.5748
  140SAPE  H13X15331   5.340   1.274   8.420  1.6267  0.0265  0.9464
  140SAPE  H13Y15332   5.430   1.429   8.395 -0.3605 -0.8353 -0.7867
  140SAPE  C31415333   5.206   1.429   8.360 -0.2315 -0.5627 -1.0034
  140SAPE  H14X15334   5.199   1.538   8.383  1.6584 -0.2817 -1.6620
  140SAPE  H14Y15335   5.123   1.376   8.410 -0.0784 -0.5750 -0.7621
  140SAPE  C31515336   5.207   1.408   8.209 -0.8570 -0.0977  0.2267
  140SAPE  H15X15337   5.251   1.309   8.187 -0.1002  0.7093 -2.0628
  140SAPE  H15Y15338   5.274   1.485   8.166 -1.4392  0.6059  0.5612
  140SAPE  C31615339   5.076   1.412   8.131  0.0518  0.1141 -0.2597
  140SAPE  H16X15340   4.988   1.415   8.200  0.3765  1.4560  0.1248
  140SAPE  H16Y15341   5.081   1.312   8.084  0.9841  0.2582 -0.4709
  140SAPE  C31715342   5.056   1.515   8.022  0.5306 -0.1143  0.8285
  140SAPE  H17X15343   5.148   1.516   7.959  0.4335 -2.1269  0.6024
  140SAPE  H17Y15344   5.052   1.614   8.071 -2.6158  0.5964 -0.7407
  140SAPE  C31815345   4.926   1.502   7.948  1.0405 -0.0169  0.5415
  140SAPE  H18X15346   4.911   1.399   7.909 -1.8532  1.3944 -2.2710
  140SAPE  H18Y15347   4.910   1.574   7.865  1.1847 -1.1619 -0.4986
  140SAPE  H18Z15348   4.842   1.510   8.020  0.7775 -3.0947  0.6072
  141SAPE     N15349   6.702   2.626  10.074 -0.8553 -0.0870 -0.3664
  141SAPE   HN115350   6.644   2.712  10.078  0.6787  0.8973  1.7897
  141SAPE   HN215351   6.751   2.607  10.164 -3.3550 -2.3589  0.6118
  141SAPE   HN315352   6.768   2.640   9.995  2.3001 -2.0212  1.8066
  141SAPE   C1215353   6.602   2.519  10.041  0.2769 -0.1805  0.1603
  141SAPE  H12A15354   6.525   2.511  10.120  0.6776 -2.7686  0.3469
  141SAPE  H12B15355   6.654   2.422  10.025 -1.7447 -1.1451 -0.7623
  141SAPE   C1115356   6.523   2.546   9.903 -0.3665  0.2997 -1.0530
  141SAPE  H11A15357   6.495   2.447   9.862 -4.2291  1.0800 -0.5233
  141SAPE  H11B15358   6.596   2.589   9.831 -0.0384  0.3969 -0.6660
  141SAPE     P15359   6.313   2.658   9.799  0.5972  0.2697  0.3137
  141SAPE   O1315360   6.291   2.523   9.739  0.6575  0.1050 -0.8688
  141SAPE   O1415361   6.194   2.748   9.832  0.7462  0.3107  0.1541
  141SAPE   O1215362   6.405   2.630   9.923  0.4280 -0.0990 -0.4589
  141SAPE   O1115363   6.411   2.743   9.711  0.3959 -0.1563 -0.3576
  141SAPE    C115364   6.419   2.727   9.568  0.0780 -0.2362 -0.6256
  141SAPE    HA15365   6.326   2.694   9.518  0.9280 -0.2516 -2.2555
  141SAPE    HB15366   6.425   2.831   9.528  0.2851  1.7457  4.1871
  141SAPE    C215367   6.545   2.637   9.541  0.2280 -0.6607 -0.7007
  141SAPE    HS15368   6.576   2.598   9.641  1.1160  0.8680 -0.3627
  141SAPE   O2115369   6.648   2.720   9.485 -0.7416  0.3459 -0.3082
  141SAPE   C2115370   6.771   2.674   9.501 -0.1387  0.2188 -0.7743
  141SAPE   O2215371   6.803   2.559   9.534 -0.3144  0.4263 -0.4414
  141SAPE   C2215372   6.877   2.781   9.459  0.8489  0.4919 -0.0962
  141SAPE   H2R15373   6.837   2.876   9.417  1.1645  0.8131  0.3277
  141SAPE   H2S15374   6.938   2.791   9.551 -1.1355  2.5550  1.0440
  141SAPE    C315375   6.513   2.501   9.465  0.4456  0.1589 -0.1474
  141SAPE    HX15376   6.467   2.436   9.542  0.5486  1.9258  1.4359
  141SAPE    HY15377   6.609   2.456   9.433  0.9484  2.0897 -1.4397
  141SAPE   O3115378   6.432   2.514   9.348 -0.2701 -0.0535 -0.3380
  141SAPE   C3115379   6.408   2.393   9.301 -0.9013 -0.8243 -0.3961
  141SAPE   O3215380   6.437   2.285   9.351 -0.0929  0.9254  0.7095
  141SAPE   C3215381   6.349   2.396   9.159  0.6027  0.2003  0.0331
  141SAPE   H2X15382   6.263   2.466   9.159  1.8432  1.7700  1.5901
  141SAPE   H2Y15383   6.310   2.294   9.137  1.2311  0.1825 -1.0601
  141SAPE   C2315384   6.967   2.704   9.359 -0.1399 -0.0642  0.1155
  141SAPE   H3R15385   6.994   2.601   9.389 -0.9370 -0.0162  1.0127
  141SAPE   H3S15386   7.064   2.758   9.363  0.4827 -1.2822  1.8955
  141SAPE   C2415387   6.933   2.707   9.209  0.2132 -0.6529 -0.5939
  141SAPE   H4R15388   6.823   2.698   9.215  0.4625 -3.0467  1.2847
  141SAPE   H4S15389   6.978   2.619   9.158 -0.4863 -0.5746 -1.3657
  141SAPE   C2515390   6.973   2.840   9.144  0.1345  0.5761 -0.0390
  141SAPE   H5R15391   7.067   2.878   9.188  0.0496 -0.8422  1.4229
  141SAPE   C2615392   6.896   2.921   9.070  0.2411  0.6891 -0.9328
  141SAPE   H6R15393   6.941   3.018   9.047  2.5754  0.2632  1.5014
  141SAPE   C2715394   6.761   2.880   9.016  0.6978  0.4127  0.5992
  141SAPE   H7R15395   6.719   2.967   8.960 -1.3095 -1.4171 -0.8116
  141SAPE   H7S15396   6.694   2.851   9.100  0.0729 -0.2417 -0.1143
  141SAPE   C2815397   6.753   2.753   8.933 -0.7997  0.6272 -0.1230
  141SAPE   H8R15398   6.725   2.658   8.980 -1.0758 -0.9898 -3.4207
  141SAPE   C2915399   6.805   2.742   8.802  0.1356 -0.7694  0.4882
  141SAPE   H9R15400   6.786   2.653   8.741  0.8654 -0.6042  0.0201
  141SAPE  C21015401   6.868   2.845   8.716 -0.1023  0.9518 -0.0726
  141SAPE  H10R15402   6.977   2.828   8.704 -0.2494 -1.6625  1.7725
  141SAPE  H10S15403   6.872   2.943   8.767  0.5041 -0.2389  2.2434
  141SAPE  C21115404   6.793   2.874   8.588 -0.4488  0.8864  0.8261
  141SAPE  H11R15405   6.732   2.965   8.576 -2.1029 -0.3914 -0.8317
  141SAPE  C21215406   6.804   2.790   8.479  0.4134 -0.3089 -0.1332
  141SAPE  H12R15407   6.741   2.809   8.390 -1.8478  1.7232  1.8208
  141SAPE  C21315408   6.881   2.664   8.475 -0.0676  0.5045 -0.0358
  141SAPE  H13R15409   6.804   2.588   8.498 -1.5808  2.1508  0.4763
  141SAPE  H13S15410   6.969   2.676   8.543 -0.0677  1.5629 -0.2135
  141SAPE  C21415411   6.933   2.656   8.338  0.2169  0.7327 -0.2927
  141SAPE  H14R15412   7.016   2.725   8.317  0.1209  1.0962  0.5076
  141SAPE  C21515413   6.918   2.555   8.243  0.7064  0.2610  0.0691
  141SAPE  H15R15414   6.963   2.573   8.145  1.9795 -1.1275  0.3839
  141SAPE  C21615415   6.835   2.421   8.269  0.2965 -0.0339 -0.2200
  141SAPE  H16R15416   6.833   2.362   8.175  2.0090 -0.3549 -0.0775
  141SAPE  H16S15417   6.728   2.428   8.296  0.8258  0.8458  1.7362
  141SAPE  C21715418   6.911   2.333   8.367 -0.7293  0.0895  0.1799
  141SAPE  H17R15419   6.847   2.246   8.394  0.0495 -0.6373 -0.2950
  141SAPE  H17S15420   6.925   2.392   8.460 -0.8602  0.3125  0.0597
  141SAPE  C21815421   7.046   2.284   8.316 -0.5622  0.1079  0.3167
  141SAPE  H18R15422   7.118   2.245   8.391 -0.5230 -0.8514 -0.2103
  141SAPE  H18S15423   7.094   2.376   8.277 -0.9967  0.7610  1.3057
  141SAPE  C21915424   7.039   2.180   8.198  0.4714  0.1296 -1.0841
  141SAPE  H19R15425   6.992   2.235   8.113  1.8772  1.2400 -1.1814
  141SAPE  H19S15426   6.988   2.086   8.225  0.2562  0.8434  1.1036
  141SAPE  C22015427   7.184   2.141   8.148  0.0752 -0.6364  0.3927
  141SAPE  H20R15428   7.261   2.109   8.221  1.1929  0.3383 -0.3443
  141SAPE  H20S15429   7.219   2.228   8.089 -1.9596  0.9952  1.5402
  141SAPE  H20T15430   7.170   2.063   8.070 -0.4494  0.7359 -0.9187
  141SAPE   C3315431   6.445   2.444   9.051  0.4673 -0.4687 -0.2088
  141SAPE   H3X15432   6.537   2.381   9.048  0.5947 -0.2897 -0.0949
  141SAPE   H3Y15433   6.472   2.549   9.075  0.2280 -0.7670  1.4344
  141SAPE   C3415434   6.388   2.434   8.905 -0.6428 -0.2164 -0.3405
  141SAPE   H4X15435   6.335   2.530   8.888  0.4737  0.7402  1.4099
  141SAPE   H4Y15436   6.321   2.346   8.891  1.0474 -1.4717 -0.6075
  141SAPE   C3515437   6.499   2.422   8.806 -0.5888 -0.1068  0.7868
  141SAPE   H5X15438   6.515   2.313   8.791 -2.0250 -0.3371  0.8304
  141SAPE   H5Y15439   6.588   2.467   8.856  1.0774 -2.2489 -0.1701
  141SAPE   C3615440   6.453   2.488   8.672  0.1631 -0.4959  0.0398
  141SAPE   H6X15441   6.549   2.499   8.617  0.9255 -0.3317  1.3799
  141SAPE   H6Y15442   6.425   2.594   8.686 -1.9317 -1.0732  0.3753
  141SAPE   C3715443   6.355   2.411   8.595  0.2170  0.1617 -0.5686
  141SAPE   H7X15444   6.258   2.397   8.648  0.2409 -0.0301 -0.5773
  141SAPE   H7Y15445   6.394   2.309   8.577 -0.6162 -0.7084  2.3073
  141SAPE   C3815446   6.315   2.484   8.464 -0.3718 -0.0058  0.0703
  141SAPE   H8X15447   6.375   2.440   8.381  1.3843 -1.0117  1.8141
  141SAPE   H8Y15448   6.342   2.591   8.472 -1.7307  0.2565  1.2677
  141SAPE   C3915449   6.172   2.466   8.427 -0.0675 -0.7510 -0.2017
  141SAPE   H9X15450   6.114   2.533   8.494  1.8859 -1.0598  1.8626
  141SAPE   H9Y15451   6.134   2.364   8.452 -0.8825 -0.8927 -1.9439
  141SAPE  C31015452   6.142   2.515   8.280 -0.4887  0.3588 -0.6308
  141SAPE  H10X15453   6.034   2.497   8.261 -0.2757 -1.8934  0.1097
  141SAPE  H10Y15454   6.200   2.442   8.220 -0.2718 -0.4383  0.5271
  141SAPE  C31115455   6.186   2.664   8.257 -0.2327 -0.4348 -0.7475
  141SAPE  H11X15456   6.294   2.675   8.281 -0.2693 -0.9658 -0.3213
  141SAPE  H11Y15457   6.123   2.734   8.316  1.9685 -0.6245  1.9662
  141SAPE  C31215458   6.190   2.699   8.114 -0.2489  0.2788 -0.0186
  141SAPE  H12X15459   6.086   2.709   8.075 -0.1462 -2.3476 -1.0547
  141SAPE  H12Y15460   6.230   2.614   8.055 -3.0971 -0.1558 -1.4387
  141SAPE  C31315461   6.281   2.823   8.080  0.2752  0.6586  0.4719
  141SAPE  H13X15462   6.385   2.787   8.070  0.0928 -0.6371  2.8617
  141SAPE  H13Y15463   6.268   2.896   8.164 -2.3320 -1.8115  2.3141
  141SAPE  C31415464   6.236   2.910   7.963  0.9498  0.1120 -0.3155
  141SAPE  H14X15465   6.291   3.006   7.967  1.3700 -0.0760 -1.3312
  141SAPE  H14Y15466   6.130   2.942   7.969  1.0445 -0.0666  2.9693
  141SAPE  C31515467   6.256   2.843   7.826 -0.1579 -0.0479 -0.2550
  141SAPE  H15X15468   6.190   2.755   7.814  0.2074 -0.2337 -0.9224
  141SAPE  H15Y15469   6.362   2.812   7.817 -0.7675 -1.7633 -1.7495
  141SAPE  C31615470   6.226   2.945   7.714  0.3809  0.7138  0.0652
  141SAPE  H16X15471   6.284   3.037   7.732  0.1565  1.0748 -1.0192
  141SAPE  H16Y15472   6.120   2.978   7.720 -0.1461 -0.8924 -0.0942
  141SAPE  C31715473   6.259   2.891   7.573 -0.4259  0.6814 -0.0078
  141SAPE  H17X15474   6.356   2.837   7.572 -0.7725  0.0527  0.0628
  141SAPE  H17Y15475   6.279   2.977   7.505  1.1084  1.5196  1.4528
  141SAPE  C31815476   6.152   2.805   7.505  0.1863 -0.0674 -0.0164
  141SAPE  H18X15477   6.062   2.863   7.474 -0.5665 -1.5894 -0.7852
  141SAPE  H18Y15478   6.108   2.728   7.573  0.6848 -0.1185  0.2452
  141SAPE  H18Z15479   6.189   2.742   7.422  0.7116  0.5118 -0.2191
  142SAPE     N15480   6.558   1.640  10.047  0.1572  0.4801 -0.5545
  142SAPE   HN115481   6.492   1.561  10.033  0.7730 -0.2448  0.5783
  142SAPE   HN215482   6.638   1.611   9.988  0.6711 -1.6928  1.1573
  142SAPE   HN315483   6.594   1.638  10.145  0.5797  0.0977 -0.7143
  142SAPE   C1215484   6.495   1.770  10.011  0.4074  0.4131  0.1283
  142SAPE  H12A15485   6.568   1.849  10.038  0.3302  0.9304 -1.1171
  142SAPE  H12B15486   6.404   1.792  10.071 -1.1069 -0.5617 -1.7684
  142SAPE   C1115487   6.477   1.781   9.850 -0.4072  0.2090 -0.2607
  142SAPE  H11A15488   6.562   1.839   9.809 -0.9623  0.3229 -1.2449
  142SAPE  H11B15489   6.390   1.849   9.837  0.3455  0.5764 -3.6971
  142SAPE     P15490   6.355   1.623   9.687  0.3655 -0.2782  0.3581
  142SAPE   O1315491   6.372   1.485   9.637  0.0979  0.2479  0.1085
  142SAPE   O1415492   6.224   1.677   9.731  0.7014  0.8086 -0.1839
  142SAPE   O1215493   6.462   1.648   9.798 -0.3376 -0.1296 -0.2127
  142SAPE   O1115494   6.395   1.707   9.561 -0.0982 -0.9974  0.4308
  142SAPE    C115495   6.529   1.749   9.530  0.1190  0.5525  0.2087
  142SAPE    HA15496   6.527   1.860   9.534 -4.1713  0.4950  2.2066
  142SAPE    HB15497   6.602   1.705   9.601 -0.6295 -0.1706  0.5390
  142SAPE    C215498   6.570   1.701   9.385  0.1997 -0.8183  0.2284
  142SAPE    HS15499   6.675   1.733   9.366  1.3753 -3.4316  2.0107
  142SAPE   O2115500   6.490   1.743   9.278 -0.7862  0.0547 -0.3740
  142SAPE   C2115501   6.498   1.867   9.248 -0.2739 -0.7836  0.4572
  142SAPE   O2215502   6.569   1.949   9.309 -0.1550  0.5828  0.1301
  142SAPE   C2215503   6.406   1.892   9.126 -0.3529 -0.3744 -0.1915
  142SAPE   H2R15504   6.428   1.807   9.059  1.1660 -0.0444 -0.1203
  142SAPE   H2S15505   6.296   1.885   9.144 -0.1648 -0.9504  0.7904
  142SAPE    C315506   6.577   1.547   9.382 -0.2378  0.1934 -0.1338
  142SAPE    HX15507   6.473   1.510   9.389  0.3404 -1.4438  0.2069
  142SAPE    HY15508   6.630   1.511   9.473  0.3596  0.5250 -0.3493
  142SAPE   O3115509   6.661   1.501   9.277  0.0324 -0.1092 -0.3294
  142SAPE   C3115510   6.641   1.379   9.234  0.0485  0.5377 -0.3790
  142SAPE   O3215511   6.558   1.307   9.276 -0.1121 -0.0615 -0.6886
  142SAPE   C3215512   6.731   1.348   9.112  0.7409 -0.1133 -0.7142
  142SAPE   H2X15513   6.760   1.242   9.127  0.0262 -0.2196 -0.0691
  142SAPE   H2Y15514   6.819   1.417   9.112 -0.1207  1.0111 -0.7167
  142SAPE   C2315515   6.433   2.025   9.059  0.8675  0.1667  0.0221
  142SAPE   H3R15516   6.524   2.083   9.088  0.6594  0.5009  0.0006
  142SAPE   H3S15517   6.337   2.081   9.063  1.3883  1.0507  0.2840
  142SAPE   C2415518   6.449   2.004   8.902  0.1042 -0.4130  0.2872
  142SAPE   H4R15519   6.535   1.933   8.894  0.1624 -0.2326 -0.6967
  142SAPE   H4S15520   6.481   2.098   8.854 -1.8408 -0.1095 -0.4490
  142SAPE   C2515521   6.318   1.946   8.841 -0.5420  0.1138 -0.3359
  142SAPE   H5R15522   6.242   1.901   8.906  0.0127 -2.7447 -1.5670
  142SAPE   C2615523   6.280   1.952   8.713 -0.3741  0.0631  0.8847
  142SAPE   H6R15524   6.181   1.909   8.690  0.0754 -0.9099  0.7376
  142SAPE   C2715525   6.353   2.020   8.604 -0.2940  0.0185 -0.1351
  142SAPE   H7R15526   6.452   2.053   8.642 -1.8874  2.2636  2.2742
  142SAPE   H7S15527   6.304   2.113   8.567  2.7294  0.9218 -2.0825
  142SAPE   C2815528   6.382   1.928   8.488 -0.4669  0.4496  0.4328
  142SAPE   H8R15529   6.372   1.823   8.518  0.1579 -0.0170 -0.9583
  142SAPE   C2915530   6.407   1.967   8.362 -0.5291  0.1039  0.3343
  142SAPE   H9R15531   6.408   1.887   8.287  1.5538  0.6179 -0.2273
  142SAPE  C21015532   6.421   2.104   8.297  0.1688  0.0774 -0.2113
  142SAPE  H10R15533   6.519   2.105   8.244  0.1022  3.1099 -0.3483
  142SAPE  H10S15534   6.433   2.170   8.386 -0.9080  0.9974 -0.7326
  142SAPE  C21115535   6.310   2.148   8.202  0.2508  0.1455 -0.0568
  142SAPE  H11R15536   6.207   2.152   8.242  0.1338  3.1488 -0.5334
  142SAPE  C21215537   6.321   2.164   8.069 -0.4953 -0.2538  0.5383
  142SAPE  H12R15538   6.234   2.208   8.018 -1.5343 -0.3165  2.2077
  142SAPE  C21315539   6.450   2.147   7.988 -0.2329  0.0069  0.1535
  142SAPE  H13R15540   6.427   2.159   7.880 -1.4996  0.6025  0.4768
  142SAPE  H13S15541   6.490   2.045   8.005 -2.6837 -0.8514  0.9022
  142SAPE  C21415542   6.545   2.256   8.026 -0.1406 -0.0861 -0.0033
  142SAPE  H14R15543   6.613   2.224   8.107 -2.3354 -0.8721  1.5694
  142SAPE  C21515544   6.542   2.378   7.974 -0.4133 -0.4062 -0.0315
  142SAPE  H15R15545   6.613   2.451   8.017  0.0083 -0.8648  0.0499
  142SAPE  C21615546   6.445   2.431   7.868  0.2784 -0.6604  0.8967
  142SAPE  H16R15547   6.441   2.540   7.884  1.2088 -0.6835  1.3019
  142SAPE  H16S15548   6.340   2.399   7.884 -0.2410  0.5270 -0.0432
  142SAPE  C21715549   6.480   2.415   7.723  0.3905  0.3398  0.3530
  142SAPE  H17R15550   6.488   2.305   7.705  1.0461  0.4003  0.2531
  142SAPE  H17S15551   6.587   2.433   7.700  0.4117 -0.2830 -0.0696
  142SAPE  C21815552   6.383   2.486   7.627 -0.4868  0.3455  0.2708
  142SAPE  H18R15553   6.379   2.596   7.639  0.1689  0.3039  0.9255
  142SAPE  H18S15554   6.276   2.463   7.650 -0.8843  1.1031 -0.8249
  142SAPE  C21915555   6.396   2.442   7.480 -0.2263 -0.1708  0.1108
  142SAPE  H19R15556   6.352   2.525   7.420 -0.4347  0.8732  1.6812
  142SAPE  H19S15557   6.338   2.353   7.449  0.7220 -0.1519 -1.8275
  142SAPE  C22015558   6.541   2.431   7.428  0.2621  0.0801 -0.5273
  142SAPE  H20R15559   6.598   2.516   7.470  0.8761 -1.2106  1.2965
  142SAPE  H20S15560   6.539   2.436   7.317  2.4875 -0.6782 -0.6232
  142SAPE  H20T15561   6.591   2.336   7.455 -1.0989 -1.1614 -2.2761
  142SAPE   C3315562   6.664   1.358   8.966  0.2554 -0.9429 -0.3214
  142SAPE   H3X15563   6.632   1.464   8.957 -0.2468 -1.0487  0.1885
  142SAPE   H3Y15564   6.576   1.292   8.956 -1.7961  1.5980  0.3630
  142SAPE   C3415565   6.776   1.318   8.866 -0.0973  0.7786  0.1413
  142SAPE   H4X15566   6.792   1.209   8.875 -1.0833  0.4298 -1.9375
  142SAPE   H4Y15567   6.869   1.378   8.874  0.6998 -0.0443 -2.4087
  142SAPE   C3515568   6.732   1.341   8.722  0.2698 -0.4327 -0.1836
  142SAPE   H5X15569   6.721   1.448   8.691  1.1101 -0.0026  0.9745
  142SAPE   H5Y15570   6.632   1.299   8.696 -0.0986 -0.4364  1.2182
  142SAPE   C3615571   6.831   1.272   8.634  0.6161 -0.1539  0.1903
  142SAPE   H6X15572   6.837   1.161   8.642  2.7204 -0.1714 -1.3041
  142SAPE   H6Y15573   6.935   1.300   8.661  0.3434  0.7891  0.2868
  142SAPE   C3715574   6.810   1.309   8.483 -0.1136  0.1088 -1.1898
  142SAPE   H7X15575   6.814   1.418   8.463 -1.8534  0.0643 -1.9058
  142SAPE   H7Y15576   6.708   1.273   8.457 -1.0570  1.2930  0.7810
  142SAPE   C3815577   6.906   1.246   8.381  0.2426  0.8390 -0.4777
  142SAPE   H8X15578   6.913   1.136   8.394  0.0294  0.5832 -2.3881
  142SAPE   H8Y15579   7.011   1.277   8.399 -0.0311 -0.6255  4.5951
  142SAPE   C3915580   6.848   1.266   8.234 -0.4637 -0.3566  0.1314
  142SAPE   H9X15581   6.867   1.373   8.208  2.0481 -0.4672  1.3946
  142SAPE   H9Y15582   6.740   1.243   8.243 -0.1962 -1.3169  0.9335
  142SAPE  C31015583   6.924   1.192   8.128  0.3253  0.0532  0.0757
  142SAPE  H10X15584   6.900   1.084   8.140  0.9352 -0.1902 -0.8070
  142SAPE  H10Y15585   7.033   1.203   8.144  0.5020 -1.8735  0.3636
  142SAPE  C31115586   6.899   1.237   7.981 -0.2017 -0.1222  1.0502
  142SAPE  H11X15587   6.885   1.348   7.986  1.5545  0.1728 -0.2076
  142SAPE  H11Y15588   6.805   1.198   7.938 -0.2959 -1.3242  2.3109
  142SAPE  C31215589   7.019   1.213   7.891 -0.3038  0.4517 -0.0204
  142SAPE  H12X15590   7.036   1.106   7.870  0.4607  0.9377 -2.0814
  142SAPE  H12Y15591   7.115   1.251   7.931  0.4953 -1.8960  0.3475
  142SAPE  C31315592   7.002   1.282   7.751 -0.4496  1.0025  0.6976
  142SAPE  H13X15593   6.955   1.214   7.677 -0.9382 -0.9339  2.7254
  142SAPE  H13Y15594   7.108   1.295   7.720 -0.5921  0.8891  0.1595
  142SAPE  C31415595   6.934   1.423   7.749  0.3748 -0.2002  0.6130
  142SAPE  H14X15596   6.996   1.489   7.813 -0.9793  1.9074 -0.1911
  142SAPE  H14Y15597   6.838   1.407   7.802  0.5962  1.5264  1.5846
  142SAPE  C31515598   6.911   1.480   7.612 -0.2957 -0.0454 -0.1231
  142SAPE  H15X15599   7.008   1.513   7.569 -0.2182  1.9508  1.5427
  142SAPE  H15Y15600   6.845   1.567   7.630  2.4071  2.0443 -0.0534
  142SAPE  C31615601   6.836   1.380   7.519  0.7963  1.0558 -0.5249
  142SAPE  H16X15602   6.748   1.350   7.579  1.1672  0.2712 -0.3757
  142SAPE  H16Y15603   6.896   1.294   7.485 -1.8456 -1.0614  0.0210
  142SAPE  C31715604   6.781   1.454   7.391  0.5311 -0.4798 -0.1787
  142SAPE  H17X15605   6.723   1.380   7.332 -1.5161  0.8682  0.0584
  142SAPE  H17Y15606   6.873   1.491   7.342 -0.4833  1.1984 -0.8978
  142SAPE  C31815607   6.689   1.573   7.432  0.3871 -0.4438  0.1881
  142SAPE  H18X15608   6.744   1.655   7.484 -0.0380  0.9147 -1.4751
  142SAPE  H18Y15609   6.615   1.537   7.507  0.4907  2.0819  1.5825
  142SAPE  H18Z15610   6.633   1.603   7.341  1.0584 -0.4897 -0.2429
  143SAPE     N15611   1.570   1.050   9.961  0.2655 -0.3228 -0.2837
  143SAPE   HN115612   1.527   0.960   9.991  0.5108 -0.1565  0.6065
  143SAPE   HN215613   1.619   1.023   9.873 -0.3643 -3.7539  0.3305
  143SAPE   HN315614   1.640   1.082  10.032 -0.2601 -0.6452  0.3836
  143SAPE   C1215615   1.487   1.167   9.937  0.9494 -0.4419  0.1961
  143SAPE  H12A15616   1.530   1.263   9.971 -1.8354 -0.5325  4.3168
  143SAPE  H12B15617   1.398   1.152  10.001  1.1772  0.8463  0.8354
  143SAPE   C1115618   1.449   1.174   9.782 -0.9202 -0.1742  0.2753
  143SAPE  H11A15619   1.544   1.176   9.723 -0.3459  0.6019  1.1994
  143SAPE  H11B15620   1.394   1.267   9.756  0.2847 -0.3146 -2.9534
  143SAPE     P15621   1.221   1.041   9.744  0.0737  0.1548 -0.2282
  143SAPE   O1315622   1.190   0.897   9.732 -0.0244 -0.4240  0.0714
  143SAPE   O1415623   1.159   1.106   9.862  0.3579 -0.3385  0.5898
  143SAPE   O1215624   1.379   1.057   9.754 -0.1192 -0.0958  0.2720
  143SAPE   O1115625   1.178   1.120   9.605  0.1412  0.2447  0.1454
  143SAPE    C115626   1.242   1.096   9.481  0.0496  0.4349  0.2512
  143SAPE    HA15627   1.228   1.181   9.411 -0.8154  0.7328  0.7761
  143SAPE    HB15628   1.350   1.079   9.498 -0.3864 -0.5337  2.1426
  143SAPE    C215629   1.168   0.980   9.406  0.2498  0.2161  0.1472
  143SAPE    HS15630   1.172   0.897   9.480 -0.4591  1.5395  1.6806
  143SAPE   O2115631   1.240   0.940   9.286  0.1864  0.5317 -0.1582
  143SAPE   C2115632   1.215   0.820   9.244  0.8085 -0.0763  0.1626
  143SAPE   O2215633   1.137   0.746   9.305  0.6027 -0.2447 -0.5938
  143SAPE   C2215634   1.286   0.788   9.113 -0.7794  0.3585  0.3952
  143SAPE   H2R15635   1.230   0.832   9.028 -1.2678 -0.6480  0.1940
  143SAPE   H2S15636   1.389   0.822   9.135 -0.2802 -2.6859  3.1304
  143SAPE    C315637   1.020   1.022   9.378 -0.1834 -0.0184 -0.1820
  143SAPE    HX15638   0.964   1.064   9.465 -1.9064 -0.9901 -0.7895
  143SAPE    HY15639   0.957   0.934   9.353  2.0287 -1.2117 -1.7603
  143SAPE   O3115640   1.017   1.121   9.276 -0.6444 -0.4164 -0.4739
  143SAPE   C3115641   0.899   1.189   9.257  0.6561 -0.4478 -0.4851
  143SAPE   O3215642   0.802   1.168   9.328 -1.0272  0.2215 -0.2698
  143SAPE   C3215643   0.909   1.273   9.136 -0.0101 -0.3873  0.5492
  143SAPE   H2X15644   0.993   1.239   9.072  0.2078  0.5619  0.3235
  143SAPE   H2Y15645   0.948   1.372   9.170  0.6401 -0.1125 -0.9648
  143SAPE   C2315646   1.291   0.630   9.099 -0.3177 -0.4702  0.1569
  143SAPE   H3R15647   1.184   0.602   9.095 -0.4414 -0.2711  1.6367
  143SAPE   H3S15648   1.336   0.598   9.195 -2.3281  0.7899  1.5614
  143SAPE   C2415649   1.371   0.561   8.986  0.1849 -0.6462 -0.0052
  143SAPE   H4R15650   1.320   0.577   8.888 -0.9892  1.7612  0.9654
  143SAPE   H4S15651   1.374   0.452   9.004 -0.2037 -0.9419 -1.5863
  143SAPE   C2515652   1.522   0.611   8.974 -0.7233  1.1601 -0.6584
  143SAPE   H5R15653   1.600   0.581   9.045 -0.1316  0.9784 -1.3774
  143SAPE   C2615654   1.574   0.683   8.874  0.1204 -0.0601 -0.0138
  143SAPE   H6R15655   1.677   0.718   8.890  1.0092 -2.0092 -1.2754
  143SAPE   C2715656   1.504   0.737   8.746 -0.1995 -0.1408 -0.0500
  143SAPE   H7R15657   1.399   0.703   8.729 -0.0604 -0.9191  0.6343
  143SAPE   H7S15658   1.564   0.698   8.661 -1.0147 -1.3350 -0.1033
  143SAPE   C2815659   1.508   0.888   8.727 -0.8528 -0.0292  0.9832
  143SAPE   H8R15660   1.495   0.945   8.820 -1.6475 -1.0013  1.4768
  143SAPE   C2915661   1.537   0.958   8.617  1.0576  0.7915 -0.1137
  143SAPE   H9R15662   1.532   1.067   8.634 -2.6360  0.4352  1.6217
  143SAPE  C21015663   1.563   0.903   8.477  0.0500 -0.3441  0.3122
  143SAPE  H10R15664   1.536   0.988   8.411  1.2396  3.1323  4.0794
  143SAPE  H10S15665   1.488   0.822   8.461 -0.2322 -0.7025  3.1344
  143SAPE  C21115666   1.706   0.858   8.439 -0.6351 -0.5727  0.4542
  143SAPE  H11R15667   1.788   0.892   8.505 -0.4960  3.3004 -1.5928
  143SAPE  C21215668   1.726   0.759   8.352  0.1109 -0.5976  0.5974
  143SAPE  H12R15669   1.828   0.718   8.347 -0.1592 -1.2807  0.6586
  143SAPE  C21315670   1.634   0.687   8.263  0.0392 -0.7660 -0.2840
  143SAPE  H13R15671   1.545   0.650   8.319  0.0577  0.7674  0.7881
  143SAPE  H13S15672   1.697   0.600   8.234 -2.1055 -1.2797 -3.5961
  143SAPE  C21415673   1.597   0.772   8.144  0.6675  0.1647 -0.4362
  143SAPE  H14R15674   1.650   0.869   8.141  1.1453  0.0278  2.2654
  143SAPE  C21515675   1.501   0.749   8.055 -1.1410 -0.5719 -0.0651
  143SAPE  H15R15676   1.483   0.815   7.969  0.4701  0.7586  0.5822
  143SAPE  C21615677   1.408   0.637   8.070  0.8567  1.0118  0.0521
  143SAPE  H16R15678   1.312   0.665   8.119  0.9051 -1.0719  1.4381
  143SAPE  H16S15679   1.449   0.566   8.145 -1.4876  0.9833  1.3606
  143SAPE  C21715680   1.386   0.563   7.937  0.2210 -0.1352  0.6467
  143SAPE  H17R15681   1.323   0.476   7.966  0.6662 -0.8610 -0.5330
  143SAPE  H17S15682   1.478   0.513   7.901 -1.4929 -2.1816 -1.0856
  143SAPE  C21815683   1.304   0.639   7.820 -0.4454  0.3021  0.0909
  143SAPE  H18R15684   1.366   0.728   7.796  0.8547  0.0493  2.4407
  143SAPE  H18S15685   1.204   0.662   7.861 -0.1558  0.5467  0.6659
  143SAPE  C21915686   1.278   0.561   7.684  0.0330  0.1274  0.1604
  143SAPE  H19R15687   1.364   0.580   7.616  1.4419 -0.7584  1.6718
  143SAPE  H19S15688   1.194   0.610   7.631  0.0431  1.7744  1.5912
  143SAPE  C22015689   1.261   0.409   7.708 -0.4382 -0.0155  0.0413
  143SAPE  H20R15690   1.243   0.351   7.615  0.9392 -0.4078 -0.0006
  143SAPE  H20S15691   1.173   0.394   7.774  0.3562  1.9667  1.5862
  143SAPE  H20T15692   1.351   0.378   7.764  0.5730  3.4026  0.4186
  143SAPE   C3315693   0.783   1.291   9.061 -0.4169  0.3293 -0.9386
  143SAPE   H3X15694   0.708   1.318   9.139  0.9826 -2.8285  1.6163
  143SAPE   H3Y15695   0.754   1.196   9.011 -0.2130 -0.6682  0.7983
  143SAPE   C3415696   0.796   1.402   8.953  0.0164  0.2208 -0.7668
  143SAPE   H4X15697   0.904   1.421   8.935  0.6231 -1.6761  0.7574
  143SAPE   H4Y15698   0.755   1.495   8.998  1.9804  0.0259  1.5032
  143SAPE   C3515699   0.736   1.349   8.819 -0.1818 -0.1455 -0.0435
  143SAPE   H5X15700   0.629   1.324   8.833 -0.0768  0.0259  1.1624
  143SAPE   H5Y15701   0.782   1.251   8.793 -0.6933 -0.2409 -0.5971
  143SAPE   C3615702   0.770   1.444   8.705 -0.0557 -0.6322 -0.3753
  143SAPE   H6X15703   0.878   1.459   8.686  0.3268 -2.0524  0.6330
  143SAPE   H6Y15704   0.719   1.538   8.735 -0.2917 -0.3615 -1.6157
  143SAPE   C3715705   0.708   1.410   8.571  0.0999 -0.5843  0.1975
  143SAPE   H7X15706   0.604   1.373   8.588  0.0001 -0.2358  0.3382
  143SAPE   H7Y15707   0.768   1.320   8.543  0.2487 -0.2916 -0.4283
  143SAPE   C3815708   0.712   1.526   8.469  0.8882  0.0734 -0.2994
  143SAPE   H8X15709   0.669   1.615   8.519 -2.5941 -1.4629 -0.4093
  143SAPE   H8Y15710   0.635   1.504   8.391 -1.7524 -0.1514  2.3125
  143SAPE   C3915711   0.853   1.543   8.420  0.8552  0.0611 -0.0402
  143SAPE   H9X15712   0.911   1.584   8.506  0.8905  3.4940 -1.6364
  143SAPE   H9Y15713   0.848   1.607   8.330 -3.1026 -1.5921 -1.0887
  143SAPE  C31015714   0.923   1.417   8.368  0.0152 -0.0596  0.0339
  143SAPE  H10X15715   0.861   1.350   8.305 -1.0934 -2.5932  3.6941
  143SAPE  H10Y15716   0.943   1.351   8.455  1.3688  1.0229  0.5531
  143SAPE  C31115717   1.070   1.440   8.301  0.0054  0.2250  0.0620
  143SAPE  H11X15718   1.121   1.491   8.385  0.1596  1.3783 -0.7263
  143SAPE  H11Y15719   1.057   1.517   8.222  1.0524  0.1719 -0.1665
  143SAPE  C31215720   1.144   1.317   8.262  0.0993 -0.5577  0.0920
  143SAPE  H12X15721   1.081   1.274   8.181  0.0228 -0.2761 -0.0002
  143SAPE  H12Y15722   1.158   1.244   8.344  0.6397  0.5713  1.0167
  143SAPE  C31315723   1.282   1.366   8.214 -1.2600  0.2664 -0.4358
  143SAPE  H13X15724   1.270   1.468   8.174  0.6187 -0.0036 -1.7065
  143SAPE  H13Y15725   1.314   1.290   8.140  0.0761  0.8007 -0.4094
  143SAPE  C31415726   1.382   1.364   8.339 -0.0880  0.1718 -0.4813
  143SAPE  H14X15727   1.376   1.270   8.397  2.0026  0.3879  0.1246
  143SAPE  H14Y15728   1.361   1.461   8.388 -1.5751  0.8838 -2.4378
  143SAPE  C31515729   1.529   1.381   8.288 -0.3314 -0.0983  0.4352
  143SAPE  H15X15730   1.522   1.474   8.227  0.7052 -2.5760 -3.6948
  143SAPE  H15Y15731   1.553   1.288   8.232  0.8200 -0.2381  1.1562
  143SAPE  C31615732   1.636   1.408   8.393  0.7320  0.4338 -0.6871
  143SAPE  H16X15733   1.600   1.490   8.459 -0.3111 -1.2455  0.8774
  143SAPE  H16Y15734   1.725   1.456   8.347  2.6789 -1.4466  1.0331
  143SAPE  C31715735   1.652   1.280   8.482  0.3379 -0.4674 -0.2715
  143SAPE  H17X15736   1.688   1.204   8.409  2.0086  0.3572 -0.3313
  143SAPE  H17Y15737   1.556   1.257   8.532 -0.0953  2.3249  0.2927
  143SAPE  C31815738   1.764   1.292   8.589 -0.3788  0.0845  0.6288
  143SAPE  H18X15739   1.737   1.361   8.672 -2.4691 -0.9125  0.8159
  143SAPE  H18Y15740   1.858   1.337   8.551 -0.9167  1.8819  1.3681
  143SAPE  H18Z15741   1.785   1.196   8.641  0.0693  0.0013  0.2918
  144SAPE     N15742   4.871   0.271   9.766  1.0135 -0.2518 -0.5779
  144SAPE   HN115743   4.907   0.350   9.709 -1.5724  0.6507 -0.9919
  144SAPE   HN215744   4.956   0.229   9.809 -1.2682 -1.6347  2.7343
  144SAPE   HN315745   4.833   0.205   9.695 -2.7099  1.1742  0.0057
  144SAPE   C1215746   4.778   0.311   9.870 -0.5362 -0.7432 -0.3275
  144SAPE  H12A15747   4.837   0.349   9.957 -0.2202 -2.0240  0.0307
  144SAPE  H12B15748   4.715   0.224   9.896 -1.1167 -0.6933 -1.5393
  144SAPE   C1115749   4.690   0.426   9.807  0.1393  0.2003  0.5587
  144SAPE  H11A15750   4.620   0.464   9.884 -0.3977  0.4749 -0.0712
  144SAPE  H11B15751   4.618   0.373   9.741 -0.8082  0.7224  1.1712
  144SAPE     P15752   4.791   0.666   9.788 -0.1676 -0.1616 -0.0427
  144SAPE   O1315753   4.790   0.664   9.934 -0.0233  0.5528 -1.0140
  144SAPE   O1415754   4.923   0.719   9.735  0.6309 -0.1634 -1.1550
  144SAPE   O1215755   4.766   0.522   9.726  0.2985 -0.5130  0.2179
  144SAPE   O1115756   4.671   0.751   9.734  0.4047 -0.1602  0.5388
  144SAPE    C115757   4.543   0.714   9.681 -0.3497  0.5769 -0.0414
  144SAPE    HA15758   4.500   0.624   9.730  1.4909  0.2172  0.9501
  144SAPE    HB15759   4.475   0.800   9.702  0.1420  0.7482  0.8862
  144SAPE    C215760   4.551   0.693   9.526  0.0659 -0.3052  0.3432
  144SAPE    HS15761   4.604   0.596   9.513  0.5310 -0.4064  2.8724
  144SAPE   O2115762   4.636   0.787   9.468  1.3231  0.1395 -0.6850
  144SAPE   C2115763   4.605   0.916   9.467 -0.4089 -0.0867  0.0223
  144SAPE   O2215764   4.507   0.964   9.523  0.4931  0.1679 -0.7427
  144SAPE   C2215765   4.696   1.002   9.375  0.2783 -0.6371  0.1957
  144SAPE   H2R15766   4.635   1.051   9.296  1.0880 -1.2888 -0.8365
  144SAPE   H2S15767   4.713   1.091   9.439  1.9300  0.6799 -2.0103
  144SAPE    C315768   4.409   0.675   9.463 -0.3723  0.5718 -0.0605
  144SAPE    HX15769   4.357   0.773   9.457  0.4065  0.8970 -1.4598
  144SAPE    HY15770   4.360   0.606   9.536  0.6084 -1.7143 -1.5019
  144SAPE   O3115771   4.418   0.614   9.338  0.0665 -0.0848  0.0395
  144SAPE   C3115772   4.431   0.693   9.236  0.1090  0.1041  0.0177
  144SAPE   O3215773   4.443   0.813   9.237 -0.1592 -0.5107  0.3466
  144SAPE   C3215774   4.429   0.616   9.105  0.2503 -0.9229 -0.0300
  144SAPE   H2X15775   4.320   0.619   9.081 -0.0278 -1.3153  1.1517
  144SAPE   H2Y15776   4.462   0.511   9.124  1.6014 -0.1909  1.7184
  144SAPE   C2315777   4.828   0.952   9.318  0.4251  0.1349 -0.4965
  144SAPE   H3R15778   4.800   0.877   9.242  3.0540  1.0225 -2.4154
  144SAPE   H3S15779   4.893   0.909   9.397 -0.4537  0.2028  0.2742
  144SAPE   C2415780   4.891   1.060   9.228 -0.5354 -0.3646  0.2315
  144SAPE   H4R15781   4.916   1.143   9.297  0.3019 -0.2983 -0.1379
  144SAPE   H4S15782   4.813   1.085   9.153 -1.1339 -0.1204  0.9277
  144SAPE   C2515783   5.024   1.007   9.169 -0.4128 -0.1525  1.1373
  144SAPE   H5R15784   5.108   0.986   9.237  0.4537  1.8910  0.7252
  144SAPE   C2615785   5.047   1.006   9.034  0.1473  0.4435  0.3549
  144SAPE   H6R15786   5.137   0.953   8.998  0.7671  0.4252  1.8984
  144SAPE   C2715787   4.964   1.071   8.927  0.7923  0.2731  0.0642
  144SAPE   H7R15788   4.908   1.158   8.967 -0.8106 -0.5897 -0.2490
  144SAPE   H7S15789   4.889   0.995   8.895  1.9218 -0.2918 -1.2837
  144SAPE   C2815790   5.034   1.130   8.807  0.2976 -0.3963  0.2189
  144SAPE   H8R15791   5.032   1.240   8.801  1.4376 -0.3464  0.6967
  144SAPE   C2915792   5.110   1.067   8.713 -0.2988  0.5305 -0.0314
  144SAPE   H9R15793   5.169   1.123   8.638  1.8032 -0.2886  0.9619
  144SAPE  C21015794   5.141   0.918   8.719 -1.1424 -0.2626  0.6133
  144SAPE  H10R15795   5.049   0.857   8.724 -2.9377  2.4800  2.6437
  144SAPE  H10S15796   5.187   0.901   8.818 -0.8855 -0.1401  0.5171
  144SAPE  C21115797   5.234   0.854   8.614  0.0724  0.0732 -0.2279
  144SAPE  H11R15798   5.297   0.930   8.565  2.8111 -1.4983  0.7385
  144SAPE  C21215799   5.241   0.720   8.592 -0.1271 -0.4048 -0.7839
  144SAPE  H12R15800   5.312   0.689   8.514 -0.5913  1.1145 -1.8178
  144SAPE  C21315801   5.172   0.598   8.651  0.3225  0.3894 -0.9704
  144SAPE  H13R15802   5.087   0.633   8.714  0.1729  0.4782 -1.2203
  144SAPE  H13S15803   5.235   0.527   8.710  0.8779 -0.8799 -3.0556
  144SAPE  C21415804   5.120   0.506   8.546 -0.0693 -0.4080  0.0143
  144SAPE  H14R15805   5.171   0.511   8.448 -2.4598 -1.5195 -1.3275
  144SAPE  C21515806   5.026   0.411   8.563  0.1265  0.4333  0.1434
  144SAPE  H15R15807   4.999   0.338   8.485 -0.0199 -0.2800  0.8632
  144SAPE  C21615808   4.963   0.388   8.693  1.0300 -0.9259 -0.2765
  144SAPE  H16R15809   4.857   0.361   8.674  0.5507 -0.4786  1.6827
  144SAPE  H16S15810   4.948   0.483   8.747 -2.6259 -1.0286 -0.9810
  144SAPE  C21715811   5.029   0.292   8.774  0.1871 -0.1850  0.1919
  144SAPE  H17R15812   5.135   0.325   8.779 -0.2914  1.8253 -2.2263
  144SAPE  H17S15813   5.022   0.195   8.721 -0.1298 -0.9886  1.6662
  144SAPE  C21815814   4.968   0.270   8.917 -0.0513  1.4144  0.2748
  144SAPE  H18R15815   4.870   0.222   8.894  0.7634 -0.2233  0.1259
  144SAPE  H18S15816   4.959   0.365   8.973  0.6800  2.0334 -0.6456
  144SAPE  C21915817   5.042   0.154   8.983 -0.3393 -0.4340  0.2086
  144SAPE  H19R15818   5.148   0.176   9.010  0.0653 -2.3458  0.2521
  144SAPE  H19S15819   5.048   0.072   8.908  0.2054 -0.5270  0.3527
  144SAPE  C22015820   4.969   0.104   9.104 -0.2520  0.0051  1.3018
  144SAPE  H20R15821   4.946   0.194   9.166 -0.9422  0.3713  0.5178
  144SAPE  H20S15822   5.028   0.030   9.162  0.6402 -2.3111 -2.4515
  144SAPE  H20T15823   4.872   0.059   9.074 -0.0684 -0.2551  1.0995
  144SAPE   C3315824   4.501   0.682   8.994 -0.8128  0.1614  0.6288
  144SAPE   H3X15825   4.493   0.793   8.994  3.2497  0.5553 -0.4576
  144SAPE   H3Y15826   4.454   0.656   8.897  0.4317  0.0697  0.0404
  144SAPE   C3415827   4.653   0.650   8.993  0.9448  0.1043  0.0717
  144SAPE   H4X15828   4.659   0.539   8.995 -0.7475  0.0068  2.4492
  144SAPE   H4Y15829   4.697   0.701   9.081 -0.7538  1.6214  0.0671
  144SAPE   C3515830   4.717   0.700   8.863  0.3107 -0.4527 -0.2833
  144SAPE   H5X15831   4.827   0.700   8.872  0.4473 -0.9071 -1.8443
  144SAPE   H5Y15832   4.674   0.802   8.849  0.9335 -0.2800 -0.9793
  144SAPE   C3615833   4.685   0.630   8.733 -0.0852  0.8909  0.2435
  144SAPE   H6X15834   4.576   0.609   8.723 -0.1842  1.4028  0.2551
  144SAPE   H6Y15835   4.738   0.533   8.727 -1.7562  0.0329 -1.0156
  144SAPE   C3715836   4.726   0.726   8.621 -0.3662  0.4646 -0.4152
  144SAPE   H7X15837   4.823   0.773   8.646  0.3739 -0.2951 -1.8413
  144SAPE   H7Y15838   4.645   0.802   8.620 -0.1617  0.7134  0.6190
  144SAPE   C3815839   4.751   0.660   8.487 -0.2329 -0.3579 -0.2035
  144SAPE   H8X15840   4.655   0.625   8.446 -0.0694 -0.0501 -0.8535
  144SAPE   H8Y15841   4.810   0.567   8.505 -0.0755 -0.3059 -0.4464
  144SAPE   C3915842   4.816   0.740   8.376  0.5503  0.1885 -0.6990
  144SAPE   H9X15843   4.738   0.809   8.337 -0.5752 -0.5570  0.1765
  144SAPE   H9Y15844   4.827   0.658   8.301 -1.3850 -1.3595  0.6348
  144SAPE  C31015845   4.949   0.803   8.397  0.4407  0.6717 -0.1746
  144SAPE  H10X15846   5.018   0.739   8.457  0.7674  1.7092  0.5647
  144SAPE  H10Y15847   4.931   0.889   8.465  0.5045  2.1390 -1.9772
  144SAPE  C31115848   5.010   0.860   8.268 -0.4100  0.2333 -0.0460
  144SAPE  H11X15849   4.963   0.954   8.233 -1.2584  0.2943  1.2270
  144SAPE  H11Y15850   5.011   0.784   8.187  2.9747 -0.7862  0.8705
  144SAPE  C31215851   5.160   0.879   8.293 -0.2865  0.3332  0.0167
  144SAPE  H12X15852   5.198   0.789   8.344  0.8587  1.0243  0.4097
  144SAPE  H12Y15853   5.177   0.970   8.354  0.2425  0.1423  0.1526
  144SAPE  C31315854   5.246   0.894   8.161  0.0389 -0.4204 -0.4333
  144SAPE  H13X15855   5.231   0.807   8.095 -2.3043 -0.3167 -0.0767
  144SAPE  H13Y15856   5.352   0.906   8.193  0.0193 -2.2511  0.3467
  144SAPE  C31415857   5.213   1.020   8.073  0.1130  0.6174 -0.1524
  144SAPE  H14X15858   5.262   1.110   8.116  0.2036  0.8451 -0.7171
  144SAPE  H14Y15859   5.106   1.050   8.069  0.3933  1.7973  1.0527
  144SAPE  C31515860   5.270   1.018   7.927 -0.5109 -1.4647  0.8416
  144SAPE  H15X15861   5.379   1.024   7.945 -0.9424  1.4235  2.9140
  144SAPE  H15Y15862   5.245   1.119   7.888  2.2046 -0.4139  1.6781
  144SAPE  C31615863   5.222   0.906   7.839  0.2598  0.1867 -0.4319
  144SAPE  H16X15864   5.111   0.896   7.848  0.1732  2.5718  1.5505
  144SAPE  H16Y15865   5.273   0.814   7.876  1.0901  0.1290 -1.6976
  144SAPE  C31715866   5.256   0.919   7.691 -0.3375  0.2808 -0.3799
  144SAPE  H17X15867   5.198   1.004   7.650 -1.8452 -0.9725 -0.9189
  144SAPE  H17Y15868   5.227   0.827   7.637  0.5899 -1.0013  1.2388
  144SAPE  C31815869   5.410   0.952   7.663  0.1370 -0.1649  0.4772
  144SAPE  H18X15870   5.482   0.872   7.691 -1.6517 -1.4938  1.3914
  144SAPE  H18Y15871   5.429   1.051   7.708  0.0121  1.1677 -2.3015
  144SAPE  H18Z15872   5.418   0.973   7.554  1.7204 -2.6232  0.0787
  145SAPE     N15873   1.879   7.135   9.685 -0.5351 -0.2657  0.2617
  145SAPE   HN115874   1.841   7.066   9.752 -0.6427  1.2450  1.7705
  145SAPE   HN215875   1.814   7.137   9.603  1.2636 -2.0358 -1.2836
  145SAPE   HN315876   1.971   7.097   9.654 -0.0369  0.8381  0.3792
  145SAPE   C1215877   1.895   7.267   9.747  0.4690  0.2491  0.4968
  145SAPE  H12A15878   1.933   7.329   9.663  1.5939 -1.4711 -0.2954
  145SAPE  H12B15879   1.978   7.271   9.820 -0.8595  1.4672  1.9843
  145SAPE   C1115880   1.765   7.315   9.806  0.3614  0.8778  0.2450
  145SAPE  H11A15881   1.764   7.417   9.851  1.7179  0.2264  1.8118
  145SAPE  H11B15882   1.736   7.241   9.883 -0.9868 -0.0984 -1.1653
  145SAPE     P15883   1.518   7.321   9.720  0.8957  0.1197 -0.1614
  145SAPE   O1315884   1.446   7.197   9.746  0.2865  0.1318  0.5919
  145SAPE   O1415885   1.495   7.438   9.807 -0.5164  0.3858 -0.8862
  145SAPE   O1215886   1.674   7.298   9.704 -0.1006 -0.2818  0.5101
  145SAPE   O1115887   1.475   7.363   9.572  0.2120 -0.3779 -0.1609
  145SAPE    C115888   1.540   7.331   9.450 -0.0193  0.3094 -0.2418
  145SAPE    HA15889   1.584   7.229   9.445 -1.0895 -0.1389 -0.7158
  145SAPE    HB15890   1.477   7.347   9.360  0.7816  2.5146 -0.4283
  145SAPE    C215891   1.658   7.433   9.422  0.1178 -0.5400  0.1455
  145SAPE    HS15892   1.709   7.437   9.520 -0.5643  0.6169  0.4694
  145SAPE   O2115893   1.596   7.559   9.392  0.3180  0.6879 -0.5511
  145SAPE   C2115894   1.678   7.668   9.414 -0.3612  0.7719  0.6723
  145SAPE   O2215895   1.787   7.668   9.458  0.1439  0.1787  0.3421
  145SAPE   C2215896   1.606   7.791   9.362  0.5700 -0.7096 -0.2377
  145SAPE   H2R15897   1.592   7.792   9.252  0.7208 -1.3193 -0.2628
  145SAPE   H2S15898   1.507   7.790   9.412  1.1370 -0.1818  0.8941
  145SAPE    C315899   1.755   7.384   9.312  0.6994 -0.5924 -0.4011
  145SAPE    HX15900   1.791   7.283   9.340 -3.8529 -2.0835  0.4473
  145SAPE    HY15901   1.840   7.456   9.316 -1.2433  2.1089 -4.1380
  145SAPE   O3115902   1.681   7.367   9.182 -0.4158 -0.6840  0.1727
  145SAPE   C3115903   1.713   7.460   9.093 -0.4686 -0.1557 -0.8342
  145SAPE   O3215904   1.797   7.552   9.108 -0.0702  0.5291 -0.5118
  145SAPE   C3215905   1.632   7.423   8.970  0.5246 -0.2213 -0.2727
  145SAPE   H2X15906   1.530   7.465   8.979 -0.1126 -0.9791 -3.2872
  145SAPE   H2Y15907   1.616   7.313   8.965 -0.9276 -0.0030 -0.7418
  145SAPE   C2315908   1.682   7.924   9.405  0.5392  0.4988  0.5298
  145SAPE   H3R15909   1.762   7.942   9.329 -0.0524 -1.0739 -0.4858
  145SAPE   H3S15910   1.725   7.925   9.507 -0.3221  2.9207  0.9040
  145SAPE   C2415911   1.583   8.045   9.403 -1.0977 -0.0239  0.0300
  145SAPE   H4R15912   1.520   8.039   9.494 -2.4168 -2.2878 -0.9972
  145SAPE   H4S15913   1.511   8.034   9.320 -1.8246  1.5980  0.4204
  145SAPE   C2515914   1.644   8.182   9.399 -0.0563  1.0741  0.8168
  145SAPE   H5R15915   1.680   8.214   9.498 -1.5228  0.3166  1.6100
  145SAPE   C2615916   1.668   8.249   9.289  0.0067 -0.1793 -0.0977
  145SAPE   H6R15917   1.732   8.339   9.294  0.9562 -0.7680 -1.1449
  145SAPE   C2715918   1.646   8.192   9.148  0.6191  0.0485  0.1566
  145SAPE   H7R15919   1.537   8.205   9.137  0.6219  1.1365  1.2907
  145SAPE   H7S15920   1.655   8.081   9.150 -0.6871 -0.0499  1.5490
  145SAPE   C2815921   1.708   8.263   9.028 -0.8388 -0.1419 -0.3903
  145SAPE   H8R15922   1.804   8.221   8.994  0.2309  0.6695  1.5926
  145SAPE   C2915923   1.674   8.379   8.979 -0.2697 -0.6688 -0.6114
  145SAPE   H9R15924   1.728   8.422   8.893  1.7188  0.3137  1.0780
  145SAPE  C21015925   1.555   8.452   9.029 -0.0636 -0.6756  0.4780
  145SAPE  H10R15926   1.579   8.486   9.132 -0.2914  1.5157 -0.1709
  145SAPE  H10S15927   1.471   8.380   9.046 -0.0657 -1.4343 -2.4444
  145SAPE  C21115928   1.509   8.566   8.939 -0.0488 -0.1612  0.3959
  145SAPE  H11R15929   1.545   8.665   8.968  0.2744 -0.2154  0.1832
  145SAPE  C21215930   1.424   8.554   8.839 -0.2216  0.5910  0.3098
  145SAPE  H12R15931   1.393   8.639   8.775  0.4009  1.3645  1.0285
  145SAPE  C21315932   1.354   8.427   8.796 -0.6269 -0.4279 -0.0268
  145SAPE  H13R15933   1.396   8.333   8.837 -1.2823 -0.8885 -0.4161
  145SAPE  H13S15934   1.366   8.429   8.686 -1.2432 -0.1191 -0.0981
  145SAPE  C21415935   1.205   8.450   8.819 -0.2472  0.6133 -0.4420
  145SAPE  H14R15936   1.181   8.541   8.876  0.6666  0.5712  0.0050
  145SAPE  C21515937   1.107   8.359   8.799  0.1683 -0.4815 -0.0441
  145SAPE  H15R15938   1.005   8.381   8.834  0.2110  1.4721 -1.0648
  145SAPE  C21615939   1.110   8.228   8.734 -1.0808  0.3048  0.2777
  145SAPE  H16R15940   1.215   8.197   8.720 -0.4807  1.0800  2.7471
  145SAPE  H16S15941   1.053   8.218   8.639 -1.4343 -3.7692  0.8233
  145SAPE  C21715942   1.054   8.126   8.839  0.7141  0.2436 -0.2374
  145SAPE  H17R15943   1.096   8.151   8.939  0.0112 -2.3121  0.7514
  145SAPE  H17S15944   1.100   8.027   8.820  0.7390  0.1231  0.4230
  145SAPE  C21815945   0.901   8.123   8.842  0.2609 -1.1268  0.3580
  145SAPE  H18R15946   0.862   8.093   8.743 -2.0813 -1.5369  1.3635
  145SAPE  H18S15947   0.864   8.224   8.871  2.7687 -0.6376  2.0591
  145SAPE  C21915948   0.859   8.002   8.927 -0.1745  0.0231 -0.4423
  145SAPE  H19R15949   0.922   7.915   8.900  1.5541  0.9626  0.5195
  145SAPE  H19S15950   0.751   7.988   8.902 -0.0257 -2.9140  0.3522
  145SAPE  C22015951   0.858   8.022   9.076  0.5762 -0.5360  0.5753
  145SAPE  H20R15952   0.810   8.121   9.089 -1.9771 -1.6657 -0.0367
  145SAPE  H20S15953   0.964   8.031   9.110  0.2531  0.6170  1.3116
  145SAPE  H20T15954   0.796   7.954   9.139  0.8426 -0.6546  0.7110
  145SAPE   C3315955   1.700   7.474   8.845  0.2654 -0.5994  0.4048
  145SAPE   H3X15956   1.805   7.438   8.847  1.0699  1.4635 -1.5718
  145SAPE   H3Y15957   1.708   7.585   8.843  0.1828 -0.6012 -0.3738
  145SAPE   C3415958   1.650   7.403   8.714 -0.3230  0.1467  0.1166
  145SAPE   H4X15959   1.541   7.415   8.697 -0.0407 -0.1692 -2.0884
  145SAPE   H4Y15960   1.667   7.294   8.720 -2.4387 -0.1158  1.6979
  145SAPE   C3515961   1.719   7.459   8.580 -0.0471  0.1277 -0.0359
  145SAPE   H5X15962   1.766   7.558   8.602  1.6490 -1.2103  2.6727
  145SAPE   H5Y15963   1.640   7.483   8.506 -0.7778 -0.7566  0.4506
  145SAPE   C3615964   1.824   7.360   8.530  0.0940 -0.8455  0.6345
  145SAPE   H6X15965   1.776   7.261   8.514  0.9556 -0.9871 -1.1157
  145SAPE   H6Y15966   1.892   7.330   8.612  0.0821 -1.1769  0.5238
  145SAPE   C3715967   1.890   7.397   8.399  0.1501 -0.9403  0.0674
  145SAPE   H7X15968   1.925   7.502   8.383 -1.8809 -0.4429 -1.3071
  145SAPE   H7Y15969   1.806   7.387   8.326  0.4332 -2.2823 -0.0937
  145SAPE   C3815970   2.005   7.299   8.378  0.1018 -0.0793 -0.1487
  145SAPE   H8X15971   1.962   7.198   8.392 -0.2667  0.1011  0.0535
  145SAPE   H8Y15972   2.081   7.326   8.455 -0.7669 -3.0271  1.8333
  145SAPE   C3915973   2.059   7.290   8.235  0.0850  0.6122 -0.0082
  145SAPE   H9X15974   2.167   7.264   8.243  0.2119  1.1558  0.0005
  145SAPE   H9Y15975   2.054   7.393   8.195  2.9367  0.5119 -0.7132
  145SAPE  C31015976   1.975   7.196   8.152 -0.3061  0.3090  0.8198
  145SAPE  H10X15977   1.869   7.200   8.184 -1.0944 -1.3341 -1.4067
  145SAPE  H10Y15978   2.009   7.093   8.177 -1.8466 -0.3305  0.3376
  145SAPE  C31115979   1.991   7.221   8.002  0.1037 -0.1289  0.1694
  145SAPE  H11X15980   2.094   7.204   7.965  0.0624  3.0526 -1.6174
  145SAPE  H11Y15981   1.968   7.329   7.993  2.2329  0.5523  2.6196
  145SAPE  C31215982   1.896   7.135   7.908 -0.0031  0.2637  0.2079
  145SAPE  H12X15983   1.788   7.160   7.916 -0.0498  0.9794 -2.2810
  145SAPE  H12Y15984   1.917   7.029   7.933  1.8438  0.5906  0.1466
  145SAPE  C31315985   1.954   7.156   7.760 -0.7714 -0.0528  0.4754
  145SAPE  H13X15986   2.061   7.184   7.757 -1.0861  0.9826 -1.7253
  145SAPE  H13Y15987   1.895   7.244   7.727 -0.6925  0.0249  0.5442
  145SAPE  C31415988   1.927   7.034   7.669  0.4108 -0.3916 -0.6288
  145SAPE  H14X15989   1.817   7.024   7.661  0.2530 -0.3265  1.1920
  145SAPE  H14Y15990   1.982   6.949   7.716  1.9836  1.3303  0.7232
  145SAPE  C31515991   1.973   7.046   7.525 -0.3514 -0.5579 -0.6390
  145SAPE  H15X15992   1.920   6.970   7.462  0.4917 -2.2492  0.6560
  145SAPE  H15Y15993   2.084   7.047   7.522 -0.2257 -3.1600  1.0570
  145SAPE  C31615994   1.925   7.176   7.458 -0.5123  0.0092  0.0861
  145SAPE  H16X15995   1.970   7.267   7.502  1.9081 -1.6182  1.0841
  145SAPE  H16Y15996   1.816   7.187   7.477 -0.4552  0.1799  0.3142
  145SAPE  C31715997   1.948   7.172   7.307  0.6197  0.2851  0.0654
  145SAPE  H17X15998   1.864   7.113   7.265 -1.4353  0.9691  3.0335
  145SAPE  H17Y15999   2.050   7.134   7.285  1.7837  1.5740  3.0284
  145SAPE  C31816000   1.942   7.317   7.235 -0.3525  0.4489 -0.2373
  145SAPE  H18X16001   1.844   7.365   7.259 -1.0685  0.2041 -2.5272
  145SAPE  H18Y16002   1.962   7.305   7.126 -0.1250  0.4951 -0.1998
  145SAPE  H18Z16003   2.029   7.373   7.276  1.2451 -0.8395 -1.7906
  146SAPE     N16004   5.955   0.709   9.813  0.6102 -0.0012  0.1349
  146SAPE   HN116005   5.965   0.792   9.751 -1.6737 -0.5065 -0.9714
  146SAPE   HN216006   5.926   0.738   9.908  0.3017 -0.0658  0.0606
  146SAPE   HN316007   6.045   0.662   9.831 -0.0197 -1.7146 -1.0915
  146SAPE   C1216008   5.861   0.603   9.757 -0.1717  0.0073  0.2399
  146SAPE  H12A16009   5.909   0.573   9.661 -1.3540 -1.7073  0.1640
  146SAPE  H12B16010   5.763   0.654   9.741  0.0416  0.4005  0.1972
  146SAPE   C1116011   5.831   0.490   9.861 -0.1756  0.4481  0.1328
  146SAPE  H11A16012   5.758   0.419   9.817  0.9569 -2.8129  3.2396
  146SAPE  H11B16013   5.779   0.531   9.950 -0.8691  0.3821 -0.2365
  146SAPE     P16014   6.048   0.362   9.798  0.3484  0.2351  0.1134
  146SAPE   O1316015   6.147   0.472   9.771  0.2529 -0.5214 -0.0164
  146SAPE   O1416016   6.091   0.229   9.852  0.0242 -0.3849  0.0543
  146SAPE   O1216017   5.947   0.418   9.897  0.0858 -0.2805  0.2147
  146SAPE   O1116018   5.964   0.336   9.658 -0.2912  0.2716  0.1711
  146SAPE    C116019   6.035   0.267   9.553  0.0071 -0.2146 -0.7294
  146SAPE    HA16020   6.058   0.163   9.585 -1.3235 -1.9221 -5.0053
  146SAPE    HB16021   5.968   0.255   9.465  1.3311  0.2253 -1.8128
  146SAPE    C216022   6.167   0.331   9.491  0.2328  0.4489 -0.1727
  146SAPE    HS16023   6.237   0.331   9.578 -0.5467  0.9801  0.4645
  146SAPE   O2116024   6.130   0.456   9.437  0.2004  0.6638 -0.2539
  146SAPE   C2116025   6.241   0.536   9.427  0.0294  0.2211 -0.3262
  146SAPE   O2216026   6.353   0.496   9.454  0.0196 -0.2109  0.5675
  146SAPE   C2216027   6.195   0.675   9.383 -0.3735  0.3064  0.4511
  146SAPE   H2R16028   6.117   0.675   9.304 -1.2368 -0.0278  1.2927
  146SAPE   H2S16029   6.146   0.701   9.479  0.0628 -2.5029  1.4973
  146SAPE    C316030   6.215   0.237   9.372  0.0599  0.1546 -0.6521
  146SAPE    HX16031   6.266   0.154   9.426  0.8324  0.7623 -0.4358
  146SAPE    HY16032   6.304   0.284   9.323  0.9782 -1.1860 -0.3041
  146SAPE   O3116033   6.107   0.190   9.288 -0.5526  0.0113  0.8748
  146SAPE   C3116034   6.089   0.272   9.178  0.0674  0.5857 -0.2394
  146SAPE   O3216035   6.162   0.362   9.144  0.5731  0.6976 -0.5960
  146SAPE   C3216036   5.971   0.231   9.099 -0.1304 -0.0310 -0.1821
  146SAPE   H2X16037   5.882   0.267   9.154  0.3600 -0.0204  0.6026
  146SAPE   H2Y16038   5.962   0.120   9.105  3.3840 -0.2879  1.6233
  146SAPE   C2316039   6.314   0.775   9.365  0.4796  0.8746 -0.8116
  146SAPE   H3R16040   6.384   0.761   9.449 -0.0655 -1.2249 -0.6928
  146SAPE   H3S16041   6.273   0.878   9.375  0.6577  0.7895  0.9980
  146SAPE   C2416042   6.374   0.778   9.223  0.3693  0.1364 -0.1748
  146SAPE   H4R16043   6.304   0.822   9.149  0.5949 -0.0464 -0.4965
  146SAPE   H4S16044   6.389   0.675   9.185  2.0153  1.0300 -2.0393
  146SAPE   C2516045   6.503   0.851   9.209  0.2199  0.5342  0.7894
  146SAPE   H5R16046   6.582   0.815   9.276 -1.0996 -0.3381  1.8921
  146SAPE   C2616047   6.534   0.946   9.124  0.2158 -0.5094 -0.1909
  146SAPE   H6R16048   6.639   0.975   9.114  0.4158  0.3742  3.5162
  146SAPE   C2716049   6.444   1.012   9.018  0.4991 -0.1195  0.2647
  146SAPE   H7R16050   6.497   1.102   8.981  1.0045 -0.5418 -0.0456
  146SAPE   H7S16051   6.351   1.053   9.061  0.5682  1.0960 -0.7053
  146SAPE   C2816052   6.413   0.932   8.903 -0.2804  0.4491  0.3911
  146SAPE   H8R16053   6.374   0.834   8.932 -0.8041  0.8432  1.0262
  146SAPE   C2916054   6.421   0.967   8.771  0.5105  0.8444 -0.4531
  146SAPE   H9R16055   6.408   0.886   8.697  1.1288  0.8423 -0.5617
  146SAPE  C21016056   6.453   1.098   8.715 -0.4081  0.4132 -0.2903
  146SAPE  H10R16057   6.561   1.081   8.694 -0.4395 -4.2543  2.5225
  146SAPE  H10S16058   6.446   1.180   8.790  0.5674 -0.4530  0.7636
  146SAPE  C21116059   6.366   1.116   8.592 -0.1611  0.0741 -0.4459
  146SAPE  H11R16060   6.266   1.161   8.605  0.3585  0.6374  1.7320
  146SAPE  C21216061   6.400   1.091   8.462  0.5458 -1.0212 -0.5029
  146SAPE  H12R16062   6.326   1.111   8.383  1.2195  2.3786 -0.3359
  146SAPE  C21316063   6.537   1.051   8.402 -0.7536  0.4333 -0.4735
  146SAPE  H13R16064   6.613   1.079   8.477 -1.3980  0.0583  0.3351
  146SAPE  H13S16065   6.579   1.108   8.317 -1.1953 -3.1554 -3.2211
  146SAPE  C21416066   6.538   0.905   8.385 -0.5229  0.6836 -0.0884
  146SAPE  H14R16067   6.503   0.846   8.471  0.4014  1.9564  1.1896
  146SAPE  C21516068   6.573   0.831   8.277 -0.5187  0.1518  0.2387
  146SAPE  H15R16069   6.579   0.722   8.284 -0.4872  0.1022 -0.5706
  146SAPE  C21616070   6.631   0.877   8.146 -0.5165 -0.1795  0.2877
  146SAPE  H16R16071   6.709   0.801   8.124  0.6480  1.0693  0.0776
  146SAPE  H16S16072   6.661   0.984   8.150 -1.4603  0.0922  0.2824
  146SAPE  C21716073   6.511   0.867   8.038 -0.1335  0.0468 -0.3030
  146SAPE  H17R16074   6.450   0.776   8.054 -0.3189  0.7926  3.7193
  146SAPE  H17S16075   6.555   0.877   7.936 -0.5480  3.2438 -0.1938
  146SAPE  C21816076   6.404   0.988   8.045  0.4299 -0.2478  0.6383
  146SAPE  H18R16077   6.446   1.090   8.055 -3.5206  1.6328 -0.9682
  146SAPE  H18S16078   6.336   0.975   8.132  1.9257  2.2880  2.2448
  146SAPE  C21916079   6.298   0.997   7.933  0.4056 -0.1670  0.4393
  146SAPE  H19R16080   6.237   0.904   7.934  1.2054 -0.6994  0.8246
  146SAPE  H19S16081   6.360   0.999   7.841 -0.3532  2.4035 -0.0443
  146SAPE  C22016082   6.230   1.134   7.930  0.8931 -0.2255  0.6573
  146SAPE  H20R16083   6.301   1.219   7.928 -0.8927  1.2889 -1.7909
  146SAPE  H20S16084   6.173   1.145   8.025  0.0033  0.0597  0.1035
  146SAPE  H20T16085   6.150   1.141   7.853  1.4298 -0.2363  0.1039
  146SAPE   C3316086   5.974   0.277   8.945 -0.1072 -0.0076 -0.6933
  146SAPE   H3X16087   6.047   0.212   8.893 -0.3806 -1.7893  1.0502
  146SAPE   H3Y16088   5.993   0.385   8.931 -0.1113 -0.0412 -0.9603
  146SAPE   C3416089   5.828   0.272   8.888  0.2621  0.1129  1.2007
  146SAPE   H4X16090   5.770   0.361   8.919  0.0212  1.2867 -2.3471
  146SAPE   H4Y16091   5.765   0.195   8.938 -1.6432  2.3936  2.3947
  146SAPE   C3516092   5.824   0.262   8.737 -0.1972  0.3473  0.5819
  146SAPE   H5X16093   5.829   0.152   8.722 -2.6597  0.5783 -2.5150
  146SAPE   H5Y16094   5.910   0.323   8.703  0.1390 -0.0285  0.7559
  146SAPE   C3616095   5.693   0.313   8.671 -0.6144 -0.1417 -0.1484
  146SAPE   H6X16096   5.696   0.423   8.682  0.4738 -0.1539 -0.2587
  146SAPE   H6Y16097   5.606   0.277   8.730 -0.9793  1.9469  0.6419
  146SAPE   C3716098   5.684   0.263   8.527  0.2084  0.3072 -0.1514
  146SAPE   H7X16099   5.586   0.293   8.483 -0.0956 -1.8389 -1.0080
  146SAPE   H7Y16100   5.681   0.153   8.513 -1.5793  0.4534 -1.0855
  146SAPE   C3816101   5.798   0.309   8.434  0.1251 -0.5128  0.5153
  146SAPE   H8X16102   5.893   0.256   8.455  0.3509 -0.0987  0.5412
  146SAPE   H8Y16103   5.816   0.417   8.450 -2.4723  0.1334 -0.6684
  146SAPE   C3916104   5.758   0.302   8.282  0.4876  0.3381  0.2470
  146SAPE   H9X16105   5.649   0.324   8.279  0.0003 -1.7271  1.7390
  146SAPE   H9Y16106   5.773   0.193   8.266  2.3385  0.3433  1.8029
  146SAPE  C31016107   5.838   0.380   8.178  0.0227  0.1986  0.0188
  146SAPE  H10X16108   5.946   0.367   8.197  0.1099  1.6004  0.5820
  146SAPE  H10Y16109   5.820   0.490   8.177  1.3266  0.4189 -0.1288
  146SAPE  C31116110   5.802   0.333   8.037 -0.4854  0.4738 -0.2435
  146SAPE  H11X16111   5.713   0.390   8.003  0.1606  0.3392 -2.2692
  146SAPE  H11Y16112   5.761   0.230   8.044  1.9324 -0.4728  0.6628
  146SAPE  C31216113   5.914   0.340   7.935  0.4327 -0.8047 -0.8883
  146SAPE  H12X16114   5.880   0.359   7.831 -1.2015 -1.0389 -0.4177
  146SAPE  H12Y16115   5.959   0.239   7.940  1.4529 -0.3564 -0.9255
  146SAPE  C31316116   6.029   0.439   7.963  0.3041 -0.8781  0.6599
  146SAPE  H13X16117   6.090   0.388   8.040 -0.9974 -2.5074  0.6337
  146SAPE  H13Y16118   5.985   0.534   7.999 -1.3574 -0.8201 -1.3753
  146SAPE  C31416119   6.126   0.458   7.840 -0.0922  0.4523 -0.1188
  146SAPE  H14X16120   6.093   0.530   7.761  2.2858  3.4836  1.5571
  146SAPE  H14Y16121   6.157   0.363   7.791  0.4267 -0.0136  1.0971
  146SAPE  C31516122   6.259   0.514   7.893 -0.1600 -0.6292 -0.3140
  146SAPE  H15X16123   6.297   0.451   7.977 -0.4315  2.3885  2.1679
  146SAPE  H15Y16124   6.229   0.604   7.951  0.4393 -0.4660 -0.2550
  146SAPE  C31616125   6.368   0.557   7.796  0.3092  0.1094  0.6017
  146SAPE  H16X16126   6.426   0.465   7.774 -0.8035 -0.8339  1.5967
  146SAPE  H16Y16127   6.432   0.622   7.859  0.6051  1.7330 -1.3001
  146SAPE  C31716128   6.322   0.638   7.676 -0.0953  0.1813  0.1378
  146SAPE  H17X16129   6.269   0.725   7.719  0.6155 -0.5697  2.6036
  146SAPE  H17Y16130   6.255   0.578   7.611 -1.7683  2.6539 -0.4701
  146SAPE  C31816131   6.444   0.681   7.594 -0.3675  0.2229  0.4958
  146SAPE  H18X16132   6.422   0.741   7.503  1.3843  0.7908  0.4382
  146SAPE  H18Y16133   6.496   0.588   7.562  1.1432  1.4749 -0.7489
  146SAPE  H18Z16134   6.516   0.735   7.659 -1.8198 -0.7593  2.9784
  147SAPE     N16135   3.355   3.935   5.804 -0.0856 -0.1585  0.0782
  147SAPE   HN116136   3.419   3.928   5.723  0.9367  0.2968  0.8285
  147SAPE   HN216137   3.406   3.870   5.869 -1.7432 -1.3134  0.2596
  147SAPE   HN316138   3.261   3.904   5.773 -0.9156 -0.7616  3.0026
  147SAPE   C1216139   3.344   4.080   5.844 -1.0527  0.0892 -0.4680
  147SAPE  H12A16140   3.255   4.087   5.910 -0.0426  0.8032  0.8547
  147SAPE  H12B16141   3.337   4.140   5.751 -0.1453 -1.0378 -1.2739
  147SAPE   C1116142   3.462   4.124   5.927 -0.0893 -0.3463 -0.2088
  147SAPE  H11A16143   3.434   4.080   6.025  1.0361  1.6621  1.0468
  147SAPE  H11B16144   3.459   4.234   5.940  0.3318 -0.5294  1.6157
  147SAPE     P16145   3.682   4.178   5.790  0.2216  0.1541 -0.2586
  147SAPE   O1316146   3.801   4.096   5.758  0.6931  0.5046 -0.2264
  147SAPE   O1416147   3.598   4.228   5.680 -0.1721  0.1706  0.7817
  147SAPE   O1216148   3.593   4.085   5.882 -0.3766  0.3736 -0.1509
  147SAPE   O1116149   3.724   4.295   5.882  0.6184  0.6913 -0.6336
  147SAPE    C116150   3.856   4.331   5.914 -0.0212 -0.4741  0.1621
  147SAPE    HA16151   3.924   4.298   5.833 -0.5536  0.4541 -0.6772
  147SAPE    HB16152   3.873   4.441   5.910  2.0012 -0.7408  0.7976
  147SAPE    C216153   3.904   4.276   6.053  0.0157  0.4870 -0.1981
  147SAPE    HS16154   3.892   4.167   6.036  2.3710  0.4341 -1.8424
  147SAPE   O2116155   3.825   4.326   6.161 -0.1052  0.4523  0.6931
  147SAPE   C2116156   3.818   4.229   6.262  0.1510  0.1825  0.1658
  147SAPE   O2216157   3.876   4.126   6.265 -0.1156 -0.6007 -0.1492
  147SAPE   C2216158   3.710   4.262   6.361 -0.1439 -0.1911 -0.5358
  147SAPE   H2R16159   3.690   4.180   6.434 -0.8211 -0.0853 -0.5912
  147SAPE   H2S16160   3.735   4.357   6.412 -0.4736 -0.9239  1.0221
  147SAPE    C316161   4.058   4.318   6.075 -0.1781 -0.3475 -0.1970
  147SAPE    HX16162   4.062   4.419   6.121 -0.9150 -0.1067 -0.6500
  147SAPE    HY16163   4.107   4.319   5.975 -0.6564 -2.4650 -0.4784
  147SAPE   O3116164   4.126   4.237   6.173  0.2378  0.4155 -0.9828
  147SAPE   C3116165   4.161   4.117   6.133  0.5274 -0.3219  0.5689
  147SAPE   O3216166   4.153   4.076   6.018 -0.0349  0.0284 -1.1505
  147SAPE   C3216167   4.202   4.045   6.253 -0.0213 -0.1012  0.2625
  147SAPE   H2X16168   4.119   4.068   6.323 -0.2892  2.0623 -0.7135
  147SAPE   H2Y16169   4.294   4.087   6.299 -1.0138  1.1692  1.1318
  147SAPE   C2316170   3.581   4.290   6.293 -0.0474 -0.1028 -0.0482
  147SAPE   H3R16171   3.548   4.201   6.236 -0.1671  0.0420 -0.2059
  147SAPE   H3S16172   3.595   4.363   6.211 -0.6080 -1.6314 -1.5463
  147SAPE   C2416173   3.477   4.334   6.392 -0.2617  0.9899 -0.4537
  147SAPE   H4R16174   3.403   4.394   6.334  0.6685  2.1760 -0.4222
  147SAPE   H4S16175   3.520   4.417   6.451 -0.5006  1.1009 -0.4340
  147SAPE   C2516176   3.406   4.218   6.463 -0.1336  0.1427  0.4510
  147SAPE   H5R16177   3.357   4.148   6.393 -0.8071 -0.4135  1.4718
  147SAPE   C2616178   3.410   4.190   6.599 -0.4126  0.4932 -0.4730
  147SAPE   H6R16179   3.359   4.101   6.638  1.4662  0.7754  2.7611
  147SAPE   C2716180   3.489   4.256   6.712  0.5960 -0.3793  0.1895
  147SAPE   H7R16181   3.420   4.259   6.799 -0.3332 -0.6116 -0.5253
  147SAPE   H7S16182   3.518   4.358   6.678 -1.8710  0.0504 -0.7793
  147SAPE   C2816183   3.612   4.179   6.739  1.0630 -0.4308  0.3198
  147SAPE   H8R16184   3.650   4.122   6.653  0.8813 -1.7056  1.0726
  147SAPE   C2916185   3.679   4.158   6.856  0.0472  0.0448 -0.5070
  147SAPE   H9R16186   3.773   4.106   6.836 -0.6260 -0.8899 -1.3025
  147SAPE  C21016187   3.642   4.197   6.997  0.2780 -0.2658 -0.3579
  147SAPE  H10R16188   3.588   4.109   7.037  0.4246 -1.1740 -2.1085
  147SAPE  H10S16189   3.565   4.276   6.997 -0.8446 -1.3405  0.7279
  147SAPE  C21116190   3.757   4.225   7.087 -0.0527 -0.0385  0.1107
  147SAPE  H11R16191   3.790   4.329   7.093 -0.6568  0.2731 -1.6070
  147SAPE  C21216192   3.821   4.135   7.167 -0.7167 -0.3321 -0.0238
  147SAPE  H12R16193   3.912   4.166   7.219  0.6485 -0.3914 -2.3187
  147SAPE  C21316194   3.778   3.991   7.170 -0.0524  0.4605  0.0657
  147SAPE  H13R16195   3.871   3.930   7.173  1.0581  2.0414 -1.5113
  147SAPE  H13S16196   3.721   3.966   7.078 -0.2198  2.5881 -0.4441
  147SAPE  C21416197   3.684   3.953   7.279 -0.1382  0.0475 -0.2862
  147SAPE  H14R16198   3.598   4.022   7.278  0.7618  1.1984  0.3497
  147SAPE  C21516199   3.707   3.873   7.391 -0.1301  0.4726  0.4524
  147SAPE  H15R16200   3.628   3.866   7.468 -0.6158 -0.9442 -0.1573
  147SAPE  C21616201   3.828   3.791   7.431 -0.7509  1.1147 -0.1942
  147SAPE  H16R16202   3.848   3.700   7.371  0.6337  0.5691  1.0454
  147SAPE  H16S16203   3.805   3.754   7.533  0.7472 -1.8634 -0.8825
  147SAPE  C21716204   3.960   3.867   7.442 -0.1855 -0.5269 -0.5840
  147SAPE  H17R16205   3.983   3.906   7.341 -1.2650  2.8003  0.3716
  147SAPE  H17S16206   4.046   3.803   7.472  0.6926  0.5752 -0.6920
  147SAPE  C21816207   3.956   3.988   7.542  0.3151  0.8197  0.3905
  147SAPE  H18R16208   3.878   4.057   7.502  2.4038  1.4005 -2.8873
  147SAPE  H18S16209   4.053   4.041   7.529  0.3195  0.3873 -1.3569
  147SAPE  C21916210   3.942   3.957   7.696  0.3213  0.0656 -0.0984
  147SAPE  H19R16211   4.019   3.896   7.746  0.2709  0.4235  0.4232
  147SAPE  H19S16212   3.846   3.909   7.725  0.6369  0.3307  1.3884
  147SAPE  C22016213   3.942   4.087   7.780 -0.0240  0.4041 -0.5732
  147SAPE  H20R16214   3.871   4.150   7.722  0.2543 -0.2870 -1.6686
  147SAPE  H20S16215   4.040   4.138   7.772  0.2573  0.1744  1.2865
  147SAPE  H20T16216   3.918   4.058   7.884  2.1917  2.0285  0.4340
  147SAPE   C3316217   4.207   3.890   6.216 -0.0289  0.6267  0.4503
  147SAPE   H3X16218   4.296   3.867   6.153 -2.1005 -0.8146 -2.0038
  147SAPE   H3Y16219   4.124   3.856   6.151  0.7431  0.3841 -0.4241
  147SAPE   C3416220   4.208   3.802   6.338 -0.7010  0.5619 -0.4206
  147SAPE   H4X16221   4.251   3.866   6.418 -0.6059  1.6084 -1.2973
  147SAPE   H4Y16222   4.271   3.712   6.321  0.9526  1.4950  0.6005
  147SAPE   C3516223   4.069   3.786   6.397  0.6552  0.2670  0.1405
  147SAPE   H5X16224   4.014   3.706   6.343  1.0544  1.6977 -2.5003
  147SAPE   H5Y16225   4.010   3.877   6.376 -0.9639 -0.7426  0.2537
  147SAPE   C3616226   4.070   3.766   6.544 -0.3564  0.4663  0.3223
  147SAPE   H6X16227   3.961   3.766   6.569 -0.6000  1.3941 -0.6996
  147SAPE   H6Y16228   4.112   3.852   6.600 -2.5944  1.2816  0.8213
  147SAPE   C3716229   4.130   3.631   6.585  0.3296 -1.1943 -0.4320
  147SAPE   H7X16230   4.229   3.606   6.542  0.2963  1.3700 -2.1404
  147SAPE   H7Y16231   4.066   3.548   6.548  0.1812 -0.8771 -0.8861
  147SAPE   C3816232   4.134   3.635   6.743 -0.6355 -0.3622  0.1076
  147SAPE   H8X16233   4.195   3.723   6.773  1.9839 -2.2166  0.4267
  147SAPE   H8Y16234   4.175   3.540   6.782 -0.7293  0.7935  3.1972
  147SAPE   C3916235   3.994   3.645   6.807  0.6710  0.5621 -0.1394
  147SAPE   H9X16236   3.926   3.576   6.753  0.4408 -1.5074  2.6720
  147SAPE   H9Y16237   3.946   3.745   6.796 -0.2973 -0.1065 -2.4658
  147SAPE  C31016238   3.972   3.614   6.957 -0.2714 -0.6560 -0.4618
  147SAPE  H10X16239   4.050   3.674   7.008 -1.5707  2.5835 -2.1080
  147SAPE  H10Y16240   3.997   3.509   6.983  0.5547 -0.8245 -1.8590
  147SAPE  C31116241   3.830   3.643   7.014  0.4702 -0.2312 -0.3993
  147SAPE  H11X16242   3.784   3.738   6.980 -0.7878 -0.3315  1.0016
  147SAPE  H11Y16243   3.827   3.649   7.125  0.9758 -2.4582 -0.2307
  147SAPE  C31216244   3.737   3.530   6.969  0.9202 -0.3624 -0.3566
  147SAPE  H12X16245   3.779   3.442   7.023 -1.0828  1.0321  3.6523
  147SAPE  H12Y16246   3.752   3.531   6.859 -0.5498  1.6283 -0.5500
  147SAPE  C31316247   3.595   3.546   7.023  0.2924 -0.1004 -0.2502
  147SAPE  H13X16248   3.533   3.459   6.991  1.3171 -0.1961 -2.0236
  147SAPE  H13Y16249   3.547   3.636   6.980  2.4609  1.5741  0.7548
  147SAPE  C31416250   3.590   3.553   7.177  0.3690  0.9843 -0.2362
  147SAPE  H14X16251   3.629   3.648   7.221  0.4370 -0.1077  2.1507
  147SAPE  H14Y16252   3.652   3.467   7.208 -0.7346  0.9395  1.9940
  147SAPE  C31516253   3.458   3.527   7.243 -1.0100  0.1719 -0.4586
  147SAPE  H15X16254   3.412   3.436   7.200 -1.0612 -0.4448  0.8556
  147SAPE  H15Y16255   3.383   3.606   7.225  0.4380  1.2186 -1.9832
  147SAPE  C31616256   3.464   3.494   7.399  0.0137 -0.4258  0.5417
  147SAPE  H16X16257   3.365   3.451   7.426 -1.0141  0.0573 -2.2961
  147SAPE  H16Y16258   3.494   3.589   7.449  1.7842 -0.0581 -1.1465
  147SAPE  C31716259   3.569   3.386   7.432 -0.1025  1.0273 -0.4961
  147SAPE  H17X16260   3.669   3.417   7.395  0.6661 -0.9696 -0.1265
  147SAPE  H17Y16261   3.536   3.293   7.382  0.7347  1.3183 -1.6259
  147SAPE  C31816262   3.575   3.366   7.581  0.3255 -0.3034  0.6934
  147SAPE  H18X16263   3.476   3.346   7.627  0.4958 -2.3853  0.2216
  147SAPE  H18Y16264   3.611   3.455   7.636  0.7160 -0.5510  0.8431
  147SAPE  H18Z16265   3.656   3.295   7.607 -0.1360 -0.1552  2.5668
  148SAPE     N16266   3.833   3.583   5.618 -0.0950  0.5577  0.2437
  148SAPE   HN116267   3.775   3.596   5.532  0.6038 -1.3788 -0.5278
  148SAPE   HN216268   3.810   3.657   5.688  0.8301  1.8426 -0.8028
  148SAPE   HN316269   3.933   3.598   5.594 -0.0834  0.8543  0.4729
  148SAPE   C1216270   3.794   3.453   5.671 -0.1216  0.4972  0.5100
  148SAPE  H12A16271   3.848   3.438   5.767 -2.3749 -1.9309  1.4526
  148SAPE  H12B16272   3.830   3.369   5.608 -0.9989  0.6094 -0.1517
  148SAPE   C1116273   3.638   3.431   5.663  0.5633  0.1467 -0.3872
  148SAPE  H11A16274   3.600   3.345   5.723  2.2052  0.9763  1.9095
  148SAPE  H11B16275   3.624   3.403   5.556 -2.4341 -3.0650  0.7434
  148SAPE     P16276   3.470   3.556   5.813 -0.1408 -0.2507  0.1514
  148SAPE   O1316277   3.460   3.696   5.873  0.0786  0.0353  0.7073
  148SAPE   O1416278   3.337   3.520   5.760 -0.4394  0.0239  0.1881
  148SAPE   O1216279   3.570   3.552   5.692 -0.3172 -0.2928  0.3542
  148SAPE   O1116280   3.531   3.449   5.925  0.0726  0.2454 -0.2799
  148SAPE    C116281   3.610   3.486   6.034  0.6373  0.3768 -0.0562
  148SAPE    HA16282   3.663   3.584   6.030 -0.4593  1.1457  2.6562
  148SAPE    HB16283   3.541   3.494   6.121 -2.1188  0.4529 -2.1932
  148SAPE    C216284   3.716   3.380   6.074 -0.1967 -0.5696 -0.8366
  148SAPE    HS16285   3.759   3.346   5.978 -0.4376  1.1480 -1.5743
  148SAPE   O2116286   3.655   3.262   6.139  0.1755 -0.0219  0.2837
  148SAPE   C2116287   3.743   3.173   6.162 -0.4661  0.1785 -0.1779
  148SAPE   O2216288   3.852   3.153   6.106  0.3268  0.0741 -0.5961
  148SAPE   C2216289   3.676   3.069   6.257  0.3127  0.0839 -0.8963
  148SAPE   H2R16290   3.616   3.131   6.327  0.3841 -0.2386 -0.5458
  148SAPE   H2S16291   3.598   3.023   6.192  0.4980  0.7081 -1.5639
  148SAPE    C316292   3.818   3.460   6.170  0.3600 -0.4044 -0.1280
  148SAPE    HX16293   3.840   3.558   6.122  0.5925 -0.8815 -0.9993
  148SAPE    HY16294   3.922   3.420   6.167  1.3088  1.5741  3.2356
  148SAPE   O3116295   3.769   3.482   6.299 -0.0379 -0.0623 -0.3350
  148SAPE   C3116296   3.811   3.411   6.399 -0.0867 -0.3463 -0.0543
  148SAPE   O3216297   3.890   3.319   6.406  0.4415  0.0469 -0.4875
  148SAPE   C3216298   3.720   3.454   6.518  0.1430 -0.2061 -0.5160
  148SAPE   H2X16299   3.698   3.563   6.508 -2.0590 -0.5255  0.4863
  148SAPE   H2Y16300   3.787   3.449   6.607  1.2927  1.8995 -1.2097
  148SAPE   C2316301   3.774   2.966   6.324  0.7588 -0.0220  0.3491
  148SAPE   H3R16302   3.861   3.022   6.364  1.1760 -0.7439  0.4696
  148SAPE   H3S16303   3.814   2.892   6.251 -1.2207 -0.2434 -0.5355
  148SAPE   C2416304   3.708   2.892   6.445 -1.0208 -0.1029 -0.0910
  148SAPE   H4R16305   3.769   2.805   6.475 -0.3365  0.8319  1.3157
  148SAPE   H4S16306   3.612   2.841   6.423 -0.4582 -1.6141  0.9099
  148SAPE   C2516307   3.685   2.986   6.557  0.5948  0.2720 -0.4537
  148SAPE   H5R16308   3.642   3.083   6.528 -1.6750  0.4789  3.2184
  148SAPE   C2616309   3.712   2.969   6.689 -0.4050  0.0618  0.2649
  148SAPE   H6R16310   3.696   3.054   6.757  1.6230  1.2175 -0.6569
  148SAPE   C2716311   3.776   2.844   6.750  0.0821 -0.2698  0.0923
  148SAPE   H7R16312   3.878   2.874   6.783 -0.4278 -0.7635  2.1735
  148SAPE   H7S16313   3.803   2.766   6.676  1.3124 -0.8691  1.1594
  148SAPE   C2816314   3.701   2.784   6.867 -0.2239  0.0157 -0.2803
  148SAPE   H8R16315   3.612   2.845   6.887  0.1130  0.0481  1.1787
  148SAPE   C2916316   3.732   2.687   6.950 -0.0297 -0.9595  0.5740
  148SAPE   H9R16317   3.665   2.672   7.035  0.0762 -1.6162  0.5418
  148SAPE  C21016318   3.869   2.623   6.952  0.1942 -0.3064  0.4820
  148SAPE  H10R16319   3.902   2.592   7.053  1.5942  2.3052  0.8518
  148SAPE  H10S16320   3.950   2.692   6.920 -1.5089  0.6269 -1.9213
  148SAPE  C21116321   3.871   2.507   6.850  0.0209 -0.8705 -0.1612
  148SAPE  H11R16322   3.901   2.542   6.750  1.2139 -2.5128 -0.4037
  148SAPE  C21216323   3.828   2.380   6.861 -0.4477 -0.4997  0.0487
  148SAPE  H12R16324   3.810   2.312   6.776 -1.1221 -1.6149  1.0569
  148SAPE  C21316325   3.782   2.326   6.999  0.3297  0.7490 -0.2096
  148SAPE  H13R16326   3.733   2.406   7.058  1.4035  1.4569 -0.2615
  148SAPE  H13S16327   3.874   2.309   7.059  0.1054  0.0434 -0.0574
  148SAPE  C21416328   3.701   2.199   7.010  0.0339  0.0400  0.0840
  148SAPE  H14R16329   3.672   2.147   6.917 -0.4101  0.5361 -0.0592
  148SAPE  C21516330   3.652   2.149   7.123  0.1571  0.9594  0.0723
  148SAPE  H15R16331   3.605   2.050   7.123  1.4254  0.3167 -2.6831
  148SAPE  C21616332   3.672   2.200   7.262 -0.3717  0.2646  0.8666
  148SAPE  H16R16333   3.755   2.274   7.270  1.4121 -1.4428 -1.0666
  148SAPE  H16S16334   3.701   2.111   7.322  0.1644  0.5097  0.9763
  148SAPE  C21716335   3.545   2.251   7.323  0.2748 -0.0244  0.2951
  148SAPE  H17R16336   3.477   2.163   7.328  1.2557 -0.6929  2.6475
  148SAPE  H17S16337   3.518   2.350   7.280 -1.9597 -0.5794  0.3421
  148SAPE  C21816338   3.564   2.281   7.478 -0.2296 -0.5797  0.0971
  148SAPE  H18R16339   3.618   2.197   7.527  2.7600  2.8186  2.9341
  148SAPE  H18S16340   3.467   2.286   7.531 -1.1893 -0.8996 -1.6040
  148SAPE  C21916341   3.650   2.412   7.507 -0.4107 -0.6717  0.9799
  148SAPE  H19R16342   3.581   2.492   7.473  0.7370  0.5512  1.4900
  148SAPE  H19S16343   3.745   2.418   7.451  1.0137  0.4231  3.4281
  148SAPE  C22016344   3.696   2.438   7.655  0.3056  0.0759  0.2377
  148SAPE  H20R16345   3.614   2.435   7.730 -0.4103  0.6282 -0.5177
  148SAPE  H20S16346   3.741   2.539   7.656  1.2797 -0.3316  3.3440
  148SAPE  H20T16347   3.782   2.370   7.675 -0.0947  0.2299  2.6591
  148SAPE   C3316348   3.600   3.356   6.536  0.0889  0.0635 -0.3697
  148SAPE   H3X16349   3.605   3.262   6.477  0.9284  0.2528 -0.6018
  148SAPE   H3Y16350   3.511   3.410   6.499  0.2639  2.0896  2.0809
  148SAPE   C3416351   3.579   3.319   6.681  0.1089  0.0370 -0.0854
  148SAPE   H4X16352   3.558   3.410   6.741  1.5732 -0.7938  1.7340
  148SAPE   H4Y16353   3.667   3.273   6.730 -0.0427 -0.8741 -0.6535
  148SAPE   C3516354   3.457   3.238   6.687  0.5528  0.4195  0.0441
  148SAPE   H5X16355   3.471   3.149   6.622  0.8126  0.6491 -0.2174
  148SAPE   H5Y16356   3.364   3.282   6.646 -0.2272 -1.0448  0.1930
  148SAPE   C3616357   3.433   3.197   6.835  0.1131 -0.5416 -0.3200
  148SAPE   H6X16358   3.382   3.284   6.880 -0.8098 -0.4513 -1.4932
  148SAPE   H6Y16359   3.535   3.183   6.875 -0.3480 -0.2728  0.9579
  148SAPE   C3716360   3.348   3.066   6.850 -0.5880 -0.2843  0.1056
  148SAPE   H7X16361   3.399   2.978   6.807 -0.2383 -0.0155 -0.0284
  148SAPE   H7Y16362   3.258   3.078   6.785  0.4547 -0.3319 -1.3560
  148SAPE   C3816363   3.315   3.035   6.991 -0.3986 -0.2107  0.2959
  148SAPE   H8X16364   3.265   2.936   6.986 -0.0427 -0.3238 -1.4366
  148SAPE   H8Y16365   3.244   3.109   7.035 -2.2444 -2.5491  1.3609
  148SAPE   C3916366   3.435   3.024   7.083  0.3811 -0.3166  0.4996
  148SAPE   H9X16367   3.484   3.123   7.093  0.6211 -0.5162  1.3645
  148SAPE   H9Y16368   3.517   2.969   7.033 -0.8757 -0.4359 -1.4734
  148SAPE  C31016369   3.394   2.964   7.223  0.4664 -0.6402 -0.1484
  148SAPE  H10X16370   3.346   2.863   7.219  1.4970 -1.1545  0.2167
  148SAPE  H10Y16371   3.307   3.028   7.246  0.5781  0.7246 -3.1887
  148SAPE  C31116372   3.493   2.983   7.339 -0.7669  0.1048  0.1186
  148SAPE  H11X16373   3.447   2.984   7.440  1.9305 -3.2825  1.4691
  148SAPE  H11Y16374   3.552   3.076   7.325 -2.0246  1.0239  0.8047
  148SAPE  C31216375   3.595   2.864   7.322 -0.5085  0.9987 -0.2496
  148SAPE  H12X16376   3.636   2.862   7.219 -0.4759  0.1188 -0.2217
  148SAPE  H12Y16377   3.539   2.771   7.345  1.6217 -0.1566  0.4103
  148SAPE  C31316378   3.717   2.876   7.426 -0.1260  0.1198  1.1029
  148SAPE  H13X16379   3.673   2.897   7.526  2.0580  1.5976  1.7978
  148SAPE  H13Y16380   3.784   2.957   7.391 -0.5036 -0.0362 -0.0209
  148SAPE  C31416381   3.792   2.748   7.426  0.1683  0.4228 -0.3902
  148SAPE  H14X16382   3.713   2.669   7.421 -2.7182  3.2154 -0.9214
  148SAPE  H14Y16383   3.851   2.741   7.519 -1.8660  0.4095  0.9459
  148SAPE  C31516384   3.895   2.735   7.318 -0.2887  0.3942  0.2660
  148SAPE  H15X16385   3.971   2.814   7.337 -0.0272  0.0398  0.7092
  148SAPE  H15Y16386   3.849   2.749   7.218  1.9744  3.2114 -0.4255
  148SAPE  C31616387   3.965   2.600   7.309 -0.1870 -0.9882 -0.1752
  148SAPE  H16X16388   4.025   2.594   7.216  0.6037 -1.4045  0.3570
  148SAPE  H16Y16389   3.892   2.516   7.302  0.1802 -1.4095  0.9983
  148SAPE  C31716390   4.061   2.555   7.422 -0.6110  1.2063 -0.3470
  148SAPE  H17X16391   4.006   2.545   7.518  0.1900  1.6034  0.1491
  148SAPE  H17Y16392   4.146   2.625   7.424 -0.0443  0.5074  1.0326
  148SAPE  C31816393   4.123   2.417   7.395 -0.1141 -0.1771  0.2053
  148SAPE  H18X16394   4.175   2.425   7.298  1.3430  2.3568  1.1608
  148SAPE  H18Y16395   4.051   2.333   7.383 -1.3185  1.0486 -1.3262
  148SAPE  H18Z16396   4.204   2.405   7.471 -0.0305  0.9224  0.2898
  149SAPE     N16397   2.692   3.384   6.000 -0.4826  0.1829 -0.1347
  149SAPE   HN116398   2.643   3.326   5.929 -2.1289  1.4544 -0.0671
  149SAPE   HN216399   2.791   3.376   5.972  0.4408  1.1501  2.7495
  149SAPE   HN316400   2.681   3.331   6.089 -0.3864  1.7229  0.8154
  149SAPE   C1216401   2.637   3.519   6.013  0.3042 -0.3140 -0.1941
  149SAPE  H12A16402   2.691   3.579   6.089 -0.9654  2.6526 -1.5495
  149SAPE  H12B16403   2.531   3.512   6.046 -0.4982 -0.7907 -2.8009
  149SAPE   C1116404   2.644   3.588   5.877 -0.0568  0.0255 -0.5328
  149SAPE  H11A16405   2.596   3.688   5.880 -1.9490 -0.7300 -3.4169
  149SAPE  H11B16406   2.580   3.528   5.808  0.5104  0.6213 -1.5753
  149SAPE     P16407   2.839   3.720   5.776 -0.2624  0.2987 -0.2482
  149SAPE   O1316408   2.942   3.665   5.679  0.0603  0.1158 -0.4519
  149SAPE   O1416409   2.741   3.809   5.713 -0.1015  0.6007  0.1017
  149SAPE   O1216410   2.778   3.586   5.826  0.6888  0.7785  0.0451
  149SAPE   O1116411   2.919   3.793   5.890  0.3234  0.2755 -0.4107
  149SAPE    C116412   3.004   3.711   5.979  0.3709 -0.5921 -0.8543
  149SAPE    HA16413   2.935   3.664   6.053 -0.4770 -0.7651 -1.7335
  149SAPE    HB16414   3.054   3.624   5.932 -0.6386 -1.7861  0.2368
  149SAPE    C216415   3.107   3.795   6.045 -0.3884 -0.5204 -0.1553
  149SAPE    HS16416   3.163   3.837   5.958  1.3831 -1.4287  0.5207
  149SAPE   O2116417   3.188   3.714   6.131  0.1869 -0.8449 -0.0574
  149SAPE   C2116418   3.298   3.774   6.175  0.1351 -0.0950  0.3865
  149SAPE   O2216419   3.344   3.887   6.141 -0.0886  0.1254  0.1688
  149SAPE   C2216420   3.355   3.687   6.291  0.7368  0.5841 -0.0722
  149SAPE   H2R16421   3.299   3.723   6.380 -3.4485 -0.0370 -2.3058
  149SAPE   H2S16422   3.334   3.579   6.277 -0.7519  0.9857 -1.1472
  149SAPE    C316423   3.046   3.922   6.114  0.2526 -0.4945 -0.1806
  149SAPE    HX16424   3.008   3.988   6.033 -0.1590  0.8171  1.0718
  149SAPE    HY16425   3.124   3.983   6.164 -0.7003  0.6819 -0.1107
  149SAPE   O3116426   2.937   3.881   6.196  0.0487  0.2754  0.0346
  149SAPE   C3116427   2.965   3.845   6.330  0.8440  0.6545 -0.0561
  149SAPE   O3216428   3.077   3.854   6.373 -0.2073 -0.0710 -0.1429
  149SAPE   C3216429   2.837   3.804   6.398  0.2126  0.4483  0.5473
  149SAPE   H2X16430   2.792   3.736   6.322  1.8928  0.3487 -0.3848
  149SAPE   H2Y16431   2.773   3.894   6.408  1.6315  1.4499  0.8413
  149SAPE   C2316432   3.504   3.715   6.306  0.1288  0.5117  0.4842
  149SAPE   H3R16433   3.556   3.723   6.208  0.5920 -0.1081  0.6811
  149SAPE   H3S16434   3.543   3.634   6.370  1.3053  3.0449  3.1022
  149SAPE   C2416435   3.539   3.847   6.378  0.0024 -0.2200  0.1316
  149SAPE   H4R16436   3.458   3.877   6.448  0.9064  0.4744  0.9040
  149SAPE   H4S16437   3.531   3.928   6.302  0.0770  0.2098  0.5812
  149SAPE   C2516438   3.667   3.864   6.463 -0.2642  0.0536  1.0115
  149SAPE   H5R16439   3.744   3.907   6.398 -1.1522 -0.4766 -0.4032
  149SAPE   C2616440   3.686   3.853   6.598  0.3626  0.3999  0.3300
  149SAPE   H6R16441   3.785   3.875   6.640  0.7271  1.1959 -0.9076
  149SAPE   C2716442   3.586   3.816   6.704  0.2869  0.3867 -0.1718
  149SAPE   H7R16443   3.532   3.908   6.735  0.0933 -0.0168  0.7071
  149SAPE   H7S16444   3.636   3.775   6.794  2.1997  0.8394 -1.0193
  149SAPE   C2816445   3.484   3.709   6.670  0.0616 -0.3243  0.0826
  149SAPE   H8R16446   3.515   3.639   6.591  2.2429 -1.0424  1.5123
  149SAPE   C2916447   3.357   3.704   6.727  0.4837  0.3033 -0.4624
  149SAPE   H9R16448   3.289   3.623   6.697  2.1182 -1.1614 -0.3085
  149SAPE  C21016449   3.313   3.801   6.836 -0.5769  0.6494  0.0878
  149SAPE  H10R16450   3.402   3.860   6.871  0.0915 -0.2869 -0.0207
  149SAPE  H10S16451   3.282   3.740   6.924 -0.8623 -0.0511 -0.5042
  149SAPE  C21116452   3.224   3.917   6.790 -0.5043 -0.0398  0.2172
  149SAPE  H11R16453   3.216   3.949   6.685 -2.7512 -3.3903 -0.6770
  149SAPE  C21216454   3.152   3.985   6.881 -0.4787  0.2692 -0.0088
  149SAPE  H12R16455   3.098   4.075   6.848 -1.2067 -0.0249  0.3720
  149SAPE  C21316456   3.136   3.946   7.024  0.4011 -0.5256 -0.5106
  149SAPE  H13R16457   3.122   3.837   7.041  3.8442 -1.1007 -1.1255
  149SAPE  H13S16458   3.033   3.977   7.054  0.1208 -0.4346 -1.5459
  149SAPE  C21416459   3.240   4.000   7.117  0.3966  0.5068 -0.0484
  149SAPE  H14R16460   3.334   4.011   7.060  0.5696 -0.5641  0.0207
  149SAPE  C21516461   3.239   4.032   7.245  0.2294  0.0978 -0.5532
  149SAPE  H15R16462   3.334   4.057   7.294 -0.2663 -0.4833  0.7490
  149SAPE  C21616463   3.131   4.027   7.349  0.5099  0.4476 -0.3541
  149SAPE  H16R16464   3.167   3.976   7.441 -0.9542  0.3356  0.1728
  149SAPE  H16S16465   3.052   3.960   7.308  0.5083 -0.8517  1.6648
  149SAPE  C21716466   3.068   4.168   7.380 -0.6058 -0.1589 -0.2566
  149SAPE  H17R16467   3.029   4.210   7.285 -0.7983 -0.7235 -0.4328
  149SAPE  H17S16468   3.144   4.234   7.426 -1.1380 -0.1048  0.5764
  149SAPE  C21816469   2.952   4.147   7.469 -0.4350  0.2140 -0.4597
  149SAPE  H18R16470   2.979   4.106   7.568  1.7102 -0.4106 -1.2753
  149SAPE  H18S16471   2.898   4.060   7.424  0.7399 -0.9999  0.4205
  149SAPE  C21916472   2.873   4.276   7.476 -0.8657 -0.2965  0.3371
  149SAPE  H19R16473   2.816   4.285   7.381 -0.9605 -1.1575  0.3150
  149SAPE  H19S16474   2.942   4.364   7.473 -0.1007 -0.7646  3.0056
  149SAPE  C22016475   2.771   4.292   7.589 -0.7048  0.4365 -0.9930
  149SAPE  H20R16476   2.827   4.286   7.685  0.1041  1.4413 -1.3856
  149SAPE  H20S16477   2.703   4.205   7.588 -1.6503  1.1737 -1.4185
  149SAPE  H20T16478   2.715   4.388   7.597  0.4409  0.9104  2.0666
  149SAPE   C3316479   2.847   3.726   6.535  0.2870 -0.4325 -0.3049
  149SAPE   H3X16480   2.930   3.654   6.525  0.3665 -0.4243  0.2709
  149SAPE   H3Y16481   2.756   3.663   6.544 -1.3098  1.7182 -0.8600
  149SAPE   C3416482   2.871   3.809   6.660 -0.2056 -0.2298  0.1518
  149SAPE   H4X16483   2.799   3.893   6.657 -0.2398 -0.2744 -0.2808
  149SAPE   H4Y16484   2.975   3.844   6.643 -0.2368  0.8308  2.0305
  149SAPE   C3516485   2.846   3.721   6.780  0.0979  0.5281  0.4024
  149SAPE   H5X16486   2.748   3.669   6.772  0.4944 -0.5817  2.3193
  149SAPE   H5Y16487   2.836   3.794   6.863 -1.6052  1.9653 -1.0527
  149SAPE   C3616488   2.951   3.608   6.804  0.4489 -0.6562  0.1629
  149SAPE   H6X16489   3.045   3.663   6.824  0.9155 -0.9031 -1.2635
  149SAPE   H6Y16490   2.974   3.546   6.714 -1.7560 -1.1677 -0.0816
  149SAPE   C3716491   2.928   3.526   6.931  0.2214  0.9783 -0.2595
  149SAPE   H7X16492   2.871   3.432   6.914  1.7558 -0.2891  1.3779
  149SAPE   H7Y16493   2.867   3.592   6.995  1.2080  2.1311 -0.4943
  149SAPE   C3816494   3.058   3.479   7.009 -0.3610  0.6907  1.3434
  149SAPE   H8X16495   3.141   3.550   6.987 -0.7392  0.5011 -0.8040
  149SAPE   H8Y16496   3.096   3.383   6.968  0.4144  1.4209  0.3019
  149SAPE   C3916497   3.040   3.468   7.165 -0.4189  0.0918  0.4530
  149SAPE   H9X16498   3.130   3.431   7.219  0.2212 -0.7532 -1.1718
  149SAPE   H9Y16499   2.959   3.393   7.177 -0.4083 -0.0830 -0.5329
  149SAPE  C31016500   2.990   3.600   7.234 -0.0460 -0.3611  0.6934
  149SAPE  H10X16501   2.903   3.643   7.181  0.7409 -1.3179 -1.4803
  149SAPE  H10Y16502   3.083   3.660   7.224  0.7889 -1.4132  1.9699
  149SAPE  C31116503   2.944   3.580   7.375 -0.0482  1.8493 -0.0649
  149SAPE  H11X16504   3.012   3.508   7.427 -1.9826  0.3176  0.4368
  149SAPE  H11Y16505   2.841   3.539   7.376  0.4562  0.5379  1.3899
  149SAPE  C31216506   2.934   3.708   7.452 -0.0879  0.3954 -0.6936
  149SAPE  H12X16507   2.885   3.779   7.382 -0.4223  0.3523 -0.5051
  149SAPE  H12Y16508   3.036   3.743   7.479 -0.3556  1.2620 -0.8014
  149SAPE  C31316509   2.850   3.704   7.584  0.4339  0.0490 -0.4922
  149SAPE  H13X16510   2.880   3.620   7.650  1.8457  0.5640 -0.4588
  149SAPE  H13Y16511   2.752   3.677   7.541 -1.2534 -0.3580  3.4155
  149SAPE  C31416512   2.850   3.832   7.662 -0.1428 -0.2792 -0.0307
  149SAPE  H14X16513   2.753   3.857   7.711 -1.1055  0.7203 -2.3680
  149SAPE  H14Y16514   2.855   3.915   7.589 -0.9732 -0.7447 -0.6309
  149SAPE  C31516515   2.966   3.843   7.764  0.1384 -0.1772  0.0208
  149SAPE  H15X16516   3.055   3.807   7.706 -1.0093 -0.7184 -1.4357
  149SAPE  H15Y16517   2.957   3.770   7.847 -0.3498 -1.5563 -1.2175
  149SAPE  C31616518   2.989   3.983   7.814  0.6242 -0.3424 -0.6467
  149SAPE  H16X16519   2.894   4.041   7.805  0.4091 -0.6424 -0.3071
  149SAPE  H16Y16520   3.064   4.031   7.748 -0.4754  3.8896  0.9975
  149SAPE  C31716521   3.043   3.986   7.961 -0.1305  0.0348 -0.4170
  149SAPE  H17X16522   3.137   3.927   7.967  1.2634  2.3374  1.1312
  149SAPE  H17Y16523   2.956   3.950   8.019  0.9023 -1.1258  0.4465
  149SAPE  C31816524   3.073   4.126   8.024  0.5858 -0.4650  0.5158
  149SAPE  H18X16525   3.056   4.119   8.133 -1.1686 -2.1898  0.1589
  149SAPE  H18Y16526   3.007   4.209   7.988  0.3423 -1.5302 -1.5958
  149SAPE  H18Z16527   3.172   4.168   7.998  0.4438 -1.4798 -1.7910
  150SAPE     N16528   2.373   4.874   5.905  0.4876  0.8077  0.5701
  150SAPE   HN116529   2.300   4.832   5.967  0.6219  2.0486  1.5819
  150SAPE   HN216530   2.457   4.819   5.932 -0.2925 -0.4828  0.4522
  150SAPE   HN316531   2.396   4.974   5.917  0.7334  1.1318 -2.3402
  150SAPE   C1216532   2.335   4.852   5.761  0.0339 -0.6618  0.3274
  150SAPE  H12A16533   2.423   4.879   5.699  0.4501 -2.5411  0.0557
  150SAPE  H12B16534   2.253   4.918   5.726  0.6691  0.1385  0.3456
  150SAPE   C1116535   2.296   4.703   5.741 -0.1977 -0.5563 -0.5738
  150SAPE  H11A16536   2.277   4.703   5.631 -0.2521  2.3067 -0.6230
  150SAPE  H11B16537   2.197   4.693   5.791 -0.7460 -0.0278 -1.5276
  150SAPE     P16538   2.390   4.464   5.725  0.1805 -0.2402  0.0770
  150SAPE   O1316539   2.436   4.465   5.580  0.5123 -0.0311 -0.2268
  150SAPE   O1416540   2.461   4.382   5.817  0.0106  0.4750 -0.3086
  150SAPE   O1216541   2.390   4.610   5.780  0.2073  0.4764 -0.0929
  150SAPE   O1116542   2.237   4.436   5.733  0.4100  0.2033  0.6624
  150SAPE    C116543   2.167   4.345   5.811  0.2935 -0.0259  0.6432
  150SAPE    HA16544   2.069   4.326   5.761 -0.1018  0.8564  1.0793
  150SAPE    HB16545   2.210   4.244   5.829  1.5604  0.7893  2.2801
  150SAPE    C216546   2.132   4.399   5.949  0.0233  0.4054 -0.0443
  150SAPE    HS16547   2.130   4.509   5.934  1.1015  0.6750  1.6238
  150SAPE   O2116548   2.234   4.359   6.040  0.1604  0.2774 -0.0835
  150SAPE   C2116549   2.247   4.428   6.152 -0.4129  0.1586 -0.0719
  150SAPE   O2216550   2.204   4.538   6.174 -0.1370 -0.3490 -0.1839
  150SAPE   C2216551   2.331   4.354   6.257 -0.0312  0.3730 -0.8667
  150SAPE   H2R16552   2.291   4.253   6.282 -0.4339  0.2057 -2.1900
  150SAPE   H2S16553   2.430   4.326   6.215  1.1361  0.9931  1.3847
  150SAPE    C316554   1.989   4.365   6.003  0.0141  0.4031 -0.4333
  150SAPE    HX16555   1.918   4.385   5.920 -1.7835  1.7360  1.3803
  150SAPE    HY16556   1.961   4.438   6.083 -1.6216 -0.7836  0.0958
  150SAPE   O3116557   1.970   4.228   6.050 -0.0885  0.5100 -0.4832
  150SAPE   C3116558   1.979   4.208   6.184  0.4477  0.3522  0.4514
  150SAPE   O3216559   1.991   4.294   6.266  0.0399 -0.2701 -0.2566
  150SAPE   C3216560   1.958   4.064   6.206 -0.1930  0.2296  0.8328
  150SAPE   H2X16561   2.046   4.016   6.159  1.1635  0.0986  3.4238
  150SAPE   H2Y16562   1.870   4.040   6.142  2.2129 -0.6407 -2.2310
  150SAPE   C2316563   2.336   4.435   6.390 -0.3823  0.8568  0.5234
  150SAPE   H3R16564   2.233   4.431   6.429 -0.1976 -0.1689  0.9373
  150SAPE   H3S16565   2.340   4.545   6.377 -1.9425  1.0706  1.7263
  150SAPE   C2416566   2.452   4.389   6.474  0.6052 -0.2397 -0.1076
  150SAPE   H4R16567   2.470   4.471   6.546 -1.3873  0.0352  0.1217
  150SAPE   H4S16568   2.542   4.394   6.409 -0.5028 -0.9432 -1.7487
  150SAPE   C2516569   2.432   4.252   6.541  1.0730  1.0074  0.2198
  150SAPE   H5R16570   2.393   4.172   6.476  1.2442 -0.4058  1.8200
  150SAPE   C2616571   2.446   4.222   6.676 -0.9060  0.5281 -0.0661
  150SAPE   H6R16572   2.452   4.114   6.698 -1.2563  0.2276 -1.4417
  150SAPE   C2716573   2.476   4.323   6.782  0.2641  0.2815  0.5250
  150SAPE   H7R16574   2.422   4.419   6.765 -0.2100  0.0841  0.9446
  150SAPE   H7S16575   2.579   4.363   6.767  0.7036 -0.4106  1.6715
  150SAPE   C2816576   2.451   4.272   6.920 -0.1360 -0.3113 -0.1409
  150SAPE   H8R16577   2.367   4.323   6.969  0.9749  0.6765  0.7746
  150SAPE   C2916578   2.520   4.177   6.988  0.6076 -0.2136 -0.5344
  150SAPE   H9R16579   2.482   4.150   7.087  1.7622  1.4221  0.3731
  150SAPE  C21016580   2.637   4.094   6.945 -0.1741 -1.0567 -0.2648
  150SAPE  H10R16581   2.664   4.113   6.839 -1.4269 -1.5533 -0.6751
  150SAPE  H10S16582   2.605   3.987   6.940 -0.2478 -1.0736  0.5389
  150SAPE  C21116583   2.763   4.093   7.028 -0.4437  0.0403  0.0620
  150SAPE  H11R16584   2.858   4.128   6.984  0.5852 -2.4424  0.1909
  150SAPE  C21216585   2.777   4.034   7.151  0.2116  0.0003  0.3879
  150SAPE  H12R16586   2.866   4.025   7.215  0.8436 -2.2539 -0.7715
  150SAPE  C21316587   2.664   3.962   7.225 -0.1827  0.1805  0.3768
  150SAPE  H13R16588   2.707   3.863   7.251  0.1687 -0.1039 -1.2016
  150SAPE  H13S16589   2.587   3.943   7.147 -0.9439  1.6845  0.7416
  150SAPE  C21416590   2.618   4.051   7.339 -0.7839  0.0201 -1.0807
  150SAPE  H14R16591   2.679   4.139   7.366  1.0303 -1.5797  0.1720
  150SAPE  C21516592   2.513   4.025   7.418 -0.0112  0.0252  0.0767
  150SAPE  H15R16593   2.482   4.093   7.499  0.1550 -1.4925  1.4448
  150SAPE  C21616594   2.419   3.906   7.401  0.1056  0.2651 -0.0301
  150SAPE  H16R16595   2.414   3.874   7.295  2.2620  0.2578 -0.1429
  150SAPE  H16S16596   2.319   3.946   7.426 -0.0403 -1.1001  1.6163
  150SAPE  C21716597   2.449   3.784   7.491  0.5959 -0.8869  0.2549
  150SAPE  H17R16598   2.555   3.755   7.480  0.6830 -0.3630 -0.2731
  150SAPE  H17S16599   2.384   3.700   7.458  0.0838  0.3748 -1.9733
  150SAPE  C21816600   2.440   3.807   7.648  0.1012 -0.1939  0.3380
  150SAPE  H18R16601   2.498   3.897   7.679 -3.0666  2.3004 -0.6685
  150SAPE  H18S16602   2.479   3.713   7.690  2.4720  1.5981  2.3063
  150SAPE  C21916603   2.296   3.829   7.705  0.7635  0.3233 -0.3460
  150SAPE  H19R16604   2.219   3.769   7.653  0.0290  1.7430 -0.9291
  150SAPE  H19S16605   2.289   3.939   7.694 -0.9197  0.2943  0.3966
  150SAPE  C22016606   2.275   3.784   7.855  0.0690 -0.0370 -0.6982
  150SAPE  H20R16607   2.336   3.849   7.921  0.9628 -1.0336 -0.5260
  150SAPE  H20S16608   2.315   3.681   7.869 -0.4826 -0.1126  0.3091
  150SAPE  H20T16609   2.167   3.790   7.880 -0.0741 -1.8704 -0.8439
  150SAPE   C3316610   1.941   4.025   6.349 -0.4625  1.1568 -0.1578
  150SAPE   H3X16611   1.905   3.920   6.346  0.0343  0.8708  2.3172
  150SAPE   H3Y16612   1.882   4.099   6.408  0.3948  1.2817  0.5707
  150SAPE   C3416613   2.084   4.033   6.418  0.0384  0.5479  0.5890
  150SAPE   H4X16614   2.128   4.133   6.399  1.9504 -0.3912 -0.1293
  150SAPE   H4Y16615   2.147   3.958   6.365  0.6766  0.3096  1.6857
  150SAPE   C3516616   2.069   3.997   6.560  0.3447 -0.4871 -0.4756
  150SAPE   H5X16617   2.163   4.005   6.618 -0.1214  2.6388 -0.0864
  150SAPE   H5Y16618   2.034   3.891   6.562 -0.2515 -0.2899  1.5806
  150SAPE   C3616619   1.972   4.089   6.654 -0.5798  0.4507 -0.1370
  150SAPE   H6X16620   1.870   4.053   6.628 -0.1455 -0.8869 -0.0503
  150SAPE   H6Y16621   1.984   4.199   6.646  0.1344  0.4034  0.2119
  150SAPE   C3716622   1.989   4.047   6.802  0.3950  0.1556  0.1720
  150SAPE   H7X16623   1.992   3.936   6.806  0.8199  0.1670  0.1622
  150SAPE   H7Y16624   1.898   4.084   6.853 -0.3814 -1.2140 -0.2062
  150SAPE   C3816625   2.116   4.090   6.863 -0.1100 -0.7925 -1.0721
  150SAPE   H8X16626   2.117   4.200   6.878  1.2349 -1.3015  3.4241
  150SAPE   H8Y16627   2.201   4.087   6.792 -0.8136 -0.0266 -1.9548
  150SAPE   C3916628   2.149   4.019   6.990  0.3362 -0.2481  0.4812
  150SAPE   H9X16629   2.242   4.057   7.038  1.0720 -1.4510  0.0468
  150SAPE   H9Y16630   2.180   3.913   6.975  1.6658  0.1334  0.4476
  150SAPE  C31016631   2.058   4.051   7.104 -0.5452 -0.7514  0.3157
  150SAPE  H10X16632   1.955   4.018   7.079 -1.0056  0.9332 -0.0329
  150SAPE  H10Y16633   2.054   4.161   7.122  2.2050 -0.1312 -2.4247
  150SAPE  C31116634   2.091   3.969   7.233 -0.1559  0.1245 -0.5540
  150SAPE  H11X16635   2.198   3.997   7.247 -0.0621 -0.2743 -0.4573
  150SAPE  H11Y16636   2.078   3.860   7.216  3.0629 -0.1474 -1.6850
  150SAPE  C31216637   1.991   4.008   7.337  0.4993  0.1363  0.2090
  150SAPE  H12X16638   1.891   3.985   7.295  0.0514 -0.1465  1.4102
  150SAPE  H12Y16639   1.991   4.118   7.345 -0.4954  0.0350  1.8818
  150SAPE  C31316640   2.007   3.951   7.478  0.8891  0.5712 -0.6159
  150SAPE  H13X16641   2.115   3.957   7.500  1.3531 -0.7831 -2.3764
  150SAPE  H13Y16642   1.975   3.845   7.488  3.9777 -0.3813 -0.4819
  150SAPE  C31416643   1.941   4.033   7.585  0.4755  0.0152 -0.3462
  150SAPE  H14X16644   1.980   4.137   7.587 -1.4482  0.7765 -1.1142
  150SAPE  H14Y16645   1.975   3.986   7.679  1.5805 -0.9075 -1.1798
  150SAPE  C31516646   1.785   4.037   7.581  0.1846  0.5217 -0.4511
  150SAPE  H15X16647   1.758   3.944   7.636 -0.8211  0.1708 -1.5149
  150SAPE  H15Y16648   1.741   4.033   7.479 -0.6863  1.0169 -0.0944
  150SAPE  C31616649   1.711   4.148   7.656  0.3740 -0.6295 -0.2352
  150SAPE  H16X16650   1.604   4.120   7.667  0.2039  0.1252  0.0132
  150SAPE  H16Y16651   1.738   4.245   7.611 -0.7452  0.4487  1.3752
  150SAPE  C31716652   1.748   4.162   7.807  0.3293 -0.4334 -0.9123
  150SAPE  H17X16653   1.854   4.192   7.816  0.2242 -0.3668  0.2401
  150SAPE  H17Y16654   1.742   4.068   7.866 -0.7938 -0.8826 -1.7333
  150SAPE  C31816655   1.667   4.262   7.896 -0.2366 -0.2483  0.1590
  150SAPE  H18X16656   1.694   4.247   8.003  0.3601  1.0074  0.1916
  150SAPE  H18Y16657   1.558   4.243   7.882 -0.3071  0.9646 -1.0383
  150SAPE  H18Z16658   1.681   4.371   7.879  0.6813 -0.0125  2.2399
  151SAPE     N16659   4.242   2.526   5.567  0.5384  0.0436  0.0327
  151SAPE   HN116660   4.329   2.477   5.540 -1.4444 -2.4413 -2.0878
  151SAPE   HN216661   4.165   2.476   5.518 -0.9396  1.2205  1.1059
  151SAPE   HN316662   4.250   2.626   5.539 -2.9830 -0.1698 -2.0641
  151SAPE   C1216663   4.204   2.507   5.715 -0.2896 -0.3634 -0.0558
  151SAPE  H12A16664   4.168   2.404   5.736 -0.4908 -0.6089 -1.5485
  151SAPE  H12B16665   4.120   2.579   5.730  1.5593  1.6117  1.0021
  151SAPE   C1116666   4.322   2.530   5.808 -0.3610 -0.4498 -0.0119
  151SAPE  H11A16667   4.298   2.482   5.906  0.3792 -0.0169  0.3865
  151SAPE  H11B16668   4.337   2.640   5.820 -0.2153 -0.7297  2.7208
  151SAPE     P16669   4.580   2.516   5.815  0.0774 -0.2250  0.0695
  151SAPE   O1316670   4.677   2.429   5.745 -0.1158  0.1991  0.6066
  151SAPE   O1416671   4.592   2.662   5.799  0.0987 -0.0872  0.9740
  151SAPE   O1216672   4.437   2.466   5.753  0.3607 -0.0477 -0.1194
  151SAPE   O1116673   4.579   2.483   5.967  0.2084 -0.3417 -0.1794
  151SAPE    C116674   4.534   2.369   6.036 -0.4081 -0.8388  0.2795
  151SAPE    HA16675   4.438   2.380   6.091  0.8149 -2.5709  2.8294
  151SAPE    HB16676   4.524   2.288   5.960  1.4643 -0.8604  0.0538
  151SAPE    C216677   4.639   2.323   6.138  0.6803  0.2041 -0.0745
  151SAPE    HS16678   4.717   2.269   6.081  1.1056  1.0975 -0.3518
  151SAPE   O2116679   4.583   2.259   6.258  0.1491  0.1826  0.3100
  151SAPE   C2116680   4.618   2.136   6.273  1.0791  0.3997 -0.1820
  151SAPE   O2216681   4.696   2.073   6.202  0.7346  0.1514  0.2278
  151SAPE   C2216682   4.525   2.066   6.363 -0.0210  0.2225 -0.2328
  151SAPE   H2R16683   4.519   2.114   6.464  0.7835  0.6465 -0.3802
  151SAPE   H2S16684   4.421   2.078   6.325 -0.1955 -1.8475 -0.4393
  151SAPE    C316685   4.714   2.453   6.189 -0.5183 -0.5499 -0.5045
  151SAPE    HX16686   4.641   2.510   6.249 -2.0956 -1.1630 -1.8203
  151SAPE    HY16687   4.739   2.513   6.098  1.8232  2.5111  2.0531
  151SAPE   O3116688   4.835   2.426   6.259  0.0700  0.1044  0.2158
  151SAPE   C3116689   4.945   2.394   6.181  0.4940  0.3202  0.6515
  151SAPE   O3216690   4.948   2.413   6.059  0.2377  0.1777  0.0176
  151SAPE   C3216691   5.049   2.330   6.273 -0.5026 -0.1889  0.0365
  151SAPE   H2X16692   5.025   2.351   6.380 -1.1144  0.6288 -0.2670
  151SAPE   H2Y16693   5.149   2.374   6.252 -1.2830  0.9884 -1.2502
  151SAPE   C2316694   4.545   1.917   6.378 -1.1509  0.4531 -0.0581
  151SAPE   H3R16695   4.575   1.857   6.289 -2.7263 -0.5264  0.0504
  151SAPE   H3S16696   4.443   1.872   6.384 -0.7414 -0.3204  1.2372
  151SAPE   C2416697   4.636   1.881   6.500  0.5288  0.6713  0.1477
  151SAPE   H4R16698   4.626   1.773   6.526  1.8436  0.2266 -1.1459
  151SAPE   H4S16699   4.595   1.950   6.578 -0.4602  2.0899 -1.5939
  151SAPE   C2516700   4.784   1.893   6.477 -0.9676 -0.0528 -0.3901
  151SAPE   H5R16701   4.812   1.849   6.380 -1.5169  0.2887 -0.7014
  151SAPE   C2616702   4.881   1.942   6.556 -0.8618 -0.0707  0.4131
  151SAPE   H6R16703   4.985   1.951   6.522 -0.7939  1.6732  1.0087
  151SAPE   C2716704   4.865   2.003   6.696  0.5479 -0.1834  0.4924
  151SAPE   H7R16705   4.949   1.968   6.759 -0.0717 -0.0773  1.3976
  151SAPE   H7S16706   4.771   1.965   6.742 -0.3060  0.2045 -0.8835
  151SAPE   C2816707   4.872   2.152   6.691  0.1296 -0.0346  0.2419
  151SAPE   H8R16708   4.899   2.210   6.602  0.2815 -2.6362 -1.4550
  151SAPE   C2916709   4.826   2.238   6.790 -0.3203  0.0557  0.2614
  151SAPE   H9R16710   4.822   2.341   6.751 -0.7172  0.2192  0.7170
  151SAPE  C21016711   4.762   2.211   6.930  0.3784 -0.2572  0.0545
  151SAPE  H10R16712   4.749   2.101   6.944 -1.4114 -0.4317 -2.6711
  151SAPE  H10S16713   4.659   2.251   6.919  0.4912  0.2733  0.8919
  151SAPE  C21116714   4.831   2.282   7.044 -0.1312 -0.8918 -0.3486
  151SAPE  H11R16715   4.923   2.340   7.026 -1.6835  1.8172  0.2390
  151SAPE  C21216716   4.795   2.260   7.175  0.4131  0.0408 -0.2541
  151SAPE  H12R16717   4.843   2.308   7.262 -2.4656 -2.5475  2.9409
  151SAPE  C21316718   4.676   2.175   7.220  0.6962  0.3441 -0.3592
  151SAPE  H13R16719   4.727   2.085   7.259 -0.3949  0.1849  0.7176
  151SAPE  H13S16720   4.598   2.141   7.148  0.9647  0.5796 -0.7653
  151SAPE  C21416721   4.607   2.230   7.342 -0.7403  0.3523  0.4601
  151SAPE  H14R16722   4.674   2.290   7.405 -0.7225  1.6354 -0.7392
  151SAPE  C21516723   4.480   2.204   7.374 -0.0659 -0.4232  0.0812
  151SAPE  H15R16724   4.435   2.230   7.471 -1.7478 -0.3301 -0.7112
  151SAPE  C21616725   4.370   2.124   7.303 -0.6335 -0.0720 -0.6925
  151SAPE  H16R16726   4.385   2.121   7.193  3.3652 -0.9933 -0.2018
  151SAPE  H16S16727   4.275   2.166   7.341 -0.3533  0.0958 -0.1741
  151SAPE  C21716728   4.364   1.972   7.344  0.1059 -0.1375 -0.2819
  151SAPE  H17R16729   4.456   1.930   7.297  1.6533  1.1679  1.5057
  151SAPE  H17S16730   4.278   1.936   7.283  0.2701 -1.3488  0.1780
  151SAPE  C21816731   4.359   1.958   7.494  0.0211  0.0596 -0.2163
  151SAPE  H18R16732   4.263   2.003   7.529 -0.1590 -1.4250  1.2687
  151SAPE  H18S16733   4.448   2.001   7.543  0.5293 -0.1078 -0.9804
  151SAPE  C21916734   4.373   1.807   7.535  0.5904  0.2211 -0.2471
  151SAPE  H19R16735   4.457   1.763   7.478 -0.5753  2.0507 -3.4998
  151SAPE  H19S16736   4.277   1.759   7.507  0.6667  0.4022 -0.8016
  151SAPE  C22016737   4.387   1.787   7.690 -0.5249 -0.5174  0.0742
  151SAPE  H20R16738   4.378   1.681   7.723  1.1681 -1.1718 -1.4626
  151SAPE  H20S16739   4.489   1.820   7.720 -0.0647 -1.0051 -0.9326
  151SAPE  H20T16740   4.314   1.850   7.744 -0.8408  1.2378 -2.3191
  151SAPE   C3316741   5.052   2.177   6.248 -0.2525  0.4847 -0.1818
  151SAPE   H3X16742   5.105   2.143   6.156  1.4262 -1.4922  1.4660
  151SAPE   H3Y16743   4.949   2.137   6.256 -0.3914  1.0694  1.0455
  151SAPE   C3416744   5.128   2.104   6.360 -0.2316  0.0343  0.1766
  151SAPE   H4X16745   5.107   1.996   6.344 -2.1008  0.2275  1.1654
  151SAPE   H4Y16746   5.088   2.134   6.460  1.1292 -1.3208  1.1451
  151SAPE   C3516747   5.280   2.137   6.360 -0.2250  0.4951 -0.0497
  151SAPE   H5X16748   5.290   2.241   6.399  1.2776  0.5658 -0.6041
  151SAPE   H5Y16749   5.318   2.121   6.257  1.5400  1.2726  0.4594
  151SAPE   C3616750   5.356   2.032   6.442  0.0946 -0.4499  0.2989
  151SAPE   H6X16751   5.462   2.062   6.423  0.0111  0.5072  1.3291
  151SAPE   H6Y16752   5.333   1.930   6.403  1.2244 -0.9080  0.7913
  151SAPE   C3716753   5.336   2.027   6.594 -0.1836  0.5704 -0.8159
  151SAPE   H7X16754   5.231   2.021   6.627  0.1539  1.2354  0.4119
  151SAPE   H7Y16755   5.376   2.116   6.646 -0.7208  0.9034 -0.9709
  151SAPE   C3816756   5.414   1.911   6.655 -0.0213  1.3702 -0.5389
  151SAPE   H8X16757   5.516   1.922   6.613  1.3785  0.7603  2.5823
  151SAPE   H8Y16758   5.367   1.812   6.636  3.2388 -0.4067  0.3069
  151SAPE   C3916759   5.412   1.942   6.810 -0.2628 -0.1948  0.0931
  151SAPE   H9X16760   5.451   2.039   6.848 -1.1992  0.4630 -0.6335
  151SAPE   H9Y16761   5.479   1.865   6.855  1.1206  0.5903 -0.5967
  151SAPE  C31016762   5.269   1.930   6.867 -0.3591 -0.2557  0.8011
  151SAPE  H10X16763   5.208   1.858   6.807 -0.0030 -0.0560  0.1922
  151SAPE  H10Y16764   5.217   2.027   6.850  1.9297  0.8098 -0.3642
  151SAPE  C31116765   5.272   1.903   7.016  0.2508 -0.1468 -0.6618
  151SAPE  H11X16766   5.301   1.997   7.069  1.2703 -2.3798  2.8933
  151SAPE  H11Y16767   5.359   1.835   7.029  0.7899  0.4390 -1.1281
  151SAPE  C31216768   5.136   1.836   7.053 -0.0663 -0.2684  0.1229
  151SAPE  H12X16769   5.148   1.778   7.147  4.7696 -0.0939 -0.2568
  151SAPE  H12Y16770   5.105   1.770   6.970 -1.4699  3.5098 -2.5015
  151SAPE  C31316771   5.021   1.941   7.079 -0.1340  0.2425  0.8519
  151SAPE  H13X16772   5.011   2.011   6.993  1.7971 -0.7414 -0.2100
  151SAPE  H13Y16773   5.036   2.003   7.171  0.5411  2.5475 -0.7646
  151SAPE  C31416774   4.895   1.861   7.098  0.1810 -0.0564 -0.4344
  151SAPE  H14X16775   4.871   1.811   7.002 -0.2516  0.3564 -0.5477
  151SAPE  H14Y16776   4.815   1.936   7.117  0.6443  0.1267  0.8145
  151SAPE  C31516777   4.906   1.764   7.214  0.7436  0.1632 -0.6288
  151SAPE  H15X16778   4.931   1.814   7.310  1.2312  0.2677 -0.8095
  151SAPE  H15Y16779   4.980   1.683   7.199  2.6276  1.3513  1.8292
  151SAPE  C31616780   4.781   1.678   7.249  0.1323 -0.9433  0.1345
  151SAPE  H16X16781   4.759   1.618   7.158  1.3572  1.1014 -1.5637
  151SAPE  H16Y16782   4.691   1.744   7.252  1.2056  0.5933 -0.4890
  151SAPE  C31716783   4.796   1.602   7.384  1.1925  0.1799 -0.0470
  151SAPE  H17X16784   4.899   1.562   7.391  2.1874  1.8169 -3.9853
  151SAPE  H17Y16785   4.735   1.510   7.378 -0.1080  0.9389  1.2555
  151SAPE  C31816786   4.768   1.678   7.514  0.5901  0.2596  0.8451
  151SAPE  H18X16787   4.833   1.768   7.522 -0.1472  0.6823  2.1690
  151SAPE  H18Y16788   4.796   1.619   7.604  0.2435  0.9197  1.3913
  151SAPE  H18Z16789   4.664   1.717   7.512  0.6595  0.4206 -0.0433
  152SAPE     N16790   1.367   4.563   6.012  0.2158  0.3273 -0.1512
  152SAPE   HN116791   1.337   4.603   6.103  2.2667 -0.3246  0.8498
  152SAPE   HN216792   1.456   4.516   6.037 -1.1150 -2.0015  0.3863
  152SAPE   HN316793   1.389   4.643   5.951  0.0238  0.1420 -0.4671
  152SAPE   C1216794   1.273   4.474   5.932 -0.1899 -0.0650  0.5044
  152SAPE  H12A16795   1.202   4.430   6.005 -1.4276 -1.7388 -1.6486
  152SAPE  H12B16796   1.335   4.394   5.885 -0.7974 -0.7192  0.8092
  152SAPE   C1116797   1.194   4.551   5.822 -0.2016  0.1248  0.4995
  152SAPE  H11A16798   1.143   4.634   5.874  0.8491  0.2933  1.2868
  152SAPE  H11B16799   1.119   4.484   5.775  0.5660 -0.6206  0.3201
  152SAPE     P16800   1.323   4.743   5.711  0.1876 -0.3595  0.3386
  152SAPE   O1316801   1.443   4.763   5.630 -0.0099  0.3758  0.4152
  152SAPE   O1416802   1.198   4.815   5.680  0.1679 -0.4464  0.0512
  152SAPE   O1216803   1.286   4.593   5.727 -0.1002  0.0637  0.1626
  152SAPE   O1116804   1.355   4.771   5.865  0.5142  0.5837 -0.0588
  152SAPE    C116805   1.400   4.906   5.890 -0.0662  0.6999  0.7132
  152SAPE    HA16806   1.504   4.916   5.850  0.1091  1.7932  1.4161
  152SAPE    HB16807   1.338   4.984   5.840 -0.9202  0.1336  0.8873
  152SAPE    C216808   1.404   4.940   6.046  0.1404  0.1651  0.7485
  152SAPE    HS16809   1.419   5.047   6.070 -0.6298  0.3552  0.4142
  152SAPE   O2116810   1.511   4.860   6.110  0.1383  0.1625 -0.3656
  152SAPE   C2116811   1.635   4.907   6.082  0.4388  0.2996  0.2140
  152SAPE   O2216812   1.663   5.005   6.019 -0.1609 -0.1097  0.2911
  152SAPE   C2216813   1.737   4.820   6.165  0.2908 -0.7710 -0.0767
  152SAPE   H2R16814   1.750   4.719   6.120  0.9043 -0.0282 -1.6279
  152SAPE   H2S16815   1.838   4.862   6.147  1.2293 -1.1689  3.9139
  152SAPE    C316816   1.270   4.914   6.120  0.4030 -0.5333 -0.3372
  152SAPE    HX16817   1.221   4.825   6.074 -1.6131  0.0530  0.6305
  152SAPE    HY16818   1.211   5.005   6.097  0.6435  0.0997  1.4775
  152SAPE   O3116819   1.285   4.909   6.261  0.6113 -0.2040 -0.0759
  152SAPE   C3116820   1.302   4.793   6.320  0.1868 -0.4608 -0.1864
  152SAPE   O3216821   1.310   4.686   6.258  0.3519 -0.3513 -0.6750
  152SAPE   C3216822   1.313   4.804   6.473 -0.3719 -0.1662 -0.1721
  152SAPE   H2X16823   1.229   4.869   6.506 -0.4439 -0.3683  0.0406
  152SAPE   H2Y16824   1.400   4.869   6.497 -1.2167  0.6460  0.7239
  152SAPE   C2316825   1.710   4.821   6.313  0.1327  0.5178  0.0420
  152SAPE   H3R16826   1.605   4.792   6.336 -0.5278  1.3166 -1.8478
  152SAPE   H3S16827   1.735   4.924   6.346 -0.2279  0.0939  1.6966
  152SAPE   C2416828   1.783   4.716   6.393  0.0990 -0.6869 -0.2656
  152SAPE   H4R16829   1.728   4.621   6.378 -2.0188  0.3648  0.5692
  152SAPE   H4S16830   1.768   4.733   6.502  1.0917 -0.6499 -0.1259
  152SAPE   C2516831   1.932   4.701   6.368  0.1279  0.8843 -0.4135
  152SAPE   H5R16832   1.957   4.692   6.262  1.7278  0.5695 -0.0107
  152SAPE   C2616833   2.033   4.693   6.457  0.0157 -0.2340 -0.0583
  152SAPE   H6R16834   2.131   4.654   6.422  0.0534  1.5300 -2.0372
  152SAPE   C2716835   2.018   4.698   6.608 -0.2606  1.2017  0.4507
  152SAPE   H7R16836   1.946   4.779   6.632 -0.3504  1.5144 -0.8691
  152SAPE   H7S16837   2.105   4.730   6.669  1.3344 -2.2471  0.0965
  152SAPE   C2816838   1.967   4.574   6.676 -0.1546 -0.5983  0.5015
  152SAPE   H8R16839   1.974   4.480   6.618  0.3623 -0.8980  1.0448
  152SAPE   C2916840   1.922   4.559   6.801 -0.7636 -0.4050 -0.0587
  152SAPE   H9R16841   1.890   4.462   6.840 -1.1386  0.0564  0.7889
  152SAPE  C21016842   1.909   4.664   6.899  0.3489 -0.0514 -0.2420
  152SAPE  H10R16843   1.834   4.737   6.861 -0.7143 -0.6842  0.6080
  152SAPE  H10S16844   2.007   4.714   6.909  0.8633 -1.1056 -0.0226
  152SAPE  C21116845   1.850   4.607   7.029  0.1498 -0.0243 -0.0967
  152SAPE  H11R16846   1.757   4.550   7.022 -0.0343  0.1361  0.9810
  152SAPE  C21216847   1.903   4.632   7.155 -0.3093  0.4615 -0.0726
  152SAPE  H12R16848   1.876   4.574   7.245  3.5793  0.1488  0.9966
  152SAPE  C21316849   2.020   4.723   7.190  0.1361  0.4519 -0.2087
  152SAPE  H13R16850   2.090   4.711   7.104  0.1648 -0.2467 -0.0908
  152SAPE  H13S16851   2.070   4.687   7.282  1.4127 -1.0176 -1.4395
  152SAPE  C21416852   1.981   4.872   7.200 -0.2494 -0.0125  0.3231
  152SAPE  H14R16853   1.917   4.887   7.112  0.2527 -0.3903 -0.1097
  152SAPE  C21516854   2.003   4.959   7.299 -0.2649  0.5787 -0.6486
  152SAPE  H15R16855   1.944   5.052   7.298  0.9010  1.3261 -0.7094
  152SAPE  C21616856   2.079   4.936   7.434 -0.5632  0.0578 -0.5902
  152SAPE  H16R16857   2.134   4.839   7.424 -1.1919 -0.0799 -3.2622
  152SAPE  H16S16858   2.010   4.925   7.520  0.8142 -0.6556  0.4613
  152SAPE  C21716859   2.200   5.029   7.451  1.0363 -0.4983 -0.6201
  152SAPE  H17R16860   2.251   4.995   7.544  0.0529 -0.0248  0.0970
  152SAPE  H17S16861   2.166   5.134   7.461  1.3185 -0.2944 -1.7607
  152SAPE  C21816862   2.302   5.028   7.332 -0.4164  0.0096 -0.5381
  152SAPE  H18R16863   2.245   5.064   7.244 -1.9692 -0.9177  0.0770
  152SAPE  H18S16864   2.340   4.929   7.300  3.7320  1.7693 -1.4044
  152SAPE  C21916865   2.428   5.122   7.358 -0.5359 -0.0013  0.0553
  152SAPE  H19R16866   2.449   5.115   7.467 -0.0564  1.7519  0.0916
  152SAPE  H19S16867   2.400   5.228   7.342  0.1375 -0.1262 -2.2780
  152SAPE  C22016868   2.545   5.094   7.264 -0.6896  0.5776  0.2223
  152SAPE  H20R16869   2.632   5.156   7.293  0.8745 -1.4887 -0.0176
  152SAPE  H20S16870   2.527   5.116   7.156 -2.8048  0.1727  0.4582
  152SAPE  H20T16871   2.565   4.985   7.270 -3.3457 -0.1052 -2.0893
  152SAPE   C3316872   1.320   4.670   6.546  0.4925  0.3349 -0.3500
  152SAPE   H3X16873   1.420   4.625   6.529  0.1510 -0.2575 -0.7889
  152SAPE   H3Y16874   1.240   4.597   6.520  0.1056  0.1920  1.1668
  152SAPE   C3416875   1.327   4.693   6.698 -0.7873 -0.2326  0.1186
  152SAPE   H4X16876   1.227   4.732   6.728 -0.6171  0.5141 -0.2864
  152SAPE   H4Y16877   1.406   4.768   6.718 -0.3614 -0.6144 -0.1245
  152SAPE   C3516878   1.344   4.569   6.788  0.2184 -0.4997  0.6351
  152SAPE   H5X16879   1.431   4.509   6.752  0.8838  1.4533 -1.1622
  152SAPE   H5Y16880   1.252   4.510   6.772  1.4417 -2.2977  0.0497
  152SAPE   C3616881   1.355   4.616   6.936 -0.2373 -0.3255 -0.2385
  152SAPE   H6X16882   1.252   4.650   6.962 -0.3452 -0.9574  0.1694
  152SAPE   H6Y16883   1.439   4.687   6.950  0.0225 -0.1111 -2.6971
  152SAPE   C3716884   1.372   4.500   7.037 -0.4294 -0.9348  0.0737
  152SAPE   H7X16885   1.461   4.442   7.004 -0.3911 -0.2404 -1.0609
  152SAPE   H7Y16886   1.284   4.432   7.040 -2.5190  1.7145  0.8013
  152SAPE   C3816887   1.402   4.558   7.178  0.3154  0.1777 -1.0032
  152SAPE   H8X16888   1.312   4.618   7.204 -1.5138 -2.8826  0.0731
  152SAPE   H8Y16889   1.485   4.632   7.177  1.5986 -1.1858  0.5750
  152SAPE   C3916890   1.413   4.454   7.295 -0.5946  0.6725  1.1074
  152SAPE   H9X16891   1.345   4.373   7.263  0.6343  0.5334 -1.2688
  152SAPE   H9Y16892   1.364   4.501   7.382  0.8854  0.2896  2.1741
  152SAPE  C31016893   1.555   4.424   7.325  0.3493  0.3881  0.2982
  152SAPE  H10X16894   1.617   4.417   7.233  0.7069  1.4314  0.4480
  152SAPE  H10Y16895   1.576   4.338   7.391  0.1083 -0.9642 -1.3711
  152SAPE  C31116896   1.615   4.547   7.385  0.4572  0.3320 -0.4748
  152SAPE  H11X16897   1.538   4.615   7.428  1.4614  1.1044  0.1310
  152SAPE  H11Y16898   1.653   4.609   7.301  1.4227 -1.4485 -1.3929
  152SAPE  C31216899   1.726   4.511   7.490  0.4798  0.3302  0.3048
  152SAPE  H12X16900   1.792   4.435   7.444 -1.5156 -1.7833  0.8601
  152SAPE  H12Y16901   1.689   4.469   7.586  0.9801 -1.8673 -0.4372
  152SAPE  C31316902   1.818   4.635   7.528  0.2414  0.5279 -0.0640
  152SAPE  H13X16903   1.750   4.703   7.584  0.2877  0.5472 -0.0316
  152SAPE  H13Y16904   1.848   4.689   7.436 -0.0140 -0.1985 -0.5747
  152SAPE  C31416905   1.947   4.602   7.610 -0.3905  0.6144  0.7423
  152SAPE  H14X16906   2.033   4.666   7.582 -0.5237  1.0660  1.3564
  152SAPE  H14Y16907   1.972   4.500   7.572  0.4450  0.6622  1.1608
  152SAPE  C31516908   1.915   4.606   7.761 -0.2631 -0.0121  0.0262
  152SAPE  H15X16909   1.839   4.526   7.767 -1.2752  0.9346  0.0335
  152SAPE  H15Y16910   1.869   4.704   7.787 -1.7353 -0.6762 -0.0090
  152SAPE  C31616911   2.034   4.575   7.847 -0.3638 -0.6976  0.9608
  152SAPE  H16X16912   2.086   4.482   7.816  1.3494 -0.0415  1.7695
  152SAPE  H16Y16913   2.003   4.546   7.950 -1.6035 -0.6753  0.6003
  152SAPE  C31716914   2.136   4.685   7.874 -0.3801 -0.0127 -0.0424
  152SAPE  H17X16915   2.109   4.764   7.948  0.1668 -0.1439  0.2975
  152SAPE  H17Y16916   2.163   4.737   7.779  1.8759 -1.2750 -0.1296
  152SAPE  C31816917   2.257   4.621   7.929 -0.6694  0.1182  0.3935
  152SAPE  H18X16918   2.224   4.567   8.020  1.3668 -1.1198  0.4318
  152SAPE  H18Y16919   2.336   4.688   7.969 -3.2824  2.3217  1.9940
  152SAPE  H18Z16920   2.292   4.549   7.851  1.0326  1.0998  0.2253
  153SAPE     N16921   5.289   4.865   5.811  0.3928  0.6068 -0.2861
  153SAPE   HN116922   5.277   4.762   5.807  3.5823  0.1501  0.5523
  153SAPE   HN216923   5.199   4.909   5.783 -0.9692 -1.6785  0.3518
  153SAPE   HN316924   5.364   4.896   5.747  0.3622 -1.1939 -1.2358
  153SAPE   C1216925   5.313   4.908   5.953 -0.0118  0.3679  0.5250
  153SAPE  H12A16926   5.409   4.867   5.992  0.6974  0.7925 -0.7504
  153SAPE  H12B16927   5.237   4.858   6.016  0.4828  0.0740  0.8935
  153SAPE   C1116928   5.312   5.058   5.956 -0.0435 -0.7719  0.1148
  153SAPE  H11A16929   5.328   5.086   6.062  2.3130 -1.2673 -0.0776
  153SAPE  H11B16930   5.220   5.104   5.915  0.7786  0.7391 -0.0679
  153SAPE     P16931   5.490   5.249   5.927 -0.2510  0.4208 -0.6198
  153SAPE   O1316932   5.636   5.242   5.896  0.2697  0.3522  0.0572
  153SAPE   O1416933   5.415   5.348   5.851 -0.2516 -0.5230  0.1440
  153SAPE   O1216934   5.425   5.110   5.886 -0.7453 -0.5171 -0.1175
  153SAPE   O1116935   5.458   5.282   6.080  0.1723  0.3674  0.1062
  153SAPE    C116936   5.557   5.261   6.185 -0.2015 -0.5002 -0.5027
  153SAPE    HA16937   5.658   5.302   6.163 -0.2275 -0.4138 -0.4587
  153SAPE    HB16938   5.518   5.310   6.277 -1.4176 -4.1520  1.0097
  153SAPE    C216939   5.569   5.111   6.218 -0.2466  0.2657  0.4117
  153SAPE    HS16940   5.600   5.058   6.126 -1.4289 -1.1589  0.8037
  153SAPE   O2116941   5.437   5.065   6.254  0.0213  0.0645 -0.3738
  153SAPE   C2116942   5.419   4.937   6.275  0.4542  0.0957  0.0287
  153SAPE   O2216943   5.496   4.843   6.244  0.4980 -0.5884 -0.3500
  153SAPE   C2216944   5.275   4.914   6.324 -0.2630  0.5410 -0.1351
  153SAPE   H2R16945   5.211   4.980   6.261 -0.1301 -0.7164 -1.6164
  153SAPE   H2S16946   5.249   4.812   6.287  1.2703  1.1387 -3.0652
  153SAPE    C316947   5.659   5.083   6.334 -0.0295  0.3237  0.4483
  153SAPE    HX16948   5.759   5.120   6.301 -0.7669  1.3776 -0.6227
  153SAPE    HY16949   5.676   4.976   6.357 -1.1119 -0.0112 -0.3164
  153SAPE   O3116950   5.630   5.164   6.451  0.2790  0.6695 -0.4363
  153SAPE   C3116951   5.570   5.102   6.555  0.8114  0.5575  0.3482
  153SAPE   O3216952   5.539   4.983   6.556  0.4205 -0.0501  0.0777
  153SAPE   C3216953   5.538   5.211   6.657 -1.0163  0.3494  0.5175
  153SAPE   H2X16954   5.584   5.310   6.636  1.2828 -0.2329  2.5963
  153SAPE   H2Y16955   5.588   5.176   6.750  1.5378 -0.7259 -1.2098
  153SAPE   C2316956   5.265   4.946   6.473 -0.1865 -0.4243 -0.1673
  153SAPE   H3R16957   5.313   5.044   6.491  0.5345 -1.3411  3.2867
  153SAPE   H3S16958   5.328   4.873   6.528  0.6131  0.0999 -0.3903
  153SAPE   C2416959   5.124   4.947   6.536  0.2889  0.2651  0.4355
  153SAPE   H4R16960   5.063   5.025   6.487 -0.8533 -0.7176  0.2710
  153SAPE   H4S16961   5.149   4.978   6.640  0.8314 -2.0052  1.0213
  153SAPE   C2516962   5.060   4.811   6.536 -0.0809  0.6307 -0.1831
  153SAPE   H5R16963   5.072   4.761   6.439 -1.5769 -0.2947  0.0998
  153SAPE   C2616964   5.002   4.741   6.632  0.4355 -0.3264 -0.9338
  153SAPE   H6R16965   4.975   4.635   6.622  1.7493 -0.5076 -2.9938
  153SAPE   C2716966   4.991   4.793   6.774 -0.2576 -0.1699 -0.4835
  153SAPE   H7R16967   4.888   4.830   6.794 -0.3553 -0.3311 -0.6892
  153SAPE   H7S16968   5.043   4.888   6.798  0.0490 -0.6045  0.5923
  153SAPE   C2816969   5.044   4.690   6.876  0.7971 -0.1574  0.2501
  153SAPE   H8R16970   4.963   4.622   6.908  0.0525  0.6392  0.0618
  153SAPE   C2916971   5.159   4.691   6.947 -0.2295  0.1734  0.6696
  153SAPE   H9R16972   5.172   4.606   7.016  2.9343  2.3801  2.9457
  153SAPE  C21016973   5.276   4.789   6.958  0.3115  0.0201  0.6188
  153SAPE  H10R16974   5.339   4.778   7.049 -0.4234  0.4287  1.1873
  153SAPE  H10S16975   5.236   4.892   6.976  0.8733  0.0887  1.5113
  153SAPE  C21116976   5.364   4.806   6.835 -0.1366 -0.0821  0.4605
  153SAPE  H11R16977   5.315   4.872   6.762  1.7974 -0.7127 -1.4552
  153SAPE  C21216978   5.482   4.751   6.808  0.6271  0.5853 -0.1876
  153SAPE  H12R16979   5.542   4.773   6.719 -1.3026  0.5285 -1.5428
  153SAPE  C21316980   5.567   4.657   6.894  0.3068  0.6763  0.4766
  153SAPE  H13R16981   5.667   4.675   6.848 -0.4437 -1.2605 -2.0592
  153SAPE  H13S16982   5.534   4.554   6.868 -0.8342  1.2618 -0.4440
  153SAPE  C21416983   5.573   4.665   7.041 -0.1177  0.1590 -0.4692
  153SAPE  H14R16984   5.500   4.607   7.099  2.3886 -0.6322  2.0029
  153SAPE  C21516985   5.682   4.714   7.110  0.8458  0.8773 -0.2359
  153SAPE  H15R16986   5.661   4.741   7.214  1.2119  0.5892 -0.0888
  153SAPE  C21616987   5.800   4.779   7.049 -0.0684 -0.7518 -0.0469
  153SAPE  H16R16988   5.776   4.846   6.964  2.8548  1.0595  0.4908
  153SAPE  H16S16989   5.862   4.695   7.010  1.7967  0.5132  0.1283
  153SAPE  C21716990   5.888   4.845   7.153  0.2536  0.9173 -0.5898
  153SAPE  H17R16991   5.941   4.778   7.224  2.5769  2.0929 -1.1606
  153SAPE  H17S16992   5.847   4.916   7.228  2.5281 -1.3495  2.9745
  153SAPE  C21816993   6.005   4.917   7.097  0.6215 -0.4174  0.6821
  153SAPE  H18R16994   5.970   4.997   7.029  1.9569 -0.6424 -0.2841
  153SAPE  H18S16995   6.077   4.852   7.043 -0.5953  0.2827 -1.8853
  153SAPE  C21916996   6.095   4.972   7.220 -0.2576 -0.4118 -0.3170
  153SAPE  H19R16997   6.122   4.877   7.271 -0.8372  0.8404  2.4432
  153SAPE  H19S16998   6.020   5.028   7.280  1.4954 -0.7292  2.2811
  153SAPE  C22016999   6.213   5.049   7.184 -0.5746 -0.5660 -0.4866
  153SAPE  H20R17000   6.303   5.017   7.241 -1.3414  0.2596  1.2197
  153SAPE  H20S17001   6.201   5.158   7.203 -0.9803 -0.7422  0.3136
  153SAPE  H20T17002   6.242   5.027   7.079  0.9738  1.5663 -0.5182
  153SAPE   C3317003   5.392   5.213   6.700 -0.6124  0.6698  0.4889
  153SAPE   H3X17004   5.368   5.117   6.751  1.3793 -0.7242 -1.1095
  153SAPE   H3Y17005   5.319   5.229   6.617  0.5447 -0.5164 -0.7725
  153SAPE   C3417006   5.365   5.325   6.802 -0.0697 -0.0614  0.8826
  153SAPE   H4X17007   5.378   5.418   6.744  1.5289  0.7535  2.5026
  153SAPE   H4Y17008   5.440   5.324   6.884 -0.6014 -2.0073  1.3801
  153SAPE   C3517009   5.223   5.317   6.862  0.4012  0.4202 -0.3022
  153SAPE   H5X17010   5.154   5.341   6.779  0.2519  0.0883 -0.2738
  153SAPE   H5Y17011   5.226   5.399   6.937  0.1841  0.0503  0.1134
  153SAPE   C3617012   5.196   5.185   6.929  0.5738 -0.4142 -0.0344
  153SAPE   H6X17013   5.281   5.170   6.998  0.4314 -1.6173 -0.1168
  153SAPE   H6Y17014   5.190   5.103   6.854  0.2817 -0.0629 -0.4000
  153SAPE   C3717015   5.056   5.176   6.992  0.3235 -0.4683  0.1664
  153SAPE   H7X17016   5.035   5.074   7.032  0.1762 -0.1865  0.8202
  153SAPE   H7Y17017   4.982   5.204   6.914 -1.2009 -0.2224  1.6721
  153SAPE   C3817018   5.031   5.274   7.109 -0.1490  0.4207  0.4045
  153SAPE   H8X17019   4.935   5.241   7.155 -0.9630  0.0833 -1.5081
  153SAPE   H8Y17020   5.008   5.377   7.075  1.4486  1.2278  1.6872
  153SAPE   C3917021   5.132   5.277   7.220  0.1991 -0.4741 -0.7236
  153SAPE   H9X17022   5.211   5.343   7.177 -1.0097  1.3190 -0.2865
  153SAPE   H9Y17023   5.168   5.173   7.233 -2.6601 -1.5891 -1.3724
  153SAPE  C31017024   5.055   5.325   7.350  0.3062 -0.5218 -0.3955
  153SAPE  H10X17025   4.962   5.266   7.366  0.3629 -1.4764 -3.2388
  153SAPE  H10Y17026   5.028   5.432   7.337 -0.7365 -0.6255  0.8274
  153SAPE  C31117027   5.142   5.308   7.467 -0.3210 -0.2775  0.2316
  153SAPE  H11X17028   5.243   5.341   7.433 -0.3549 -0.0192  0.3790
  153SAPE  H11Y17029   5.143   5.201   7.494 -1.7544  0.0663  1.7184
  153SAPE  C31217030   5.105   5.386   7.590 -0.0891  0.1479 -0.2408
  153SAPE  H12X17031   5.007   5.345   7.622  1.5392 -2.9843  0.9807
  153SAPE  H12Y17032   5.105   5.496   7.575  0.8048  0.2686  0.5631
  153SAPE  C31317033   5.201   5.351   7.704  0.5156  0.7175 -0.1675
  153SAPE  H13X17034   5.200   5.240   7.712  1.1344  0.7529  0.4035
  153SAPE  H13Y17035   5.163   5.392   7.801  0.4334 -2.2271  1.0966
  153SAPE  C31417036   5.347   5.417   7.692 -0.5023  0.2294 -0.2276
  153SAPE  H14X17037   5.330   5.523   7.663 -1.2831  0.2537  0.3163
  153SAPE  H14Y17038   5.385   5.362   7.602  0.5150 -1.0302  0.9491
  153SAPE  C31517039   5.440   5.393   7.812  0.3662 -0.7858 -0.2434
  153SAPE  H15X17040   5.546   5.397   7.777 -0.1033 -0.4827 -1.6941
  153SAPE  H15Y17041   5.439   5.283   7.832 -2.2565 -0.5363  1.1570
  153SAPE  C31617042   5.410   5.468   7.944  0.3159  0.0374 -0.1115
  153SAPE  H16X17043   5.490   5.455   8.020 -0.4530  1.4782  0.9661
  153SAPE  H16Y17044   5.315   5.439   7.992  0.6666  0.6174  0.9373
  153SAPE  C31717045   5.388   5.621   7.929  0.6535  0.1468 -0.0013
  153SAPE  H17X17046   5.300   5.633   7.863  2.0539  0.8719 -1.7872
  153SAPE  H17Y17047   5.472   5.660   7.868  1.1437  0.2967  0.7622
  153SAPE  C31817048   5.378   5.692   8.064  0.1236  0.4710 -0.5347
  153SAPE  H18X17049   5.392   5.803   8.064  0.5596  0.5558  5.0439
  153SAPE  H18Y17050   5.456   5.656   8.133  2.2981 -0.8239 -3.5604
  153SAPE  H18Z17051   5.275   5.683   8.104  0.9128 -1.8576  1.0615
  154SAPE     N17052   0.436   5.814   5.923  0.2822  0.3190 -0.0208
  154SAPE   HN117053   0.365   5.742   5.948  0.5514  0.3560  0.8626
  154SAPE   HN217054   0.387   5.901   5.894  0.0924  0.6986  1.4316
  154SAPE   HN317055   0.493   5.790   5.839  1.0355  1.5940  0.1144
  154SAPE   C1217056   0.521   5.833   6.045 -0.3356  0.2104 -0.3687
  154SAPE  H12A17057   0.564   5.739   6.085 -1.0465 -0.2130 -0.5905
  154SAPE  H12B17058   0.451   5.870   6.123 -1.1612  0.8203 -1.3768
  154SAPE   C1117059   0.640   5.924   6.005  0.0789  0.3885  0.7238
  154SAPE  H11A17060   0.695   5.945   6.099 -0.0109 -0.3924  0.9588
  154SAPE  H11B17061   0.602   6.018   5.960 -1.4290 -1.3843 -1.8608
  154SAPE     P17062   0.832   5.745   5.942  0.1133  0.0233  0.1199
  154SAPE   O1317063   0.811   5.629   5.849  0.3281  0.2226  0.0681
  154SAPE   O1417064   0.962   5.807   5.952 -0.2434 -0.1596 -0.1900
  154SAPE   O1217065   0.723   5.854   5.910  0.6520  0.4069  0.6803
  154SAPE   O1117066   0.792   5.696   6.086 -0.1492 -0.1457  0.8756
  154SAPE    C117067   0.901   5.692   6.181  0.2079  0.5389 -0.1972
  154SAPE    HA17068   1.002   5.658   6.149 -0.7748 -0.6862 -2.1288
  154SAPE    HB17069   0.922   5.794   6.220  2.1067  0.7638 -1.6968
  154SAPE    C217070   0.855   5.606   6.297  0.3550  0.7766  0.3060
  154SAPE    HS17071   0.930   5.607   6.379  0.4559 -2.6132  0.3431
  154SAPE   O2117072   0.823   5.472   6.257  0.5841 -0.1609 -0.5982
  154SAPE   C2117073   0.938   5.399   6.239 -0.3250 -0.0587  0.5306
  154SAPE   O2217074   1.049   5.440   6.262 -0.3730  0.1503  0.7064
  154SAPE   C2217075   0.902   5.258   6.181  0.4360 -0.1534  0.0774
  154SAPE   H2R17076   0.794   5.244   6.161  0.2268  1.7861 -0.1816
  154SAPE   H2S17077   0.950   5.253   6.081 -1.3774 -1.7671 -0.7431
  154SAPE    C317078   0.731   5.670   6.360 -0.4048 -0.2397  0.0725
  154SAPE    HX17079   0.633   5.652   6.312  0.4214 -0.3540 -1.5923
  154SAPE    HY17080   0.740   5.780   6.361  0.6038 -0.3244  1.0427
  154SAPE   O3117081   0.711   5.625   6.503 -0.4820 -0.0987 -0.1913
  154SAPE   C3117082   0.648   5.513   6.511  0.5217  0.1026  0.3676
  154SAPE   O3217083   0.595   5.444   6.424 -0.2764  0.2556 -0.1428
  154SAPE   C3217084   0.638   5.480   6.667 -0.0041 -0.6745  0.3152
  154SAPE   H2X17085   0.634   5.369   6.679 -0.5352 -0.7229 -0.3122
  154SAPE   H2Y17086   0.543   5.519   6.709 -0.1705  1.0604 -1.6509
  154SAPE   C2317087   0.963   5.138   6.270 -0.6867 -0.1532  0.0829
  154SAPE   H3R17088   1.066   5.155   6.307 -1.4004  1.1645  1.5441
  154SAPE   H3S17089   0.988   5.051   6.205  1.1953  0.5655 -0.1782
  154SAPE   C2417090   0.872   5.088   6.389 -0.0788  0.0336  0.8328
  154SAPE   H4R17091   0.898   4.987   6.425 -2.1413 -1.1972 -1.0143
  154SAPE   H4S17092   0.774   5.074   6.339  1.1012  0.1859 -1.5881
  154SAPE   C2517093   0.843   5.185   6.500 -0.7657 -0.5955  0.5909
  154SAPE   H5R17094   0.771   5.265   6.476  0.1213 -0.0653 -0.3531
  154SAPE   C2617095   0.896   5.188   6.621 -0.0780  0.2213  1.1909
  154SAPE   H6R17096   0.858   5.267   6.688 -1.9662  0.0333  0.3790
  154SAPE   C2717097   0.997   5.092   6.679  1.1159 -0.5545 -0.5871
  154SAPE   H7R17098   1.016   5.008   6.609 -1.1536 -0.9404 -0.7684
  154SAPE   H7S17099   0.960   5.050   6.774 -0.1865  1.8234  0.0031
  154SAPE   C2817100   1.125   5.171   6.693 -0.7812 -0.4640  0.1505
  154SAPE   H8R17101   1.123   5.249   6.616 -0.6416  0.2994  0.9079
  154SAPE   C2917102   1.211   5.176   6.798 -0.2907 -0.4448 -1.1344
  154SAPE   H9R17103   1.294   5.247   6.804  0.1533 -1.0317 -0.2455
  154SAPE  C21017104   1.195   5.081   6.916 -0.1245  0.3790  0.1603
  154SAPE  H10R17105   1.290   5.024   6.923  0.7497  1.9523  1.2722
  154SAPE  H10S17106   1.125   4.997   6.895  0.0644 -0.0885  1.3764
  154SAPE  C21117107   1.163   5.148   7.046  0.3344 -0.1317 -0.1836
  154SAPE  H11R17108   1.128   5.253   7.042 -0.7764 -0.4463  1.0847
  154SAPE  C21217109   1.156   5.085   7.167  0.2576  0.7783 -0.7438
  154SAPE  H12R17110   1.137   5.141   7.260 -2.6697 -1.6590  0.1896
  154SAPE  C21317111   1.195   4.948   7.204 -0.1840 -0.4553 -0.3198
  154SAPE  H13R17112   1.203   4.891   7.109  1.1577  0.1386 -0.5764
  154SAPE  H13S17113   1.118   4.896   7.265  0.1737 -0.8150 -0.1774
  154SAPE  C21417114   1.331   4.930   7.268 -0.0053 -0.4074 -0.2867
  154SAPE  H14R17115   1.397   4.879   7.197 -0.0003  0.9494 -1.2774
  154SAPE  C21517116   1.367   4.942   7.401 -0.1573 -0.4875  0.2310
  154SAPE  H15R17117   1.468   4.906   7.422  0.7422  1.8097 -0.0873
  154SAPE  C21617118   1.285   4.981   7.521 -0.8047  0.1089 -0.6061
  154SAPE  H16R17119   1.182   5.005   7.486 -0.1755  1.1410 -1.7791
  154SAPE  H16S17120   1.338   5.062   7.575 -0.7705 -0.1268 -0.2873
  154SAPE  C21717121   1.284   4.863   7.623  0.6276  0.1914 -0.1201
  154SAPE  H17R17122   1.218   4.777   7.599  2.1658 -2.0074  3.2418
  154SAPE  H17S17123   1.227   4.903   7.710  0.9397 -2.1471  1.1805
  154SAPE  C21817124   1.423   4.832   7.679 -0.0630  0.1580  0.0631
  154SAPE  H18R17125   1.479   4.918   7.722 -1.9760  1.3825  0.1805
  154SAPE  H18S17126   1.482   4.793   7.594  0.0434 -2.1137  1.1446
  154SAPE  C21917127   1.425   4.728   7.792  0.1466 -0.0456 -0.0054
  154SAPE  H19R17128   1.382   4.640   7.740  1.1268 -0.9218  0.6449
  154SAPE  H19S17129   1.352   4.757   7.871 -1.6242 -3.9469 -0.0950
  154SAPE  C22017130   1.561   4.699   7.829 -0.2012 -0.8246 -0.3886
  154SAPE  H20R17131   1.565   4.626   7.913  1.6138 -1.5561 -1.0884
  154SAPE  H20S17132   1.610   4.789   7.872  0.3378 -0.8104 -1.0150
  154SAPE  H20T17133   1.627   4.666   7.746 -1.3504 -1.1366 -1.1980
  154SAPE   C3317134   0.742   5.553   6.755 -0.5459 -0.0757 -0.0689
  154SAPE   H3X17135   0.755   5.663   6.751 -0.8595 -0.1041 -2.9290
  154SAPE   H3Y17136   0.827   5.488   6.725 -0.3674 -0.0588  0.3899
  154SAPE   C3417137   0.730   5.511   6.912 -0.5969  0.1786  1.1377
  154SAPE   H4X17138   0.626   5.547   6.933 -0.3304  1.0395  1.0106
  154SAPE   H4Y17139   0.801   5.577   6.966 -1.5363  2.1157  0.0814
  154SAPE   C3517140   0.753   5.358   6.933 -0.3193 -0.5147 -0.4497
  154SAPE   H5X17141   0.855   5.344   6.891  0.4714  2.0678  0.4983
  154SAPE   H5Y17142   0.685   5.303   6.864 -1.2145 -0.4049  0.3282
  154SAPE   C3617143   0.734   5.306   7.076  0.0116  0.7406  0.2198
  154SAPE   H6X17144   0.623   5.316   7.076  0.0617  1.4786 -1.0287
  154SAPE   H6Y17145   0.789   5.363   7.153  1.3866 -0.9508  0.5106
  154SAPE   C3717146   0.775   5.165   7.097  0.0546  0.3604 -0.3936
  154SAPE   H7X17147   0.879   5.145   7.063  0.3746  0.6257  0.3956
  154SAPE   H7Y17148   0.703   5.100   7.044 -0.1415  0.6097 -0.4348
  154SAPE   C3817149   0.771   5.124   7.250 -0.0549 -0.9218  0.4807
  154SAPE   H8X17150   0.668   5.160   7.274  1.2399  2.5265  1.1843
  154SAPE   H8Y17151   0.842   5.186   7.309  1.4158 -1.7712 -0.3690
  154SAPE   C3917152   0.802   4.979   7.289 -0.2384 -0.0587  0.4434
  154SAPE   H9X17153   0.882   4.943   7.221  0.8040  2.0254  0.5387
  154SAPE   H9Y17154   0.713   4.916   7.267  0.4819 -0.6284 -0.9342
  154SAPE  C31017155   0.834   4.953   7.439  0.3550 -0.2020  0.7512
  154SAPE  H10X17156   0.772   5.020   7.502  0.6652 -1.0625  1.9745
  154SAPE  H10Y17157   0.941   4.969   7.460 -0.1594  2.3898  1.5216
  154SAPE  C31117158   0.796   4.809   7.489  0.2554 -0.2356  0.1567
  154SAPE  H11X17159   0.849   4.740   7.419  0.4451  0.4488 -0.3717
  154SAPE  H11Y17160   0.688   4.791   7.473  0.0775  1.5738 -0.7668
  154SAPE  C31217161   0.851   4.774   7.631  0.0601  0.6710  0.3822
  154SAPE  H12X17162   0.799   4.840   7.704 -0.6214  1.7694 -1.0700
  154SAPE  H12Y17163   0.958   4.801   7.636 -0.4755  3.3148 -1.6054
  154SAPE  C31317164   0.836   4.623   7.666 -0.8374 -0.2831 -0.0352
  154SAPE  H13X17165   0.872   4.609   7.770  0.6276 -0.3723 -0.5379
  154SAPE  H13Y17166   0.902   4.569   7.595  0.8226  1.7802 -0.1359
  154SAPE  C31417167   0.687   4.574   7.652 -0.3936 -0.2585 -0.0773
  154SAPE  H14X17168   0.683   4.468   7.685  3.0679 -0.4782 -0.1071
  154SAPE  H14Y17169   0.671   4.574   7.543  1.1948  3.7772 -0.4100
  154SAPE  C31517170   0.586   4.663   7.725  0.7626  0.5923 -0.7659
  154SAPE  H15X17171   0.589   4.767   7.685 -0.8426  1.0044  0.1301
  154SAPE  H15Y17172   0.613   4.668   7.833  2.9151  1.0926 -1.2840
  154SAPE  C31617173   0.439   4.608   7.718  0.2266  0.4097 -0.6589
  154SAPE  H16X17174   0.371   4.686   7.757 -1.3629 -1.1465 -0.2240
  154SAPE  H16Y17175   0.441   4.528   7.795 -0.1057  0.4842 -0.5723
  154SAPE  C31717176   0.382   4.566   7.582 -0.2418  0.1235 -0.9305
  154SAPE  H17X17177   0.445   4.592   7.494  2.6514 -1.8660  0.4675
  154SAPE  H17Y17178   0.289   4.626   7.579 -1.6134 -1.8467  0.5431
  154SAPE  C31817179   0.349   4.421   7.573  0.4292 -0.1586  0.1296
  154SAPE  H18X17180   0.327   4.396   7.468 -0.7245 -0.7858  0.5237
  154SAPE  H18Y17181   0.262   4.400   7.638  0.0987 -1.7351 -0.8291
  154SAPE  H18Z17182   0.435   4.353   7.593  0.8560  0.9942  2.5557
  155SAPE     N17183   2.532   6.695   5.732 -0.1936 -0.0309  0.4995
  155SAPE   HN117184   2.458   6.714   5.803 -3.1860  0.0485 -2.5366
  155SAPE   HN217185   2.502   6.742   5.645  1.7381  2.0401  0.9016
  155SAPE   HN317186   2.536   6.594   5.706  1.6370  0.3325 -0.7609
  155SAPE   C1217187   2.665   6.744   5.778 -0.4165 -0.0749 -0.1030
  155SAPE  H12A17188   2.664   6.720   5.887 -2.5750 -1.8334 -0.4654
  155SAPE  H12B17189   2.660   6.854   5.766 -1.3174 -0.1867 -0.7365
  155SAPE   C1117190   2.791   6.706   5.704 -0.2106 -0.5671 -0.7232
  155SAPE  H11A17191   2.877   6.757   5.751 -0.4183 -0.0605 -0.8856
  155SAPE  H11B17192   2.779   6.741   5.599 -2.8080  0.1185 -0.2483
  155SAPE     P17193   2.805   6.470   5.587 -0.1959  0.0633  0.1294
  155SAPE   O1317194   2.687   6.494   5.496 -0.6986  0.2270 -0.5519
  155SAPE   O1417195   2.938   6.492   5.517  0.2162  0.2417 -0.1321
  155SAPE   O1217196   2.799   6.569   5.709  0.2540  0.4172  0.3040
  155SAPE   O1117197   2.799   6.329   5.652 -0.5163  0.1398 -0.0989
  155SAPE    C117198   2.910   6.287   5.737 -0.2328  0.4221  0.5581
  155SAPE    HA17199   2.981   6.232   5.672 -0.2453  1.0581 -0.0026
  155SAPE    HB17200   2.970   6.369   5.783 -1.6237  0.9808  1.4167
  155SAPE    C217201   2.879   6.176   5.837  0.0766  0.4753 -0.6541
  155SAPE    HS17202   2.818   6.098   5.786 -0.0114  0.0368  0.1019
  155SAPE   O2117203   2.819   6.227   5.953  0.0958  0.3411 -0.2652
  155SAPE   C2117204   2.687   6.242   5.946 -0.2617 -0.1572  0.3702
  155SAPE   O2217205   2.621   6.211   5.851  0.7944  0.1069  0.1316
  155SAPE   C2217206   2.630   6.320   6.063 -0.8734 -0.2305  0.8134
  155SAPE   H2R17207   2.523   6.293   6.051 -0.3465 -1.4717 -1.4944
  155SAPE   H2S17208   2.676   6.271   6.152 -1.3167 -0.9023  0.6739
  155SAPE    C317209   3.021   6.108   5.870 -0.3105 -0.3275 -0.1216
  155SAPE    HX17210   3.054   6.062   5.774  0.5760 -1.1907  0.5777
  155SAPE    HY17211   3.008   6.024   5.942  2.4604  0.2950  1.1591
  155SAPE   O3117212   3.113   6.207   5.916  0.9238 -0.1627 -0.5006
  155SAPE   C3117213   3.112   6.240   6.042 -0.2325 -0.2704  0.3008
  155SAPE   O3217214   3.054   6.181   6.136 -0.0225  0.2474  0.2452
  155SAPE   C3217215   3.203   6.371   6.065  0.6762 -0.6269 -0.3723
  155SAPE   H2X17216   3.308   6.338   6.054  0.8616 -0.6228  1.1973
  155SAPE   H2Y17217   3.193   6.403   6.172  0.6982 -2.4402  0.1789
  155SAPE   C2317218   2.661   6.467   6.065 -0.0792  0.3085 -0.2227
  155SAPE   H3R17219   2.620   6.513   5.972 -1.8675  1.0567  0.9043
  155SAPE   H3S17220   2.771   6.485   6.059 -0.4502  2.2979 -2.0230
  155SAPE   C2417221   2.626   6.546   6.190  0.0708  0.0203  0.1401
  155SAPE   H4R17222   2.653   6.653   6.179  0.6310  0.2489  3.3970
  155SAPE   H4S17223   2.686   6.501   6.272  1.3388  0.9045 -0.2939
  155SAPE   C2517224   2.481   6.537   6.215  0.9451 -0.5101 -0.4016
  155SAPE   H5R17225   2.427   6.605   6.147  0.5789 -0.5325 -0.1345
  155SAPE   C2617226   2.415   6.459   6.302 -0.6473 -0.3790 -0.4208
  155SAPE   H6R17227   2.314   6.496   6.322 -0.3658  1.8181 -2.7425
  155SAPE   C2717228   2.478   6.372   6.412 -0.5141  0.2883 -0.2803
  155SAPE   H7R17229   2.494   6.432   6.504  0.0279  0.3665 -0.4231
  155SAPE   H7S17230   2.568   6.316   6.381 -0.7407  0.2467 -0.8788
  155SAPE   C2817231   2.373   6.264   6.435 -0.3682 -0.0216 -0.8425
  155SAPE   H8R17232   2.328   6.221   6.344 -1.9654 -0.6709  0.2245
  155SAPE   C2917233   2.333   6.208   6.545 -0.1543  0.1844 -0.6249
  155SAPE   H9R17234   2.263   6.123   6.543 -0.6762  0.5880 -0.0302
  155SAPE  C21017235   2.370   6.263   6.678  0.5867 -0.3348 -0.4115
  155SAPE  H10R17236   2.345   6.371   6.684 -1.9401 -1.0332  2.6366
  155SAPE  H10S17237   2.479   6.253   6.698  0.1609  0.3074  2.3969
  155SAPE  C21117238   2.311   6.192   6.800 -0.2612  1.0554 -0.3060
  155SAPE  H11R17239   2.282   6.086   6.793  0.9733  0.7958 -1.5839
  155SAPE  C21217240   2.304   6.253   6.919 -0.8281 -0.0369 -0.4477
  155SAPE  H12R17241   2.281   6.196   7.010 -0.2948 -0.4523 -0.5735
  155SAPE  C21317242   2.343   6.393   6.958  0.9029  0.3626  0.1694
  155SAPE  H13R17243   2.274   6.437   7.033  1.0471  1.5364 -0.3767
  155SAPE  H13S17244   2.326   6.462   6.873 -3.3485 -0.8419 -0.1270
  155SAPE  C21417245   2.484   6.392   7.006  0.0403 -0.0015 -0.0909
  155SAPE  H14R17246   2.553   6.338   6.940  0.9185  2.4763 -1.2351
  155SAPE  C21517247   2.523   6.446   7.122  0.3652  0.5104  0.2440
  155SAPE  H15R17248   2.632   6.454   7.135  0.3783 -1.1192  1.2331
  155SAPE  C21617249   2.449   6.519   7.230  0.4928  0.4006 -0.0249
  155SAPE  H16R17250   2.493   6.510   7.332 -0.3152 -3.8034  0.0579
  155SAPE  H16S17251   2.345   6.480   7.233  0.4239  0.4456 -1.4425
  155SAPE  C21717252   2.446   6.667   7.181 -0.3252 -0.8254 -0.3694
  155SAPE  H17R17253   2.376   6.660   7.095 -1.5459  0.3762  0.4969
  155SAPE  H17S17254   2.545   6.708   7.149 -1.3320  0.4944 -1.8647
  155SAPE  C21817255   2.394   6.769   7.286 -0.2208  0.0020 -0.2826
  155SAPE  H18R17256   2.463   6.761   7.373 -1.0280 -1.4963  0.2517
  155SAPE  H18S17257   2.288   6.741   7.306 -0.3299  0.4461 -0.2418
  155SAPE  C21917258   2.397   6.912   7.224  0.4694  0.4218  0.6810
  155SAPE  H19R17259   2.345   6.922   7.126  2.0308 -0.5431 -0.2587
  155SAPE  H19S17260   2.502   6.940   7.202  0.6129 -0.8347 -0.2671
  155SAPE  C22017261   2.334   7.007   7.323 -0.5560  0.3478  0.6772
  155SAPE  H20R17262   2.226   6.988   7.309 -0.3087 -1.8820  1.6625
  155SAPE  H20S17263   2.345   7.116   7.301 -2.2062 -0.0508 -2.2646
  155SAPE  H20T17264   2.359   6.990   7.430  3.3549  2.1181  0.1306
  155SAPE   C3317265   3.165   6.494   5.984  0.3858  0.2991 -0.8845
  155SAPE   H3X17266   3.170   6.455   5.880  0.0905 -1.9325 -0.1080
  155SAPE   H3Y17267   3.237   6.577   5.999 -1.5479  1.6019  1.6388
  155SAPE   C3417268   3.020   6.533   6.015  0.8027 -0.4344 -0.0556
  155SAPE   H4X17269   2.955   6.447   5.990 -1.7098  1.3508  0.1411
  155SAPE   H4Y17270   3.008   6.625   5.954  0.9944  0.9314  1.9122
  155SAPE   C3517271   3.000   6.589   6.156  0.6277  0.5306 -0.4358
  155SAPE   H5X17272   3.009   6.511   6.235 -1.0905  0.4372 -0.3176
  155SAPE   H5Y17273   2.893   6.615   6.149 -0.0842 -2.8170 -3.6775
  155SAPE   C3617274   3.079   6.724   6.184  0.3447  0.0723 -0.3309
  155SAPE   H6X17275   3.084   6.790   6.096 -0.5520  1.0854  0.3661
  155SAPE   H6Y17276   3.184   6.696   6.206  0.2479  1.4207  2.0376
  155SAPE   C3717277   3.032   6.791   6.312  0.8582  0.1015 -0.0283
  155SAPE   H7X17278   2.926   6.825   6.306  0.5007 -0.6372  1.8487
  155SAPE   H7Y17279   3.097   6.879   6.335  0.5825  0.1288  0.6606
  155SAPE   C3817280   3.043   6.709   6.439  0.2862  0.3455  0.0242
  155SAPE   H8X17281   3.138   6.651   6.434 -1.5282 -2.6986 -0.6324
  155SAPE   H8Y17282   2.961   6.634   6.440  0.9257 -0.5019 -3.2207
  155SAPE   C3917283   3.027   6.806   6.557 -0.3034 -0.2264  0.4052
  155SAPE   H9X17284   2.937   6.868   6.541  0.4353  0.8866  0.4390
  155SAPE   H9Y17285   3.114   6.874   6.543 -1.7929  1.4705 -0.7688
  155SAPE  C31017286   3.028   6.738   6.691 -0.5621  0.1583  0.2800
  155SAPE  H10X17287   3.124   6.681   6.690 -0.2540  0.5460  3.5017
  155SAPE  H10Y17288   2.943   6.667   6.687 -0.2835 -0.0379 -3.5477
  155SAPE  C31117289   3.022   6.837   6.807  0.0792  0.3315 -0.2111
  155SAPE  H11X17290   2.934   6.905   6.796 -0.9145 -1.1089 -1.3911
  155SAPE  H11Y17291   3.113   6.900   6.801  1.0366 -1.1960 -2.2806
  155SAPE  C31217292   3.008   6.763   6.943  0.1110  0.0397 -0.2494
  155SAPE  H12X17293   3.076   6.676   6.956 -0.9106 -0.9971 -1.6573
  155SAPE  H12Y17294   2.904   6.725   6.948  0.5730 -0.9117  2.9191
  155SAPE  C31317295   3.012   6.861   7.065 -0.5171 -0.5606  0.6620
  155SAPE  H13X17296   2.926   6.930   7.047 -0.8637 -0.7985  1.3917
  155SAPE  H13Y17297   3.099   6.926   7.041 -0.3436 -0.4008  1.7108
  155SAPE  C31417298   3.004   6.792   7.200 -0.1323 -0.3244 -1.0047
  155SAPE  H14X17299   3.019   6.873   7.275 -0.2460 -1.1542 -0.0615
  155SAPE  H14Y17300   3.090   6.722   7.205  0.6389  0.6365 -0.5462
  155SAPE  C31517301   2.867   6.732   7.242  0.6756  0.2847  0.6579
  155SAPE  H15X17302   2.849   6.635   7.190  1.0336 -0.3075  1.6207
  155SAPE  H15Y17303   2.774   6.791   7.235  0.1643 -0.6786 -1.0180
  155SAPE  C31617304   2.884   6.691   7.391  0.3174 -0.0450  0.3690
  155SAPE  H16X17305   2.903   6.780   7.455  0.5826  0.9174 -1.0392
  155SAPE  H16Y17306   2.980   6.634   7.392  0.4249  0.1251 -0.0864
  155SAPE  C31717307   2.765   6.608   7.443  0.1578  0.2911  0.2407
  155SAPE  H17X17308   2.753   6.523   7.372  1.6694 -1.1690  1.6996
  155SAPE  H17Y17309   2.673   6.671   7.435 -0.1729 -0.4739 -2.3794
  155SAPE  C31817310   2.807   6.556   7.578  0.5721 -0.3772  0.3062
  155SAPE  H18X17311   2.729   6.517   7.648  0.4172  1.0896  0.9787
  155SAPE  H18Y17312   2.856   6.642   7.628  2.0581 -1.2265  0.3254
  155SAPE  H18Z17313   2.892   6.487   7.557  0.4805 -0.3604 -0.1112
  156SAPE     N17314   1.244   5.744   5.959  0.1644 -0.3696 -0.3529
  156SAPE   HN117315   1.149   5.784   5.943  1.9921  3.5629 -1.9849
  156SAPE   HN217316   1.275   5.680   5.883 -0.8495 -0.0777 -1.0306
  156SAPE   HN317317   1.233   5.682   6.041  2.1982  0.7435  0.7867
  156SAPE   C1217318   1.335   5.855   5.993 -0.5573 -0.7567 -0.1490
  156SAPE  H12A17319   1.399   5.875   5.905  0.2052 -0.9145  0.3577
  156SAPE  H12B17320   1.399   5.812   6.073 -1.7386  0.8050  1.6750
  156SAPE   C1117321   1.255   5.979   6.040 -0.7012  0.5775  0.4379
  156SAPE  H11A17322   1.322   6.050   6.093 -0.0379  1.6823 -1.8224
  156SAPE  H11B17323   1.180   5.957   6.120 -0.1442 -0.4908  0.6693
  156SAPE     P17324   1.193   6.154   5.844  0.0174  0.3047  0.0195
  156SAPE   O1317325   1.325   6.143   5.773  0.1530 -0.0264  0.2833
  156SAPE   O1417326   1.068   6.169   5.771 -0.8224  0.1512 -0.0926
  156SAPE   O1217327   1.177   6.026   5.928 -0.2950  0.0586 -0.2697
  156SAPE   O1117328   1.210   6.268   5.951  0.0427  0.3473  0.6765
  156SAPE    C117329   1.096   6.306   6.028  1.1653  0.6210 -0.7360
  156SAPE    HA17330   1.036   6.383   5.974  2.6652  1.1203 -1.7291
  156SAPE    HB17331   1.027   6.221   6.043  0.8567  0.8539 -0.8437
  156SAPE    C217332   1.128   6.377   6.159  0.6232 -0.6034 -0.0860
  156SAPE    HS17333   1.188   6.468   6.135  0.8794 -0.1495  2.1962
  156SAPE   O2117334   1.184   6.276   6.253  0.1925 -0.5081  0.2251
  156SAPE   C2117335   1.237   6.324   6.360  0.1018  0.1013 -0.2736
  156SAPE   O2217336   1.261   6.443   6.382  0.5912  0.1866 -0.1094
  156SAPE   C2217337   1.273   6.197   6.448 -0.5127  0.1240  0.1301
  156SAPE   H2R17338   1.324   6.252   6.530  2.1077 -0.0547 -1.2979
  156SAPE   H2S17339   1.183   6.155   6.497 -1.0649  0.0548 -0.9439
  156SAPE    C317340   1.001   6.421   6.227  0.4326 -0.2565 -0.4032
  156SAPE    HX17341   0.943   6.491   6.163  0.7455  1.1016  0.7579
  156SAPE    HY17342   1.027   6.478   6.319  1.1015 -2.7883  1.0173
  156SAPE   O3117343   0.913   6.308   6.246 -0.2252 -0.1587  0.1349
  156SAPE   C3117344   0.903   6.256   6.375 -0.5351 -0.3988  0.7051
  156SAPE   O3217345   0.955   6.306   6.472 -0.0048 -0.2200 -0.7388
  156SAPE   C3217346   0.818   6.129   6.360  0.0748  0.1884 -0.4271
  156SAPE   H2X17347   0.852   6.067   6.274  0.1582 -1.6508  0.9016
  156SAPE   H2Y17348   0.711   6.158   6.350 -0.1633  0.3617  2.3170
  156SAPE   C2317349   1.361   6.089   6.381  0.7969  0.4438  0.2636
  156SAPE   H3R17350   1.440   6.152   6.334  1.1721 -0.7951 -0.7925
  156SAPE   H3S17351   1.301   6.036   6.303  0.4461  0.2124  0.6916
  156SAPE   C2417352   1.408   5.981   6.471 -0.3206  0.7963 -0.2166
  156SAPE   H4R17353   1.479   5.915   6.416  0.0537 -0.2281  1.4526
  156SAPE   H4S17354   1.327   5.917   6.514 -0.8354  2.9099  2.0376
  156SAPE   C2517355   1.511   6.037   6.565 -0.0507 -0.0861 -0.1198
  156SAPE   H5R17356   1.616   6.044   6.534  0.1168 -0.2649  0.3982
  156SAPE   C2617357   1.480   6.061   6.692 -0.3977 -0.0940 -0.5687
  156SAPE   H6R17358   1.556   6.107   6.757  0.6589 -0.2364 -1.6768
  156SAPE   C2717359   1.344   6.050   6.762  0.5152  0.4274  0.6931
  156SAPE   H7R17360   1.358   5.951   6.809 -0.2441 -0.0768 -0.1124
  156SAPE   H7S17361   1.260   6.050   6.689  0.1077 -1.3663  1.1439
  156SAPE   C2817362   1.324   6.156   6.865  0.2110  0.3674  0.3535
  156SAPE   H8R17363   1.298   6.255   6.825  0.2848  0.4825  0.5888
  156SAPE   C2917364   1.339   6.137   6.994  0.3890  0.5342  1.0817
  156SAPE   H9R17365   1.310   6.223   7.057 -2.5167  0.2542  0.2153
  156SAPE  C21017366   1.375   6.010   7.068 -0.4035  0.1580  0.3220
  156SAPE  H10R17367   1.438   5.947   7.000 -2.2114 -0.6560 -0.6300
  156SAPE  H10S17368   1.280   5.952   7.075  1.1376 -2.3919  1.0534
  156SAPE  C21117369   1.454   6.036   7.196  0.8144  0.9620  0.7658
  156SAPE  H11R17370   1.461   6.141   7.228  0.0494  0.8293  1.3873
  156SAPE  C21217371   1.512   5.949   7.283 -0.3368  0.2606 -0.2206
  156SAPE  H12R17372   1.565   5.991   7.370 -1.5169 -0.3157  0.7894
  156SAPE  C21317373   1.504   5.797   7.276  0.3494  0.5882  0.3484
  156SAPE  H13R17374   1.542   5.762   7.178 -1.4715 -2.4113  0.6403
  156SAPE  H13S17375   1.398   5.764   7.275  0.5181  0.0384  0.4213
  156SAPE  C21417376   1.566   5.724   7.393 -0.0638  0.6123  0.1682
  156SAPE  H14R17377   1.668   5.691   7.367  0.2695  1.8616 -0.1526
  156SAPE  C21517378   1.519   5.723   7.513 -0.8465 -0.3536  0.2013
  156SAPE  H15R17379   1.573   5.679   7.598 -1.4939  0.9820  1.3279
  156SAPE  C21617380   1.390   5.779   7.564  0.2527 -0.3691 -0.1657
  156SAPE  H16R17381   1.306   5.710   7.541  1.0156 -2.0860  2.0602
  156SAPE  H16S17382   1.378   5.872   7.505  0.0361 -1.0430 -1.2185
  156SAPE  C21717383   1.381   5.815   7.707  0.0522  0.0428 -0.7240
  156SAPE  H17R17384   1.454   5.882   7.759 -0.6574  1.6045 -1.7214
  156SAPE  H17S17385   1.373   5.727   7.776  0.6067  1.6312  1.4375
  156SAPE  C21817386   1.253   5.895   7.740  0.1330 -0.7347  0.1891
  156SAPE  H18R17387   1.174   5.854   7.673 -0.9558  0.0808  0.9740
  156SAPE  H18S17388   1.270   6.001   7.710 -3.2334 -0.2642 -0.2761
  156SAPE  C21917389   1.204   5.882   7.887  1.0046  0.3391  0.4318
  156SAPE  H19R17390   1.279   5.935   7.950 -1.6480  3.5038  1.0381
  156SAPE  H19S17391   1.200   5.772   7.904 -1.5805  0.3513  0.1517
  156SAPE  C22017392   1.062   5.946   7.903 -0.1569  0.0877 -0.1399
  156SAPE  H20R17393   0.995   5.888   7.836  2.0391  1.4221 -3.6230
  156SAPE  H20S17394   1.054   6.047   7.857 -2.6195 -0.9024 -2.0139
  156SAPE  H20T17395   1.029   5.931   8.008  0.5152 -2.3321 -0.2371
  156SAPE   C3317396   0.811   6.048   6.493 -0.2256  0.6262  0.5484
  156SAPE   H3X17397   0.733   5.969   6.481  1.2509 -0.6338 -1.0926
  156SAPE   H3Y17398   0.772   6.111   6.575 -0.2134 -0.8115  1.6954
  156SAPE   C3417399   0.944   5.981   6.545 -0.2531  0.3769  0.7853
  156SAPE   H4X17400   1.002   6.062   6.595 -0.3912  0.2538  1.1429
  156SAPE   H4Y17401   1.010   5.948   6.462 -0.8643 -0.4960  0.6483
  156SAPE   C3517402   0.934   5.857   6.630  0.0263 -0.2443  0.5895
  156SAPE   H5X17403   0.887   5.772   6.574  1.8039 -0.8006 -0.1014
  156SAPE   H5Y17404   0.868   5.877   6.717  0.7832  1.4911  0.7663
  156SAPE   C3617405   1.068   5.826   6.691  0.9215 -0.1711 -0.5636
  156SAPE   H6X17406   1.092   5.904   6.767 -0.2722  0.3128 -0.6706
  156SAPE   H6Y17407   1.157   5.830   6.624  0.3357  0.8555 -1.2873
  156SAPE   C3717408   1.070   5.695   6.772  0.1499 -0.6689  0.5741
  156SAPE   H7X17409   1.068   5.609   6.701 -0.9981 -0.8008  0.7461
  156SAPE   H7Y17410   0.978   5.702   6.834  0.0382 -1.3653  0.4924
  156SAPE   C3817411   1.181   5.683   6.872 -0.1414 -0.2553 -0.1724
  156SAPE   H8X17412   1.155   5.596   6.936 -3.4163  1.1591  0.5421
  156SAPE   H8Y17413   1.187   5.783   6.920  1.1960 -0.1922 -0.4486
  156SAPE   C3917414   1.319   5.660   6.803 -0.2925 -0.1359  0.1083
  156SAPE   H9X17415   1.344   5.755   6.750  0.2084  0.6247  1.6627
  156SAPE   H9Y17416   1.308   5.572   6.736 -2.3567  1.8548 -2.2631
  156SAPE  C31017417   1.431   5.628   6.899  0.4719  0.1560 -0.2447
  156SAPE  H10X17418   1.420   5.701   6.982 -0.1564  1.7121 -1.6666
  156SAPE  H10Y17419   1.527   5.651   6.848  1.7652  1.0886  2.5211
  156SAPE  C31117420   1.433   5.484   6.932  0.2182 -0.0542  0.4912
  156SAPE  H11X17421   1.468   5.414   6.853  0.1489 -1.9828  2.1201
  156SAPE  H11Y17422   1.331   5.446   6.956  0.7337 -1.8229 -0.0500
  156SAPE  C31217423   1.537   5.463   7.043 -0.3244  1.4211 -0.2091
  156SAPE  H12X17424   1.533   5.558   7.101 -2.8576  0.6861  0.8874
  156SAPE  H12Y17425   1.639   5.452   7.000 -0.8838 -3.9946 -0.5003
  156SAPE  C31317426   1.527   5.337   7.129 -0.0919  0.2081 -0.1510
  156SAPE  H13X17427   1.577   5.253   7.076 -0.5675 -0.9116  1.1466
  156SAPE  H13Y17428   1.417   5.322   7.128 -0.4951  2.9948 -1.5598
  156SAPE  C31417429   1.556   5.367   7.274  0.2163 -0.1583  0.3228
  156SAPE  H14X17430   1.516   5.280   7.331  3.0095 -0.5379  1.7487
  156SAPE  H14Y17431   1.518   5.465   7.309 -0.0775  0.4433 -1.6053
  156SAPE  C31517432   1.702   5.381   7.301  0.4709 -0.0522  0.3566
  156SAPE  H15X17433   1.721   5.490   7.312  0.3026 -0.0479  0.6045
  156SAPE  H15Y17434   1.764   5.331   7.223 -1.0182 -0.7214 -0.4140
  156SAPE  C31617435   1.743   5.322   7.432  0.0027  0.4441  0.5064
  156SAPE  H16X17436   1.852   5.339   7.436  0.0032  0.5658  0.0645
  156SAPE  H16Y17437   1.718   5.217   7.405 -0.2730  0.8632 -0.9327
  156SAPE  C31717438   1.667   5.361   7.558 -0.4216  0.0706  0.2637
  156SAPE  H17X17439   1.561   5.328   7.560 -0.5019  0.2642 -0.4482
  156SAPE  H17Y17440   1.660   5.472   7.568  0.1507  0.2146 -0.7974
  156SAPE  C31817441   1.744   5.299   7.683  0.0825 -0.4524  0.3737
  156SAPE  H18X17442   1.734   5.188   7.679 -1.4886 -0.2791 -3.6894
  156SAPE  H18Y17443   1.703   5.326   7.782  1.8063 -0.0260  0.9769
  156SAPE  H18Z17444   1.853   5.320   7.683 -0.3622  2.0316 -0.0370
  157SAPE     N17445   5.212   1.414   5.708 -0.1212 -0.3350 -0.2682
  157SAPE   HN117446   5.205   1.512   5.742 -2.5262 -0.8950  1.0148
  157SAPE   HN217447   5.226   1.350   5.788  0.0826  0.9864  0.7793
  157SAPE   HN317448   5.299   1.394   5.656 -0.6274 -1.9271 -0.5253
  157SAPE   C1217449   5.091   1.376   5.632  0.3676  0.4210 -0.0412
  157SAPE  H12A17450   5.094   1.422   5.531  2.0775 -1.1206 -0.7108
  157SAPE  H12B17451   5.000   1.395   5.694 -0.3977 -0.6983 -0.8047
  157SAPE   C1117452   5.084   1.224   5.620 -0.1906  0.4289  0.0940
  157SAPE  H11A17453   5.173   1.191   5.563 -0.3566  4.0543 -2.3960
  157SAPE  H11B17454   4.990   1.185   5.574 -0.0445  0.1160  0.0582
  157SAPE     P17455   5.134   1.013   5.780  0.0717  0.0746  0.2839
  157SAPE   O1317456   5.043   0.947   5.880  0.1056 -0.2408 -0.0037
  157SAPE   O1417457   5.139   0.948   5.647 -0.6909  0.2354  0.4303
  157SAPE   O1217458   5.101   1.165   5.754 -0.2592  0.2335 -0.6273
  157SAPE   O1117459   5.274   1.019   5.836  0.0397 -0.2964  0.1382
  157SAPE    C117460   5.386   1.052   5.751 -0.0097  0.8981 -0.0512
  157SAPE    HA17461   5.395   0.984   5.664 -2.2419  0.0639  0.3331
  157SAPE    HB17462   5.373   1.153   5.707  1.7724  0.9212 -0.5908
  157SAPE    C217463   5.525   1.045   5.828 -0.3511 -0.3556  0.4632
  157SAPE    HS17464   5.603   1.012   5.757 -0.9783 -0.0526 -0.3668
  157SAPE   O2117465   5.517   0.954   5.938  0.4837  0.2570  0.4123
  157SAPE   C2117466   5.463   0.841   5.905 -0.4962 -0.1752  0.0286
  157SAPE   O2217467   5.483   0.784   5.797 -0.2181  0.5622  0.5168
  157SAPE   C2217468   5.385   0.784   6.018 -0.6633 -0.1380 -0.0352
  157SAPE   H2R17469   5.454   0.764   6.103 -0.6934 -0.8563 -0.1736
  157SAPE   H2S17470   5.312   0.863   6.047 -0.5434 -0.9525  2.6638
  157SAPE    C317471   5.585   1.187   5.866  0.1996  0.1339 -1.0723
  157SAPE    HX17472   5.552   1.263   5.792 -4.0156 -1.8895 -1.4693
  157SAPE    HY17473   5.692   1.167   5.884 -0.1229  0.5149  1.4803
  157SAPE   O3117474   5.535   1.213   6.002  0.8490 -0.1841  0.1720
  157SAPE   C3117475   5.410   1.265   6.007 -0.8162 -0.0781 -0.0321
  157SAPE   O3217476   5.351   1.312   5.911 -0.0422  0.1152  0.1949
  157SAPE   C3217477   5.351   1.259   6.151 -0.0401 -0.0907  0.2377
  157SAPE   H2X17478   5.283   1.171   6.152  0.0964 -0.1834  3.0327
  157SAPE   H2Y17479   5.282   1.346   6.159 -0.8614 -0.8390  1.3847
  157SAPE   C2317480   5.304   0.656   5.981 -0.5185 -0.1084 -0.8711
  157SAPE   H3R17481   5.374   0.573   5.958  0.8055  0.8676 -0.4039
  157SAPE   H3S17482   5.241   0.677   5.892 -0.1784  2.4693 -0.5492
  157SAPE   C2417483   5.207   0.607   6.094 -0.0064 -0.5516 -0.4140
  157SAPE   H4R17484   5.270   0.606   6.186 -0.6329 -1.7291  0.0089
  157SAPE   H4S17485   5.182   0.501   6.072 -0.2818 -0.9015  1.5047
  157SAPE   C2517486   5.087   0.694   6.097 -0.3771  0.3105  0.3152
  157SAPE   H5R17487   5.047   0.724   5.999 -1.6635  0.7050  0.9539
  157SAPE   C2617488   5.045   0.760   6.200  0.6087 -0.3130 -0.0982
  157SAPE   H6R17489   4.965   0.833   6.180 -0.1647 -1.7853 -2.5642
  157SAPE   C2717490   5.095   0.750   6.339  0.5941  0.6229 -0.5762
  157SAPE   H7R17491   5.143   0.652   6.358  0.0593  0.0236 -2.2942
  157SAPE   H7S17492   5.008   0.750   6.408  1.3009  2.9807  0.3675
  157SAPE   C2817493   5.171   0.868   6.401 -0.4458  0.3774  0.0944
  157SAPE   H8R17494   5.224   0.939   6.336 -0.9449 -0.3079 -1.0840
  157SAPE   C2917495   5.211   0.877   6.527  0.0534  0.5707  0.3933
  157SAPE   H9R17496   5.266   0.968   6.552  0.7036 -0.6505  3.6359
  157SAPE  C21017497   5.166   0.794   6.646  0.3091  0.4254  0.0038
  157SAPE  H10R17498   5.133   0.692   6.616  1.6032  0.5592 -1.9702
  157SAPE  H10S17499   5.074   0.842   6.685  0.1074 -2.2829  3.0480
  157SAPE  C21117500   5.278   0.793   6.749  0.5546 -0.9774  0.0405
  157SAPE  H11R17501   5.369   0.739   6.717  1.8827  0.5477  1.1593
  157SAPE  C21217502   5.279   0.853   6.869 -0.8485 -0.2083  0.4038
  157SAPE  H12R17503   5.361   0.827   6.937  0.2012  0.9018 -0.4040
  157SAPE  C21317504   5.159   0.931   6.925  0.4371  0.5697  0.2784
  157SAPE  H13R17505   5.075   0.866   6.956 -0.1382  1.3390  0.3522
  157SAPE  H13S17506   5.120   0.996   6.843 -1.0147 -1.1167 -0.3799
  157SAPE  C21417507   5.202   1.005   7.052  0.6374 -0.4247  0.1912
  157SAPE  H14R17508   5.307   1.036   7.055  0.2021  1.0769  0.6147
  157SAPE  C21517509   5.119   1.051   7.150 -0.0461 -0.4101  0.1855
  157SAPE  H15R17510   5.160   1.103   7.238  1.8001 -0.5019 -0.5953
  157SAPE  C21617511   4.968   1.029   7.174 -0.0791 -0.1111  0.3707
  157SAPE  H16R17512   4.917   1.025   7.075  1.9204 -0.1698 -0.6756
  157SAPE  H16S17513   4.924   1.112   7.232  0.4481 -1.1259  2.2551
  157SAPE  C21717514   4.937   0.892   7.246  0.5540  0.6996  0.2985
  157SAPE  H17R17515   4.975   0.804   7.189 -2.1798 -1.1838  1.2871
  157SAPE  H17S17516   4.827   0.878   7.249  0.8077 -1.8051 -0.5757
  157SAPE  C21817517   4.986   0.894   7.390  0.5111  0.5504 -0.4061
  157SAPE  H18R17518   4.991   0.999   7.424  0.5369  0.5553 -0.4242
  157SAPE  H18S17519   5.089   0.854   7.395  0.2555 -0.0929 -0.2230
  157SAPE  C21917520   4.893   0.819   7.489 -0.1858 -0.8457 -0.4559
  157SAPE  H19R17521   4.800   0.880   7.493  0.1195 -0.3713 -0.4813
  157SAPE  H19S17522   4.938   0.829   7.590 -1.1161 -1.8547  0.0567
  157SAPE  C22017523   4.860   0.676   7.454 -0.7779  0.2438  0.0966
  157SAPE  H20R17524   4.825   0.608   7.534  0.6950  0.8273  1.2647
  157SAPE  H20S17525   4.951   0.627   7.413 -0.7896  1.7774 -1.8127
  157SAPE  H20T17526   4.787   0.669   7.371  1.0566  0.6567 -1.5764
  157SAPE   C3317527   5.458   1.257   6.268 -0.5004  0.3998  0.0614
  157SAPE   H3X17528   5.509   1.355   6.267  0.6582 -0.1666 -3.1824
  157SAPE   H3Y17529   5.529   1.176   6.241  0.2340  0.6264  1.2596
  157SAPE   C3417530   5.396   1.228   6.408  0.1898 -0.1425 -0.2845
  157SAPE   H4X17531   5.306   1.164   6.400 -1.0897  0.8465  4.2991
  157SAPE   H4Y17532   5.356   1.316   6.464  0.6471  0.7064 -1.2740
  157SAPE   C3517533   5.505   1.176   6.502 -0.0110  0.1629  0.7411
  157SAPE   H5X17534   5.604   1.213   6.469 -0.2425  0.1963  0.0756
  157SAPE   H5Y17535   5.518   1.069   6.477  0.7784  0.4287 -0.0311
  157SAPE   C3617536   5.480   1.192   6.654 -0.3160  0.1167 -0.5904
  157SAPE   H6X17537   5.385   1.148   6.692 -0.3312  0.0048 -0.7560
  157SAPE   H6Y17538   5.484   1.302   6.665  3.1200  0.2141 -2.2037
  157SAPE   C3717539   5.599   1.143   6.745 -0.7361  0.3043 -0.0218
  157SAPE   H7X17540   5.683   1.210   6.716 -3.4386  4.5443  1.4837
  157SAPE   H7Y17541   5.618   1.039   6.710 -3.5316 -0.2210 -0.1337
  157SAPE   C3817542   5.568   1.142   6.899 -0.3705  0.3778 -0.6378
  157SAPE   H8X17543   5.473   1.084   6.905  0.2423 -0.3422  3.1014
  157SAPE   H8Y17544   5.552   1.243   6.943  0.8350  1.1232 -1.8623
  157SAPE   C3917545   5.673   1.066   6.979  0.7372 -0.6078  0.4164
  157SAPE   H9X17546   5.771   1.118   6.970 -0.5833  1.7714 -0.4329
  157SAPE   H9Y17547   5.681   0.964   6.937 -0.4459 -0.1338 -0.9662
  157SAPE  C31017548   5.631   1.054   7.121  0.4902  0.1677 -0.3684
  157SAPE  H10X17549   5.542   0.990   7.140 -0.3941  0.9681 -1.7140
  157SAPE  H10Y17550   5.609   1.156   7.159  0.4413 -0.4949  1.4278
  157SAPE  C31117551   5.750   1.011   7.207 -0.5998 -0.2165  1.2664
  157SAPE  H11X17552   5.844   1.063   7.179  0.2668 -2.8516 -0.9147
  157SAPE  H11Y17553   5.776   0.904   7.197  0.3796  0.1460 -0.3161
  157SAPE  C31217554   5.727   1.037   7.357  0.5153 -0.3074 -0.0544
  157SAPE  H12X17555   5.643   0.977   7.397  0.9342 -1.7643 -1.2975
  157SAPE  H12Y17556   5.688   1.139   7.374  3.5979  0.8828  0.2565
  157SAPE  C31317557   5.852   1.016   7.442 -0.6998 -0.1898  0.0847
  157SAPE  H13X17558   5.938   1.065   7.392  0.1967 -2.1565 -0.3597
  157SAPE  H13Y17559   5.870   0.907   7.450  0.5830 -0.0747 -1.0227
  157SAPE  C31417560   5.829   1.064   7.584 -0.4348  0.8676 -0.0607
  157SAPE  H14X17561   5.738   1.019   7.630 -0.7142 -0.7285 -2.1297
  157SAPE  H14Y17562   5.815   1.174   7.592  1.0374  0.9611  1.7721
  157SAPE  C31517563   5.948   1.028   7.678 -0.6058  0.0774 -0.5197
  157SAPE  H15X17564   5.929   1.065   7.781 -1.8431 -1.7924 -0.0442
  157SAPE  H15Y17565   6.043   1.074   7.645  0.9531 -2.9255 -0.4077
  157SAPE  C31617566   5.984   0.879   7.692 -0.5124  0.4822  0.1813
  157SAPE  H16X17567   6.053   0.868   7.778  0.8103 -0.5956 -0.9877
  157SAPE  H16Y17568   6.036   0.861   7.595 -0.0201 -1.5420  0.8094
  157SAPE  C31717569   5.864   0.786   7.718  0.1255 -0.3005  0.8579
  157SAPE  H17X17570   5.903   0.682   7.730  0.5506  0.0776  3.1172
  157SAPE  H17Y17571   5.792   0.783   7.634 -0.6597  0.1254  1.5183
  157SAPE  C31817572   5.781   0.817   7.842 -0.2537 -0.4152  0.2122
  157SAPE  H18X17573   5.724   0.912   7.834  1.3419  0.5323 -0.1146
  157SAPE  H18Y17574   5.843   0.812   7.934 -0.1962  0.5763  0.2357
  157SAPE  H18Z17575   5.708   0.737   7.869  1.6129 -2.5229 -0.8217
  158SAPE     N17576   0.643   6.424   5.872 -0.3704 -0.2955  0.1691
  158SAPE   HN117577   0.680   6.520   5.858 -1.3601  0.3212  1.6747
  158SAPE   HN217578   0.597   6.417   5.964  1.9606 -3.9680  1.1515
  158SAPE   HN317579   0.727   6.363   5.871  0.0219  0.2380  0.2573
  158SAPE   C1217580   0.558   6.386   5.753 -0.1784  0.1256 -0.4381
  158SAPE  H12A17581   0.618   6.372   5.660  1.6992 -1.2113  0.9520
  158SAPE  H12B17582   0.487   6.469   5.733 -1.1549 -0.0920  2.0338
  158SAPE   C1117583   0.485   6.250   5.779 -0.2421 -0.1356 -0.1953
  158SAPE  H11A17584   0.555   6.171   5.814  0.3589  0.9249  1.0391
  158SAPE  H11B17585   0.445   6.215   5.682 -0.0054 -0.2630 -0.2464
  158SAPE     P17586   0.251   6.170   5.869 -0.4960 -0.0549 -0.0415
  158SAPE   O1317587   0.167   6.210   5.756  0.0102  0.7483 -0.4075
  158SAPE   O1417588   0.302   6.034   5.864 -0.4362  0.7722  0.5118
  158SAPE   O1217589   0.377   6.268   5.871  0.0493  0.0977  0.1020
  158SAPE   O1117590   0.171   6.200   5.998 -0.2048 -0.0666 -0.7353
  158SAPE    C117591   0.202   6.157   6.129 -0.2490 -0.2185  0.1543
  158SAPE    HA17592   0.104   6.169   6.179 -0.0304 -0.9141  0.7553
  158SAPE    HB17593   0.244   6.055   6.147  0.5936  0.1741  0.4665
  158SAPE    C217594   0.295   6.256   6.207  0.4360  0.6671 -0.2432
  158SAPE    HS17595   0.398   6.250   6.165  0.7451  3.2076  0.0566
  158SAPE   O2117596   0.282   6.228   6.345 -0.1161 -0.4558  0.0087
  158SAPE   C2117597   0.365   6.133   6.394  0.3218 -0.0952  0.3606
  158SAPE   O2217598   0.448   6.072   6.327  0.1705  0.5636 -0.4602
  158SAPE   C2217599   0.360   6.123   6.546  0.0945  0.3682  0.4436
  158SAPE   H2R17600   0.412   6.214   6.584  1.5063 -0.5190  0.6732
  158SAPE   H2S17601   0.257   6.125   6.587  0.0295  2.5009  0.2406
  158SAPE    C317602   0.244   6.397   6.183 -0.3756 -0.6670  0.3635
  158SAPE    HX17603   0.138   6.410   6.214 -0.5369 -0.3710 -0.2931
  158SAPE    HY17604   0.245   6.410   6.072  0.0775 -0.1529  0.4307
  158SAPE   O3117605   0.322   6.499   6.243  0.0333 -0.3070 -0.5604
  158SAPE   C3117606   0.452   6.511   6.217  0.5717 -0.0180  0.5564
  158SAPE   O3217607   0.517   6.446   6.141  0.0347  0.4645 -0.5523
  158SAPE   C3217608   0.503   6.631   6.301  0.0916 -0.2691 -0.1941
  158SAPE   H2X17609   0.440   6.720   6.277 -1.0315 -0.8991  0.3394
  158SAPE   H2Y17610   0.607   6.650   6.269 -0.5608 -1.4999 -3.2120
  158SAPE   C2317611   0.446   6.004   6.595  0.3507  0.5763  0.2389
  158SAPE   H3R17612   0.549   6.014   6.556  0.2599 -2.1488 -0.8245
  158SAPE   H3S17613   0.399   5.912   6.554  0.2327 -0.7306  3.1812
  158SAPE   C2417614   0.444   6.000   6.751 -0.3347  0.4657  0.5504
  158SAPE   H4R17615   0.338   6.004   6.783 -0.2995  3.0035  0.4297
  158SAPE   H4S17616   0.489   6.093   6.792  0.2143  0.8183 -0.8212
  158SAPE   C2517617   0.522   5.896   6.822  0.0080 -0.0841 -0.5295
  158SAPE   H5R17618   0.578   5.825   6.761  2.6794  1.0360  0.5511
  158SAPE   C2617619   0.533   5.892   6.959  0.1781 -0.6478 -0.8836
  158SAPE   H6R17620   0.601   5.815   6.997  1.6923  1.1251  0.0814
  158SAPE   C2717621   0.480   5.992   7.058  0.3550 -0.3586 -0.3008
  158SAPE   H7R17622   0.515   6.096   7.039 -0.3464 -0.0039  0.3477
  158SAPE   H7S17623   0.525   5.982   7.159 -2.3741  0.6352  1.0538
  158SAPE   C2817624   0.330   5.999   7.078  0.1435  0.3382  0.1703
  158SAPE   H8R17625   0.254   5.957   7.009 -1.6599  2.3474  0.8864
  158SAPE   C2917626   0.270   6.058   7.182  0.4702  0.3040  0.0802
  158SAPE   H9R17627   0.161   6.049   7.193  0.5510 -0.1462  0.5397
  158SAPE  C21017628   0.333   6.128   7.299 -0.6149 -0.5012 -0.0013
  158SAPE  H10R17629   0.300   6.234   7.285  0.7284 -0.2248 -1.1477
  158SAPE  H10S17630   0.443   6.132   7.286 -0.5095 -1.5634  0.5285
  158SAPE  C21117631   0.292   6.081   7.435  0.2642  0.0688  0.0228
  158SAPE  H11R17632   0.258   5.976   7.438 -0.6333  0.3640  0.3475
  158SAPE  C21217633   0.272   6.159   7.543 -0.6399 -0.1624 -0.2104
  158SAPE  H12R17634   0.251   6.111   7.640  0.0440  0.2656  0.1543
  158SAPE  C21317635   0.294   6.311   7.546 -0.3870  0.5697  0.0699
  158SAPE  H13R17636   0.368   6.348   7.472  0.4030  0.0744  0.6043
  158SAPE  H13S17637   0.329   6.344   7.646  0.3378 -1.4420  0.5099
  158SAPE  C21417638   0.164   6.372   7.517 -0.3340 -0.6163 -0.1312
  158SAPE  H14R17639   0.098   6.310   7.455 -0.2076  0.0640 -0.9541
  158SAPE  C21517640   0.126   6.497   7.539  0.0118  0.2545  0.1749
  158SAPE  H15R17641   0.030   6.536   7.501  0.3490  0.4529 -0.4876
  158SAPE  C21617642   0.207   6.604   7.601 -0.9862  0.2790  0.0968
  158SAPE  H16R17643   0.226   6.684   7.526  0.4079  0.9305  1.1084
  158SAPE  H16S17644   0.299   6.558   7.643 -2.4746 -2.6898  0.1976
  158SAPE  C21717645   0.122   6.664   7.714  0.2098  0.7141  0.1811
  158SAPE  H17R17646   0.020   6.699   7.688 -0.5951 -1.2234  0.6365
  158SAPE  H17S17647   0.171   6.757   7.747  0.8855  0.2780  0.4125
  158SAPE  C21817648   0.115   6.575   7.843 -0.2392  0.2134 -0.1808
  158SAPE  H18R17649   0.216   6.545   7.878  0.2683 -0.2205 -1.9810
  158SAPE  H18S17650   0.062   6.483   7.810  2.5981 -1.4099 -0.3441
  158SAPE  C21917651   0.038   6.651   7.955 -0.5169 -0.3862  0.3154
  158SAPE  H19R17652   0.003   6.567   8.019 -1.7256 -0.1370 -0.0085
  158SAPE  H19S17653  -0.049   6.695   7.902  0.8629 -0.1681 -1.8563
  158SAPE  C22017654   0.127   6.749   8.032 -0.8053 -0.3754 -0.2637
  158SAPE  H20R17655   0.224   6.705   8.064 -0.2895  1.0241  0.1533
  158SAPE  H20S17656   0.078   6.788   8.124  0.6469  1.0455 -0.0612
  158SAPE  H20T17657   0.159   6.846   7.986  2.6514  0.1006  2.8590
  158SAPE   C3317658   0.500   6.603   6.457 -0.2610  0.4698  0.5530
  158SAPE   H3X17659   0.400   6.558   6.474  1.3520 -3.6517 -0.5007
  158SAPE   H3Y17660   0.495   6.701   6.510 -1.5292  1.6288 -1.6487
  158SAPE   C3417661   0.604   6.509   6.519 -0.3284  0.1090  0.5579
  158SAPE   H4X17662   0.709   6.534   6.494 -0.1999 -1.8043 -0.9162
  158SAPE   H4Y17663   0.582   6.408   6.479  0.4106 -0.0374  0.5191
  158SAPE   C3517664   0.603   6.490   6.670 -0.3201 -0.1027 -0.6224
  158SAPE   H5X17665   0.500   6.494   6.710  0.2069  1.7523  0.5893
  158SAPE   H5Y17666   0.652   6.579   6.714 -0.3443 -0.0505 -0.7032
  158SAPE   C3617667   0.675   6.361   6.712 -0.0820 -1.1266 -0.7280
  158SAPE   H6X17668   0.780   6.375   6.680 -0.8990  0.6584 -2.7805
  158SAPE   H6Y17669   0.644   6.275   6.649 -1.6141  0.7953 -2.7108
  158SAPE   C3717670   0.671   6.333   6.860  0.3265 -0.6632 -0.0388
  158SAPE   H7X17671   0.705   6.420   6.921 -0.7175 -0.6164  0.4751
  158SAPE   H7Y17672   0.566   6.321   6.892  0.7550 -0.9765  1.2753
  158SAPE   C3817673   0.742   6.193   6.893  0.3869  0.2098 -0.0856
  158SAPE   H8X17674   0.696   6.104   6.845 -0.6723  1.3651 -1.2257
  158SAPE   H8Y17675   0.704   6.174   6.996  1.0163  1.6117  0.4194
  158SAPE   C3917676   0.896   6.197   6.906  0.7683  0.3084 -0.4053
  158SAPE   H9X17677   0.941   6.298   6.917  2.5545 -0.1788 -2.9085
  158SAPE   H9Y17678   0.944   6.166   6.811  0.5309  0.7852 -0.6791
  158SAPE  C31017679   0.956   6.115   7.015  0.5121  0.0963  0.1997
  158SAPE  H10X17680   0.920   6.174   7.102  1.5682 -1.4324  1.6962
  158SAPE  H10Y17681   1.066   6.128   7.020  0.4105  0.3045  2.1684
  158SAPE  C31117682   0.909   5.973   7.034 -0.2735  0.2993  0.3323
  158SAPE  H11X17683   0.931   5.913   6.943 -0.1230 -2.1714  1.9430
  158SAPE  H11Y17684   0.799   5.961   7.040 -0.1628 -1.0808 -0.2915
  158SAPE  C31217685   0.980   5.900   7.148 -0.5623  0.0213  0.2442
  158SAPE  H12X17686   0.979   5.962   7.240 -0.0105  0.4451 -0.0302
  158SAPE  H12Y17687   1.086   5.888   7.116 -0.6531 -1.5232  0.5029
  158SAPE  C31317688   0.927   5.755   7.167 -0.4146  0.2616  0.2947
  158SAPE  H13X17689   0.879   5.719   7.073  1.0160  0.9803 -0.7459
  158SAPE  H13Y17690   0.839   5.761   7.234 -0.4266 -1.5176  0.4458
  158SAPE  C31417691   1.015   5.638   7.199 -0.5696 -0.3668  0.1127
  158SAPE  H14X17692   1.106   5.649   7.136 -2.3399  0.9645 -2.3003
  158SAPE  H14Y17693   0.964   5.542   7.176 -0.2786 -0.4337 -0.2561
  158SAPE  C31517694   1.077   5.626   7.341  0.2057 -0.2613 -0.2869
  158SAPE  H15X17695   0.990   5.597   7.403  0.2352 -1.3288 -0.7273
  158SAPE  H15Y17696   1.129   5.718   7.373 -1.1969  0.0323  1.1662
  158SAPE  C31617697   1.153   5.495   7.355 -0.4216  0.0552 -0.4765
  158SAPE  H16X17698   1.255   5.509   7.312  0.0149 -0.0940  0.4908
  158SAPE  H16Y17699   1.101   5.411   7.306  0.6929 -1.1193  0.3177
  158SAPE  C31717700   1.159   5.445   7.500 -0.2936 -0.1115 -0.2195
  158SAPE  H17X17701   1.052   5.432   7.527 -0.1051  1.2162  1.2639
  158SAPE  H17Y17702   1.194   5.536   7.552  1.0397  0.4423 -2.0466
  158SAPE  C31817703   1.233   5.325   7.545 -0.5695  0.5212  0.3154
  158SAPE  H18X17704   1.326   5.371   7.584  0.0160  0.6627 -1.2491
  158SAPE  H18Y17705   1.256   5.252   7.465 -0.7971  1.5986 -0.7347
  158SAPE  H18Z17706   1.190   5.267   7.630 -0.2362 -1.7878 -1.0588
  159SAPE     N17707   0.458   1.673   5.599  0.1365  0.0189  0.0094
  159SAPE   HN117708   0.541   1.613   5.582 -0.7305 -0.3023 -3.5137
  159SAPE   HN217709   0.380   1.606   5.609 -0.9406  1.3292  0.4929
  159SAPE   HN317710   0.437   1.719   5.508  0.1370 -0.1305 -0.0666
  159SAPE   C1217711   0.468   1.764   5.721 -0.2099 -0.2331 -0.4436
  159SAPE  H12A17712   0.403   1.853   5.709 -0.0846 -0.2734 -1.4800
  159SAPE  H12B17713   0.569   1.810   5.720 -0.4411  0.2594 -1.7564
  159SAPE   C1117714   0.468   1.678   5.848 -0.3638 -0.2697  0.1790
  159SAPE  H11A17715   0.497   1.736   5.938  0.9131  1.8297 -1.5447
  159SAPE  H11B17716   0.541   1.595   5.837  0.0158 -0.1934  1.9379
  159SAPE     P17717   0.287   1.483   5.849  0.0284  0.2170  0.3051
  159SAPE   O1317718   0.169   1.458   5.931  0.3384 -0.0627 -0.8349
  159SAPE   O1417719   0.265   1.476   5.702 -0.1067 -0.3118 -0.0864
  159SAPE   O1217720   0.340   1.629   5.883  0.0264  0.4781  0.1511
  159SAPE   O1117721   0.405   1.387   5.883  0.1414  0.4722 -0.1623
  159SAPE    C117722   0.418   1.363   6.026  0.2315  0.5433  1.0870
  159SAPE    HA17723   0.432   1.458   6.083 -0.2790  3.0055 -2.7059
  159SAPE    HB17724   0.328   1.315   6.068  0.1142  0.0183  0.2371
  159SAPE    C217725   0.534   1.277   6.061 -0.2934  0.1776 -0.6836
  159SAPE    HS17726   0.509   1.175   6.025  1.1055 -1.0749  1.7692
  159SAPE   O2117727   0.566   1.280   6.203 -0.2935 -0.2032  0.3879
  159SAPE   C2117728   0.473   1.237   6.285 -0.2538  0.1400  0.5891
  159SAPE   O2217729   0.382   1.161   6.250 -0.4754  0.5116 -0.2500
  159SAPE   C2217730   0.501   1.282   6.423 -0.0804  0.2418 -0.0223
  159SAPE   H2R17731   0.540   1.183   6.457 -1.8770 -0.4607  0.0392
  159SAPE   H2S17732   0.586   1.352   6.435  1.0204 -1.2448  1.0942
  159SAPE    C317733   0.658   1.333   5.977 -0.0149  0.6211  0.0379
  159SAPE    HX17734   0.642   1.339   5.867 -2.5327 -0.3934  0.3105
  159SAPE    HY17735   0.738   1.258   5.993 -0.0725  0.4434 -0.4977
  159SAPE   O3117736   0.702   1.463   6.012  1.1408  0.3823  0.0001
  159SAPE   C3117737   0.827   1.494   6.007 -0.3065  0.8148  0.2906
  159SAPE   O3217738   0.922   1.423   5.967  0.3592 -0.4034 -0.0113
  159SAPE   C3217739   0.846   1.640   6.046 -0.1185 -0.4901  0.7340
  159SAPE   H2X17740   0.792   1.696   5.966  1.9655  0.3597 -0.0895
  159SAPE   H2Y17741   0.954   1.665   6.043  0.2754 -2.1536  0.2453
  159SAPE   C2317742   0.380   1.321   6.506  0.2073 -0.2492 -1.0776
  159SAPE   H3R17743   0.298   1.248   6.484 -1.3604  1.0617  0.3607
  159SAPE   H3S17744   0.350   1.426   6.489 -1.2063 -0.1643  1.7275
  159SAPE   C2417745   0.406   1.311   6.662 -0.7157  0.2997 -0.9489
  159SAPE   H4R17746   0.395   1.211   6.709  1.6609  0.1140 -0.7442
  159SAPE   H4S17747   0.326   1.372   6.711 -0.3918 -0.5948  0.7451
  159SAPE   C2517748   0.538   1.369   6.703 -0.4550  0.2718  0.2176
  159SAPE   H5R17749   0.571   1.459   6.648  2.3246  0.1700  1.6172
  159SAPE   C2617750   0.610   1.334   6.813  0.4780 -0.9454 -0.1758
  159SAPE   H6R17751   0.703   1.389   6.832  0.0726 -0.8477  1.5471
  159SAPE   C2717752   0.592   1.233   6.916 -0.0967 -0.8514 -0.4814
  159SAPE   H7R17753   0.506   1.166   6.898  0.3579 -1.4306 -0.5095
  159SAPE   H7S17754   0.574   1.291   7.009 -0.9277  0.7155 -1.6057
  159SAPE   C2817755   0.711   1.145   6.919 -0.1141 -0.0580 -0.0377
  159SAPE   H8R17756   0.743   1.099   6.824  0.2290  0.7947 -0.3412
  159SAPE   C2917757   0.800   1.110   7.016  0.1528  0.2658 -0.5775
  159SAPE   H9R17758   0.883   1.041   6.995  0.2715  0.2855 -0.1768
  159SAPE  C21017759   0.791   1.143   7.163  0.3227 -0.5503  0.2647
  159SAPE  H10R17760   0.749   1.244   7.180  1.8548  0.6613 -2.8549
  159SAPE  H10S17761   0.896   1.162   7.194  0.3566  2.8729 -1.7573
  159SAPE  C21117762   0.709   1.042   7.243 -0.3260  0.0725 -0.4495
  159SAPE  H11R17763   0.600   1.037   7.226 -0.7702 -0.9691  2.4744
  159SAPE  C21217764   0.758   0.966   7.346  0.1247 -0.4866  0.3945
  159SAPE  H12R17765   0.690   0.890   7.385 -0.6481  0.7283  1.4629
  159SAPE  C21317766   0.899   0.982   7.400 -0.0164 -0.1469 -0.3715
  159SAPE  H13R17767   0.900   1.079   7.455 -0.2946  0.4765 -1.4648
  159SAPE  H13S17768   0.964   1.006   7.314 -0.0452  1.6431  0.0824
  159SAPE  C21417769   0.963   0.871   7.477 -0.2511 -0.2755  0.0647
  159SAPE  H14R17770   1.046   0.826   7.421  1.5301 -0.1564  2.5040
  159SAPE  C21517771   0.942   0.837   7.603 -0.1241  0.2959 -0.1278
  159SAPE  H15R17772   1.002   0.750   7.634 -0.4205  0.4292  0.8015
  159SAPE  C21617773   0.843   0.894   7.701  0.0631  1.1413 -0.3910
  159SAPE  H16R17774   0.747   0.839   7.699 -0.4068  1.9592 -0.2929
  159SAPE  H16S17775   0.812   0.998   7.681  2.5602  1.5580 -2.3870
  159SAPE  C21717776   0.877   0.888   7.849  0.5047  1.2411  0.2051
  159SAPE  H17R17777   0.880   0.783   7.886  2.9792  0.8083 -1.0683
  159SAPE  H17S17778   0.795   0.941   7.902  1.4940  1.3159  1.6795
  159SAPE  C21817779   1.005   0.967   7.874  0.0462  0.3448 -0.6010
  159SAPE  H18R17780   0.998   1.067   7.826  1.7933  0.6484 -0.2391
  159SAPE  H18S17781   1.094   0.923   7.825 -0.7153 -0.6287 -1.1347
  159SAPE  C21917782   1.040   0.980   8.026  0.2490  0.0725 -0.8631
  159SAPE  H19R17783   1.032   0.877   8.068  0.4190 -0.3868 -1.9465
  159SAPE  H19S17784   0.968   1.047   8.077  1.6151  1.4682 -0.7275
  159SAPE  C22017785   1.187   1.026   8.057  0.0595  0.1890 -0.6769
  159SAPE  H20R17786   1.229   1.104   7.991  3.3462 -0.3280  0.7127
  159SAPE  H20S17787   1.246   0.931   8.050  2.0657  1.6093 -4.0278
  159SAPE  H20T17788   1.198   1.062   8.161 -0.9879  2.7989 -1.4464
  159SAPE   C3317789   0.794   1.673   6.188  0.3328  0.2036 -0.5968
  159SAPE   H3X17790   0.695   1.625   6.207 -0.5431  2.1806  0.0221
  159SAPE   H3Y17791   0.793   1.782   6.209 -1.9016  0.1920 -0.5248
  159SAPE   C3417792   0.886   1.614   6.288  0.3536  0.4762 -0.5447
  159SAPE   H4X17793   0.986   1.662   6.280 -0.1086  1.5604  0.0308
  159SAPE   H4Y17794   0.889   1.508   6.254  1.3276 -1.0751  4.0436
  159SAPE   C3517795   0.832   1.624   6.431 -0.1030  0.1248  0.0580
  159SAPE   H5X17796   0.734   1.572   6.439 -1.1127  1.5851 -2.2126
  159SAPE   H5Y17797   0.821   1.731   6.460 -1.4556 -0.2946  1.1192
  159SAPE   C3617798   0.929   1.564   6.526  0.0347  0.3033 -0.8576
  159SAPE   H6X17799   1.028   1.614   6.535  0.4290 -0.9481  2.5333
  159SAPE   H6Y17800   0.971   1.468   6.488 -1.7176 -0.8982  0.1782
  159SAPE   C3717801   0.883   1.533   6.669  0.8410 -0.0305 -0.4414
  159SAPE   H7X17802   0.823   1.440   6.659 -1.4405  1.4990 -1.5562
  159SAPE   H7Y17803   0.813   1.609   6.710 -0.3584 -2.1260  1.5750
  159SAPE   C3817804   1.000   1.532   6.766  0.3946 -0.5276  0.3013
  159SAPE   H8X17805   1.045   1.633   6.780  0.3027 -0.4738  0.2080
  159SAPE   H8Y17806   1.083   1.465   6.736  0.4124 -1.2690  1.9158
  159SAPE   C3917807   0.963   1.483   6.908  0.0603  0.4158 -0.3209
  159SAPE   H9X17808   1.042   1.432   6.966 -0.4013  0.5860  0.4642
  159SAPE   H9Y17809   0.887   1.402   6.899  0.8062 -0.4324  0.9525
  159SAPE  C31017810   0.904   1.604   6.988 -0.1198  0.3670 -0.0146
  159SAPE  H10X17811   0.833   1.676   6.942 -0.0654  1.9208  2.2452
  159SAPE  H10Y17812   0.995   1.665   7.004 -0.0456  1.1555 -3.0119
  159SAPE  C31117813   0.851   1.561   7.133 -1.0152  0.3577  0.4199
  159SAPE  H11X17814   0.760   1.498   7.126 -0.8064  0.0439  0.5272
  159SAPE  H11Y17815   0.830   1.654   7.190  1.9746  0.6010  1.1955
  159SAPE  C31217816   0.955   1.494   7.221  0.3427  0.9387  0.8029
  159SAPE  H12X17817   1.050   1.551   7.230  0.7440  0.6162 -1.1451
  159SAPE  H12Y17818   0.977   1.392   7.183 -1.7294  0.3720  1.0792
  159SAPE  C31317819   0.899   1.458   7.362  0.0765  0.3527  0.0056
  159SAPE  H13X17820   0.983   1.401   7.408 -0.6293 -0.9871 -0.3409
  159SAPE  H13Y17821   0.813   1.389   7.347  0.0810  0.7379 -1.8538
  159SAPE  C31417822   0.844   1.574   7.453  0.4068 -0.7186 -0.2389
  159SAPE  H14X17823   0.754   1.608   7.397  2.0401  2.8622 -0.8008
  159SAPE  H14Y17824   0.916   1.658   7.456 -0.7647  0.3188 -0.6084
  159SAPE  C31517825   0.808   1.531   7.596  0.3763  0.5811  0.7900
  159SAPE  H15X17826   0.761   1.431   7.600  1.1853  0.1177 -0.6012
  159SAPE  H15Y17827   0.724   1.599   7.619  0.9159  1.3946  0.4045
  159SAPE  C31617828   0.926   1.548   7.702  0.8629  0.9017  0.1773
  159SAPE  H16X17829   0.871   1.599   7.785 -1.5649  0.7636 -1.3062
  159SAPE  H16Y17830   0.996   1.628   7.670 -0.4673  1.4848 -1.3473
  159SAPE  C31717831   1.000   1.413   7.746 -0.4661  0.1492  0.9530
  159SAPE  H17X17832   1.066   1.382   7.662 -2.1649  1.0183 -0.7395
  159SAPE  H17Y17833   0.934   1.326   7.768 -3.1180  1.3700 -1.7991
  159SAPE  C31817834   1.093   1.438   7.864  0.0818  0.5910 -0.1882
  159SAPE  H18X17835   1.153   1.347   7.885  2.3849  2.4830  1.7104
  159SAPE  H18Y17836   1.036   1.472   7.953 -0.2276  0.7740 -0.4487
  159SAPE  H18Z17837   1.173   1.512   7.841  2.2453 -2.0564 -1.3721
  160SAPE     N17838   1.181   0.195   5.656  0.4293 -0.4685 -0.1895
  160SAPE   HN117839   1.117   0.149   5.588  2.0850 -1.1566 -1.3124
  160SAPE   HN217840   1.217   0.285   5.620 -0.0076 -0.8264 -1.5358
  160SAPE   HN317841   1.261   0.129   5.669  1.0224  0.1573 -0.6778
  160SAPE   C1217842   1.123   0.232   5.788  0.3086 -0.4832 -0.2579
  160SAPE  H12A17843   1.211   0.260   5.849  0.6305 -3.8204  0.9231
  160SAPE  H12B17844   1.087   0.139   5.836 -3.1504  0.2579 -1.2436
  160SAPE   C1117845   1.013   0.343   5.780  0.3948 -0.4634 -0.0691
  160SAPE  H11A17846   1.034   0.421   5.704 -0.4088  0.0697  0.2436
  160SAPE  H11B17847   1.004   0.396   5.877 -1.3411 -1.4616  0.3463
  160SAPE     P17848   0.764   0.297   5.827  0.0827 -0.0398  0.3965
  160SAPE   O1317849   0.742   0.434   5.878  0.2636  0.2495  0.1882
  160SAPE   O1417850   0.654   0.228   5.756 -0.0031 -0.6351  0.0726
  160SAPE   O1217851   0.894   0.278   5.737 -0.2333 -0.5713 -0.5422
  160SAPE   O1117852   0.808   0.203   5.951  0.2448 -0.0016 -0.2530
  160SAPE    C117853   0.780   0.239   6.087 -0.0667  0.8152  0.4491
  160SAPE    HA17854   0.823   0.337   6.120 -0.2415  0.6291  1.2395
  160SAPE    HB17855   0.673   0.254   6.111 -0.2798  1.8744 -1.0826
  160SAPE    C217856   0.838   0.145   6.188 -0.3407 -0.8814 -0.5058
  160SAPE    HS17857   0.765   0.064   6.208  0.5695 -1.5350  0.1754
  160SAPE   O2117858   0.877   0.216   6.313  0.0732 -0.1754  0.0153
  160SAPE   C2117859   0.772   0.236   6.391  0.4902 -0.6516  0.2458
  160SAPE   O2217860   0.656   0.206   6.361 -0.1240  0.0968 -0.8558
  160SAPE   C2217861   0.806   0.267   6.533 -0.2310  0.2681 -0.4539
  160SAPE   H2R17862   0.871   0.358   6.524  1.9101 -1.1948 -0.2435
  160SAPE   H2S17863   0.710   0.305   6.574 -1.9959 -1.9320 -2.4436
  160SAPE    C317864   0.960   0.073   6.115 -0.0117  0.7367  0.0420
  160SAPE    HX17865   0.930   0.015   6.025 -1.0874  0.8766  0.3051
  160SAPE    HY17866   0.999  -0.006   6.184 -0.0506  1.9454  1.4804
  160SAPE   O3117867   1.062   0.172   6.085 -0.4827  0.2992  0.2100
  160SAPE   C3117868   1.128   0.220   6.193  0.0100 -1.1182  1.2790
  160SAPE   O3217869   1.144   0.161   6.299  0.3546 -0.4162 -0.1526
  160SAPE   C3217870   1.179   0.366   6.164 -0.1588 -0.3385  0.5222
  160SAPE   H2X17871   1.107   0.428   6.107 -0.5859 -1.0525  0.2738
  160SAPE   H2Y17872   1.264   0.360   6.092 -1.2737 -0.3481 -0.8268
  160SAPE   C2317873   0.882   0.148   6.607 -1.0395 -0.5519  0.5252
  160SAPE   H3R17874   0.971   0.120   6.547 -0.3724  0.9570  0.7842
  160SAPE   H3S17875   0.819   0.065   6.647  0.6880 -2.2403 -0.2090
  160SAPE   C2417876   0.954   0.211   6.732  0.1148 -0.6384 -0.4979
  160SAPE   H4R17877   0.884   0.274   6.792  2.1074  2.4385 -1.3280
  160SAPE   H4S17878   1.011   0.285   6.673 -0.3232  1.7632  2.0350
  160SAPE   C2517879   1.031   0.108   6.818  0.1113  0.2681  0.4746
  160SAPE   H5R17880   1.111   0.050   6.770 -0.2178  0.5814 -0.4697
  160SAPE   C2617881   0.993   0.076   6.940 -0.0804 -0.7761  0.1909
  160SAPE   H6R17882   1.050   0.008   7.005 -0.9905 -2.9792 -1.2548
  160SAPE   C2717883   0.884   0.151   7.018 -0.7844 -0.1174 -0.0217
  160SAPE   H7R17884   0.874   0.257   6.985 -0.7013 -0.4603 -1.1766
  160SAPE   H7S17885   0.924   0.145   7.122 -3.1679  1.3759  1.0254
  160SAPE   C2817886   0.744   0.107   7.002  0.0913  0.8550 -0.5887
  160SAPE   H8R17887   0.713   0.079   6.900 -1.2265  0.4522 -0.0893
  160SAPE   C2917888   0.644   0.102   7.097  0.4741  0.4481  0.3234
  160SAPE   H9R17889   0.544   0.063   7.070  0.0776  0.6378  1.4949
  160SAPE  C21017890   0.673   0.124   7.242  0.4738 -0.1628 -0.0925
  160SAPE  H10R17891   0.746   0.205   7.262 -0.3140  0.9441 -1.6059
  160SAPE  H10S17892   0.716   0.032   7.287  0.8207 -0.3623 -0.8195
  160SAPE  C21117893   0.546   0.149   7.314 -0.0878 -0.2540  0.5278
  160SAPE  H11R17894   0.510   0.071   7.382  2.2432 -0.6266  1.3671
  160SAPE  C21217895   0.483   0.263   7.333 -0.1526 -0.4412  0.3724
  160SAPE  H12R17896   0.396   0.260   7.401  0.2059  0.3299  0.8764
  160SAPE  C21317897   0.526   0.390   7.264 -0.7235 -0.2843  0.2900
  160SAPE  H13R17898   0.634   0.409   7.279 -0.2572 -1.6750 -1.1246
  160SAPE  H13S17899   0.480   0.477   7.316  1.9601  1.0007  0.5629
  160SAPE  C21417900   0.489   0.408   7.118  0.1314  0.3959  1.0698
  160SAPE  H14R17901   0.442   0.329   7.058  2.7189  2.1784 -3.5653
  160SAPE  C21517902   0.514   0.513   7.038  0.4493  0.2024  0.8406
  160SAPE  H15R17903   0.471   0.510   6.937 -1.6523  0.9672  1.6863
  160SAPE  C21617904   0.593   0.634   7.074  0.0268 -0.6147  0.1335
  160SAPE  H16R17905   0.665   0.655   6.992  1.1350 -0.9150  1.0252
  160SAPE  H16S17906   0.644   0.627   7.172 -0.0086  0.9272  0.2664
  160SAPE  C21717907   0.503   0.752   7.067 -0.5732  0.0282  0.1427
  160SAPE  H17R17908   0.465   0.749   6.963  1.3498 -1.1770 -0.5504
  160SAPE  H17S17909   0.557   0.849   7.076 -0.6842  0.0741  0.3046
  160SAPE  C21817910   0.396   0.748   7.181 -0.3354  0.4726  0.7671
  160SAPE  H18R17911   0.453   0.719   7.272  0.7935  0.8022  0.1716
  160SAPE  H18S17912   0.315   0.673   7.166 -0.3777  0.3746  1.4869
  160SAPE  C21917913   0.325   0.884   7.205  0.3126  0.4789  0.0039
  160SAPE  H19R17914   0.243   0.905   7.132 -1.3100 -0.6807  1.4629
  160SAPE  H19S17915   0.395   0.970   7.209  1.2632 -0.3191  0.6296
  160SAPE  C22017916   0.246   0.896   7.335  0.2855  0.0146 -0.3424
  160SAPE  H20R17917   0.186   0.989   7.342 -0.7210 -0.5801 -0.8900
  160SAPE  H20S17918   0.321   0.883   7.415  2.8411  0.0261 -2.6458
  160SAPE  H20T17919   0.180   0.806   7.336  0.3352 -0.0147  0.6144
  160SAPE   C3317920   1.241   0.430   6.290  0.2974 -0.1801 -0.2013
  160SAPE   H3X17921   1.298   0.520   6.258 -0.9583  0.6745 -0.0527
  160SAPE   H3Y17922   1.302   0.362   6.352 -1.1891 -1.6482 -0.3303
  160SAPE   C3417923   1.141   0.482   6.389 -0.2455  0.3859  0.3376
  160SAPE   H4X17924   1.198   0.527   6.473 -0.5521 -0.4627  1.0027
  160SAPE   H4Y17925   1.098   0.402   6.453  1.3973 -1.1866 -0.4721
  160SAPE   C3517926   1.031   0.583   6.340 -0.1585 -0.5145 -0.5623
  160SAPE   H5X17927   0.975   0.528   6.262  2.9543 -2.5521 -1.4510
  160SAPE   H5Y17928   1.089   0.675   6.315  0.7542 -0.8575  0.2767
  160SAPE   C3617929   0.930   0.637   6.439  0.3165 -0.4293  0.5869
  160SAPE   H6X17930   0.857   0.555   6.457  1.1825 -1.6834 -1.4893
  160SAPE   H6Y17931   0.874   0.723   6.396 -0.9787 -1.1086  0.8985
  160SAPE   C3717932   0.983   0.698   6.564  0.0247 -0.3123  0.3268
  160SAPE   H7X17933   1.043   0.790   6.545  0.8220 -0.7379  0.8118
  160SAPE   H7Y17934   1.049   0.629   6.620  0.4477 -1.8915 -2.0689
  160SAPE   C3817935   0.868   0.750   6.646 -0.0149  0.0990 -0.3308
  160SAPE   H8X17936   0.782   0.680   6.650  0.8308 -1.0425 -1.7534
  160SAPE   H8Y17937   0.824   0.833   6.587  0.1235  1.4942  1.4975
  160SAPE   C3917938   0.912   0.789   6.787 -0.0788  0.5018  0.6757
  160SAPE   H9X17939   0.838   0.853   6.839 -1.8064 -2.1955  1.6515
  160SAPE   H9Y17940   0.999   0.858   6.778  0.0671  0.2504  0.1100
  160SAPE  C31017941   0.959   0.681   6.878  0.4903 -0.3925  0.3124
  160SAPE  H10X17942   1.056   0.635   6.847  0.1837 -1.2689  0.6294
  160SAPE  H10Y17943   0.888   0.596   6.868  0.1677  0.0249 -1.0445
  160SAPE  C31117944   0.956   0.702   7.032 -0.6356 -0.8391  0.4421
  160SAPE  H11X17945   0.856   0.746   7.055 -1.3658 -2.4333  0.3882
  160SAPE  H11Y17946   1.034   0.775   7.061 -0.0876 -1.6485  1.0172
  160SAPE  C31217947   0.983   0.564   7.102 -0.5243 -0.7553 -0.0078
  160SAPE  H12X17948   1.081   0.515   7.083 -1.3841 -1.5916 -2.6196
  160SAPE  H12Y17949   0.903   0.493   7.069 -1.0972  0.0599 -0.3846
  160SAPE  C31317950   0.961   0.577   7.253  0.4177  0.4370 -0.2223
  160SAPE  H13X17951   0.854   0.603   7.269  0.3134 -0.9485  1.6228
  160SAPE  H13Y17952   1.010   0.670   7.288 -0.8771  0.4428  1.7299
  160SAPE  C31417953   0.998   0.456   7.333  0.1302  0.3922  0.4504
  160SAPE  H14X17954   1.108   0.455   7.319  0.0484 -1.1845 -0.2596
  160SAPE  H14Y17955   0.960   0.357   7.298 -2.6179  1.7111 -0.4453
  160SAPE  C31517956   0.960   0.469   7.486 -0.0623  0.7213 -0.1865
  160SAPE  H15X17957   0.987   0.570   7.525 -0.1326  0.5258  0.3773
  160SAPE  H15Y17958   1.014   0.390   7.543 -0.3704  0.6347 -0.0132
  160SAPE  C31617959   0.813   0.457   7.517  0.1463 -0.9277  0.3025
  160SAPE  H16X17960   0.759   0.369   7.476 -4.1091  2.0352 -0.8401
  160SAPE  H16Y17961   0.753   0.547   7.492  1.8695  0.7594  1.9821
  160SAPE  C31717962   0.793   0.447   7.669  1.1878  0.2350  0.2715
  160SAPE  H17X17963   0.840   0.534   7.720  0.8292  0.8413 -0.4409
  160SAPE  H17Y17964   0.847   0.354   7.699 -1.5767 -1.9016 -1.2003
  160SAPE  C31817965   0.645   0.439   7.700  0.1174 -0.4364 -0.2408
  160SAPE  H18X17966   0.610   0.334   7.691  0.2107 -0.6305  1.4240
  160SAPE  H18Y17967   0.586   0.512   7.641  0.8230  0.4332  0.1301
  160SAPE  H18Z17968   0.635   0.459   7.809  2.5428  2.6652 -0.5380
  161SOPE     N17969   3.652   2.233   9.702  0.8111 -0.4646  0.3098
  161SOPE   HN117970   3.550   2.250   9.707  0.7822  0.6415 -2.7410
  161SOPE   HN217971   3.677   2.295   9.622  0.5851  0.3544  0.8727
  161SOPE   HN317972   3.665   2.137   9.662  0.8305  1.1905 -3.9258
  161SOPE   C1217973   3.735   2.267   9.822  0.7568 -0.3163  0.0722
  161SOPE  H12A17974   3.841   2.249   9.796  1.4341  2.1176  0.9498
  161SOPE  H12B17975   3.706   2.208   9.911 -0.2243 -2.1636 -1.4306
  161SOPE   C1117976   3.702   2.419   9.855 -0.5545 -0.0789 -0.1314
  161SOPE  H11A17977   3.768   2.439   9.942  0.9275 -0.9580 -1.0262
  161SOPE  H11B17978   3.595   2.428   9.886 -0.0526  0.5915  1.4796
  161SOPE     P17979   3.712   2.664   9.772  0.1107  0.3373  0.1794
  161SOPE   O1317980   3.846   2.720   9.739 -0.2387 -0.0875 -0.3922
  161SOPE   O1417981   3.660   2.682   9.912  0.5629 -0.2706 -0.0237
  161SOPE   O1217982   3.720   2.501   9.742  0.2963 -0.9804  0.1948
  161SOPE   O1117983   3.610   2.714   9.666  0.4056  0.0007 -0.4058
  161SOPE    C117984   3.517   2.638   9.586 -0.0826 -0.0325 -0.4142
  161SOPE    HA17985   3.421   2.691   9.570 -0.1916 -0.3719 -0.8596
  161SOPE    HB17986   3.481   2.547   9.638 -0.5960  0.8646  0.8399
  161SOPE    C217987   3.561   2.610   9.435 -0.3477  0.5739  0.4179
  161SOPE    HS17988   3.513   2.515   9.402  0.9558  0.3914 -0.9707
  161SOPE   O2117989   3.700   2.608   9.411 -0.2211  0.3377  0.2469
  161SOPE   C2117990   3.756   2.493   9.438 -0.1913  0.7854  0.5435
  161SOPE   O2217991   3.701   2.399   9.488 -0.0138  0.1265  0.0940
  161SOPE   C2217992   3.903   2.494   9.409 -1.1692 -0.1899  0.0469
  161SOPE   H2R17993   3.934   2.396   9.366 -0.0524 -0.1889  0.8335
  161SOPE   H2S17994   3.955   2.505   9.507  1.7466  0.3363 -1.4935
  161SOPE    C317995   3.505   2.734   9.346 -0.0828  0.2687  0.4058
  161SOPE    HX17996   3.538   2.824   9.402 -0.7261 -0.3405  1.7907
  161SOPE    HY17997   3.394   2.726   9.355 -0.2243  0.3221 -1.0435
  161SOPE   O3117998   3.545   2.743   9.204  0.0224  0.2061 -0.4700
  161SOPE   C3117999   3.620   2.843   9.162  0.0916 -0.2657 -0.2561
  161SOPE   O3218000   3.669   2.932   9.230  1.0190  0.0412  0.8103
  161SOPE   C3218001   3.632   2.837   9.004  0.0846  0.1609  0.4197
  161SOPE   H2X18002   3.529   2.858   8.967 -1.2200  0.9422  4.2805
  161SOPE   H2Y18003   3.672   2.735   8.984  1.0146  0.0307  2.8314
  161SOPE   C2318004   3.960   2.608   9.317  0.1276  0.7095 -0.8495
  161SOPE   H3R18005   4.048   2.661   9.359 -1.4316  2.1510  0.6647
  161SOPE   H3S18006   3.877   2.678   9.296 -1.8526 -0.6650  2.0091
  161SOPE   C2418007   4.007   2.555   9.178 -0.3274  0.0936 -1.0021
  161SOPE   H4R18008   4.085   2.626   9.143  2.7787 -3.0674 -0.8150
  161SOPE   H4S18009   4.066   2.462   9.188 -0.8782 -0.1093  0.3940
  161SOPE   C2518010   3.886   2.537   9.085 -0.0132  0.0234 -0.4113
  161SOPE   H5R18011   3.827   2.446   9.109 -0.7481  0.4773 -0.4569
  161SOPE   H5S18012   3.814   2.619   9.106 -1.7571 -1.1075 -1.8393
  161SOPE   C2618013   3.930   2.554   8.940  0.1735 -0.2010 -0.4285
  161SOPE   H6R18014   3.967   2.658   8.923  2.5135 -0.6425  1.6622
  161SOPE   H6S18015   4.015   2.484   8.923  1.3759  0.2861  3.1687
  161SOPE   C2718016   3.827   2.519   8.826  0.2469  0.5392  0.3711
  161SOPE   H7R18017   3.797   2.413   8.844 -0.0500  0.7457  1.0992
  161SOPE   H7S18018   3.739   2.587   8.827  0.4828  0.8690 -0.7292
  161SOPE   C2818019   3.884   2.520   8.678  1.1412 -0.0679 -0.4511
  161SOPE   H8R18020   3.931   2.619   8.659 -0.6741  1.1628  1.3679
  161SOPE   H8S18021   3.959   2.439   8.665 -1.0940 -2.2354 -0.1192
  161SOPE   C2918022   3.770   2.508   8.580 -0.1279 -0.0290 -0.0331
  161SOPE   H9118023   3.704   2.590   8.550  0.8746  0.6715 -0.3529
  161SOPE  C21018024   3.748   2.398   8.508  0.9119  0.5384 -0.2877
  161SOPE  H10118025   3.670   2.405   8.431 -0.7274  2.9938  1.5371
  161SOPE  C21118026   3.811   2.267   8.517  0.2144 -0.3393 -0.0303
  161SOPE  H11R18027   3.810   2.237   8.624 -0.2010  2.3165  0.7419
  161SOPE  H11S18028   3.915   2.271   8.480 -0.1011 -1.2479 -1.0283
  161SOPE  C21218029   3.729   2.159   8.444  0.1329 -0.0343 -0.4940
  161SOPE  H12R18030   3.622   2.160   8.475 -0.0609 -1.3413 -1.0742
  161SOPE  H12S18031   3.772   2.060   8.470 -1.8221 -0.7753  0.0219
  161SOPE  C21318032   3.733   2.156   8.293  0.3539  0.0596 -0.4834
  161SOPE  H13R18033   3.836   2.164   8.251 -0.6355 -0.6317 -3.1724
  161SOPE  H13S18034   3.670   2.240   8.256 -0.9381  0.3457  2.3233
  161SOPE  C21418035   3.679   2.023   8.246  0.5895  0.1634 -0.3688
  161SOPE  H14R18036   3.576   2.008   8.284  1.1972 -1.2146  0.7934
  161SOPE  H14S18037   3.736   1.937   8.287 -2.5769 -1.3045  1.0797
  161SOPE  C21518038   3.701   1.994   8.095  0.1775 -0.5988 -0.1746
  161SOPE  H15R18039   3.809   2.007   8.071  0.3359 -0.5245  0.5514
  161SOPE  H15S18040   3.631   2.060   8.040  0.3875 -0.4291 -0.2349
  161SOPE  C21618041   3.648   1.857   8.052 -0.5750 -0.6438 -0.3041
  161SOPE  H16R18042   3.549   1.841   8.100 -0.4411 -1.9021 -0.4479
  161SOPE  H16S18043   3.711   1.778   8.097 -1.8493 -1.7062 -0.3611
  161SOPE  C21718044   3.651   1.849   7.899  0.3117  0.4765  0.0086
  161SOPE  H17R18045   3.760   1.859   7.879 -0.1135 -0.5990 -3.1654
  161SOPE  H17S18046   3.607   1.939   7.851  0.4164  0.1910 -0.6168
  161SOPE  C21818047   3.597   1.719   7.837  0.0551 -0.5855 -0.3016
  161SOPE  H18R18048   3.642   1.628   7.883 -2.3550 -2.9696 -2.4768
  161SOPE  H18S18049   3.600   1.721   7.726 -0.3357  0.9339 -0.3013
  161SOPE  H18T18050   3.496   1.703   7.882 -0.0825 -2.1125 -1.1253
  161SOPE   C3318051   3.734   2.946   8.954  0.0483  0.1120 -0.4618
  161SOPE   H3X18052   3.836   2.907   8.973 -0.1304 -1.2145 -2.1150
  161SOPE   H3Y18053   3.724   3.044   9.005 -0.5373 -0.5320  0.6889
  161SOPE   C3418054   3.720   2.966   8.804  0.3426  0.3705 -0.6141
  161SOPE   H4X18055   3.623   3.019   8.787 -0.8538 -1.2672  0.8944
  161SOPE   H4Y18056   3.715   2.868   8.751  0.3072  0.1850 -0.2703
  161SOPE   C3518057   3.829   3.049   8.727  0.0763 -0.0344 -0.0218
  161SOPE   H5X18058   3.934   3.019   8.747  0.0350 -1.5391 -1.8725
  161SOPE   H5Y18059   3.811   3.154   8.758 -1.0221 -0.5407  1.0711
  161SOPE   C3618060   3.822   3.041   8.574 -0.0132 -0.0552  0.2110
  161SOPE   H6X18061   3.869   3.132   8.531 -3.1317  0.7207 -1.7345
  161SOPE   H6Y18062   3.719   3.031   8.535 -0.2883 -1.0718  1.1664
  161SOPE   C3718063   3.894   2.928   8.512 -0.3777  0.5409 -0.3535
  161SOPE   H7X18064   3.875   2.834   8.568  0.3369  2.4629  3.2634
  161SOPE   H7Y18065   4.005   2.925   8.515 -0.2642 -0.7502 -3.6408
  161SOPE   C3818066   3.858   2.897   8.366  0.2346 -0.1326  0.4306
  161SOPE   H8X18067   3.749   2.900   8.348 -0.0772 -0.4280  2.1383
  161SOPE   H8Y18068   3.886   2.791   8.346 -0.7429 -0.6890  1.9609
  161SOPE   C3918069   3.936   2.984   8.263 -0.4258  0.1229  1.0265
  161SOPE   H9X18070   4.045   2.959   8.262 -0.2470  0.9234  0.3298
  161SOPE   H9Y18071   3.929   3.090   8.295 -0.9419 -0.0806  1.6057
  161SOPE  C31018072   3.868   2.977   8.126  0.6627  0.3442  0.2016
  161SOPE  H10X18073   3.919   3.049   8.058  2.8046  0.4047  1.8056
  161SOPE  H10Y18074   3.762   3.008   8.136  0.9454  0.8722  1.7062
  161SOPE  C31118075   3.870   2.843   8.054 -0.4910  0.2055  0.0517
  161SOPE  H11X18076   3.830   2.766   8.123  1.2780 -0.3084  0.5223
  161SOPE  H11Y18077   3.974   2.809   8.035  0.0516  2.0386 -0.4263
  161SOPE  C31218078   3.791   2.826   7.925  0.3667  0.0904  0.7639
  161SOPE  H12X18079   3.684   2.849   7.946 -0.5102 -0.5595 -2.6883
  161SOPE  H12Y18080   3.812   2.725   7.884 -0.2398  0.3965 -0.3002
  161SOPE  C31318081   3.831   2.932   7.817  0.0789 -0.0108 -0.1948
  161SOPE  H13X18082   3.810   3.036   7.851 -2.6077 -0.5646 -0.0065
  161SOPE  H13Y18083   3.768   2.918   7.727 -0.2660  1.7738 -0.2460
  161SOPE  C31418084   3.970   2.943   7.765 -0.3596 -0.2297 -0.4489
  161SOPE  H14X18085   4.008   2.841   7.739 -0.1629 -0.3720  0.3883
  161SOPE  H14Y18086   4.028   2.980   7.852  0.3576 -0.7386 -0.6977
  161SOPE  C31518087   3.987   3.029   7.635 -0.0330 -0.3351  0.0463
  161SOPE  H15X18088   3.960   3.134   7.660 -0.9906 -0.9992  1.9027
  161SOPE  H15Y18089   3.902   3.006   7.569  1.0128 -2.0690 -0.7283
  161SOPE  C31618090   4.124   3.013   7.568 -0.4007  0.4533 -0.1259
  161SOPE  H16X18091   4.110   3.069   7.473 -0.9234  2.3306  1.0258
  161SOPE  H16Y18092   4.129   2.908   7.531  2.9255 -0.1830  1.8861
  161SOPE  C31718093   4.255   3.048   7.648  0.0265  0.2490 -0.5229
  161SOPE  H17X18094   4.291   2.955   7.697 -3.3161 -1.1499 -0.5363
  161SOPE  H17Y18095   4.213   3.121   7.720 -1.5169  2.5523 -3.6238
  161SOPE  C31818096   4.366   3.121   7.558  0.7753  0.3442 -0.2141
  161SOPE  H18X18097   4.325   3.199   7.492  0.7491  1.8622  1.5455
  161SOPE  H18Y18098   4.422   3.039   7.508 -0.3563 -0.1285 -0.7300
  161SOPE  H18Z18099   4.438   3.163   7.631 -1.6123 -0.6887  2.8909
  162SOPE     N18100   3.997   1.511   9.823  0.2234  0.3721 -0.0392
  162SOPE   HN118101   3.902   1.489   9.859 -0.2573  4.2595  1.2813
  162SOPE   HN218102   4.003   1.471   9.727 -1.5611 -0.6907  0.2636
  162SOPE   HN318103   4.064   1.469   9.890 -1.8196  1.0303  2.4920
  162SOPE   C1218104   4.013   1.658   9.835  0.8914  0.0390  0.1699
  162SOPE  H12A18105   4.117   1.682   9.807  0.1876 -0.0297 -2.6373
  162SOPE  H12B18106   3.993   1.692   9.939  0.7124  0.5211 -0.0191
  162SOPE   C1118107   3.915   1.738   9.739 -1.1538 -0.3867 -0.8253
  162SOPE  H11A18108   3.926   1.711   9.632  0.4656 -1.7566 -0.3499
  162SOPE  H11B18109   3.947   1.844   9.740  0.2483 -0.8043  0.5332
  162SOPE     P18110   3.676   1.841   9.785 -0.2301 -0.0324  0.0295
  162SOPE   O1318111   3.748   1.967   9.792  0.2428 -0.3220  0.9682
  162SOPE   O1418112   3.564   1.811   9.880  0.3325 -0.0721  0.1521
  162SOPE   O1218113   3.781   1.731   9.783  0.8203  0.3746  0.2060
  162SOPE   O1118114   3.618   1.825   9.630 -0.0964  0.5075  0.0592
  162SOPE    C118115   3.607   1.701   9.570 -0.6535 -0.8663  0.2280
  162SOPE    HA18116   3.630   1.615   9.637  1.0087 -0.1352  0.5956
  162SOPE    HB18117   3.691   1.706   9.497  0.9322 -1.5679  1.9858
  162SOPE    C218118   3.461   1.677   9.517  0.1252 -0.2500 -0.4551
  162SOPE    HS18119   3.440   1.569   9.501 -1.3596 -0.0588  0.1608
  162SOPE   O2118120   3.442   1.737   9.385 -0.3059  0.3429  0.3568
  162SOPE   C2118121   3.482   1.665   9.283 -0.1082 -0.4028 -0.0541
  162SOPE   O2218122   3.529   1.555   9.286 -1.0004  0.3270 -0.4818
  162SOPE   C2218123   3.441   1.750   9.156 -0.3149  0.0557 -0.5689
  162SOPE   H2R18124   3.516   1.832   9.155  0.8498 -0.9950 -2.2221
  162SOPE   H2S18125   3.336   1.781   9.171 -0.0590  1.4856 -1.6341
  162SOPE    C318126   3.358   1.741   9.619  0.6027 -0.7662 -0.3503
  162SOPE    HX18127   3.355   1.851   9.601 -0.3676 -0.7644 -0.2118
  162SOPE    HY18128   3.386   1.724   9.725  0.5251  0.2169 -0.1706
  162SOPE   O3118129   3.234   1.686   9.596  0.8863  0.7687 -0.0268
  162SOPE   C3118130   3.222   1.556   9.632  0.1819  0.8651 -0.1782
  162SOPE   O3218131   3.306   1.491   9.691  0.3756 -0.0932  0.2148
  162SOPE   C3218132   3.078   1.499   9.586 -0.0532 -0.0324 -0.6054
  162SOPE   H2X18133   3.019   1.588   9.558 -1.4233 -0.6131  0.3574
  162SOPE   H2Y18134   3.036   1.465   9.683 -0.3846 -0.4698 -0.9008
  162SOPE   C2318135   3.454   1.672   9.021  0.0560 -0.3688 -0.3111
  162SOPE   H3R18136   3.557   1.632   9.013 -0.2836 -1.5398  0.9480
  162SOPE   H3S18137   3.461   1.760   8.954  0.9633 -2.3285 -2.8423
  162SOPE   C2418138   3.334   1.582   9.003  0.2746  0.3559  0.0894
  162SOPE   H4R18139   3.331   1.488   9.063  2.3571 -0.1966 -0.6492
  162SOPE   H4S18140   3.235   1.632   9.013 -0.6572 -1.4144 -0.0240
  162SOPE   C2518141   3.333   1.526   8.859  0.0865  0.1903  0.0901
  162SOPE   H5R18142   3.231   1.486   8.840  0.8555 -0.9868 -1.7138
  162SOPE   H5S18143   3.330   1.611   8.787  4.0534 -1.0788 -1.7264
  162SOPE   C2618144   3.426   1.413   8.821 -0.7153  0.1028 -0.7071
  162SOPE   H6R18145   3.532   1.429   8.852 -0.6562  1.4044 -1.5423
  162SOPE   H6S18146   3.392   1.324   8.877  0.0717 -0.6455 -1.4143
  162SOPE   C2718147   3.433   1.403   8.671  0.2546 -0.0136  0.5368
  162SOPE   H7R18148   3.446   1.506   8.630  1.6063 -0.8928 -1.3304
  162SOPE   H7S18149   3.517   1.339   8.637  0.8216  0.2648  1.3951
  162SOPE   C2818150   3.309   1.346   8.600 -0.2068  0.1716 -0.6742
  162SOPE   H8R18151   3.226   1.410   8.638  0.4270  0.9676 -0.6038
  162SOPE   H8S18152   3.306   1.363   8.490  0.8073  0.2604 -0.6965
  162SOPE   C2918153   3.289   1.202   8.638 -0.2578  0.2146  0.2421
  162SOPE   H9118154   3.227   1.186   8.727 -0.1576  1.0287  0.4547
  162SOPE  C21018155   3.349   1.094   8.575  0.1423 -0.2100 -0.0348
  162SOPE  H10118156   3.329   0.995   8.619 -1.0284  0.6798  1.5127
  162SOPE  C21118157   3.446   1.113   8.456  0.7666 -0.6024 -0.4750
  162SOPE  H11R18158   3.510   1.204   8.459  2.1267 -1.5348 -1.0194
  162SOPE  H11S18159   3.381   1.114   8.365  0.7812 -2.1687 -0.5108
  162SOPE  C21218160   3.552   1.002   8.446  0.3929  0.3580  0.0987
  162SOPE  H12R18161   3.505   0.905   8.472 -0.7113  0.0014 -3.0387
  162SOPE  H12S18162   3.637   1.012   8.518 -0.5497  0.6696  1.1872
  162SOPE  C21318163   3.615   0.990   8.301 -0.6090  0.7349 -0.5613
  162SOPE  H13R18164   3.654   1.089   8.269  0.4576  0.7264  0.6952
  162SOPE  H13S18165   3.530   0.966   8.234 -0.0577 -0.1977 -0.9305
  162SOPE  C21418166   3.717   0.885   8.283 -0.0982  1.1812 -1.1380
  162SOPE  H14R18167   3.677   0.790   8.324  0.4304  2.2146  1.9090
  162SOPE  H14S18168   3.811   0.914   8.335 -0.6703 -0.6787  1.0655
  162SOPE  C21518169   3.764   0.878   8.136 -0.1818 -0.0368  0.8905
  162SOPE  H15R18170   3.832   0.963   8.113  0.6816 -0.1361  3.0144
  162SOPE  H15S18171   3.680   0.894   8.065 -0.4281 -0.6347  1.0420
  162SOPE  C21618172   3.839   0.755   8.101  0.3984 -0.0154  0.0100
  162SOPE  H16R18173   3.780   0.661   8.108  0.8174 -0.4114 -1.5480
  162SOPE  H16S18174   3.909   0.751   8.188 -1.9624  0.1599  1.9442
  162SOPE  C21718175   3.920   0.751   7.972  0.2138 -0.4796 -0.2658
  162SOPE  H17R18176   3.924   0.852   7.927  0.4727 -0.6248 -0.5756
  162SOPE  H17S18177   3.865   0.680   7.906  0.9640 -2.0042  0.6988
  162SOPE  C21818178   4.060   0.693   8.000  0.3279  0.2523  0.0399
  162SOPE  H18R18179   4.098   0.642   7.909 -0.2733 -1.2226  0.6013
  162SOPE  H18S18180   4.070   0.627   8.089 -0.5064  2.4717  1.8207
  162SOPE  H18T18181   4.122   0.777   8.037  0.8374  0.7292 -1.8742
  162SOPE   C3318182   3.099   1.377   9.495 -0.3128 -1.0008 -0.1212
  162SOPE   H3X18183   3.000   1.326   9.492 -1.1614  0.4028  2.6454
  162SOPE   H3Y18184   3.172   1.315   9.551 -0.7295  0.0167  1.5613
  162SOPE   C3418185   3.152   1.417   9.359 -0.3276  0.7425 -0.1685
  162SOPE   H4X18186   3.151   1.339   9.280 -1.3431  0.2842  0.2814
  162SOPE   H4Y18187   3.259   1.445   9.371 -0.1140 -0.7009  1.6369
  162SOPE   C3518188   3.082   1.542   9.302  0.4150 -0.4021 -0.1019
  162SOPE   H5X18189   3.113   1.566   9.198 -0.0659  0.9768  0.0640
  162SOPE   H5Y18190   3.102   1.632   9.365  0.7798 -1.7163  1.6831
  162SOPE   C3618191   2.926   1.528   9.299  0.2869  0.0776  0.6434
  162SOPE   H6X18192   2.880   1.486   9.391 -0.2242 -1.6426 -0.3640
  162SOPE   H6Y18193   2.891   1.461   9.218 -1.3690 -1.3189  2.4535
  162SOPE   C3718194   2.866   1.673   9.270 -0.2646 -0.6896 -0.1848
  162SOPE   H7X18195   2.893   1.748   9.347 -2.5520  0.7242 -0.7318
  162SOPE   H7Y18196   2.756   1.669   9.287 -0.6262  0.5417 -2.1555
  162SOPE   C3818197   2.899   1.732   9.130 -0.3129 -0.4723 -0.1369
  162SOPE   H8X18198   3.005   1.764   9.116  0.7510 -4.4636 -2.0353
  162SOPE   H8Y18199   2.843   1.828   9.127 -1.2758 -1.0533 -2.5938
  162SOPE   C3918200   2.871   1.648   9.004  0.4864 -0.0800 -0.2935
  162SOPE   H9X18201   2.762   1.630   9.004  0.7540 -1.8637 -1.0294
  162SOPE   H9Y18202   2.903   1.541   9.005  1.1960  0.0762 -2.4425
  162SOPE  C31018203   2.905   1.715   8.881  0.5443  0.3273 -0.4235
  162SOPE  H10X18204   3.011   1.705   8.852  1.1512  0.3803  1.6825
  162SOPE  H10Y18205   2.889   1.823   8.898  0.1565 -0.1310  2.3134
  162SOPE  C31118206   2.829   1.690   8.754  0.7120  0.0818 -0.7877
  162SOPE  H11X18207   2.887   1.725   8.666 -1.7122 -0.4589 -2.6539
  162SOPE  H11Y18208   2.734   1.746   8.745  0.6878  0.2027  0.2076
  162SOPE  C31218209   2.805   1.544   8.715  0.1677  0.7171 -0.2442
  162SOPE  H12X18210   2.711   1.506   8.762 -0.6360  0.1218 -2.2578
  162SOPE  H12Y18211   2.890   1.475   8.735  0.2774  0.7435 -0.6039
  162SOPE  C31318212   2.785   1.527   8.565 -0.2111  0.8024  0.3572
  162SOPE  H13X18213   2.754   1.423   8.542  2.0352 -0.6455  3.4734
  162SOPE  H13Y18214   2.884   1.537   8.515  0.6684 -0.6482  1.7382
  162SOPE  C31418215   2.679   1.616   8.496  0.0495  0.0840 -0.3510
  162SOPE  H14X18216   2.708   1.722   8.513  2.8230 -0.6450 -0.1998
  162SOPE  H14Y18217   2.579   1.593   8.537  0.8499 -1.9815  0.5126
  162SOPE  C31518218   2.665   1.597   8.341 -0.1998 -0.3456 -0.3707
  162SOPE  H15X18219   2.628   1.497   8.310 -0.5666 -0.3359  0.0252
  162SOPE  H15Y18220   2.764   1.621   8.297 -0.2558  0.9652  0.2105
  162SOPE  C31618221   2.569   1.706   8.278 -0.1868  0.0133  0.0554
  162SOPE  H16X18222   2.598   1.813   8.281  1.4946 -0.4379  0.2072
  162SOPE  H16Y18223   2.486   1.683   8.347 -0.3087 -0.1372 -0.1424
  162SOPE  C31718224   2.506   1.674   8.138 -0.5434  0.0318  0.3110
  162SOPE  H17X18225   2.416   1.737   8.119  0.7830  1.5910 -1.0098
  162SOPE  H17Y18226   2.476   1.568   8.147 -0.8898  0.1861  0.9666
  162SOPE  C31818227   2.626   1.694   8.038  0.1536 -0.6016 -0.7188
  162SOPE  H18X18228   2.645   1.802   8.023 -2.3145 -0.2124 -1.3075
  162SOPE  H18Y18229   2.591   1.668   7.936 -1.3311  0.0851 -0.4010
  162SOPE  H18Z18230   2.718   1.639   8.067  0.1210 -0.1327  0.2758
  163SOPE     N18231   4.805   1.487  10.046  0.3896 -0.3203  0.0434
  163SOPE   HN118232   4.769   1.482  10.143  0.0660  1.9960  0.0585
  163SOPE   HN218233   4.772   1.410   9.984  0.6932  1.0805 -1.9276
  163SOPE   HN318234   4.909   1.498  10.048  0.2488  1.3625 -0.6994
  163SOPE   C1218235   4.755   1.608   9.971 -0.3471  0.4058 -0.3090
  163SOPE  H12A18236   4.802   1.627   9.872 -1.0242 -0.5408 -0.8195
  163SOPE  H12B18237   4.786   1.687  10.043  1.5555 -0.4512 -0.1642
  163SOPE   C1118238   4.603   1.599   9.942 -0.1201  0.0626  0.2770
  163SOPE  H11A18239   4.571   1.705   9.935 -0.9509 -0.1095  1.2687
  163SOPE  H11B18240   4.549   1.551  10.026  1.4793 -1.9157  0.2167
  163SOPE     P18241   4.580   1.387   9.788 -0.0167 -0.3521 -0.1377
  163SOPE   O1318242   4.443   1.332   9.796 -0.5471 -0.6504  0.0238
  163SOPE   O1418243   4.674   1.319   9.885 -0.3510  0.0253 -0.4953
  163SOPE   O1218244   4.585   1.547   9.812 -0.0315 -0.3298 -0.4128
  163SOPE   O1118245   4.632   1.385   9.643 -0.0318  0.0979  0.1786
  163SOPE    C118246   4.773   1.411   9.610  0.4912 -0.1799  0.5262
  163SOPE    HA18247   4.795   1.361   9.513 -0.9287 -0.1984  0.1948
  163SOPE    HB18248   4.849   1.387   9.687  0.8246 -0.1801  0.1974
  163SOPE    C218249   4.797   1.564   9.582  0.0207  0.4425  0.5159
  163SOPE    HS18250   4.793   1.622   9.677  1.0558 -1.9264  2.0709
  163SOPE   O2118251   4.712   1.609   9.480  0.1255 -0.1605  0.5688
  163SOPE   C2118252   4.676   1.733   9.489 -0.3682  0.0347  0.4801
  163SOPE   O2218253   4.691   1.808   9.586  0.5794 -0.0801 -0.3911
  163SOPE   C2218254   4.608   1.781   9.363  0.1413  0.1066 -0.4601
  163SOPE   H2R18255   4.603   1.892   9.362 -1.6124  0.0412 -2.2015
  163SOPE   H2S18256   4.513   1.724   9.357 -0.6695  1.4747 -0.6768
  163SOPE    C318257   4.942   1.587   9.528  0.1428  0.6842 -0.0630
  163SOPE    HX18258   5.013   1.550   9.604  0.8965  3.0881  0.4310
  163SOPE    HY18259   4.962   1.695   9.515  1.4443  0.3642 -0.8681
  163SOPE   O3118260   4.959   1.508   9.407 -0.6783  0.3549 -0.7253
  163SOPE   C3118261   5.015   1.570   9.312 -0.6521 -0.4648  0.2385
  163SOPE   O3218262   5.066   1.683   9.318  0.6565 -0.6907  0.5543
  163SOPE   C3218263   4.995   1.483   9.183  0.0117 -1.1063 -0.1943
  163SOPE   H2X18264   4.884   1.482   9.175  0.0319  0.5603 -0.8826
  163SOPE   H2Y18265   5.024   1.377   9.200 -0.4933 -1.0292  1.2951
  163SOPE   C2318266   4.690   1.736   9.239  0.1574  0.9481  0.3213
  163SOPE   H3R18267   4.699   1.625   9.229  1.3164  1.1863 -1.6849
  163SOPE   H3S18268   4.795   1.770   9.249  1.3814 -2.3671 -0.3592
  163SOPE   C2418269   4.620   1.795   9.119  0.2991 -0.3315 -0.4854
  163SOPE   H4R18270   4.515   1.760   9.111  0.0206  0.7886 -1.9343
  163SOPE   H4S18271   4.612   1.906   9.130  2.2036 -0.3579  1.5150
  163SOPE   C2518272   4.693   1.776   8.986  0.0730  0.5558 -0.3887
  163SOPE   H5R18273   4.800   1.793   9.013  0.5353 -1.3302 -0.9449
  163SOPE   H5S18274   4.690   1.670   8.952  1.9626  0.5982 -0.7425
  163SOPE   C2618275   4.652   1.873   8.877 -0.0844 -0.4893  0.5795
  163SOPE   H6R18276   4.696   1.970   8.908  1.4854 -0.9746 -0.0391
  163SOPE   H6S18277   4.715   1.858   8.787  0.4777  2.2757  0.4833
  163SOPE   C2718278   4.505   1.879   8.847  0.3970  0.2823 -0.1057
  163SOPE   H7R18279   4.460   1.779   8.864 -0.3167  0.6375  0.1009
  163SOPE   H7S18280   4.450   1.939   8.923  1.4705 -1.1454  1.8624
  163SOPE   C2818281   4.458   1.928   8.711  0.6073  0.4832  0.2634
  163SOPE   H8R18282   4.348   1.940   8.711  0.3939 -1.3919 -1.1436
  163SOPE   H8S18283   4.515   2.020   8.685 -0.5026  1.3122  0.7249
  163SOPE   C2918284   4.496   1.824   8.608 -0.2686 -0.4897 -0.2643
  163SOPE   H9118285   4.605   1.804   8.603  0.2440  1.9952  0.4225
  163SOPE  C21018286   4.422   1.761   8.515  0.3758  0.5689 -0.6454
  163SOPE  H10118287   4.478   1.693   8.450 -0.2109 -0.1683 -0.3966
  163SOPE  C21118288   4.279   1.773   8.473  0.8478 -0.1876 -0.3527
  163SOPE  H11R18289   4.240   1.874   8.497  2.2667  0.3332 -0.1708
  163SOPE  H11S18290   4.218   1.707   8.538  1.3762 -0.1962  0.1415
  163SOPE  C21218291   4.245   1.735   8.332  0.5079  0.2177  0.7800
  163SOPE  H12R18292   4.292   1.636   8.312  1.8532  0.5400  2.2542
  163SOPE  H12S18293   4.297   1.802   8.260  1.5797  0.8376  2.1254
  163SOPE  C21318294   4.095   1.730   8.319  0.0203 -0.4726 -0.5658
  163SOPE  H13R18295   4.049   1.820   8.365  0.7942 -0.2293 -0.2613
  163SOPE  H13S18296   4.073   1.641   8.381 -1.1753 -1.6016 -2.5355
  163SOPE  C21418297   4.038   1.709   8.178 -0.7003  0.2919 -0.0802
  163SOPE  H14R18298   4.047   1.807   8.125  0.1618  0.1591 -0.1869
  163SOPE  H14S18299   3.931   1.681   8.183 -0.7239  0.4903  0.5184
  163SOPE  C21518300   4.120   1.605   8.104 -0.8395 -0.1635  0.0378
  163SOPE  H15R18301   4.132   1.520   8.175  1.8903  1.1786  1.2139
  163SOPE  H15S18302   4.221   1.640   8.077 -1.0174 -0.4135 -1.0004
  163SOPE  C21618303   4.060   1.556   7.975 -0.1162 -0.5029  0.3541
  163SOPE  H16R18304   3.952   1.538   7.995 -0.1233 -0.1479  0.6515
  163SOPE  H16S18305   4.111   1.465   7.936  3.1297  0.2595  2.6388
  163SOPE  C21718306   4.068   1.661   7.864  0.1404 -0.3312  1.0417
  163SOPE  H17R18307   4.176   1.673   7.841  0.7267 -3.0793  2.2277
  163SOPE  H17S18308   4.023   1.758   7.895 -1.1017 -0.1557 -1.1970
  163SOPE  C21818309   3.991   1.625   7.732 -0.4316 -1.1287 -0.0184
  163SOPE  H18R18310   4.009   1.518   7.709 -1.4884 -1.7084  1.7630
  163SOPE  H18S18311   4.019   1.685   7.643 -0.0389  1.3863  1.7506
  163SOPE  H18T18312   3.882   1.637   7.752 -0.7339 -0.8479 -1.7454
  163SOPE   C3318313   5.049   1.540   9.062 -0.3334  0.4689  0.4527
  163SOPE   H3X18314   5.159   1.524   9.061 -0.2770  0.7500  1.4414
  163SOPE   H3Y18315   5.032   1.649   9.050  0.6176  0.4456 -1.3792
  163SOPE   C3418316   4.990   1.469   8.940  0.2779  0.0499  0.3396
  163SOPE   H4X18317   4.883   1.444   8.951  0.5354 -1.4980 -0.5467
  163SOPE   H4Y18318   5.037   1.369   8.930 -2.0915 -1.1394  0.7505
  163SOPE   C3518319   5.027   1.539   8.806  0.2352  0.3712  0.2876
  163SOPE   H5X18320   5.027   1.468   8.721 -1.6023  0.8720 -0.1617
  163SOPE   H5Y18321   5.132   1.574   8.813  1.0593 -2.1124  0.7436
  163SOPE   C3618322   4.923   1.643   8.763  0.0550 -0.3302  0.1382
  163SOPE   H6X18323   4.927   1.705   8.855 -2.1639 -0.8195  0.6010
  163SOPE   H6Y18324   4.821   1.600   8.764  0.7236 -1.9871 -0.6562
  163SOPE   C3718325   4.951   1.710   8.630  0.4599  0.3278 -0.2819
  163SOPE   H7X18326   5.054   1.751   8.641 -0.8091  2.9176  2.9155
  163SOPE   H7Y18327   4.887   1.800   8.616 -0.2289  0.0298  0.8458
  163SOPE   C3818328   4.930   1.622   8.496 -0.4295  0.2655 -0.0722
  163SOPE   H8X18329   4.829   1.577   8.495 -0.6917  0.8606 -1.2046
  163SOPE   H8Y18330   4.997   1.534   8.509  1.3885  1.2676 -2.2015
  163SOPE   C3918331   4.949   1.700   8.369  0.0189 -0.0459 -0.1196
  163SOPE   H9X18332   4.993   1.646   8.282  0.0340 -0.0746 -0.0939
  163SOPE   H9Y18333   5.022   1.780   8.393 -0.5679  0.5221 -0.2078
  163SOPE  C31018334   4.820   1.767   8.325  0.2720 -0.1840  0.9096
  163SOPE  H10X18335   4.850   1.843   8.250  0.2613 -1.7702 -0.7312
  163SOPE  H10Y18336   4.774   1.825   8.408  0.5963  1.3168  0.0647
  163SOPE  C31118337   4.729   1.661   8.257 -0.2913  0.3090  0.1256
  163SOPE  H11X18338   4.704   1.593   8.341 -1.6135  0.3989 -0.1917
  163SOPE  H11Y18339   4.778   1.603   8.175  0.1104 -0.6317  1.0193
  163SOPE  C31218340   4.597   1.720   8.190 -0.0336 -0.0007 -0.0619
  163SOPE  H12X18341   4.564   1.807   8.252  1.6490  2.2703 -2.2563
  163SOPE  H12Y18342   4.518   1.643   8.192  0.3171 -0.3499  0.8516
  163SOPE  C31318343   4.617   1.785   8.052 -0.5838  0.3107 -0.1012
  163SOPE  H13X18344   4.652   1.706   7.982 -3.7591 -0.5428 -0.7737
  163SOPE  H13Y18345   4.690   1.868   8.062  1.7498 -1.8039  1.0467
  163SOPE  C31418346   4.485   1.846   8.018 -0.0049  0.0480 -0.1904
  163SOPE  H14X18347   4.402   1.782   8.055  0.1046 -1.5883 -2.7127
  163SOPE  H14Y18348   4.490   1.864   7.909  0.1997  1.6584  0.0614
  163SOPE  C31518349   4.460   1.983   8.075 -0.1210  0.3242  0.3404
  163SOPE  H15X18350   4.546   2.048   8.049  0.0736  0.0251  0.2404
  163SOPE  H15Y18351   4.458   1.979   8.186  0.3162  1.6399  0.4132
  163SOPE  C31618352   4.332   2.046   8.021  0.4851 -0.3922  0.0302
  163SOPE  H16X18353   4.257   1.965   8.011  1.4350 -1.4418  1.2257
  163SOPE  H16Y18354   4.348   2.078   7.916  0.9605 -0.5193  0.0624
  163SOPE  C31718355   4.284   2.169   8.098  0.3292  0.6000  0.0437
  163SOPE  H17X18356   4.239   2.237   8.022 -0.6908  1.5173  1.4333
  163SOPE  H17Y18357   4.373   2.221   8.139  0.5616 -1.3483  2.1176
  163SOPE  C31818358   4.189   2.142   8.215  0.3695  0.1217 -0.6380
  163SOPE  H18X18359   4.254   2.095   8.292 -0.7845  1.5377  1.2560
  163SOPE  H18Y18360   4.105   2.073   8.189 -0.9232  0.3864  2.5293
  163SOPE  H18Z18361   4.151   2.240   8.252 -2.3516 -0.3874 -1.9286
  164SOPE     N18362   6.147   4.874   9.936  0.6612  0.0530 -0.4143
  164SOPE   HN118363   6.242   4.876   9.894  1.2246 -0.0277  0.8380
  164SOPE   HN218364   6.094   4.951   9.891  0.1347 -0.5644 -0.8699
  164SOPE   HN318365   6.169   4.885  10.037  1.5685  2.6484 -0.8692
  164SOPE   C1218366   6.089   4.748   9.884 -0.3276 -0.3257 -0.5141
  164SOPE  H12A18367   6.014   4.704   9.954 -0.4955  0.7797  0.0188
  164SOPE  H12B18368   6.171   4.674   9.878 -1.2582 -1.4950  0.8721
  164SOPE   C1118369   6.035   4.775   9.743 -0.3050 -0.0943  0.1631
  164SOPE  H11A18370   6.037   4.674   9.697 -1.8653 -0.3049  0.5209
  164SOPE  H11B18371   6.097   4.845   9.683  0.5863  0.3920  1.6462
  164SOPE     P18372   5.860   4.973   9.742  0.0407  0.2291  0.3299
  164SOPE   O1318373   5.974   5.044   9.813 -0.4643 -0.0903  0.7603
  164SOPE   O1418374   5.726   4.987   9.799 -0.0957  0.6756 -0.1662
  164SOPE   O1218375   5.899   4.820   9.744  0.5278 -0.0363  0.0553
  164SOPE   O1118376   5.849   5.021   9.595  0.1562  0.2004  0.2881
  164SOPE    C118377   5.769   4.954   9.502  1.0197 -0.4139  0.7622
  164SOPE    HA18378   5.725   5.032   9.436  0.5838 -0.3434  1.1312
  164SOPE    HB18379   5.684   4.897   9.544  0.9645 -0.6283  0.3598
  164SOPE    C218380   5.855   4.857   9.417  0.2306  0.2469  0.6794
  164SOPE    HS18381   5.906   4.792   9.492  0.1026 -0.0599  0.5056
  164SOPE   O2118382   5.959   4.925   9.345  0.1182 -0.0463 -0.7561
  164SOPE   C2118383   6.073   4.854   9.331 -0.0325 -0.0947  0.3710
  164SOPE   O2218384   6.102   4.754   9.387 -0.5197 -0.4588  0.6345
  164SOPE   C2218385   6.176   4.931   9.246  0.7322 -0.1327 -0.3402
  164SOPE   H2R18386   6.213   5.010   9.315 -2.3803 -0.0399  1.3388
  164SOPE   H2S18387   6.122   4.974   9.159 -3.2445 -0.9755  1.6034
  164SOPE    C318388   5.759   4.784   9.315 -0.2868 -0.4268  0.2064
  164SOPE    HX18389   5.729   4.854   9.234  1.5867  1.6123  1.2161
  164SOPE    HY18390   5.668   4.753   9.370 -1.7742  1.0452 -1.3897
  164SOPE   O3118391   5.820   4.669   9.263  0.4507  0.8823 -0.2060
  164SOPE   C3118392   5.860   4.568   9.343  0.1002 -0.1708  0.7174
  164SOPE   O3218393   5.829   4.552   9.456  0.0915 -0.1184 -0.2021
  164SOPE   C3218394   5.967   4.495   9.273 -0.7386  0.3159 -0.1663
  164SOPE   H2X18395   6.001   4.411   9.337 -0.3459  0.9024  0.3995
  164SOPE   H2Y18396   6.058   4.543   9.232  0.6972 -1.3787  0.9606
  164SOPE   C2318397   6.296   4.840   9.207 -0.1993  0.7086  0.5310
  164SOPE   H3R18398   6.348   4.809   9.300  0.6400  0.3800 -0.0312
  164SOPE   H3S18399   6.356   4.911   9.146 -0.3370  0.3275 -0.0517
  164SOPE   C2418400   6.266   4.726   9.115  0.1870  0.0886  0.0583
  164SOPE   H4R18401   6.229   4.647   9.184 -0.4679 -0.4483 -0.8912
  164SOPE   H4S18402   6.178   4.758   9.056 -0.4192 -0.4554  0.6574
  164SOPE   C2518403   6.377   4.674   9.025  0.2772 -0.6867  0.1649
  164SOPE   H5R18404   6.409   4.755   8.957 -3.5415 -0.1949 -1.1987
  164SOPE   H5S18405   6.468   4.643   9.081  0.1002  0.2477  0.9979
  164SOPE   C2618406   6.322   4.558   8.943  0.1603  0.2182 -0.9529
  164SOPE   H6R18407   6.305   4.477   9.018  0.3320  1.4563  0.4505
  164SOPE   H6S18408   6.225   4.577   8.893 -0.9162 -0.3552  0.8505
  164SOPE   C2718409   6.417   4.523   8.829  0.2778  0.0744 -0.0520
  164SOPE   H7R18410   6.423   4.604   8.753 -0.3032 -0.2897 -0.4941
  164SOPE   H7S18411   6.517   4.514   8.875 -0.4740 -0.5863  1.4916
  164SOPE   C2818412   6.388   4.387   8.757  0.0014  0.7130 -0.0379
  164SOPE   H8R18413   6.483   4.363   8.704 -0.6547  1.0141 -1.3775
  164SOPE   H8S18414   6.383   4.318   8.844  1.7308  0.8875  0.2088
  164SOPE   C2918415   6.266   4.361   8.673  0.0818 -0.4683 -0.2095
  164SOPE   H9118416   6.170   4.401   8.707  1.2889  0.4860  2.1620
  164SOPE  C21018417   6.254   4.293   8.559 -0.6051 -0.2351 -0.2041
  164SOPE  H10118418   6.155   4.298   8.513 -1.1626  0.6826  1.0761
  164SOPE  C21118419   6.366   4.221   8.487  0.1514 -0.5156  0.1844
  164SOPE  H11R18420   6.416   4.155   8.561  0.4561 -0.7662 -0.2451
  164SOPE  H11S18421   6.432   4.303   8.453 -2.0403  1.9670  1.6966
  164SOPE  C21218422   6.307   4.134   8.361  0.6366  0.3881  0.0911
  164SOPE  H12R18423   6.227   4.064   8.393 -0.3934  1.5355  0.0782
  164SOPE  H12S18424   6.391   4.075   8.321 -0.1268  1.4318 -3.1447
  164SOPE  C21318425   6.249   4.223   8.251  0.0105  0.4694  0.6586
  164SOPE  H13R18426   6.323   4.297   8.214 -1.3279  1.7731  0.5543
  164SOPE  H13S18427   6.162   4.276   8.295 -0.1427  1.3849 -0.7402
  164SOPE  C21418428   6.199   4.143   8.127  0.2080  0.1787 -0.2634
  164SOPE  H14R18429   6.141   4.061   8.174 -0.0992  1.6112  1.9135
  164SOPE  H14S18430   6.277   4.086   8.072  0.3461  1.2062 -1.1550
  164SOPE  C21518431   6.123   4.232   8.033 -1.2422  0.1201  0.2354
  164SOPE  H15R18432   6.193   4.288   7.968 -0.0144 -0.1884  1.2600
  164SOPE  H15S18433   6.067   4.303   8.098  0.2611  1.3507  0.1958
  164SOPE  C21618434   6.029   4.138   7.956  0.1719 -0.2942  0.6083
  164SOPE  H16R18435   5.949   4.088   8.015 -1.4903 -3.2536 -3.8823
  164SOPE  H16S18436   6.094   4.059   7.913 -1.7979 -0.7601 -1.6277
  164SOPE  C21718437   5.953   4.211   7.843 -0.1241  0.0920 -1.2993
  164SOPE  H17R18438   5.876   4.273   7.893 -1.2765 -2.1640 -0.2207
  164SOPE  H17S18439   5.901   4.127   7.794 -0.0996 -1.7076  1.6490
  164SOPE  C21818440   6.032   4.303   7.747  0.3365  0.1927 -0.0203
  164SOPE  H18R18441   5.975   4.382   7.693  1.6700  1.0363 -0.2174
  164SOPE  H18S18442   6.083   4.236   7.674 -0.1595  0.7550 -0.8939
  164SOPE  H18T18443   6.118   4.355   7.793  1.8220 -1.8313 -0.4520
  164SOPE   C3318444   5.918   4.413   9.150  0.4491 -0.2653 -0.6211
  164SOPE   H3X18445   5.838   4.342   9.178 -1.4809  1.9470 -0.4015
  164SOPE   H3Y18446   5.998   4.338   9.131  0.9586  0.2257 -0.4437
  164SOPE   C3418447   5.906   4.478   9.015  0.5246  0.0318 -0.2848
  164SOPE   H4X18448   6.003   4.529   8.996 -0.7822  2.4338 -0.6952
  164SOPE   H4Y18449   5.826   4.554   9.003  0.8060  0.4361  0.3589
  164SOPE   C3518450   5.882   4.376   8.900  0.5129 -0.1953  0.4464
  164SOPE   H5X18451   5.776   4.344   8.898  0.1213  1.1396 -0.6506
  164SOPE   H5Y18452   5.945   4.285   8.901 -0.4845 -0.9848 -2.7337
  164SOPE   C3618453   5.906   4.446   8.764 -0.2331 -0.2584 -0.1414
  164SOPE   H6X18454   5.913   4.365   8.688 -0.9563 -0.7659  0.3207
  164SOPE   H6Y18455   6.001   4.502   8.762 -0.0699 -0.4786  1.1754
  164SOPE   C3718456   5.794   4.539   8.725  0.2644 -0.2872  0.1070
  164SOPE   H7X18457   5.815   4.641   8.765 -2.7435 -0.1168  1.3959
  164SOPE   H7Y18458   5.695   4.514   8.768 -0.3918 -0.3986 -1.4613
  164SOPE   C3818459   5.757   4.535   8.582  0.1531  0.4969  0.4161
  164SOPE   H8X18460   5.696   4.627   8.574  2.0809  1.9232  1.5308
  164SOPE   H8Y18461   5.706   4.438   8.563  0.0016  0.5319  0.6500
  164SOPE   C3918462   5.886   4.567   8.497  0.0609  0.6875  0.0403
  164SOPE   H9X18463   5.957   4.483   8.514 -0.4076 -0.1256 -1.9349
  164SOPE   H9Y18464   5.934   4.663   8.526  0.2811  0.3421  0.8493
  164SOPE  C31018465   5.845   4.568   8.356  0.7212  0.1298 -0.0280
  164SOPE  H10X18466   5.753   4.629   8.343 -0.1429 -0.9679  0.8423
  164SOPE  H10Y18467   5.816   4.462   8.343  0.6768  0.1888 -0.4155
  164SOPE  C31118468   5.960   4.616   8.264  0.1654  0.7709  0.1467
  164SOPE  H11X18469   6.043   4.548   8.294 -2.6840 -3.3987 -0.9271
  164SOPE  H11Y18470   5.990   4.717   8.300 -0.3348  0.4860  1.3791
  164SOPE  C31218471   5.938   4.589   8.111 -0.1976 -0.5133  0.6635
  164SOPE  H12X18472   5.863   4.663   8.075 -0.9968 -2.6572 -2.2816
  164SOPE  H12Y18473   5.894   4.487   8.106 -1.5493  0.1672 -2.4092
  164SOPE  C31318474   6.070   4.591   8.028  0.2392  0.0976  0.5619
  164SOPE  H13X18475   6.054   4.543   7.929  1.4893  0.9471 -0.0645
  164SOPE  H13Y18476   6.141   4.533   8.091  0.5720  0.0726  0.1638
  164SOPE  C31418477   6.117   4.739   8.002  0.5630 -0.7680 -0.1362
  164SOPE  H14X18478   6.135   4.785   8.102 -0.0394 -1.2403  0.1960
  164SOPE  H14Y18479   6.026   4.779   7.953  2.0194  1.1601 -1.3653
  164SOPE  C31518480   6.237   4.754   7.913 -0.0428 -0.3075  0.3889
  164SOPE  H15X18481   6.215   4.721   7.809  0.6975  1.6013 -0.3802
  164SOPE  H15Y18482   6.305   4.678   7.958 -0.5664 -1.0033  0.0155
  164SOPE  C31618483   6.298   4.897   7.894  0.2527 -0.2514  0.7639
  164SOPE  H16X18484   6.403   4.888   7.857  0.0561 -2.1886  0.6263
  164SOPE  H16Y18485   6.296   4.947   7.993  0.6753  2.0347 -0.3654
  164SOPE  C31718486   6.223   4.978   7.780 -0.3363  0.0118 -0.5472
  164SOPE  H17X18487   6.260   5.082   7.785  0.2551 -0.2631  1.1211
  164SOPE  H17Y18488   6.115   4.973   7.807 -0.3698  1.3665 -0.4321
  164SOPE  C31818489   6.255   4.922   7.648 -0.2834  0.2007 -0.3463
  164SOPE  H18X18490   6.360   4.886   7.656 -0.3800 -0.1614 -0.6860
  164SOPE  H18Y18491   6.249   5.001   7.570 -0.5034  0.3814 -0.1472
  164SOPE  H18Z18492   6.187   4.835   7.632  0.0831 -0.4257  1.4024
  165SOPE     N18493   4.648   5.932  10.032 -0.1137  0.0056  0.3145
  165SOPE   HN118494   4.568   5.884   9.986 -0.7871  0.1399  1.3478
  165SOPE   HN218495   4.715   5.854  10.051 -0.6598 -0.1359  1.6226
  165SOPE   HN318496   4.619   5.979  10.119  0.1491  0.1948  0.3019
  165SOPE   C1218497   4.717   6.030   9.934  0.0671  0.2214 -0.5772
  165SOPE  H12A18498   4.771   6.106   9.995  0.5388 -0.2843 -0.3535
  165SOPE  H12B18499   4.636   6.091   9.889  0.3133  1.3799  0.4970
  165SOPE   C1118500   4.791   5.966   9.821  0.0158 -0.5437  0.1663
  165SOPE  H11A18501   4.848   6.040   9.761  0.4030 -2.5997 -2.1097
  165SOPE  H11B18502   4.714   5.916   9.757 -0.0417  1.6094 -1.4993
  165SOPE     P18503   5.043   5.894   9.862 -0.0708 -0.0224  0.5013
  165SOPE   O1318504   5.117   5.773   9.904  0.0835 -0.0104  0.1807
  165SOPE   O1418505   5.077   6.016   9.939  0.3173  0.8171  0.1320
  165SOPE   O1218506   4.887   5.872   9.867 -0.6890  0.2471  0.0210
  165SOPE   O1118507   5.070   5.929   9.713  0.4126  0.1667  0.0511
  165SOPE    C118508   5.032   5.870   9.594 -0.1541  0.5103 -0.0324
  165SOPE    HA18509   4.953   5.792   9.605 -0.9633  0.9756 -2.2211
  165SOPE    HB18510   5.118   5.823   9.541 -1.3166  0.2366 -1.7141
  165SOPE    C218511   4.969   5.979   9.499  0.1464  0.0345  0.0202
  165SOPE    HS18512   4.863   5.988   9.530  0.1170  0.7755 -0.2806
  165SOPE   O2118513   4.987   5.945   9.365  0.1091 -0.0359  0.0587
  165SOPE   C2118514   4.887   5.875   9.317 -0.4924 -0.2757 -0.2237
  165SOPE   O2218515   4.790   5.850   9.384  0.2803  0.3757  0.2847
  165SOPE   C2218516   4.907   5.855   9.168 -0.2262 -0.6657  0.7122
  165SOPE   H2R18517   4.974   5.928   9.118 -0.4219 -1.9983 -1.5878
  165SOPE   H2S18518   4.810   5.856   9.114  0.2679  1.6910 -0.1817
  165SOPE    C318519   5.024   6.120   9.527 -0.4417 -0.0372  0.4839
  165SOPE    HX18520   5.134   6.109   9.521 -0.4250  0.6196 -0.4248
  165SOPE    HY18521   4.988   6.155   9.626 -2.0769  0.1341 -0.1496
  165SOPE   O3118522   5.003   6.214   9.418  0.2881  0.3482 -0.1539
  165SOPE   C3118523   4.878   6.257   9.406  0.6068  0.2842 -0.3114
  165SOPE   O3218524   4.782   6.239   9.480  0.0661  0.1527  0.2444
  165SOPE   C3218525   4.869   6.319   9.265  0.7941 -0.3998 -0.7503
  165SOPE   H2X18526   4.946   6.398   9.262 -0.3463  0.7559 -0.2748
  165SOPE   H2Y18527   4.767   6.362   9.254  0.1652 -1.8813 -0.7640
  165SOPE   C2318528   4.966   5.718   9.131  0.1047 -0.0400 -0.3771
  165SOPE   H3R18529   4.904   5.641   9.182 -1.6414  0.3975 -1.7729
  165SOPE   H3S18530   5.071   5.699   9.162 -0.3845 -2.4400 -0.0972
  165SOPE   C2418531   4.960   5.662   8.984 -0.0067  0.4820 -0.1433
  165SOPE   H4R18532   5.017   5.569   8.963  0.7866  0.8560  0.3412
  165SOPE   H4S18533   4.857   5.632   8.952  0.4370 -0.1896 -0.9609
  165SOPE   C2518534   4.994   5.766   8.879  0.1263 -0.1026  0.0225
  165SOPE   H5R18535   4.929   5.856   8.890 -0.4064 -0.4635 -0.1287
  165SOPE   H5S18536   5.101   5.793   8.886  0.0602 -0.1453  1.2139
  165SOPE   C2618537   4.963   5.712   8.738  0.0258  0.1243 -0.3847
  165SOPE   H6R18538   4.855   5.701   8.715 -0.1659  1.2572 -0.0545
  165SOPE   H6S18539   5.011   5.786   8.671  1.2842 -1.9474 -1.8438
  165SOPE   C2718540   5.045   5.588   8.703  0.3183  0.3615 -0.1468
  165SOPE   H7R18541   5.152   5.596   8.731  0.7708  1.9254 -2.2391
  165SOPE   H7S18542   5.000   5.502   8.757  0.9566  0.9351  1.3375
  165SOPE   C2818543   5.045   5.554   8.549 -0.0790 -0.2423  0.4362
  165SOPE   H8R18544   5.087   5.452   8.536 -0.8542 -0.3014 -2.0112
  165SOPE   H8S18545   4.939   5.535   8.521 -0.1195 -0.7945  0.9558
  165SOPE   C2918546   5.116   5.651   8.454 -0.1739  0.0784 -0.2456
  165SOPE   H9118547   5.204   5.704   8.492  0.3856 -1.7968  1.2100
  165SOPE  C21018548   5.065   5.678   8.333 -0.5942  0.7947  0.5543
  165SOPE  H10118549   5.113   5.752   8.268  2.1383  0.4148  2.0829
  165SOPE  C21118550   4.947   5.630   8.266  0.0630 -0.7582  0.0012
  165SOPE  H11R18551   4.854   5.689   8.272  0.9042  0.5738  0.0565
  165SOPE  H11S18552   4.923   5.527   8.302 -0.9547 -1.3979 -2.4010
  165SOPE  C21218553   4.954   5.598   8.115  0.4955  0.6382 -0.1495
  165SOPE  H12R18554   4.857   5.551   8.086  1.6989 -1.9066 -0.1824
  165SOPE  H12S18555   5.039   5.530   8.093 -1.6659 -1.6804 -1.7737
  165SOPE  C21318556   4.969   5.719   8.019 -0.3313 -1.0047  0.6207
  165SOPE  H13R18557   5.049   5.790   8.047  0.4012 -0.8725 -1.7409
  165SOPE  H13S18558   4.874   5.773   8.037  1.0433  2.5019 -2.1853
  165SOPE  C21418559   4.984   5.690   7.869 -0.2876  0.0695  1.2813
  165SOPE  H14R18560   4.895   5.635   7.830  1.1731 -1.6866  0.3514
  165SOPE  H14S18561   5.066   5.618   7.851 -0.3748  0.7227 -1.9779
  165SOPE  C21518562   5.007   5.815   7.787  0.1892  0.5876  0.2138
  165SOPE  H15R18563   5.100   5.869   7.816  1.1277 -0.4717 -0.8009
  165SOPE  H15S18564   4.922   5.881   7.813 -0.7150 -0.4085 -0.1840
  165SOPE  C21618565   5.006   5.780   7.640  0.0155 -0.0139 -0.1213
  165SOPE  H16R18566   4.934   5.696   7.629  0.4865 -0.5650  0.8516
  165SOPE  H16S18567   5.102   5.743   7.597  0.0610  3.1810 -3.0163
  165SOPE  C21718568   4.950   5.889   7.554 -0.8688 -0.3909  0.2081
  165SOPE  H17R18569   5.008   5.981   7.572 -0.0924 -0.8431  0.0310
  165SOPE  H17S18570   4.852   5.916   7.599 -1.1275 -0.7873 -0.1089
  165SOPE  C21818571   4.941   5.857   7.405  0.5669  0.3598 -0.0399
  165SOPE  H18R18572   4.920   5.750   7.385 -1.6511  0.7667 -0.0950
  165SOPE  H18S18573   5.036   5.886   7.356  1.0233  0.7715  1.0753
  165SOPE  H18T18574   4.858   5.904   7.347 -0.6699 -1.6267  0.0891
  165SOPE   C3318575   4.899   6.221   9.152 -0.3041 -0.0990 -0.1746
  165SOPE   H3X18576   4.823   6.140   9.155  0.1190 -0.5031 -0.3201
  165SOPE   H3Y18577   4.998   6.175   9.174  0.2657  0.4907 -1.4780
  165SOPE   C3418578   4.900   6.281   9.011  0.2182 -0.0014  0.1907
  165SOPE   H4X18579   4.982   6.356   9.005 -0.7748  1.3297  2.7221
  165SOPE   H4Y18580   4.810   6.340   8.988  0.2859 -0.7439 -2.1235
  165SOPE   C3518581   4.909   6.168   8.909 -0.6660 -0.2957  0.6684
  165SOPE   H5X18582   4.851   6.076   8.933 -0.1237 -0.8933 -0.2964
  165SOPE   H5Y18583   5.007   6.118   8.922 -0.3515 -0.0350 -0.6420
  165SOPE   C3618584   4.881   6.220   8.765  0.6509 -0.1059 -0.6305
  165SOPE   H6X18585   4.939   6.315   8.761  1.0363 -0.2656  0.8731
  165SOPE   H6Y18586   4.774   6.250   8.762  1.1020  2.1708  3.0567
  165SOPE   C3718587   4.908   6.127   8.653  0.0679  1.2905 -0.2045
  165SOPE   H7X18588   4.816   6.118   8.592  0.2027 -0.1816 -0.2200
  165SOPE   H7Y18589   4.924   6.022   8.688  0.6776  0.9674 -1.3924
  165SOPE   C3818590   5.024   6.173   8.567 -0.3235 -0.0557  0.6388
  165SOPE   H8X18591   5.119   6.189   8.622 -1.7353 -2.1859  3.8981
  165SOPE   H8Y18592   5.000   6.271   8.522  0.8897 -0.6295 -1.3178
  165SOPE   C3918593   5.043   6.083   8.451 -0.5948 -0.1234  0.9590
  165SOPE   H9X18594   4.942   6.073   8.406  0.3652  0.8926 -1.5769
  165SOPE   H9Y18595   5.088   5.989   8.488 -1.5834 -0.5480  1.0711
  165SOPE  C31018596   5.141   6.149   8.343 -0.3720  0.2264  0.0507
  165SOPE  H10X18597   5.243   6.144   8.387 -0.5208  0.4263  0.4191
  165SOPE  H10Y18598   5.108   6.252   8.316 -0.4592  0.0053 -0.7114
  165SOPE  C31118599   5.137   6.075   8.208 -1.1252 -0.0535  0.1912
  165SOPE  H11X18600   5.031   6.040   8.201 -0.0468 -3.7401  0.8658
  165SOPE  H11Y18601   5.209   5.990   8.211  0.7541  1.3780 -2.1829
  165SOPE  C31218602   5.183   6.178   8.093 -0.4744 -0.1399  0.0992
  165SOPE  H12X18603   5.281   6.221   8.121 -1.6261  1.7265  1.3897
  165SOPE  H12Y18604   5.109   6.260   8.083  1.0230  1.2397  0.2587
  165SOPE  C31318605   5.195   6.120   7.951  0.5530  0.8374 -0.2692
  165SOPE  H13X18606   5.102   6.064   7.929  0.3921  0.9793  0.0512
  165SOPE  H13Y18607   5.277   6.046   7.952  1.0537  1.3948  0.5687
  165SOPE  C31418608   5.224   6.223   7.854  0.1841 -0.2211 -0.5027
  165SOPE  H14X18609   5.267   6.308   7.910  0.5610 -0.1067 -0.9680
  165SOPE  H14Y18610   5.125   6.252   7.812 -0.6201 -3.7042 -1.1677
  165SOPE  C31518611   5.299   6.163   7.739  0.1454  0.3533 -0.3358
  165SOPE  H15X18612   5.221   6.096   7.697  1.2178 -0.9045 -0.3296
  165SOPE  H15Y18613   5.379   6.093   7.771 -0.5368  0.0077  0.6711
  165SOPE  C31618614   5.344   6.262   7.624 -0.2483  0.1896  0.1383
  165SOPE  H16X18615   5.389   6.347   7.679 -0.0616  0.0274  0.2368
  165SOPE  H16Y18616   5.249   6.294   7.576 -0.1934  2.2749  1.3336
  165SOPE  C31718617   5.444   6.200   7.529  0.0853 -0.2454 -0.3707
  165SOPE  H17X18618   5.517   6.144   7.591  1.1719  0.8150 -0.6644
  165SOPE  H17Y18619   5.495   6.280   7.471 -0.0375  0.0598 -0.0572
  165SOPE  C31818620   5.376   6.094   7.436  0.4729 -0.0972 -0.0315
  165SOPE  H18X18621   5.372   5.991   7.478  0.1510 -0.2021 -0.3169
  165SOPE  H18Y18622   5.428   6.101   7.338 -0.1869  0.5038 -0.3363
  165SOPE  H18Z18623   5.273   6.128   7.415  0.2480 -0.1449  0.9676
  166SOPE     N18624   0.038   6.070  10.176 -0.3552  0.5956  0.0285
  166SOPE   HN118625   0.125   6.083  10.120 -1.2265  1.6524 -1.1061
  166SOPE   HN218626   0.005   6.152  10.231 -1.5750 -0.9108  1.6087
  166SOPE   HN318627   0.071   6.011  10.255  1.5740  1.2575 -0.2563
  166SOPE   C1218628  -0.066   6.004  10.089 -0.1519  0.4132  0.1363
  166SOPE  H12A18629  -0.086   6.072  10.004  2.2245  0.9527 -0.0343
  166SOPE  H12B18630  -0.157   5.999  10.152 -0.5870  0.7773 -0.4622
  166SOPE   C1118631  -0.037   5.859  10.040  0.3171  0.1679 -0.3339
  166SOPE  H11A18632  -0.131   5.815   9.998 -1.4287  0.5716  3.0061
  166SOPE  H11B18633  -0.011   5.791  10.124 -1.0522  1.9458  1.5656
  166SOPE     P18634   0.102   5.945   9.828 -0.4374 -0.0487  0.5367
  166SOPE   O1318635   0.181   5.868   9.727 -0.1357  0.1911  0.1138
  166SOPE   O1418636   0.173   6.066   9.878  0.5139 -0.6741 -0.3982
  166SOPE   O1218637   0.069   5.853   9.944 -0.0857  0.2468  0.1423
  166SOPE   O1118638  -0.037   5.995   9.773 -0.0979  0.6744 -0.0242
  166SOPE    C118639  -0.117   5.902   9.693 -0.0481 -0.7471 -0.2946
  166SOPE    HA18640  -0.223   5.928   9.714 -0.3294 -1.4745 -0.7818
  166SOPE    HB18641  -0.109   5.794   9.718  0.8170 -0.7018 -0.3549
  166SOPE    C218642  -0.111   5.929   9.546 -0.4140  0.1484  0.2257
  166SOPE    HS18643  -0.202   5.881   9.504  0.5022 -1.4321 -0.0061
  166SOPE   O2118644   0.014   5.879   9.488 -0.0147  0.6935 -0.8263
  166SOPE   C2118645   0.004   5.745   9.470 -0.9777  0.1740 -0.2531
  166SOPE   O2218646  -0.079   5.671   9.520 -0.6670 -0.5874 -0.1630
  166SOPE   C2218647   0.114   5.695   9.381  0.3982  0.3797  0.1248
  166SOPE   H2R18648   0.139   5.600   9.433  0.9465 -0.6085 -1.8962
  166SOPE   H2S18649   0.201   5.764   9.381  0.4894  0.2925  1.8748
  166SOPE    C318650  -0.115   6.081   9.524 -0.7220  0.0351 -0.1085
  166SOPE    HX18651  -0.033   6.118   9.589  0.7289 -0.5251 -1.5692
  166SOPE    HY18652  -0.212   6.120   9.561 -1.4055  0.1579 -1.9913
  166SOPE   O3118653  -0.091   6.093   9.386  0.3480 -0.3569  0.5941
  166SOPE   C3118654  -0.100   6.215   9.353 -0.5552 -0.9430  0.5431
  166SOPE   O3218655  -0.139   6.307   9.426  0.3953 -0.0417  0.6508
  166SOPE   C3218656  -0.058   6.243   9.210  0.4127 -0.7985  0.6182
  166SOPE   H2X18657   0.032   6.180   9.196  0.1031 -0.9163 -0.9247
  166SOPE   H2Y18658  -0.028   6.350   9.219 -2.1738 -0.1584  2.4884
  166SOPE   C2318659   0.050   5.662   9.249 -0.6446 -0.0507  0.3448
  166SOPE   H3R18660  -0.045   5.604   9.257  0.2951 -1.2184  3.5711
  166SOPE   H3S18661   0.119   5.599   9.188 -0.6789 -0.5679  0.8401
  166SOPE   C2418662   0.009   5.780   9.158 -0.2745 -0.4246 -0.7046
  166SOPE   H4R18663  -0.065   5.832   9.222 -0.6227 -1.7947  0.0389
  166SOPE   H4S18664   0.093   5.848   9.134 -0.2370  0.0624  0.7603
  166SOPE   C2518665  -0.065   5.739   9.030  0.2636 -0.3554  0.4735
  166SOPE   H5R18666  -0.139   5.661   9.057  1.6143 -1.1124  2.0868
  166SOPE   H5S18667  -0.130   5.824   9.000  0.7193 -0.5585 -1.1423
  166SOPE   C2618668   0.021   5.692   8.912  0.0605  0.5874 -0.1244
  166SOPE   H6R18669   0.089   5.778   8.894  1.3749 -0.0967  1.4489
  166SOPE   H6S18670   0.073   5.601   8.948  0.3002  0.5986 -0.4368
  166SOPE   C2718671  -0.057   5.648   8.791  0.0174 -1.0622 -0.1508
  166SOPE   H7R18672  -0.122   5.561   8.816 -0.4079 -0.2932  1.4897
  166SOPE   H7S18673  -0.124   5.730   8.758  0.0193 -0.8636  0.3396
  166SOPE   C2818674   0.024   5.599   8.667 -0.9667 -0.0538  0.5070
  166SOPE   H8R18675   0.086   5.689   8.647  0.5511 -1.4439 -1.0862
  166SOPE   H8S18676   0.084   5.509   8.692 -1.8241 -0.2450  2.0167
  166SOPE   C2918677  -0.079   5.562   8.555 -0.3216 -0.4799  0.1125
  166SOPE   H9118678  -0.156   5.487   8.579 -0.8030 -0.2531 -0.6947
  166SOPE  C21018679  -0.100   5.620   8.437  0.1952 -0.1386  0.4442
  166SOPE  H10118680  -0.174   5.570   8.372 -0.3372  0.2249  0.7708
  166SOPE  C21118681  -0.023   5.731   8.372 -0.3567  1.3853 -0.0783
  166SOPE  H11R18682  -0.013   5.719   8.262  0.9886  3.2330 -0.1916
  166SOPE  H11S18683   0.081   5.719   8.409 -0.4452 -1.8229 -0.7391
  166SOPE  C21218684  -0.049   5.880   8.409 -0.4331  0.5411 -0.4591
  166SOPE  H12R18685   0.036   5.935   8.365  1.1686 -1.2223  0.3738
  166SOPE  H12S18686  -0.065   5.907   8.515  0.5826  2.4472 -0.7742
  166SOPE  C21318687  -0.179   5.932   8.346 -0.2092  0.2134  0.7293
  166SOPE  H13R18688  -0.175   5.883   8.246 -1.8445  0.4446  0.5470
  166SOPE  H13S18689  -0.173   6.042   8.337  1.1973 -0.1226 -3.8122
  166SOPE  C21418690  -0.309   5.899   8.420  0.3871  0.0662 -0.2768
  166SOPE  H14R18691  -0.322   5.789   8.428 -0.8863  0.4228  3.3285
  166SOPE  H14S18692  -0.392   5.942   8.360  0.4384  0.4600 -0.0685
  166SOPE  C21518693  -0.326   5.958   8.559  0.3231 -0.6966 -0.2273
  166SOPE  H15R18694  -0.308   6.067   8.569  2.8372 -1.0019 -1.0684
  166SOPE  H15S18695  -0.251   5.910   8.625  0.0222 -1.1282 -0.2008
  166SOPE  C21618696  -0.459   5.922   8.617  0.1505 -0.0374 -0.4742
  166SOPE  H16R18697  -0.472   5.813   8.633 -1.1359  0.2785  0.7423
  166SOPE  H16S18698  -0.541   5.963   8.555  1.1663 -0.6959 -2.3016
  166SOPE  C21718699  -0.485   5.984   8.760  0.0774  0.0768  0.0060
  166SOPE  H17R18700  -0.456   6.091   8.760 -0.2675  0.1751 -0.5055
  166SOPE  H17S18701  -0.414   5.945   8.835 -0.9897 -0.5370  0.7106
  166SOPE  C21818702  -0.626   5.969   8.812  0.4668  0.6724 -1.0953
  166SOPE  H18R18703  -0.699   5.968   8.729  2.2464  2.1636 -2.7308
  166SOPE  H18S18704  -0.647   6.050   8.885  0.1441  0.4859 -0.9853
  166SOPE  H18T18705  -0.649   5.873   8.862 -0.5404  1.8944  0.8316
  166SOPE   C3318706  -0.172   6.221   9.109 -0.4515  0.1718 -0.4870
  166SOPE   H3X18707  -0.248   6.298   9.137 -0.8931 -0.2553 -0.4975
  166SOPE   H3Y18708  -0.208   6.117   9.123 -1.4532  0.7747  1.6428
  166SOPE   C3418709  -0.123   6.241   8.968 -0.5234  0.1436  1.1346
  166SOPE   H4X18710  -0.031   6.181   8.959 -0.3729  0.2303  1.9733
  166SOPE   H4Y18711  -0.098   6.349   8.962  0.2268 -0.1381 -1.2151
  166SOPE   C3518712  -0.227   6.232   8.857 -1.1351 -0.1206 -0.5865
  166SOPE   H5X18713  -0.315   6.288   8.893 -0.5831  0.4306 -0.0802
  166SOPE   H5Y18714  -0.256   6.125   8.848  2.6598 -1.2236 -0.5117
  166SOPE   C3618715  -0.181   6.285   8.723 -0.5224 -0.4941  0.1607
  166SOPE   H6X18716  -0.152   6.391   8.736  1.5989 -0.9012 -1.0327
  166SOPE   H6Y18717  -0.254   6.272   8.641  0.4085 -1.6903 -0.5118
  166SOPE   C3718718  -0.050   6.228   8.671 -0.4506  0.4701  0.1787
  166SOPE   H7X18719  -0.056   6.117   8.668 -1.7669  0.5329  0.1732
  166SOPE   H7Y18720   0.029   6.249   8.746  0.8727 -2.9593 -0.1510
  166SOPE   C3818721  -0.003   6.273   8.532  0.2881 -0.0973 -0.6186
  166SOPE   H8X18722   0.001   6.384   8.530  0.8473 -0.1166 -0.7232
  166SOPE   H8Y18723  -0.081   6.241   8.460 -0.3216  1.0487 -0.4763
  166SOPE   C3918724   0.136   6.216   8.501  0.1075  0.0594  0.6635
  166SOPE   H9X18725   0.139   6.107   8.518  1.2361  0.0333  0.3448
  166SOPE   H9Y18726   0.221   6.259   8.558  1.6364 -2.1333  0.0832
  166SOPE  C31018727   0.176   6.229   8.355 -0.3162 -0.4345 -1.4587
  166SOPE  H10X18728   0.086   6.205   8.294 -1.8098  1.1254  0.0825
  166SOPE  H10Y18729   0.256   6.155   8.333 -0.4516 -0.8456 -0.5609
  166SOPE  C31118730   0.240   6.366   8.327  0.0055 -0.0116  0.2368
  166SOPE  H11X18731   0.336   6.355   8.383 -0.0266 -0.5427  0.1827
  166SOPE  H11Y18732   0.179   6.454   8.357 -3.5371 -2.6801  1.1298
  166SOPE  C31218733   0.273   6.396   8.180 -0.8608  0.1117 -0.0965
  166SOPE  H12X18734   0.305   6.502   8.172  0.2523 -0.3312 -1.8528
  166SOPE  H12Y18735   0.184   6.376   8.117 -0.4470 -2.6476  0.1025
  166SOPE  C31318736   0.388   6.303   8.123 -0.0174 -0.1329 -0.1595
  166SOPE  H13X18737   0.348   6.199   8.128 -0.4638  0.0212 -0.5711
  166SOPE  H13Y18738   0.483   6.297   8.182  0.3400 -2.6095 -0.9282
  166SOPE  C31418739   0.435   6.338   7.978  0.1965 -0.1132  0.0944
  166SOPE  H14X18740   0.348   6.360   7.912  0.9339  1.9251 -0.2436
  166SOPE  H14Y18741   0.495   6.250   7.945  0.6050 -0.1518  0.9441
  166SOPE  C31518742   0.532   6.452   7.966 -0.9085  0.4757 -0.1774
  166SOPE  H15X18743   0.633   6.423   8.001 -1.4235 -1.2768 -0.0423
  166SOPE  H15Y18744   0.506   6.553   8.002 -1.1667  0.4176 -0.1965
  166SOPE  C31618745   0.550   6.478   7.824 -0.4296  0.0181 -0.0568
  166SOPE  H16X18746   0.461   6.532   7.786 -0.0871 -0.1507 -1.1270
  166SOPE  H16Y18747   0.553   6.383   7.767 -1.9187  1.1045 -2.0406
  166SOPE  C31718748   0.690   6.548   7.797  0.5909  0.7653 -0.2992
  166SOPE  H17X18749   0.773   6.486   7.837 -0.6769 -0.1595  0.9463
  166SOPE  H17Y18750   0.687   6.636   7.864 -0.8095  1.6696 -1.5166
  166SOPE  C31818751   0.710   6.582   7.648 -0.0128  0.3649  0.2996
  166SOPE  H18X18752   0.814   6.614   7.625  0.1796 -1.6400 -1.7452
  166SOPE  H18Y18753   0.637   6.659   7.614  0.1507  1.6627  2.7170
  166SOPE  H18Z18754   0.691   6.495   7.583 -0.2115  0.0996  0.7099
  167SOPE     N18755   4.546   3.638   5.411 -0.5821  0.1441 -0.4257
  167SOPE   HN118756   4.595   3.714   5.360  0.4686 -0.3212 -0.1301
  167SOPE   HN218757   4.505   3.585   5.331  2.9235 -1.6417 -1.1056
  167SOPE   HN318758   4.466   3.654   5.476  0.8180  1.0105  1.1295
  167SOPE   C1218759   4.653   3.563   5.481 -1.0763  0.1501  0.3084
  167SOPE  H12A18760   4.732   3.534   5.408  0.5055  0.7970  1.7390
  167SOPE  H12B18761   4.612   3.477   5.537 -1.5670  0.6679  0.7433
  167SOPE   C1118762   4.710   3.658   5.591  0.6667 -0.1641  0.3845
  167SOPE  H11A18763   4.780   3.605   5.659  0.1959 -0.7160  0.4484
  167SOPE  H11B18764   4.622   3.682   5.655  0.1194 -0.2009 -0.3597
  167SOPE     P18765   4.907   3.792   5.485 -0.1562 -0.2420 -0.2084
  167SOPE   O1318766   4.905   3.904   5.387  0.2535 -0.4292 -0.4554
  167SOPE   O1418767   4.942   3.657   5.428 -0.5834 -0.1050  0.8694
  167SOPE   O1218768   4.759   3.785   5.543 -0.1666 -0.0541  0.2092
  167SOPE   O1118769   5.000   3.835   5.601  0.0128 -0.5911 -0.0569
  167SOPE    C118770   5.004   3.807   5.733 -0.2104 -0.3620 -1.0294
  167SOPE    HA18771   4.901   3.785   5.769 -0.3625  1.0435 -0.5942
  167SOPE    HB18772   5.025   3.902   5.786 -0.5966 -0.5177 -0.5883
  167SOPE    C218773   5.100   3.696   5.769  0.4168  0.0029 -0.0026
  167SOPE    HS18774   5.094   3.609   5.700  0.6676  0.9443 -1.2213
  167SOPE   O2118775   5.073   3.648   5.904 -0.1777  0.3227 -0.6468
  167SOPE   C2118776   4.986   3.544   5.908 -0.3391  0.7442 -0.6500
  167SOPE   O2218777   4.923   3.497   5.815 -0.2810  0.0947  0.1974
  167SOPE   C2218778   4.974   3.485   6.045  0.2122 -1.0584 -0.8596
  167SOPE   H2R18779   5.028   3.388   6.053  0.9506 -0.6461 -0.8634
  167SOPE   H2S18780   4.865   3.474   6.063  0.6464 -0.9492  2.1817
  167SOPE    C318781   5.253   3.740   5.760 -0.2480  0.1591 -0.5563
  167SOPE    HX18782   5.252   3.820   5.684 -0.6275 -1.6974 -2.5766
  167SOPE    HY18783   5.318   3.657   5.723 -0.0348 -0.5722  1.4005
  167SOPE   O3118784   5.301   3.803   5.886  0.6239  0.3257  0.4182
  167SOPE   C3118785   5.356   3.718   5.970 -0.6951  0.8600  0.3335
  167SOPE   O3218786   5.365   3.600   5.954 -0.5715 -0.5932 -0.7749
  167SOPE   C3218787   5.391   3.804   6.092  0.3056  0.2943  0.2968
  167SOPE   H2X18788   5.304   3.870   6.114 -0.4176 -0.5225 -0.0912
  167SOPE   H2Y18789   5.471   3.873   6.059 -0.4339  0.0281 -2.1524
  167SOPE   C2318790   5.044   3.561   6.160  0.6931  0.1615  0.3227
  167SOPE   H3R18791   5.015   3.668   6.163 -1.8290 -0.4613 -0.8983
  167SOPE   H3S18792   5.153   3.556   6.139  0.9656  1.7242  1.2809
  167SOPE   C2418793   5.019   3.508   6.299  0.1935 -0.0748  0.3691
  167SOPE   H4R18794   4.912   3.502   6.329 -0.2272  1.3475 -0.8027
  167SOPE   H4S18795   5.064   3.407   6.311 -0.0006 -0.3960 -1.5201
  167SOPE   C2518796   5.085   3.588   6.417 -0.4719  0.7820 -1.7100
  167SOPE   H5R18797   5.195   3.583   6.401 -0.3831 -0.5868 -0.7430
  167SOPE   H5S18798   5.062   3.697   6.415  0.7513  1.0594 -1.2802
  167SOPE   C2618799   5.066   3.515   6.555  0.4955  0.0099 -0.0788
  167SOPE   H6R18800   4.957   3.519   6.580  0.9358 -1.5119  2.2335
  167SOPE   H6S18801   5.085   3.407   6.540  1.7638  0.3538 -0.9544
  167SOPE   C2718802   5.154   3.565   6.667  0.0573 -0.2103 -0.2426
  167SOPE   H7R18803   5.251   3.516   6.643  0.6652  0.0514  1.6276
  167SOPE   H7S18804   5.162   3.675   6.652 -0.6031 -0.3127 -1.4297
  167SOPE   C2818805   5.093   3.540   6.806 -0.0400 -0.4889 -0.4887
  167SOPE   H8R18806   4.983   3.554   6.815 -0.2832 -2.5707  0.1239
  167SOPE   H8S18807   5.095   3.430   6.823 -0.9477 -0.4713 -0.2164
  167SOPE   C2918808   5.171   3.594   6.925  0.9445 -0.8741 -0.4913
  167SOPE   H9118809   5.263   3.642   6.890  1.0887 -0.1141  0.8980
  167SOPE  C21018810   5.140   3.595   7.052 -0.2575 -0.1278  0.9879
  167SOPE  H10118811   5.213   3.651   7.113  1.0801  1.1377 -1.6394
  167SOPE  C21118812   5.018   3.541   7.121  0.0864  0.6390 -0.3192
  167SOPE  H11R18813   4.946   3.495   7.049 -0.6476  0.0322  0.7867
  167SOPE  H11S18814   4.954   3.624   7.158 -1.4430 -0.7039  0.1368
  167SOPE  C21218815   5.037   3.441   7.231 -0.8005 -0.0880  0.6124
  167SOPE  H12R18816   5.114   3.366   7.200 -0.2421  0.7673 -0.0888
  167SOPE  H12S18817   4.943   3.382   7.240 -2.0534  2.0794  2.1963
  167SOPE  C21318818   5.090   3.484   7.373 -0.2386 -0.2325  0.6102
  167SOPE  H13R18819   5.190   3.531   7.359 -0.6311  0.1359 -1.1291
  167SOPE  H13S18820   5.118   3.398   7.437 -1.7156 -0.7874  0.5376
  167SOPE  C21418821   4.993   3.585   7.443  0.2787 -0.7492 -0.0554
  167SOPE  H14R18822   4.897   3.537   7.472 -0.2180 -1.0415 -2.0873
  167SOPE  H14S18823   4.965   3.661   7.367 -0.1623 -3.3391 -2.5778
  167SOPE  C21518824   5.053   3.643   7.572  0.8342 -0.1692 -0.1826
  167SOPE  H15R18825   5.141   3.704   7.542  0.9446 -1.0194 -1.6410
  167SOPE  H15S18826   5.100   3.569   7.640  0.0168 -1.2462 -0.7640
  167SOPE  C21618827   4.966   3.746   7.652  0.1980  0.2526  0.3726
  167SOPE  H16R18828   4.884   3.790   7.592  1.2569  1.3952 -0.2538
  167SOPE  H16S18829   5.017   3.828   7.707  1.0412 -0.6817  1.0134
  167SOPE  C21718830   4.876   3.676   7.760 -0.3117  0.3540  0.0671
  167SOPE  H17R18831   4.945   3.641   7.840 -0.4744 -2.6640 -1.0617
  167SOPE  H17S18832   4.821   3.591   7.714  1.6019 -1.0341  0.2803
  167SOPE  C21818833   4.759   3.757   7.827 -0.3584 -0.3307 -0.2682
  167SOPE  H18R18834   4.713   3.695   7.906 -3.0224 -0.0934 -1.5943
  167SOPE  H18S18835   4.679   3.784   7.754 -0.6973  1.7908  0.8370
  167SOPE  H18T18836   4.798   3.853   7.867  0.4273 -0.9227  0.3924
  167SOPE   C3318837   5.445   3.725   6.212 -0.0876  0.7377  0.4308
  167SOPE   H3X18838   5.555   3.708   6.213 -0.3263 -1.2338 -2.7485
  167SOPE   H3Y18839   5.398   3.625   6.223 -0.7232  1.0918  0.9555
  167SOPE   C3418840   5.406   3.808   6.336  0.4244 -0.4065 -0.2539
  167SOPE   H4X18841   5.296   3.793   6.332  0.2671  0.5117  0.5544
  167SOPE   H4Y18842   5.420   3.918   6.327 -1.3759 -0.0764  0.8656
  167SOPE   C3518843   5.458   3.753   6.471  0.2837 -0.5209  0.5877
  167SOPE   H5X18844   5.568   3.764   6.467  0.2119  0.4517  1.0559
  167SOPE   H5Y18845   5.421   3.648   6.472 -1.6948  0.1511  0.7844
  167SOPE   C3618846   5.410   3.840   6.593 -0.2302  0.1001 -0.3269
  167SOPE   H6X18847   5.300   3.847   6.603 -0.3823  0.4795 -2.1033
  167SOPE   H6Y18848   5.454   3.941   6.580 -0.7359  0.0165 -2.9181
  167SOPE   C3718849   5.467   3.787   6.729  0.0653  0.1760  0.5652
  167SOPE   H7X18850   5.572   3.765   6.703  0.4968  1.0117  1.5481
  167SOPE   H7Y18851   5.415   3.692   6.753 -2.3597  0.6436 -2.4819
  167SOPE   C3818852   5.449   3.892   6.842 -0.4442  0.5570  0.1869
  167SOPE   H8X18853   5.340   3.913   6.841 -0.4025  0.8331  0.9244
  167SOPE   H8Y18854   5.514   3.979   6.821  0.0892  0.5737  1.7816
  167SOPE   C3918855   5.502   3.836   6.973 -0.6031  0.1550 -0.0108
  167SOPE   H9X18856   5.590   3.771   6.960 -0.8373 -0.1756  0.0576
  167SOPE   H9Y18857   5.427   3.767   7.017 -0.9302  0.8629  0.5440
  167SOPE  C31018858   5.549   3.942   7.069  0.4198 -0.3558  0.0375
  167SOPE  H10X18859   5.624   4.007   7.019  1.0418 -0.8163  0.3615
  167SOPE  H10Y18860   5.609   3.889   7.147  1.0620  0.5404  0.1508
  167SOPE  C31118861   5.442   4.024   7.141  0.1834 -0.3061  0.0166
  167SOPE  H11X18862   5.394   4.099   7.075  0.9408  0.9155  0.8179
  167SOPE  H11Y18863   5.485   4.076   7.229 -0.1961  1.9991 -1.1370
  167SOPE  C31218864   5.323   3.945   7.207 -0.1755 -0.1619  0.7311
  167SOPE  H12X18865   5.255   3.902   7.130 -0.7575  1.9149  0.0475
  167SOPE  H12Y18866   5.262   4.020   7.261 -0.5912  1.5347 -1.9782
  167SOPE  C31318867   5.356   3.826   7.294  0.0323 -0.5866  0.0820
  167SOPE  H13X18868   5.404   3.742   7.240 -2.5115 -0.4063 -2.6141
  167SOPE  H13Y18869   5.258   3.791   7.334  0.3208  1.6161  2.8850
  167SOPE  C31418870   5.445   3.857   7.420  0.3035  0.1384  0.1149
  167SOPE  H14X18871   5.550   3.874   7.388  0.4121 -1.0788 -0.2354
  167SOPE  H14Y18872   5.471   3.765   7.477  2.6801  0.8120  0.1696
  167SOPE  C31518873   5.387   3.964   7.515 -0.4597 -0.0423  0.0973
  167SOPE  H15X18874   5.279   3.944   7.526 -1.0704  3.0873  0.0943
  167SOPE  H15Y18875   5.399   4.060   7.462  0.0989  0.0365  0.3589
  167SOPE  C31618876   5.466   3.987   7.650  0.2587  0.2639  0.2796
  167SOPE  H16X18877   5.575   3.990   7.631 -0.3144  1.2111 -3.3949
  167SOPE  H16Y18878   5.445   3.902   7.719 -3.1118  0.9885  0.2424
  167SOPE  C31718879   5.430   4.122   7.723 -0.8115 -0.9682 -0.0165
  167SOPE  H17X18880   5.319   4.125   7.724 -0.8035 -0.1914 -1.3021
  167SOPE  H17Y18881   5.485   4.201   7.667  1.2431 -1.2126  1.5792
  167SOPE  C31818882   5.469   4.143   7.868  0.1880 -0.2905  0.2536
  167SOPE  H18X18883   5.579   4.129   7.880 -0.1416 -1.6138  1.9067
  167SOPE  H18Y18884   5.425   4.071   7.940  1.2175 -0.9390  0.2512
  167SOPE  H18Z18885   5.452   4.244   7.908 -0.5465 -0.2790 -0.0819
  168SOPE     N18886   3.734   0.623   5.818  0.3552  0.4313 -0.3251
  168SOPE   HN118887   3.736   0.695   5.743  0.4723  2.3081  1.4306
  168SOPE   HN218888   3.791   0.544   5.781 -2.1161  0.1132 -3.6367
  168SOPE   HN318889   3.638   0.594   5.842  0.7662  0.5374  1.5378
  168SOPE   C1218890   3.814   0.695   5.923  0.0281  0.5701  1.1643
  168SOPE  H12A18891   3.854   0.614   5.987 -0.8517 -1.0225 -0.2748
  168SOPE  H12B18892   3.736   0.764   5.961  0.4861  2.1973 -0.7488
  168SOPE   C1118893   3.938   0.780   5.862 -0.2107  0.9953  0.0341
  168SOPE  H11A18894   4.006   0.702   5.821 -2.5190 -1.8754  1.4595
  168SOPE  H11B18895   3.997   0.834   5.939 -0.7563  2.3515 -0.4877
  168SOPE     P18896   3.974   0.931   5.648 -0.0350  0.2884 -0.2498
  168SOPE   O1318897   3.903   1.051   5.600 -0.4430 -0.5505 -0.4144
  168SOPE   O1418898   4.000   0.817   5.556 -0.0126  0.0238 -0.2210
  168SOPE   O1218899   3.885   0.880   5.769  0.0929 -0.1352 -0.5143
  168SOPE   O1118900   4.111   0.961   5.719  0.3227 -0.5735  0.0260
  168SOPE    C118901   4.121   1.092   5.775 -0.0607  0.0527  0.3905
  168SOPE    HA18902   4.034   1.130   5.832 -1.3942 -2.7212  0.2290
  168SOPE    HB18903   4.125   1.166   5.692  1.4794 -0.8774 -0.3890
  168SOPE    C218904   4.237   1.108   5.874  0.0307 -0.5547 -1.2942
  168SOPE    HS18905   4.339   1.101   5.831  1.4919 -0.5008  2.0184
  168SOPE   O2118906   4.220   1.006   5.979 -0.3658 -0.1311  0.0358
  168SOPE   C2118907   4.325   0.983   6.054  0.7918 -0.0413  0.2084
  168SOPE   O2218908   4.435   1.030   6.026  0.0790  0.4245  0.0387
  168SOPE   C2218909   4.287   0.887   6.165  0.8802 -0.1946  0.2769
  168SOPE   H2R18910   4.358   0.801   6.160  0.5400 -0.4482 -0.2035
  168SOPE   H2S18911   4.177   0.873   6.160  0.8690 -0.1804  0.4809
  168SOPE    C318912   4.242   1.245   5.950  0.2474  0.1527 -0.0749
  168SOPE    HX18913   4.251   1.323   5.872 -2.4304 -1.5314 -2.1583
  168SOPE    HY18914   4.337   1.262   6.004  0.0068 -0.9964  0.7336
  168SOPE   O3118915   4.121   1.283   6.014  0.0318  0.5959 -0.3213
  168SOPE   C3118916   4.121   1.286   6.147  0.0020  0.7987  0.3029
  168SOPE   O3218917   4.217   1.263   6.224  0.2332 -0.9922  0.6786
  168SOPE   C3218918   3.982   1.309   6.199  0.6132 -0.1018  0.5531
  168SOPE   H2X18919   3.915   1.309   6.110  1.3487  1.2503 -0.0209
  168SOPE   H2Y18920   3.967   1.413   6.237  0.8177  0.8037 -1.7262
  168SOPE   C2318921   4.323   0.952   6.304  0.1539  0.3337  0.4375
  168SOPE   H3R18922   4.272   1.050   6.309  1.1120  0.7513  2.9607
  168SOPE   H3S18923   4.432   0.974   6.306 -0.0218  1.1569  2.7819
  168SOPE   C2418924   4.276   0.872   6.429  0.2814  0.4326 -0.3545
  168SOPE   H4R18925   4.169   0.852   6.408  0.7378 -1.0678 -1.3304
  168SOPE   H4S18926   4.336   0.779   6.440  0.8023  0.4059 -3.1221
  168SOPE   C2518927   4.283   0.943   6.562  0.3406  0.6275  0.4844
  168SOPE   H5R18928   4.232   0.882   6.640 -0.8507  1.4095  0.3344
  168SOPE   H5S18929   4.386   0.941   6.604  0.2239 -2.7224  0.7925
  168SOPE   C2618930   4.214   1.080   6.572  0.5836 -0.3384  0.2580
  168SOPE   H6R18931   4.265   1.158   6.512 -0.9506 -0.1612 -0.8510
  168SOPE   H6S18932   4.119   1.073   6.515 -0.3595  0.6114  1.6688
  168SOPE   C2718933   4.182   1.132   6.709 -0.6258 -0.6692 -0.1220
  168SOPE   H7R18934   4.102   1.068   6.752  0.2717 -1.0950  0.9139
  168SOPE   H7S18935   4.274   1.112   6.767 -0.2992  1.9191  0.3096
  168SOPE   C2818936   4.140   1.275   6.715  0.5778  0.7387  1.4077
  168SOPE   H8R18937   4.068   1.296   6.633  1.3420 -0.1592  0.4989
  168SOPE   H8S18938   4.089   1.295   6.812  0.9492  2.1076  1.3359
  168SOPE   C2918939   4.248   1.376   6.702 -0.3276 -0.7413  0.2716
  168SOPE   H9118940   4.352   1.343   6.720 -0.4238 -0.8352  0.6466
  168SOPE  C21018941   4.233   1.498   6.649 -0.4566  0.1137  0.0211
  168SOPE  H10118942   4.332   1.539   6.623 -0.8271  1.5992  0.8661
  168SOPE  C21118943   4.109   1.555   6.591  0.0551 -0.0913  0.5093
  168SOPE  H11R18944   4.029   1.566   6.668  0.6072  0.5181  1.0053
  168SOPE  H11S18945   4.070   1.479   6.521 -1.6789 -0.4142  1.7752
  168SOPE  C21218946   4.127   1.693   6.530 -0.2400  0.1437  0.3656
  168SOPE  H12R18947   4.151   1.765   6.611 -0.0588 -3.2870  3.4570
  168SOPE  H12S18948   4.025   1.711   6.490  1.0369 -2.3321 -4.3544
  168SOPE  C21318949   4.226   1.709   6.415  0.5903 -0.5407  0.1346
  168SOPE  H13R18950   4.331   1.686   6.443  0.4385  0.3089  1.4357
  168SOPE  H13S18951   4.234   1.817   6.388  0.2130 -0.7753 -0.9438
  168SOPE  C21418952   4.197   1.632   6.287  0.1122 -0.0617  0.6273
  168SOPE  H14R18953   4.113   1.687   6.239  0.3436  1.3700  1.8311
  168SOPE  H14S18954   4.160   1.532   6.319  1.0237 -0.7837 -0.5059
  168SOPE  C21518955   4.315   1.611   6.191 -0.5387  0.0953 -0.4791
  168SOPE  H15R18956   4.281   1.531   6.122  0.0828  0.1784 -0.8823
  168SOPE  H15S18957   4.397   1.570   6.254 -0.5289  1.8520  0.6830
  168SOPE  C21618958   4.372   1.730   6.116  0.4551  0.2333  0.1890
  168SOPE  H16R18959   4.474   1.722   6.072  0.0121 -0.2148 -0.7733
  168SOPE  H16S18960   4.369   1.814   6.188 -3.2340  0.4529 -0.1097
  168SOPE  C21718961   4.272   1.756   6.001 -0.7662 -0.4622  0.5012
  168SOPE  H17R18962   4.294   1.858   5.962 -0.9856 -0.7153 -0.2851
  168SOPE  H17S18963   4.168   1.769   6.039 -0.2578  1.0873  1.4183
  168SOPE  C21818964   4.257   1.655   5.883  0.5990 -0.4817  0.1564
  168SOPE  H18R18965   4.222   1.557   5.922  1.5459  0.0022  2.2667
  168SOPE  H18S18966   4.353   1.635   5.831  1.5069  0.2490  1.5148
  168SOPE  H18T18967   4.177   1.694   5.815  0.4392  0.1257  0.6884
  168SOPE   C3318968   3.938   1.197   6.302 -0.1748 -0.7775 -0.2305
  168SOPE   H3X18969   3.855   1.238   6.363 -0.1907  0.8665 -1.3244
  168SOPE   H3Y18970   4.025   1.170   6.365  1.2897  0.9523 -1.4585
  168SOPE   C3418971   3.879   1.074   6.227 -0.1384  0.0474  0.2398
  168SOPE   H4X18972   3.953   1.045   6.150 -1.8427  1.1449 -1.8526
  168SOPE   H4Y18973   3.782   1.100   6.180  0.3537  1.2623 -0.1389
  168SOPE   C3518974   3.856   0.962   6.321  0.0821 -0.2022  0.2428
  168SOPE   H5X18975   3.766   0.982   6.382 -0.3129 -2.3031  0.4045
  168SOPE   H5Y18976   3.949   0.954   6.380  0.9809 -2.1884 -1.3503
  168SOPE   C3618977   3.831   0.827   6.235  0.0942 -0.0654 -0.3456
  168SOPE   H6X18978   3.925   0.812   6.179  0.9431 -0.7558  1.2432
  168SOPE   H6Y18979   3.745   0.833   6.164 -1.2223 -3.7047  0.8336
  168SOPE   C3718980   3.812   0.698   6.320  0.5323  0.9834 -0.5909
  168SOPE   H7X18981   3.803   0.605   6.260 -2.2858 -0.3324  1.7135
  168SOPE   H7Y18982   3.722   0.711   6.384 -0.1047  1.7597 -1.6297
  168SOPE   C3818983   3.923   0.676   6.424 -0.8230  0.3130  0.2992
  168SOPE   H8X18984   3.924   0.776   6.472  0.3323 -0.2646  1.5198
  168SOPE   H8Y18985   4.022   0.657   6.379 -1.1684 -1.4697  0.2775
  168SOPE   C3918986   3.902   0.578   6.536  0.6228 -0.1842 -0.6787
  168SOPE   H9X18987   3.930   0.483   6.484 -3.3681  0.3393 -4.0159
  168SOPE   H9Y18988   3.797   0.574   6.571  1.1099 -0.4487  0.7578
  168SOPE  C31018989   3.992   0.608   6.653  0.3231 -0.1575 -0.3897
  168SOPE  H10X18990   3.945   0.697   6.699  0.9479 -1.1449  2.2791
  168SOPE  H10Y18991   4.095   0.643   6.628  0.5619 -0.5037  0.0860
  168SOPE  C31118992   4.002   0.490   6.744 -0.1525 -0.5727 -0.2925
  168SOPE  H11X18993   4.027   0.399   6.684 -0.6520 -0.8534 -0.0729
  168SOPE  H11Y18994   3.899   0.478   6.783 -0.5334 -2.4744 -1.7876
  168SOPE  C31218995   4.103   0.506   6.856 -0.3693 -0.1924  0.1254
  168SOPE  H12X18996   4.099   0.603   6.911 -2.2543 -1.2590  1.9319
  168SOPE  H12Y18997   4.206   0.507   6.815 -0.2243  2.9446  0.4559
  168SOPE  C31318998   4.094   0.386   6.949 -0.2592 -0.0911 -0.3530
  168SOPE  H13X18999   4.097   0.289   6.894 -1.3653 -0.5688  0.4218
  168SOPE  H13Y19000   3.995   0.391   6.999 -0.3844  1.4164 -0.7458
  168SOPE  C31419001   4.190   0.384   7.071 -0.4419  0.0320 -0.2927
  168SOPE  H14X19002   4.183   0.480   7.127 -0.1002 -0.4079  0.5211
  168SOPE  H14Y19003   4.289   0.371   7.023  0.0197  0.9804  0.3902
  168SOPE  C31519004   4.143   0.268   7.159  0.0004  0.3470  0.1239
  168SOPE  H15X19005   4.220   0.189   7.148  0.2310  0.9160 -2.6120
  168SOPE  H15Y19006   4.058   0.211   7.115  1.0826  0.0739 -1.6608
  168SOPE  C31619007   4.120   0.295   7.312 -0.0076  0.4633  0.9042
  168SOPE  H16X19008   4.113   0.200   7.369  2.1405  0.8011  1.7671
  168SOPE  H16Y19009   4.027   0.356   7.306 -0.4976 -0.2137  1.4780
  168SOPE  C31719010   4.232   0.370   7.381  0.0751 -0.1128  0.7101
  168SOPE  H17X19011   4.191   0.426   7.468 -1.2685  0.8495 -0.5208
  168SOPE  H17Y19012   4.270   0.449   7.314  1.6345  0.2318  1.9723
  168SOPE  C31819013   4.359   0.292   7.406 -0.0958  0.3256 -1.1735
  168SOPE  H18X19014   4.440   0.359   7.441 -0.0623 -0.5162  0.4165
  168SOPE  H18Y19015   4.392   0.240   7.313  0.2735  0.5387 -1.1609
  168SOPE  H18Z19016   4.357   0.211   7.483  1.1284  0.3220 -1.1299
  169SOPE     N19017   0.849   3.481   5.589 -0.0427  0.1257  0.5713
  169SOPE   HN119018   0.851   3.514   5.491  2.3636  2.1781  1.2673
  169SOPE   HN219019   0.776   3.408   5.599 -1.4464  1.5165  0.6352
  169SOPE   HN319020   0.837   3.561   5.654  2.4760  1.1899 -0.2189
  169SOPE   C1219021   0.981   3.411   5.632  0.0004  0.2913  0.5115
  169SOPE  H12A19022   1.061   3.487   5.641  1.3354 -0.7305 -2.1649
  169SOPE  H12B19023   1.008   3.343   5.548  1.9063  0.2680  1.1195
  169SOPE   C1119024   0.964   3.345   5.770 -0.3223 -0.2039  0.9285
  169SOPE  H11A19025   0.923   3.423   5.838 -1.9097  0.0196 -0.2516
  169SOPE  H11B19026   1.060   3.305   5.809 -0.9171 -1.6080  0.9743
  169SOPE     P19027   0.910   3.093   5.736  0.1915  0.0215 -0.1690
  169SOPE   O1319028   1.050   3.080   5.684 -0.6539  0.3325  0.2612
  169SOPE   O1419029   0.810   3.028   5.652  0.1600 -0.0812 -0.3754
  169SOPE   O1219030   0.872   3.246   5.754  0.6978  0.2638 -0.4495
  169SOPE   O1119031   0.920   3.038   5.884  0.0392 -0.0311 -0.5187
  169SOPE    C119032   0.978   3.094   6.004 -0.5492 -0.1964 -0.0358
  169SOPE    HA19033   1.023   3.194   5.986  0.0708 -0.5998 -0.7781
  169SOPE    HB19034   1.063   3.027   6.025  1.6206  2.2904 -0.6485
  169SOPE    C219035   0.876   3.105   6.117 -0.4513  0.5262  0.5219
  169SOPE    HS19036   0.944   3.140   6.198 -0.6385  0.9592  0.4885
  169SOPE   O2119037   0.821   2.979   6.146  0.5947  0.3175  0.6400
  169SOPE   C2119038   0.799   2.949   6.275 -0.5673  0.1802  0.2260
  169SOPE   O2219039   0.812   3.022   6.368 -0.3526 -0.0059 -0.0579
  169SOPE   C2219040   0.774   2.795   6.287 -0.3401  0.0005 -0.1718
  169SOPE   H2R19041   0.810   2.753   6.190 -2.0364  0.0377 -0.8335
  169SOPE   H2S19042   0.666   2.773   6.299 -0.4017 -0.0483 -0.8184
  169SOPE    C319043   0.771   3.210   6.085  0.5177 -0.8581  0.4668
  169SOPE    HX19044   0.711   3.161   6.006 -1.4678 -1.4598  2.2943
  169SOPE    HY19045   0.809   3.307   6.047 -0.2780  0.2816  2.5221
  169SOPE   O3119046   0.692   3.240   6.199 -0.0116  0.0550  0.1681
  169SOPE   C3119047   0.771   3.297   6.297 -0.1306 -0.4705 -0.5090
  169SOPE   O3219048   0.876   3.357   6.268  0.1258  0.3114 -0.6844
  169SOPE   C3219049   0.684   3.310   6.421 -0.0822  0.0114  0.1904
  169SOPE   H2X19050   0.714   3.225   6.486  2.4010  1.0865  0.4887
  169SOPE   H2Y19051   0.581   3.280   6.390 -0.0633 -1.0667  1.1341
  169SOPE   C2319052   0.870   2.744   6.396  0.4614  0.0097  0.2347
  169SOPE   H3R19053   0.852   2.791   6.495 -2.8483  1.1688 -0.8303
  169SOPE   H3S19054   0.967   2.784   6.358 -0.0619 -0.4478 -1.6109
  169SOPE   C2419055   0.879   2.594   6.406 -0.2936  0.0400  0.2853
  169SOPE   H4R19056   0.892   2.554   6.304 -0.7979  0.9827 -0.1614
  169SOPE   H4S19057   0.976   2.579   6.457 -0.4000  1.3373  0.9061
  169SOPE   C2519058   0.769   2.530   6.488  0.5681  0.0661 -0.1263
  169SOPE   H5R19059   0.667   2.568   6.469  1.8151  3.1248 -0.8609
  169SOPE   H5S19060   0.762   2.425   6.451  0.9574 -0.2066  0.5478
  169SOPE   C2619061   0.783   2.521   6.641 -0.4050 -0.7653 -0.3155
  169SOPE   H6R19062   0.891   2.500   6.659 -0.7705 -1.5003  1.0515
  169SOPE   H6S19063   0.742   2.615   6.683 -2.6183 -1.0510 -1.7243
  169SOPE   C2719064   0.704   2.401   6.710 -0.6235 -0.4152  0.6681
  169SOPE   H7R19065   0.595   2.408   6.690  0.3320  0.7135 -5.3159
  169SOPE   H7S19066   0.744   2.314   6.654  0.5414  1.2092 -1.1214
  169SOPE   C2819067   0.736   2.386   6.861 -0.0302 -0.1956 -1.0059
  169SOPE   H8R19068   0.735   2.278   6.887 -0.0458  0.5432  2.4099
  169SOPE   H8S19069   0.842   2.417   6.873 -0.0123 -0.3997 -0.6243
  169SOPE   C2919070   0.647   2.477   6.946 -0.5005  0.2058 -0.0277
  169SOPE   H9119071   0.618   2.573   6.900  2.0458  2.0965  2.1992
  169SOPE  C21019072   0.617   2.456   7.072 -0.6690 -0.1687 -0.3414
  169SOPE  H10119073   0.547   2.522   7.125 -0.0183  1.8377 -1.9038
  169SOPE  C21119074   0.673   2.341   7.147 -0.7656 -0.1908 -0.0793
  169SOPE  H11R19075   0.784   2.333   7.143 -0.5941 -0.5865  3.7437
  169SOPE  H11S19076   0.638   2.242   7.111  1.8200 -0.8746 -0.8487
  169SOPE  C21219077   0.630   2.339   7.291  0.2937 -0.9014 -0.2556
  169SOPE  H12R19078   0.655   2.246   7.345  1.1736 -0.1344  0.6591
  169SOPE  H12S19079   0.520   2.355   7.293  0.5384  0.6433  1.4466
  169SOPE  C21319080   0.696   2.445   7.384  0.2403  0.1044 -0.4601
  169SOPE  H13R19081   0.709   2.542   7.331 -0.1578 -0.0726 -0.8881
  169SOPE  H13S19082   0.801   2.411   7.397  0.9708  2.4814  0.2207
  169SOPE  C21419083   0.626   2.454   7.516  0.5492  0.0175  1.0418
  169SOPE  H14R19084   0.640   2.361   7.575 -2.8067 -0.7027  0.8044
  169SOPE  H14S19085   0.518   2.463   7.495  0.5543 -0.4297  0.8245
  169SOPE  C21519086   0.666   2.565   7.610 -0.3140  0.0029  0.7475
  169SOPE  H15R19087   0.595   2.563   7.695  0.0299  0.1220  1.0391
  169SOPE  H15S19088   0.649   2.649   7.540  2.0773  0.8178  1.0941
  169SOPE  C21619089   0.813   2.566   7.656  1.0499 -1.0400 -0.2317
  169SOPE  H16R19090   0.883   2.561   7.570 -0.7781 -0.4243 -1.8018
  169SOPE  H16S19091   0.819   2.474   7.718 -1.2599  0.4730  2.3826
  169SOPE  C21719092   0.852   2.684   7.743  0.2352 -0.0477  0.0878
  169SOPE  H17R19093   0.840   2.772   7.677 -0.1582 -0.4712 -0.4173
  169SOPE  H17S19094   0.959   2.665   7.767  0.4342 -0.3983 -1.0515
  169SOPE  C21819095   0.793   2.710   7.876 -0.0521 -0.2762  0.1925
  169SOPE  H18R19096   0.690   2.748   7.857  1.2467  3.1299 -0.4689
  169SOPE  H18S19097   0.850   2.790   7.927  0.3961 -0.9613  0.7787
  169SOPE  H18T19098   0.792   2.618   7.939 -2.4632 -1.9014 -2.1079
  169SOPE   C3319099   0.682   3.455   6.472 -0.4895  0.5053 -0.0173
  169SOPE   H3X19100   0.596   3.468   6.541 -1.7912  0.9907 -1.7003
  169SOPE   H3Y19101   0.660   3.524   6.388 -0.8154 -0.4969 -0.7582
  169SOPE   C3419102   0.818   3.500   6.533 -0.6083 -0.6102 -0.3388
  169SOPE   H4X19103   0.842   3.607   6.551  0.5988 -0.9763  0.3616
  169SOPE   H4Y19104   0.899   3.470   6.463 -1.5930  1.2662 -2.3153
  169SOPE   C3519105   0.844   3.418   6.663  0.0930  0.2435 -0.9692
  169SOPE   H5X19106   0.839   3.311   6.633  0.1056  0.7615 -2.8845
  169SOPE   H5Y19107   0.756   3.438   6.728  0.8967  0.6135  0.0198
  169SOPE   C3619108   0.980   3.435   6.730  0.1131  0.2859 -0.1707
  169SOPE   H6X19109   0.977   3.519   6.803 -2.7113  0.1846 -0.1061
  169SOPE   H6Y19110   1.054   3.446   6.648  0.9953 -2.2193  0.2553
  169SOPE   C3719111   1.025   3.308   6.808 -1.0003  0.3309  0.1121
  169SOPE   H7X19112   1.065   3.232   6.737  1.9067  2.2265 -0.3619
  169SOPE   H7Y19113   0.937   3.264   6.859  0.2564 -0.8409  1.3074
  169SOPE   C3819114   1.134   3.346   6.907  0.4004  0.2473  1.1059
  169SOPE   H8X19115   1.218   3.395   6.854  0.4676 -0.1038  0.8886
  169SOPE   H8Y19116   1.085   3.422   6.971 -0.8537  0.2526  0.1621
  169SOPE   C3919117   1.183   3.228   6.985  0.8355 -0.6067 -0.2134
  169SOPE   H9X19118   1.187   3.142   6.914 -0.9874  0.6935 -1.9496
  169SOPE   H9Y19119   1.096   3.211   7.053  0.2994 -0.3689 -0.8293
  169SOPE  C31019120   1.313   3.236   7.053 -0.1637  0.3573 -0.3106
  169SOPE  H10X19121   1.389   3.254   6.974 -1.0773  1.9526 -0.8672
  169SOPE  H10Y19122   1.334   3.141   7.104  2.9529  0.5844 -1.0579
  169SOPE  C31119123   1.330   3.348   7.166 -0.2287  0.6306  0.5828
  169SOPE  H11X19124   1.304   3.449   7.127 -0.9756  0.3145  0.2667
  169SOPE  H11Y19125   1.437   3.358   7.194 -0.3156 -0.1620  1.2103
  169SOPE  C31219126   1.252   3.317   7.295  0.3083  0.1653 -0.1247
  169SOPE  H12X19127   1.266   3.211   7.326 -1.1311  0.1451  0.4732
  169SOPE  H12Y19128   1.144   3.336   7.276  0.8866  2.4778 -1.2812
  169SOPE  C31319129   1.294   3.428   7.407 -1.0808 -0.0586  0.2475
  169SOPE  H13X19130   1.290   3.527   7.358 -1.5458  0.3009  1.0093
  169SOPE  H13Y19131   1.398   3.391   7.419 -1.4344 -1.4855 -0.9083
  169SOPE  C31419132   1.203   3.420   7.530  0.2506  0.6880  0.0955
  169SOPE  H14X19133   1.264   3.463   7.612  3.4692 -0.5474 -1.5728
  169SOPE  H14Y19134   1.196   3.312   7.557  2.3338 -0.1409 -2.4550
  169SOPE  C31519135   1.069   3.481   7.500  0.1453  0.6670  0.1342
  169SOPE  H15X19136   1.009   3.432   7.421  0.9928  0.4004 -0.3424
  169SOPE  H15Y19137   1.089   3.580   7.454  0.3547  0.8495  0.6131
  169SOPE  C31619138   0.974   3.506   7.622 -0.2591  0.0064 -0.5663
  169SOPE  H16X19139   0.989   3.420   7.691  0.5281  1.3681  0.9739
  169SOPE  H16Y19140   0.869   3.500   7.584 -1.0081  1.6880  1.1856
  169SOPE  C31719141   1.005   3.631   7.701 -0.1080 -0.6318 -0.6321
  169SOPE  H17X19142   1.115   3.636   7.711 -0.1020 -1.3959 -0.2586
  169SOPE  H17Y19143   0.968   3.617   7.805 -0.2626  0.1932 -0.5740
  169SOPE  C31819144   0.935   3.759   7.658 -0.0233  0.6547  0.5039
  169SOPE  H18X19145   0.829   3.770   7.689 -0.4105 -0.9171 -0.2085
  169SOPE  H18Y19146   0.934   3.771   7.548 -1.4466  0.0041  0.4309
  169SOPE  H18Z19147   0.995   3.846   7.691  1.1502 -0.4612  1.3850
  170SOPE     N19148   2.048   5.819   5.562  0.0475 -0.1481  0.1099
  170SOPE   HN119149   2.089   5.851   5.472 -2.0355  0.8666 -0.5239
  170SOPE   HN219150   2.097   5.732   5.591  1.5805  1.2919  1.9532
  170SOPE   HN319151   1.949   5.809   5.531 -0.5835  0.5143  1.8399
  170SOPE   C1219152   2.020   5.921   5.671  0.1046  0.1129  0.4838
  170SOPE  H12A19153   1.955   5.995   5.619 -1.3959  0.8533  3.2972
  170SOPE  H12B19154   2.117   5.969   5.695 -0.0757  1.3795 -1.2518
  170SOPE   C1119155   1.947   5.866   5.798 -0.0129  0.2143  0.2615
  170SOPE  H11A19156   1.897   5.949   5.852 -1.8075 -1.5343  1.3563
  170SOPE  H11B19157   2.024   5.816   5.861 -1.7298  1.0337  3.1058
  170SOPE     P19158   1.697   5.785   5.788 -0.2393 -0.1452  0.2570
  170SOPE   O1319159   1.631   5.656   5.777 -0.1699  0.3452 -0.5353
  170SOPE   O1419160   1.637   5.889   5.697 -0.0459  0.3439  0.4222
  170SOPE   O1219161   1.852   5.768   5.758  0.0640 -0.3621 -0.5080
  170SOPE   O1119162   1.684   5.829   5.940 -0.3273  0.3135  0.1509
  170SOPE    C119163   1.740   5.763   6.050 -0.6138 -0.0219 -0.8710
  170SOPE    HA19164   1.836   5.713   6.024  0.0881  0.4097  0.8120
  170SOPE    HB19165   1.668   5.693   6.097 -0.7914  1.4045  1.0721
  170SOPE    C219166   1.772   5.864   6.166  0.1559  0.2705  0.0948
  170SOPE    HS19167   1.883   5.874   6.169  0.1125  2.3068 -2.6165
  170SOPE   O2119168   1.727   5.811   6.292  0.5507 -0.0034  0.2447
  170SOPE   C2119169   1.810   5.826   6.401  0.4065  0.3479 -0.0841
  170SOPE   O2219170   1.923   5.872   6.395  0.2358  0.3380  0.5075
  170SOPE   C2219171   1.750   5.775   6.525  0.1067 -0.0970 -0.8303
  170SOPE   H2R19172   1.789   5.671   6.533 -0.3456 -0.2327 -0.3520
  170SOPE   H2S19173   1.640   5.780   6.519  0.0030  0.7435  1.1633
  170SOPE    C319174   1.725   6.005   6.141 -0.7161 -0.6046 -0.2720
  170SOPE    HX19175   1.615   6.004   6.124 -0.4780 -1.8959 -1.9304
  170SOPE    HY19176   1.767   6.061   6.055 -0.7284  2.1577  1.4770
  170SOPE   O3119177   1.738   6.090   6.257  0.1666 -0.4493  0.1499
  170SOPE   C3119178   1.864   6.143   6.278  0.0610 -0.0565 -0.4093
  170SOPE   O3219179   1.966   6.115   6.212 -0.1297 -0.3421  0.1265
  170SOPE   C3219180   1.856   6.255   6.379 -0.3902  0.1042  0.1867
  170SOPE   H2X19181   1.756   6.296   6.403 -0.3881  0.1174  0.1732
  170SOPE   H2Y19182   1.911   6.336   6.325 -1.5730  1.3136  0.7782
  170SOPE   C2319183   1.802   5.848   6.650 -1.3268 -0.0459  0.0619
  170SOPE   H3R19184   1.780   5.957   6.659  4.0931  1.4134 -2.0818
  170SOPE   H3S19185   1.913   5.850   6.659 -1.1457  0.5944 -2.0148
  170SOPE   C2419186   1.732   5.803   6.782 -0.6143  0.5075 -0.0014
  170SOPE   H4R19187   1.633   5.853   6.788 -0.0427  1.7754 -1.1218
  170SOPE   H4S19188   1.709   5.697   6.756  0.9215  0.5194 -1.4485
  170SOPE   C2519189   1.803   5.831   6.911 -0.2202 -0.1328 -0.3110
  170SOPE   H5R19190   1.857   5.928   6.914 -0.9251  0.2459  3.1546
  170SOPE   H5S19191   1.739   5.842   7.002 -0.5469  1.0759 -0.6808
  170SOPE   C2619192   1.911   5.727   6.933  0.0771 -0.3855  0.5799
  170SOPE   H6R19193   1.857   5.635   6.963  0.2456 -2.0071 -3.7143
  170SOPE   H6S19194   1.958   5.714   6.833 -0.2715 -1.6253  0.5672
  170SOPE   C2719195   2.026   5.766   7.032 -0.3227 -1.0693 -0.1876
  170SOPE   H7R19196   2.099   5.829   6.977  0.5708 -2.1788 -0.3116
  170SOPE   H7S19197   1.986   5.829   7.114  2.6549  0.1302  0.4101
  170SOPE   C2819198   2.096   5.637   7.093  0.8430 -0.4453  0.7494
  170SOPE   H8R19199   2.112   5.573   7.003  0.5011  0.9005 -0.2874
  170SOPE   H8S19200   2.194   5.674   7.129  1.7724 -1.9008 -0.2428
  170SOPE   C2919201   2.004   5.585   7.199 -0.2342  0.0826 -0.3408
  170SOPE   H9119202   1.926   5.519   7.157 -0.9454 -0.2917  1.5154
  170SOPE  C21019203   2.027   5.605   7.329 -0.6277  0.0628  0.2651
  170SOPE  H10119204   1.950   5.556   7.391  0.3924 -0.9738  0.7274
  170SOPE  C21119205   2.135   5.689   7.405  0.0917  0.4789  0.0323
  170SOPE  H11R19206   2.094   5.753   7.487 -2.3386 -1.2730  0.2379
  170SOPE  H11S19207   2.189   5.747   7.327  1.6354 -0.8057  0.1337
  170SOPE  C21219208   2.246   5.599   7.466  0.6277  0.3850 -0.1884
  170SOPE  H12R19209   2.340   5.655   7.486  0.4562 -0.5620  3.6364
  170SOPE  H12S19210   2.276   5.522   7.391 -0.2699 -0.2093  0.0582
  170SOPE  C21319211   2.194   5.534   7.591  0.0306  0.7062 -0.1517
  170SOPE  H13R19212   2.100   5.476   7.577 -0.1517  1.1895 -0.9971
  170SOPE  H13S19213   2.164   5.608   7.668 -0.4717  0.9079 -0.5337
  170SOPE  C21419214   2.286   5.423   7.627  0.6596 -0.1470  0.0887
  170SOPE  H14R19215   2.389   5.461   7.644  0.7074  0.6380 -1.8525
  170SOPE  H14S19216   2.284   5.352   7.542  2.2302 -2.0837  1.6130
  170SOPE  C21519217   2.240   5.342   7.750  0.1820 -0.0913 -0.5952
  170SOPE  H15R19218   2.295   5.245   7.751  1.0639  0.4090  1.0512
  170SOPE  H15S19219   2.130   5.344   7.739  0.4348 -0.6707 -4.0574
  170SOPE  C21619220   2.281   5.407   7.880  0.5957 -0.3441  0.1741
  170SOPE  H16R19221   2.249   5.513   7.880 -1.7412 -1.0253  0.1980
  170SOPE  H16S19222   2.392   5.398   7.871  0.3793 -1.1092 -1.8749
  170SOPE  C21719223   2.229   5.334   7.998  0.6161  0.1639  0.3621
  170SOPE  H17R19224   2.252   5.226   7.994 -0.6180 -0.0321 -2.3871
  170SOPE  H17S19225   2.120   5.348   8.013  0.6765  0.4473  0.5594
  170SOPE  C21819226   2.281   5.383   8.133  0.5321  0.9579  0.1223
  170SOPE  H18R19227   2.252   5.312   8.213  0.6995 -1.1343 -1.6329
  170SOPE  H18S19228   2.256   5.488   8.160  1.7305  1.3970 -0.4514
  170SOPE  H18T19229   2.392   5.374   8.140  0.4257 -1.5924 -0.8821
  170SOPE   C3319230   1.904   6.220   6.518 -0.2553  0.3925 -0.0102
  170SOPE   H3X19231   2.010   6.251   6.536  0.0190 -0.3156 -0.4088
  170SOPE   H3Y19232   1.902   6.109   6.521  0.9853  0.3699  0.2899
  170SOPE   C3419233   1.822   6.288   6.634 -0.1125  0.6074  0.3511
  170SOPE   H4X19234   1.717   6.259   6.613  0.9399 -1.5973 -2.1723
  170SOPE   H4Y19235   1.831   6.399   6.629  0.5696  0.4630 -1.9159
  170SOPE   C3519236   1.867   6.238   6.777  0.4050 -0.4485 -0.5312
  170SOPE   H5X19237   1.968   6.278   6.799  0.4322  0.0488 -1.5401
  170SOPE   H5Y19238   1.865   6.128   6.762  1.4801 -0.2861 -1.9370
  170SOPE   C3619239   1.776   6.294   6.885 -0.7064 -0.1712 -0.5973
  170SOPE   H6X19240   1.669   6.282   6.859 -1.0267 -0.4371  0.7959
  170SOPE   H6Y19241   1.792   6.401   6.910 -0.2718 -0.0929 -1.2039
  170SOPE   C3719242   1.778   6.212   7.014 -0.4786  0.6159 -0.8602
  170SOPE   H7X19243   1.744   6.112   6.982 -0.3815  0.0498  0.7288
  170SOPE   H7Y19244   1.704   6.252   7.087  0.1920 -1.3354  0.9492
  170SOPE   C3819245   1.915   6.175   7.073 -0.9804 -0.1153  0.0001
  170SOPE   H8X19246   1.976   6.267   7.086 -0.7497 -0.0002 -1.7521
  170SOPE   H8Y19247   1.968   6.108   7.002  0.2597 -1.2488  1.9809
  170SOPE   C3919248   1.907   6.107   7.207 -0.4524 -0.3088  0.7909
  170SOPE   H9X19249   2.011   6.083   7.240  0.9763  0.6984 -2.7109
  170SOPE   H9Y19250   1.844   6.017   7.199  0.8655 -1.1984  0.1417
  170SOPE  C31019251   1.837   6.191   7.323  0.2526  0.3853  0.1308
  170SOPE  H10X19252   1.726   6.188   7.327  0.3243 -0.0714  2.9143
  170SOPE  H10Y19253   1.859   6.298   7.302  3.0483 -0.6598 -2.6174
  170SOPE  C31119254   1.889   6.144   7.458  0.3512 -0.2334 -0.8849
  170SOPE  H11X19255   1.853   6.214   7.536  0.9885 -2.2124  1.2402
  170SOPE  H11Y19256   2.000   6.154   7.461  0.4607 -1.6194 -0.0745
  170SOPE  C31219257   1.848   5.996   7.496  0.2932  0.3362 -0.1855
  170SOPE  H12X19258   1.894   5.929   7.419 -0.1875  0.1671 -0.3326
  170SOPE  H12Y19259   1.738   5.982   7.489 -0.2348  2.3529  3.2797
  170SOPE  C31319260   1.888   5.960   7.639  0.9853 -0.3992 -0.4358
  170SOPE  H13X19261   1.821   6.018   7.706  0.1092 -0.2600 -1.4144
  170SOPE  H13Y19262   1.984   6.000   7.677  0.3218 -0.7651  1.6856
  170SOPE  C31419263   1.869   5.808   7.669  0.2314  0.1461 -0.5391
  170SOPE  H14X19264   1.921   5.736   7.601 -1.6394  0.8808 -2.8294
  170SOPE  H14Y19265   1.761   5.780   7.672  0.3687 -0.4641 -1.0015
  170SOPE  C31519266   1.904   5.768   7.812  0.2823  0.0743  0.0668
  170SOPE  H15X19267   1.861   5.833   7.891  2.6359  2.2704 -0.3978
  170SOPE  H15Y19268   2.011   5.795   7.816  1.0194 -2.3597 -1.9322
  170SOPE  C31619269   1.871   5.626   7.830 -0.2766 -0.3866 -0.4437
  170SOPE  H16X19270   1.904   5.573   7.738 -1.1891 -0.7385 -0.5741
  170SOPE  H16Y19271   1.762   5.606   7.840 -0.2430 -0.6018 -0.5098
  170SOPE  C31719272   1.932   5.564   7.958  0.3455  0.2339 -0.3592
  170SOPE  H17X19273   2.042   5.585   7.960 -0.1049  2.8815 -0.8502
  170SOPE  H17Y19274   1.914   5.455   7.960  2.3654 -0.1355 -0.7040
  170SOPE  C31819275   1.866   5.632   8.078  0.1292  0.0263  0.4008
  170SOPE  H18X19276   1.872   5.743   8.067 -0.3640 -0.2019 -2.6283
  170SOPE  H18Y19277   1.910   5.598   8.174 -1.3371 -1.7310  0.4848
  170SOPE  H18Z19278   1.759   5.602   8.083  0.8937 -3.2176 -1.1724
  171SOPE     N19279   6.702   5.023   5.374 -0.9021  0.1300 -0.3144
  171SOPE   HN119280   6.649   4.935   5.358 -0.5210  0.1389 -1.6736
  171SOPE   HN219281   6.672   5.096   5.307 -1.3108 -1.1213 -1.5217
  171SOPE   HN319282   6.802   4.995   5.359 -1.2072  0.5301 -3.4050
  171SOPE   C1219283   6.666   5.059   5.514 -0.2069 -0.0304 -0.0378
  171SOPE  H12A19284   6.558   5.049   5.538  0.0265 -1.7924  0.3961
  171SOPE  H12B19285   6.692   5.166   5.531 -1.2636  0.2675 -0.2799
  171SOPE   C1119286   6.749   4.969   5.613 -0.1974 -0.5437  0.4884
  171SOPE  H11A19287   6.722   5.025   5.705 -0.7256  1.4110 -0.8283
  171SOPE  H11B19288   6.857   4.982   5.590 -0.5027  2.3199  0.5505
  171SOPE     P19289   6.619   4.750   5.680  0.1187 -0.3562 -0.3984
  171SOPE   O1319290   6.674   4.614   5.691 -0.6643  0.5128 -0.0572
  171SOPE   O1419291   6.480   4.759   5.629 -0.4404 -0.2258 -0.3284
  171SOPE   O1219292   6.710   4.830   5.598  0.2072 -0.1587  0.0116
  171SOPE   O1119293   6.630   4.829   5.820 -0.0338  0.2734 -0.2299
  171SOPE    C119294   6.746   4.808   5.906  0.0258  0.7891  0.3455
  171SOPE    HA19295   6.835   4.837   5.846  0.9026 -1.3295  0.5808
  171SOPE    HB19296   6.749   4.701   5.936  0.4791  0.9723  0.9517
  171SOPE    C219297   6.744   4.900   6.033 -0.2703 -0.0179  0.1766
  171SOPE    HS19298   6.827   4.861   6.097 -0.9991 -1.4593  0.2725
  171SOPE   O2119299   6.620   4.897   6.100 -0.0941 -0.0962 -0.0273
  171SOPE   C2119300   6.569   4.781   6.134  0.5962 -0.1881 -0.5119
  171SOPE   O2219301   6.621   4.671   6.116  0.1152  0.2897  0.0990
  171SOPE   C2219302   6.445   4.804   6.216  0.2346 -0.3494  0.8591
  171SOPE   H2R19303   6.353   4.774   6.162  1.1048  1.2243 -1.6145
  171SOPE   H2S19304   6.435   4.914   6.228 -3.5346 -0.4342 -0.8565
  171SOPE    C319305   6.780   5.051   6.008  0.1571  0.7676 -0.3554
  171SOPE    HX19306   6.706   5.085   5.932  1.1001  1.0819 -1.1407
  171SOPE    HY19307   6.877   5.056   5.954  0.4569  0.0852  0.1123
  171SOPE   O3119308   6.776   5.130   6.128  0.4945 -0.3581 -0.6546
  171SOPE   C3119309   6.884   5.126   6.204 -0.6523  0.3057 -0.0450
  171SOPE   O3219310   6.993   5.082   6.178 -0.2024 -0.2158  0.1480
  171SOPE   C3219311   6.859   5.191   6.346 -0.1433  0.0822  0.2536
  171SOPE   H2X19312   6.753   5.225   6.345 -0.0097  0.4991  0.3068
  171SOPE   H2Y19313   6.929   5.277   6.345 -0.8160  0.6448 -1.2277
  171SOPE   C2319314   6.454   4.740   6.364 -0.6488  0.1600  0.2498
  171SOPE   H3R19315   6.481   4.633   6.347 -0.4672  0.0427  1.2432
  171SOPE   H3S19316   6.353   4.731   6.409 -0.2174  0.3195  1.2673
  171SOPE   C2419317   6.564   4.810   6.444 -0.8299 -0.2467 -0.2621
  171SOPE   H4R19318   6.663   4.787   6.399 -0.5705 -0.3983  0.3776
  171SOPE   H4S19319   6.557   4.920   6.430  2.5027 -0.2340 -2.4774
  171SOPE   C2519320   6.560   4.758   6.583 -0.0499 -0.0993 -0.7755
  171SOPE   H5R19321   6.593   4.652   6.577  1.2333  0.3520 -2.0657
  171SOPE   H5S19322   6.646   4.810   6.630  0.8662 -0.5658 -1.9004
  171SOPE   C2619323   6.430   4.771   6.657 -0.1595 -0.9362 -0.0485
  171SOPE   H6R19324   6.375   4.867   6.646  2.4768  0.7942  1.3786
  171SOPE   H6S19325   6.361   4.694   6.616 -1.0356  0.3058 -0.9211
  171SOPE   C2719326   6.450   4.752   6.810 -0.9202 -0.7240  0.9593
  171SOPE   H7R19327   6.468   4.646   6.839 -3.6879 -1.3897  0.3807
  171SOPE   H7S19328   6.549   4.799   6.832 -0.3373 -1.3551 -0.2610
  171SOPE   C2819329   6.321   4.798   6.889 -1.0702 -0.0393 -0.4504
  171SOPE   H8R19330   6.358   4.796   6.993  1.5060  0.4829 -1.3156
  171SOPE   H8S19331   6.309   4.902   6.853 -0.3181  0.8964  1.9491
  171SOPE   C2919332   6.198   4.709   6.873  0.1510  0.7662 -0.3601
  171SOPE   H9119333   6.147   4.709   6.775  2.5648 -2.0842 -1.7118
  171SOPE  C21019334   6.138   4.627   6.963  0.2979  0.1270  0.2690
  171SOPE  H10119335   6.043   4.575   6.941  1.0158 -0.9345 -0.3236
  171SOPE  C21119336   6.177   4.590   7.103  0.3178 -0.5315  0.0776
  171SOPE  H11R19337   6.085   4.563   7.160  0.0296  1.4883  0.6416
  171SOPE  H11S19338   6.205   4.687   7.149  1.1931 -0.0859 -1.3682
  171SOPE  C21219339   6.289   4.491   7.114 -0.5968 -0.0020  0.2206
  171SOPE  H12R19340   6.374   4.532   7.054 -0.8392  0.2563  0.0544
  171SOPE  H12S19341   6.253   4.397   7.068 -1.8946  1.1928 -1.2572
  171SOPE  C21319342   6.337   4.461   7.261 -0.0955 -0.0364  0.2012
  171SOPE  H13R19343   6.345   4.558   7.315 -2.4401 -0.1173  0.7463
  171SOPE  H13S19344   6.440   4.419   7.266  0.1280  0.6330  1.5700
  171SOPE  C21419345   6.225   4.393   7.350 -0.0126  0.0121  0.6770
  171SOPE  H14R19346   6.229   4.283   7.342 -3.1096 -0.0569 -0.4846
  171SOPE  H14S19347   6.121   4.428   7.332 -0.3252 -1.9247 -1.5306
  171SOPE  C21519348   6.247   4.437   7.498  0.1725 -0.4678  0.1037
  171SOPE  H15R19349   6.166   4.386   7.555 -0.1706  0.5488  0.5588
  171SOPE  H15S19350   6.215   4.544   7.507  0.7692 -0.4214  1.9753
  171SOPE  C21619351   6.385   4.413   7.560 -0.3446 -0.2387  0.1799
  171SOPE  H16R19352   6.457   4.448   7.483  2.0143 -3.6429  0.7410
  171SOPE  H16S19353   6.399   4.305   7.580 -0.1201 -0.2605 -0.0975
  171SOPE  C21719354   6.414   4.494   7.686  0.1802 -0.1599  0.4402
  171SOPE  H17R19355   6.325   4.498   7.752 -0.0415  1.5721  0.0824
  171SOPE  H17S19356   6.432   4.599   7.652 -0.8397  0.6150  2.2255
  171SOPE  C21819357   6.540   4.436   7.760 -0.2556 -0.2015 -0.4889
  171SOPE  H18R19358   6.637   4.445   7.706  0.4948 -1.7565  0.5568
  171SOPE  H18S19359   6.528   4.326   7.765 -2.3699 -0.0044 -0.9798
  171SOPE  H18T19360   6.551   4.478   7.863 -0.3815  0.2228 -0.6481
  171SOPE   C3319361   6.910   5.100   6.462  0.3232 -0.0228 -0.0587
  171SOPE   H3X19362   7.011   5.061   6.440  0.8930  1.4741 -0.1780
  171SOPE   H3Y19363   6.848   5.008   6.464 -0.2834  0.3478 -1.1697
  171SOPE   C3419364   6.910   5.172   6.594 -0.0185  0.2541 -0.3832
  171SOPE   H4X19365   6.818   5.189   6.653 -1.0560 -0.4627 -1.7625
  171SOPE   H4Y19366   6.943   5.276   6.571 -1.4679  0.1661 -3.1194
  171SOPE   C3519367   7.006   5.106   6.691  0.1147  0.2545  0.5331
  171SOPE   H5X19368   7.108   5.104   6.647  0.7759  2.2909  1.9487
  171SOPE   H5Y19369   6.978   5.000   6.713  1.8333 -0.4939 -0.7269
  171SOPE   C3619370   7.016   5.164   6.827  0.3521  0.4588 -0.6880
  171SOPE   H6X19371   6.911   5.180   6.858  0.5924  1.5902 -0.4243
  171SOPE   H6Y19372   7.068   5.261   6.807 -1.3332  1.4249 -0.4346
  171SOPE   C3719373   7.120   5.097   6.929 -0.5472  1.1002  0.6602
  171SOPE   H7X19374   7.199   5.057   6.862 -0.4567  2.3110  0.0421
  171SOPE   H7Y19375   7.083   5.002   6.975  0.5567  0.0336 -0.6057
  171SOPE   C3819376   7.174   5.194   7.029 -0.1310 -0.3965 -0.2718
  171SOPE   H8X19377   7.210   5.282   6.971 -1.9194  0.9371  0.5954
  171SOPE   H8Y19378   7.267   5.159   7.076 -1.1988 -1.0814  1.3624
  171SOPE   C3919379   7.071   5.238   7.130  0.1296 -0.0784 -0.2998
  171SOPE   H9X19380   7.061   5.164   7.213  2.1357  0.8862  0.8455
  171SOPE   H9Y19381   6.973   5.275   7.093 -0.1788 -1.9253 -1.3967
  171SOPE  C31019382   7.122   5.367   7.189  0.0797  0.4248 -0.3883
  171SOPE  H10X19383   7.044   5.433   7.233 -0.8222  0.1539 -1.5785
  171SOPE  H10Y19384   7.165   5.419   7.101  3.4528 -2.0627 -0.2975
  171SOPE  C31119385   7.232   5.350   7.295 -0.1476  0.0354  0.2378
  171SOPE  H11X19386   7.270   5.451   7.323  1.3284 -0.2874 -0.5955
  171SOPE  H11Y19387   7.315   5.298   7.243 -1.4882 -0.7589 -1.1237
  171SOPE  C31219388   7.201   5.284   7.431 -0.6491 -0.5277 -0.4150
  171SOPE  H12X19389   7.300   5.263   7.477  0.6953  0.8476 -2.6006
  171SOPE  H12Y19390   7.144   5.191   7.409 -0.1202 -1.1395  0.7568
  171SOPE  C31319391   7.121   5.381   7.522 -0.0642  0.7180 -0.0210
  171SOPE  H13X19392   7.052   5.448   7.465  0.2165  1.3371  0.3761
  171SOPE  H13Y19393   7.195   5.446   7.572  0.7635 -0.4545  0.3002
  171SOPE  C31419394   7.033   5.298   7.626  0.0923 -0.0574  0.0193
  171SOPE  H14X19395   6.946   5.264   7.565 -2.1924  0.9869  2.5789
  171SOPE  H14Y19396   6.985   5.367   7.699  0.7439 -1.3861  1.7349
  171SOPE  C31519397   7.091   5.179   7.702  0.2873 -0.0742  0.3875
  171SOPE  H15X19398   7.118   5.101   7.627 -1.1674  1.2189 -1.5549
  171SOPE  H15Y19399   7.006   5.140   7.762  1.4182 -1.3529  1.1537
  171SOPE  C31619400   7.207   5.217   7.788 -0.5693  0.0251 -0.3891
  171SOPE  H16X19401   7.298   5.244   7.730 -2.0708  0.3199 -2.6756
  171SOPE  H16Y19402   7.247   5.128   7.840 -1.4868  0.0167  0.3033
  171SOPE  C31719403   7.187   5.323   7.896 -0.0083  0.3066  0.2554
  171SOPE  H17X19404   7.165   5.420   7.845 -1.0179  1.1021  2.1677
  171SOPE  H17Y19405   7.282   5.335   7.953  1.0020 -2.6534 -0.6986
  171SOPE  C31819406   7.083   5.288   8.000 -0.1653  1.0959  0.0779
  171SOPE  H18X19407   7.111   5.192   8.049 -2.4227 -0.6645 -1.9272
  171SOPE  H18Y19408   6.982   5.271   7.956  0.2531  0.4884 -0.6562
  171SOPE  H18Z19409   7.084   5.374   8.070 -0.6799  1.6951 -0.6472
  172SOPE     N19410   1.522   6.793   5.615  0.2894 -0.1285  0.4562
  172SOPE   HN119411   1.572   6.758   5.531  2.0501 -2.3292  2.3417
  172SOPE   HN219412   1.501   6.708   5.672  0.2464 -0.2410  0.2718
  172SOPE   HN319413   1.431   6.838   5.595  1.5244  3.6214  2.6741
  172SOPE   C1219414   1.598   6.897   5.693  0.1677  0.4067 -0.0936
  172SOPE  H12A19415   1.529   6.908   5.779 -1.3143 -0.0878 -1.1964
  172SOPE  H12B19416   1.603   6.995   5.641  0.0736  0.6299  0.3164
  172SOPE   C1119417   1.736   6.849   5.735 -0.1141  0.9533  0.2187
  172SOPE  H11A19418   1.793   6.848   5.640  1.8061 -0.1638  1.3532
  172SOPE  H11B19419   1.739   6.747   5.778 -2.0250  0.7695 -0.0432
  172SOPE     P19420   1.848   7.080   5.797 -0.0669 -0.3700  0.0651
  172SOPE   O1319421   1.906   7.073   5.661 -0.3594  0.1689 -0.0068
  172SOPE   O1419422   1.934   7.125   5.903 -0.0011 -0.1369 -0.0038
  172SOPE   O1219423   1.798   6.935   5.831  0.6588 -0.2753  0.6795
  172SOPE   O1119424   1.714   7.170   5.795  0.2443 -0.4301  0.0261
  172SOPE    C119425   1.621   7.144   5.901 -0.1439  0.2248 -1.4638
  172SOPE    HA19426   1.665   7.104   5.995  2.3434  0.6888 -2.3906
  172SOPE    HB19427   1.540   7.077   5.866 -1.5165  0.4596  1.1402
  172SOPE    C219428   1.544   7.281   5.920  0.0285  0.5468  0.4172
  172SOPE    HS19429   1.508   7.307   5.818  1.8182 -0.8912 -0.6055
  172SOPE   O2119430   1.621   7.389   5.976  0.4588 -0.1635  0.2450
  172SOPE   C2119431   1.555   7.505   5.978 -0.1407  0.4587 -0.5277
  172SOPE   O2219432   1.442   7.521   5.937 -0.0780 -0.1884  0.3017
  172SOPE   C2219433   1.636   7.602   6.061  0.2405  0.5514  0.9166
  172SOPE   H2R19434   1.598   7.705   6.046  1.8290  1.0721  0.3863
  172SOPE   H2S19435   1.741   7.601   6.027  0.0417  3.0874  0.1642
  172SOPE    C319436   1.417   7.260   6.008  0.1794 -0.1978 -0.3138
  172SOPE    HX19437   1.368   7.167   5.971 -0.4750  0.1798 -0.4065
  172SOPE    HY19438   1.336   7.334   5.992  1.4458  1.0485 -0.9946
  172SOPE   O3119439   1.436   7.256   6.152  0.0403 -0.2134  0.2016
  172SOPE   C3119440   1.362   7.172   6.221 -0.6991  0.1258  0.4051
  172SOPE   O3219441   1.287   7.093   6.173  0.1265 -0.5436 -0.1686
  172SOPE   C3219442   1.410   7.189   6.364  0.2534 -1.3452 -0.6339
  172SOPE   H2X19443   1.411   7.296   6.395 -3.2280 -1.9234  1.8176
  172SOPE   H2Y19444   1.517   7.161   6.366  0.6600 -0.1527 -3.1950
  172SOPE   C2319445   1.616   7.591   6.209  0.3827 -0.8479 -0.0909
  172SOPE   H3R19446   1.507   7.588   6.228  0.2726 -3.6153 -0.9532
  172SOPE   H3S19447   1.644   7.685   6.262 -0.6987 -1.5367  1.7337
  172SOPE   C2419448   1.694   7.476   6.274  0.7917  1.0433  0.3842
  172SOPE   H4R19449   1.652   7.384   6.229  0.0732 -0.3901  3.7899
  172SOPE   H4S19450   1.803   7.487   6.253  0.8640 -0.1761  0.0708
  172SOPE   C2519451   1.666   7.470   6.418 -0.2612 -0.2778 -0.8189
  172SOPE   H5R19452   1.682   7.569   6.465 -0.7590 -0.5327 -0.1033
  172SOPE   H5S19453   1.556   7.456   6.427 -0.1285 -0.8313  0.0537
  172SOPE   C2619454   1.742   7.352   6.493  0.6711  0.1711 -0.7477
  172SOPE   H6R19455   1.681   7.306   6.573 -0.8228  1.8147 -0.9082
  172SOPE   H6S19456   1.765   7.271   6.420 -0.5465  0.2274 -1.2159
  172SOPE   C2719457   1.883   7.391   6.550  0.0955  0.4322 -0.2875
  172SOPE   H7R19458   1.930   7.296   6.581 -1.6202 -0.6390 -0.9054
  172SOPE   H7S19459   1.955   7.435   6.477  1.7730  0.1957  1.2186
  172SOPE   C2819460   1.896   7.484   6.670 -0.2756  0.7272  0.4215
  172SOPE   H8R19461   2.000   7.524   6.663  0.0727 -0.1014  0.7159
  172SOPE   H8S19462   1.835   7.576   6.660 -1.0837  0.1559  0.0022
  172SOPE   C2919463   1.870   7.434   6.808 -0.0269 -0.2258 -0.2656
  172SOPE   H9119464   1.825   7.334   6.818  0.5900 -0.6200 -1.3029
  172SOPE  C21019465   1.893   7.500   6.922 -0.3082 -0.2564  0.1499
  172SOPE  H10119466   1.865   7.461   7.021 -0.4523 -0.3299  0.0810
  172SOPE  C21119467   1.949   7.639   6.935 -0.0054  0.2674  0.4429
  172SOPE  H11R19468   1.995   7.682   6.844 -1.7626  3.3791  0.9827
  172SOPE  H11S19469   2.035   7.620   7.003 -0.5530  0.4332  1.1822
  172SOPE  C21219470   1.844   7.744   6.981  0.4564  0.4527  0.4012
  172SOPE  H12R19471   1.767   7.754   6.901  2.0876 -2.3841 -1.6166
  172SOPE  H12S19472   1.902   7.838   6.973 -1.4074  1.5008 -1.4881
  172SOPE  C21319473   1.774   7.734   7.116  0.1205 -0.2187 -0.5251
  172SOPE  H13R19474   1.815   7.652   7.178 -1.9889  1.0193  2.6071
  172SOPE  H13S19475   1.665   7.717   7.106 -0.2154  0.9627  1.0781
  172SOPE  C21419476   1.800   7.851   7.209  0.2640 -0.0294  0.7860
  172SOPE  H14R19477   1.743   7.939   7.170  0.5173  0.1469  0.8135
  172SOPE  H14S19478   1.910   7.862   7.201  0.0899  0.6374 -0.9998
  172SOPE  C21519479   1.764   7.833   7.354  0.0136 -0.3687 -0.2039
  172SOPE  H15R19480   1.806   7.737   7.390 -0.0347 -0.3714 -0.1559
  172SOPE  H15S19481   1.655   7.845   7.372 -0.1480 -2.8846  0.5833
  172SOPE  C21619482   1.834   7.942   7.438  0.1219  0.4988 -0.1341
  172SOPE  H16R19483   1.797   8.038   7.395  3.3813  1.7443 -0.3397
  172SOPE  H16S19484   1.945   7.937   7.427  0.3026  1.5572  1.1111
  172SOPE  C21719485   1.790   7.933   7.589 -0.0139 -0.6366 -0.0355
  172SOPE  H17R19486   1.832   8.020   7.644 -0.0770 -1.6684  1.6391
  172SOPE  H17S19487   1.820   7.839   7.639 -1.9016 -1.7640 -0.9514
  172SOPE  C21819488   1.636   7.959   7.608 -0.2477  0.4789  0.6266
  172SOPE  H18R19489   1.609   7.950   7.715 -0.0525  0.6496  0.6889
  172SOPE  H18S19490   1.579   7.886   7.546  0.3479  1.4418 -1.0876
  172SOPE  H18T19491   1.611   8.059   7.568 -1.6364 -0.5385 -1.1539
  172SOPE   C3319492   1.329   7.104   6.469  0.7163 -0.4038 -0.1995
  172SOPE   H3X19493   1.313   7.001   6.431 -0.6201  0.2362 -1.3991
  172SOPE   H3Y19494   1.234   7.156   6.495  1.7752  0.4803  2.0130
  172SOPE   C3419495   1.403   7.107   6.599 -0.1309 -0.8186 -0.2057
  172SOPE   H4X19496   1.405   7.216   6.622 -0.2392 -0.5773 -1.3128
  172SOPE   H4Y19497   1.500   7.060   6.569 -0.6738 -0.8729 -1.9327
  172SOPE   C3519498   1.336   7.036   6.717  0.1013  0.3562 -0.2135
  172SOPE   H5X19499   1.302   6.933   6.695  0.1128  0.4217 -0.5412
  172SOPE   H5Y19500   1.242   7.093   6.739  0.7226  1.9125 -1.4868
  172SOPE   C3619501   1.423   7.029   6.838 -0.2499 -0.3852  0.0339
  172SOPE   H6X19502   1.436   7.133   6.877 -0.0502  0.1969 -1.5368
  172SOPE   H6Y19503   1.524   6.992   6.814  0.1925  1.0987 -0.4743
  172SOPE   C3719504   1.361   6.943   6.951 -0.6333  0.3946  0.4105
  172SOPE   H7X19505   1.371   6.836   6.922 -1.6345  0.7580 -1.3221
  172SOPE   H7Y19506   1.252   6.958   6.963 -1.6640 -1.4548 -5.1253
  172SOPE   C3819507   1.444   6.949   7.082  0.6547 -0.2032 -0.3654
  172SOPE   H8X19508   1.447   7.055   7.115  0.6454 -0.4434  0.4137
  172SOPE   H8Y19509   1.544   6.908   7.060  0.7015 -0.5160  0.4233
  172SOPE   C3919510   1.385   6.854   7.184  0.1261  0.6529  0.4995
  172SOPE   H9X19511   1.394   6.754   7.136 -1.4824  0.1315  1.2454
  172SOPE   H9Y19512   1.278   6.861   7.215 -0.3535  0.4656 -1.0364
  172SOPE  C31019513   1.466   6.840   7.312 -0.9454 -0.5879  0.9697
  172SOPE  H10X19514   1.572   6.815   7.291 -0.2774  2.4157  0.6672
  172SOPE  H10Y19515   1.430   6.754   7.374 -0.9378 -1.1518  0.1976
  172SOPE  C31119516   1.453   6.962   7.397 -0.5077 -0.7513  0.2007
  172SOPE  H11X19517   1.457   7.058   7.342 -1.4835  0.0729  1.5588
  172SOPE  H11Y19518   1.541   6.965   7.465  0.2599 -0.0702 -0.8082
  172SOPE  C31219519   1.333   6.980   7.487  0.4178 -0.3005  0.1438
  172SOPE  H12X19520   1.326   6.896   7.559  0.9164 -0.5616 -0.1135
  172SOPE  H12Y19521   1.235   6.966   7.436  0.1468 -0.0984  0.6072
  172SOPE  C31319522   1.336   7.130   7.532  0.1660  0.8823 -0.5749
  172SOPE  H13X19523   1.334   7.206   7.450 -0.5817  2.2133  0.6630
  172SOPE  H13Y19524   1.432   7.144   7.587 -0.7846 -0.9355  1.5888
  172SOPE  C31419525   1.217   7.161   7.628  0.2689 -0.4157 -0.0023
  172SOPE  H14X19526   1.124   7.134   7.575  0.2689  0.7257 -0.6090
  172SOPE  H14Y19527   1.215   7.271   7.643 -0.6641 -0.7543  2.7279
  172SOPE  C31519528   1.217   7.101   7.771 -0.1167  0.1193 -0.0291
  172SOPE  H15X19529   1.323   7.114   7.800 -0.6257  1.7561  1.2061
  172SOPE  H15Y19530   1.190   6.994   7.760 -1.3145  0.4733 -0.6855
  172SOPE  C31619531   1.135   7.177   7.875 -0.3377 -0.4248  0.4370
  172SOPE  H16X19532   1.033   7.213   7.849  0.3056  2.7035  1.9054
  172SOPE  H16Y19533   1.192   7.269   7.901 -0.1635 -0.3525 -0.1907
  172SOPE  C31719534   1.122   7.081   7.991 -0.1665 -0.0808 -0.1556
  172SOPE  H17X19535   1.072   7.129   8.077  0.8855 -0.5709  0.7338
  172SOPE  H17Y19536   1.221   7.042   8.021  0.4758  0.3133 -1.7139
  172SOPE  C31819537   1.028   6.956   7.969 -0.9243  0.2159  0.7189
  172SOPE  H18X19538   1.099   6.875   7.941  1.8838  2.3102  1.5025
  172SOPE  H18Y19539   0.950   6.984   7.895 -1.1214 -1.0740  0.4297
  172SOPE  H18Z19540   0.979   6.926   8.064  1.0817  0.8398  1.9876
  173SAPI   C1219541   2.748   4.730  10.132 -0.7167  0.2251  0.5747
  173SAPI    H219542   2.786   4.786  10.045 -1.4441 -2.2933 -1.4172
  173SAPI    O219543   2.797   4.791  10.247  0.3087 -0.1827  0.2624
  173SAPI   HO219544   2.881   4.829  10.219  1.4370 -1.2717  2.0752
  173SAPI   C1319545   2.594   4.719  10.122  0.1451  0.2557  0.2338
  173SAPI    H319546   2.558   4.677  10.026 -1.5939  0.6799  0.6709
  173SAPI    O319547   2.546   4.854  10.116 -0.1770  0.0749 -0.1303
  173SAPI   HO319548   2.586   4.894  10.194 -1.0412 -1.6225  1.2409
  173SAPI   C1419549   2.546   4.645  10.247 -0.4402 -0.8209 -0.3812
  173SAPI    H419550   2.590   4.694  10.336  1.2828 -0.1809 -1.5453
  173SAPI    O419551   2.400   4.640  10.253 -0.3505  0.1338  0.2522
  173SAPI   HO419552   2.363   4.728  10.252 -0.5768  0.0743  1.6738
  173SAPI   C1519553   2.614   4.508  10.243  0.8588 -0.2792 -0.4964
  173SAPI    H519554   2.586   4.444  10.156 -0.7921 -1.0109  0.5441
  173SAPI    O519555   2.571   4.438  10.360  0.3862  0.0419 -1.0814
  173SAPI   HO519556   2.578   4.343  10.346 -2.4741 -0.3470 -0.2493
  173SAPI   C1619557   2.764   4.508  10.240 -0.2991  0.5833 -0.6018
  173SAPI    H619558   2.810   4.542  10.335 -0.0785 -1.6645  0.1350
  173SAPI    O619559   2.809   4.372  10.228 -0.0105  0.0043  0.0485
  173SAPI   HO619560   2.901   4.370  10.256  0.0014  2.1254  0.2170
  173SAPI   C1119561   2.809   4.593  10.119  0.4502 -0.3076 -0.2737
  173SAPI    H119562   2.777   4.551  10.022 -0.7943 -0.9511  0.3965
  173SAPI     P19563   3.029   4.584   9.976  0.3619  0.1018 -0.3230
  173SAPI   O1319564   3.016   4.447   9.922 -0.3517 -0.4811 -0.0777
  173SAPI   O1419565   3.169   4.630   9.998  0.0007 -0.1217  0.6596
  173SAPI   O1219566   2.954   4.601  10.123 -0.3425  0.1365 -0.1884
  173SAPI   O1119567   2.951   4.690   9.885  0.2148  0.0396 -0.1886
  173SAPI    C119568   2.880   4.646   9.769 -0.0958 -0.3640  0.4710
  173SAPI    HA19569   2.819   4.561   9.807 -0.8706  0.1056  0.3001
  173SAPI    HB19570   2.815   4.727   9.728  2.5623  0.6471 -1.8672
  173SAPI    C219571   2.966   4.607   9.645 -0.2158  0.4848 -0.4076
  173SAPI    HS19572   3.016   4.512   9.673 -0.2094 -0.2542 -2.8514
  173SAPI   O2119573   3.063   4.708   9.617 -0.5611 -0.1019 -0.3092
  173SAPI   C2119574   3.169   4.679   9.557 -0.2268  0.3512 -0.4848
  173SAPI   O2219575   3.188   4.571   9.506  0.1092 -0.4708 -0.0115
  173SAPI   C2219576   3.246   4.805   9.543  0.0172 -0.1024  0.4812
  173SAPI   H2R19577   3.233   4.867   9.635  0.7899  2.7358 -1.2495
  173SAPI   H2S19578   3.351   4.780   9.519  0.0086  1.5190 -1.3798
  173SAPI    C319579   2.878   4.573   9.521  0.6929 -0.1074 -0.3519
  173SAPI    HX19580   2.795   4.503   9.545 -0.2034  1.2775  0.6761
  173SAPI    HY19581   2.944   4.526   9.445  0.4305 -1.8210  0.4677
  173SAPI   O3119582   2.828   4.697   9.474 -0.1240  0.0821  0.1687
  173SAPI   C3119583   2.776   4.697   9.356 -0.3821 -0.0482  0.7149
  173SAPI   O3219584   2.749   4.597   9.292 -0.3991 -0.5935  0.3033
  173SAPI   C3219585   2.789   4.839   9.290  0.0681 -0.2745  0.6139
  173SAPI   H2X19586   2.848   4.825   9.197 -0.8924 -1.8318  0.2142
  173SAPI   H2Y19587   2.840   4.906   9.362 -2.5398  3.9762 -1.3484
  173SAPI   C2319588   3.195   4.907   9.438 -0.6416  0.1545 -0.6567
  173SAPI   H3R19589   3.215   5.007   9.482  1.3689  0.0875 -1.3983
  173SAPI   H3S19590   3.086   4.896   9.416 -0.4280 -0.0947 -1.6138
  173SAPI   C2419591   3.287   4.912   9.317 -0.2167  0.5999  0.6394
  173SAPI   H4R19592   3.389   4.936   9.351 -0.6555 -0.6787  2.9404
  173SAPI   H4S19593   3.264   5.001   9.253 -2.2644  0.4067  1.0644
  173SAPI   C2519594   3.284   4.788   9.241 -0.1192  0.3397  0.7955
  173SAPI   H5R19595   3.347   4.715   9.294  1.5685  0.0660 -1.5046
  173SAPI   C2619596   3.248   4.768   9.114 -0.6291  0.0230  0.0257
  173SAPI   H6R19597   3.254   4.665   9.076 -0.3008  0.9577 -2.5700
  173SAPI   C2719598   3.181   4.859   9.016  0.5938 -0.1869 -0.1359
  173SAPI   H7R19599   3.248   4.943   8.991  1.2001  0.4673  3.4089
  173SAPI   H7S19600   3.095   4.917   9.055  1.9353  1.7975 -0.0674
  173SAPI   C2819601   3.154   4.786   8.885  0.3516 -0.2980 -0.1532
  173SAPI   H8R19602   3.216   4.700   8.858 -1.7381 -2.6254  2.1973
  173SAPI   C2919603   3.047   4.812   8.806 -0.0893  0.0732 -0.3399
  173SAPI   H9R19604   3.027   4.748   8.719  1.1701 -0.8771  0.0629
  173SAPI  C21019605   2.933   4.903   8.833 -0.7454  0.0337 -0.0868
  173SAPI  H10R19606   2.971   4.994   8.884 -0.2151 -0.4463  0.3912
  173SAPI  H10S19607   2.853   4.867   8.901 -0.8116 -0.9977 -0.7022
  173SAPI  C21119608   2.853   4.948   8.716 -0.1433 -0.4470  0.0453
  173SAPI  H11R19609   2.744   4.934   8.728  0.0806 -2.3742  0.0742
  173SAPI  C21219610   2.891   4.997   8.597  0.7314  0.0560  0.2305
  173SAPI  H12R19611   2.815   5.023   8.521  0.4657  2.2439  1.2092
  173SAPI  C21319612   3.026   5.013   8.534  0.5638 -0.0217 -0.0511
  173SAPI  H13R19613   3.102   5.017   8.614  0.7108 -0.7789 -0.1480
  173SAPI  H13S19614   3.023   5.115   8.490  0.6282 -0.0427 -0.1015
  173SAPI  C21419615   3.029   4.899   8.431  0.6618  0.3773 -0.2881
  173SAPI  H14R19616   2.989   4.805   8.471  2.4940 -1.0544 -1.6898
  173SAPI  C21519617   3.084   4.908   8.311  0.4087 -0.5006 -0.0980
  173SAPI  H15R19618   3.072   4.823   8.241 -0.2119  1.1828 -2.1081
  173SAPI  C21619619   3.159   5.025   8.255  0.3895 -0.6960  0.9845
  173SAPI  H16R19620   3.239   5.051   8.328 -0.3536  0.4414  1.4161
  173SAPI  H16S19621   3.097   5.115   8.236  3.0710  1.4304  1.8959
  173SAPI  C21719622   3.226   5.008   8.113 -0.4138 -0.1447 -0.3753
  173SAPI  H17R19623   3.269   4.908   8.095 -0.9214 -0.2886 -0.8103
  173SAPI  H17S19624   3.308   5.082   8.099 -0.1454 -0.3637  0.0485
  173SAPI  C21819625   3.133   5.050   8.003 -0.5277 -0.4376  0.2584
  173SAPI  H18R19626   3.105   5.158   8.000 -0.0555 -0.2526  1.9717
  173SAPI  H18S19627   3.034   5.000   8.016 -0.8082 -0.6096 -2.2525
  173SAPI  C21919628   3.189   5.025   7.866 -0.1902  0.0588 -0.1669
  173SAPI  H19R19629   3.201   4.918   7.838 -2.2995 -0.3614  0.4693
  173SAPI  H19S19630   3.287   5.077   7.859  0.1797 -0.1170  2.8023
  173SAPI  C22019631   3.094   5.090   7.767  0.4274  0.3120  0.0906
  173SAPI  H20R19632   3.006   5.022   7.765  1.6836 -1.4114  1.7353
  173SAPI  H20S19633   3.138   5.097   7.666  0.5897  1.3676  0.2263
  173SAPI  H20T19634   3.071   5.195   7.795 -0.2900 -0.1694  1.3821
  173SAPI   C3319635   2.651   4.907   9.270 -0.6614 -0.0281 -0.3029
  173SAPI   H3X19636   2.683   5.013   9.260 -2.8839  0.8032  1.1179
  173SAPI   H3Y19637   2.602   4.902   9.369  4.1165 -1.3138  2.1214
  173SAPI   C3419638   2.574   4.851   9.149  0.8848 -0.8188  0.4389
  173SAPI   H4X19639   2.536   4.746   9.159  0.4186 -0.6665  0.2787
  173SAPI   H4Y19640   2.641   4.859   9.062 -0.1321 -0.6561 -0.3400
  173SAPI   C3519641   2.444   4.931   9.120 -0.0925  0.7697  0.2167
  173SAPI   H5X19642   2.464   5.040   9.113 -0.2471  0.9181  1.8692
  173SAPI   H5Y19643   2.378   4.926   9.210  0.8989 -0.4807  0.9023
  173SAPI   C3619644   2.367   4.885   8.996  0.5206 -0.8582  0.1325
  173SAPI   H6X19645   2.314   4.792   9.027  0.0766 -0.7741 -0.3620
  173SAPI   H6Y19646   2.429   4.852   8.910  0.2831  0.3880 -0.5311
  173SAPI   C3719647   2.258   4.981   8.954 -0.2511  0.1682 -0.1507
  173SAPI   H7X19648   2.300   5.083   8.966  0.1026  0.0243 -0.1547
  173SAPI   H7Y19649   2.174   4.962   9.024  1.1507 -1.9837  1.0052
  173SAPI   C3819650   2.197   4.970   8.817 -0.1133 -0.1783  0.2511
  173SAPI   H8X19651   2.110   5.038   8.825  0.1843  0.3025 -0.4458
  173SAPI   H8Y19652   2.159   4.867   8.798  1.2321 -0.5687 -0.3725
  173SAPI   C3919653   2.266   5.025   8.694  0.8110  0.2247  0.7401
  173SAPI   H9X19654   2.304   5.126   8.718  0.3605  0.7051 -0.5112
  173SAPI   H9Y19655   2.184   5.035   8.620 -0.2350 -3.4104  1.2873
  173SAPI  C31019656   2.380   4.934   8.648  0.6879  0.2326 -0.4203
  173SAPI  H10X19657   2.347   4.829   8.637  0.5958  0.0181  1.7966
  173SAPI  H10Y19658   2.471   4.948   8.711 -1.0523  0.2338  2.1558
  173SAPI  C31119659   2.443   4.975   8.513 -0.0026 -0.6682 -0.3026
  173SAPI  H11X19660   2.508   4.888   8.490 -0.9692 -1.4717 -0.0495
  173SAPI  H11Y19661   2.510   5.062   8.528  0.6525 -0.8910 -1.8101
  173SAPI  C31219662   2.344   4.996   8.401 -0.2739 -0.4315 -0.0323
  173SAPI  H12X19663   2.295   5.095   8.412  0.8590 -0.0468  1.5702
  173SAPI  H12Y19664   2.269   4.919   8.428  0.1389 -0.3338  1.4178
  173SAPI  C31319665   2.391   4.964   8.260  0.2651  0.0048  0.3619
  173SAPI  H13X19666   2.302   4.947   8.195 -0.3515  1.6197  0.7684
  173SAPI  H13Y19667   2.427   4.859   8.265  2.3031  0.6464 -0.4599
  173SAPI  C31419668   2.508   5.053   8.229 -0.5860 -0.4778 -0.0061
  173SAPI  H14X19669   2.590   5.039   8.303  0.1740  2.0688 -0.3385
  173SAPI  H14Y19670   2.472   5.158   8.228 -1.7546 -0.8862 -1.6208
  173SAPI  C31519671   2.557   5.033   8.082 -0.2685  0.2461 -0.7951
  173SAPI  H15X19672   2.470   4.992   8.025 -0.8332 -1.3446  1.1203
  173SAPI  H15Y19673   2.636   4.955   8.090 -1.0686 -0.4797  0.1626
  173SAPI  C31619674   2.612   5.153   8.010 -0.3377  0.5465 -0.7882
  173SAPI  H16X19675   2.691   5.206   8.067  0.9347 -0.4932 -1.5744
  173SAPI  H16Y19676   2.522   5.218   8.007 -1.3233 -0.7865 -0.5912
  173SAPI  C31719677   2.668   5.129   7.870  1.0146  0.9062  0.2878
  173SAPI  H17X19678   2.617   5.045   7.817 -0.2171  0.7817  1.6439
  173SAPI  H17Y19679   2.769   5.085   7.886  1.3469  2.3636  2.4968
  173SAPI  C31819680   2.654   5.250   7.786 -0.2710  0.3153  0.3712
  173SAPI  H18X19681   2.554   5.297   7.801  0.3964  1.5380  1.1222
  173SAPI  H18Y19682   2.676   5.228   7.680  2.1798  1.4989  0.5925
  173SAPI  H18Z19683   2.729   5.326   7.818 -0.8824  1.0314  0.1383
  174SAPI   C1219684   3.950   5.703   9.985 -0.4057 -0.2442  0.1990
  174SAPI    H219685   3.941   5.619  10.057  1.8089  0.3038  1.1478
  174SAPI    O219686   3.817   5.731   9.938  0.5684  0.5604  0.1243
  174SAPI   HO219687   3.809   5.666   9.868 -1.4145 -0.2303  1.0408
  174SAPI   C1319688   4.004   5.822  10.064  0.2485 -0.1568 -0.7406
  174SAPI    H319689   4.112   5.802  10.082  0.0681 -0.6121 -0.1759
  174SAPI    O319690   3.931   5.840  10.183 -0.5983 -0.0171 -0.7723
  174SAPI   HO319691   3.981   5.812  10.261 -1.2360  0.4278 -0.1994
  174SAPI   C1419692   4.010   5.946   9.974  0.2356 -0.2427 -0.6758
  174SAPI    H419693   3.910   5.963   9.929 -0.4722  0.5540  1.1646
  174SAPI    O419694   4.050   6.076  10.035 -0.3263  0.1068 -0.2885
  174SAPI   HO419695   3.971   6.130  10.025  1.0263  1.8037 -2.2458
  174SAPI   C1519696   4.096   5.914   9.850  0.4625 -0.5732 -0.2883
  174SAPI    H519697   4.203   5.908   9.882  0.8353  2.0848 -0.9346
  174SAPI    O519698   4.091   6.027   9.756 -0.1042 -0.4558 -0.3166
  174SAPI   HO519699   4.050   5.998   9.675 -0.7345  3.2008 -1.4221
  174SAPI   C1619700   4.060   5.792   9.776 -0.0853  0.2616 -0.4719
  174SAPI    H619701   3.956   5.802   9.738 -1.3843 -1.7289  2.3988
  174SAPI    O619702   4.150   5.764   9.668  0.1636  0.3159 -0.0530
  174SAPI   HO619703   4.122   5.678   9.636 -1.0736  0.0546  1.6503
  174SAPI   C1119704   4.047   5.673   9.875  0.3350  0.6631 -0.2333
  174SAPI    H119705   4.147   5.645   9.914  0.3548 -2.1437 -2.1722
  174SAPI     P19706   4.076   5.430   9.743 -0.3438 -0.0506 -0.1781
  174SAPI   O1319707   3.981   5.326   9.694 -0.1585  0.0475 -0.6100
  174SAPI   O1419708   4.176   5.373   9.831 -0.5835 -0.1985  0.1516
  174SAPI   O1219709   3.994   5.557   9.807  0.2619  0.2897 -0.0667
  174SAPI   O1119710   4.139   5.493   9.614  0.7923  0.1049 -0.2256
  174SAPI    C119711   4.272   5.448   9.567  0.1188 -0.6272 -0.2473
  174SAPI    HA19712   4.349   5.512   9.616 -0.3409 -0.5474  0.3853
  174SAPI    HB19713   4.297   5.342   9.589  1.1232 -0.7021 -1.7313
  174SAPI    C219714   4.283   5.475   9.418 -0.4688 -0.9513 -0.7196
  174SAPI    HS19715   4.384   5.458   9.375  0.4648  1.9078  0.2728
  174SAPI   O2119716   4.261   5.615   9.396 -0.0706  0.4020  0.0646
  174SAPI   C2119717   4.355   5.697   9.433  0.1003 -0.1213  0.8875
  174SAPI   O2219718   4.462   5.669   9.481  0.5971  0.1186 -0.4379
  174SAPI   C2219719   4.310   5.845   9.383  0.0627 -0.5787  0.1106
  174SAPI   H2R19720   4.201   5.846   9.402  0.1918 -1.4695  0.9747
  174SAPI   H2S19721   4.357   5.921   9.448  1.1238  0.7368 -2.1299
  174SAPI    C319722   4.180   5.394   9.338  0.6136 -1.0241 -0.0492
  174SAPI    HX19723   4.085   5.444   9.364  0.8420  0.2861 -1.6678
  174SAPI    HY19724   4.179   5.289   9.375 -1.3326 -0.5166  1.4134
  174SAPI   O3119725   4.207   5.407   9.199  0.2522  0.0109  0.7482
  174SAPI   C3119726   4.110   5.354   9.119 -0.2575 -0.1988 -0.2776
  174SAPI   O3219727   4.008   5.301   9.161  0.1864  0.0573  0.6294
  174SAPI   C3219728   4.143   5.379   8.974 -0.5735  0.1469 -0.1297
  174SAPI   H2X19729   4.221   5.309   8.939  0.7962  0.5486  2.0062
  174SAPI   H2Y19730   4.193   5.478   8.967  1.1942 -0.8473 -1.7436
  174SAPI   C2319731   4.346   5.878   9.233 -0.4189 -0.3063 -0.6393
  174SAPI   H3R19732   4.287   5.957   9.184  0.4142  1.2838  0.8453
  174SAPI   H3S19733   4.321   5.790   9.171  1.2346  0.0087 -1.7842
  174SAPI   C2419734   4.497   5.921   9.215 -0.1391  0.0837  0.5311
  174SAPI   H4R19735   4.553   5.870   9.296  0.2506  0.5296  0.5416
  174SAPI   H4S19736   4.505   6.029   9.241 -1.9991 -0.0279  1.7078
  174SAPI   C2519737   4.539   5.889   9.072  0.0203  0.2545 -0.7119
  174SAPI   H5R19738   4.545   5.972   9.000  0.7963  0.9546  0.1428
  174SAPI   C2619739   4.579   5.760   9.036 -0.8864 -0.5528  0.1850
  174SAPI   H6R19740   4.594   5.749   8.927 -1.6572  1.0941 -0.1109
  174SAPI   C2719741   4.595   5.635   9.126  0.2233  0.5183  0.0220
  174SAPI   H7R19742   4.556   5.663   9.226 -0.7964  0.1829 -0.2803
  174SAPI   H7S19743   4.700   5.607   9.150  0.8814  0.7755 -2.3813
  174SAPI   C2819744   4.514   5.521   9.073 -0.9520  0.4533 -0.0256
  174SAPI   H8R19745   4.422   5.495   9.127 -0.2855 -1.5369  0.1859
  174SAPI   C2919746   4.532   5.425   8.980  0.0996 -0.3148  1.0085
  174SAPI   H9R19747   4.448   5.359   8.954  2.3549 -3.2888  1.0274
  174SAPI  C21019748   4.646   5.409   8.886  0.6571 -0.0261  0.3377
  174SAPI  H10R19749   4.655   5.300   8.870  1.8430 -0.1051  1.5195
  174SAPI  H10S19750   4.734   5.441   8.945  0.7621  1.3516 -0.5277
  174SAPI  C21119751   4.637   5.485   8.752 -0.4045  0.7399  0.1646
  174SAPI  H11R19752   4.634   5.595   8.759  2.8076  0.9272 -0.7576
  174SAPI  C21219753   4.649   5.434   8.630 -0.5935  0.1022  0.3525
  174SAPI  H12R19754   4.642   5.501   8.543 -0.7401 -1.0076 -0.5059
  174SAPI  C21319755   4.666   5.288   8.604 -0.2896 -0.2774  0.6017
  174SAPI  H13R19756   4.571   5.255   8.557 -0.3094  0.3248  0.2061
  174SAPI  H13S19757   4.702   5.238   8.697  0.5692  0.6884  0.8037
  174SAPI  C21419758   4.778   5.275   8.505 -0.0065 -0.4175  0.5433
  174SAPI  H14R19759   4.879   5.303   8.539  0.3799 -0.9721 -0.1315
  174SAPI  C21519760   4.761   5.240   8.375 -0.5386  0.3419  0.1185
  174SAPI  H15R19761   4.845   5.222   8.307 -0.9741  3.8469 -1.4289
  174SAPI  C21619762   4.627   5.211   8.310  0.4392 -0.2112 -0.7698
  174SAPI  H16R19763   4.552   5.293   8.311 -1.3297 -1.8249  1.5332
  174SAPI  H16S19764   4.591   5.111   8.341  0.9508 -0.3108 -0.4853
  174SAPI  C21719765   4.672   5.177   8.163  0.0049  0.8427 -0.3566
  174SAPI  H17R19766   4.585   5.131   8.111 -1.1984 -0.0151  2.3118
  174SAPI  H17S19767   4.753   5.102   8.151 -1.5573 -0.6173 -2.1973
  174SAPI  C21819768   4.718   5.295   8.080  0.0917  0.4113  0.1065
  174SAPI  H18R19769   4.800   5.352   8.129  0.9980 -0.1319 -0.7604
  174SAPI  H18S19770   4.628   5.359   8.066  0.3228  0.6457 -0.3258
  174SAPI  C21919771   4.761   5.258   7.937  0.0332 -0.0329 -0.4791
  174SAPI  H19R19772   4.679   5.208   7.881  0.0770 -0.1484 -0.4402
  174SAPI  H19S19773   4.840   5.181   7.946 -0.6987 -0.8952 -1.2925
  174SAPI  C22019774   4.805   5.372   7.852 -0.3135  0.7672  0.1698
  174SAPI  H20R19775   4.896   5.415   7.897 -0.7472  0.9231  0.9120
  174SAPI  H20S19776   4.718   5.440   7.844 -0.2328  0.6646 -1.6871
  174SAPI  H20T19777   4.833   5.337   7.750  1.2078 -0.8153  1.0982
  174SAPI   C3319778   4.022   5.373   8.874  0.7597  0.8323  0.0154
  174SAPI   H3X19779   3.942   5.445   8.901  0.6844  0.5264  0.6098
  174SAPI   H3Y19780   3.978   5.271   8.880 -0.6067  1.4298  0.1576
  174SAPI   C3419781   4.048   5.406   8.731  0.5641 -0.4441  0.1522
  174SAPI   H4X19782   4.144   5.356   8.706  1.4887  0.5689  1.5690
  174SAPI   H4Y19783   4.064   5.516   8.729 -2.2412  0.0043  1.0368
  174SAPI   C3519784   3.929   5.388   8.635 -0.4276 -0.2382 -0.4470
  174SAPI   H5X19785   3.892   5.284   8.649 -0.0562 -0.3517 -0.3085
  174SAPI   H5Y19786   3.963   5.380   8.529 -2.2983 -0.7334 -1.0293
  174SAPI   C3619787   3.822   5.494   8.644  0.8875  0.6670  0.1480
  174SAPI   H6X19788   3.862   5.597   8.648 -0.2248  1.2192 -1.9737
  174SAPI   H6Y19789   3.760   5.481   8.736 -0.4528  2.6015 -0.4490
  174SAPI   C3719790   3.717   5.492   8.525  0.2935  0.2437  0.1166
  174SAPI   H7X19791   3.645   5.410   8.547  1.2336 -0.0660  2.0787
  174SAPI   H7Y19792   3.771   5.468   8.431 -1.4522 -1.0257 -0.5956
  174SAPI   C3819793   3.644   5.630   8.497  0.9296  0.2635  0.0957
  174SAPI   H8X19794   3.630   5.641   8.388  0.9252 -0.7643 -0.0079
  174SAPI   H8Y19795   3.713   5.713   8.524  0.5981  0.8710 -0.9133
  174SAPI   C3919796   3.508   5.641   8.566  0.3317  0.2922 -0.5195
  174SAPI   H9X19797   3.521   5.633   8.676  3.5845 -1.3998 -0.9319
  174SAPI   H9Y19798   3.442   5.557   8.535 -1.5244  2.0035 -1.2705
  174SAPI  C31019799   3.439   5.775   8.538 -0.0808  0.2329  0.2061
  174SAPI  H10X19800   3.494   5.865   8.574  0.0855  0.7507 -1.2932
  174SAPI  H10Y19801   3.343   5.773   8.596 -1.7352 -0.8332 -2.4867
  174SAPI  C31119802   3.390   5.790   8.392 -0.7875  0.4557 -0.2566
  174SAPI  H11X19803   3.302   5.725   8.375 -0.7021  0.0901  0.6238
  174SAPI  H11Y19804   3.475   5.765   8.325 -1.7200  1.2853 -1.7541
  174SAPI  C31219805   3.357   5.934   8.359  0.1972 -0.0705  0.7413
  174SAPI  H12X19806   3.451   5.990   8.378 -0.0391  0.2895  0.8454
  174SAPI  H12Y19807   3.282   5.969   8.432  0.4977 -1.2614  1.6419
  174SAPI  C31319808   3.333   5.964   8.209  0.4499  0.6609 -0.1585
  174SAPI  H13X19809   3.245   5.902   8.183  0.4327  0.4986  0.2851
  174SAPI  H13Y19810   3.422   5.940   8.147  1.8331 -0.4787  2.2373
  174SAPI  C31419811   3.281   6.103   8.192 -0.1448 -0.6585 -0.4248
  174SAPI  H14X19812   3.209   6.128   8.273  0.9998  0.9759  0.1114
  174SAPI  H14Y19813   3.236   6.126   8.093  0.8188  2.3707 -0.2067
  174SAPI  C31519814   3.387   6.219   8.207 -0.5309 -0.3741  0.3630
  174SAPI  H15X19815   3.415   6.240   8.312  0.9778 -0.5710  0.0090
  174SAPI  H15Y19816   3.331   6.310   8.176 -1.9650 -1.1262  0.6963
  174SAPI  C31619817   3.507   6.184   8.121 -0.6524 -0.3126 -0.0378
  174SAPI  H16X19818   3.475   6.152   8.020  1.3567 -3.0364  0.1342
  174SAPI  H16Y19819   3.562   6.096   8.160 -0.4775 -1.4596 -2.7994
  174SAPI  C31719820   3.609   6.298   8.110  0.2525  0.1059 -1.0491
  174SAPI  H17X19821   3.643   6.337   8.208 -1.5309 -2.4146  0.6267
  174SAPI  H17Y19822   3.564   6.382   8.053  2.6540  0.1997 -2.9130
  174SAPI  C31819823   3.736   6.251   8.039 -0.3678 -0.3718  0.0708
  174SAPI  H18X19824   3.719   6.235   7.930 -3.7058 -0.9279  0.6280
  174SAPI  H18Y19825   3.786   6.167   8.091 -0.2585 -0.0454  0.4883
  174SAPI  H18Z19826   3.817   6.326   8.040 -0.5789 -0.1400  3.3387
  175SAPI   C1219827   1.427   3.614   5.668 -0.9233  0.2381 -0.0990
  175SAPI    H219828   1.504   3.604   5.748  0.4543 -1.5174 -1.6064
  175SAPI    O219829   1.331   3.513   5.697 -0.0386 -0.0235  0.4652
  175SAPI   HO219830   1.359   3.423   5.678  1.5634  0.5593 -0.0421
  175SAPI   C1319831   1.356   3.741   5.662 -0.0875 -0.0514 -0.1901
  175SAPI    H319832   1.429   3.819   5.629  1.5043 -1.7778 -0.8018
  175SAPI    O319833   1.307   3.780   5.790  0.4008  0.2317  0.6986
  175SAPI   HO319834   1.273   3.700   5.831  0.0709 -0.2253 -0.4574
  175SAPI   C1419835   1.249   3.735   5.555  0.4089  0.4408 -0.3422
  175SAPI    H419836   1.179   3.655   5.589  0.5443  0.3679 -0.2305
  175SAPI    O419837   1.168   3.856   5.559 -0.7655  0.5715  0.3408
  175SAPI   HO419838   1.199   3.915   5.627 -0.1777 -1.3086  1.7278
  175SAPI   C1519839   1.307   3.706   5.420  0.0202  0.1670  0.1415
  175SAPI    H519840   1.366   3.788   5.374  0.4999 -0.0424  0.3770
  175SAPI    O519841   1.205   3.676   5.331  0.1509 -0.1548 -0.1220
  175SAPI   HO519842   1.249   3.622   5.265  1.1029 -2.6361  2.4749
  175SAPI   C1619843   1.396   3.579   5.433 -0.0793  0.5473 -0.0497
  175SAPI    H619844   1.327   3.497   5.465 -0.5250  1.1964  0.6581
  175SAPI    O619845   1.455   3.546   5.313 -0.5901 -0.2915  0.3201
  175SAPI   HO619846   1.512   3.470   5.326  0.9388  0.4200 -1.8757
  175SAPI   C1119847   1.499   3.584   5.542  0.4579  0.3996  0.0099
  175SAPI    H119848   1.574   3.664   5.526  1.5300 -0.1844  2.0560
  175SAPI     P19849   1.717   3.435   5.601 -0.0512  0.2208  0.1594
  175SAPI   O1319850   1.800   3.542   5.547 -0.9798 -0.3419 -0.1364
  175SAPI   O1419851   1.757   3.297   5.568  0.0105  0.5688  0.3526
  175SAPI   O1219852   1.563   3.458   5.552  0.3556 -0.1354 -0.1609
  175SAPI   O1119853   1.703   3.454   5.764  0.1635 -0.6957 -0.2069
  175SAPI    C119854   1.642   3.352   5.838 -0.0059  0.3926  0.0919
  175SAPI    HA19855   1.579   3.283   5.777  0.3913 -0.7385  0.9327
  175SAPI    HB19856   1.724   3.286   5.874 -1.8623 -2.1775 -0.2475
  175SAPI    C219857   1.565   3.400   5.964  0.3919 -0.6674 -0.5858
  175SAPI    HS19858   1.482   3.458   5.918 -0.9267  0.4553  3.0444
  175SAPI   O2119859   1.651   3.492   6.037  0.4378 -0.0869  0.4582
  175SAPI   C2119860   1.582   3.601   6.092 -0.6255 -0.7650 -0.5579
  175SAPI   O2219861   1.465   3.629   6.069 -0.1080 -0.2954  0.0686
  175SAPI   C2219862   1.681   3.677   6.184  0.0380 -0.7891  0.3135
  175SAPI   H2R19863   1.763   3.607   6.210  0.7765 -0.7793 -1.8554
  175SAPI   H2S19864   1.731   3.756   6.123  1.8287 -2.7482 -0.8418
  175SAPI    C319865   1.515   3.292   6.064 -0.0093 -0.3389  0.5307
  175SAPI    HX19866   1.593   3.267   6.139 -0.4083 -1.5938  0.5310
  175SAPI    HY19867   1.489   3.205   5.999  1.7857  0.0870 -0.8126
  175SAPI   O3119868   1.406   3.342   6.136  0.4273 -0.0014 -0.6901
  175SAPI   C3119869   1.338   3.250   6.197  0.3810  0.6434  0.2072
  175SAPI   O3219870   1.380   3.133   6.203  0.3279 -0.2067 -0.2007
  175SAPI   C3219871   1.212   3.300   6.261 -0.0614 -0.4086 -0.9556
  175SAPI   H2X19872   1.139   3.217   6.273  1.3736 -1.5269  0.1554
  175SAPI   H2Y19873   1.154   3.369   6.196  1.4414  0.5849 -1.2641
  175SAPI   C2319874   1.599   3.727   6.307 -0.1716 -0.0562  0.3104
  175SAPI   H3R19875   1.522   3.803   6.285 -0.8929 -1.4539 -2.0929
  175SAPI   H3S19876   1.679   3.763   6.376 -0.9345  0.7469  0.7926
  175SAPI   C2419877   1.529   3.607   6.381  0.2276  0.3388  0.2742
  175SAPI   H4R19878   1.602   3.523   6.395  2.9586  2.2669 -1.7734
  175SAPI   H4S19879   1.448   3.563   6.319 -0.6716 -1.8806  2.9346
  175SAPI   C2519880   1.479   3.668   6.510  0.3790 -0.2607  0.0780
  175SAPI   H5R19881   1.390   3.733   6.502  0.9287  0.3335 -1.6538
  175SAPI   C2619882   1.531   3.652   6.636 -0.0644  0.2328 -0.1438
  175SAPI   H6R19883   1.490   3.712   6.719  1.1233  0.3435  0.3821
  175SAPI   C2719884   1.650   3.575   6.678  0.0716  0.2283 -0.5859
  175SAPI   H7R19885   1.641   3.471   6.641 -1.2801  0.0611  0.1613
  175SAPI   H7S19886   1.649   3.562   6.788 -1.8872 -0.9224 -0.7154
  175SAPI   C2819887   1.780   3.637   6.633 -0.0384 -0.0264  0.4026
  175SAPI   H8R19888   1.788   3.645   6.523 -0.1688 -0.2290  0.3790
  175SAPI   C2919889   1.880   3.681   6.715  0.5272  0.0532  0.3617
  175SAPI   H9R19890   1.967   3.722   6.661  0.1256  0.3165 -0.0911
  175SAPI  C21019891   1.880   3.679   6.863 -0.2528 -0.2869  0.0466
  175SAPI  H10R19892   1.984   3.695   6.897 -0.5925  0.3692  0.7822
  175SAPI  H10S19893   1.848   3.577   6.893  0.4559 -0.6836 -0.5281
  175SAPI  C21119894   1.789   3.782   6.937 -0.0196 -0.4400 -0.3196
  175SAPI  H11R19895   1.809   3.886   6.910 -0.6066 -1.1877 -3.8287
  175SAPI  C21219896   1.706   3.751   7.042 -0.2034  0.0207 -0.1330
  175SAPI  H12R19897   1.639   3.832   7.074 -1.1560 -1.2940  1.2471
  175SAPI  C21319898   1.675   3.613   7.104 -0.6720 -0.5448  0.3186
  175SAPI  H13R19899   1.775   3.566   7.116  0.6316  2.2346  0.5566
  175SAPI  H13S19900   1.614   3.546   7.039  0.2473 -0.8437 -0.2414
  175SAPI  C21419901   1.618   3.615   7.241  0.2439  0.3001 -0.0838
  175SAPI  H14R19902   1.509   3.630   7.240  0.0046 -1.3363  0.4012
  175SAPI  C21519903   1.660   3.573   7.370  0.3535  1.0400  0.8999
  175SAPI  H15R19904   1.597   3.594   7.458  1.9849 -0.5310  2.4895
  175SAPI  C21619905   1.800   3.520   7.404  0.5073 -0.5478  0.0029
  175SAPI  H16R19906   1.862   3.540   7.314 -1.0359 -0.2366 -1.0067
  175SAPI  H16S19907   1.794   3.410   7.416 -0.3250 -0.6298 -1.1390
  175SAPI  C21719908   1.865   3.594   7.523  0.1580  0.0026 -0.7023
  175SAPI  H17R19909   1.824   3.697   7.537  0.0854  0.2644 -2.6839
  175SAPI  H17S19910   1.976   3.598   7.513  0.0067  2.7330 -1.6726
  175SAPI  C21819911   1.842   3.518   7.655  0.2433 -0.8270  0.3325
  175SAPI  H18R19912   1.893   3.420   7.652 -1.6352 -1.9526  2.9743
  175SAPI  H18S19913   1.734   3.515   7.683 -0.2435 -0.2546 -1.4480
  175SAPI  C21919914   1.904   3.599   7.774 -0.6245 -0.2570 -0.2889
  175SAPI  H19R19915   1.994   3.651   7.734  1.1291 -3.1548 -0.2625
  175SAPI  H19S19916   1.943   3.521   7.842  2.4223  1.5764  0.1429
  175SAPI  C22019917   1.812   3.697   7.855 -0.5298 -0.3666  0.4524
  175SAPI  H20R19918   1.779   3.782   7.791 -1.5124 -1.0065  0.0978
  175SAPI  H20S19919   1.867   3.736   7.943  1.0197  0.1464 -0.7280
  175SAPI  H20T19920   1.712   3.653   7.875 -1.0896  1.1926  1.1843
  175SAPI   C3319921   1.226   3.355   6.410  0.3606 -0.5679 -0.1018
  175SAPI   H3X19922   1.131   3.340   6.466  0.7242  0.3513  0.7644
  175SAPI   H3Y19923   1.239   3.465   6.408  2.9061 -0.7599  2.5677
  175SAPI   C3419924   1.331   3.284   6.496 -0.0409  0.0395 -0.2784
  175SAPI   H4X19925   1.332   3.342   6.591 -2.2555  1.8294 -1.3059
  175SAPI   H4Y19926   1.436   3.276   6.460 -0.0346  0.8278 -0.4232
  175SAPI   C3519927   1.286   3.147   6.528  0.3838 -0.4636 -0.2540
  175SAPI   H5X19928   1.257   3.084   6.441 -3.1066  0.7120 -0.0120
  175SAPI   H5Y19929   1.184   3.168   6.566  0.3605  0.6161 -0.8925
  175SAPI   C3619930   1.364   3.067   6.631  0.3699  0.0384  0.4237
  175SAPI   H6X19931   1.343   3.111   6.731  0.2608  2.0673 -0.4642
  175SAPI   H6Y19932   1.473   3.089   6.619  0.4147  0.5623  1.7561
  175SAPI   C3719933   1.322   2.918   6.633 -0.1712 -1.2243 -0.4033
  175SAPI   H7X19934   1.346   2.882   6.531  1.5534  0.8250 -0.7389
  175SAPI   H7Y19935   1.215   2.916   6.663  0.1440  0.4839  0.9127
  175SAPI   C3819936   1.406   2.829   6.732  0.9471 -0.0209 -0.8652
  175SAPI   H8X19937   1.511   2.825   6.696  1.4868 -0.5485  0.7416
  175SAPI   H8Y19938   1.370   2.724   6.725  0.2263 -0.0370  2.3771
  175SAPI   C3919939   1.409   2.885   6.873 -0.1932  0.3133 -0.5419
  175SAPI   H9X19940   1.305   2.917   6.891  1.0261  4.3626 -0.2519
  175SAPI   H9Y19941   1.464   2.981   6.879 -0.3971  0.2442  5.3947
  175SAPI  C31019942   1.458   2.782   6.975 -0.4370 -1.0003 -0.3139
  175SAPI  H10X19943   1.562   2.758   6.946 -0.2244 -0.1802 -0.2487
  175SAPI  H10Y19944   1.399   2.688   6.969  0.2421 -1.4897  0.6106
  175SAPI  C31119945   1.452   2.844   7.121 -0.9772  0.1605  0.2632
  175SAPI  H11X19946   1.480   2.757   7.184  0.8108  0.6083  0.1109
  175SAPI  H11Y19947   1.345   2.863   7.144 -1.0420 -1.5817  1.4513
  175SAPI  C31219948   1.546   2.961   7.138 -0.0552 -0.1736  0.1552
  175SAPI  H12X19949   1.508   3.029   7.059 -1.0827 -1.2954 -0.3133
  175SAPI  H12Y19950   1.651   2.933   7.112 -0.8243  0.0622 -3.3419
  175SAPI  C31319951   1.539   3.036   7.273 -0.3224  0.1309 -0.4095
  175SAPI  H13X19952   1.432   3.066   7.279 -0.1129  1.0605 -1.1626
  175SAPI  H13Y19953   1.619   3.113   7.267  0.8832 -0.9807  0.8595
  175SAPI  C31419954   1.570   2.950   7.394 -0.6092 -0.8809  0.1877
  175SAPI  H14X19955   1.676   2.917   7.387 -0.8621 -1.6140 -0.2408
  175SAPI  H14Y19956   1.511   2.856   7.390  0.6518 -1.6547 -0.7920
  175SAPI  C31519957   1.546   3.016   7.530  0.1779 -0.5394  0.1604
  175SAPI  H15X19958   1.564   2.949   7.617 -1.2963  1.3662  1.9626
  175SAPI  H15Y19959   1.443   3.057   7.536  0.4451  0.2726 -0.7117
  175SAPI  C31619960   1.632   3.138   7.557  0.1003  0.6062 -0.5435
  175SAPI  H16X19961   1.608   3.218   7.485 -0.5826 -0.2687 -1.2968
  175SAPI  H16Y19962   1.737   3.104   7.538  0.1099 -0.1023  0.6826
  175SAPI  C31719963   1.620   3.183   7.710  0.4198  0.1973 -0.2696
  175SAPI  H17X19964   1.694   3.262   7.735  0.0315  0.6548 -0.5593
  175SAPI  H17Y19965   1.644   3.100   7.780 -0.5617  0.3554  0.2634
  175SAPI  C31819966   1.479   3.240   7.743 -0.2262 -0.0972  0.0291
  175SAPI  H18X19967   1.458   3.318   7.667 -0.6426 -0.2113  0.0279
  175SAPI  H18Y19968   1.476   3.298   7.838 -0.6608 -0.1830  0.0694
  175SAPI  H18Z19969   1.397   3.166   7.732 -0.1067 -0.1043 -0.8550
  176SAPI   C1219970   1.167   1.644   5.511  0.6310 -0.3194  0.6440
  176SAPI    H219971   1.175   1.628   5.621 -0.3339 -0.8368  0.6433
  176SAPI    O219972   1.244   1.758   5.474  0.1545  0.2344 -0.1506
  176SAPI   HO219973   1.257   1.799   5.559 -0.2858 -1.2662  0.6633
  176SAPI   C1319974   1.222   1.511   5.448  0.2967  0.1678 -0.5433
  176SAPI    H319975   1.157   1.433   5.492  1.4276  0.2340  1.3220
  176SAPI    O319976   1.354   1.481   5.486  0.8880 -0.6015  0.0897
  176SAPI   HO319977   1.354   1.436   5.571 -2.8633  1.3809  1.2078
  176SAPI   C1419978   1.197   1.510   5.297  0.7381  0.2524 -0.0817
  176SAPI    H419979   1.246   1.593   5.243  1.1325 -0.7488 -1.2911
  176SAPI    O419980   1.243   1.388   5.236  0.4338  0.4126  0.1856
  176SAPI   HO419981   1.335   1.390   5.210  0.0719  2.5772 -1.0260
  176SAPI   C1519982   1.051   1.536   5.277  0.2690  0.3531  0.5879
  176SAPI    H519983   1.000   1.447   5.319 -0.2344  1.0798  1.5562
  176SAPI    O519984   1.022   1.542   5.137  0.1317 -0.0999  0.2006
  176SAPI   HO519985   1.027   1.634   5.110  1.4961 -0.2965 -0.2319
  176SAPI   C1619986   0.989   1.665   5.337  0.0609 -0.3656  0.3140
  176SAPI    H619987   1.038   1.751   5.287  1.1055  0.5749  2.9174
  176SAPI    O619988   0.842   1.681   5.310 -0.3303 -0.2584  0.5201
  176SAPI   HO619989   0.791   1.656   5.387  0.5950 -0.7737  0.9757
  176SAPI   C1119990   1.015   1.663   5.480 -0.5453  0.3751  0.6548
  176SAPI    H119991   0.964   1.570   5.512  0.0392 -0.7134 -1.4498
  176SAPI     P19992   0.907   1.774   5.688  0.0138  0.5666  0.1629
  176SAPI   O1319993   0.818   1.654   5.692 -0.9982  0.1477 -0.7990
  176SAPI   O1419994   0.842   1.903   5.710  0.3594 -0.4932  0.0891
  176SAPI   O1219995   0.962   1.789   5.536  0.1974  0.1107  0.4424
  176SAPI   O1119996   1.039   1.755   5.782  0.0493  0.2694 -0.7475
  176SAPI    C119997   1.119   1.871   5.811 -0.9515  0.1444 -0.4975
  176SAPI    HA19998   1.131   1.935   5.721  0.0357  0.6443 -0.0150
  176SAPI    HB19999   1.071   1.923   5.897  1.2116 -0.2600  1.0000
  176SAPI    C220000   1.257   1.832   5.870 -0.0982 -0.5428  0.2932
  176SAPI    HS20001   1.325   1.789   5.794 -0.9289 -2.2985  0.5181
  176SAPI   O2120002   1.238   1.762   5.991 -0.5284  0.6913 -0.4542
  176SAPI   C2120003   1.235   1.628   5.972  0.1084 -0.0347 -0.2244
  176SAPI   O2220004   1.245   1.569   5.863 -0.0031 -0.1816  0.0945
  176SAPI   C2220005   1.240   1.552   6.105  0.1140 -0.3123 -0.0259
  176SAPI   H2R20006   1.317   1.604   6.166  0.0554 -0.2421 -0.0118
  176SAPI   H2S20007   1.138   1.562   6.147  0.1862  1.0301 -0.1477
  176SAPI    C320008   1.317   1.969   5.908  0.0007  0.0195  0.3218
  176SAPI    HX20009   1.253   2.005   5.991 -2.9438 -2.5281 -0.7636
  176SAPI    HY20010   1.305   2.035   5.819 -0.1178 -0.8860 -0.3331
  176SAPI   O3120011   1.453   1.954   5.958 -0.2968  0.4691 -0.6074
  176SAPI   C3120012   1.538   2.029   5.904  0.0819  0.5671 -0.4506
  176SAPI   O3220013   1.514   2.127   5.836 -0.0162  0.3064  0.1111
  176SAPI   C3220014   1.678   1.972   5.931  0.0885  0.3030 -0.5040
  176SAPI   H2X20015   1.691   1.883   5.866  3.1389 -1.3224  2.1817
  176SAPI   H2Y20016   1.681   1.948   6.040  2.2284  0.9892 -0.3786
  176SAPI   C2320017   1.277   1.405   6.092 -0.4324 -0.2841  0.2058
  176SAPI   H3R20018   1.375   1.384   6.045 -1.5163 -2.7198 -1.0748
  176SAPI   H3S20019   1.195   1.355   6.036  0.2888  0.6515 -1.7238
  176SAPI   C2420020   1.273   1.324   6.223  0.4024  0.2357  0.5135
  176SAPI   H4R20021   1.268   1.216   6.197 -1.2594  0.9540 -2.3419
  176SAPI   H4S20022   1.180   1.349   6.277 -1.5167  0.1181 -2.6281
  176SAPI   C2520023   1.391   1.333   6.308  0.0288 -0.4950  0.2208
  176SAPI   H5R20024   1.482   1.299   6.255  0.1279  0.9636 -0.5651
  176SAPI   C2620025   1.399   1.388   6.430 -0.3994 -0.4909 -0.8108
  176SAPI   H6R20026   1.491   1.382   6.489  0.7876  1.4576 -2.3967
  176SAPI   C2720027   1.294   1.463   6.507  0.5169  0.1891 -0.3864
  176SAPI   H7R20028   1.268   1.405   6.597  0.1338  0.7248 -0.1522
  176SAPI   H7S20029   1.194   1.464   6.458 -1.4367 -0.2316  3.4319
  176SAPI   C2820030   1.341   1.599   6.544 -0.3837 -0.1211 -0.1677
  176SAPI   H8R20031   1.323   1.676   6.467  0.5002 -0.4543 -0.7098
  176SAPI   C2920032   1.399   1.629   6.665  0.0868  0.2816 -0.2548
  176SAPI   H9R20033   1.443   1.730   6.671  2.5032 -0.8239  1.7085
  176SAPI  C21020034   1.422   1.546   6.788  0.3949  0.1798  0.2420
  176SAPI  H10R20035   1.523   1.502   6.772 -1.1434 -2.4848 -2.8737
  176SAPI  H10S20036   1.351   1.462   6.803 -0.9137  0.9289 -1.5738
  176SAPI  C21120037   1.421   1.630   6.916 -0.1742 -0.6896  0.5933
  176SAPI  H11R20038   1.401   1.738   6.907  0.5131 -0.7102 -1.5226
  176SAPI  C21220039   1.461   1.581   7.037 -0.4761 -0.2011 -0.3974
  176SAPI  H12R20040   1.441   1.632   7.132 -3.3039 -0.6810 -0.6939
  176SAPI  C21320041   1.506   1.444   7.057 -0.2025  0.5445  0.3697
  176SAPI  H13R20042   1.597   1.430   6.995 -1.4955  0.2862 -1.5068
  176SAPI  H13S20043   1.423   1.372   7.041  0.5211 -0.2424  0.1402
  176SAPI  C21420044   1.572   1.424   7.189  0.4434 -0.1521 -0.0363
  176SAPI  H14R20045   1.681   1.438   7.190  0.6886 -1.9238  0.4254
  176SAPI  C21520046   1.512   1.398   7.307 -0.0346 -0.0083 -0.4513
  176SAPI  H15R20047   1.574   1.383   7.398 -1.8271  1.3529  1.0318
  176SAPI  C21620048   1.360   1.377   7.328 -0.5589  0.0080 -0.0809
  176SAPI  H16R20049   1.297   1.396   7.238 -0.1094  2.1232  0.0323
  176SAPI  H16S20050   1.324   1.444   7.409  3.0829 -1.8127  3.2076
  176SAPI  C21720051   1.313   1.235   7.358  0.1006  0.5151 -0.1836
  176SAPI  H17R20052   1.331   1.162   7.276  1.8855 -0.5154  1.0921
  176SAPI  H17S20053   1.203   1.243   7.372  0.1857 -0.0096  0.8122
  176SAPI  C21820054   1.371   1.173   7.494  0.2400  0.1010 -0.4309
  176SAPI  H18R20055   1.339   1.234   7.581  2.7774  0.6155  0.1514
  176SAPI  H18S20056   1.480   1.186   7.483  0.2633  0.1094 -0.1830
  176SAPI  C21920057   1.325   1.025   7.504  0.5714 -0.5197  0.3228
  176SAPI  H19R20058   1.379   0.958   7.433 -0.1138 -0.4762 -0.2414
  176SAPI  H19S20059   1.219   1.020   7.473  0.4682  2.2549  0.1470
  176SAPI  C22020060   1.334   0.973   7.642 -0.4498 -0.7681 -0.0565
  176SAPI  H20R20061   1.267   0.884   7.647 -2.2804  0.5758 -0.0304
  176SAPI  H20S20062   1.291   1.040   7.719  1.8452  0.2087  0.4076
  176SAPI  H20T20063   1.436   0.962   7.684 -0.5202  0.9453  0.5963
  176SAPI   C3320064   1.783   2.081   5.906  0.1927 -0.2108  0.8314
  176SAPI   H3X20065   1.759   2.177   5.956  3.7499  2.6745 -2.7191
  176SAPI   H3Y20066   1.781   2.110   5.799 -2.7830 -0.0150  0.8834
  176SAPI   C3420067   1.925   2.039   5.948 -0.0557  0.2793 -0.0966
  176SAPI   H4X20068   1.983   2.113   5.888 -0.9667  0.1118 -1.2145
  176SAPI   H4Y20069   1.942   1.938   5.907  3.2706  0.7742 -0.0272
  176SAPI   C3520070   1.959   2.040   6.091 -0.3123 -0.1932  0.1808
  176SAPI   H5X20071   2.066   2.016   6.112 -0.1551 -0.7193 -1.2000
  176SAPI   H5Y20072   1.902   1.956   6.136 -1.2261 -0.2176 -1.0077
  176SAPI   C3620073   1.918   2.165   6.170 -0.1870 -0.6509  0.3965
  176SAPI   H6X20074   1.807   2.162   6.183 -0.1144 -0.7798  1.0027
  176SAPI   H6Y20075   1.934   2.259   6.113  0.5771  0.0279  1.7131
  176SAPI   C3720076   1.982   2.156   6.304 -0.9697  0.0751  0.0816
  176SAPI   H7X20077   2.093   2.160   6.300 -0.9105  0.2015  1.7760
  176SAPI   H7Y20078   1.965   2.055   6.345 -0.2885 -0.0382  0.0778
  176SAPI   C3820079   1.932   2.275   6.394 -0.6104 -0.3017 -0.1148
  176SAPI   H8X20080   1.829   2.248   6.425 -0.8323  1.3332  0.6232
  176SAPI   H8Y20081   1.940   2.359   6.321 -0.6488  0.6295  0.9384
  176SAPI   C3920082   2.020   2.300   6.520  0.1990  0.3466 -0.4328
  176SAPI   H9X20083   1.996   2.401   6.558  1.7734  0.6853 -0.3092
  176SAPI   H9Y20084   2.124   2.306   6.481  0.3138  2.0580  0.1027
  176SAPI  C31020085   2.011   2.193   6.633  0.0608 -0.1129  0.2896
  176SAPI  H10X20086   2.079   2.224   6.715  2.4067 -0.6243 -1.3877
  176SAPI  H10Y20087   2.047   2.099   6.585  0.6172  1.2048 -1.9902
  176SAPI  C31120088   1.874   2.171   6.704 -1.1718  0.4125  0.6955
  176SAPI  H11X20089   1.893   2.071   6.749 -0.8248  0.1415 -0.0502
  176SAPI  H11Y20090   1.796   2.161   6.625  1.3431  2.4772 -2.1683
  176SAPI  C31220091   1.840   2.283   6.809  0.4908 -0.0265  0.2103
  176SAPI  H12X20092   1.872   2.377   6.758  1.3981 -0.9214 -0.9114
  176SAPI  H12Y20093   1.898   2.287   6.904  0.0296 -0.4714  0.5109
  176SAPI  C31320094   1.683   2.277   6.834 -0.5137 -0.0853 -0.1980
  176SAPI  H13X20095   1.652   2.184   6.886  0.6508 -0.5176 -0.2530
  176SAPI  H13Y20096   1.625   2.270   6.740  1.2407 -4.2607 -1.0626
  176SAPI  C31420097   1.609   2.391   6.915 -0.8702  0.2815 -0.7822
  176SAPI  H14X20098   1.502   2.373   6.895 -0.9745  1.1758 -1.0615
  176SAPI  H14Y20099   1.626   2.497   6.887  0.5452  0.1829 -0.3415
  176SAPI  C31520100   1.664   2.389   7.062 -1.4169  0.2228  0.2580
  176SAPI  H15X20101   1.769   2.426   7.058 -0.7349 -1.5212  1.2195
  176SAPI  H15Y20102   1.647   2.285   7.099  0.4868 -0.1938  0.0426
  176SAPI  C31620103   1.588   2.486   7.162 -0.3510 -0.0016 -0.5065
  176SAPI  H16X20104   1.487   2.495   7.116 -0.5658 -2.6758 -0.6346
  176SAPI  H16Y20105   1.642   2.584   7.164 -1.2427  0.5090 -1.0531
  176SAPI  C31720106   1.576   2.447   7.314  0.2592 -0.7966 -0.5927
  176SAPI  H17X20107   1.515   2.355   7.332  1.0857 -1.2397 -0.0021
  176SAPI  H17Y20108   1.545   2.535   7.374 -0.6226 -2.9958  2.3223
  176SAPI  C31820109   1.720   2.425   7.363 -0.0564  0.4097  0.6402
  176SAPI  H18X20110   1.769   2.525   7.364  2.1405 -0.6309  0.2728
  176SAPI  H18Y20111   1.783   2.362   7.297 -0.5499 -1.3567  1.8351
  176SAPI  H18Z20112   1.721   2.388   7.468 -0.5248 -2.2673 -0.2645
  177SLPC     N20113   4.786   4.985   9.908  0.6908 -1.1193 -0.0303
  177SLPC   C1320114   4.854   5.108   9.952  0.4183 -0.7030  0.2666
  177SLPC  H13A20115   4.786   5.181   9.995 -2.6629 -2.3536 -1.6302
  177SLPC  H13B20116   4.927   5.093  10.030  1.4429  0.3305 -0.4812
  177SLPC  H13C20117   4.907   5.150   9.868 -0.0028 -0.3308  0.1835
  177SLPC   C1420118   4.671   4.952   9.990  0.0211  0.1125  0.8879
  177SLPC  H14A20119   4.606   5.038   9.994 -2.6255 -1.8478  1.7537
  177SLPC  H14B20120   4.605   4.873   9.956  1.1608 -0.1684 -0.7531
  177SLPC  H14C20121   4.691   4.931  10.094  1.0901  0.8880  0.8491
  177SLPC   C1520122   4.877   4.868   9.905 -0.3231  0.0092 -0.2198
  177SLPC  H15A20123   4.908   4.862   9.802  1.4658 -0.5588  0.3365
  177SLPC  H15B20124   4.964   4.869   9.969 -0.0504 -2.0918 -0.5162
  177SLPC  H15C20125   4.827   4.773   9.921  2.6170 -1.4175  0.7526
  177SLPC   C1220126   4.738   4.997   9.765 -0.8333 -0.4664 -0.0203
  177SLPC  H12A20127   4.665   5.077   9.775  0.8365  1.1978 -0.8266
  177SLPC  H12B20128   4.681   4.912   9.732 -1.4486 -0.7414  1.7086
  177SLPC   C1120129   4.835   5.019   9.644  0.5669 -0.4015 -0.0207
  177SLPC  H11A20130   4.898   5.110   9.649 -0.0976  0.0376  0.2740
  177SLPC  H11B20131   4.768   5.026   9.556 -3.0790 -2.3858  2.4481
  177SLPC     P20132   4.906   4.789   9.524  0.2522  0.6475  0.4682
  177SLPC   O1320133   5.025   4.701   9.534 -0.2616  0.2290  0.1413
  177SLPC   O1420134   4.771   4.732   9.546 -0.1214  0.2530 -0.5786
  177SLPC   O1220135   4.923   4.904   9.627 -0.2031  0.1026  0.4521
  177SLPC   O1120136   4.902   4.871   9.387 -0.4610 -0.4475 -0.4935
  177SLPC    C120137   4.863   4.800   9.271 -0.1470 -0.0392 -0.1803
  177SLPC    HA20138   4.780   4.730   9.293  0.9621 -0.4474  2.9024
  177SLPC    HB20139   4.811   4.867   9.199  0.5043 -0.6726 -1.2733
  177SLPC    C220140   4.977   4.717   9.203 -0.0337 -0.0076 -0.6759
  177SLPC    HS20141   5.008   4.650   9.285  0.1265  0.3750 -0.4225
  177SLPC   O2120142   5.074   4.809   9.158 -0.7205 -0.1262 -0.2068
  177SLPC   C2120143   5.192   4.767   9.163 -0.4826  0.5654 -0.1751
  177SLPC   O2220144   5.238   4.678   9.228  0.0405 -0.2269  0.3537
  177SLPC   C2220145   5.282   4.873   9.104  0.0111 -0.1994 -0.6319
  177SLPC   H2R20146   5.231   4.935   9.028 -0.0035 -1.2722 -1.5074
  177SLPC   H2S20147   5.322   4.931   9.190  0.6940 -1.4007 -0.1132
  177SLPC    C320148   4.921   4.642   9.074 -0.6654 -0.7033 -0.3757
  177SLPC    HX20149   4.845   4.572   9.115  0.1884 -0.9574  0.8295
  177SLPC    HY20150   5.002   4.577   9.035 -1.6202 -0.8885 -2.0782
  177SLPC   O3120151   4.859   4.730   8.977  0.0577 -0.7017  0.1458
  177SLPC   C3120152   4.863   4.672   8.854  0.3640  0.5769 -0.8710
  177SLPC   O3220153   4.904   4.561   8.835 -0.1163  0.4644 -0.0382
  177SLPC   C3220154   4.791   4.752   8.753  0.3757 -0.2765  0.0500
  177SLPC   H2X20155   4.815   4.860   8.765  1.7096 -0.5536 -0.0316
  177SLPC   H2Y20156   4.681   4.752   8.768  0.6796 -0.7346  2.3425
  177SLPC   C2320157   5.397   4.806   9.024 -0.1837  0.4224 -0.5046
  177SLPC   H3R20158   5.343   4.742   8.951 -0.3819 -2.4065  2.0040
  177SLPC   H3S20159   5.468   4.741   9.080 -0.0275 -0.2443 -1.4573
  177SLPC   C2420160   5.480   4.911   8.952  1.0147  0.2503  0.2584
  177SLPC   H4R20161   5.520   4.972   9.036 -0.6395  1.0790  0.4613
  177SLPC   H4S20162   5.403   4.972   8.901 -0.3731 -0.8204  1.0378
  177SLPC   C2520163   5.584   4.861   8.844  0.4656 -0.3149 -0.6981
  177SLPC   H5R20164   5.533   4.788   8.777 -1.3397 -0.8128  1.1837
  177SLPC   H5S20165   5.671   4.827   8.903  1.3356  2.1599 -0.4949
  177SLPC   C2620166   5.639   4.970   8.750  0.3009  0.2836  0.4824
  177SLPC   H6R20167   5.700   5.050   8.795 -0.8737  1.7602 -0.4928
  177SLPC   H6S20168   5.554   5.028   8.708 -1.2900 -0.8529  2.0621
  177SLPC   C2720169   5.730   4.905   8.640  0.3596 -0.7709 -0.0769
  177SLPC   H7R20170   5.673   4.849   8.563  0.6256 -0.5477 -0.4354
  177SLPC   H7S20171   5.809   4.857   8.701  0.7550  1.6197  1.3679
  177SLPC   C2820172   5.791   5.014   8.547  0.1944  0.3489 -1.0800
  177SLPC   H8R20173   5.849   5.071   8.622 -3.2152  2.7809 -0.1594
  177SLPC   H8S20174   5.709   5.082   8.515 -0.2338  0.0615 -0.5987
  177SLPC   C2920175   5.879   4.961   8.437  0.1124 -0.2472 -0.1800
  177SLPC   H9R20176   5.967   4.902   8.467  1.2208  2.4586  2.0873
  177SLPC  C21020177   5.844   4.973   8.308  0.1739  1.3164  0.7821
  177SLPC  H10R20178   5.906   4.935   8.225 -1.6707 -0.0424 -0.0173
  177SLPC  C21120179   5.735   5.051   8.248 -0.0260  0.2808  0.3875
  177SLPC  H11R20180   5.695   5.006   8.154 -2.4120  2.9913  0.0306
  177SLPC  H11S20181   5.643   5.038   8.309  0.2516 -0.1241  0.7167
  177SLPC  C21220182   5.754   5.201   8.240  0.3948  0.0389  0.2599
  177SLPC  H12R20183   5.718   5.259   8.326  1.2780  1.3281 -0.2247
  177SLPC  C21320184   5.805   5.256   8.126 -0.4803  0.9289 -0.5489
  177SLPC  H13R20185   5.807   5.364   8.105 -0.5908  0.8099 -1.1852
  177SLPC  C21420186   5.841   5.178   7.998 -0.5207  0.0546 -0.9190
  177SLPC  H14R20187   5.862   5.070   8.017  0.2765  0.5238  1.0217
  177SLPC  H14S20188   5.940   5.214   7.965 -0.8884  2.3007  0.3651
  177SLPC  C21520189   5.736   5.196   7.893 -0.4487 -0.2152 -0.0225
  177SLPC  H15R20190   5.708   5.302   7.877  0.8539 -0.1397 -2.0044
  177SLPC  H15S20191   5.648   5.135   7.921 -0.4757  0.2871  0.9808
  177SLPC  C21620192   5.770   5.139   7.757 -0.5309  0.5670  0.3932
  177SLPC  H16R20193   5.691   5.182   7.692  1.4540  1.8302 -1.2734
  177SLPC  H16S20194   5.753   5.031   7.773 -1.5242  0.4681 -1.2421
  177SLPC  C21720195   5.905   5.180   7.698 -0.0624  0.0412  0.4053
  177SLPC  H17R20196   5.986   5.118   7.742 -2.4824 -1.4894  2.8536
  177SLPC  H17S20197   5.917   5.288   7.719 -0.7872 -0.5358  4.1656
  177SLPC  C21820198   5.903   5.160   7.546 -0.3621  0.3693  0.9889
  177SLPC  H18R20199   5.845   5.240   7.496  0.7246  0.0441 -0.8219
  177SLPC  H18S20200   5.859   5.062   7.520  1.7715 -0.4866  0.4785
  177SLPC  H18T20201   6.003   5.173   7.499 -1.0685  1.5843 -0.2257
  177SLPC   C3320202   4.830   4.721   8.603 -0.3396 -0.4016  0.0182
  177SLPC   H3X20203   4.802   4.618   8.574 -2.1469  0.5571 -1.7193
  177SLPC   H3Y20204   4.936   4.749   8.586 -0.1092  0.2630  2.2884
  177SLPC   C3420205   4.762   4.827   8.501 -1.1028 -0.5082 -0.4171
  177SLPC   H4X20206   4.807   4.926   8.524  0.4548 -0.6908 -2.5745
  177SLPC   H4Y20207   4.653   4.821   8.523 -0.7201 -1.1595  1.4203
  177SLPC   C3520208   4.799   4.790   8.358  0.6302 -0.2066  0.3026
  177SLPC   H5X20209   4.722   4.819   8.283  1.4989  1.8103  0.1802
  177SLPC   H5Y20210   4.806   4.680   8.340  0.7589  0.0215 -1.1076
  177SLPC   C3620211   4.933   4.852   8.310 -0.3071 -0.7562  0.6938
  177SLPC   H6X20212   5.017   4.821   8.376 -0.1774 -1.5857  0.1426
  177SLPC   H6Y20213   4.931   4.963   8.317 -2.3808 -0.8381  1.8982
  177SLPC   C3720214   4.985   4.802   8.177  0.0011 -0.3108 -0.4998
  177SLPC   H7X20215   4.997   4.693   8.195  1.8293  0.0058  0.2945
  177SLPC   H7Y20216   5.083   4.846   8.149  0.9034 -1.4742  0.7473
  177SLPC   C3820217   4.889   4.830   8.059 -1.0046  0.1683  0.6733
  177SLPC   H8X20218   4.876   4.940   8.057  0.6036  0.3680  0.8798
  177SLPC   H8Y20219   4.798   4.770   8.081  0.6260 -1.7302  2.4415
  177SLPC   C3920220   4.944   4.776   7.916 -0.3968 -0.6337 -0.4795
  177SLPC   H9X20221   4.851   4.789   7.856 -0.8040  1.5035  0.5517
  177SLPC   H9Y20222   4.983   4.673   7.929  1.8764  0.2743  0.3678
  177SLPC  C31020223   5.049   4.880   7.865 -0.5628  0.0932  0.3008
  177SLPC  H10X20224   5.129   4.880   7.942  0.3920  2.2320 -0.6386
  177SLPC  H10Y20225   5.028   4.989   7.872  0.1531  0.2414  0.2060
  177SLPC  C31120226   5.112   4.843   7.731  1.0539  0.4300 -0.7361
  177SLPC  H11X20227   5.141   4.737   7.743 -0.9670  0.0792  1.5657
  177SLPC  H11Y20228   5.199   4.911   7.718 -0.9803  3.2680 -0.2078
  177SLPC  C31220229   5.008   4.865   7.614  0.2125  0.4725  0.0716
  177SLPC  H12X20230   4.987   4.974   7.604 -1.0538  0.1167 -1.3514
  177SLPC  H12Y20231   4.911   4.813   7.626  0.9250 -0.8874  0.0437
  177SLPC  C31320232   5.073   4.825   7.476 -0.3253 -0.4127  0.0168
  177SLPC  H13X20233   5.063   4.715   7.469 -1.7189 -0.3650  0.9586
  177SLPC  H13Y20234   5.183   4.837   7.484 -0.4550  0.0647  1.1943
  177SLPC  C31420235   5.010   4.901   7.357  0.6878  0.2000  0.1290
  177SLPC  H14X20236   5.071   4.888   7.265  3.6622  0.3286  1.9970
  177SLPC  H14Y20237   5.000   5.010   7.376  0.4480  0.8631 -3.4814
  177SLPC  C31520238   4.867   4.867   7.328 -0.6586  0.3130  0.0470
  177SLPC  H15X20239   4.819   4.955   7.280 -1.1655  0.7123  1.2592
  177SLPC  H15Y20240   4.814   4.846   7.423 -0.0232  2.7455  0.9916
  177SLPC  C31620241   4.864   4.738   7.243  0.3207  0.5631  0.7425
  177SLPC  H16X20242   4.925   4.659   7.291 -2.6866 -1.9368  0.6443
  177SLPC  H16Y20243   4.904   4.751   7.141 -2.5975  2.3884 -0.2427
  177SLPC  C31720244   4.715   4.690   7.231  0.7989 -0.3380  0.0163
  177SLPC  H17X20245   4.671   4.672   7.331  2.4128 -0.1156  0.7838
  177SLPC  H17Y20246   4.732   4.589   7.187  1.7898 -0.5577  0.8724
  177SLPC  C31820247   4.627   4.772   7.142  0.4913 -0.2096 -0.2926
  177SLPC  H18X20248   4.682   4.784   7.046  1.4391  0.0633  0.2734
  177SLPC  H18Y20249   4.625   4.872   7.190  1.2983 -0.1544 -0.3556
  177SLPC  H18Z20250   4.522   4.738   7.134  0.3999  0.1014 -0.3965
  178SLPC     N20251   2.534   1.977   9.441  0.0718  0.5767  0.1262
  178SLPC   C1320252   2.572   2.078   9.540 -0.0107  0.1241 -0.3851
  178SLPC  H13A20253   2.527   2.175   9.525  0.7352  0.0911 -3.2314
  178SLPC  H13B20254   2.549   2.044   9.639 -1.3151 -0.4315 -0.8606
  178SLPC  H13C20255   2.678   2.096   9.539 -0.0060  0.1454  0.8145
  178SLPC   C1420256   2.622   1.863   9.482  0.0861 -0.2688 -0.7033
  178SLPC  H14A20257   2.606   1.778   9.418  0.8511 -1.1300  0.2251
  178SLPC  H14B20258   2.724   1.897   9.471  0.4856 -1.4849 -0.7402
  178SLPC  H14C20259   2.611   1.829   9.584  1.9259  0.3938 -0.2551
  178SLPC   C1520260   2.564   2.024   9.303  0.4266  0.2352  0.6434
  178SLPC  H15A20261   2.664   2.063   9.288 -1.2119  3.6605 -2.2278
  178SLPC  H15B20262   2.556   1.944   9.231  0.4779  1.5468 -0.8544
  178SLPC  H15C20263   2.502   2.109   9.276  2.1722  1.0540 -0.8943
  178SLPC   C1220264   2.382   1.949   9.464  0.5102  0.3991 -0.2505
  178SLPC  H12A20265   2.319   2.036   9.464 -0.1059 -0.0335 -1.2599
  178SLPC  H12B20266   2.370   1.903   9.561  0.2511  2.1169  0.5520
  178SLPC   C1120267   2.308   1.852   9.369 -0.1554  0.1783 -0.5799
  178SLPC  H11A20268   2.321   1.879   9.262  0.9684  1.3864 -0.1387
  178SLPC  H11B20269   2.197   1.864   9.372 -0.4359 -1.4727 -2.5835
  178SLPC     P20270   2.313   1.624   9.489 -0.3417 -0.0061 -0.1636
  178SLPC   O1320271   2.433   1.550   9.537 -0.2935  0.1375 -0.0024
  178SLPC   O1420272   2.236   1.702   9.590 -0.1998  0.7552 -0.4552
  178SLPC   O1220273   2.357   1.719   9.366  0.5112  0.0771  0.2076
  178SLPC   O1120274   2.227   1.522   9.408 -0.1268 -0.0586  0.1501
  178SLPC    C120275   2.227   1.496   9.269 -0.0981  0.1626  0.3179
  178SLPC    HA20276   2.128   1.445   9.265  1.2618 -2.5470 -0.4919
  178SLPC    HB20277   2.215   1.590   9.211 -1.2861 -1.8459 -2.8582
  178SLPC    C220278   2.347   1.409   9.216 -0.6574 -0.9565 -0.6022
  178SLPC    HS20279   2.440   1.468   9.226 -0.6025 -1.3470  1.5130
  178SLPC   O2120280   2.327   1.356   9.084 -0.1505 -0.9062 -0.8575
  178SLPC   C2120281   2.349   1.457   9.000 -0.5329 -0.4101 -0.2544
  178SLPC   O2220282   2.401   1.563   9.022 -0.2825  0.6016  0.3444
  178SLPC   C2220283   2.282   1.423   8.875  0.3625 -0.4450  0.4301
  178SLPC   H2R20284   2.328   1.325   8.847  1.6786  0.3321 -0.1481
  178SLPC   H2S20285   2.172   1.417   8.890  0.5615 -1.4296  1.5939
  178SLPC    C320286   2.367   1.288   9.313 -0.1321 -0.5351 -0.3802
  178SLPC    HX20287   2.265   1.249   9.336  0.2057 -0.6916  0.8842
  178SLPC    HY20288   2.411   1.318   9.410 -1.1356 -2.9983  0.8995
  178SLPC   O3120289   2.434   1.176   9.254  0.1098  0.6154  0.3294
  178SLPC   C3120290   2.569   1.177   9.259 -1.1045  0.3677  0.8457
  178SLPC   O3220291   2.637   1.248   9.334 -0.2207 -0.2893  0.2998
  178SLPC   C3220292   2.621   1.057   9.179  0.4339 -0.4437 -0.3716
  178SLPC   H2X20293   2.546   0.975   9.176  0.7648 -1.0904  4.6718
  178SLPC   H2Y20294   2.706   1.019   9.240  1.2259  0.4420 -0.8996
  178SLPC   C2320295   2.306   1.523   8.760 -0.5171 -0.6518  0.7120
  178SLPC   H3R20296   2.413   1.540   8.736 -0.0786 -1.8771  1.7129
  178SLPC   H3S20297   2.273   1.623   8.795  0.1715 -0.8843  2.0758
  178SLPC   C2420298   2.239   1.481   8.633 -0.9502  0.2199 -0.5949
  178SLPC   H4R20299   2.131   1.495   8.655 -0.6070 -0.2165  1.4741
  178SLPC   H4S20300   2.239   1.372   8.612 -0.0044  0.1534 -0.2721
  178SLPC   C2520301   2.281   1.561   8.512  0.8838  0.5748  0.0158
  178SLPC   H5R20302   2.382   1.533   8.474  1.8948  1.0461  2.2780
  178SLPC   H5S20303   2.292   1.669   8.536 -0.4213  1.2788 -2.3601
  178SLPC   C2620304   2.164   1.556   8.407  0.5171 -0.3549  1.0063
  178SLPC   H6R20305   2.074   1.576   8.469 -1.2244  0.4928 -1.6916
  178SLPC   H6S20306   2.179   1.456   8.362  0.3841 -0.7904  1.9235
  178SLPC   C2720307   2.176   1.656   8.292  0.1343 -0.0564 -0.4400
  178SLPC   H7R20308   2.250   1.605   8.225  1.0739  1.1620 -0.3531
  178SLPC   H7S20309   2.231   1.749   8.318 -1.8121  0.4880  1.9249
  178SLPC   C2820310   2.048   1.682   8.205 -0.0981 -0.7770  0.0360
  178SLPC   H8R20311   1.999   1.588   8.175 -1.0923 -0.6188  1.1054
  178SLPC   H8S20312   2.092   1.719   8.110  0.0775  0.2097  0.4946
  178SLPC   C2920313   1.947   1.766   8.279 -0.8890 -0.5431  0.3696
  178SLPC   H9R20314   1.912   1.713   8.369 -1.2139 -0.8413  0.0651
  178SLPC  C21020315   1.914   1.898   8.258 -0.3240  0.0078 -0.5130
  178SLPC  H10R20316   1.845   1.950   8.327 -1.4288 -4.2118  1.7680
  178SLPC  C21120317   1.965   1.996   8.156 -0.2448  0.3453  0.1966
  178SLPC  H11R20318   2.075   1.992   8.171 -0.2663  0.6709  0.4373
  178SLPC  H11S20319   1.935   2.097   8.191 -0.8626 -0.1344  1.0790
  178SLPC  C21220320   1.911   1.981   8.013  1.2367 -0.1226 -0.4777
  178SLPC  H12R20321   1.823   1.916   7.998  1.5139 -0.2755 -1.5307
  178SLPC  C21320322   1.977   2.029   7.908 -0.1723  0.2729  0.2170
  178SLPC  H13R20323   1.941   2.012   7.806 -0.3676 -1.2120  0.5212
  178SLPC  C21420324   2.109   2.104   7.912  0.1314  0.0336  0.4492
  178SLPC  H14R20325   2.200   2.051   7.875 -0.5671 -0.1347 -1.0574
  178SLPC  H14S20326   2.132   2.138   8.015  0.8331 -0.9094  0.6184
  178SLPC  C21520327   2.112   2.237   7.839 -0.4303  0.1812 -0.1337
  178SLPC  H15R20328   2.213   2.277   7.861 -0.6283  0.8721 -0.4586
  178SLPC  H15S20329   2.040   2.316   7.871  0.9728  1.2685  0.3664
  178SLPC  C21620330   2.109   2.218   7.692  0.5913 -0.3742  0.1527
  178SLPC  H16R20331   2.015   2.179   7.649  0.5197  0.6568 -0.6482
  178SLPC  H16S20332   2.184   2.140   7.664  2.7421  2.1578 -1.4161
  178SLPC  C21720333   2.155   2.344   7.617 -0.5453 -0.4662 -0.3084
  178SLPC  H17R20334   2.243   2.393   7.662 -2.0726  1.3826  0.7664
  178SLPC  H17S20335   2.078   2.425   7.619  1.0487  1.0578  0.1068
  178SLPC  C21820336   2.197   2.314   7.476 -0.5521 -1.3201 -0.1217
  178SLPC  H18R20337   2.292   2.256   7.473 -0.1281 -0.6827  0.6313
  178SLPC  H18S20338   2.228   2.410   7.429 -1.6592 -1.1360 -0.4785
  178SLPC  H18T20339   2.118   2.273   7.409 -0.4230 -0.2156 -0.9680
  178SLPC   C3320340   2.663   1.109   9.041 -0.3361  0.2509 -0.0992
  178SLPC   H3X20341   2.741   1.041   8.999  2.4476  4.4177 -2.0159
  178SLPC   H3Y20342   2.706   1.211   9.033  1.7239 -0.4601  1.4354
  178SLPC   C3420343   2.546   1.114   8.934 -0.3318 -0.1526 -0.3436
  178SLPC   H4X20344   2.449   1.142   8.980 -0.7248 -0.5087 -0.9456
  178SLPC   H4Y20345   2.529   1.012   8.893 -1.2461  0.4348 -1.4412
  178SLPC   C3520346   2.587   1.213   8.817 -0.1645  0.5433  0.4372
  178SLPC   H5X20347   2.695   1.198   8.796  0.0836  0.0402  2.0356
  178SLPC   H5Y20348   2.570   1.311   8.866 -1.4205 -0.4018  1.9317
  178SLPC   C3620349   2.515   1.176   8.692 -0.4279 -0.2116 -0.0768
  178SLPC   H6X20350   2.405   1.168   8.700 -0.3399 -0.9749  0.3710
  178SLPC   H6Y20351   2.556   1.075   8.669  1.4817 -0.1107  2.5649
  178SLPC   C3720352   2.552   1.252   8.565 -0.6334  0.4097  0.2277
  178SLPC   H7X20353   2.662   1.254   8.551 -0.7224  3.2255 -0.2526
  178SLPC   H7Y20354   2.541   1.362   8.565  0.0515  0.4989 -1.6232
  178SLPC   C3820355   2.470   1.183   8.456  0.2403  0.7959  0.0982
  178SLPC   H8X20356   2.361   1.174   8.472  0.3680  0.4581  0.8278
  178SLPC   H8Y20357   2.515   1.085   8.430  0.7464  1.1363 -0.3154
  178SLPC   C3920358   2.488   1.257   8.320  0.0904  0.5961 -0.1060
  178SLPC   H9X20359   2.598   1.260   8.306  0.0255  1.9487 -0.3134
  178SLPC   H9Y20360   2.440   1.355   8.340  1.1380  1.1351 -0.2274
  178SLPC  C31020361   2.423   1.184   8.202 -0.5343  0.3459  0.8362
  178SLPC  H10X20362   2.325   1.139   8.230 -0.5540  0.0263  0.2639
  178SLPC  H10Y20363   2.491   1.100   8.179 -3.0461 -1.1955 -1.2132
  178SLPC  C31120364   2.409   1.279   8.084 -0.3263 -0.4845  0.1193
  178SLPC  H11X20365   2.508   1.329   8.076  0.1355 -1.3258  0.5145
  178SLPC  H11Y20366   2.320   1.345   8.088  0.1117  0.0360  1.6952
  178SLPC  C31220367   2.393   1.210   7.947  0.1835 -0.4077 -0.6377
  178SLPC  H12X20368   2.310   1.136   7.957  1.0614 -0.8594  4.3698
  178SLPC  H12Y20369   2.483   1.147   7.929  1.6022  1.8378 -1.5459
  178SLPC  C31320370   2.378   1.314   7.827  0.0945  0.6370  0.3726
  178SLPC  H13X20371   2.472   1.373   7.818  0.7006 -0.5026 -1.0295
  178SLPC  H13Y20372   2.299   1.393   7.829 -0.7481 -0.0164 -3.1119
  178SLPC  C31420373   2.351   1.246   7.694 -0.0016 -0.3504 -0.9433
  178SLPC  H14X20374   2.262   1.182   7.712  1.7107 -2.1158  1.6121
  178SLPC  H14Y20375   2.436   1.183   7.661  1.2222  0.1105  1.2139
  178SLPC  C31520376   2.336   1.357   7.584  0.5745 -0.8563  0.9383
  178SLPC  H15X20377   2.245   1.418   7.604  0.1565 -0.8228 -0.9517
  178SLPC  H15Y20378   2.414   1.433   7.606 -0.7740  1.3588 -1.5854
  178SLPC  C31620379   2.333   1.307   7.440 -0.3355 -0.4720  0.0019
  178SLPC  H16X20380   2.308   1.394   7.375 -0.3074 -2.9670 -3.4748
  178SLPC  H16Y20381   2.250   1.233   7.434 -0.4681 -0.3915  0.7233
  178SLPC  C31720382   2.469   1.250   7.393 -0.5904 -0.1244 -0.3170
  178SLPC  H17X20383   2.491   1.150   7.435 -1.0261  0.5619  1.6037
  178SLPC  H17Y20384   2.545   1.316   7.440  0.6337 -0.6506 -1.5270
  178SLPC  C31820385   2.482   1.243   7.242  0.9553  0.1006  0.3335
  178SLPC  H18X20386   2.517   1.146   7.200 -0.1920 -1.3779  2.6775
  178SLPC  H18Y20387   2.547   1.319   7.193 -1.0826  1.1557 -0.8005
  178SLPC  H18Z20388   2.380   1.265   7.205  1.6055  0.5235 -1.2686
  179SLPC     N20389   2.559   5.089   9.855 -0.1406 -0.2624 -0.6487
  179SLPC   C1320390   2.644   4.977   9.844 -0.6699  0.3794  0.2779
  179SLPC  H13A20391   2.600   4.894   9.790  1.0361  0.7184 -1.6850
  179SLPC  H13B20392   2.734   5.001   9.790 -0.9679  2.7950  0.8103
  179SLPC  H13C20393   2.670   4.937   9.942 -2.9038 -1.2515  0.2363
  179SLPC   C1420394   2.624   5.189   9.945 -0.3712 -0.2886  0.6719
  179SLPC  H14A20395   2.562   5.277   9.955 -0.4790 -0.6269  3.3639
  179SLPC  H14B20396   2.643   5.137  10.038  0.7523 -3.2160 -1.1392
  179SLPC  H14C20397   2.711   5.222   9.890  0.4307 -0.9662  1.5166
  179SLPC   C1520398   2.424   5.051   9.917 -0.4703 -0.3585 -0.2848
  179SLPC  H15A20399   2.378   4.975   9.855 -0.1250  0.3406 -1.4157
  179SLPC  H15B20400   2.429   5.012  10.018 -1.4959 -0.7196 -0.3578
  179SLPC  H15C20401   2.354   5.132   9.928  0.2182  0.0978  0.7836
  179SLPC   C1220402   2.536   5.140   9.716 -0.4452 -0.3827 -0.0862
  179SLPC  H12A20403   2.465   5.222   9.722 -1.4655 -1.3220  0.8712
  179SLPC  H12B20404   2.488   5.060   9.663 -1.9966 -0.2299  1.0695
  179SLPC   C1120405   2.661   5.181   9.638  0.7686  0.0844  0.2422
  179SLPC  H11A20406   2.640   5.202   9.530 -0.8274 -1.4433  0.2381
  179SLPC  H11B20407   2.735   5.099   9.632 -0.5159 -1.0978  0.4797
  179SLPC     P20408   2.644   5.436   9.662  0.4063  0.3825 -0.0734
  179SLPC   O1320409   2.497   5.429   9.693 -0.0809 -0.1555 -0.3709
  179SLPC   O1420410   2.725   5.543   9.731  0.3080 -0.0459 -0.3475
  179SLPC   O1220411   2.717   5.299   9.698  0.1147 -0.1770  0.3418
  179SLPC   O1120412   2.668   5.449   9.498 -0.1269  0.1895 -0.8296
  179SLPC    C120413   2.796   5.438   9.444  0.0257  0.6676 -0.1105
  179SLPC    HA20414   2.850   5.346   9.473 -1.6721 -0.3916 -0.2595
  179SLPC    HB20415   2.780   5.425   9.335  1.6788 -1.6331 -0.1021
  179SLPC    C220416   2.880   5.572   9.462  1.0514  0.1041  0.2849
  179SLPC    HS20417   2.889   5.592   9.571  0.5418 -0.3658  0.4204
  179SLPC   O2120418   2.797   5.666   9.391  0.1268 -1.0064 -0.2722
  179SLPC   C2120419   2.818   5.787   9.431  0.0413  0.1838 -0.1864
  179SLPC   O2220420   2.896   5.825   9.520  0.5306  0.9350 -0.3497
  179SLPC   C2220421   2.705   5.879   9.369  0.1148  0.1389  0.7162
  179SLPC   H2R20422   2.608   5.837   9.401  0.1604  0.6123  1.5055
  179SLPC   H2S20423   2.716   5.976   9.422 -0.6446  0.1056  0.9344
  179SLPC    C320424   3.023   5.554   9.405 -0.5979  0.4578 -0.4226
  179SLPC    HX20425   3.076   5.485   9.474 -0.7470 -0.0870 -0.8524
  179SLPC    HY20426   3.068   5.656   9.411  2.7529 -1.1022  5.1029
  179SLPC   O3120427   3.028   5.521   9.265  0.0524  0.7631 -0.6598
  179SLPC   C3120428   3.050   5.399   9.238 -0.3346  0.1383  0.0052
  179SLPC   O3220429   3.043   5.303   9.315 -0.1535 -1.2868  0.2661
  179SLPC   C3220430   3.087   5.393   9.089  0.5995  0.2690 -0.7501
  179SLPC   H2X20431   3.180   5.454   9.083  0.5208  0.5440  0.6660
  179SLPC   H2Y20432   3.008   5.442   9.027 -2.5362 -0.4032  2.5288
  179SLPC   C2320433   2.723   5.898   9.219 -0.6274 -0.0469  0.1302
  179SLPC   H3R20434   2.824   5.898   9.174 -1.2486 -0.9288 -1.2981
  179SLPC   H3S20435   2.690   6.001   9.195  1.5484  0.2026 -1.9402
  179SLPC   C2420436   2.641   5.799   9.142 -0.3170  0.4232  1.0079
  179SLPC   H4R20437   2.536   5.835   9.137 -1.3468 -2.6841 -4.1044
  179SLPC   H4S20438   2.649   5.695   9.180  2.7586 -0.2784 -1.3068
  179SLPC   C2520439   2.684   5.803   8.997 -0.4437 -0.4203  0.1320
  179SLPC   H5R20440   2.792   5.777   8.990 -0.0270  1.3029 -0.0034
  179SLPC   H5S20441   2.688   5.907   8.960  1.3026 -0.6652 -0.4121
  179SLPC   C2620442   2.596   5.722   8.911  0.3653 -0.3716  0.5401
  179SLPC   H6R20443   2.490   5.752   8.927 -0.0540  0.9738 -4.0342
  179SLPC   H6S20444   2.606   5.613   8.928  0.2693 -0.6168 -0.8938
  179SLPC   C2720445   2.634   5.737   8.770 -0.2011  0.2730 -0.9815
  179SLPC   H7R20446   2.723   5.682   8.733  1.2519  2.4075 -0.7037
  179SLPC   H7S20447   2.653   5.843   8.745  1.9758 -0.5394 -2.8731
  179SLPC   C2820448   2.516   5.699   8.680  0.5666  0.4689  0.2115
  179SLPC   H8R20449   2.430   5.758   8.716  1.0628  0.4484  1.4582
  179SLPC   H8S20450   2.491   5.592   8.698 -0.1568  0.5872 -0.0596
  179SLPC   C2920451   2.547   5.708   8.530 -0.5091 -0.1263  0.1618
  179SLPC   H9R20452   2.585   5.808   8.502 -0.4391 -0.4183 -0.8101
  179SLPC  C21020453   2.543   5.613   8.436 -1.1176 -0.3674 -0.0641
  179SLPC  H10R20454   2.582   5.639   8.337 -2.0641 -2.8077 -1.1430
  179SLPC  C21120455   2.493   5.474   8.449  0.0371  0.1049 -0.2228
  179SLPC  H11R20456   2.398   5.467   8.392  0.0614 -1.8280 -0.0910
  179SLPC  H11S20457   2.469   5.448   8.555 -2.6768 -2.2096 -1.3360
  179SLPC  C21220458   2.575   5.362   8.395  0.6020 -0.0357 -0.4019
  179SLPC  H12R20459   2.545   5.330   8.295  0.7022  3.5589 -1.6223
  179SLPC  C21320460   2.692   5.315   8.456  0.7183 -0.4201  0.5326
  179SLPC  H13R20461   2.746   5.225   8.423  1.9510  0.4750  0.1208
  179SLPC  C21420462   2.759   5.381   8.577 -1.3979 -0.5029 -0.5104
  179SLPC  H14R20463   2.728   5.486   8.592  1.3298  0.5986 -2.1005
  179SLPC  H14S20464   2.870   5.379   8.565 -1.4154  0.1374 -0.7728
  179SLPC  C21520465   2.742   5.317   8.717  0.4615 -0.6088 -0.2420
  179SLPC  H15R20466   2.772   5.396   8.790 -1.6718  0.5631 -0.5935
  179SLPC  H15S20467   2.815   5.234   8.726  0.6188 -0.8725 -3.2977
  179SLPC  C21620468   2.604   5.274   8.757 -0.0945  0.3883 -0.2587
  179SLPC  H16R20469   2.548   5.205   8.689  1.3746  0.6015 -1.7196
  179SLPC  H16S20470   2.545   5.366   8.735  0.8918  1.2061  0.5019
  179SLPC  C21720471   2.589   5.218   8.898 -0.3312  0.8229  0.4007
  179SLPC  H17R20472   2.625   5.113   8.899  2.1052  1.6282  1.6979
  179SLPC  H17S20473   2.480   5.210   8.917 -0.2838 -2.2952 -0.3269
  179SLPC  C21820474   2.649   5.297   9.014 -0.0806 -0.6985  0.2005
  179SLPC  H18R20475   2.755   5.330   9.002 -0.9697  1.8700 -0.8203
  179SLPC  H18S20476   2.646   5.250   9.114 -1.5620  0.6700  0.8070
  179SLPC  H18T20477   2.583   5.385   9.023  0.4162  0.0182 -2.7214
  179SLPC   C3320478   3.119   5.251   9.041 -0.2961  0.6412  0.6387
  179SLPC   H3X20479   3.034   5.184   9.067  0.1902 -0.0367  0.4639
  179SLPC   H3Y20480   3.212   5.223   9.094 -0.2230 -2.2897 -0.9742
  179SLPC   C3420481   3.135   5.240   8.883 -0.6200 -0.1644  0.9481
  179SLPC   H4X20482   3.047   5.277   8.827 -0.6820 -2.2134 -0.3511
  179SLPC   H4Y20483   3.149   5.134   8.855  1.5328  0.4390 -0.4397
  179SLPC   C3520484   3.252   5.309   8.835 -0.5600 -0.6559 -0.6029
  179SLPC   H5X20485   3.350   5.304   8.887 -0.6371 -1.1219 -0.5002
  179SLPC   H5Y20486   3.233   5.416   8.857  2.0667 -0.6662  2.0619
  179SLPC   C3620487   3.296   5.292   8.694  0.3122  0.3842  0.4587
  179SLPC   H6X20488   3.281   5.188   8.660 -1.0585  1.8211 -3.5719
  179SLPC   H6Y20489   3.403   5.319   8.685  0.4304 -0.1239  0.3184
  179SLPC   C3720490   3.217   5.396   8.610  0.3705  0.0886 -0.0164
  179SLPC   H7X20491   3.253   5.500   8.623 -2.1825  1.3094 -2.3569
  179SLPC   H7Y20492   3.111   5.389   8.642 -0.1117  1.2130 -1.3175
  179SLPC   C3820493   3.229   5.365   8.466 -0.3214 -0.0361 -0.0845
  179SLPC   H8X20494   3.197   5.261   8.446  2.4766 -0.7769 -1.0023
  179SLPC   H8Y20495   3.335   5.375   8.433 -0.8711 -3.3631 -3.1408
  179SLPC   C3920496   3.132   5.456   8.387 -0.3124  0.0958  0.0284
  179SLPC   H9X20497   3.177   5.557   8.375 -1.0327  0.3292 -0.7344
  179SLPC   H9Y20498   3.041   5.480   8.446  0.3045 -0.8381  1.3827
  179SLPC  C31020499   3.080   5.395   8.260 -0.4121  0.1611 -0.0566
  179SLPC  H10X20500   3.013   5.307   8.277 -0.0408 -0.4601 -1.7123
  179SLPC  H10Y20501   3.173   5.365   8.207 -0.7738  0.1865 -0.7129
  179SLPC  C31120502   3.008   5.506   8.176 -0.4744  0.7439 -0.3399
  179SLPC  H11X20503   3.079   5.587   8.150 -0.3105  1.3289  1.8080
  179SLPC  H11Y20504   2.933   5.559   8.238 -1.3247 -0.4469 -0.3288
  179SLPC  C31220505   2.935   5.452   8.050 -0.8398  0.2895 -0.0486
  179SLPC  H12X20506   2.849   5.386   8.077 -1.6443  1.0798 -0.6764
  179SLPC  H12Y20507   3.017   5.391   8.005  0.7689  0.1685  2.9319
  179SLPC  C31320508   2.891   5.553   7.946  0.1469  0.5421  0.8134
  179SLPC  H13X20509   2.908   5.495   7.852  1.1131 -0.0906  1.3693
  179SLPC  H13Y20510   2.949   5.647   7.940 -2.2737  1.9710 -1.3471
  179SLPC  C31420511   2.738   5.584   7.961 -0.0703  0.3064 -0.4019
  179SLPC  H14X20512   2.720   5.622   8.064 -1.2493 -2.0217  0.2713
  179SLPC  H14Y20513   2.685   5.486   7.966  1.0643 -0.4040 -2.0936
  179SLPC  C31520514   2.672   5.674   7.857  0.1036 -0.5739  0.5053
  179SLPC  H15X20515   2.670   5.612   7.765 -2.6378 -0.4209  0.4132
  179SLPC  H15Y20516   2.736   5.760   7.828  1.9339 -1.7537  0.9697
  179SLPC  C31620517   2.525   5.723   7.888 -0.3665 -0.0352 -0.1329
  179SLPC  H16X20518   2.542   5.798   7.968  1.4325  1.3274 -1.7436
  179SLPC  H16Y20519   2.459   5.645   7.931 -1.6062  0.8594 -0.4046
  179SLPC  C31720520   2.451   5.781   7.765 -0.4168  0.1152 -0.1502
  179SLPC  H17X20521   2.453   5.713   7.677 -1.9049 -2.0873  1.4501
  179SLPC  H17Y20522   2.520   5.861   7.732 -0.3808 -0.1420 -0.7019
  179SLPC  C31820523   2.319   5.837   7.799 -0.5477 -0.2734  0.4790
  179SLPC  H18X20524   2.286   5.909   7.721  0.9594 -0.6931 -0.5713
  179SLPC  H18Y20525   2.312   5.891   7.895 -0.6491  1.6795 -0.6084
  179SLPC  H18Z20526   2.248   5.752   7.804 -0.1383 -0.6040  0.7416
  180SLPC     N20527   5.634   1.977   9.790 -0.1799  0.5103 -0.4611
  180SLPC   C1320528   5.538   2.016   9.897  0.1823 -0.0751  0.5379
  180SLPC  H13A20529   5.575   2.101   9.952 -0.1091  0.8751 -0.6971
  180SLPC  H13B20530   5.443   2.045   9.853 -0.2678 -1.8233  0.3374
  180SLPC  H13C20531   5.508   1.931   9.956 -1.3010  0.1399  0.1194
  180SLPC   C1420532   5.754   1.918   9.854  0.2724 -0.3740  0.6608
  180SLPC  H14A20533   5.718   1.821   9.885 -1.8027 -0.3641 -1.5836
  180SLPC  H14B20534   5.829   1.884   9.784  1.6584 -1.3921  2.5972
  180SLPC  H14C20535   5.802   1.983   9.926 -0.5240  3.7383 -2.3444
  180SLPC   C1520536   5.665   2.097   9.708  0.3129 -0.1774 -0.1854
  180SLPC  H15A20537   5.737   2.070   9.632  2.1307 -0.8007  1.7177
  180SLPC  H15B20538   5.583   2.150   9.661  1.2849  0.2559 -1.4420
  180SLPC  H15C20539   5.716   2.170   9.769 -0.4510  2.4287 -2.5344
  180SLPC   C1220540   5.574   1.874   9.697  0.0011 -0.2214  0.9691
  180SLPC  H12A20541   5.640   1.856   9.614  1.3696  0.2361  1.9410
  180SLPC  H12B20542   5.478   1.905   9.659  0.4158 -1.1737 -0.8817
  180SLPC   C1120543   5.550   1.728   9.751  0.1872  0.0277 -0.1201
  180SLPC  H11A20544   5.471   1.674   9.696  1.0687  0.2601 -1.6459
  180SLPC  H11B20545   5.510   1.738   9.854 -1.3241 -2.1131 -0.4820
  180SLPC     P20546   5.723   1.593   9.602 -0.1257 -0.4710  0.3042
  180SLPC   O1320547   5.811   1.691   9.546 -0.1667  0.3499  0.5862
  180SLPC   O1420548   5.775   1.455   9.627  0.6823  0.1985  0.6278
  180SLPC   O1220549   5.675   1.649   9.742  0.3209  0.5071  0.1977
  180SLPC   O1120550   5.595   1.584   9.520 -0.3468  0.1949  0.6236
  180SLPC    C120551   5.575   1.483   9.424 -0.1324  0.0911 -0.9652
  180SLPC    HA20552   5.651   1.402   9.415  0.6572  0.6202  0.8427
  180SLPC    HB20553   5.478   1.435   9.449  0.0946 -0.2322 -0.7047
  180SLPC    C220554   5.557   1.543   9.282  0.2419  0.4480 -0.2717
  180SLPC    HS20555   5.557   1.459   9.209  1.7162  1.0308 -0.9604
  180SLPC   O2120556   5.661   1.645   9.245  0.1315  0.6202 -0.5469
  180SLPC   C2120557   5.776   1.595   9.201 -0.1165 -0.3334 -0.3049
  180SLPC   O2220558   5.794   1.477   9.172 -0.5579  0.2603  0.2156
  180SLPC   C2220559   5.887   1.703   9.214  0.2729 -0.6857  0.4089
  180SLPC   H2R20560   5.896   1.727   9.322 -0.6950 -0.8628  0.5389
  180SLPC   H2S20561   5.983   1.665   9.173 -0.6440 -2.9190  0.2640
  180SLPC    C320562   5.423   1.610   9.285  1.3193  0.7547 -0.3012
  180SLPC    HX20563   5.426   1.693   9.359  4.5236  0.0516  0.4256
  180SLPC    HY20564   5.347   1.538   9.322  0.8767  1.6734  0.5679
  180SLPC   O3120565   5.373   1.663   9.162 -0.1707 -0.1183  0.3872
  180SLPC   C3120566   5.403   1.784   9.125 -0.2851 -0.0818  0.3800
  180SLPC   O3220567   5.476   1.867   9.177 -0.0776 -0.3082 -0.1409
  180SLPC   C3220568   5.329   1.803   8.989  0.5398 -0.3257  0.8571
  180SLPC   H2X20569   5.304   1.912   8.983 -1.6432 -0.8901 -1.4450
  180SLPC   H2Y20570   5.230   1.753   8.989 -0.3394  1.3660  2.6775
  180SLPC   C2320571   5.859   1.829   9.141  0.0747 -0.6123 -0.7550
  180SLPC   H3R20572   5.938   1.902   9.171 -0.8370  0.4422 -0.8862
  180SLPC   H3S20573   5.771   1.880   9.186 -0.5336 -2.5108  0.2475
  180SLPC   C2420574   5.849   1.801   8.992  0.0533  0.7936  0.3563
  180SLPC   H4R20575   5.749   1.769   8.956 -1.3576  3.2097  1.9310
  180SLPC   H4S20576   5.937   1.736   8.975 -1.1881 -0.4986 -1.2000
  180SLPC   C2520577   5.870   1.931   8.918  0.2669 -0.0734 -0.2476
  180SLPC   H5R20578   5.969   1.978   8.939  0.7308 -0.3735 -1.7332
  180SLPC   H5S20579   5.786   1.999   8.945 -1.2811 -0.5754 -3.5390
  180SLPC   C2620580   5.882   1.905   8.764  0.7954 -0.1941  0.3706
  180SLPC   H6R20581   5.793   1.840   8.746 -0.2519  2.2773 -4.2840
  180SLPC   H6S20582   5.970   1.839   8.748 -0.1967 -1.8117  1.3854
  180SLPC   C2720583   5.900   2.038   8.681 -0.5879 -0.7748  0.2384
  180SLPC   H7R20584   5.996   2.083   8.714  0.4706 -2.7429 -0.0933
  180SLPC   H7S20585   5.819   2.110   8.707  1.9340  1.3682  2.5240
  180SLPC   C2820586   5.898   2.012   8.527 -0.6646  0.3679  0.1586
  180SLPC   H8R20587   5.803   1.965   8.495  1.2343 -2.4350 -1.4803
  180SLPC   H8S20588   5.976   1.938   8.501 -1.5681 -0.5707  0.0809
  180SLPC   C2920589   5.934   2.142   8.452 -0.5242  0.2116  0.0777
  180SLPC   H9R20590   6.024   2.191   8.493 -0.1118 -1.1516  0.8493
  180SLPC  C21020591   5.872   2.199   8.353  0.2393  0.5202 -0.7248
  180SLPC  H10R20592   5.912   2.294   8.314  3.3855 -0.8364 -0.9889
  180SLPC  C21120593   5.750   2.152   8.282  0.5827 -0.2506  0.1969
  180SLPC  H11R20594   5.688   2.242   8.260  0.4633 -0.5123 -0.5395
  180SLPC  H11S20595   5.692   2.080   8.344 -0.7183  0.9308  0.3636
  180SLPC  C21220596   5.779   2.078   8.158 -0.3074  0.1830 -0.0446
  180SLPC  H12R20597   5.875   2.025   8.154  0.5710  1.8830 -1.6711
  180SLPC  C21320598   5.715   2.085   8.039 -0.4051 -0.0418 -0.5383
  180SLPC  H13R20599   5.755   2.027   7.954  0.4224 -0.9844  0.4770
  180SLPC  C21420600   5.592   2.162   8.007 -0.1787  0.0918  0.4419
  180SLPC  H14R20601   5.561   2.233   8.087  2.1838  2.1519 -0.4227
  180SLPC  H14S20602   5.510   2.088   7.996 -0.1016 -0.0875  1.0416
  180SLPC  C21520603   5.608   2.232   7.867  0.3876 -0.4200 -0.1535
  180SLPC  H15R20604   5.703   2.290   7.859 -0.4457  0.8202 -1.2199
  180SLPC  H15S20605   5.527   2.307   7.864  1.6177  0.9751  0.7591
  180SLPC  C21620606   5.598   2.122   7.748 -0.1097 -0.4120 -0.7568
  180SLPC  H16R20607   5.685   2.053   7.758 -1.2109 -1.6348  0.7725
  180SLPC  H16S20608   5.623   2.170   7.651  1.0352 -0.4073 -0.4624
  180SLPC  C21720609   5.465   2.048   7.747 -0.5064 -0.3096  0.2110
  180SLPC  H17R20610   5.449   1.982   7.835 -0.5694  0.5609  0.8564
  180SLPC  H17S20611   5.468   1.980   7.659  0.4496  0.9213 -0.7292
  180SLPC  C21820612   5.346   2.147   7.725 -1.1253  0.6932 -1.0678
  180SLPC  H18R20613   5.375   2.230   7.658 -1.6659  0.3608 -1.7139
  180SLPC  H18S20614   5.310   2.179   7.825  0.0186  0.7930 -0.6775
  180SLPC  H18T20615   5.262   2.096   7.673 -0.7374  0.5181 -1.5273
  180SLPC   C3320616   5.419   1.772   8.865 -0.3783 -0.3679  0.2045
  180SLPC   H3X20617   5.446   1.665   8.855 -0.7413 -0.6522  2.0854
  180SLPC   H3Y20618   5.510   1.836   8.868 -1.3537  0.9682  2.9062
  180SLPC   C3420619   5.354   1.807   8.725 -0.1198 -0.1864 -0.0989
  180SLPC   H4X20620   5.313   1.910   8.734 -0.9818 -0.5736  0.5974
  180SLPC   H4Y20621   5.266   1.740   8.709  1.6467 -1.9436 -3.0245
  180SLPC   C3520622   5.455   1.790   8.610 -0.5082  0.5536  0.8397
  180SLPC   H5X20623   5.489   1.684   8.615 -4.0921 -0.7694 -0.9487
  180SLPC   H5Y20624   5.533   1.865   8.633 -0.5724  0.8733  0.0305
  180SLPC   C3620625   5.392   1.819   8.475  0.0507 -0.9649  0.2923
  180SLPC   H6X20626   5.356   1.924   8.478  0.0662 -0.9894  1.6943
  180SLPC   H6Y20627   5.304   1.756   8.448  0.2915  0.0924 -3.0757
  180SLPC   C3720628   5.487   1.816   8.353 -0.2194 -0.0763  0.1920
  180SLPC   H7X20629   5.514   1.711   8.326  3.3627  1.1525 -1.3154
  180SLPC   H7Y20630   5.580   1.862   8.392 -0.5861  0.8136  0.0244
  180SLPC   C3820631   5.419   1.877   8.229  0.3326 -1.2183 -0.3078
  180SLPC   H8X20632   5.496   1.884   8.149 -0.7267  2.2799 -1.1187
  180SLPC   H8Y20633   5.391   1.982   8.254  2.6079 -0.0955 -2.1916
  180SLPC   C3920634   5.290   1.804   8.188 -0.6725 -0.4112  0.4868
  180SLPC   H9X20635   5.205   1.816   8.258 -0.9422 -1.4133  0.3344
  180SLPC   H9Y20636   5.320   1.697   8.185  1.5581  0.1107  2.6461
  180SLPC  C31020637   5.238   1.847   8.049 -0.0966  0.5127  0.2358
  180SLPC  H10X20638   5.216   1.756   7.989  0.0581  1.0372 -0.6191
  180SLPC  H10Y20639   5.323   1.903   8.004  1.0025 -2.4072 -1.4412
  180SLPC  C31120640   5.112   1.932   8.051  0.9778  0.2195 -0.0255
  180SLPC  H11X20641   5.119   2.027   8.107 -2.6583  1.2853 -1.2386
  180SLPC  H11Y20642   5.038   1.863   8.098  0.4622  0.2439 -0.7836
  180SLPC  C31220643   5.065   1.964   7.906 -0.6717  0.3553 -0.1762
  180SLPC  H12X20644   5.056   1.871   7.846 -0.8387  0.6970 -0.6844
  180SLPC  H12Y20645   5.145   2.020   7.853 -1.6560  0.5013 -1.5329
  180SLPC  C31320646   4.936   2.038   7.905 -0.6099 -0.2666  0.6538
  180SLPC  H13X20647   4.956   2.134   7.957 -0.5068  1.3439 -2.2899
  180SLPC  H13Y20648   4.848   1.984   7.945 -2.3857  1.6228 -0.6484
  180SLPC  C31420649   4.916   2.082   7.754 -0.2265 -0.5445  0.1027
  180SLPC  H14X20650   4.932   1.996   7.687  1.4721 -0.6471  0.6278
  180SLPC  H14Y20651   4.987   2.158   7.714 -2.4209  2.6053  1.9351
  180SLPC  C31520652   4.770   2.120   7.722  0.5367 -0.0990 -0.0550
  180SLPC  H15X20653   4.708   2.031   7.748  3.4483 -1.3001  3.2468
  180SLPC  H15Y20654   4.753   2.120   7.612 -1.9846 -1.8829  0.2912
  180SLPC  C31620655   4.701   2.241   7.795  0.1073 -0.1225  0.1727
  180SLPC  H16X20656   4.759   2.334   7.776  0.9543 -0.7109 -0.1393
  180SLPC  H16Y20657   4.696   2.222   7.904  1.3555 -1.1815  0.0538
  180SLPC  C31720658   4.563   2.266   7.752 -0.1849  0.4555  0.4183
  180SLPC  H17X20659   4.506   2.171   7.759  0.9088 -0.2495 -0.0429
  180SLPC  H17Y20660   4.562   2.287   7.643 -2.7125  1.0333  0.5269
  180SLPC  C31820661   4.506   2.378   7.835  0.2144  0.6998  0.8815
  180SLPC  H18X20662   4.548   2.477   7.806 -0.3484  0.6525 -0.0985
  180SLPC  H18Y20663   4.519   2.364   7.945  0.3305  0.2041  0.8016
  180SLPC  H18Z20664   4.398   2.394   7.814  0.2187 -1.0143 -0.5067
  181SLPC     N20665   6.523   5.517   9.580 -0.0974 -0.1796 -0.4618
  181SLPC   C1320666   6.622   5.584   9.678  0.4290  0.1034  0.3850
  181SLPC  H13A20667   6.725   5.578   9.646  0.4168  0.6687  0.2369
  181SLPC  H13B20668   6.598   5.688   9.694  1.8112  0.5358 -0.2398
  181SLPC  H13C20669   6.633   5.533   9.773  0.6162 -0.0136  0.3011
  181SLPC   C1420670   6.413   5.459   9.664  0.3862 -0.6366 -0.0765
  181SLPC  H14A20671   6.440   5.377   9.728  0.0289 -0.0233  0.8716
  181SLPC  H14B20672   6.386   5.531   9.740  0.9114  0.4840 -0.9309
  181SLPC  H14C20673   6.324   5.438   9.607  1.4018 -2.1542 -1.1374
  181SLPC   C1520674   6.598   5.406   9.511  0.0087  0.4654  0.2666
  181SLPC  H15A20675   6.540   5.355   9.436  0.1694  2.1262 -1.0371
  181SLPC  H15B20676   6.668   5.451   9.442  0.0585  1.3016  0.8500
  181SLPC  H15C20677   6.648   5.353   9.591 -1.0810 -0.6742  0.1967
  181SLPC   C1220678   6.471   5.616   9.490  0.4816  0.0953 -0.4434
  181SLPC  H12A20679   6.558   5.655   9.439 -0.9894  1.5476 -1.9037
  181SLPC  H12B20680   6.421   5.692   9.549 -2.0005 -0.8761 -1.2516
  181SLPC   C1120681   6.375   5.579   9.379 -0.7003  0.0581  0.1270
  181SLPC  H11A20682   6.432   5.509   9.314  0.3538 -0.2470  1.3560
  181SLPC  H11B20683   6.358   5.663   9.309  0.3597  0.5854  0.4895
  181SLPC     P20684   6.121   5.605   9.462 -0.1178 -0.1798 -0.3329
  181SLPC   O1320685   6.086   5.557   9.593  0.1652 -0.0878  0.3095
  181SLPC   O1420686   6.144   5.748   9.454 -0.3094 -0.1635  0.4228
  181SLPC   O1220687   6.252   5.520   9.421 -0.4156 -0.2101 -0.2384
  181SLPC   O1120688   6.007   5.551   9.374 -0.5131 -0.0466 -0.6342
  181SLPC    C120689   6.044   5.528   9.241 -1.0706  0.1833  0.0093
  181SLPC    HA20690   6.113   5.603   9.198  1.1990 -1.8762 -0.0503
  181SLPC    HB20691   6.091   5.429   9.220  0.2275  0.4415  1.5891
  181SLPC    C220692   5.916   5.509   9.163 -0.4103 -0.6597  0.6111
  181SLPC    HS20693   5.860   5.431   9.220 -2.8526  0.4560 -0.1792
  181SLPC   O2120694   5.939   5.462   9.027  0.4325 -0.1255 -0.0370
  181SLPC   C2120695   5.842   5.393   8.985 -0.4035 -0.1206  0.0870
  181SLPC   O2220696   5.739   5.359   9.043  0.5392 -0.2549 -0.0001
  181SLPC   C2220697   5.866   5.359   8.839 -0.4023 -0.1012  0.0136
  181SLPC   H2R20698   5.888   5.250   8.836 -0.8769 -0.3291  3.1601
  181SLPC   H2S20699   5.766   5.366   8.790 -0.0537 -2.4602 -1.1269
  181SLPC    C320700   5.836   5.637   9.162 -0.3264  0.7033 -0.4831
  181SLPC    HX20701   5.810   5.678   9.262 -0.6764  2.1064 -1.1420
  181SLPC    HY20702   5.730   5.618   9.134 -0.8028 -3.0992  3.3203
  181SLPC   O3120703   5.909   5.733   9.085  0.3244  0.3505  0.2995
  181SLPC   C3120704   5.880   5.749   8.960  0.0165  0.4358  0.2712
  181SLPC   O3220705   5.808   5.678   8.895  0.3428 -0.7356 -0.3208
  181SLPC   C3220706   5.962   5.874   8.909 -0.1230  0.2433  0.7549
  181SLPC   H2X20707   5.992   5.935   8.996  0.5329 -0.1794  0.8232
  181SLPC   H2Y20708   5.908   5.939   8.836  0.9101  0.3402  0.0693
  181SLPC   C2320709   5.977   5.436   8.764 -0.1220 -0.0664  0.4831
  181SLPC   H3R20710   6.080   5.432   8.806  0.6675  0.3139 -1.3696
  181SLPC   H3S20711   5.945   5.542   8.776 -2.0646 -0.4704 -0.8830
  181SLPC   C2420712   5.980   5.385   8.617 -0.4139  0.5297 -0.1696
  181SLPC   H4R20713   5.881   5.403   8.570 -1.2599  0.8704  1.6980
  181SLPC   H4S20714   6.007   5.278   8.609  1.5377  1.1490 -2.7378
  181SLPC   C2520715   6.082   5.459   8.529  0.1299 -0.2223 -0.1399
  181SLPC   H5R20716   6.172   5.474   8.592  0.1734 -1.1850  0.0381
  181SLPC   H5S20717   6.047   5.562   8.505  0.2074 -0.5057 -1.5140
  181SLPC   C2620718   6.123   5.399   8.387 -0.1141 -0.1714  0.8839
  181SLPC   H6R20719   6.178   5.479   8.333 -0.4438 -0.2636  0.4133
  181SLPC   H6S20720   6.028   5.401   8.331  0.0602  1.9409  0.6284
  181SLPC   C2720721   6.205   5.273   8.381  0.0851  0.3558 -0.2467
  181SLPC   H7R20722   6.132   5.197   8.414  0.2453 -0.0157 -0.7468
  181SLPC   H7S20723   6.288   5.287   8.453  1.5449 -0.9518 -1.6285
  181SLPC   C2820724   6.252   5.235   8.236  0.1311 -0.1535 -0.0713
  181SLPC   H8R20725   6.159   5.234   8.175  0.4728  0.0558 -0.6003
  181SLPC   H8S20726   6.295   5.134   8.251 -0.8365 -0.3720  1.2979
  181SLPC   C2920727   6.356   5.327   8.177  0.8274  1.2382 -0.1566
  181SLPC   H9R20728   6.446   5.338   8.239  1.7370  0.8298 -1.3769
  181SLPC  C21020729   6.352   5.393   8.059 -1.1064 -1.0544  0.1783
  181SLPC  H10R20730   6.434   5.463   8.042 -1.9700  0.3518  1.6392
  181SLPC  C21120731   6.236   5.376   7.960 -0.5460  0.1556  0.0385
  181SLPC  H11R20732   6.146   5.413   8.013 -0.8828 -1.2744  0.4945
  181SLPC  H11S20733   6.226   5.265   7.955  2.2663 -0.2295  1.7338
  181SLPC  C21220734   6.250   5.434   7.822  0.6470 -0.1334  0.3448
  181SLPC  H12R20735   6.300   5.379   7.740  2.1436 -0.6684  1.5845
  181SLPC  C21320736   6.209   5.559   7.793 -0.3052  0.0901  0.1949
  181SLPC  H13R20737   6.213   5.588   7.687 -0.9152 -1.2464 -0.2008
  181SLPC  C21420738   6.143   5.657   7.881  0.2796 -0.0073  0.1508
  181SLPC  H14R20739   6.196   5.755   7.878  2.1683 -0.9903  0.3990
  181SLPC  H14S20740   6.138   5.615   7.984  0.0310 -2.6379 -0.9121
  181SLPC  C21520741   6.002   5.678   7.823  0.3679 -0.0095  0.5945
  181SLPC  H15R20742   5.959   5.578   7.801  1.7852 -0.9418  1.9804
  181SLPC  H15S20743   6.004   5.724   7.722  1.4982 -1.9656 -0.3195
  181SLPC  C21620744   5.895   5.733   7.922  0.0012 -0.1439  0.7808
  181SLPC  H16R20745   5.809   5.779   7.868  0.6949  0.8728  0.5270
  181SLPC  H16S20746   5.946   5.806   7.988  0.0038 -0.3722  1.0301
  181SLPC  C21720747   5.838   5.628   8.017  0.1666  0.6043  0.0589
  181SLPC  H17R20748   5.918   5.579   8.078 -2.1552 -0.6547  2.2031
  181SLPC  H17S20749   5.799   5.540   7.962  0.8855 -1.2466  2.4017
  181SLPC  C21820750   5.728   5.677   8.104  0.0540  0.2908 -0.6525
  181SLPC  H18R20751   5.777   5.714   8.196  0.4984 -0.8589 -0.4167
  181SLPC  H18S20752   5.654   5.597   8.126  0.1719  0.2672 -0.3441
  181SLPC  H18T20753   5.673   5.759   8.053  0.9978  0.3053 -1.6602
  181SLPC   C3320754   6.082   5.820   8.831 -0.5805  0.1385 -0.1027
  181SLPC   H3X20755   6.146   5.908   8.809 -0.1019 -0.5144 -1.3215
  181SLPC   H3Y20756   6.057   5.767   8.737 -1.7098  1.0511 -0.3309
  181SLPC   C3420757   6.167   5.729   8.924 -0.8094 -0.2535 -0.4199
  181SLPC   H4X20758   6.111   5.633   8.933  0.2229 -0.7175  1.1863
  181SLPC   H4Y20759   6.194   5.776   9.021  0.3754  0.8370 -1.2647
  181SLPC   C3520760   6.303   5.693   8.861  0.6109 -0.2356 -0.8969
  181SLPC   H5X20761   6.360   5.788   8.850  0.0442  0.5775  2.4933
  181SLPC   H5Y20762   6.282   5.645   8.763 -0.1744 -0.5704 -0.5687
  181SLPC   C3620763   6.372   5.602   8.963  0.1370 -0.1648 -0.6363
  181SLPC   H6X20764   6.349   5.632   9.067  0.1793 -0.7242 -0.4692
  181SLPC   H6Y20765   6.482   5.602   8.949  0.0959 -1.3284 -1.0068
  181SLPC   C3720766   6.328   5.464   8.934  0.2694 -0.1577  0.5382
  181SLPC   H7X20767   6.325   5.444   8.824 -1.3334 -1.5618  0.8111
  181SLPC   H7Y20768   6.219   5.471   8.953  0.2071  2.6969 -0.6673
  181SLPC   C3820769   6.393   5.351   9.006 -0.3070  0.4270  0.2650
  181SLPC   H8X20770   6.390   5.373   9.115  1.5611  2.7032 -0.0871
  181SLPC   H8Y20771   6.501   5.340   8.978  0.3313 -1.7919  3.3277
  181SLPC   C3920772   6.320   5.225   8.975 -0.3362  0.4490 -0.3610
  181SLPC   H9X20773   6.214   5.241   9.006  0.6124  0.6937  3.0163
  181SLPC   H9Y20774   6.360   5.148   9.045  0.6208  0.3951 -0.9600
  181SLPC  C31020775   6.331   5.172   8.826 -0.6447  0.0273 -0.6007
  181SLPC  H10X20776   6.440   5.176   8.805 -0.7623  0.3441 -1.1434
  181SLPC  H10Y20777   6.283   5.245   8.758 -1.5845  0.0112  0.0310
  181SLPC  C31120778   6.278   5.034   8.801  0.1722 -0.4306 -0.1913
  181SLPC  H11X20779   6.173   5.028   8.837  0.6029 -1.6283  0.9451
  181SLPC  H11Y20780   6.335   4.963   8.866 -0.1078 -0.6053 -0.1345
  181SLPC  C31220781   6.296   4.994   8.655  0.3337  0.5378 -0.8718
  181SLPC  H12X20782   6.401   4.991   8.618  0.3574  2.1991 -0.9628
  181SLPC  H12Y20783   6.246   5.080   8.606 -0.1848  1.5678  1.3754
  181SLPC  C31320784   6.228   4.857   8.629 -0.6558 -0.5094 -0.4039
  181SLPC  H13X20785   6.117   4.855   8.641 -0.4169 -1.5673  1.7946
  181SLPC  H13Y20786   6.259   4.778   8.700 -0.5435 -0.1098 -0.0072
  181SLPC  C31420787   6.257   4.806   8.479 -0.5946  0.1900 -0.3384
  181SLPC  H14X20788   6.345   4.861   8.439 -1.3472  0.0019 -2.3008
  181SLPC  H14Y20789   6.175   4.835   8.412 -1.4255  0.2776  0.6986
  181SLPC  C31520790   6.289   4.656   8.482  0.7008 -0.1495 -0.0750
  181SLPC  H15X20791   6.205   4.597   8.523  0.5252 -1.9324 -2.8505
  181SLPC  H15Y20792   6.373   4.629   8.550 -1.5853 -1.5641  2.2752
  181SLPC  C31620793   6.327   4.599   8.349 -0.8280 -0.5499 -0.1519
  181SLPC  H16X20794   6.278   4.657   8.268 -1.3756 -1.1623 -0.2649
  181SLPC  H16Y20795   6.292   4.494   8.335 -0.8809 -0.4866 -0.4969
  181SLPC  C31720796   6.481   4.614   8.319  0.3129  0.1848  0.4684
  181SLPC  H17X20797   6.495   4.511   8.280  0.8356 -0.0730  1.3288
  181SLPC  H17Y20798   6.527   4.640   8.417  0.1182 -0.1587  0.6508
  181SLPC  C31820799   6.522   4.724   8.218  0.6699 -0.5518  0.0997
  181SLPC  H18X20800   6.493   4.688   8.117 -3.1658  0.4566  0.7780
  181SLPC  H18Y20801   6.631   4.747   8.214  0.5356 -0.1704 -2.0279
  181SLPC  H18Z20802   6.470   4.819   8.244  1.3095 -0.7324  2.1449
  182SLPC     N20803   6.538   1.112   9.591  0.1312  0.7709  0.1109
  182SLPC   C1320804   6.524   1.267   9.597 -0.3673  0.6477  0.6359
  182SLPC  H13A20805   6.569   1.305   9.507  2.3662 -1.5992  0.9495
  182SLPC  H13B20806   6.424   1.304   9.611 -0.5626  0.2873  0.2041
  182SLPC  H13C20807   6.591   1.310   9.671  2.5313 -2.0028 -0.3105
  182SLPC   C1420808   6.687   1.086   9.563  0.1671  0.5736  0.4717
  182SLPC  H14A20809   6.751   1.122   9.642  1.0763  3.0211 -1.3275
  182SLPC  H14B20810   6.704   0.981   9.545 -0.8422  0.5336 -0.2657
  182SLPC  H14C20811   6.724   1.145   9.481 -0.5158  3.3149  2.0994
  182SLPC   C1520812   6.458   1.067   9.474 -0.3503 -0.0680  0.1734
  182SLPC  H15A20813   6.352   1.085   9.489 -0.4481  0.1358 -0.7653
  182SLPC  H15B20814   6.505   1.115   9.390 -0.4504  0.4433  0.4107
  182SLPC  H15C20815   6.471   0.961   9.454 -1.1380  0.2545 -2.1230
  182SLPC   C1220816   6.489   1.052   9.713 -0.3438 -0.5880  0.5581
  182SLPC  H12A20817   6.385   1.080   9.727 -0.4667 -0.7865  0.0288
  182SLPC  H12B20818   6.536   1.091   9.803 -2.2924 -2.5804  2.5075
  182SLPC   C1120819   6.483   0.898   9.715  0.2685  0.3771 -0.6104
  182SLPC  H11A20820   6.412   0.876   9.632  0.5478 -2.0383 -0.2381
  182SLPC  H11B20821   6.438   0.849   9.803 -1.8302 -1.9764 -2.9123
  182SLPC     P20822   6.720   0.813   9.805  0.1252 -0.3659 -0.0619
  182SLPC   O1320823   6.831   0.914   9.792 -0.2183 -0.1005  0.3387
  182SLPC   O1420824   6.642   0.812   9.928  0.4422 -0.2335  0.9465
  182SLPC   O1220825   6.610   0.840   9.687  0.6692  0.2854  0.5025
  182SLPC   O1120826   6.775   0.673   9.783 -0.4668 -0.7364 -0.1184
  182SLPC    C120827   6.770   0.599   9.668 -0.1718 -0.0660 -0.1751
  182SLPC    HA20828   6.767   0.490   9.691  1.4757 -0.0421  0.2183
  182SLPC    HB20829   6.678   0.618   9.609 -0.0488  2.4192  0.3565
  182SLPC    C220830   6.896   0.631   9.587 -1.5328 -0.3432  0.7544
  182SLPC    HS20831   6.981   0.642   9.658 -0.6513 -1.0516 -0.1819
  182SLPC   O2120832   6.875   0.754   9.506  0.7353  0.0152 -0.6419
  182SLPC   C2120833   6.983   0.783   9.437  0.1070  0.3583 -0.1243
  182SLPC   O2220834   7.095   0.752   9.474 -0.2876 -0.2036  0.0341
  182SLPC   C2220835   6.941   0.862   9.313 -0.4925 -0.1519  0.0316
  182SLPC   H2R20836   6.843   0.908   9.336  0.0202  1.2380 -0.5118
  182SLPC   H2S20837   7.008   0.949   9.298  0.9973 -1.0092  1.5473
  182SLPC    C320838   6.934   0.506   9.491  0.9175  0.7020  0.9944
  182SLPC    HX20839   6.937   0.414   9.553  1.9331  0.2946  0.3441
  182SLPC    HY20840   7.031   0.523   9.440  0.0720 -0.5533 -1.0861
  182SLPC   O3120841   6.853   0.494   9.368  0.3355  0.7859 -0.3825
  182SLPC   C3120842   6.768   0.395   9.363 -0.6125  0.1324  0.3946
  182SLPC   O3220843   6.758   0.304   9.446 -0.3986  0.0420  0.5270
  182SLPC   C3220844   6.678   0.411   9.236 -0.7398  0.3012  0.5309
  182SLPC   H2X20845   6.628   0.510   9.237  1.3323  1.3893 -0.1332
  182SLPC   H2Y20846   6.597   0.339   9.259 -1.0379  0.3605 -0.3160
  182SLPC   C2320847   6.938   0.773   9.189 -0.1171  0.4434  0.0142
  182SLPC   H3R20848   6.850   0.706   9.200 -0.7180  1.0558 -1.0264
  182SLPC   H3S20849   7.026   0.706   9.183 -0.7307 -0.4993  1.2976
  182SLPC   C2420850   6.923   0.851   9.055 -0.0237  0.1135 -0.0095
  182SLPC   H4R20851   7.010   0.912   9.022  0.2241 -0.6118 -0.7242
  182SLPC   H4S20852   6.842   0.920   9.088 -0.6827 -0.5958 -0.1511
  182SLPC   C2520853   6.863   0.769   8.938  0.0181  0.9562  0.4387
  182SLPC   H5R20854   6.758   0.745   8.966  1.4019 -0.1810  4.9961
  182SLPC   H5S20855   6.912   0.671   8.922 -0.5542  0.8107 -0.4632
  182SLPC   C2620856   6.865   0.836   8.798 -0.1448  0.7988 -0.4709
  182SLPC   H6R20857   6.972   0.859   8.779  0.0809 -1.2232 -1.8015
  182SLPC   H6S20858   6.807   0.930   8.809  0.9302  1.4128  0.0193
  182SLPC   C2720859   6.824   0.750   8.681 -0.4780 -0.2209  0.3676
  182SLPC   H7R20860   6.716   0.726   8.692 -0.3144 -1.0748  0.1811
  182SLPC   H7S20861   6.880   0.654   8.672 -0.3294 -0.1149  0.1570
  182SLPC   C2820862   6.833   0.822   8.546  0.8885 -0.6778  0.8144
  182SLPC   H8R20863   6.775   0.915   8.566 -1.1458 -0.9519 -3.1992
  182SLPC   H8S20864   6.772   0.762   8.475  1.1294  0.2264 -0.1574
  182SLPC   C2920865   6.963   0.867   8.498  0.0962  0.3776 -0.4476
  182SLPC   H9R20866   6.999   0.971   8.509  0.6161  0.3447 -1.7949
  182SLPC  C21020867   7.043   0.784   8.425  0.0593 -0.2687 -0.2890
  182SLPC  H10R20868   7.134   0.826   8.381 -0.5405 -0.1451 -1.4290
  182SLPC  C21120869   7.008   0.645   8.385  0.1777  0.0318  0.6433
  182SLPC  H11R20870   6.899   0.628   8.379  0.3743 -1.2962  0.7457
  182SLPC  H11S20871   7.036   0.581   8.471 -3.0269  0.2423  1.8742
  182SLPC  C21220872   7.084   0.603   8.266  0.5320 -0.3523 -0.3592
  182SLPC  H12R20873   7.159   0.672   8.224 -0.3473  0.2746 -0.9102
  182SLPC  C21320874   7.094   0.473   8.222  0.0755  0.3151 -1.0479
  182SLPC  H13R20875   7.150   0.456   8.128  0.2998  0.4292 -0.9349
  182SLPC  C21420876   7.016   0.352   8.282  0.8718 -0.2584  0.4716
  182SLPC  H14R20877   6.964   0.292   8.204 -1.1935  0.6945  1.0737
  182SLPC  H14S20878   6.921   0.391   8.324  1.6905  1.0256  1.1666
  182SLPC  C21520879   7.108   0.251   8.353  0.3442  0.2295  0.0407
  182SLPC  H15R20880   7.036   0.184   8.404 -1.0398  1.2461 -0.5365
  182SLPC  H15S20881   7.176   0.307   8.420  0.5511  0.3833 -0.2959
  182SLPC  C21620882   7.184   0.168   8.250  0.9401 -0.8515  0.1382
  182SLPC  H16R20883   7.259   0.232   8.200  1.0527 -1.2764 -0.2453
  182SLPC  H16S20884   7.117   0.118   8.177  0.2329 -2.9086  2.1136
  182SLPC  C21720885   7.261   0.052   8.314  0.2051 -0.4936  0.2941
  182SLPC  H17R20886   7.200   0.005   8.394  1.0637 -0.4459  0.9931
  182SLPC  H17S20887   7.360   0.088   8.351 -0.6236  2.3510 -0.1022
  182SLPC  C21820888   7.297  -0.071   8.216  0.2839 -0.1579  0.3141
  182SLPC  H18R20889   7.268  -0.165   8.268 -0.0148  0.6712  1.6833
  182SLPC  H18S20890   7.403  -0.084   8.189 -0.0192 -2.6776  0.2063
  182SLPC  H18T20891   7.240  -0.053   8.122  2.0383  1.3254 -0.4943
  182SLPC   C3320892   6.735   0.371   9.096 -0.1783 -0.9160 -0.5457
  182SLPC   H3X20893   6.784   0.272   9.108 -1.5533 -2.0183 -3.3505
  182SLPC   H3Y20894   6.814   0.446   9.072  1.0988 -1.3417  2.2232
  182SLPC   C3420895   6.627   0.359   8.995  0.4661 -0.3021  0.5758
  182SLPC   H4X20896   6.546   0.306   9.049 -0.5146  1.1425  0.5390
  182SLPC   H4Y20897   6.646   0.290   8.910 -0.6997 -0.3727  0.3770
  182SLPC   C3520898   6.560   0.486   8.941 -0.8202  0.0747  0.2454
  182SLPC   H5X20899   6.634   0.542   8.879 -2.7161  1.8007 -0.5448
  182SLPC   H5Y20900   6.532   0.552   9.026  0.2136  0.7777  0.0597
  182SLPC   C3620901   6.428   0.448   8.873  0.5981 -0.1330 -0.0494
  182SLPC   H6X20902   6.347   0.411   8.939 -1.8455 -2.4630 -4.1453
  182SLPC   H6Y20903   6.455   0.369   8.799  1.5456  0.0097  0.1390
  182SLPC   C3720904   6.365   0.566   8.790 -0.2810  0.3409  0.0720
  182SLPC   H7X20905   6.438   0.635   8.742 -0.0504 -0.3334 -0.5630
  182SLPC   H7Y20906   6.316   0.631   8.866 -0.3529  0.9317 -0.4809
  182SLPC   C3820907   6.257   0.534   8.687 -0.0870  0.3234  0.8415
  182SLPC   H8X20908   6.163   0.515   8.743 -0.8996  0.9545 -0.2900
  182SLPC   H8Y20909   6.268   0.443   8.624 -0.5950 -0.5132  1.9460
  182SLPC   C3920910   6.235   0.651   8.588  0.2103  0.2947 -0.0149
  182SLPC   H9X20911   6.325   0.649   8.522  1.2788 -2.0705  1.4642
  182SLPC   H9Y20912   6.220   0.747   8.640  0.9123  0.2737  0.2298
  182SLPC  C31020913   6.115   0.634   8.493 -0.3520 -0.2857 -0.6699
  182SLPC  H10X20914   6.021   0.648   8.550 -0.0458  0.5673 -0.3740
  182SLPC  H10Y20915   6.116   0.532   8.448  1.5751 -0.3821 -0.4367
  182SLPC  C31120916   6.111   0.737   8.371 -0.7481 -0.4692  0.9623
  182SLPC  H11X20917   6.038   0.691   8.301  0.9717 -1.8481  0.0255
  182SLPC  H11Y20918   6.209   0.724   8.320 -0.5781  2.6055  0.4136
  182SLPC  C31220919   6.069   0.884   8.403 -0.5279  0.4971 -0.4429
  182SLPC  H12X20920   6.140   0.929   8.475 -0.0634 -0.5772 -0.2193
  182SLPC  H12Y20921   5.969   0.893   8.450 -0.0442  1.0526  0.4884
  182SLPC  C31320922   6.069   0.976   8.284  0.0254  0.0733 -0.0911
  182SLPC  H13X20923   6.173   0.990   8.249  0.4043 -0.2307  0.9065
  182SLPC  H13Y20924   6.041   1.080   8.314 -1.8337 -0.5168  0.3049
  182SLPC  C31420925   5.968   0.945   8.179 -0.3083 -0.0243 -0.1811
  182SLPC  H14X20926   5.966   0.834   8.177  0.5220 -0.0623  0.7284
  182SLPC  H14Y20927   6.009   0.984   8.083  2.1458 -1.5282  0.2231
  182SLPC  C31520928   5.821   0.997   8.210 -0.8985 -0.5890 -0.2610
  182SLPC  H15X20929   5.814   1.003   8.321 -0.9797  1.2079 -0.3476
  182SLPC  H15Y20930   5.744   0.924   8.176 -0.6372 -0.3704 -1.3429
  182SLPC  C31620931   5.788   1.134   8.155  0.0460  0.6872 -0.1436
  182SLPC  H16X20932   5.768   1.128   8.046  0.9486 -2.3521 -0.2096
  182SLPC  H16Y20933   5.864   1.212   8.176  1.1165 -0.8941  2.1962
  182SLPC  C31720934   5.664   1.200   8.223 -0.1788  0.7398  0.6671
  182SLPC  H17X20935   5.674   1.310   8.235 -0.9560  0.9738 -0.8192
  182SLPC  H17Y20936   5.667   1.176   8.332 -0.4147  0.4459  0.6092
  182SLPC  C31820937   5.539   1.145   8.158 -1.2412 -0.0469 -0.1763
  182SLPC  H18X20938   5.523   1.037   8.178  0.9693 -0.3442  0.0175
  182SLPC  H18Y20939   5.550   1.154   8.048  2.3579 -0.4611  0.0939
  182SLPC  H18Z20940   5.445   1.197   8.190 -1.3265 -0.5096  0.3367
  183SLPC     N20941   0.097   0.904   9.762  0.1252  0.0157  0.1772
  183SLPC   C1320942   0.143   0.768   9.713  0.1919 -0.1775 -0.2581
  183SLPC  H13A20943   0.191   0.716   9.794  0.4364  2.5699  1.4449
  183SLPC  H13B20944   0.068   0.712   9.659 -1.2866  1.6822 -0.2265
  183SLPC  H13C20945   0.215   0.794   9.638 -0.5458  1.5610 -0.3946
  183SLPC   C1420946   0.201   0.961   9.852 -0.4325  0.4491  1.2002
  183SLPC  H14A20947   0.165   1.048   9.906  0.8418  1.9349 -0.2868
  183SLPC  H14B20948   0.220   0.887   9.928 -1.3891 -1.2346 -0.1654
  183SLPC  H14C20949   0.294   0.973   9.799  0.9196 -0.9511  3.2021
  183SLPC   C1520950  -0.021   0.886   9.855 -0.3025  0.7335 -0.8972
  183SLPC  H15A20951   0.009   0.830   9.943 -0.6436  2.8959  0.6521
  183SLPC  H15B20952  -0.044   0.982   9.899  0.3070 -0.7312  2.8105
  183SLPC  H15C20953  -0.108   0.856   9.798  0.9359  1.3406 -3.1443
  183SLPC   C1220954   0.068   0.997   9.644 -0.4169 -0.9574  0.6209
  183SLPC  H12A20955   0.039   1.090   9.689  1.2177 -0.2094  0.1821
  183SLPC  H12B20956  -0.011   0.959   9.580 -2.6575  3.2495  0.7576
  183SLPC   C1120957   0.185   1.028   9.543 -0.5351 -0.3498 -0.0920
  183SLPC  H11A20958   0.142   1.080   9.454 -1.7154 -3.2299 -1.2457
  183SLPC  H11B20959   0.218   0.929   9.506 -0.5627 -1.0216  1.6848
  183SLPC     P20960   0.308   1.244   9.607 -0.0844  0.1336  0.5276
  183SLPC   O1320961   0.181   1.302   9.658  0.0571  0.3117 -0.5162
  183SLPC   O1420962   0.431   1.243   9.687  0.2008 -0.5582 -0.3793
  183SLPC   O1220963   0.296   1.091   9.591 -0.1159  0.2535 -0.3513
  183SLPC   O1120964   0.334   1.300   9.470  0.3477 -0.4161  0.2819
  183SLPC    C120965   0.440   1.253   9.391  0.2700 -0.0336  0.1101
  183SLPC    HA20966   0.520   1.329   9.401  0.9026 -0.4195 -1.8217
  183SLPC    HB20967   0.476   1.150   9.412  2.4235  1.0181  1.7320
  183SLPC    C220968   0.406   1.255   9.231 -0.3585 -0.2858 -0.6276
  183SLPC    HS20969   0.503   1.263   9.178 -0.7894  0.3509 -1.3260
  183SLPC   O2120970   0.324   1.371   9.189  0.2421  0.0408  0.5109
  183SLPC   C2120971   0.404   1.482   9.178 -0.1468 -0.3309  0.2308
  183SLPC   O2220972   0.519   1.486   9.221  0.3461  0.3533  0.6145
  183SLPC   C2220973   0.333   1.605   9.107 -0.1858 -0.5918 -0.6138
  183SLPC   H2R20974   0.265   1.572   9.026  0.7195  0.0318 -1.6354
  183SLPC   H2S20975   0.279   1.655   9.191 -0.5546 -0.1377 -1.1159
  183SLPC    C320976   0.339   1.115   9.188 -0.1010  0.9812 -1.1260
  183SLPC    HX20977   0.236   1.100   9.225  0.9206 -2.6319  0.4929
  183SLPC    HY20978   0.391   1.031   9.240 -1.4741  0.4456 -0.5926
  183SLPC   O3120979   0.332   1.095   9.044  1.2597  0.2618 -0.6300
  183SLPC   C3120980   0.453   1.045   8.991 -0.0048  0.1940 -0.0552
  183SLPC   O3220981   0.544   1.009   9.064 -0.1187 -0.1664 -0.3115
  183SLPC   C3220982   0.445   1.052   8.838  0.2398 -0.6732  0.1078
  183SLPC   H2X20983   0.474   1.157   8.818 -0.6862 -0.2080  1.1666
  183SLPC   H2Y20984   0.338   1.032   8.816 -0.4799  0.0946  2.8125
  183SLPC   C2320985   0.433   1.718   9.057 -0.0862  0.7724 -0.7527
  183SLPC   H3R20986   0.523   1.734   9.120 -1.1036  1.2726  0.5955
  183SLPC   H3S20987   0.370   1.809   9.060 -0.7954  0.2981 -1.3356
  183SLPC   C2420988   0.473   1.697   8.906 -0.3152  0.3831 -0.3057
  183SLPC   H4R20989   0.387   1.664   8.843  0.9157  0.5074 -2.0987
  183SLPC   H4S20990   0.545   1.613   8.919 -0.3016  0.1186 -1.8951
  183SLPC   C2520991   0.525   1.830   8.852 -0.7330 -0.4346  0.7093
  183SLPC   H5R20992   0.586   1.879   8.931 -3.0599  0.1460  2.2125
  183SLPC   H5S20993   0.438   1.898   8.839 -1.4605 -0.6433  4.0147
  183SLPC   C2620994   0.604   1.821   8.723  0.2541 -0.9877 -0.0031
  183SLPC   H6R20995   0.553   1.756   8.649 -1.1273 -0.3868  0.4090
  183SLPC   H6S20996   0.695   1.766   8.756 -0.2244 -2.2766 -0.7728
  183SLPC   C2720997   0.663   1.952   8.660 -0.6973  0.0972  1.0007
  183SLPC   H7R20998   0.710   2.023   8.731  2.5295  0.6808 -1.5832
  183SLPC   H7S20999   0.580   2.011   8.617 -0.0872  0.9851  1.0348
  183SLPC   C2821000   0.771   1.903   8.560 -0.1410 -0.4107  0.3040
  183SLPC   H8R21001   0.731   1.822   8.495 -2.2457  1.3058 -0.5851
  183SLPC   H8S21002   0.835   1.852   8.635  1.5239 -0.7053 -1.2777
  183SLPC   C2921003   0.842   2.005   8.478 -0.2057 -0.7525  0.0457
  183SLPC   H9R21004   0.878   2.091   8.535  1.6699 -0.8913 -0.9145
  183SLPC  C21021005   0.863   2.002   8.342 -0.0213 -0.2654 -0.0438
  183SLPC  H10R21006   0.904   2.090   8.290 -0.9080 -0.3957 -0.9722
  183SLPC  C21121007   0.826   1.895   8.246  0.7057  0.9039  0.2046
  183SLPC  H11R21008   0.766   1.945   8.167  0.2161  1.1950  0.7610
  183SLPC  H11S21009   0.767   1.810   8.288  1.6149  0.6291  0.9441
  183SLPC  C21221010   0.951   1.824   8.194 -0.4337 -0.5131 -0.3711
  183SLPC  H12R21011   0.990   1.738   8.250 -2.4759 -0.7789  0.6808
  183SLPC  C21321012   1.011   1.846   8.071  0.3172 -0.0333 -0.2963
  183SLPC  H13R21013   1.101   1.791   8.041 -2.0775 -3.2858 -1.8690
  183SLPC  C21421014   0.979   1.951   7.969  0.4709 -0.1675  0.1846
  183SLPC  H14R21015   1.066   2.019   7.960 -0.7975  1.6234  1.0736
  183SLPC  H14S21016   0.890   2.008   8.003  0.8065  0.1131  0.5801
  183SLPC  C21521017   0.923   1.902   7.831 -0.1366  0.2812 -0.4985
  183SLPC  H15R21018   0.816   1.874   7.827 -0.6403  2.1854 -1.1133
  183SLPC  H15S21019   0.988   1.817   7.800  0.6446  0.3467  0.9222
  183SLPC  C21621020   0.943   2.003   7.724 -0.3013  0.0112 -0.0436
  183SLPC  H16R21021   1.050   2.028   7.711 -0.8683  2.9855  0.6576
  183SLPC  H16S21022   0.897   2.096   7.764  3.4109  1.9888 -0.1719
  183SLPC  C21721023   0.891   1.959   7.585 -0.2347  0.2124  0.6253
  183SLPC  H17R21024   0.796   1.906   7.607  0.1894 -0.7591  0.1356
  183SLPC  H17S21025   0.952   1.876   7.544  1.0170  0.3078  2.2215
  183SLPC  C21821026   0.871   2.073   7.483 -0.2301  0.1671  0.4542
  183SLPC  H18R21027   0.796   2.150   7.509 -2.5554 -2.1899  0.9270
  183SLPC  H18S21028   0.853   2.029   7.382 -0.4710  0.0278  0.5586
  183SLPC  H18T21029   0.966   2.131   7.480 -0.4013  0.5462  1.9826
  183SLPC   C3321030   0.519   0.944   8.755  0.3529 -0.2675 -0.4728
  183SLPC   H3X21031   0.500   0.840   8.791  0.5640  0.1451  0.8487
  183SLPC   H3Y21032   0.626   0.953   8.782  0.4994  0.4785 -1.2771
  183SLPC   C3421033   0.496   0.959   8.598  0.4950  0.1985  0.0062
  183SLPC   H4X21034   0.387   0.972   8.583  0.3093 -0.9338  0.3811
  183SLPC   H4Y21035   0.531   0.874   8.535 -0.7828  0.3322 -0.9107
  183SLPC   C3521036   0.576   1.077   8.541 -0.6022  0.3543 -0.3690
  183SLPC   H5X21037   0.686   1.075   8.561 -0.9156 -0.8690  1.4204
  183SLPC   H5Y21038   0.548   1.173   8.589  0.1008  1.1503 -1.5258
  183SLPC   C3621039   0.556   1.085   8.390 -0.0665 -0.2189  0.4798
  183SLPC   H6X21040   0.589   1.191   8.377  1.4328 -0.7163  0.1596
  183SLPC   H6Y21041   0.451   1.093   8.353  0.2292 -0.5050 -0.4299
  183SLPC   C3721042   0.639   0.990   8.306  0.2479 -0.5128 -0.0408
  183SLPC   H7X21043   0.627   0.886   8.344  0.3433 -0.9560 -1.2133
  183SLPC   H7Y21044   0.745   1.023   8.308 -0.6899  2.5800  0.2482
  183SLPC   C3821045   0.603   0.983   8.155 -0.3840  0.0158  1.2725
  183SLPC   H8X21046   0.507   0.927   8.150  0.6176 -1.6387 -0.0914
  183SLPC   H8Y21047   0.682   0.923   8.104  0.4852 -0.4245  3.1003
  183SLPC   C3921048   0.583   1.119   8.072  0.6208  0.1354 -0.2820
  183SLPC   H9X21049   0.489   1.164   8.110  1.3446  1.4366 -0.0263
  183SLPC   H9Y21050   0.570   1.087   7.967 -0.5580 -1.2918  0.2851
  183SLPC  C31021051   0.706   1.208   8.086  0.1878  0.1366  0.5084
  183SLPC  H10X21052   0.792   1.150   8.047 -0.2829 -1.2524  1.4855
  183SLPC  H10Y21053   0.729   1.229   8.193  1.2501 -0.0458  0.3201
  183SLPC  C31121054   0.711   1.337   8.008 -0.5955  0.7970 -0.0827
  183SLPC  H11X21055   0.702   1.310   7.900 -1.3556  2.5284 -0.4694
  183SLPC  H11Y21056   0.807   1.390   8.026  1.3219 -2.7065  0.7055
  183SLPC  C31221057   0.598   1.433   8.041 -0.0999  0.7576  0.0685
  183SLPC  H12X21058   0.595   1.447   8.151  0.4911  1.1187  0.0426
  183SLPC  H12Y21059   0.505   1.389   7.998 -0.0823  0.5325  0.2602
  183SLPC  C31321060   0.618   1.573   7.983 -0.5311  0.5394 -0.1706
  183SLPC  H13X21061   0.633   1.571   7.873 -1.4910  2.4264 -0.3615
  183SLPC  H13Y21062   0.707   1.623   8.027  0.6097  0.5083 -2.3502
  183SLPC  C31421063   0.508   1.681   8.018  0.5661  0.0323  0.0180
  183SLPC  H14X21064   0.487   1.683   8.127 -2.6616  0.9019 -0.5401
  183SLPC  H14Y21065   0.414   1.640   7.975 -0.7810  0.9110  2.0706
  183SLPC  C31521066   0.544   1.830   7.974  0.0134 -1.0782  0.5095
  183SLPC  H15X21067   0.616   1.825   7.890 -1.6530 -0.6855 -0.9577
  183SLPC  H15Y21068   0.610   1.871   8.054 -1.1964  0.8716  0.5101
  183SLPC  C31621069   0.432   1.925   7.936 -0.4990  0.3318  0.7546
  183SLPC  H16X21070   0.350   1.874   7.880 -0.6573  2.7905 -1.3836
  183SLPC  H16Y21071   0.473   2.001   7.866  1.7099 -2.8733 -1.5612
  183SLPC  C31721072   0.366   1.997   8.057  0.4989 -0.3919  0.0240
  183SLPC  H17X21073   0.328   1.926   8.134 -4.0709  1.0362 -0.7464
  183SLPC  H17Y21074   0.279   2.053   8.017  1.3463 -1.2532 -3.1671
  183SLPC  C31821075   0.458   2.094   8.139  0.2911 -0.2188 -0.2452
  183SLPC  H18X21076   0.500   2.163   8.062 -2.6863  0.6057 -1.1676
  183SLPC  H18Y21077   0.546   2.037   8.178 -0.7677 -0.3396  2.0477
  183SLPC  H18Z21078   0.394   2.147   8.212 -0.3946 -0.2456 -0.8254
  184SLPC     N21079   0.770   6.806   9.649 -0.4835 -0.0943 -0.3597
  184SLPC   C1321080   0.894   6.880   9.683 -0.6676  0.1156 -0.4944
  184SLPC  H13A21081   0.903   6.978   9.638  0.7318  0.6949  0.9943
  184SLPC  H13B21082   0.899   6.912   9.785 -0.9430 -0.8021 -0.1842
  184SLPC  H13C21083   0.986   6.826   9.663 -0.5729  0.2165 -0.3307
  184SLPC   C1421084   0.649   6.886   9.697  0.1460 -0.1083  0.1100
  184SLPC  H14A21085   0.651   6.988   9.661 -0.7821  0.4374  1.6058
  184SLPC  H14B21086   0.554   6.840   9.675  0.6870 -0.3321 -1.8975
  184SLPC  H14C21087   0.649   6.898   9.804 -1.5315 -1.0421  0.2332
  184SLPC   C1521088   0.781   6.677   9.726 -0.5871  0.2270  0.2585
  184SLPC  H15A21089   0.704   6.608   9.694 -1.4338  0.1273  2.4318
  184SLPC  H15B21090   0.878   6.636   9.704 -0.8345  0.0704 -0.5687
  184SLPC  H15C21091   0.766   6.698   9.831 -0.7767  0.0200  0.2740
  184SLPC   C1221092   0.768   6.786   9.497 -0.0859 -0.3326  0.3281
  184SLPC  H12A21093   0.852   6.730   9.459 -1.6886 -4.0556  2.0679
  184SLPC  H12B21094   0.791   6.883   9.455  0.7921 -1.3027 -1.4588
  184SLPC   C1121095   0.650   6.712   9.434 -0.6494  0.0540 -0.2617
  184SLPC  H11A21096   0.652   6.717   9.323  1.2196 -0.9216 -0.2918
  184SLPC  H11B21097   0.555   6.761   9.465  0.2557  0.1605  2.5151
  184SLPC     P21098   0.725   6.465   9.429 -0.0328 -0.1960 -0.0024
  184SLPC   O1321099   0.837   6.505   9.347 -0.1697  0.0805  0.1687
  184SLPC   O1421100   0.754   6.380   9.542 -0.7433  0.3734 -0.3365
  184SLPC   O1221101   0.629   6.585   9.477  0.1387  0.1170  0.0035
  184SLPC   O1121102   0.624   6.390   9.335  0.1542  0.2445 -0.2918
  184SLPC    C121103   0.593   6.444   9.203  0.3222 -0.5658 -0.1130
  184SLPC    HA21104   0.582   6.554   9.196 -2.3602 -0.6461  1.9784
  184SLPC    HB21105   0.665   6.404   9.128 -0.5939 -0.2011 -1.2090
  184SLPC    C221106   0.455   6.395   9.162 -0.2299 -0.4593 -0.1450
  184SLPC    HS21107   0.459   6.284   9.166  0.1514 -0.4187  0.6947
  184SLPC   O2121108   0.429   6.433   9.026  0.0773  0.5352 -0.2143
  184SLPC   C2121109   0.323   6.380   8.978  0.0484 -0.1866  0.2891
  184SLPC   O2221110   0.261   6.282   9.029 -0.7597  0.2200  0.0181
  184SLPC   C2221111   0.275   6.471   8.864 -0.9450 -1.1782 -0.1885
  184SLPC   H2R21112   0.360   6.538   8.837 -1.2887 -0.0537  1.4374
  184SLPC   H2S21113   0.247   6.404   8.779  0.5513 -0.5572 -1.1922
  184SLPC    C321114   0.348   6.453   9.262  0.1213 -0.3337 -0.4446
  184SLPC    HX21115   0.383   6.414   9.360 -2.4937 -0.9758  0.2730
  184SLPC    HY21116   0.249   6.413   9.234 -0.6913  0.3404  1.4299
  184SLPC   O3121117   0.352   6.597   9.265  0.7539  0.1590  0.9293
  184SLPC   C3121118   0.246   6.669   9.307  0.1159  0.6671  0.0404
  184SLPC   O3221119   0.140   6.622   9.336 -0.2886  0.2664  0.0369
  184SLPC   C3221120   0.286   6.816   9.301  0.6644  0.5454 -0.1630
  184SLPC   H2X21121   0.392   6.825   9.334  0.5653  0.2321  0.2313
  184SLPC   H2Y21122   0.229   6.870   9.379  0.9089 -0.6818  0.8766
  184SLPC   C2321123   0.151   6.550   8.912 -0.5208  0.1853  0.0070
  184SLPC   H3R21124   0.199   6.635   8.965  0.8843  0.9626 -2.4055
  184SLPC   H3S21125   0.079   6.492   8.972 -1.0482  1.7867  0.9636
  184SLPC   C2421126   0.070   6.613   8.802 -0.5327 -0.2024 -0.5948
  184SLPC   H4R21127   0.061   6.545   8.716  2.1131 -0.4488 -0.7073
  184SLPC   H4S21128   0.115   6.704   8.757  0.3206 -0.1273  0.3901
  184SLPC   C2521129  -0.069   6.646   8.853  0.8444 -0.3299  0.4190
  184SLPC   H5R21130  -0.072   6.720   8.936 -0.3435 -0.3804  0.4210
  184SLPC   H5S21131  -0.098   6.550   8.898 -0.6745 -1.3264 -2.5831
  184SLPC   C2621132  -0.182   6.676   8.744  0.3317  0.0137  0.6920
  184SLPC   H6R21133  -0.263   6.604   8.766 -0.4736  1.0577  1.2096
  184SLPC   H6S21134  -0.148   6.649   8.642 -0.4680  0.3866  0.3139
  184SLPC   C2721135  -0.235   6.823   8.736 -0.9545 -0.7022  0.3115
  184SLPC   H7R21136  -0.146   6.889   8.736 -2.9153  2.0793  2.1229
  184SLPC   H7S21137  -0.274   6.840   8.839  0.8495 -0.2696  0.9419
  184SLPC   C2821138  -0.331   6.850   8.615 -0.4888  0.5681  0.2997
  184SLPC   H8R21139  -0.424   6.903   8.643 -0.3347  0.3461  1.2644
  184SLPC   H8S21140  -0.383   6.755   8.595  0.8427 -0.4831  1.6999
  184SLPC   C2921141  -0.263   6.903   8.495 -0.0743  0.6217 -0.2447
  184SLPC   H9R21142  -0.200   6.832   8.440  0.4226 -0.2098  1.3744
  184SLPC  C21021143  -0.261   7.028   8.458 -0.0259 -0.0039  0.5525
  184SLPC  H10R21144  -0.233   7.057   8.356 -2.9682  0.9892 -0.0244
  184SLPC  C21121145  -0.330   7.141   8.534  0.1152  0.2162 -0.4550
  184SLPC  H11R21146  -0.292   7.236   8.491 -0.0942 -0.3221 -1.8725
  184SLPC  H11S21147  -0.291   7.138   8.638 -0.9172  0.0804 -0.0731
  184SLPC  C21221148  -0.486   7.137   8.526 -0.4408 -0.1759  0.2361
  184SLPC  H12R21149  -0.529   7.110   8.624 -1.1514  2.5632  0.6993
  184SLPC  C21321150  -0.564   7.184   8.430  0.4529 -0.4506 -0.1111
  184SLPC  H13R21151  -0.670   7.207   8.448  0.9662  0.9882  1.2092
  184SLPC  C21421152  -0.521   7.238   8.299  0.1349 -0.3983  0.1886
  184SLPC  H14R21153  -0.436   7.308   8.310  1.2506 -1.3401 -2.1309
  184SLPC  H14S21154  -0.602   7.296   8.250 -1.1457 -1.9017  0.4438
  184SLPC  C21521155  -0.472   7.135   8.195  0.4247  0.4080 -0.3338
  184SLPC  H15R21156  -0.548   7.059   8.166  0.9398 -0.1499 -0.2412
  184SLPC  H15S21157  -0.385   7.079   8.235 -0.4076 -0.2153  0.6247
  184SLPC  C21621158  -0.431   7.205   8.062  0.2832 -0.0648 -0.2519
  184SLPC  H16R21159  -0.338   7.263   8.079 -0.7286  1.3809  0.4701
  184SLPC  H16S21160  -0.517   7.272   8.039  0.0419  0.2546  1.4507
  184SLPC  C21721161  -0.404   7.095   7.951 -0.4319  0.2951  0.0891
  184SLPC  H17R21162  -0.395   7.151   7.855  0.7699  0.1108  0.0932
  184SLPC  H17S21163  -0.488   7.023   7.943  0.3216 -0.4162 -1.8363
  184SLPC  C21821164  -0.269   7.025   7.968 -0.8179  0.6041  0.5424
  184SLPC  H18R21165  -0.289   6.937   8.033 -1.0559  1.2790  1.3863
  184SLPC  H18S21166  -0.193   7.100   7.999 -0.0310  0.6405 -1.4235
  184SLPC  H18T21167  -0.242   6.977   7.871 -1.1615  1.1443  0.1769
  184SLPC   C3321168   0.270   6.878   9.161 -0.1117  0.2904 -0.0004
  184SLPC   H3X21169   0.243   6.985   9.170 -0.7993  0.4333 -3.2081
  184SLPC   H3Y21170   0.182   6.832   9.112  0.0744  0.3866 -0.4275
  184SLPC   C3421171   0.389   6.863   9.072  0.0272  0.5148  0.8103
  184SLPC   H4X21172   0.428   6.760   9.081  0.4222  0.5007 -0.9657
  184SLPC   H4Y21173   0.465   6.938   9.106  0.4781  0.7708 -0.7229
  184SLPC   C3521174   0.352   6.897   8.927  0.0863 -0.3822  0.1554
  184SLPC   H5X21175   0.348   7.008   8.923  3.1304 -0.2134  0.2404
  184SLPC   H5Y21176   0.255   6.860   8.887 -0.3961  1.4149 -0.3952
  184SLPC   C3621177   0.461   6.854   8.830  0.0977  0.2234 -0.3348
  184SLPC   H6X21178   0.451   6.745   8.811  1.2175  0.0680 -0.0296
  184SLPC   H6Y21179   0.550   6.871   8.894  0.4226  0.2521 -0.8003
  184SLPC   C3721180   0.456   6.932   8.705  0.6743 -0.0604  0.1667
  184SLPC   H7X21181   0.427   7.037   8.727  1.4696  0.5015 -1.3886
  184SLPC   H7Y21182   0.373   6.887   8.646  0.1842  0.1580  0.6792
  184SLPC   C3821183   0.583   6.930   8.614  0.4673  0.8383  0.3286
  184SLPC   H8X21184   0.666   6.988   8.660 -1.1294  3.7588 -0.4005
  184SLPC   H8Y21185   0.561   7.005   8.535  0.9476 -0.6080 -1.2098
  184SLPC   C3921186   0.629   6.796   8.555 -0.2299  0.7824 -0.4736
  184SLPC   H9X21187   0.537   6.737   8.538  0.5882 -1.2949  1.9752
  184SLPC   H9Y21188   0.700   6.751   8.627 -2.1213 -1.8290 -0.1721
  184SLPC  C31021189   0.693   6.825   8.417 -1.0048  0.0204 -0.7609
  184SLPC  H10X21190   0.743   6.924   8.420 -1.0695 -0.0024  1.5757
  184SLPC  H10Y21191   0.617   6.849   8.339 -2.0854  0.2603  0.3577
  184SLPC  C31121192   0.773   6.701   8.363 -0.6244  0.7502  0.4371
  184SLPC  H11X21193   0.690   6.641   8.319 -1.1221  2.1765 -0.6001
  184SLPC  H11Y21194   0.823   6.641   8.442 -0.3348 -0.1331 -0.4137
  184SLPC  C31221195   0.889   6.731   8.257  0.4493 -0.6544 -0.1367
  184SLPC  H12X21196   0.960   6.802   8.307 -0.6262  1.7482 -1.9028
  184SLPC  H12Y21197   0.849   6.791   8.173  2.3395  1.2621  0.2784
  184SLPC  C31321198   0.975   6.612   8.205 -0.7150  0.4360 -0.7353
  184SLPC  H13X21199   1.011   6.559   8.295 -0.2856  1.3966 -0.3297
  184SLPC  H13Y21200   1.067   6.648   8.154  1.8122  0.2788  3.4783
  184SLPC  C31421201   0.897   6.508   8.130 -0.1866 -1.0154 -0.9461
  184SLPC  H14X21202   0.842   6.547   8.042 -0.1277  1.1379 -0.0577
  184SLPC  H14Y21203   0.823   6.460   8.197  0.8549  0.6272  1.4535
  184SLPC  C31521204   0.975   6.393   8.062  0.0101  0.5744  0.0599
  184SLPC  H15X21205   0.896   6.327   8.021 -0.0385  1.8263 -1.9073
  184SLPC  H15Y21206   1.036   6.343   8.142  0.7560  1.0854 -0.1861
  184SLPC  C31621207   1.066   6.430   7.947  0.3016 -0.2527  0.5595
  184SLPC  H16X21208   1.170   6.450   7.981  0.7722 -5.2066  2.4934
  184SLPC  H16Y21209   1.026   6.527   7.910 -3.7912 -1.6679  0.9249
  184SLPC  C31721210   1.068   6.340   7.824 -0.0929  0.4616 -0.1268
  184SLPC  H17X21211   0.987   6.264   7.827  0.7145 -0.3890  0.3734
  184SLPC  H17Y21212   1.166   6.288   7.826 -0.3697 -0.1743 -1.9541
  184SLPC  C31821213   1.052   6.428   7.688 -0.2824  0.3349 -0.1613
  184SLPC  H18X21214   0.970   6.502   7.699  0.8072  1.5986 -0.4672
  184SLPC  H18Y21215   1.036   6.364   7.599 -0.6230 -1.4086  1.1154
  184SLPC  H18Z21216   1.139   6.494   7.672 -0.6486  0.7219 -0.5910
  185SLPC     N21217   3.379   3.130   5.923  0.0098  0.1730  0.7530
  185SLPC   C1321218   3.325   3.200   5.804 -0.4474 -0.3614  0.5371
  185SLPC  H13A21219   3.219   3.220   5.816  0.0672  2.1807  1.2207
  185SLPC  H13B21220   3.363   3.300   5.791 -1.5936 -0.0206 -0.2318
  185SLPC  H13C21221   3.334   3.140   5.715 -2.0297 -3.0982  2.1486
  185SLPC   C1421222   3.342   3.199   6.043 -0.1232  0.1864 -0.3949
  185SLPC  H14A21223   3.355   3.305   6.026 -3.6406  0.5416 -1.2350
  185SLPC  H14B21224   3.246   3.165   6.079  0.0587 -0.7640 -0.7796
  185SLPC  H14C21225   3.415   3.175   6.119 -2.1711  0.5920  1.7693
  185SLPC   C1521226   3.527   3.119   5.901  0.1432 -0.2640 -0.0673
  185SLPC  H15A21227   3.567   3.044   5.967  1.7055  0.3776 -0.2590
  185SLPC  H15B21228   3.547   3.084   5.801  1.5900 -0.9104  0.4327
  185SLPC  H15C21229   3.576   3.213   5.925  0.5789 -0.8850  1.5213
  185SLPC   C1221230   3.329   2.989   5.928 -0.1029 -0.2881  0.2513
  185SLPC  H12A21231   3.337   2.945   5.830  0.1053  0.6749 -0.1775
  185SLPC  H12B21232   3.221   2.998   5.932 -0.1028 -0.9400  1.9904
  185SLPC   C1121233   3.367   2.895   6.042  0.8180  0.0005  0.3977
  185SLPC  H11A21234   3.307   2.804   6.023 -1.9974  1.3936  2.2482
  185SLPC  H11B21235   3.338   2.940   6.140  0.0949 -0.0499  0.2088
  185SLPC     P21236   3.565   2.742   5.989 -0.3622  0.5182 -0.1792
  185SLPC   O1321237   3.499   2.711   5.856 -0.3590  0.6499 -0.2151
  185SLPC   O1421238   3.714   2.732   5.999 -0.2818 -0.4117  0.6345
  185SLPC   O1221239   3.511   2.877   6.040 -0.6408 -0.0796  0.3406
  185SLPC   O1121240   3.500   2.649   6.099  1.0280  0.1822 -0.1995
  185SLPC    C121241   3.563   2.616   6.220  0.6884  0.6931  0.2070
  185SLPC    HA21242   3.651   2.682   6.236  0.8219  0.8369 -1.0955
  185SLPC    HB21243   3.496   2.648   6.303 -2.8577  1.8617 -2.9804
  185SLPC    C221244   3.599   2.466   6.230 -0.4728 -0.9849  0.2922
  185SLPC    HS21245   3.671   2.456   6.146 -0.1275  2.2691  0.1315
  185SLPC   O2121246   3.479   2.389   6.218  0.7293 -0.1216 -0.4565
  185SLPC   C2121247   3.498   2.252   6.206  0.2269  0.7274 -0.5147
  185SLPC   O2221248   3.606   2.200   6.199 -0.1046 -0.3363 -0.4651
  185SLPC   C2221249   3.359   2.186   6.201  0.1706 -0.4784 -0.5963
  185SLPC   H2R21250   3.283   2.265   6.221 -0.3993 -1.1009 -0.2888
  185SLPC   H2S21251   3.337   2.153   6.097  0.6215 -0.1621 -0.7919
  185SLPC    C321252   3.676   2.451   6.374 -0.0913 -0.0607 -0.5968
  185SLPC    HX21253   3.765   2.513   6.349 -0.7572  0.1574 -2.4884
  185SLPC    HY21254   3.714   2.347   6.375  0.7237  0.1870 -2.6244
  185SLPC   O3121255   3.596   2.497   6.493  0.5833 -0.9059 -0.0066
  185SLPC   C3121256   3.562   2.408   6.582 -0.2310 -0.0499  0.1774
  185SLPC   O3221257   3.599   2.292   6.570  0.1592 -0.6326  0.1450
  185SLPC   C3221258   3.460   2.467   6.675  0.7866  0.4185 -0.3992
  185SLPC   H2X21259   3.364   2.477   6.620 -0.3636 -1.4057  1.2127
  185SLPC   H2Y21260   3.491   2.571   6.699  2.2537  0.0988 -0.9110
  185SLPC   C2321261   3.328   2.059   6.293 -0.0609  0.5889  0.1533
  185SLPC   H3R21262   3.403   1.985   6.258 -3.3743 -1.8984 -2.0518
  185SLPC   H3S21263   3.223   2.028   6.271 -0.5049 -0.1498  3.0963
  185SLPC   C2421264   3.334   2.095   6.442 -0.6422 -0.4465 -0.1292
  185SLPC   H4R21265   3.263   2.180   6.451  0.4558  0.5818 -1.0915
  185SLPC   H4S21266   3.432   2.139   6.469 -2.3939  4.0009 -0.5177
  185SLPC   C2521267   3.293   1.983   6.534  0.1538  0.4193 -0.0915
  185SLPC   H5R21268   3.359   1.894   6.531  1.6899  1.5353  0.3756
  185SLPC   H5S21269   3.193   1.948   6.499 -1.6999  3.3342  2.0656
  185SLPC   C2621270   3.294   2.007   6.684 -0.3936 -0.2244 -0.2639
  185SLPC   H6R21271   3.204   2.062   6.718  0.3010  0.9832 -0.3475
  185SLPC   H6S21272   3.384   2.073   6.693 -1.4328  0.9745  1.5867
  185SLPC   C2721273   3.311   1.887   6.777 -0.5242 -0.0942 -0.4029
  185SLPC   H7R21274   3.390   1.820   6.735  1.7638  2.5353 -0.4537
  185SLPC   H7S21275   3.217   1.827   6.781  0.2562 -1.4400 -1.5932
  185SLPC   C2821276   3.363   1.926   6.921  0.2140 -1.0914  0.7574
  185SLPC   H8R21277   3.455   1.988   6.922 -1.1876  1.0947 -0.8142
  185SLPC   H8S21278   3.402   1.835   6.971  1.7180 -0.5301  0.6189
  185SLPC   C2921279   3.257   2.007   6.988  0.0330 -0.2329 -0.0492
  185SLPC   H9R21280   3.221   2.092   6.928 -1.5268  0.6870  2.1252
  185SLPC  C21021281   3.184   1.974   7.096  0.5859 -0.1516  0.5428
  185SLPC  H10R21282   3.112   2.050   7.127 -0.8507 -0.3472 -2.1691
  185SLPC  C21121283   3.210   1.861   7.191 -0.4117 -0.4708  0.7613
  185SLPC  H11R21284   3.209   1.765   7.135  0.5392 -1.4209  2.3159
  185SLPC  H11S21285   3.128   1.862   7.266  1.0370  3.3142  2.4286
  185SLPC  C21221286   3.337   1.871   7.271 -0.7789  0.2263 -0.0859
  185SLPC  H12R21287   3.415   1.934   7.226 -0.6117  1.2134  1.5676
  185SLPC  C21321288   3.370   1.794   7.382 -0.5601  1.0302 -0.4516
  185SLPC  H13R21289   3.465   1.812   7.435  0.8867 -0.4307 -2.4252
  185SLPC  C21421290   3.291   1.690   7.450  0.5399  0.3521  0.1130
  185SLPC  H14R21291   3.349   1.598   7.474 -0.9459 -1.4922 -2.9442
  185SLPC  H14S21292   3.206   1.649   7.391  0.0320  2.1857 -0.4454
  185SLPC  C21521293   3.239   1.732   7.591  0.1491  0.1893 -0.0904
  185SLPC  H15R21294   3.146   1.787   7.564  2.3811  2.6254 -3.1886
  185SLPC  H15S21295   3.309   1.799   7.644 -1.5199 -0.4237  2.9725
  185SLPC  C21621296   3.209   1.604   7.680  0.2124 -0.0082  0.5165
  185SLPC  H16R21297   3.305   1.549   7.684 -0.6081 -1.3747  2.1498
  185SLPC  H16S21298   3.137   1.537   7.628  2.0140 -1.6476  0.1163
  185SLPC  C21721299   3.156   1.650   7.817 -0.4451 -0.6367 -0.6914
  185SLPC  H17R21300   3.201   1.748   7.842  1.1316 -1.1482 -1.4615
  185SLPC  H17S21301   3.189   1.584   7.900 -1.1844 -1.1200 -0.7799
  185SLPC  C21821302   3.007   1.661   7.830 -0.1451  0.4142  0.6671
  185SLPC  H18R21303   2.974   1.688   7.933  1.6918  1.3579  1.0439
  185SLPC  H18S21304   2.958   1.566   7.802  0.0958  0.4163  0.2395
  185SLPC  H18T21305   2.964   1.745   7.772  0.2877 -0.2540 -0.6400
  185SLPC   C3321306   3.435   2.395   6.817 -0.4923  0.6371  0.2508
  185SLPC   H3X21307   3.537   2.358   6.841 -0.2073  0.4019 -1.2537
  185SLPC   H3Y21308   3.366   2.308   6.807 -0.6251  0.7471  0.2138
  185SLPC   C3421309   3.386   2.502   6.920  0.6603  0.0870 -0.4734
  185SLPC   H4X21310   3.306   2.569   6.883 -0.6460 -0.4320  1.3514
  185SLPC   H4Y21311   3.468   2.573   6.949 -1.3556  2.1225  0.4374
  185SLPC   C3521312   3.329   2.442   7.046  0.5770  0.1386 -0.0413
  185SLPC   H5X21313   3.415   2.389   7.091  0.5335  1.0346  1.1168
  185SLPC   H5Y21314   3.247   2.370   7.024  0.8465 -0.3146  0.4456
  185SLPC   C3621315   3.269   2.541   7.145 -0.0762  0.2114  0.5614
  185SLPC   H6X21316   3.200   2.607   7.088  0.8181  0.5722 -0.0963
  185SLPC   H6Y21317   3.345   2.612   7.184  2.1500 -2.5702  1.4099
  185SLPC   C3721318   3.199   2.476   7.263  0.1122 -0.3790  0.7671
  185SLPC   H7X21319   3.284   2.421   7.308  0.0678 -1.8976 -0.9661
  185SLPC   H7Y21320   3.125   2.400   7.231  0.9308 -0.5934 -0.6454
  185SLPC   C3821321   3.131   2.574   7.357  0.4180  0.0387  0.1101
  185SLPC   H8X21322   3.040   2.616   7.311 -1.3317 -0.7988  2.6680
  185SLPC   H8Y21323   3.197   2.660   7.384  0.4508 -0.6012  2.1405
  185SLPC   C3921324   3.085   2.519   7.498 -0.1838 -0.0147  0.9069
  185SLPC   H9X21325   2.981   2.482   7.485 -0.6544  1.9010 -1.0859
  185SLPC   H9Y21326   3.069   2.602   7.569  0.0908  0.5071  0.3593
  185SLPC  C31021327   3.180   2.416   7.553 -0.4941  0.0314 -0.2941
  185SLPC  H10X21328   3.288   2.440   7.556 -0.2462 -1.0974  0.7118
  185SLPC  H10Y21329   3.174   2.324   7.491 -0.9614  0.2289 -0.5420
  185SLPC  C31121330   3.150   2.392   7.697 -0.1699  0.2118  0.1794
  185SLPC  H11X21331   3.043   2.369   7.712 -0.0392 -0.9521 -0.5865
  185SLPC  H11Y21332   3.167   2.478   7.764  0.2813  0.7617 -0.6307
  185SLPC  C31221333   3.225   2.270   7.753 -0.1540 -0.1178 -0.1184
  185SLPC  H12X21334   3.335   2.285   7.748  0.3242 -3.5855 -1.3913
  185SLPC  H12Y21335   3.205   2.191   7.677  3.2767  0.5511 -1.8168
  185SLPC  C31321336   3.169   2.224   7.890 -0.2323 -0.6830  0.1573
  185SLPC  H13X21337   3.058   2.218   7.885 -0.3077  0.0325  0.7547
  185SLPC  H13Y21338   3.197   2.302   7.964 -0.8146 -1.0729  0.7866
  185SLPC  C31421339   3.220   2.080   7.923  0.4690  0.0894  0.3898
  185SLPC  H14X21340   3.330   2.074   7.923  0.6088  2.0656 -0.4674
  185SLPC  H14Y21341   3.183   2.008   7.847 -2.6073 -0.3387  2.1945
  185SLPC  C31521342   3.167   2.032   8.067 -0.0347  0.0306  0.9732
  185SLPC  H15X21343   3.221   2.103   8.133  1.1913 -0.4160  0.4591
  185SLPC  H15Y21344   3.209   1.929   8.075  0.6580  0.2852  0.5761
  185SLPC  C31621345   3.016   2.031   8.076 -0.2918  1.2165 -0.3628
  185SLPC  H16X21346   2.959   1.969   8.004 -0.3333 -0.3752  1.0242
  185SLPC  H16Y21347   2.984   2.136   8.055 -2.2202  1.1206  1.9329
  185SLPC  C31721348   2.968   1.992   8.212 -0.1219  0.1201 -1.2098
  185SLPC  H17X21349   3.032   2.035   8.291  0.7311 -1.5957 -0.9502
  185SLPC  H17Y21350   2.969   1.883   8.229 -0.9274  0.3500  0.4044
  185SLPC  C31821351   2.830   2.042   8.234 -0.2660  0.7126 -0.3133
  185SLPC  H18X21352   2.792   2.047   8.339  2.0429 -1.1458  0.6401
  185SLPC  H18Y21353   2.751   1.990   8.176  0.4725 -0.4513 -0.2899
  185SLPC  H18Z21354   2.830   2.149   8.204 -0.3241  0.8305  0.0982
  186SLPC     N21355   3.265   4.909   5.946 -0.2036 -0.3020 -0.5354
  186SLPC   C1321356   3.278   5.018   6.047  0.0144  0.1443 -0.0479
  186SLPC  H13A21357   3.280   4.985   6.150 -1.3346 -1.0510 -0.3683
  186SLPC  H13B21358   3.379   5.055   6.042 -0.1797  0.8736  1.1049
  186SLPC  H13C21359   3.212   5.103   6.044  0.8356  0.9617  3.2604
  186SLPC   C1421360   3.396   4.840   5.940  0.5070 -0.1741  0.1543
  186SLPC  H14A21361   3.396   4.772   5.855  1.6732 -0.3093  0.2563
  186SLPC  H14B21362   3.480   4.907   5.940 -0.0514  0.5851 -2.0293
  186SLPC  H14C21363   3.420   4.784   6.029 -0.1786 -0.1645  0.3434
  186SLPC   C1521364   3.233   4.976   5.815  0.2502  0.2051 -0.2938
  186SLPC  H15A21365   3.230   4.909   5.730 -0.1067  0.4439 -0.4728
  186SLPC  H15B21366   3.134   5.019   5.816  0.6050  1.0387 -0.4243
  186SLPC  H15C21367   3.304   5.052   5.787  0.0790  0.0001 -1.2926
  186SLPC   C1221368   3.148   4.816   5.971 -0.0075 -0.7689 -0.2289
  186SLPC  H12A21369   3.169   4.746   6.051 -0.8944 -0.5455  0.2094
  186SLPC  H12B21370   3.142   4.755   5.882 -0.4272  0.1890 -0.8659
  186SLPC   C1121371   3.012   4.879   6.005  0.4605 -0.0149  0.0345
  186SLPC  H11A21372   3.026   4.940   6.097  2.6263 -0.5683  0.0790
  186SLPC  H11B21373   2.940   4.796   6.020 -1.0871  0.7236 -2.8205
  186SLPC     P21374   2.835   5.055   5.908 -0.1247  0.2092  0.4868
  186SLPC   O1321375   2.779   5.063   5.768  0.3475  0.2269  0.0147
  186SLPC   O1421376   2.743   5.005   6.010  0.1299  0.3357 -0.4411
  186SLPC   O1221377   2.963   4.965   5.901 -0.1040 -0.2541  0.2877
  186SLPC   O1121378   2.881   5.201   5.945  0.0810 -0.2535 -0.2772
  186SLPC    C121379   2.939   5.227   6.073 -0.4600  0.3167  0.5636
  186SLPC    HA21380   3.015   5.154   6.108  2.4699  3.6809  1.5843
  186SLPC    HB21381   3.001   5.319   6.085 -0.9702  0.6012  1.0689
  186SLPC    C221382   2.839   5.236   6.191  0.5140  0.5795  0.6670
  186SLPC    HS21383   2.756   5.166   6.173  0.1033  1.1600  0.2731
  186SLPC   O2121384   2.800   5.373   6.200  0.4805 -0.1500  0.5098
  186SLPC   C2121385   2.689   5.385   6.275 -0.1298  0.1650 -1.0621
  186SLPC   O2221386   2.617   5.293   6.323  0.2638 -0.0159 -0.2723
  186SLPC   C2221387   2.664   5.538   6.293  0.3903 -0.8721  0.1239
  186SLPC   H2R21388   2.733   5.598   6.230 -1.5146 -0.7821 -1.9288
  186SLPC   H2S21389   2.562   5.546   6.250  0.0150 -1.8713  0.8080
  186SLPC    C321390   2.904   5.194   6.327  0.0321  0.3702  0.8289
  186SLPC    HX21391   2.948   5.093   6.321  0.4884  0.5096  1.7393
  186SLPC    HY21392   2.829   5.181   6.408 -0.8410  0.8961  0.1215
  186SLPC   O3121393   2.997   5.296   6.371  0.5535  0.2169  0.6015
  186SLPC   C3121394   3.130   5.263   6.391  0.6877 -0.1987  0.6753
  186SLPC   O3221395   3.172   5.153   6.372  0.0937  0.5464 -0.4947
  186SLPC   C3221396   3.207   5.387   6.448  0.1153  0.1575  0.0989
  186SLPC   H2X21397   3.138   5.425   6.525  0.1849 -1.6993  1.1042
  186SLPC   H2Y21398   3.206   5.465   6.369 -0.3117 -2.8491 -2.9859
  186SLPC   C2321399   2.665   5.598   6.433  0.5365  0.0051  0.0678
  186SLPC   H3R21400   2.601   5.538   6.500  0.7681 -1.3310 -0.8901
  186SLPC   H3S21401   2.628   5.703   6.434 -1.6567 -0.7494 -0.4217
  186SLPC   C2421402   2.808   5.598   6.495 -0.0539  0.4429 -0.1374
  186SLPC   H4R21403   2.864   5.674   6.435 -1.8861  2.3913  0.5548
  186SLPC   H4S21404   2.841   5.492   6.490 -2.4772 -0.3609  0.5005
  186SLPC   C2521405   2.809   5.658   6.641  0.0632  0.0290  0.0685
  186SLPC   H5R21406   2.724   5.622   6.704  0.4189 -1.2430 -0.1514
  186SLPC   H5S21407   2.803   5.768   6.626 -1.7402 -0.2950 -1.8878
  186SLPC   C2621408   2.948   5.619   6.709 -0.4933 -0.3075 -0.2948
  186SLPC   H6R21409   3.029   5.673   6.655 -0.5181  0.3069  0.2793
  186SLPC   H6S21410   2.957   5.509   6.694  0.7790 -0.3303  0.5519
  186SLPC   C2721411   2.934   5.651   6.854  0.0717 -0.3057  0.4501
  186SLPC   H7R21412   2.857   5.584   6.899  1.9731 -1.8615  1.4339
  186SLPC   H7S21413   2.883   5.750   6.864 -1.1073 -0.7382 -1.1407
  186SLPC   C2821414   3.070   5.640   6.930  0.0835 -0.2830 -0.8905
  186SLPC   H8R21415   3.141   5.701   6.871  0.7987  1.3915  1.6357
  186SLPC   H8S21416   3.105   5.534   6.926  1.5317  0.2204 -1.7877
  186SLPC   C2921417   3.057   5.702   7.068 -0.0597 -0.1686  0.3535
  186SLPC   H9R21418   3.019   5.805   7.067  3.7311  1.3173 -0.1497
  186SLPC  C21021419   3.097   5.645   7.182 -0.3171 -0.3725 -0.4172
  186SLPC  H10R21420   3.064   5.689   7.277 -2.2939  0.6977 -1.5821
  186SLPC  C21121421   3.160   5.503   7.202  0.2735 -0.5703  0.1289
  186SLPC  H11R21422   3.237   5.488   7.123  1.6677  0.1365  1.3285
  186SLPC  H11S21423   3.083   5.433   7.164 -0.8237  1.1043 -0.7722
  186SLPC  C21221424   3.218   5.465   7.335  0.3052 -0.3944  0.4750
  186SLPC  H12R21425   3.323   5.494   7.350 -0.4481  3.6063 -1.0472
  186SLPC  C21321426   3.146   5.417   7.437 -0.7535 -0.3224  0.0697
  186SLPC  H13R21427   3.197   5.384   7.529  0.1535  1.1135  0.0992
  186SLPC  C21421428   2.995   5.390   7.439 -0.3180  0.3170  0.6155
  186SLPC  H14R21429   2.974   5.307   7.510  1.0102  0.9095  1.7485
  186SLPC  H14S21430   2.960   5.359   7.338  3.6340  1.3829 -1.2010
  186SLPC  C21521431   2.913   5.517   7.476 -0.1848  0.7539 -0.4839
  186SLPC  H15R21432   2.932   5.590   7.394 -0.2777  0.0038 -1.1875
  186SLPC  H15S21433   2.953   5.560   7.570  1.8354  0.2454 -1.0874
  186SLPC  C21621434   2.765   5.495   7.482 -0.0144  0.3667  0.4720
  186SLPC  H16R21435   2.707   5.564   7.547 -1.6945 -2.3547  1.9343
  186SLPC  H16S21436   2.758   5.394   7.527  0.3466  0.6870  1.2522
  186SLPC  C21721437   2.701   5.487   7.339 -0.7402 -0.4802 -0.0097
  186SLPC  H17R21438   2.740   5.391   7.300  0.6143  0.2324 -0.4295
  186SLPC  H17S21439   2.729   5.570   7.271  1.8158 -2.0588 -0.9777
  186SLPC  C21821440   2.549   5.493   7.339  0.2786 -0.9001  0.6155
  186SLPC  H18R21441   2.518   5.600   7.347  1.6316 -0.3162 -1.4732
  186SLPC  H18S21442   2.505   5.425   7.415  2.1342 -0.7439  1.8576
  186SLPC  H18T21443   2.507   5.459   7.242 -0.2451 -1.5086  1.0565
  186SLPC   C3321444   3.350   5.362   6.507 -1.0783  0.2383 -0.0557
  186SLPC   H3X21445   3.412   5.333   6.420 -0.6480  0.5929  0.1336
  186SLPC   H3Y21446   3.345   5.264   6.559 -1.3371  0.2320 -0.0924
  186SLPC   C3421447   3.405   5.461   6.608 -0.3004 -0.8404  0.1162
  186SLPC   H4X21448   3.376   5.563   6.576  1.6198  0.1747  1.5734
  186SLPC   H4Y21449   3.516   5.456   6.603 -0.2374 -0.6580  1.3051
  186SLPC   C3521450   3.359   5.440   6.752 -0.5050  0.0732 -0.5758
  186SLPC   H5X21451   3.401   5.345   6.791  1.2728  1.4394  0.9501
  186SLPC   H5Y21452   3.251   5.414   6.746 -0.7536  1.2019 -1.0245
  186SLPC   C3621453   3.390   5.553   6.853  0.5809 -0.0261 -0.2103
  186SLPC   H6X21454   3.341   5.512   6.945 -0.2932 -1.8928 -1.4747
  186SLPC   H6Y21455   3.346   5.649   6.818 -2.7941 -1.6403 -0.6093
  186SLPC   C3721456   3.531   5.587   6.898 -0.4937  0.6784 -0.2539
  186SLPC   H7X21457   3.589   5.608   6.806  0.6929  0.4697  0.4399
  186SLPC   H7Y21458   3.568   5.495   6.949  0.3461  0.0396 -1.9583
  186SLPC   C3821459   3.528   5.698   7.002 -0.5820 -0.3278 -0.0799
  186SLPC   H8X21460   3.430   5.688   7.053  0.5188 -1.4473  1.8498
  186SLPC   H8Y21461   3.525   5.798   6.952 -1.5210 -2.0545 -3.6145
  186SLPC   C3921462   3.633   5.693   7.110  0.4824 -0.1887 -0.0293
  186SLPC   H9X21463   3.731   5.714   7.062 -0.6526  1.0165 -1.8612
  186SLPC   H9Y21464   3.635   5.586   7.142  0.3131 -0.0935  0.2974
  186SLPC  C31021465   3.607   5.773   7.238  0.2154  0.2245 -0.0549
  186SLPC  H10X21466   3.568   5.869   7.198 -0.1732  1.1778  2.4993
  186SLPC  H10Y21467   3.707   5.781   7.285  0.2670  1.5816 -0.3534
  186SLPC  C31121468   3.497   5.717   7.329  0.7838 -0.5653 -0.2668
  186SLPC  H11X21469   3.526   5.611   7.341  1.6981 -0.3027 -0.1325
  186SLPC  H11Y21470   3.402   5.742   7.277 -0.4319  1.8403  2.9406
  186SLPC  C31221471   3.503   5.793   7.467  0.2695  0.7990 -0.4473
  186SLPC  H12X21472   3.406   5.799   7.521  0.1554 -1.8456 -0.2702
  186SLPC  H12Y21473   3.525   5.899   7.443  3.9803  0.7526  2.2553
  186SLPC  C31321474   3.613   5.747   7.565 -0.1572 -0.6933 -0.9248
  186SLPC  H13X21475   3.707   5.739   7.507 -0.1756 -0.9360 -0.9209
  186SLPC  H13Y21476   3.598   5.647   7.612  1.1244 -0.8026 -0.7151
  186SLPC  C31421477   3.624   5.845   7.687 -0.4019 -0.1064 -0.0781
  186SLPC  H14X21478   3.528   5.845   7.743  0.0164  0.9989  0.6703
  186SLPC  H14Y21479   3.632   5.950   7.651 -0.4142  0.8990  2.7300
  186SLPC  C31521480   3.730   5.802   7.778 -0.9830  1.3777 -0.2394
  186SLPC  H15X21481   3.834   5.806   7.739 -0.8419  0.5384  0.0516
  186SLPC  H15Y21482   3.719   5.694   7.798  1.3295  0.5060 -3.4037
  186SLPC  C31621483   3.713   5.878   7.916  0.6861 -0.0518  0.0060
  186SLPC  H16X21484   3.606   5.907   7.927  0.6982 -0.0313  0.0791
  186SLPC  H16Y21485   3.774   5.969   7.898 -0.6730  0.8387 -0.1538
  186SLPC  C31721486   3.764   5.816   8.046 -0.5539 -0.3433 -0.0805
  186SLPC  H17X21487   3.756   5.902   8.115 -0.2662  1.2277 -1.9435
  186SLPC  H17Y21488   3.872   5.790   8.037 -0.3631  0.4038  0.0342
  186SLPC  C31821489   3.689   5.694   8.106  1.1551  0.4513  0.5523
  186SLPC  H18X21490   3.755   5.654   8.186  1.5221  1.6551  0.8476
  186SLPC  H18Y21491   3.673   5.610   8.035  1.0386 -1.5936  2.9292
  186SLPC  H18Z21492   3.590   5.724   8.145  1.4152  0.3338  1.3048
  187SLPC     N21493   3.561   1.138   5.811  0.4945  0.5131 -0.6446
  187SLPC   C1321494   3.445   1.217   5.755  0.6025 -0.3452 -0.4038
  187SLPC  H13A21495   3.421   1.307   5.810 -1.4407  0.0281 -1.8197
  187SLPC  H13B21496   3.464   1.241   5.652  0.5788 -1.0726 -0.5834
  187SLPC  H13C21497   3.356   1.155   5.756 -0.6217  1.3459 -1.8879
  187SLPC   C1421498   3.672   1.239   5.812 -0.6637  0.9609 -0.4412
  187SLPC  H14A21499   3.707   1.258   5.712  1.9962  1.3466  0.5367
  187SLPC  H14B21500   3.645   1.331   5.861  1.5485 -0.1889  3.1033
  187SLPC  H14C21501   3.759   1.193   5.857 -1.2279  0.6567  0.3483
  187SLPC   C1521502   3.592   1.024   5.718 -0.2273 -0.6178 -0.0717
  187SLPC  H15A21503   3.514   0.949   5.720 -1.3748  0.5595 -0.0598
  187SLPC  H15B21504   3.590   1.064   5.618 -1.0820  0.1160  0.2261
  187SLPC  H15C21505   3.689   0.980   5.737  0.5364  1.4258  0.9256
  187SLPC   C1221506   3.539   1.092   5.951 -0.0278 -1.2903 -0.1833
  187SLPC  H12A21507   3.614   1.017   5.971 -0.4309 -1.2544  1.5379
  187SLPC  H12B21508   3.447   1.035   5.955 -1.3871  1.0088  3.5898
  187SLPC   C1121509   3.517   1.183   6.075  0.3362 -0.5663 -0.5015
  187SLPC  H11A21510   3.603   1.251   6.096  0.2808 -0.0622 -1.8291
  187SLPC  H11B21511   3.506   1.116   6.163 -0.3452  0.8659  0.5403
  187SLPC     P21512   3.262   1.216   6.080  0.4657  0.1012  0.1151
  187SLPC   O1321513   3.162   1.321   6.041 -0.8986 -0.1980  0.5010
  187SLPC   O1421514   3.245   1.080   6.018 -0.2919 -0.7571  0.2175
  187SLPC   O1221515   3.407   1.268   6.048  0.1748  0.1351 -0.9181
  187SLPC   O1121516   3.267   1.206   6.232 -0.1583  0.5772  0.2899
  187SLPC    C121517   3.194   1.296   6.314 -0.4154  0.2356  0.3222
  187SLPC    HA21518   3.085   1.295   6.291 -0.2722 -1.1663 -0.4171
  187SLPC    HB21519   3.208   1.252   6.415 -0.6586  0.5349  0.4885
  187SLPC    C221520   3.261   1.434   6.318  0.4755  0.0494  0.1739
  187SLPC    HS21521   3.250   1.465   6.212  0.5964  2.3801  0.8208
  187SLPC   O2121522   3.407   1.415   6.341  0.0056 -0.3924 -0.1156
  187SLPC   C2121523   3.482   1.514   6.303 -0.0489  0.2572 -0.5337
  187SLPC   O2221524   3.450   1.613   6.233  0.2770 -0.3264  0.4866
  187SLPC   C2221525   3.631   1.475   6.330  1.0689  0.0511 -0.1999
  187SLPC   H2R21526   3.642   1.384   6.267  1.0783 -0.5325  0.6300
  187SLPC   H2S21527   3.698   1.553   6.289  1.7847  0.3086  1.3887
  187SLPC    C321528   3.189   1.532   6.425 -0.5050 -0.0323  0.1794
  187SLPC    HX21529   3.080   1.533   6.406 -0.5626 -0.7957  0.4652
  187SLPC    HY21530   3.234   1.633   6.417  0.1502 -0.1194  2.5408
  187SLPC   O3121531   3.203   1.485   6.558 -0.5427 -0.1094 -0.5723
  187SLPC   C3121532   3.319   1.518   6.625 -0.3498 -0.1730  0.1422
  187SLPC   O3221533   3.403   1.602   6.591 -0.2409  0.2230  0.3311
  187SLPC   C3221534   3.326   1.433   6.743  0.4880  0.9624 -0.4336
  187SLPC   H2X21535   3.355   1.330   6.712 -0.7624  0.1578  0.9768
  187SLPC   H2Y21536   3.228   1.427   6.795  0.9678  0.3594  0.4201
  187SLPC   C2321537   3.683   1.437   6.472  0.3901 -0.2394 -0.2967
  187SLPC   H3R21538   3.653   1.514   6.547  2.9863  1.6181 -1.0865
  187SLPC   H3S21539   3.792   1.417   6.465  0.5144  0.6627 -1.2165
  187SLPC   C2421540   3.633   1.299   6.542 -0.1412  0.5157 -0.3014
  187SLPC   H4R21541   3.639   1.217   6.468  2.3991 -1.1775  1.7343
  187SLPC   H4S21542   3.531   1.310   6.585  1.6136  1.3959  3.9034
  187SLPC   C2521543   3.727   1.263   6.658  0.4859 -0.4702 -0.0998
  187SLPC   H5R21544   3.719   1.337   6.741 -1.1972 -1.6581  0.8214
  187SLPC   H5S21545   3.834   1.267   6.626  0.1494 -3.1950 -1.6670
  187SLPC   C2621546   3.709   1.116   6.706  0.8501 -0.4527  0.5152
  187SLPC   H6R21547   3.705   1.050   6.617  3.2998 -1.6264  1.2163
  187SLPC   H6S21548   3.611   1.094   6.753  1.2193  2.9422  3.0648
  187SLPC   C2721549   3.816   1.057   6.797  0.0789  0.2870  0.2722
  187SLPC   H7R21550   3.913   1.051   6.743 -0.0387 -1.3528  0.2261
  187SLPC   H7S21551   3.781   0.953   6.816  1.7686  0.2152  3.2313
  187SLPC   C2821552   3.820   1.137   6.931  0.5948  0.1702 -0.2711
  187SLPC   H8R21553   3.713   1.136   6.961 -0.5988 -0.2205 -4.2353
  187SLPC   H8S21554   3.850   1.243   6.916  0.2676  0.2001 -0.7227
  187SLPC   C2921555   3.908   1.066   7.038 -0.3158 -1.2432 -0.0228
  187SLPC   H9R21556   3.922   0.959   7.016  0.2790 -1.1203 -0.2351
  187SLPC  C21021557   3.987   1.126   7.133 -0.5029  0.3949  0.5395
  187SLPC  H10R21558   4.049   1.066   7.202 -1.6450  0.6932  1.8453
  187SLPC  C21121559   4.010   1.276   7.147  0.7536  0.7665 -0.5507
  187SLPC  H11R21560   3.975   1.320   7.243  1.4765  0.3213 -0.0741
  187SLPC  H11S21561   3.949   1.330   7.072 -1.9931 -2.6775 -0.9162
  187SLPC  C21221562   4.160   1.312   7.120 -0.2122 -0.3400  0.4242
  187SLPC  H12R21563   4.186   1.310   7.013  1.0178  1.7341  0.6561
  187SLPC  C21321564   4.258   1.338   7.208 -0.0626 -0.4321 -0.6030
  187SLPC  H13R21565   4.357   1.360   7.167  0.0909 -2.0398 -1.1554
  187SLPC  C21421566   4.237   1.328   7.355 -0.7530 -0.5423  1.2689
  187SLPC  H14R21567   4.156   1.255   7.375 -2.5387  0.9228 -0.3710
  187SLPC  H14S21568   4.200   1.430   7.380 -1.7541 -0.0313 -2.0913
  187SLPC  C21521569   4.356   1.273   7.436 -0.2102 -0.4153 -0.0202
  187SLPC  H15R21570   4.395   1.176   7.398 -1.1891 -0.0509 -2.0550
  187SLPC  H15S21571   4.329   1.273   7.544  2.0442  3.7572  0.6441
  187SLPC  C21621572   4.471   1.372   7.437 -0.0929 -0.0425  1.0292
  187SLPC  H16R21573   4.441   1.469   7.482  1.3288  1.4032 -1.0406
  187SLPC  H16S21574   4.509   1.392   7.335 -0.9043  0.0737  0.7462
  187SLPC  C21721575   4.602   1.310   7.498  0.0194 -0.3762 -0.4604
  187SLPC  H17R21576   4.570   1.260   7.592 -0.5593 -0.1266 -0.5221
  187SLPC  H17S21577   4.676   1.385   7.532  0.5645 -1.6528  1.3070
  187SLPC  C21821578   4.687   1.206   7.419 -0.2573 -0.5907  0.6444
  187SLPC  H18R21579   4.787   1.201   7.467 -1.0194 -1.6414  2.1893
  187SLPC  H18S21580   4.700   1.233   7.312  1.3658 -2.5907  0.3063
  187SLPC  H18T21581   4.642   1.104   7.420  0.0861 -0.7695 -0.7672
  187SLPC   C3321582   3.423   1.498   6.842 -0.5984  0.1908 -0.4886
  187SLPC   H3X21583   3.380   1.594   6.875 -0.1872 -0.5737  2.3596
  187SLPC   H3Y21584   3.521   1.533   6.803 -0.9878  2.3123  0.3830
  187SLPC   C3421585   3.440   1.409   6.961  0.0396 -0.0969 -0.2527
  187SLPC   H4X21586   3.517   1.330   6.952  0.0009 -0.3286  1.3523
  187SLPC   H4Y21587   3.351   1.355   6.999  0.9942 -1.1664  0.4928
  187SLPC   C3521588   3.496   1.492   7.080  0.3856 -0.0577 -0.1375
  187SLPC   H5X21589   3.427   1.561   7.132 -0.0217  0.8367 -1.8291
  187SLPC   H5Y21590   3.585   1.553   7.053 -0.3323  0.8067 -0.5488
  187SLPC   C3621591   3.531   1.401   7.202  0.0516  0.2265 -1.0737
  187SLPC   H6X21592   3.603   1.324   7.165 -0.0093 -0.5222  0.3134
  187SLPC   H6Y21593   3.448   1.342   7.246  0.9442 -0.9112 -0.8802
  187SLPC   C3721594   3.608   1.467   7.327  0.1838  0.4037 -0.2397
  187SLPC   H7X21595   3.691   1.528   7.285  0.0931 -0.4009 -1.6351
  187SLPC   H7Y21596   3.532   1.527   7.380 -1.0560  1.5166 -3.1490
  187SLPC   C3821597   3.659   1.349   7.416 -0.6919 -0.0219 -0.2644
  187SLPC   H8X21598   3.747   1.302   7.367  0.5494 -0.0600  1.9622
  187SLPC   H8Y21599   3.583   1.271   7.435 -1.6956  1.6040  2.6016
  187SLPC   C3921600   3.704   1.408   7.551 -0.7513 -0.6222 -0.3623
  187SLPC   H9X21601   3.620   1.446   7.614 -0.0191 -2.3663  1.7292
  187SLPC   H9Y21602   3.779   1.490   7.544 -1.6292  0.1261 -1.0736
  187SLPC  C31021603   3.758   1.302   7.644  0.2569 -0.4034 -0.1582
  187SLPC  H10X21604   3.686   1.218   7.642 -1.3791  0.9803 -0.8849
  187SLPC  H10Y21605   3.770   1.344   7.747  0.0049  0.7431 -0.5921
  187SLPC  C31121606   3.893   1.246   7.610  0.4554  0.0323  0.7409
  187SLPC  H11X21607   3.970   1.325   7.624  1.3541 -0.8728  0.8945
  187SLPC  H11Y21608   3.894   1.207   7.506 -1.4976  1.6082  0.0983
  187SLPC  C31221609   3.949   1.135   7.699  0.9452 -0.1232 -0.2568
  187SLPC  H12X21610   3.869   1.064   7.728  2.6464 -2.8138 -1.9771
  187SLPC  H12Y21611   3.992   1.184   7.790  0.0878 -1.6531  0.9914
  187SLPC  C31321612   4.066   1.059   7.628  0.4832  0.7799 -0.8533
  187SLPC  H13X21613   4.148   1.129   7.604  2.0477 -0.6718  0.0900
  187SLPC  H13Y21614   4.032   1.026   7.528  2.1514  1.7391 -1.7516
  187SLPC  C31421615   4.126   0.945   7.711  0.1313 -0.2970  0.0207
  187SLPC  H14X21616   4.056   0.863   7.739 -0.1496 -0.1094 -0.1309
  187SLPC  H14Y21617   4.174   0.974   7.806  0.2057 -1.7861  0.4585
  187SLPC  C31521618   4.239   0.883   7.626 -0.7491  0.3099  0.6292
  187SLPC  H15X21619   4.311   0.950   7.575  2.5381 -2.2418  1.7222
  187SLPC  H15Y21620   4.183   0.832   7.544 -1.1629  0.4219  0.8408
  187SLPC  C31621621   4.299   0.770   7.705 -0.5310  1.2299 -1.0930
  187SLPC  H16X21622   4.221   0.692   7.721 -0.5985  1.9640  2.6139
  187SLPC  H16Y21623   4.342   0.801   7.803 -2.1673  0.1537 -0.0094
  187SLPC  C31721624   4.405   0.705   7.618 -0.5633 -0.1826  0.6381
  187SLPC  H17X21625   4.496   0.768   7.605 -1.5703  1.4921  1.4735
  187SLPC  H17Y21626   4.357   0.687   7.520  0.9181 -2.2303  0.2455
  187SLPC  C31821627   4.447   0.561   7.660 -0.5653  0.1633 -0.5152
  187SLPC  H18X21628   4.355   0.501   7.675 -0.4192 -0.9047 -3.5122
  187SLPC  H18Y21629   4.506   0.578   7.752  1.5549  0.2588 -1.8736
  187SLPC  H18Z21630   4.518   0.514   7.589 -0.4253  0.6644 -0.7062
  188SLPC     N21631   5.878   3.448   5.988 -0.1888  0.4973  0.2435
  188SLPC   C1321632   5.752   3.511   5.966  0.4988 -0.1311 -0.1810
  188SLPC  H13A21633   5.676   3.474   6.034  0.1731 -1.6325 -1.3223
  188SLPC  H13B21634   5.756   3.619   5.971  1.4443 -0.2214  1.2932
  188SLPC  H13C21635   5.717   3.480   5.868 -2.8547 -3.4755  1.9100
  188SLPC   C1421636   5.916   3.457   6.132 -0.1572 -0.0879  0.0829
  188SLPC  H14A21637   5.890   3.553   6.174  0.6851  0.7673 -1.3247
  188SLPC  H14B21638   5.872   3.374   6.186  0.0507 -0.6042 -0.5412
  188SLPC  H14C21639   6.024   3.450   6.131 -0.0371  1.7564 -0.7385
  188SLPC   C1521640   5.987   3.517   5.903 -0.2523 -0.9085  0.6452
  188SLPC  H15A21641   6.000   3.622   5.923 -0.1305 -1.0325  1.2122
  188SLPC  H15B21642   6.082   3.468   5.913 -0.0726 -0.3722  1.5798
  188SLPC  H15C21643   5.958   3.520   5.799 -0.4091 -1.4771  0.6703
  188SLPC   C1221644   5.872   3.295   5.964  0.2793  0.8620  0.5574
  188SLPC  H12A21645   5.807   3.248   6.036 -2.6796 -0.4792 -2.8455
  188SLPC  H12B21646   5.966   3.251   5.993  0.8890  1.4458 -0.5279
  188SLPC   C1121647   5.817   3.243   5.825  0.0651  0.4582 -0.2272
  188SLPC  H11A21648   5.849   3.136   5.826 -0.5494  0.2878  1.4043
  188SLPC  H11B21649   5.875   3.301   5.750  1.7744 -0.4638  0.3498
  188SLPC     P21650   5.570   3.162   5.880  0.0657  0.0432  0.0597
  188SLPC   O1321651   5.461   3.238   5.951 -0.8771  0.6462 -0.5430
  188SLPC   O1421652   5.533   3.063   5.783  0.2461 -0.0567 -0.1732
  188SLPC   O1221653   5.676   3.257   5.819 -0.1934  0.2121  0.6497
  188SLPC   O1121654   5.651   3.080   5.982 -0.3812  0.4722  0.2609
  188SLPC    C121655   5.606   2.976   6.070 -0.7849 -0.3144 -0.3558
  188SLPC    HA21656   5.495   2.980   6.061 -0.6586 -1.1995 -2.5961
  188SLPC    HB21657   5.643   2.873   6.050 -0.8733 -0.6547  1.1575
  188SLPC    C221658   5.647   3.008   6.219 -0.3287 -0.1329  0.5074
  188SLPC    HS21659   5.589   2.934   6.280  0.5126 -0.8609  0.4285
  188SLPC   O2121660   5.627   3.148   6.253  0.1292  0.0013  0.6225
  188SLPC   C2121661   5.500   3.191   6.261 -0.4189 -0.5196  1.2849
  188SLPC   O2221662   5.405   3.114   6.259  0.9770  0.7678  0.1990
  188SLPC   C2221663   5.505   3.347   6.262  0.3895  0.2975  0.4714
  188SLPC   H2R21664   5.552   3.384   6.169 -0.7623  1.0526  0.1839
  188SLPC   H2S21665   5.399   3.378   6.266 -0.2601 -1.9864  2.4496
  188SLPC    C321666   5.801   2.981   6.234 -0.2021 -0.8703  0.8498
  188SLPC    HX21667   5.851   3.042   6.156 -0.2590 -0.5021  1.0997
  188SLPC    HY21668   5.822   2.873   6.216  0.6973 -0.7309  1.0205
  188SLPC   O3121669   5.860   3.011   6.361  0.0329 -0.2259  0.1969
  188SLPC   C3121670   5.906   3.135   6.371  0.4878 -0.8609 -0.6624
  188SLPC   O3221671   5.926   3.211   6.280  0.0959 -0.1816 -0.0379
  188SLPC   C3221672   5.941   3.167   6.523  0.3624  0.1720 -0.6334
  188SLPC   H2X21673   5.941   3.083   6.595  2.1489  1.4565  0.9398
  188SLPC   H2Y21674   5.857   3.237   6.542  1.4171  1.0237  1.1081
  188SLPC   C2321675   5.587   3.394   6.376  0.6108 -0.1709 -0.4714
  188SLPC   H3R21676   5.572   3.504   6.371  0.6981 -0.1859 -1.0945
  188SLPC   H3S21677   5.694   3.364   6.367  0.9309  0.6334  0.5884
  188SLPC   C2421678   5.541   3.336   6.517 -0.1173 -0.8343  0.8638
  188SLPC   H4R21679   5.580   3.233   6.533 -1.2942 -1.1189  1.8749
  188SLPC   H4S21680   5.431   3.326   6.521 -0.4929  1.7707 -1.2954
  188SLPC   C2521681   5.583   3.420   6.641  0.6180 -0.5664  0.0451
  188SLPC   H5R21682   5.553   3.524   6.617 -0.0518 -0.9507 -0.8052
  188SLPC   H5S21683   5.691   3.417   6.665  1.1097  4.7761 -0.8773
  188SLPC   C2621684   5.508   3.370   6.767  0.0635 -0.4832 -0.2809
  188SLPC   H6R21685   5.514   3.259   6.770  2.8899 -0.3482 -0.0322
  188SLPC   H6S21686   5.399   3.390   6.753 -0.3648  0.1696  3.3232
  188SLPC   C2721687   5.572   3.434   6.892  0.2949 -0.5150 -0.4184
  188SLPC   H7R21688   5.570   3.544   6.875  1.8329 -0.7877 -2.5040
  188SLPC   H7S21689   5.678   3.412   6.914  0.5180  0.9745  0.0355
  188SLPC   C2821690   5.485   3.406   7.013  0.1891 -0.4146 -0.8078
  188SLPC   H8R21691   5.480   3.298   7.037 -1.4008 -0.1826 -0.0157
  188SLPC   H8S21692   5.384   3.440   6.980 -0.9712 -3.7849 -0.9706
  188SLPC   C2921693   5.530   3.482   7.129 -0.6050 -0.5257  0.2169
  188SLPC   H9R21694   5.547   3.588   7.107 -0.8513 -0.9218 -1.9871
  188SLPC  C21021695   5.548   3.441   7.253 -0.2575  0.4903 -0.2329
  188SLPC  H10R21696   5.563   3.522   7.326  2.6287  0.2187 -0.4616
  188SLPC  C21121697   5.528   3.298   7.300  0.3107  0.5255  0.4109
  188SLPC  H11R21698   5.565   3.289   7.405  1.7932 -1.3266 -0.2244
  188SLPC  H11S21699   5.584   3.233   7.229  0.1722 -0.4620  1.1833
  188SLPC  C21221700   5.384   3.254   7.303  0.0017 -0.2846 -0.5912
  188SLPC  H12R21701   5.309   3.333   7.288 -0.4179 -0.7334 -0.8595
  188SLPC  C21321702   5.346   3.129   7.357  0.6519 -0.3733  0.1994
  188SLPC  H13R21703   5.239   3.107   7.359  0.3341  0.9034 -1.4617
  188SLPC  C21421704   5.426   3.023   7.417  1.0594 -0.1463  0.2138
  188SLPC  H14R21705   5.535   3.042   7.411  1.4539 -2.0520  1.0375
  188SLPC  H14S21706   5.406   2.928   7.364  0.1541 -0.2908  0.8113
  188SLPC  C21521707   5.391   3.016   7.567 -0.0938  0.4905  0.5761
  188SLPC  H15R21708   5.285   2.988   7.588 -0.4397 -0.3026 -1.9534
  188SLPC  H15S21709   5.415   3.111   7.619  0.7852  1.0252 -0.7937
  188SLPC  C21621710   5.483   2.921   7.644  0.4716 -0.7383 -0.9023
  188SLPC  H16R21711   5.483   2.821   7.596 -2.6144 -1.5200  0.5528
  188SLPC  H16S21712   5.444   2.899   7.746 -0.6666  2.7782 -0.5225
  188SLPC  C21721713   5.633   2.956   7.645 -0.2029  0.1449  0.0765
  188SLPC  H17R21714   5.642   3.067   7.637  0.6812  0.3076  2.6940
  188SLPC  H17S21715   5.680   2.931   7.548  0.1388 -1.2942  0.5990
  188SLPC  C21821716   5.718   2.891   7.752  0.6504  0.4468 -0.2377
  188SLPC  H18R21717   5.716   2.781   7.738 -0.4736  0.3430  0.6429
  188SLPC  H18S21718   5.687   2.914   7.856  0.4425  0.4454 -0.2990
  188SLPC  H18T21719   5.818   2.939   7.746 -1.2878  4.5776 -1.5991
  188SLPC   C3321720   6.070   3.254   6.530  0.1581 -0.2177 -0.3351
  188SLPC   H3X21721   6.042   3.354   6.491  1.9553 -1.2182 -4.4818
  188SLPC   H3Y21722   6.155   3.208   6.475  0.6732  0.7702 -0.3637
  188SLPC   C3421723   6.106   3.279   6.679  0.1317 -0.5687  0.1091
  188SLPC   H4X21724   6.008   3.289   6.730  1.0086  0.7085  1.5975
  188SLPC   H4Y21725   6.162   3.374   6.697 -1.2524 -0.0835  2.0804
  188SLPC   C3521726   6.184   3.166   6.747 -0.5244 -0.3429  0.4491
  188SLPC   H5X21727   6.289   3.175   6.713 -0.4657 -3.9064 -0.5365
  188SLPC   H5Y21728   6.139   3.070   6.715 -0.8229  0.3979 -1.3859
  188SLPC   C3621729   6.173   3.176   6.903 -0.1022  0.3191  1.1589
  188SLPC   H6X21730   6.064   3.168   6.920 -0.3835 -0.5548 -0.9427
  188SLPC   H6Y21731   6.194   3.277   6.945  1.2271  0.3533  0.4391
  188SLPC   C3721732   6.246   3.064   6.975 -0.3057 -0.1352 -0.1347
  188SLPC   H7X21733   6.357   3.074   6.975 -0.1455 -1.3571  2.9047
  188SLPC   H7Y21734   6.228   2.970   6.918 -0.7976 -0.7910  1.0764
  188SLPC   C3821735   6.210   3.035   7.120 -0.1074 -0.1665 -0.1919
  188SLPC   H8X21736   6.302   3.075   7.168  0.1570  0.7455 -1.4405
  188SLPC   H8Y21737   6.208   2.926   7.139 -1.2864 -0.4741 -1.9343
  188SLPC   C3921738   6.079   3.103   7.178 -0.2749 -0.4158 -0.2349
  188SLPC   H9X21739   6.084   3.212   7.158  0.7112 -0.3620  0.3075
  188SLPC   H9Y21740   6.077   3.106   7.289  1.5216  0.1277 -0.2095
  188SLPC  C31021741   5.954   3.029   7.130  0.6646  0.2246  0.6543
  188SLPC  H10X21742   5.975   2.920   7.137 -1.5944 -0.3765 -1.2621
  188SLPC  H10Y21743   5.951   3.038   7.019 -1.0579  1.5467  0.7956
  188SLPC  C31121744   5.824   3.077   7.193  0.2813 -0.3257 -0.6548
  188SLPC  H11X21745   5.800   3.178   7.153 -0.6202 -0.5552 -0.6969
  188SLPC  H11Y21746   5.819   3.082   7.304 -0.8568 -1.4071 -0.6534
  188SLPC  C31221747   5.715   2.976   7.152  0.2205  0.1294 -0.1470
  188SLPC  H12X21748   5.705   2.955   7.043  2.1938 -0.7777 -0.1686
  188SLPC  H12Y21749   5.621   3.028   7.179  0.3480  0.2904 -0.0210
  188SLPC  C31321750   5.724   2.833   7.213 -0.0036 -0.9071  0.5728
  188SLPC  H13X21751   5.710   2.854   7.322  1.4862  3.8679 -0.0327
  188SLPC  H13Y21752   5.823   2.782   7.210 -0.2196 -1.2914 -0.0305
  188SLPC  C31421753   5.620   2.741   7.156  0.0286 -0.4862  0.8975
  188SLPC  H14X21754   5.618   2.725   7.046  0.1690  2.0536  0.5007
  188SLPC  H14Y21755   5.525   2.797   7.167 -0.0813 -0.6655  0.8691
  188SLPC  C31521756   5.607   2.603   7.224 -0.1445 -0.1719 -0.3216
  188SLPC  H15X21757   5.701   2.543   7.224  0.6041  0.9823  0.3030
  188SLPC  H15Y21758   5.532   2.541   7.171 -0.4751  2.2237 -2.7396
  188SLPC  C31621759   5.556   2.612   7.371  0.1468 -0.2694  0.2895
  188SLPC  H16X21760   5.463   2.672   7.370  0.0364 -0.4287 -1.9075
  188SLPC  H16Y21761   5.636   2.670   7.423  0.3596 -0.3151  0.0153
  188SLPC  C31721762   5.531   2.484   7.441 -0.0588 -0.0842  0.3160
  188SLPC  H17X21763   5.598   2.404   7.403  1.0063  1.0083 -0.1398
  188SLPC  H17Y21764   5.424   2.464   7.418 -0.0896  1.3727 -0.8684
  188SLPC  C31821765   5.528   2.478   7.601 -0.1198  0.2645  0.1192
  188SLPC  H18X21766   5.493   2.376   7.627 -0.2585  0.2288 -0.2135
  188SLPC  H18Y21767   5.454   2.545   7.650 -0.3329  0.5584 -0.5970
  188SLPC  H18Z21768   5.630   2.497   7.642 -0.5572  0.2474  1.2342
  189SLPC     N21769   6.330   3.936   5.964  0.6849 -0.4752 -0.0981
  189SLPC   C1321770   6.257   4.057   6.016  0.0775 -0.0612  0.2415
  189SLPC  H13A21771   6.160   4.074   5.972  0.3665 -3.1623 -1.7318
  189SLPC  H13B21772   6.249   4.047   6.123 -0.0866  4.2298  0.7131
  189SLPC  H13C21773   6.312   4.145   5.987 -1.0512 -0.3802 -3.1955
  189SLPC   C1421774   6.438   3.908   6.060  0.3739  0.4498  0.2555
  189SLPC  H14A21775   6.406   3.836   6.133  2.9972 -1.9062 -0.8496
  189SLPC  H14B21776   6.517   3.851   6.014  0.7186  0.3035  1.0265
  189SLPC  H14C21777   6.467   3.998   6.113  0.2469  0.8540 -0.3558
  189SLPC   C1521778   6.382   3.965   5.829 -0.7669 -0.2112 -0.6713
  189SLPC  H15A21779   6.435   3.883   5.781 -1.9046 -0.9378 -0.7091
  189SLPC  H15B21780   6.306   3.990   5.757 -0.6574  0.5494 -0.5263
  189SLPC  H15C21781   6.451   4.047   5.823 -2.4342  1.1822 -1.1026
  189SLPC   C1221782   6.222   3.824   5.964  0.1264 -0.8232 -0.0225
  189SLPC  H12A21783   6.271   3.739   5.919 -0.4530 -0.5824 -1.1278
  189SLPC  H12B21784   6.140   3.832   5.895 -1.4169 -5.1118  1.1834
  189SLPC   C1121785   6.167   3.770   6.103 -0.0909  0.1511 -0.1790
  189SLPC  H11A21786   6.080   3.703   6.097 -1.2715  1.7034 -0.8211
  189SLPC  H11B21787   6.129   3.853   6.168  0.8249  0.7320 -0.3598
  189SLPC     P21788   6.308   3.546   6.140  0.4487 -0.3238  0.1072
  189SLPC   O1321789   6.215   3.456   6.208  0.5921  0.1307  0.3211
  189SLPC   O1421790   6.313   3.531   5.995  0.4479 -0.0665 -0.7719
  189SLPC   O1221791   6.274   3.699   6.162 -0.5485 -0.2963  0.5903
  189SLPC   O1121792   6.458   3.536   6.193 -0.4052  0.3453  0.4870
  189SLPC    C121793   6.486   3.459   6.310  0.2283 -0.0511 -0.3392
  189SLPC    HA21794   6.406   3.465   6.387  0.3561 -1.8982 -0.0373
  189SLPC    HB21795   6.493   3.349   6.296  1.0913  0.2519 -2.4491
  189SLPC    C221796   6.614   3.496   6.382 -0.0279 -0.2195 -0.7436
  189SLPC    HS21797   6.692   3.484   6.303 -0.6551  1.9410 -1.7284
  189SLPC   O2121798   6.630   3.411   6.504 -0.4276 -0.2577  0.1986
  189SLPC   C2121799   6.700   3.301   6.475  0.0955  0.7682  0.3352
  189SLPC   O2221800   6.744   3.264   6.365 -0.1418 -1.0057 -0.2656
  189SLPC   C2221801   6.725   3.216   6.607 -0.1571 -0.3887  0.1862
  189SLPC   H2R21802   6.741   3.112   6.570 -1.3832 -0.5671  0.1342
  189SLPC   H2S21803   6.825   3.249   6.642  0.9628 -3.5082  0.1322
  189SLPC    C321804   6.608   3.646   6.426 -0.8341 -0.0397 -0.4509
  189SLPC    HX21805   6.592   3.712   6.338 -2.6795  0.9724  0.6062
  189SLPC    HY21806   6.696   3.687   6.479 -1.6170  1.9589 -0.6434
  189SLPC   O3121807   6.502   3.664   6.517  0.2756  0.0954 -0.2836
  189SLPC   C3121808   6.425   3.769   6.508 -0.0130 -0.7605 -0.1839
  189SLPC   O3221809   6.434   3.860   6.428 -0.2646  0.4128  1.0812
  189SLPC   C3221810   6.298   3.747   6.596  0.1185 -0.5784  0.0683
  189SLPC   H2X21811   6.214   3.743   6.523 -1.0134  2.7702  1.0759
  189SLPC   H2Y21812   6.291   3.831   6.670  2.3180 -0.4810  0.1808
  189SLPC   C2321813   6.606   3.224   6.708  0.5181 -1.3319  0.2312
  189SLPC   H3R21814   6.517   3.179   6.659 -0.4661 -0.2254  0.9859
  189SLPC   H3S21815   6.588   3.330   6.735 -0.1375 -1.2082 -0.6877
  189SLPC   C2421816   6.637   3.152   6.843 -0.5048  0.5420 -0.0182
  189SLPC   H4R21817   6.652   3.044   6.821  2.4668  0.8722  0.0762
  189SLPC   H4S21818   6.542   3.168   6.898 -0.3944 -1.6789  0.8854
  189SLPC   C2521819   6.758   3.196   6.936  0.5521 -0.1620 -0.9688
  189SLPC   H5R21820   6.737   3.298   6.975 -0.0304  0.8280 -3.7528
  189SLPC   H5S21821   6.851   3.198   6.875  0.8855 -0.0832 -0.4555
  189SLPC   C2621822   6.778   3.102   7.055  0.0362 -0.3537  0.8190
  189SLPC   H6R21823   6.799   2.999   7.020  0.4019 -0.1825  0.5276
  189SLPC   H6S21824   6.687   3.120   7.117 -0.3484 -1.7527  0.6837
  189SLPC   C2721825   6.891   3.138   7.149  0.2596  0.0736  0.0235
  189SLPC   H7R21826   6.985   3.113   7.096 -0.3588 -0.2767 -0.9061
  189SLPC   H7S21827   6.880   3.075   7.239  1.4189  0.2286  0.2868
  189SLPC   C2821828   6.899   3.288   7.209  0.2689 -0.1252 -0.5010
  189SLPC   H8R21829   6.816   3.308   7.280 -0.1162 -2.1132 -0.3569
  189SLPC   H8S21830   6.901   3.368   7.132 -2.5032  2.0681  1.5992
  189SLPC   C2921831   7.036   3.318   7.273  0.4042 -0.2569  0.0127
  189SLPC   H9R21832   7.119   3.345   7.207 -1.0092  4.1618 -0.0715
  189SLPC  C21021833   7.056   3.319   7.407 -0.4344 -0.7092 -0.3274
  189SLPC  H10R21834   7.157   3.339   7.446 -1.2655  2.0181  0.4780
  189SLPC  C21121835   6.953   3.294   7.515  0.1388  0.0686  0.1244
  189SLPC  H11R21836   6.858   3.283   7.459 -0.0113 -0.1871  0.4300
  189SLPC  H11S21837   6.940   3.377   7.588 -4.7508  2.2499 -2.9866
  189SLPC  C21221838   6.994   3.167   7.589 -0.0066 -0.5776 -0.4018
  189SLPC  H12R21839   6.940   3.078   7.552  1.1290 -1.0151 -1.0454
  189SLPC  C21321840   7.095   3.148   7.675  0.0584  0.0805 -0.0227
  189SLPC  H13R21841   7.109   3.052   7.727  2.3692 -0.3573 -1.4256
  189SLPC  C21421842   7.195   3.254   7.720  0.0588  0.1798 -0.4877
  189SLPC  H14R21843   7.198   3.229   7.829 -0.5371 -1.8198 -0.9103
  189SLPC  H14S21844   7.155   3.358   7.714 -0.0171  0.2834  1.3206
  189SLPC  C21521845   7.341   3.220   7.672 -0.3529 -0.2191 -0.0087
  189SLPC  H15R21846   7.331   3.219   7.561 -2.7427 -1.3028  0.1806
  189SLPC  H15S21847   7.364   3.116   7.704  4.1266  0.5079 -0.4779
  189SLPC  C21621848   7.450   3.317   7.728  0.0705 -0.3257 -0.4011
  189SLPC  H16R21849   7.433   3.426   7.709 -0.9936 -0.3501  0.3494
  189SLPC  H16S21850   7.543   3.289   7.676 -0.5207  0.5395 -1.9447
  189SLPC  C21721851   7.469   3.313   7.883  0.1346  0.2359  0.5516
  189SLPC  H17R21852   7.483   3.208   7.919 -0.3859  0.9452  2.9132
  189SLPC  H17S21853   7.372   3.346   7.925  0.0238 -1.0812  1.3649
  189SLPC  C21821854   7.583   3.397   7.944 -0.2955 -1.1543 -0.3000
  189SLPC  H18R21855   7.572   3.505   7.922  0.8591 -0.6789  1.3257
  189SLPC  H18S21856   7.686   3.366   7.918 -0.1144  1.9168 -3.5764
  189SLPC  H18T21857   7.577   3.376   8.053  1.4085 -1.3567 -0.2312
  189SLPC   C3321858   6.286   3.616   6.679  0.3746 -0.3883  0.4305
  189SLPC   H3X21859   6.322   3.526   6.626  0.5170  0.5670 -1.1220
  189SLPC   H3Y21860   6.182   3.592   6.711  0.4017  1.4509  2.0356
  189SLPC   C3421861   6.352   3.628   6.821 -0.7257 -0.0617 -1.0958
  189SLPC   H4X21862   6.279   3.684   6.882 -3.2141 -2.3937 -1.8231
  189SLPC   H4Y21863   6.449   3.682   6.813 -1.3743  1.3652  0.4964
  189SLPC   C3521864   6.372   3.497   6.894 -0.1422 -0.2303  0.4936
  189SLPC   H5X21865   6.434   3.422   6.842 -1.5483 -0.6456 -0.6105
  189SLPC   H5Y21866   6.272   3.449   6.892  0.7473 -2.1123  0.4522
  189SLPC   C3621867   6.417   3.530   7.039 -0.0630  0.6096  0.0422
  189SLPC   H6X21868   6.341   3.592   7.092 -0.4547 -0.5923  0.8977
  189SLPC   H6Y21869   6.513   3.588   7.039 -0.6412  1.6046 -1.7036
  189SLPC   C3721870   6.441   3.403   7.137  0.5039  0.1936 -0.2420
  189SLPC   H7X21871   6.522   3.340   7.094  0.7460  0.3828 -0.0630
  189SLPC   H7Y21872   6.351   3.339   7.119  1.7584 -1.8549  0.5974
  189SLPC   C3821873   6.464   3.433   7.283  0.5399 -0.0618  0.3177
  189SLPC   H8X21874   6.373   3.483   7.323 -2.7329 -2.2841 -3.9534
  189SLPC   H8Y21875   6.555   3.492   7.307  0.4531 -0.4638  1.6684
  189SLPC   C3921876   6.488   3.307   7.362 -0.3368 -0.4309 -0.7405
  189SLPC   H9X21877   6.593   3.271   7.350  0.5557  1.9554 -0.3150
  189SLPC   H9Y21878   6.421   3.229   7.319 -1.4880  0.9981 -1.5737
  189SLPC  C31021879   6.445   3.319   7.511  0.1465  0.2198 -0.6082
  189SLPC  H10X21880   6.487   3.231   7.563  3.9525  0.9447 -2.2263
  189SLPC  H10Y21881   6.334   3.320   7.506  0.1614 -3.7574 -3.4815
  189SLPC  C31121882   6.501   3.445   7.578 -0.0848 -0.0489  0.5532
  189SLPC  H11X21883   6.460   3.535   7.526  1.4481  0.0128 -0.5826
  189SLPC  H11Y21884   6.611   3.447   7.566 -0.0713 -0.2485  0.6409
  189SLPC  C31221885   6.468   3.442   7.725  0.3316  0.0662 -0.5780
  189SLPC  H12X21886   6.533   3.369   7.778  0.4843 -1.2910 -2.5488
  189SLPC  H12Y21887   6.363   3.405   7.735  1.3822 -2.9229 -0.1492
  189SLPC  C31321888   6.487   3.582   7.790  0.2889  0.2603  0.1516
  189SLPC  H13X21889   6.443   3.673   7.744  0.7312  2.2914  3.6148
  189SLPC  H13Y21890   6.597   3.600   7.794 -0.0359  2.8455 -1.5910
  189SLPC  C31421891   6.437   3.584   7.934 -0.0063  0.1751  0.1550
  189SLPC  H14X21892   6.481   3.665   7.996 -1.7081  1.1205  0.1589
  189SLPC  H14Y21893   6.463   3.489   7.986  0.1303  0.3875  0.4758
  189SLPC  C31521894   6.286   3.625   7.950  0.4761  0.1002  0.1976
  189SLPC  H15X21895   6.223   3.534   7.938 -1.0266  1.4128 -2.3724
  189SLPC  H15Y21896   6.260   3.698   7.870  1.8733 -0.7827 -1.0842
  189SLPC  C31621897   6.262   3.698   8.081 -0.4839  0.0644 -0.1947
  189SLPC  H16X21898   6.341   3.776   8.086 -1.2784  0.7239  3.4177
  189SLPC  H16Y21899   6.268   3.637   8.174 -1.9161  0.0885 -0.0768
  189SLPC  C31721900   6.134   3.776   8.083  0.3031 -0.1266  0.2250
  189SLPC  H17X21901   6.137   3.856   8.006 -1.6030 -0.1298  0.1208
  189SLPC  H17Y21902   6.140   3.819   8.185  1.5562 -0.2098  0.1925
  189SLPC  C31821903   5.999   3.698   8.062  0.3444 -0.9136 -0.1639
  189SLPC  H18X21904   5.907   3.755   8.090  1.1203  0.1138  0.3245
  189SLPC  H18Y21905   6.002   3.599   8.112  1.6605  0.9672  3.7061
  189SLPC  H18Z21906   5.987   3.690   7.952  1.0673  2.3133 -0.5227
  190SLPC     N21907   6.453   3.154   5.914  0.1104 -0.2088  0.0616
  190SLPC   C1321908   6.446   3.167   6.063  0.0049  0.4068 -0.0682
  190SLPC  H13A21909   6.534   3.126   6.109 -1.7825 -3.3255  0.2370
  190SLPC  H13B21910   6.430   3.272   6.079  0.1470  0.3764  0.2656
  190SLPC  H13C21911   6.352   3.126   6.099  0.1561  0.8060  0.7865
  190SLPC   C1421912   6.331   3.210   5.838  0.1319  0.8051  0.3419
  190SLPC  H14A21913   6.238   3.162   5.864  0.3260  1.9377  3.3352
  190SLPC  H14B21914   6.311   3.311   5.871  0.8037  0.6393  1.2620
  190SLPC  H14C21915   6.351   3.208   5.732  0.8836  0.7292  0.4826
  190SLPC   C1521916   6.464   3.009   5.883  0.1749  0.2410 -0.2851
  190SLPC  H15A21917   6.552   2.971   5.932  1.6070  2.6650 -0.9416
  190SLPC  H15B21918   6.377   2.955   5.918 -0.3099  1.7403  0.8572
  190SLPC  H15C21919   6.474   2.981   5.779  2.0957 -2.3421  0.5437
  190SLPC   C1221920   6.583   3.218   5.875  0.4201  0.0180  0.0272
  190SLPC  H12A21921   6.616   3.193   5.775  0.8056 -2.9271  0.8283
  190SLPC  H12B21922   6.660   3.180   5.940  1.3248  2.1385  0.2195
  190SLPC   C1121923   6.575   3.371   5.878  0.7097  0.3752 -0.4499
  190SLPC  H11A21924   6.566   3.413   5.981 -1.6596  1.0229 -0.8766
  190SLPC  H11B21925   6.489   3.405   5.816  2.4757 -0.1241 -3.2100
  190SLPC     P21926   6.841   3.393   5.874 -0.0382 -0.2925 -0.4234
  190SLPC   O1321927   6.879   3.252   5.878  0.4820  0.0677  0.0815
  190SLPC   O1421928   6.937   3.470   5.791  0.1545  0.4151  0.1318
  190SLPC   O1221929   6.694   3.416   5.816 -0.3095  0.1320 -0.8987
  190SLPC   O1121930   6.821   3.455   6.016  0.1031  0.1948 -0.2823
  190SLPC    C121931   6.909   3.559   6.074 -0.2023 -0.2820  0.8261
  190SLPC    HA21932   6.909   3.642   6.001 -2.1242  0.1181  1.2569
  190SLPC    HB21933   6.869   3.592   6.172 -0.3410  0.7233  0.4364
  190SLPC    C221934   7.056   3.507   6.084  0.7359 -0.3063 -0.4933
  190SLPC    HS21935   7.083   3.517   5.977 -0.1547  0.5690 -0.6433
  190SLPC   O2121936   7.057   3.367   6.125 -0.2363 -0.1858  0.1743
  190SLPC   C2121937   7.158   3.300   6.086  0.3220  0.1225 -0.0037
  190SLPC   O2221938   7.258   3.341   6.029 -0.4631  0.0131 -0.0252
  190SLPC   C2221939   7.137   3.149   6.121 -0.4166  0.2804  0.6918
  190SLPC   H2R21940   7.081   3.103   6.037 -1.6415 -0.5921  1.9528
  190SLPC   H2S21941   7.240   3.107   6.111 -0.9560 -0.3517 -2.6454
  190SLPC    C321942   7.147   3.584   6.180  0.2022 -0.6087 -0.7010
  190SLPC    HX21943   7.167   3.683   6.133 -1.3079  0.5966  1.1404
  190SLPC    HY21944   7.248   3.539   6.185 -0.5785 -2.3873 -0.6577
  190SLPC   O3121945   7.081   3.602   6.310 -0.4221 -0.6874 -0.1703
  190SLPC   C3121946   7.148   3.572   6.420  0.1111 -0.2982  0.3037
  190SLPC   O3221947   7.265   3.540   6.425  0.2319  0.7103 -0.2618
  190SLPC   C3221948   7.058   3.598   6.547 -0.1440  0.6833  0.0625
  190SLPC   H2X21949   7.006   3.694   6.528 -0.9853  0.8143  2.8257
  190SLPC   H2Y21950   7.142   3.606   6.619  0.4589  0.5690 -0.6241
  190SLPC   C2321951   7.064   3.116   6.254 -0.1274  0.3331 -0.0260
  190SLPC   H3R21952   6.979   3.184   6.278  0.8375  1.8395 -0.7755
  190SLPC   H3S21953   7.130   3.120   6.343 -1.0686  0.0583  0.6974
  190SLPC   C2421954   7.005   2.975   6.254 -0.1237 -0.4688 -0.2574
  190SLPC   H4R21955   7.091   2.905   6.249  0.5678  0.4392 -1.2171
  190SLPC   H4S21956   6.947   2.960   6.160  1.8423 -2.1518 -1.2426
  190SLPC   C2521957   6.926   2.932   6.381  0.8626  0.0594  0.3129
  190SLPC   H5R21958   6.931   2.821   6.383 -0.7463 -0.0290  0.3539
  190SLPC   H5S21959   6.822   2.972   6.379  2.7216  5.2876  0.2018
  190SLPC   C2621960   6.998   2.973   6.508 -0.4176 -0.8772 -0.5476
  190SLPC   H6R21961   7.002   3.083   6.523  1.2314 -0.8683 -0.9311
  190SLPC   H6S21962   7.101   2.932   6.494  0.0078 -0.5901  1.5662
  190SLPC   C2721963   6.940   2.917   6.643  0.7633  0.1338  0.9470
  190SLPC   H7R21964   6.915   2.809   6.644  0.3971  0.1684 -1.4788
  190SLPC   H7S21965   6.837   2.957   6.652  0.7710  0.0746  1.3313
  190SLPC   C2821966   7.027   2.968   6.761  0.4501  0.1731 -0.0326
  190SLPC   H8R21967   6.982   2.934   6.856  3.2083  0.0443  1.2832
  190SLPC   H8S21968   7.016   3.079   6.756  0.5437  0.2786  1.8336
  190SLPC   C2921969   7.165   2.926   6.758 -0.1563 -0.1281 -0.1325
  190SLPC   H9R21970   7.179   2.817   6.762 -0.3727 -0.1433  0.2646
  190SLPC  C21021971   7.274   3.003   6.791  0.1634 -0.1093  0.0889
  190SLPC  H10R21972   7.373   2.956   6.795  0.7515  0.9266 -1.9067
  190SLPC  C21121973   7.274   3.150   6.830  0.4954 -0.3285  0.4662
  190SLPC  H11R21974   7.298   3.164   6.938  1.1857  0.7617  0.1769
  190SLPC  H11S21975   7.174   3.192   6.807  0.5217 -0.3498  0.3158
  190SLPC  C21221976   7.383   3.211   6.741 -0.2130 -0.6235 -0.1370
  190SLPC  H12R21977   7.347   3.227   6.639  1.5283 -1.4417 -0.8919
  190SLPC  C21321978   7.509   3.255   6.767 -0.4869 -0.3732  0.8162
  190SLPC  H13R21979   7.566   3.291   6.680 -0.4454 -1.5482  0.3566
  190SLPC  C21421980   7.574   3.244   6.905 -0.7138  0.3466  0.4147
  190SLPC  H14R21981   7.605   3.139   6.925  2.0745  1.4860  2.3973
  190SLPC  H14S21982   7.498   3.253   6.985 -1.3741 -1.2126 -0.0108
  190SLPC  C21521983   7.692   3.340   6.931  0.9604  0.2679  0.9409
  190SLPC  H15R21984   7.650   3.442   6.944 -2.9646 -0.9181 -1.6061
  190SLPC  H15S21985   7.753   3.331   6.838  0.2926  0.8420  0.4348
  190SLPC  C21621986   7.786   3.316   7.048 -0.6294  0.8440  0.0415
  190SLPC  H16R21987   7.826   3.213   7.042 -0.4933  1.0073 -2.2669
  190SLPC  H16S21988   7.746   3.319   7.152  2.8762 -1.7297  1.5680
  190SLPC  C21721989   7.895   3.421   7.062  0.1124  0.2301 -0.2182
  190SLPC  H17R21990   7.842   3.518   7.049 -1.8556 -0.5519  1.6627
  190SLPC  H17S21991   7.958   3.408   6.971  0.5370 -1.0529  0.2547
  190SLPC  C21821992   7.986   3.419   7.179  0.5867 -0.4204  0.1749
  190SLPC  H18R21993   8.051   3.330   7.167 -0.0402 -0.6530 -1.6890
  190SLPC  H18S21994   7.938   3.408   7.278 -0.3512 -1.6669 -0.3960
  190SLPC  H18T21995   8.054   3.507   7.183  0.7868 -0.4862 -1.4847
  190SLPC   C3321996   6.967   3.482   6.604  0.1084 -0.0127 -0.5752
  190SLPC   H3X21997   7.012   3.381   6.593  0.0722 -0.3258  1.8422
  190SLPC   H3Y21998   6.869   3.476   6.553 -0.3357 -0.5137  0.3346
  190SLPC   C3421999   6.933   3.508   6.753  0.0319  0.3991 -0.2003
  190SLPC   H4X22000   7.017   3.550   6.812  0.3979 -0.1952 -0.2936
  190SLPC   H4Y22001   6.886   3.419   6.800 -1.0430  0.8370 -0.4101
  190SLPC   C3522002   6.820   3.610   6.774  0.6850 -0.4616 -0.0138
  190SLPC   H5X22003   6.725   3.587   6.722 -0.0514 -1.2890  1.6794
  190SLPC   H5Y22004   6.843   3.715   6.742  1.1961 -0.4898  0.2452
  190SLPC   C3622005   6.773   3.616   6.921  0.0450 -0.4238  0.4066
  190SLPC   H6X22006   6.733   3.516   6.949  0.7255 -0.6583  0.5523
  190SLPC   H6Y22007   6.681   3.678   6.919  0.5311  0.3205  1.1537
  190SLPC   C3722008   6.876   3.660   7.024  0.0783 -0.0305 -0.1383
  190SLPC   H7X22009   6.911   3.763   7.002 -1.1866  0.2887 -0.6433
  190SLPC   H7Y22010   6.969   3.599   7.027  1.2268  1.6677 -0.3891
  190SLPC   C3822011   6.832   3.648   7.174 -0.5368  0.2784  0.5943
  190SLPC   H8X22012   6.871   3.555   7.221 -1.5526 -1.1593 -1.3054
  190SLPC   H8Y22013   6.723   3.662   7.191 -0.6934  1.1789 -1.1005
  190SLPC   C3922014   6.894   3.768   7.249 -0.0903  0.4706 -0.5022
  190SLPC   H9X22015   6.865   3.867   7.206  1.1327  0.9648 -0.1998
  190SLPC   H9Y22016   7.004   3.757   7.249  0.1947  2.7917  1.3702
  190SLPC  C31022017   6.841   3.787   7.398  0.5538  0.7169 -0.0008
  190SLPC  H10X22018   6.737   3.826   7.409  0.9391  1.3684  1.3502
  190SLPC  H10Y22019   6.900   3.869   7.445  3.7896 -1.1140 -0.7723
  190SLPC  C31122020   6.883   3.657   7.481  0.4482 -0.6501 -0.1621
  190SLPC  H11X22021   6.981   3.616   7.447  0.0029  0.3143 -2.7379
  190SLPC  H11Y22022   6.811   3.575   7.459  0.1388 -0.3809 -0.1374
  190SLPC  C31222023   6.873   3.670   7.632  0.5375  0.2504 -0.8891
  190SLPC  H12X22024   6.867   3.570   7.681  0.1836  1.2491  1.1318
  190SLPC  H12Y22025   6.781   3.728   7.657  0.2479 -0.2562 -0.7663
  190SLPC  C31322026   6.997   3.738   7.701  0.8652 -0.3257 -0.4177
  190SLPC  H13X22027   6.964   3.754   7.806 -0.4903 -2.9634 -0.4002
  190SLPC  H13Y22028   7.010   3.835   7.649  1.0416  0.2017  0.5923
  190SLPC  C31422029   7.124   3.665   7.702  0.0257  0.3696  0.3518
  190SLPC  H14X22030   7.174   3.657   7.603 -1.7859 -0.2452 -0.5217
  190SLPC  H14Y22031   7.110   3.562   7.743 -0.2101  0.0600 -0.5091
  190SLPC  C31522032   7.231   3.725   7.803 -0.1255 -0.0738  0.2228
  190SLPC  H15X22033   7.324   3.665   7.797  0.6018  1.1955 -1.5002
  190SLPC  H15Y22034   7.186   3.721   7.905  0.1029 -2.1216  0.2625
  190SLPC  C31622035   7.268   3.872   7.759  0.1397 -0.5856  0.2449
  190SLPC  H16X22036   7.180   3.939   7.767  0.5638  0.0336 -0.2055
  190SLPC  H16Y22037   7.291   3.881   7.650  0.1597 -1.8655  0.1346
  190SLPC  C31722038   7.377   3.939   7.839 -0.9210 -0.0761 -0.3512
  190SLPC  H17X22039   7.436   3.864   7.897 -0.8328 -0.6160 -1.1368
  190SLPC  H17Y22040   7.337   4.006   7.919  1.0250  0.9509 -0.1909
  190SLPC  C31822041   7.475   4.027   7.761  0.0505 -0.4978 -0.6139
  190SLPC  H18X22042   7.539   4.093   7.824  1.4667 -0.3660 -2.1410
  190SLPC  H18Y22043   7.413   4.097   7.701 -0.0544  0.7818  0.9549
  190SLPC  H18Z22044   7.548   3.968   7.702  1.7905 -1.2324  2.1823
  191SLPC     N22045   0.360   0.142   5.989  0.0861  0.3222 -0.1288
  191SLPC   C1322046   0.423   0.121   6.125 -0.2607  0.2884 -0.3153
  191SLPC  H13A22047   0.519   0.162   6.151 -0.0179 -0.0775 -0.6460
  191SLPC  H13B22048   0.366   0.185   6.191 -0.3155 -1.0497  0.9501
  191SLPC  H13C22049   0.406   0.020   6.157  0.1489  0.4004  0.2536
  191SLPC   C1422050   0.399   0.280   5.940 -0.0718  0.5601 -0.3760
  191SLPC  H14A22051   0.371   0.283   5.835 -0.1459  3.9677 -0.3083
  191SLPC  H14B22052   0.367   0.367   5.995 -0.3593  0.4284 -0.3339
  191SLPC  H14C22053   0.507   0.282   5.933 -0.1367 -0.1951 -1.9030
  191SLPC   C1522054   0.212   0.115   6.001  0.2975  0.1338  0.1664
  191SLPC  H15A22055   0.170   0.187   6.069 -0.5065 -0.8330  0.7040
  191SLPC  H15B22056   0.153   0.123   5.910 -0.2769 -0.9400  0.4372
  191SLPC  H15C22057   0.192   0.014   6.033  1.2326  0.1288  0.7541
  191SLPC   C1222058   0.427   0.038   5.900  0.3967 -0.5536 -0.7278
  191SLPC  H12A22059   0.533   0.053   5.908  0.4771 -1.7149  0.9188
  191SLPC  H12B22060   0.402   0.053   5.796 -0.5184 -0.8856 -0.5669
  191SLPC   C1122061   0.405  -0.113   5.932 -0.2958  0.1650 -0.4247
  191SLPC  H11A22062   0.466  -0.176   5.864 -0.5352  0.5028 -0.9516
  191SLPC  H11B22063   0.301  -0.150   5.917 -0.3261  0.2882 -0.5108
  191SLPC     P22064   0.601  -0.188   6.089 -0.0806 -0.2401  0.2124
  191SLPC   O1322065   0.629  -0.330   6.070  0.2024 -0.0567  0.1954
  191SLPC   O1422066   0.680  -0.101   6.002  0.2685 -0.1397 -0.0698
  191SLPC   O1222067   0.450  -0.155   6.065 -0.1088  0.2160 -0.0477
  191SLPC   O1122068   0.622  -0.142   6.235 -0.2340  0.4880 -0.5294
  191SLPC    C122069   0.538  -0.201   6.334  0.2999  0.8045 -0.4847
  191SLPC    HA22070   0.431  -0.204   6.302  0.0834 -0.4138  0.3331
  191SLPC    HB22071   0.576  -0.301   6.361 -0.3377  1.1036  1.6076
  191SLPC    C222072   0.551  -0.127   6.470  0.2092 -0.0628  0.3332
  191SLPC    HS22073   0.636  -0.056   6.467 -1.3171  1.7940  0.2013
  191SLPC   O2122074   0.564  -0.226   6.568 -0.4271 -0.4695 -0.2216
  191SLPC   C2122075   0.594  -0.190   6.689 -0.3827 -0.1819 -0.3279
  191SLPC   O2222076   0.640  -0.086   6.725  0.3315  0.2944  0.5055
  191SLPC   C2222077   0.562  -0.316   6.776  0.7599  0.4611 -0.7733
  191SLPC   H2R22078   0.462  -0.355   6.750  0.4674 -1.5142  3.0725
  191SLPC   H2S22079   0.629  -0.400   6.749  0.2093 -1.0649  2.4673
  191SLPC    C322080   0.432  -0.028   6.503  0.4590 -0.9645  0.9600
  191SLPC    HX22081   0.424   0.041   6.417  1.1339 -0.8261  1.0109
  191SLPC    HY22082   0.462   0.024   6.597  1.6648 -0.6876  0.4196
  191SLPC   O3122083   0.301  -0.089   6.520  0.8771 -0.1097  0.3716
  191SLPC   C3122084   0.196  -0.003   6.508 -0.6851  0.5280 -0.2180
  191SLPC   O3222085   0.206   0.112   6.474  0.3325  0.6311  0.0382
  191SLPC   C3222086   0.064  -0.061   6.551 -0.5257 -0.3546 -0.2144
  191SLPC   H2X22087  -0.004  -0.043   6.464  0.2985  0.4544 -0.6974
  191SLPC   H2Y22088   0.038   0.009   6.633  1.2908 -0.0370  0.1000
  191SLPC   C2322089   0.585  -0.292   6.931  0.6285  0.1873  0.2113
  191SLPC   H3R22090   0.534  -0.366   6.996  0.1104 -0.1704 -0.5937
  191SLPC   H3S22091   0.549  -0.194   6.968 -0.2006  0.2847 -0.8195
  191SLPC   C2422092   0.735  -0.303   6.978  0.0169  1.3645  0.7079
  191SLPC   H4R22093   0.808  -0.243   6.921  2.4575 -1.4127  0.8150
  191SLPC   H4S22094   0.770  -0.408   6.967 -1.3752  0.9819 -0.3630
  191SLPC   C2522095   0.747  -0.242   7.115 -0.6701  0.8814  0.4489
  191SLPC   H5R22096   0.670  -0.277   7.187  0.9483 -0.0137  1.7835
  191SLPC   H5S22097   0.740  -0.132   7.114 -0.0023  0.9435 -2.8026
  191SLPC   C2622098   0.891  -0.292   7.166  0.0602 -0.2706  0.0047
  191SLPC   H6R22099   0.958  -0.268   7.081 -0.7455 -0.2616 -0.6382
  191SLPC   H6S22100   0.888  -0.403   7.161 -1.6127 -0.2914  1.0320
  191SLPC   C2722101   0.916  -0.245   7.310 -0.1520  0.3132  0.4321
  191SLPC   H7R22102   0.909  -0.135   7.320 -3.1013  0.0423  1.7174
  191SLPC   H7S22103   1.024  -0.260   7.332 -0.6337  0.7681  3.2159
  191SLPC   C2822104   0.823  -0.307   7.418  0.4980 -0.7073 -0.2780
  191SLPC   H8R22105   0.844  -0.416   7.429 -1.3397 -1.0105  0.2257
  191SLPC   H8S22106   0.715  -0.291   7.398  0.2603 -0.2502  1.3855
  191SLPC   C2922107   0.843  -0.250   7.556  0.4288 -0.1891 -1.1480
  191SLPC   H9R22108   0.940  -0.275   7.602  0.8706  2.2937 -0.6424
  191SLPC  C21022109   0.764  -0.160   7.624  0.6685  0.2020 -0.1779
  191SLPC  H10R22110   0.795  -0.145   7.728  0.5409  1.9064 -0.3606
  191SLPC  C21122111   0.631  -0.105   7.580 -0.0745  0.9773  0.5629
  191SLPC  H11R22112   0.549  -0.179   7.580  0.6366  0.1714  1.1701
  191SLPC  H11S22113   0.637  -0.082   7.472 -0.0545 -2.2722 -0.1819
  191SLPC  C21222114   0.591   0.015   7.661  0.7270  0.0065 -0.4921
  191SLPC  H12R22115   0.673   0.089   7.658  0.5459  0.2004 -0.7006
  191SLPC  C21322116   0.481   0.033   7.735 -0.6835 -0.1386 -0.0665
  191SLPC  H13R22117   0.475   0.115   7.809 -1.5438  0.3110 -0.6266
  191SLPC  C21422118   0.365  -0.058   7.758 -0.4161  0.3130 -0.4668
  191SLPC  H14R22119   0.337  -0.125   7.674  1.2487 -0.9823 -0.0194
  191SLPC  H14S22120   0.278   0.010   7.769  0.3889  1.1444  0.8657
  191SLPC  C21522121   0.369  -0.133   7.896  0.3903  0.1034 -0.2373
  191SLPC  H15R22122   0.270  -0.165   7.934  1.4224  0.2952  2.6798
  191SLPC  H15S22123   0.407  -0.074   7.981  1.1039 -0.4816 -0.1424
  191SLPC  C21622124   0.459  -0.262   7.896  0.5988 -0.4683 -0.3313
  191SLPC  H16R22125   0.536  -0.246   7.817 -0.9616 -0.2486 -1.8413
  191SLPC  H16S22126   0.404  -0.355   7.871 -0.9380 -0.6291  3.2926
  191SLPC  C21722127   0.534  -0.285   8.028  0.2886  0.8268  0.0426
  191SLPC  H17R22128   0.545  -0.395   8.042 -3.5161  0.0864 -2.2420
  191SLPC  H17S22129   0.472  -0.263   8.118  1.3251  0.1391  0.9497
  191SLPC  C21822130   0.677  -0.232   8.028 -0.4451 -0.2286 -0.4001
  191SLPC  H18R22131   0.746  -0.303   7.978  0.5198  0.9723 -0.7971
  191SLPC  H18S22132   0.714  -0.223   8.132  1.2362  1.5971 -1.1444
  191SLPC  H18T22133   0.682  -0.136   7.972 -1.3737  0.3080  0.4222
  191SLPC   C3322134   0.064  -0.209   6.589 -0.0241 -0.2958 -0.2861
  191SLPC   H3X22135  -0.036  -0.234   6.632 -0.3960  0.4127 -0.7218
  191SLPC   H3Y22136   0.144  -0.239   6.659  2.0529 -0.1894 -2.5514
  191SLPC   C3422137   0.081  -0.300   6.465 -0.2928 -0.1336  0.0675
  191SLPC   H4X22138   0.186  -0.295   6.429 -0.8234 -0.2806 -1.5315
  191SLPC   H4Y22139   0.007  -0.278   6.385  2.0211 -1.5539 -2.5785
  191SLPC   C3522140   0.049  -0.456   6.480 -0.0932 -0.7253  0.3550
  191SLPC   H5X22141   0.083  -0.508   6.388  1.3682  3.6748 -1.7637
  191SLPC   H5Y22142  -0.060  -0.464   6.495 -0.3456  0.9096 -0.4803
  191SLPC   C3622143   0.125  -0.523   6.588  0.1467  0.5603 -0.4108
  191SLPC   H6X22144   0.071  -0.498   6.682  2.1596  0.0624  0.9006
  191SLPC   H6Y22145   0.231  -0.489   6.589 -0.1500  1.6133 -2.4229
  191SLPC   C3722146   0.108  -0.676   6.575 -0.3960  0.2498  0.2024
  191SLPC   H7X22147   0.165  -0.714   6.487  1.3161  0.4363  1.1881
  191SLPC   H7Y22148  -0.000  -0.698   6.569 -0.7508  1.5013  1.6442
  191SLPC   C3822149   0.151  -0.755   6.703 -0.0393 -0.4134  0.4164
  191SLPC   H8X22150   0.239  -0.700   6.741 -1.7735  1.4985  1.7816
  191SLPC   H8Y22151   0.177  -0.856   6.665 -1.1110 -0.3933 -0.3953
  191SLPC   C3922152   0.048  -0.752   6.813  0.4696  0.0359 -0.1362
  191SLPC   H9X22153  -0.057  -0.762   6.779 -0.6572  0.7413  3.0108
  191SLPC   H9Y22154   0.060  -0.648   6.851 -3.7510  0.7610 -0.5708
  191SLPC  C31022155   0.081  -0.852   6.924 -0.5191 -0.0136  0.4633
  191SLPC  H10X22156   0.188  -0.851   6.956  0.0679  1.6262 -1.4634
  191SLPC  H10Y22157   0.072  -0.955   6.883 -0.7858  1.0549 -2.2371
  191SLPC  C31122158  -0.008  -0.833   7.049  0.0242  0.2542  0.1084
  191SLPC  H11X22159  -0.025  -0.727   7.076  0.2739  0.2749  0.1921
  191SLPC  H11Y22160   0.045  -0.884   7.132  0.8703 -1.5642 -1.5068
  191SLPC  C31222161  -0.147  -0.890   7.029  1.0689  0.2359 -0.0504
  191SLPC  H12X22162  -0.155  -0.989   6.979 -0.6766  0.3486 -0.0361
  191SLPC  H12Y22163  -0.211  -0.832   6.959 -1.0336  0.2526  1.8097
  191SLPC  C31322164  -0.230  -0.888   7.167 -0.3753 -0.3070  0.3699
  191SLPC  H13X22165  -0.333  -0.925   7.150  0.1675 -1.4529 -0.4354
  191SLPC  H13Y22166  -0.237  -0.788   7.216  0.6597 -0.0198 -0.0494
  191SLPC  C31422167  -0.169  -1.001   7.259  0.3132  0.2297 -0.0314
  191SLPC  H14X22168  -0.059  -0.992   7.268  0.2386 -1.6737  3.5042
  191SLPC  H14Y22169  -0.180  -1.102   7.215  1.7567  0.1427 -0.2281
  191SLPC  C31522170  -0.218  -0.993   7.403  0.0814 -0.1768 -0.6367
  191SLPC  H15X22171  -0.200  -0.892   7.444  0.8080 -0.1147 -1.0993
  191SLPC  H15Y22172  -0.159  -1.069   7.459 -0.1939  0.3658  0.4104
  191SLPC  C31622173  -0.358  -1.042   7.421  0.0819 -0.0743  0.1031
  191SLPC  H16X22174  -0.364  -1.153   7.411  0.6397 -0.1002  0.0545
  191SLPC  H16Y22175  -0.418  -1.004   7.336 -0.2189 -0.1329  0.2883
  191SLPC  C31722176  -0.440  -1.002   7.545 -0.0224 -0.4079  0.2409
  191SLPC  H17X22177  -0.445  -0.891   7.545  1.8594 -0.2850  1.6930
  191SLPC  H17Y22178  -0.382  -1.036   7.634  1.6253 -2.1943 -1.4577
  191SLPC  C31822179  -0.584  -1.050   7.558 -0.2433 -0.0546 -0.1939
  191SLPC  H18X22180  -0.634  -1.013   7.650  1.2021 -1.7466  1.2912
  191SLPC  H18Y22181  -0.583  -1.161   7.560  3.3825 -0.0597  2.4806
  191SLPC  H18Z22182  -0.633  -1.023   7.461 -0.6547  1.3256  0.3801
  192SLPC     N22183   7.037   6.229   5.809  0.0111 -0.0254 -0.0563
  192SLPC   C1322184   7.130   6.341   5.825 -0.1029  0.4850  0.6393
  192SLPC  H13A22185   7.227   6.303   5.850  0.2357 -2.0266 -3.9848
  192SLPC  H13B22186   7.132   6.408   5.741 -0.9732 -1.6368 -1.1215
  192SLPC  H13C22187   7.094   6.393   5.913  1.8203  1.4643  0.8528
  192SLPC   C1422188   7.057   6.128   5.916  0.3958 -1.1548 -0.5846
  192SLPC  H14A22189   7.163   6.120   5.935  0.3862 -0.3044 -0.1694
  192SLPC  H14B22190   7.005   6.168   6.002 -0.7082 -1.1692 -1.2438
  192SLPC  H14C22191   7.009   6.035   5.891  0.6625 -1.9385  1.6888
  192SLPC   C1522192   7.081   6.150   5.686 -0.0690 -0.3525  0.1753
  192SLPC  H15A22193   7.037   6.052   5.671 -0.3928  0.2617 -3.3856
  192SLPC  H15B22194   7.069   6.209   5.596  2.3791 -0.4884 -0.2918
  192SLPC  H15C22195   7.189   6.144   5.693  0.0815 -0.3408 -1.8605
  192SLPC   C1222196   6.891   6.283   5.802  0.0958 -0.1400  0.2454
  192SLPC  H12A22197   6.819   6.203   5.788 -0.5001  0.1038  1.8263
  192SLPC  H12B22198   6.880   6.360   5.727 -0.4930 -1.2671 -0.8610
  192SLPC   C1122199   6.846   6.361   5.926  0.4895  0.5968 -0.8444
  192SLPC  H11A22200   6.859   6.292   6.012  2.1828  0.6414 -1.0508
  192SLPC  H11B22201   6.737   6.382   5.930  0.0448 -1.6170 -0.7989
  192SLPC     P22202   6.890   6.603   5.848 -0.0418  0.1130 -0.1835
  192SLPC   O1322203   7.013   6.678   5.826  0.2456 -0.4257 -0.0547
  192SLPC   O1422204   6.823   6.555   5.724  0.1939 -0.4606  0.1809
  192SLPC   O1222205   6.917   6.486   5.946 -0.0322 -0.3652 -0.1931
  192SLPC   O1122206   6.788   6.695   5.933  0.0309 -0.1404  0.1882
  192SLPC    C122207   6.652   6.662   5.957  1.4435 -0.5648 -0.3783
  192SLPC    HA22208   6.590   6.747   5.922  1.0946 -0.3483  0.7483
  192SLPC    HB22209   6.612   6.575   5.899 -0.8652 -0.9598  1.7198
  192SLPC    C222210   6.627   6.640   6.112 -0.2061 -0.2779 -0.1258
  192SLPC    HS22211   6.654   6.740   6.153 -1.3930 -0.8826  2.2200
  192SLPC   O2122212   6.701   6.532   6.165 -0.6106 -0.5475 -0.3306
  192SLPC   C2122213   6.794   6.565   6.245 -0.5935 -0.6970 -0.3373
  192SLPC   O2222214   6.826   6.678   6.277 -0.1233  0.1124  0.1721
  192SLPC   C2222215   6.871   6.435   6.280  0.2680  0.1298 -0.2695
  192SLPC   H2R22216   6.807   6.347   6.256  1.6657 -1.0856  0.3488
  192SLPC   H2S22217   6.965   6.440   6.220 -1.0613 -2.4146 -2.7099
  192SLPC    C322218   6.476   6.611   6.158  0.1453  0.0589  0.1796
  192SLPC    HX22219   6.435   6.516   6.116  2.2214  0.4939 -2.9947
  192SLPC    HY22220   6.427   6.697   6.109 -0.0802 -0.4405 -0.4801
  192SLPC   O3122221   6.467   6.629   6.302  0.2950 -0.2323  0.1132
  192SLPC   C3122222   6.348   6.598   6.349 -0.3918  0.2478 -0.7129
  192SLPC   O3222223   6.250   6.571   6.279  0.1026 -0.0610 -1.0639
  192SLPC   C3222224   6.361   6.593   6.505 -0.0413 -0.2144  0.5394
  192SLPC   H2X22225   6.415   6.686   6.533 -0.0306 -0.3064  0.8335
  192SLPC   H2Y22226   6.420   6.501   6.522  1.6693  0.4000 -1.9530
  192SLPC   C2322227   6.937   6.436   6.417 -0.4474  0.2686 -0.2176
  192SLPC   H3R22228   7.019   6.510   6.421 -0.8020  0.7385 -1.3599
  192SLPC   H3S22229   6.991   6.340   6.430 -1.1584 -0.2682 -1.1875
  192SLPC   C2422230   6.836   6.446   6.536  0.4322  0.0655 -0.2708
  192SLPC   H4R22231   6.774   6.537   6.522  0.3543  0.0674  0.0918
  192SLPC   H4S22232   6.905   6.461   6.622 -0.5112 -3.3070  1.1413
  192SLPC   C2522233   6.757   6.323   6.573  0.3024 -0.1425 -0.0986
  192SLPC   H5R22234   6.814   6.235   6.609 -1.6742 -0.4307  2.5328
  192SLPC   H5S22235   6.707   6.287   6.481 -1.7165 -0.3967  1.0582
  192SLPC   C2622236   6.649   6.350   6.683  0.5983 -0.1233  0.3514
  192SLPC   H6R22237   6.570   6.280   6.648 -0.3841  0.4010  1.4893
  192SLPC   H6S22238   6.606   6.450   6.661 -0.8585 -0.7853  0.1300
  192SLPC   C2722239   6.686   6.306   6.823  0.4138  0.5835 -0.5509
  192SLPC   H7R22240   6.772   6.363   6.863  0.3353  0.1596  0.2389
  192SLPC   H7S22241   6.723   6.202   6.816  1.0774  0.9709 -2.8944
  192SLPC   C2822242   6.580   6.305   6.930 -0.1419  1.2603 -1.0639
  192SLPC   H8R22243   6.617   6.235   7.008 -1.1767  0.5234 -1.2308
  192SLPC   H8S22244   6.486   6.255   6.897  0.0956 -0.8880  1.3552
  192SLPC   C2922245   6.551   6.444   6.972  0.0132  0.5295  0.1771
  192SLPC   H9R22246   6.540   6.513   6.887  2.8879 -0.8216 -1.3775
  192SLPC  C21022247   6.553   6.490   7.095 -0.6529  0.1521 -0.6885
  192SLPC  H10R22248   6.535   6.598   7.109  0.1553 -0.0375  2.1050
  192SLPC  C21122249   6.578   6.410   7.222 -0.0610 -0.5150  0.1646
  192SLPC  H11R22250   6.622   6.477   7.298 -0.9542  0.4781 -0.1851
  192SLPC  H11S22251   6.654   6.330   7.225  0.4797  0.0010  0.2323
  192SLPC  C21222252   6.442   6.359   7.272  0.6796  0.8908 -0.2074
  192SLPC  H12R22253   6.418   6.260   7.231  1.3066  0.4331  0.5278
  192SLPC  C21322254   6.367   6.410   7.375 -0.3533  0.2078 -0.2972
  192SLPC  H13R22255   6.272   6.362   7.404  0.7501 -1.6319  0.3656
  192SLPC  C21422256   6.405   6.535   7.449  0.0187 -0.2305 -0.8119
  192SLPC  H14R22257   6.316   6.597   7.470  0.6930  0.2125  0.8004
  192SLPC  H14S22258   6.476   6.600   7.394  0.4092 -1.2777 -1.5685
  192SLPC  C21522259   6.458   6.488   7.591  0.3551  0.0874  0.4033
  192SLPC  H15R22260   6.497   6.573   7.652  0.8659 -1.7213  2.6476
  192SLPC  H15S22261   6.548   6.424   7.577 -1.9252 -3.8374  2.8314
  192SLPC  C21622262   6.362   6.406   7.670  0.2130 -0.1421 -0.6209
  192SLPC  H16R22263   6.333   6.314   7.615  0.6035  0.5110 -1.9507
  192SLPC  H16S22264   6.272   6.462   7.701 -1.6168 -3.2685 -0.0389
  192SLPC  C21722265   6.431   6.361   7.797  0.2704  0.0981 -0.9812
  192SLPC  H17R22266   6.530   6.314   7.778  1.2927  2.4834 -1.7811
  192SLPC  H17S22267   6.452   6.450   7.860 -1.2570 -1.9373  2.5623
  192SLPC  C21822268   6.340   6.275   7.880  0.2982 -0.4902 -0.1539
  192SLPC  H18R22269   6.288   6.196   7.821 -0.9972 -0.7002  1.2182
  192SLPC  H18S22270   6.254   6.335   7.918 -1.8025 -1.9372 -2.4415
  192SLPC  H18T22271   6.392   6.229   7.967 -3.8706 -0.4736  2.5442
  192SLPC   C3322272   6.230   6.580   6.580  0.2058 -0.4508 -0.6336
  192SLPC   H3X22273   6.168   6.489   6.565 -1.2672  0.4430 -0.0630
  192SLPC   H3Y22274   6.177   6.672   6.547  0.1252  1.0904  3.4215
  192SLPC   C3422275   6.248   6.597   6.732 -0.7737  0.0415 -0.6554
  192SLPC   H4X22276   6.305   6.690   6.753  0.0926 -0.7659  0.5992
  192SLPC   H4Y22277   6.293   6.505   6.775 -0.0654  0.1931 -1.0670
  192SLPC   C3522278   6.111   6.616   6.803 -0.2446 -0.0851 -0.6950
  192SLPC   H5X22279   6.045   6.532   6.772 -1.7987 -0.2839  2.9392
  192SLPC   H5Y22280   6.064   6.708   6.762  0.5557  0.9524  0.6507
  192SLPC   C3622281   6.110   6.617   6.953 -0.3908  0.8358  0.7162
  192SLPC   H6X22282   6.144   6.527   7.009  0.7007  1.8977  1.7858
  192SLPC   H6Y22283   6.008   6.639   6.991  0.0023  0.0662  2.2569
  192SLPC   C3722284   6.203   6.724   7.009 -0.0067  0.2788 -0.4982
  192SLPC   H7X22285   6.184   6.828   6.974  2.5499  0.2069 -2.3042
  192SLPC   H7Y22286   6.309   6.698   6.985 -0.9118 -1.1523 -3.2228
  192SLPC   C3822287   6.198   6.733   7.165  0.2691 -0.6195 -0.3610
  192SLPC   H8X22288   6.263   6.651   7.204 -3.6340 -2.3405  2.9746
  192SLPC   H8Y22289   6.097   6.703   7.201  0.6635  0.1866  1.4903
  192SLPC   C3922290   6.251   6.862   7.221 -0.4054  0.1127 -0.3186
  192SLPC   H9X22291   6.191   6.885   7.312  2.2653 -0.7771  1.7332
  192SLPC   H9Y22292   6.237   6.940   7.143  0.6714  0.6760  0.0314
  192SLPC  C31022293   6.412   6.861   7.239  0.0680  0.7604  0.6529
  192SLPC  H10X22294   6.459   6.815   7.150 -1.8779  1.4318 -0.7421
  192SLPC  H10Y22295   6.429   6.792   7.325 -1.4778  1.7037  1.7366
  192SLPC  C31122296   6.470   6.993   7.291 -0.2175 -0.4692 -0.6033
  192SLPC  H11X22297   6.416   7.029   7.381  2.2731  2.2876 -0.1545
  192SLPC  H11Y22298   6.448   7.065   7.209  0.5787  0.5565  0.0808
  192SLPC  C31222299   6.626   6.996   7.290 -0.0564 -0.0206 -0.5851
  192SLPC  H12X22300   6.662   6.909   7.231  0.4903  0.6081 -1.1904
  192SLPC  H12Y22301   6.670   6.985   7.392 -4.1664 -0.0150  1.2765
  192SLPC  C31322302   6.683   7.118   7.224  0.0636  0.6620 -0.1110
  192SLPC  H13X22303   6.626   7.137   7.131  0.2080  0.2050 -0.2934
  192SLPC  H13Y22304   6.791   7.123   7.197  0.2995 -2.5615 -0.0087
  192SLPC  C31422305   6.652   7.243   7.303  0.1162 -0.5294 -0.5448
  192SLPC  H14X22306   6.547   7.238   7.340  0.7229 -1.8745  1.0446
  192SLPC  H14Y22307   6.669   7.338   7.248  1.4353  1.7912  3.6646
  192SLPC  C31522308   6.745   7.277   7.426  0.1875  0.2970 -0.1189
  192SLPC  H15X22309   6.732   7.191   7.494 -1.2784 -0.7042 -1.6366
  192SLPC  H15Y22310   6.687   7.350   7.487  0.0505  0.3650 -0.3288
  192SLPC  C31622311   6.895   7.301   7.401 -0.0612  0.1049  0.8294
  192SLPC  H16X22312   6.914   7.399   7.352 -2.2383  0.4023  0.5014
  192SLPC  H16Y22313   6.938   7.222   7.336  0.1034  0.4797  0.4866
  192SLPC  C31722314   6.975   7.294   7.534 -0.7543  0.7113 -1.0552
  192SLPC  H17X22315   7.080   7.328   7.514  0.2342 -1.2551  0.6478
  192SLPC  H17Y22316   6.974   7.189   7.570  0.9174  2.0599  3.2431
  192SLPC  C31822317   6.920   7.379   7.658 -0.8517  0.3357 -0.1793
  192SLPC  H18X22318   6.814   7.354   7.679 -0.2130 -2.6499 -0.2582
  192SLPC  H18Y22319   6.942   7.485   7.635 -2.9158  0.7925 -0.1477
  192SLPC  H18Z22320   6.982   7.360   7.748 -1.5125  3.1688  0.9403
  193SOD    SOD22321   1.496   6.574  11.682  0.3782 -0.2651  0.4139
  194SOD    SOD22322   3.572   5.430   0.174 -0.7275  0.1059 -0.3788
  195SOD    SOD22323   2.735   6.823   9.831 -0.1577 -0.2882 -0.0990
  196SOD    SOD22324   6.595   3.761  14.650  0.2329  0.6945  0.1547
  197SOD    SOD22325   4.353   6.541   3.659  0.3983  0.2933 -0.1261
  198SOD    SOD22326   1.920   0.090  13.606  0.2166 -0.3358 -0.0785
  199SOD    SOD22327   6.226   5.087   5.500  0.0336 -0.2071 -0.7211
  200SOD    SOD22328   0.684   1.262   2.872 -0.4561 -0.0470  0.0150
  201SOD    SOD22329   6.419   2.001   2.219 -0.2278 -0.0838  0.4531
  202SOD    SOD22330   4.705   7.159   5.621  0.1898  0.3173  0.1307
  203SOD    SOD22331   1.595   5.750  10.299  0.0727 -0.0498 -0.4750
  204SOD    SOD22332   6.852   5.506   3.665  0.1806  0.0952  0.2475
  205SOD    SOD22333   1.119   3.179   4.187 -0.0935  0.2178 -0.4027
  206SOD    SOD22334   4.799   2.281   3.199 -0.5067  0.4071 -0.0523
  207SOD    SOD22335   2.426   4.465   0.199  0.6977  0.2673 -0.0345
  208SOD    SOD22336   5.174   5.323  12.559  0.3291  0.3507  0.1701
  209SOD    SOD22337   0.859   0.259   2.048  0.3659 -0.9246 -0.1478
  210SOD    SOD22338   3.515   0.441   0.566  0.3372 -0.1853 -0.3745
  211SOD    SOD22339   6.065   6.525  13.259 -0.2424  0.2206  0.0699
  212SOD    SOD22340   3.349   6.205  14.026 -0.4817  0.0135 -0.3268
  213SOD    SOD22341   2.069   4.870  14.740 -0.4196  0.0002  0.6247
  214SOD    SOD22342   5.451   6.500  11.986  0.2543  0.5057 -0.2116
  215SOD    SOD22343   6.632   0.247  15.533 -0.1265  0.0001 -0.3212
  216SOD    SOD22344   5.400   4.701   5.004  0.0258  0.5473  0.1793
  217SOD    SOD22345   4.275   5.264  11.724  0.3534 -0.0483  0.3272
  218SOD    SOD22346   7.170   0.487  15.478  0.0937 -0.1488 -0.3577
  219SOD    SOD22347   6.064   0.219  13.954 -0.1449 -0.0310 -0.1323
  220SOD    SOD22348   5.131   2.341   2.412  0.0713 -0.0255 -0.3738
  221SOD    SOD22349   4.546   1.244   3.758  0.5619 -0.1793  0.4077
  222SOD    SOD22350   3.357   6.605  11.146 -0.2583  0.1314  0.0615
  223SOD    SOD22351   4.344   6.067   4.095 -0.1322 -0.0335  0.1268
  224SOD    SOD22352   5.526   0.080  11.094 -0.1630 -0.4997 -0.3876
  225SOD    SOD22353   4.205   6.921   2.427 -0.1954 -0.0609 -0.4910
  226SOD    SOD22354   0.829   0.459   3.775  0.2433 -0.1539 -0.0324
  227SOD    SOD22355   3.321   3.391   3.726  0.4920  0.2588  0.3978
  228SOD    SOD22356   0.846   2.193  11.279 -0.2635 -0.4997  0.0874
  229SOD    SOD22357   2.361   6.074  13.330  0.0797 -0.0807  0.5319
  230SOD    SOD22358   5.120   3.583   5.065  0.1302  0.2820 -0.0055
  231SOD    SOD22359   5.247   2.949  13.728  0.1150  0.0114  0.0207
  232SOD    SOD22360   0.500   2.302   0.959 -0.1727 -0.0090 -0.9583
  233SOD    SOD22361   2.743   0.431   4.111  0.0149 -0.0558  0.1025
  234SOD    SOD22362   0.710   6.697   0.200 -0.5439  0.4797  0.1651
  235SOD    SOD22363   3.803   4.723   3.623  0.1030  0.0158 -0.5119
  236SOD    SOD22364   6.881   4.065   0.816  0.3507 -0.6291 -0.1650
  237SOD    SOD22365   0.905   5.126  10.550  0.0701 -0.1903  0.2354
  238SOD    SOD22366   2.127   3.348   5.218 -0.0993  0.6092  0.4737
  239SOD    SOD22367   5.619   1.600  12.260  0.3216 -0.1894 -0.1217
  240SOD    SOD22368   6.653   2.145   9.726  0.1458  0.0220  0.1327
  241SOD    SOD22369   0.570   5.374   4.423  0.2683  0.0206  0.2216
  242SOD    SOD22370   5.618   5.830  15.178  0.3919  0.5331 -0.1212
  243SOD    SOD22371   3.325   2.591   2.737  0.3679 -0.0539 -0.3424
  244SOD    SOD22372   4.691   6.271  14.870 -0.4416 -0.0169 -0.3874
  245SOD    SOD22373   3.677   5.418  11.012  0.1578 -0.1349  0.1671
  246SOD    SOD22374   3.161   1.813   2.867  0.1083 -0.1960 -0.1147
  247SOD    SOD22375   2.813   5.084   4.566  0.0139 -0.6712  0.1695
  248SOD    SOD22376   4.739   0.974   5.380 -0.3366 -0.1451  0.0414
  249SOD    SOD22377   2.210   5.075  10.788 -0.0019  0.1536 -0.0945
  250SOD    SOD22378   5.361   0.013   3.036 -0.5115  0.2573 -0.1143
  251SOD    SOD22379   3.955   6.749  12.707  0.6222 -0.2105  0.3747
  252SOD    SOD22380   5.883   5.148  14.739  0.0264  0.7520  0.2744
  253SOD    SOD22381   5.199   3.556  10.063  0.2945 -0.0041 -0.4196
  254SOD    SOD22382   5.368   4.723   9.936  0.2143  0.4358  0.5582
  255SOD    SOD22383   4.220   6.323  11.367 -0.5711  0.0892  0.6897
  256SOD    SOD22384   6.914   0.126   5.378 -0.3196  0.3862  0.1287
  257SOD    SOD22385   7.146   3.417  11.546  0.3843  0.0550 -0.6404
  258SOD    SOD22386   6.292   5.970   4.733 -0.2405  0.5813 -0.2709
  259SOD    SOD22387   1.748   4.084  10.700 -0.2490  0.3906  0.2956
  260SOD    SOD22388   6.614   1.264  12.811  0.2082 -0.2263  0.1761
  261SOD    SOD22389   6.888   5.299  10.388  0.0638 -0.5415  0.1353
  262SOD    SOD22390   5.009   6.399  13.298  0.4872 -0.0984  0.0318
  263SOD    SOD22391   6.146   3.607  13.418  0.1963  0.2884 -0.0035
  264SOD    SOD22392   4.999   4.760   0.065  0.1509 -0.0903 -0.5630
  265SOD    SOD22393   2.904   5.731  12.379  0.3290 -0.4004  0.3393
  266CLA    CLA22394   7.195   3.956  14.399 -0.2692  0.2205  0.0939
  267CLA    CLA22395   4.562   0.806   2.125  0.0997 -0.6425  0.0334
  268CLA    CLA22396   3.995   6.748  11.483 -0.0749 -0.4126  0.2409
  269CLA    CLA22397   1.507   2.642   1.565 -0.3836  0.0624  0.1746
  270CLA    CLA22398   6.306   4.475   1.478  0.0938 -0.0226  0.3860
  271CLA    CLA22399   1.847   0.067   0.029  0.2314  0.1256  0.1997
  272CLA    CLA22400   6.263   1.770  11.780  0.1239 -0.1490  0.2086
  273CLA    CLA22401   7.107   4.724   3.637  0.0477  0.4911  0.1986
  274CLA    CLA22402   4.528   4.917   2.719  0.1210  0.3022  0.3457
  275CLA    CLA22403   0.751   2.852   4.553 -0.1430 -0.0832 -0.1731
  276CLA    CLA22404   3.026   5.036  14.242 -0.3883 -0.4694  0.1663
  277CLA    CLA22405   4.283   0.125   1.067 -0.1875 -0.3899 -0.1746
  278CLA    CLA22406   4.573   3.848  11.621 -0.1714 -0.1576 -0.4622
  279CLA    CLA22407   4.986   6.626   3.510  0.2876 -0.2344 -0.4730
  280CLA    CLA22408   7.056   2.583  10.549  0.0424  0.3677  0.1069
  281CLA    CLA22409   6.443   5.597  13.867 -0.3433  0.1109  0.2202
  282CLA    CLA22410   6.798   4.188  12.969  0.0085 -0.4099  0.0713
  283CLA    CLA22411   0.308   3.471   4.487  0.0349 -0.0326  0.0484
  284CLA    CLA22412   2.532   5.656  10.631  0.3297 -0.3411 -0.4314
  285CLA    CLA22413   6.456   6.199   3.173 -0.4719 -0.4555  0.2235
  286CLA    CLA22414   5.217   5.450  13.779  0.1242  0.2193 -0.3087
  287CLA    CLA22415   2.185   4.957  13.053 -0.4973  0.4602 -0.2161
  288CLA    CLA22416   1.502   3.233  10.037  0.2021 -0.1931 -0.4397
  289CLA    CLA22417   0.401   5.988   4.227 -0.0974 -0.0507  0.3343
  290CLA    CLA22418   3.096   2.679   3.121 -0.6473  0.0686 -0.4001
  291CLA    CLA22419   3.731   4.878   0.893  0.0147 -0.4239 -0.0070
  292CLA    CLA22420   5.567   5.403  12.384 -0.1045 -0.5227 -0.5004
  293CLA    CLA22421   6.951   5.094  11.965  0.4151 -0.2183 -0.4050
  294CLA    CLA22422   3.152   0.335  14.324  0.1928  0.1749 -0.2487
  295CLA    CLA22423   3.178   0.582   3.232 -0.2045 -0.2271 -0.1097
  296CLA    CLA22424   4.541   3.384  13.900 -0.2730 -0.0874  0.4589
  297CLA    CLA22425   5.108   2.152  15.607  0.0578 -0.0269  0.0369
  298CLA    CLA22426   3.109   5.075   3.076 -0.0776  0.1497  0.3418
  299CLA    CLA22427   5.580   5.977   0.169 -0.0298 -0.1135 -0.5468
  300CLA    CLA22428   2.807   3.193   0.399 -0.2045 -0.0350  0.1056
  301CLA    CLA22429   3.273   4.898   0.689 -0.3113  0.1056 -0.2439
  302CLA    CLA22430   0.579   2.087   0.437  0.1324 -0.1451 -0.2471
  303CLA    CLA22431   3.953   3.654   1.887  0.0796  0.3875  0.0814
  304CLA    CLA22432   2.766   1.845   2.650 -0.2778  0.3828  0.0198
  305CLA    CLA22433   4.544   1.909   2.512  0.6184 -0.0566  0.2921
  306CLA    CLA22434   2.624   4.547  11.275 -0.2738 -0.0064  0.4982
  307CLA    CLA22435   0.344   1.877   1.694  0.0884  0.0329  0.2706
  308CLA    CLA22436   4.598   6.519  13.775  0.1573  0.1086  0.2856
  309CLA    CLA22437   3.540   2.391  11.816  0.7766 -0.1918 -0.1801
  310CLA    CLA22438   4.234   4.966   5.178 -0.0267 -0.0815 -0.0575
  311CLA    CLA22439   0.899   6.709   2.532  0.4346  0.1027  0.1972
  312CLA    CLA22440   6.325   4.015   3.669  0.3337  0.1053  0.1191
  313CLA    CLA22441   5.515   2.644  12.637 -0.3266 -0.1061  0.0000
  314CLA    CLA22442   5.882   0.079  13.018  0.1165  0.4055  0.2319
  315CLA    CLA22443   1.976   5.955  15.385  0.0906  0.0989 -0.3925
  316CLA    CLA22444   3.362   2.060  14.245 -0.0961  0.0434 -0.1330
  317CLA    CLA22445   2.274   6.995  11.589 -0.2027 -0.1352 -0.0445
  318CLA    CLA22446   4.492   1.287  13.757 -0.0302 -0.0002 -0.5164
  319TIP3   OH222447   4.197   1.926  12.124  0.0058  0.0537  0.0438
  319TIP3    H122448   4.204   1.842  12.078 -1.6614 -0.8798  1.3828
  319TIP3    H222449   4.142   1.980  12.068  0.1059 -0.1824 -0.2827
  320TIP3   OH222450   3.094   2.390  11.294 -0.6668 -0.2492 -0.0672
  320TIP3    H122451   3.107   2.396  11.389 -1.4008  2.0233 -0.0621
  320TIP3    H222452   3.164   2.333  11.264 -1.5593 -2.5875  2.0666
  321TIP3   OH222453   3.647   6.820  11.664  0.1530  0.0695  0.2126
  321TIP3    H122454   3.618   6.871  11.740 -0.9583  1.3279 -1.0419
  321TIP3    H222455   3.726   6.866  11.634 -0.2711  0.4558 -0.3072
  322TIP3   OH222456   3.150   3.463  10.325 -0.2492 -0.2590  0.4313
  322TIP3    H122457   3.183   3.417  10.248  0.4009  1.5825 -0.4195
  322TIP3    H222458   3.225   3.470  10.383  0.2127  1.4623 -0.3141
  323TIP3   OH222459   5.247   3.416  11.922 -0.3527 -0.0263  0.6740
  323TIP3    H122460   5.317   3.479  11.940 -0.3228  0.1849 -0.1483
  323TIP3    H222461   5.200   3.454  11.847  0.3882 -1.5547 -0.6018
  324TIP3   OH222462   3.769   4.527  11.234 -0.0599 -0.3208  0.1029
  324TIP3    H122463   3.813   4.464  11.176  0.8172 -0.5030  0.9605
  324TIP3    H222464   3.689   4.551  11.186 -1.1301 -3.1358  0.3619
  325TIP3   OH222465   3.190   3.008  11.192 -0.0370 -0.1263  0.3068
  325TIP3    H122466   3.274   2.983  11.232  0.4195 -2.1279 -1.8074
  325TIP3    H222467   3.212   3.081  11.135  0.7663 -2.1929 -2.0939
  326TIP3   OH222468   0.515   6.483   9.889 -0.0919  0.1107  0.2685
  326TIP3    H122469   0.588   6.433   9.927  0.1083  0.1471 -0.0643
  326TIP3    H222470   0.492   6.546   9.957 -0.9954 -1.0825  1.0774
  327TIP3   OH222471   1.792   5.996   9.982 -0.1272 -0.3408  0.2685
  327TIP3    H122472   1.788   5.929   9.914  0.9896 -0.4995  0.3375
  327TIP3    H222473   1.794   6.079   9.935 -0.5760 -0.3969  0.1508
  328TIP3   OH222474   5.994   2.495  11.999 -0.8032 -0.1627  0.1836
  328TIP3    H122475   6.005   2.467  12.090  1.1247 -0.1722 -0.0176
  328TIP3    H222476   5.901   2.484  11.981 -0.8463 -2.2288  1.4917
  329TIP3   OH222477   6.951   2.265  12.229  0.5194 -0.0950 -0.4666
  329TIP3    H122478   6.857   2.274  12.239  0.4901 -1.7708  1.1623
  329TIP3    H222479   6.978   2.341  12.178 -1.2946  2.0701  1.6996
  330TIP3   OH222480   5.434   4.897  10.281  0.2080 -0.6790 -0.3836
  330TIP3    H122481   5.492   4.903  10.357 -1.1517 -0.1092  0.6540
  330TIP3    H222482   5.348   4.925  10.315 -0.8707 -2.3635 -1.6347
  331TIP3   OH222483   4.655   4.691  10.866  0.5229  0.4741  0.0433
  331TIP3    H122484   4.571   4.653  10.841  0.4830  1.2181 -0.9901
  331TIP3    H222485   4.716   4.660  10.799  0.7366  1.2081 -0.1075
  332TIP3   OH222486   3.984   3.861  13.154 -0.2515 -0.1387  0.1490
  332TIP3    H122487   4.001   3.941  13.204 -3.2934  0.7705 -0.1796
  332TIP3    H222488   4.022   3.791  13.208  3.8731  1.5914 -0.3003
  333TIP3   OH222489   6.313   2.112  12.193  0.3387 -0.0445  0.1454
  333TIP3    H122490   6.284   2.071  12.112  2.1566 -0.3422 -0.3798
  333TIP3    H222491   6.293   2.048  12.261 -1.9075  0.5216  0.0669
  334TIP3   OH222492   4.493   0.993  12.714 -0.0859  0.2254 -0.1975
  334TIP3    H122493   4.446   0.961  12.637  0.2623  0.6580 -0.5901
  334TIP3    H222494   4.574   1.029  12.679  0.9995 -1.4127  0.5624
  335TIP3   OH222495   3.928   0.537  10.779 -0.1632  0.1875 -0.2070
  335TIP3    H122496   3.907   0.446  10.798 -1.8221  0.5999 -0.0002
  335TIP3    H222497   3.934   0.579  10.866  2.7375 -0.1555 -0.1903
  336TIP3   OH222498   3.151   2.019  10.358  0.1347 -0.3205 -0.4756
  336TIP3    H122499   3.238   2.054  10.336 -0.3140  1.3605  0.3208
  336TIP3    H222500   3.092   2.094  10.348 -1.2350 -1.4449 -0.9777
  337TIP3   OH222501   1.745   2.928   9.433  0.2049 -0.3135 -0.7052
  337TIP3    H122502   1.833   2.895   9.414  0.1324 -0.4868 -0.7442
  337TIP3    H222503   1.759   3.016   9.468  0.3899 -0.3153 -0.7746
  338TIP3   OH222504   6.371   4.324  11.174  0.4590  1.2119  0.2430
  338TIP3    H122505   6.422   4.319  11.254  0.6925 -0.2596  0.0155
  338TIP3    H222506   6.280   4.320  11.203  0.5632 -0.6555  0.3617
  339TIP3   OH222507   1.524   1.757  12.888 -0.0851 -0.6488 -0.0939
  339TIP3    H122508   1.501   1.675  12.844 -2.7542  0.4471 -0.8781
  339TIP3    H222509   1.480   1.824  12.837  1.0894  1.1724  1.2369
  340TIP3   OH222510   1.078   4.276   9.612  0.1879 -0.5776  0.3938
  340TIP3    H122511   0.986   4.282   9.584 -0.2369 -0.8630  1.6664
  340TIP3    H222512   1.119   4.355   9.579 -0.8065  0.1194  0.7933
  341TIP3   OH222513   1.673   6.727  11.689 -0.0514  0.1856 -0.3635
  341TIP3    H122514   1.755   6.679  11.702 -0.5229 -0.7396 -0.7083
  341TIP3    H222515   1.694   6.796  11.626  0.5050  0.0722 -0.3001
  342TIP3   OH222516   5.022   5.002  11.997  0.2847  0.3036  0.1313
  342TIP3    H122517   5.070   5.054  12.061 -0.8473  0.6906  0.6760
  342TIP3    H222518   4.938   5.048  11.987 -0.2974 -0.8094 -0.1998
  343TIP3   OH222519   6.846   2.448  13.382 -0.7205  0.2084 -0.2486
  343TIP3    H122520   6.750   2.446  13.388 -0.5915 -0.7705  1.7060
  343TIP3    H222521   6.874   2.364  13.419  0.9034  0.4973 -0.8025
  344TIP3   OH222522   0.141   6.343  10.950 -0.7775  0.3409  0.3439
  344TIP3    H122523   0.188   6.267  10.914  0.9455  0.2947  2.5907
  344TIP3    H222524   0.180   6.418  10.905 -2.0003 -0.0082 -1.3693
  345TIP3   OH222525   4.240   4.148  11.586 -0.4587  0.1507  0.2968
  345TIP3    H122526   4.219   4.170  11.676  0.6053  0.8657  0.3809
  345TIP3    H222527   4.309   4.082  11.593  0.3089  0.9133  0.0027
  346TIP3   OH222528   5.258   2.842  10.175  0.2961 -0.1901 -0.4180
  346TIP3    H122529   5.246   2.902  10.102 -2.5962  1.2634  1.1544
  346TIP3    H222530   5.211   2.883  10.248  1.2088 -2.6767  1.6609
  347TIP3   OH222531   6.191   5.356   9.937  0.1713  0.0375  0.5945
  347TIP3    H122532   6.151   5.441   9.958  0.1356 -0.0041  0.6974
  347TIP3    H222533   6.147   5.327   9.858 -1.8030 -1.2055  2.1135
  348TIP3   OH222534   6.758   2.352   9.725 -0.0163  0.4970  0.5073
  348TIP3    H122535   6.792   2.357   9.814 -0.9981  3.2638  0.7659
  348TIP3    H222536   6.795   2.427   9.679 -1.9348  0.8600 -0.5336
  349TIP3   OH222537   3.485   4.423  10.722 -0.1734 -0.3127  0.2742
  349TIP3    H122538   3.572   4.441  10.688 -0.4719 -3.0239 -2.1120
  349TIP3    H222539   3.426   4.453  10.652 -1.0798 -0.0689  1.1335
  350TIP3   OH222540   4.760   2.881   9.873 -0.1535  0.6343 -0.3717
  350TIP3    H122541   4.786   2.926   9.953  1.4336 -0.4523 -0.2385
  350TIP3    H222542   4.739   2.951   9.811 -0.1946  1.4939  0.6062
  351TIP3   OH222543   0.747   3.003  11.525 -0.4718 -0.4615  0.2836
  351TIP3    H122544   0.782   3.002  11.614 -1.4418  1.9347  0.7144
  351TIP3    H222545   0.820   3.034  11.471 -0.7824  1.0088  0.6824
  352TIP3   OH222546   4.327   1.618  10.750  0.2529  0.2307 -0.5807
  352TIP3    H122547   4.390   1.556  10.714  1.7912  1.5399 -0.1757
  352TIP3    H222548   4.284   1.657  10.674 -1.1466 -1.7207 -0.8326
  353TIP3   OH222549   0.816   0.754  13.494  0.1130 -0.3795  0.3278
  353TIP3    H122550   0.859   0.714  13.569  0.6745 -0.6909 -0.1499
  353TIP3    H222551   0.784   0.838  13.526  0.9965 -0.1845  0.7226
  354TIP3   OH222552   2.636   2.433   9.382  0.1434  0.3349 -0.0552
  354TIP3    H122553   2.647   2.406   9.473 -0.8294 -3.0493 -0.8456
  354TIP3    H222554   2.546   2.466   9.378 -0.9736 -2.5464 -0.3756
  355TIP3   OH222555   2.665   1.414   9.559  0.1121 -0.3640 -0.2733
  355TIP3    H122556   2.601   1.478   9.530 -0.3381 -0.9353 -0.5585
  355TIP3    H222557   2.683   1.361   9.482  1.7603  0.4651 -0.4922
  356TIP3   OH222558   1.036   2.992  11.414 -0.2928 -0.3689  0.3070
  356TIP3    H122559   1.123   3.009  11.451 -0.0500  1.1729 -0.9448
  356TIP3    H222560   1.035   3.041  11.332 -2.0214 -1.1171 -0.1217
  357TIP3   OH222561   1.341   3.319  10.310  0.3615 -0.0040 -0.2405
  357TIP3    H122562   1.397   3.302  10.234  1.7321  0.6970  0.5766
  357TIP3    H222563   1.366   3.406  10.339  0.1771 -0.4279  1.2728
  358TIP3   OH222564   3.173   6.042  13.391 -0.4648 -0.3586 -0.3464
  358TIP3    H122565   3.180   6.075  13.302 -2.4872  0.7177 -0.1400
  358TIP3    H222566   3.145   6.117  13.443 -1.5309 -1.5067  0.7989
  359TIP3   OH222567   7.128   1.278  12.007 -0.1147 -0.3508 -0.0353
  359TIP3    H122568   7.097   1.292  11.917  0.6636 -0.9351 -0.4004
  359TIP3    H222569   7.108   1.360  12.052 -0.5549 -0.0669 -0.7318
  360TIP3   OH222570   7.026   6.067  10.833  0.7741  0.6300 -0.1243
  360TIP3    H122571   6.964   6.078  10.905  0.2269  1.2093 -0.6771
  360TIP3    H222572   7.060   5.979  10.844 -0.1719  0.2917  0.1715
  361TIP3   OH222573   3.860   4.801  11.223 -0.4171  0.6770  0.1153
  361TIP3    H122574   3.829   4.710  11.222  0.8297  0.2184  1.2074
  361TIP3    H222575   3.945   4.797  11.180 -1.5039  1.7984 -2.2049
  362TIP3   OH222576   5.548   1.223  11.011  0.0093  0.5511 -0.1066
  362TIP3    H122577   5.635   1.183  11.004 -0.2486 -0.2394  1.0842
  362TIP3    H222578   5.487   1.153  10.988 -0.3084  1.2497 -1.4546
  363TIP3   OH222579   0.319   4.837  13.712 -0.0673 -0.0681  0.0150
  363TIP3    H122580   0.410   4.865  13.717  0.2608 -1.1164  0.0792
  363TIP3    H222581   0.287   4.871  13.629  0.7868 -0.8955 -0.6482
  364TIP3   OH222582   2.157   3.326  11.932 -0.2764 -0.5924 -0.1014
  364TIP3    H122583   2.153   3.406  11.879 -1.7309  0.1880  1.1281
  364TIP3    H222584   2.132   3.256  11.871  0.2351 -0.0158 -0.9915
  365TIP3   OH222585   3.257   5.660  12.622 -0.5320  0.5576 -0.1151
  365TIP3    H122586   3.291   5.664  12.712 -0.7910  0.9297 -0.0321
  365TIP3    H222587   3.304   5.587  12.582  0.4593  1.1573 -0.0465
  366TIP3   OH222588   2.694   1.766  12.021 -0.1092 -0.1875  0.2706
  366TIP3    H122589   2.771   1.746  12.074 -1.0729 -0.3080  1.6574
  366TIP3    H222590   2.646   1.683  12.015 -0.4645  0.0361 -0.0153
  367TIP3   OH222591   1.987   0.767   9.683 -0.4983 -0.2436  0.4342
  367TIP3    H122592   1.978   0.689   9.629 -1.0360 -1.2283  1.9041
  367TIP3    H222593   1.926   0.753   9.756 -0.6241  1.5611  0.7005
  368TIP3   OH222594   3.099   1.175  12.139 -0.2428  0.0426 -0.7454
  368TIP3    H122595   3.119   1.122  12.062  0.8179 -1.9787  0.8761
  368TIP3    H222596   3.185   1.194  12.178 -0.7791  0.8674  0.0513
  369TIP3   OH222597   4.329   0.425  15.433 -0.3459  0.4042 -0.4049
  369TIP3    H122598   4.262   0.487  15.461 -0.6373 -1.6750  3.7827
  369TIP3    H222599   4.280   0.349  15.402 -0.0130 -0.8087  1.9271
  370TIP3   OH222600   5.086   6.721   9.678  0.3169 -0.0545 -0.6489
  370TIP3    H122601   5.148   6.770   9.733  0.4267 -1.9263  0.9583
  370TIP3    H222602   5.140   6.660   9.629  0.3297  2.2450 -3.6706
  371TIP3   OH222603   3.058   1.439  10.454  0.4335  0.3700 -0.0424
  371TIP3    H122604   3.104   1.495  10.391 -0.6565  1.7659  0.3818
  371TIP3    H222605   3.115   1.439  10.531  1.9433 -1.6203 -1.0892
  372TIP3   OH222606   2.380   2.294   9.735 -0.0357  0.6156  0.3982
  372TIP3    H122607   2.328   2.298   9.655  1.0921  0.8192 -0.3426
  372TIP3    H222608   2.333   2.348   9.798 -1.2974 -0.1101  0.0848
  373TIP3   OH222609   2.480   5.073  11.259 -0.0216 -0.8403  0.0806
  373TIP3    H122610   2.531   5.054  11.181  1.2886  0.0950  0.6895
  373TIP3    H222611   2.517   5.016  11.326  0.6062  0.2112  0.6556
  374TIP3   OH222612   4.536   4.173   6.153  0.1028  0.1166  0.3088
  374TIP3    H122613   4.585   4.231   6.096 -1.5076  0.4134 -0.7912
  374TIP3    H222614   4.574   4.186   6.240  3.6946 -1.5519 -0.9221
  375TIP3   OH222615   0.156   6.927   3.861  0.0192  0.0523  0.1562
  375TIP3    H122616   0.122   6.965   3.942 -0.2776  0.2794 -0.0760
  375TIP3    H222617   0.245   6.962   3.854  0.0947 -0.0781  0.4571
  376TIP3   OH222618   2.533   5.403   2.478 -0.4088 -0.0052 -0.4358
  376TIP3    H122619   2.594   5.345   2.432  0.1938  0.0517  0.2943
  376TIP3    H222620   2.451   5.352   2.482 -0.1831 -0.3949 -0.7053
  377TIP3   OH222621   2.789   5.772   5.383  0.0092 -0.1943 -0.4413
  377TIP3    H122622   2.812   5.819   5.303 -1.2390  0.8666 -0.1920
  377TIP3    H222623   2.694   5.763   5.379  0.0401 -0.9810  0.4692
  378TIP3   OH222624   0.899   1.677   1.314  0.1942 -0.0269  0.1815
  378TIP3    H122625   0.865   1.587   1.311  0.3889 -0.1622  1.7030
  378TIP3    H222626   0.824   1.731   1.336 -0.0452  0.2627 -1.3108
  379TIP3   OH222627   6.545   7.008   5.976 -0.2502 -0.1940 -0.4892
  379TIP3    H122628   6.607   7.042   5.911  0.5182 -1.9786 -0.7021
  379TIP3    H222629   6.595   7.001   6.056 -0.4820 -0.5845 -0.3785
  380TIP3   OH222630   4.231   4.340   5.385  0.5482  0.1022 -0.2321
  380TIP3    H122631   4.213   4.282   5.459  2.2517  0.2802  0.3452
  380TIP3    H222632   4.261   4.281   5.316 -0.0527  0.0445 -0.4460
  381TIP3   OH222633   2.099   6.631   5.707 -0.2902  0.6496 -0.1485
  381TIP3    H122634   2.114   6.721   5.677  1.2801  1.0834  1.8246
  381TIP3    H222635   2.031   6.639   5.774 -0.2443  0.3391 -0.0654
  382TIP3   OH222636   5.961   2.133   4.285  0.5092 -0.2006 -1.1575
  382TIP3    H122637   6.056   2.128   4.299  0.5292  0.6140 -0.9361
  382TIP3    H222638   5.934   2.210   4.336  0.2865  1.7156 -4.0248
  383TIP3   OH222639   1.858   4.317   5.116  0.3767  0.1079 -0.7176
  383TIP3    H122640   1.812   4.347   5.038 -0.5265  0.3543 -0.0941
  383TIP3    H222641   1.886   4.397   5.160  1.3734 -0.0359 -1.0643
  384TIP3   OH222642   0.637   5.122   5.027 -0.6384  0.3027  0.1402
  384TIP3    H122643   0.584   5.172   5.089 -1.2670  1.2249 -1.1375
  384TIP3    H222644   0.597   5.035   5.026 -0.3514  0.1444  1.3546
  385TIP3   OH222645   2.615   0.047   4.974  0.1374 -0.1038  0.1700
  385TIP3    H122646   2.620   0.122   5.032 -1.1098  0.6340 -0.6669
  385TIP3    H222647   2.706   0.019   4.964  0.4387  0.2044  1.8715
  386TIP3   OH222648   1.512   6.387   4.349 -0.0227 -0.1170  0.6464
  386TIP3    H122649   1.570   6.449   4.393 -0.5968  0.1891  0.9701
  386TIP3    H222650   1.450   6.359   4.417 -1.0885  0.5748 -0.0300
  387TIP3   OH222651   7.045   3.747   3.910 -0.0173  0.0481 -0.0546
  387TIP3    H122652   7.001   3.678   3.960 -1.8134  1.5684  0.5394
  387TIP3    H222653   6.980   3.775   3.846 -0.7396  3.6839  2.0795
  388TIP3   OH222654   2.168   1.335   4.718 -0.6736 -0.2805  0.8907
  388TIP3    H122655   2.159   1.429   4.734 -1.6868  0.1500 -1.9657
  388TIP3    H222656   2.078   1.303   4.709 -0.2503 -0.8945 -1.4506
  389TIP3   OH222657   2.643   3.009   4.015  0.4349 -0.4845  0.0218
  389TIP3    H122658   2.627   2.916   3.996 -0.9314 -0.3472  0.4325
  389TIP3    H222659   2.583   3.029   4.087  1.1131  0.5822  0.2981
  390TIP3   OH222660   4.967   6.455   3.900 -0.2171  0.0930 -0.7135
  390TIP3    H122661   4.972   6.429   3.992  0.4601 -0.4072 -0.8873
  390TIP3    H222662   4.915   6.535   3.901 -1.8069 -0.9207 -0.0941
  391TIP3   OH222663   5.838   0.455   5.365 -0.4286  0.4232 -0.7619
  391TIP3    H122664   5.847   0.540   5.320  2.6255  0.4346 -0.2532
  391TIP3    H222665   5.920   0.445   5.413 -1.3874 -2.1465  0.4181
  392TIP3   OH222666   3.483   1.157   5.438  0.2780  0.8591 -0.0849
  392TIP3    H122667   3.444   1.129   5.356  0.9801 -0.1126 -0.0988
  392TIP3    H222668   3.577   1.165   5.419  0.6458 -0.7516  0.9783
  393TIP3   OH222669   4.154   6.514   4.134 -0.2717  0.5794 -0.3907
  393TIP3    H122670   4.087   6.490   4.198  0.8232  0.9752  0.9303
  393TIP3    H222671   4.209   6.436   4.126  1.5552  1.5875  1.6975
  394TIP3   OH222672   1.160   1.167   4.651 -0.5034 -0.1579  0.0341
  394TIP3    H122673   1.149   1.166   4.556 -0.4962  0.3466  0.0245
  394TIP3    H222674   1.160   1.075   4.676  0.0081 -0.3123 -0.5158
  395TIP3   OH222675   6.161   3.059   5.621  0.0652 -0.3264  0.2856
  395TIP3    H122676   6.147   3.132   5.560 -0.1486 -0.4509  0.1820
  395TIP3    H222677   6.104   3.079   5.695  1.1123  0.3587  0.9207
  396TIP3   OH222678   6.049   5.613   4.812 -0.2234 -0.2801  0.3013
  396TIP3    H122679   6.014   5.575   4.892  0.5442  0.9866  1.2578
  396TIP3    H222680   6.085   5.539   4.764 -1.4455 -1.1664  0.7202
  397TIP3   OH222681   5.717   6.550   5.750  0.1333  0.7223 -0.1371
  397TIP3    H122682   5.690   6.488   5.818  0.8089  1.6105  0.9447
  397TIP3    H222683   5.654   6.622   5.757 -0.0377  0.6305 -0.7164
  398TIP3   OH222684   2.583   5.239   4.262  0.0563  0.4330 -0.2954
  398TIP3    H122685   2.603   5.327   4.293  2.6674  0.5411 -2.1057
  398TIP3    H222686   2.651   5.220   4.198 -2.7322 -1.3728 -2.8880
  399TIP3   OH222687   3.900   0.896   5.035  0.0354  0.3028  0.3903
  399TIP3    H122688   3.942   0.819   4.998 -0.3937 -0.0197  0.5685
  399TIP3    H222689   3.909   0.964   4.968 -1.6342 -0.5522 -0.7335
  400TIP3   OH222690   6.826   4.725   3.884 -0.0334 -0.0704 -0.2122
  400TIP3    H122691   6.823   4.727   3.980 -2.0895 -0.3534 -0.2487
  400TIP3    H222692   6.919   4.710   3.863  0.8243  2.2182  1.6678
  401TIP3   OH222693   4.679   0.862   3.313  0.2248 -0.1676 -0.1152
  401TIP3    H122694   4.623   0.855   3.236  0.7250 -0.3684 -0.4660
  401TIP3    H222695   4.646   0.794   3.373  1.7440 -2.0947 -1.3929
  402TIP3   OH222696   6.244   1.747   4.876  0.1196  0.3350 -0.0880
  402TIP3    H122697   6.171   1.785   4.829 -0.7547  0.3775  1.2662
  402TIP3    H222698   6.280   1.681   4.817 -0.2843  1.1191 -1.2171
  403TIP3   OH222699   6.943   2.418   5.015 -0.4790  0.5463 -0.2627
  403TIP3    H122700   7.014   2.477   5.039  0.5941 -0.4191 -1.0015
  403TIP3    H222701   6.871   2.475   4.989 -0.1774  1.5386  1.0699
  404TIP3   OH222702   4.183   6.545   4.494 -0.4180 -0.0870  0.1148
  404TIP3    H122703   4.164   6.605   4.566  2.7045 -0.1090  1.0390
  404TIP3    H222704   4.158   6.458   4.527  0.5828 -0.0377  1.0065
  405TIP3   OH222705   4.573   0.784   3.078  0.0882  0.0862  0.1652
  405TIP3    H122706   4.594   0.710   3.021  1.8882  1.3917 -0.9080
  405TIP3    H222707   4.535   0.850   3.020  2.1204  1.5040  0.4224
  406TIP3   OH222708   6.224   2.304   5.418  0.0766 -0.0229 -0.0784
  406TIP3    H122709   6.149   2.247   5.399 -0.8183  1.7368 -2.1562
  406TIP3    H222710   6.301   2.250   5.400 -0.6262 -2.1036  2.8377
  407TIP3   OH222711   1.917   2.367   4.205  0.4530 -0.0997  0.6072
  407TIP3    H122712   1.952   2.279   4.186 -0.8233 -0.5106  0.1198
  407TIP3    H222713   1.834   2.370   4.157  0.3401  1.2618  0.8899
  408TIP3   OH222714   6.636   4.475   5.467  0.2631 -0.0852 -0.2465
  408TIP3    H122715   6.646   4.381   5.485  2.0234  0.2301  0.5240
  408TIP3    H222716   6.678   4.518   5.542  0.6734  1.3084 -1.2642
  409TIP3   OH222717   2.547   0.857   5.954  0.2192  0.2497  0.1692
  409TIP3    H122718   2.574   0.948   5.965 -0.3117  0.4753 -0.3647
  409TIP3    H222719   2.604   0.824   5.885 -0.8179  0.7178 -0.9367
  410TIP3   OH222720   2.459   4.005   4.880 -0.2958  0.0610 -0.1870
  410TIP3    H122721   2.506   4.057   4.945 -2.1095  0.6071  0.7012
  410TIP3    H222722   2.448   4.064   4.805 -2.1415  0.9073  0.7291
  411TIP3   OH222723   0.823   3.838   5.138  0.0131  0.1002  0.4837
  411TIP3    H122724   0.762   3.831   5.212 -1.1803  0.2917 -0.4590
  411TIP3    H222725   0.832   3.748   5.107  0.0163  0.1040  0.4744
  412TIP3   OH222726   6.200   7.012   4.691 -0.3387  0.0186  0.3691
  412TIP3    H122727   6.134   6.974   4.749 -1.4054 -0.6087 -1.2153
  412TIP3    H222728   6.280   7.014   4.743 -1.5143  0.4045  2.1825
  413TIP3   OH222729   2.087   4.949   2.560  0.2201  0.3403  0.2791
  413TIP3    H122730   2.052   4.883   2.621  0.2565 -1.9197 -2.0859
  413TIP3    H222731   2.016   5.013   2.552  0.1229  0.5740  2.4910
  414TIP3   OH222732   2.907   6.576   3.583 -0.2023  0.4136  0.1225
  414TIP3    H122733   2.817   6.589   3.554  0.2777  0.7444 -1.2614
  414TIP3    H222734   2.934   6.494   3.542  0.5111  0.9314 -0.4740
  415TIP3   OH222735   2.516   0.294   5.423  0.1073  0.5761 -0.2571
  415TIP3    H122736   2.516   0.366   5.486  0.3657  0.7465 -0.4518
  415TIP3    H222737   2.567   0.225   5.465 -1.0305  0.1037  0.3857
  416TIP3   OH222738   6.640   6.470   5.211  0.3113 -0.0163  0.4485
  416TIP3    H122739   6.579   6.465   5.284 -0.5546  0.1970 -0.2563
  416TIP3    H222740   6.594   6.520   5.144  1.7927  1.3552  0.4281
  417TIP3   OH222741   6.637   2.520   4.990 -0.3675 -0.5151  0.2778
  417TIP3    H122742   6.624   2.449   4.928 -0.0843  1.3478 -1.9769
  417TIP3    H222743   6.578   2.500   5.063 -1.8817 -1.9204 -1.2932
  418TIP3   OH222744   0.145   1.159   3.308 -0.0096  0.4110  0.7068
  418TIP3    H122745   0.071   1.208   3.344 -1.3562 -0.9308 -0.1505
  418TIP3    H222746   0.105   1.081   3.270  1.6806  0.4147 -1.1468
  419TIP3   OH222747   3.728   2.356   4.214 -0.5193 -0.2720  0.8814
  419TIP3    H122748   3.687   2.273   4.236  0.8223 -0.9486  0.9207
  419TIP3    H222749   3.723   2.407   4.295 -3.5290  0.6540  0.1711
  420TIP3   OH222750   4.848   1.007   6.053  0.6077 -0.0059  0.0145
  420TIP3    H122751   4.868   1.068   6.123  0.2509  0.3897 -0.2261
  420TIP3    H222752   4.930   0.999   6.003  0.9406 -0.5045  0.6351
  421TIP3   OH222753   2.968   3.397   3.465  0.1207  0.0878 -0.0057
  421TIP3    H122754   2.944   3.323   3.520 -0.6134  0.1631 -0.2202
  421TIP3    H222755   2.955   3.366   3.375  3.3507 -0.7631 -0.2639
  422TIP3   OH222756   6.401   6.830   4.773 -0.3070 -0.6459 -0.3548
  422TIP3    H122757   6.419   6.859   4.683  0.8040 -0.7872 -0.1824
  422TIP3    H222758   6.456   6.753   4.784 -1.5441 -1.4916 -0.0390
  423TIP3   OH222759   5.940   6.566   3.253 -0.5709 -0.2214 -0.0234
  423TIP3    H122760   5.871   6.506   3.281 -0.9066 -0.4611 -1.3417
  423TIP3    H222761   5.919   6.649   3.297 -0.4065 -0.9059  1.3754
  424TIP3   OH222762   0.740   0.847   4.640  1.0436  0.1031 -0.2781
  424TIP3    H122763   0.650   0.868   4.615  1.7595 -0.0335 -3.1299
  424TIP3    H222764   0.736   0.754   4.663  0.2488  0.3642  0.6825
  425TIP3   OH222765   6.860   3.968   5.197 -0.1273  0.2094 -0.0951
  425TIP3    H122766   6.918   3.892   5.187 -1.0010 -0.3920 -0.6678
  425TIP3    H222767   6.865   4.014   5.114 -0.4007  0.2039 -0.1151
  426TIP3   OH222768   5.587   2.898   1.513 -0.6767 -0.2797 -0.7834
  426TIP3    H122769   5.626   2.976   1.473 -0.3299 -0.4562 -0.7907
  426TIP3    H222770   5.600   2.829   1.448 -1.4452 -0.2275 -0.9955
  427TIP3   OH222771   0.214   6.383   5.278 -0.7253  0.3023  0.8173
  427TIP3    H122772   0.299   6.342   5.262 -0.7688  0.8371 -0.9468
  427TIP3    H222773   0.190   6.356   5.367 -0.6219 -3.2375 -0.1654
  428TIP3   OH222774   0.090   0.140   4.589 -0.6650  0.0369  0.4836
  428TIP3    H122775   0.047   0.176   4.666  1.3115 -1.9719  2.6123
  428TIP3    H222776   0.157   0.082   4.624  0.5257 -0.6648 -2.7671
  429TIP3   OH222777   2.831   5.950  14.725  0.0372  0.4301 -0.3992
  429TIP3    H122778   2.755   5.896  14.749  1.6039 -1.8276 -0.3939
  429TIP3    H222779   2.863   5.985  14.808  0.4919 -0.6604 -0.1064
  430TIP3   OH222780   1.987   4.384  10.006  0.4372  0.0806  0.3568
  430TIP3    H122781   1.972   4.289  10.000 -2.1081  0.3184  2.1979
  430TIP3    H222782   2.066   4.392  10.059  2.5578 -1.0579 -2.5183
  431TIP3   OH222783   5.262   0.302   2.441 -0.0469  0.6714  0.1514
  431TIP3    H122784   5.298   0.273   2.525 -0.9480  1.8541  0.9495
  431TIP3    H222785   5.210   0.227   2.411 -1.2277  0.9177  1.5371
  432TIP3   OH222786   1.287   6.865  10.005  0.3598  0.2034  0.3553
  432TIP3    H122787   1.370   6.890   9.965  1.0163 -1.4777  0.6419
  432TIP3    H222788   1.259   6.788   9.956 -1.3277  1.0899 -0.1214
  433TIP3   OH222789   6.374   5.371  10.477 -0.1918  0.2969 -0.1657
  433TIP3    H122790   6.442   5.381  10.543 -0.1391  1.9033 -0.4316
  433TIP3    H222791   6.389   5.443  10.416 -0.4481 -0.9574 -1.7460
  434TIP3   OH222792   1.111   3.199  10.392  0.5936 -0.6512  0.2483
  434TIP3    H122793   1.202   3.227  10.389  0.3832  0.2523  1.5190
  434TIP3    H222794   1.062   3.271  10.351  0.3250 -0.4443  0.9143
  435TIP3   OH222795   0.644   4.792  11.219 -0.3881  0.4509 -0.1954
  435TIP3    H122796   0.607   4.880  11.212 -0.1674  0.7096  1.6816
  435TIP3    H222797   0.592   4.750  11.287  1.0298 -0.0758  0.5636
  436TIP3   OH222798   2.421   1.082  11.516 -0.0191  0.1371  0.2421
  436TIP3    H122799   2.345   1.135  11.538 -1.5498 -1.5737 -0.7954
  436TIP3    H222800   2.440   1.103  11.425 -1.3462 -1.8786 -0.5401
  437TIP3   OH222801   1.574   5.274  13.829 -0.2697 -0.2819 -0.4021
  437TIP3    H122802   1.538   5.334  13.764  1.2736  0.3326 -0.7036
  437TIP3    H222803   1.500   5.255  13.887 -1.4430 -0.1804 -1.8323
  438TIP3   OH222804   2.558   6.555  10.468  0.5969 -0.0376  0.4690
  438TIP3    H122805   2.497   6.482  10.455  0.6852 -0.1693  0.7678
  438TIP3    H222806   2.592   6.575  10.381 -1.1435  1.1625  0.0396
  439TIP3   OH222807   5.897   0.123  12.318 -0.1106 -0.4994 -0.0937
  439TIP3    H122808   5.843   0.052  12.353 -0.1901 -0.2137  0.3620
  439TIP3    H222809   5.976   0.079  12.287 -0.3041 -0.8320 -0.1200
  440TIP3   OH222810   3.262   1.741  10.956  0.4726 -0.1254  0.1236
  440TIP3    H122811   3.319   1.715  10.883 -0.0607  0.0646 -0.3610
  440TIP3    H222812   3.237   1.831  10.936 -0.7389 -0.5212 -0.1283
  441TIP3   OH222813   1.551   0.004  10.115 -1.3299 -0.7858 -0.2423
  441TIP3    H122814   1.564   0.095  10.086 -1.9403 -0.3282  0.8670
  441TIP3    H222815   1.625  -0.044  10.078  1.5062  1.0238  2.7472
  442TIP3   OH222816   1.582   1.625  10.567  0.0438  0.1056  0.1472
  442TIP3    H122817   1.677   1.617  10.578 -0.3103 -2.4350  1.8139
  442TIP3    H222818   1.561   1.713  10.598  1.5645 -0.1806  2.0685
  443TIP3   OH222819   6.155   6.044  12.785  0.0247 -0.2602 -0.4727
  443TIP3    H122820   6.245   6.061  12.756  0.4795 -2.1118 -0.1961
  443TIP3    H222821   6.160   6.045  12.880  0.1216 -2.1601 -0.4477
  444TIP3   OH222822   6.571   0.206  10.885  0.7597  0.2066 -0.0944
  444TIP3    H122823   6.608   0.151  10.816 -0.7007  0.1320 -0.8294
  444TIP3    H222824   6.519   0.271  10.838 -0.7728 -0.2397  0.9691
  445TIP3   OH222825   5.234   2.006  12.816  0.2764 -0.5863  0.0726
  445TIP3    H122826   5.239   1.911  12.805  1.5768 -0.5939  0.6434
  445TIP3    H222827   5.215   2.018  12.909 -1.1937 -0.3092 -0.2533
  446TIP3   OH222828   6.850   1.809   9.912 -0.7033  0.2420  0.2107
  446TIP3    H122829   6.853   1.847   9.825 -2.3580  0.7507  0.3517
  446TIP3    H222830   6.818   1.720   9.898  0.2863 -0.1195  0.1829
  447TIP3   OH222831   2.238   3.262  12.778  0.4330 -0.3456  0.6239
  447TIP3    H122832   2.283   3.278  12.696  3.1017 -1.4490  1.7990
  447TIP3    H222833   2.147   3.246  12.753  0.4884  2.6507 -1.7542
  448TIP3   OH222834   2.052   1.395  10.236 -0.2336 -0.5227 -0.4520
  448TIP3    H122835   2.102   1.324  10.275 -0.5490 -0.6990 -0.3657
  448TIP3    H222836   2.040   1.369  10.145  0.3560 -0.1919 -0.6289
  449TIP3   OH222837   1.000   4.807   9.833  0.2069 -0.0596 -0.1015
  449TIP3    H122838   1.027   4.899   9.834  0.7219 -0.2135  1.2380
  449TIP3    H222839   0.904   4.811   9.839  0.1925  0.4007 -0.6065
  450TIP3   OH222840   4.326   6.784  12.882 -0.3250 -0.0402 -0.0560
  450TIP3    H122841   4.279   6.867  12.884  2.3898  1.6687 -1.8563
  450TIP3    H222842   4.269   6.724  12.834 -0.5196  2.1004 -2.6018
  451TIP3   OH222843   6.384   3.293  11.552  0.4723 -0.4528 -0.0748
  451TIP3    H122844   6.290   3.306  11.538  0.4857 -0.9285 -0.6282
  451TIP3    H222845   6.395   3.301  11.647  0.1506  1.3222 -0.1684
  452TIP3   OH222846   1.526   1.755  12.186  0.5175 -0.0140 -0.4042
  452TIP3    H122847   1.592   1.817  12.216 -0.0672 -0.2921  1.5247
  452TIP3    H222848   1.461   1.753  12.256 -1.1731 -0.3068 -1.9319
  453TIP3   OH222849   3.705   7.158  11.441  0.3212 -0.1099  0.0952
  453TIP3    H122850   3.639   7.208  11.490  0.4086 -0.0092  0.1113
  453TIP3    H222851   3.659   7.081  11.410  0.2686 -0.1850  0.3561
  454TIP3   OH222852   2.772   2.202  10.060 -0.4619  0.2025  0.0982
  454TIP3    H122853   2.822   2.198   9.978 -1.1282  1.9745 -0.4302
  454TIP3    H222854   2.681   2.216  10.033 -0.9433 -0.8915  1.1033
  455TIP3   OH222855   3.141   1.715  13.997 -0.3049  0.2119 -0.3041
  455TIP3    H122856   3.235   1.724  14.009 -0.3172 -0.3530  0.2294
  455TIP3    H222857   3.102   1.773  14.062 -0.3323 -0.1352 -0.0093
  456TIP3   OH222858   4.491   0.352  13.155 -0.0869 -0.0413 -0.2193
  456TIP3    H122859   4.532   0.366  13.241 -2.4010 -0.2661  0.9520
  456TIP3    H222860   4.564   0.357  13.093  1.3462  2.1789  1.5474
  457TIP3   OH222861   2.148   0.587  10.881  0.5328 -0.0536  0.0777
  457TIP3    H122862   2.127   0.680  10.874 -1.3716 -0.5694 -1.5137
  457TIP3    H222863   2.077   0.542  10.834  0.5818 -2.4095  2.0906
  458TIP3   OH222864   6.728   0.856  12.445 -0.0944 -0.1713 -0.4567
  458TIP3    H122865   6.719   0.895  12.532  0.1350 -0.4829 -0.2941
  458TIP3    H222866   6.813   0.886  12.413 -0.4224  0.3977 -0.8035
  459TIP3   OH222867   0.913   0.319   9.311 -0.4450  0.3525  0.3018
  459TIP3    H122868   0.821   0.312   9.284  0.0481 -1.3988 -0.9583
  459TIP3    H222869   0.931   0.236   9.354  0.5382  0.7326  0.6244
  460TIP3   OH222870   3.086   1.732  10.412  0.2306  0.1057  0.0348
  460TIP3    H122871   2.998   1.736  10.449  0.5655  0.0676  0.8316
  460TIP3    H222872   3.113   1.823  10.402  0.8081  0.0923  1.4685
  461TIP3   OH222873   1.454   2.941  13.285 -0.4063 -0.3379  0.3489
  461TIP3    H122874   1.519   3.012  13.280 -2.2092  1.2170 -2.0928
  461TIP3    H222875   1.451   2.905  13.197 -2.9620 -0.2744  0.3724
  462TIP3   OH222876   2.374   0.124  15.003 -0.5210 -0.3688  0.1134
  462TIP3    H122877   2.282   0.148  15.016 -0.2606  0.1456  1.0380
  462TIP3    H222878   2.376   0.084  14.916 -1.4599  0.4355 -0.2942
  463TIP3   OH222879   0.482   0.239   9.907  0.4125  0.3795  0.5078
  463TIP3    H122880   0.478   0.314   9.849  0.2820  1.3338  1.7345
  463TIP3    H222881   0.575   0.217   9.913  0.3473 -0.3507 -0.8227
  464TIP3   OH222882   2.396   1.131  10.916 -0.0756  0.8262 -0.0040
  464TIP3    H122883   2.427   1.220  10.933  0.2516  0.6744  0.1995
  464TIP3    H222884   2.464   1.092  10.861  0.1935  0.4317  0.6041
  465TIP3   OH222885   4.906   6.818   0.734 -0.2884 -0.4461  0.5414
  465TIP3    H122886   4.926   6.911   0.744  0.9391 -0.7660  1.1997
  465TIP3    H222887   4.981   6.782   0.686 -1.5782 -0.7769 -1.2898
  466TIP3   OH222888   2.499   2.840  11.694  0.3072  0.4047  0.2332
  466TIP3    H122889   2.455   2.760  11.669 -2.5790  1.5308  1.5204
  466TIP3    H222890   2.530   2.878  11.611 -0.3427 -0.8500 -0.5883
  467TIP3   OH222891   0.784   6.937  11.913  0.3030  0.1407  0.1239
  467TIP3    H122892   0.868   6.972  11.943  0.3686  1.2929 -1.3446
  467TIP3    H222893   0.719   6.995  11.954  0.4065  1.9677 -2.1869
  468TIP3   OH222894   1.041   0.278  10.071  0.0306  0.7360 -0.1077
  468TIP3    H122895   1.035   0.369  10.099 -1.5191  0.5331  0.2907
  468TIP3    H222896   1.089   0.281   9.988 -0.9654  2.0392 -0.6564
  469TIP3   OH222897   6.020   1.883  10.694  0.4678 -0.3984 -0.3703
  469TIP3    H122898   5.962   1.955  10.667  0.9482 -0.4412 -1.5504
  469TIP3    H222899   5.970   1.804  10.677  0.2217 -0.3684  0.2239
  470TIP3   OH222900   4.754   0.601  10.425 -0.6508 -0.2410 -0.2663
  470TIP3    H122901   4.819   0.668  10.406  1.8128 -2.1021  1.2750
  470TIP3    H222902   4.720   0.575  10.339  0.1470  1.2059 -1.0316
  471TIP3   OH222903   1.764   0.487  13.369  0.0956  0.0367 -0.1049
  471TIP3    H122904   1.769   0.402  13.324  0.2428  0.5356 -1.0379
  471TIP3    H222905   1.699   0.536  13.319 -0.8284  0.0778  1.1136
  472TIP3   OH222906   2.423   0.226  11.237 -0.2053  0.2080 -0.0467
  472TIP3    H122907   2.477   0.186  11.169 -2.5566 -0.0425 -1.8416
  472TIP3    H222908   2.422   0.161  11.307  0.5751 -0.4553 -0.6414
  473TIP3   OH222909   0.845   2.365  10.745 -0.4764 -0.1222  0.4603
  473TIP3    H122910   0.788   2.311  10.800 -1.2871  0.2580 -0.0010
  473TIP3    H222911   0.894   2.419  10.807  1.3284 -2.3087  1.0126
  474TIP3   OH222912   4.427   4.208  13.274  0.0220 -0.7032  0.6340
  474TIP3    H122913   4.520   4.208  13.298  0.0696 -0.0829  0.4502
  474TIP3    H222914   4.381   4.232  13.354  0.0923  0.0440  0.4515
  475TIP3   OH222915   7.053   2.822  14.320 -0.1060  0.6013  0.6794
  475TIP3    H122916   7.063   2.910  14.286  0.9965  0.2191 -0.0067
  475TIP3    H222917   7.100   2.822  14.404 -0.0486  0.6452  0.6461
  476TIP3   OH222918   1.260   6.076   9.944 -0.1860  0.0417  0.7675
  476TIP3    H122919   1.233   6.026  10.021 -0.8080  0.5568  0.8851
  476TIP3    H222920   1.244   6.017   9.870 -0.0558 -0.2652  0.9815
  477TIP3   OH222921   0.033   1.989  11.453 -0.4966 -0.0102 -0.5506
  477TIP3    H122922   0.070   1.967  11.367 -0.2846  0.4661 -0.5841
  477TIP3    H222923   0.018   2.083  11.449 -0.2160  0.0638  0.0380
  478TIP3   OH222924   1.086   1.781  13.394 -0.4523 -0.0148 -0.3778
  478TIP3    H122925   1.053   1.832  13.321 -2.4823  0.4810  0.8234
  478TIP3    H222926   1.146   1.840  13.440  0.5804 -0.2226 -1.4513
  479TIP3   OH222927   6.486   5.989  10.584 -0.1282 -0.3591  0.1678
  479TIP3    H122928   6.540   5.937  10.644 -0.9597 -0.4352  0.8465
  479TIP3    H222929   6.511   6.079  10.602  1.0415 -0.4839 -0.7485
  480TIP3   OH222930   1.188   7.079  11.294 -0.1858 -0.7144  0.1886
  480TIP3    H122931   1.177   7.173  11.280 -3.9094 -0.6690  2.4939
  480TIP3    H222932   1.184   7.041  11.207 -3.9757  0.9141 -0.4542
  481TIP3   OH222933   3.715   3.203  10.786  0.4762 -0.1187 -0.6657
  481TIP3    H122934   3.679   3.176  10.701 -3.5625 -0.0323  0.8829
  481TIP3    H222935   3.768   3.129  10.814 -1.6967 -2.0260 -1.3785
  482TIP3   OH222936   3.311   1.348  11.092 -0.1009 -0.0179  0.2967
  482TIP3    H122937   3.321   1.437  11.060  0.7675 -0.9645 -2.1936
  482TIP3    H222938   3.220   1.325  11.071 -0.0637 -0.0129  0.1269
  483TIP3   OH222939   0.871   5.303  10.119  0.3191  0.5768 -0.7910
  483TIP3    H122940   0.871   5.366  10.047  3.3221  0.0894 -1.2927
  483TIP3    H222941   0.885   5.218  10.076 -0.8962 -0.0805  0.1063
  484TIP3   OH222942   4.166   7.192  10.278  0.0103 -0.3866  0.0793
  484TIP3    H122943   4.133   7.265  10.330 -0.8836 -1.3678  0.9382
  484TIP3    H222944   4.199   7.232  10.198 -1.4321  0.8528  0.0681
  485TIP3   OH222945   2.116   0.949  10.201  0.0199  0.3037 -0.1687
  485TIP3    H122946   2.044   0.896  10.234  1.4743 -1.9116 -0.4396
  485TIP3    H222947   2.109   0.942  10.106 -0.9866  2.3142 -0.2736
  486TIP3   OH222948   2.351   6.710  11.214 -0.6166  0.2909 -0.6878
  486TIP3    H122949   2.393   6.624  11.217 -0.0946  0.5648 -0.1025
  486TIP3    H222950   2.421   6.772  11.228 -1.4426  0.6712  2.1302
  487TIP3   OH222951   6.637   6.667  10.596  0.3869  0.2483 -0.1896
  487TIP3    H122952   6.726   6.702  10.605  1.0972 -0.8420 -2.5396
  487TIP3    H222953   6.631   6.641  10.504 -1.3999 -2.2881  0.6084
  488TIP3   OH222954   4.945   1.304  11.975  0.4978  0.1597  0.1248
  488TIP3    H122955   4.937   1.397  11.995 -0.5135  0.2699 -0.7406
  488TIP3    H222956   5.039   1.286  11.980  0.7125  1.2570  0.1143
  489TIP3   OH222957   2.561   1.035   9.554  0.4827  0.3576  0.4772
  489TIP3    H122958   2.607   1.054   9.636 -0.9216  0.5692  1.2411
  489TIP3    H222959   2.616   0.970   9.510  0.6004 -0.7715  2.2137
  490TIP3   OH222960   1.685   5.307  10.389  0.2487  0.3665 -0.0842
  490TIP3    H122961   1.765   5.255  10.403  1.5467  2.1142 -0.8403
  490TIP3    H222962   1.680   5.318  10.294 -1.1208 -0.0507 -0.0683
  491TIP3   OH222963   3.682   4.697  15.071 -0.3323 -0.2059 -0.1210
  491TIP3    H122964   3.724   4.697  14.985  0.8828 -0.8543  0.4799
  491TIP3    H222965   3.662   4.605  15.088 -0.0434 -0.1388  0.5580
  492TIP3   OH222966   2.054   1.929  10.666 -0.1274  0.0972  0.4965
  492TIP3    H122967   2.076   1.978  10.745  2.6169  0.0747 -0.2103
  492TIP3    H222968   1.974   1.971  10.634  0.1764  1.7778  1.8387
  493TIP3   OH222969   5.540   5.144   9.872  0.1208 -0.1841  0.1025
  493TIP3    H122970   5.551   5.237   9.853 -0.0486 -0.0138  0.8255
  493TIP3    H222971   5.618   5.103   9.835  1.5794  0.5966  2.1832
  494TIP3   OH222972   0.083   0.302  10.284 -0.0043 -0.3030 -0.1497
  494TIP3    H122973   0.157   0.272  10.337  0.1288  1.0105  0.4441
  494TIP3    H222974   0.124   0.341  10.207 -0.1043 -0.1542 -0.1264
  495TIP3   OH222975   3.599   6.618  10.550  0.2659 -0.6280 -0.2354
  495TIP3    H122976   3.667   6.572  10.600  1.1171  1.1184  0.2257
  495TIP3    H222977   3.545   6.660  10.617  0.8959  1.0035 -0.7302
  496TIP3   OH222978   5.575   0.882  10.103 -0.5972 -0.2539  0.1624
  496TIP3    H122979   5.576   0.801  10.154 -2.0571 -1.2429 -1.3295
  496TIP3    H222980   5.530   0.859  10.021  2.4912  1.0266 -1.9932
  497TIP3   OH222981   1.684   7.033   9.483 -0.0198  1.3454  0.2567
  497TIP3    H122982   1.693   6.938   9.492  3.8000  1.5818 -0.2612
  497TIP3    H222983   1.594   7.045   9.452  0.1241 -2.2746 -1.8827
  498TIP3   OH222984   5.355   5.828  10.353 -0.3575 -0.3422 -0.2218
  498TIP3    H122985   5.389   5.862  10.436  0.5016 -1.0580 -0.2809
  498TIP3    H222986   5.419   5.763  10.326 -1.7768 -1.6957 -0.3408
  499TIP3   OH222987   0.784   1.512   9.336 -0.4769 -0.4056  0.1431
  499TIP3    H122988   0.783   1.604   9.311  0.4886 -0.2498  0.6469
  499TIP3    H222989   0.699   1.479   9.309 -1.3343  0.9532  1.1112
  500TIP3   OH222990   2.945   2.769  10.347  0.1130  0.6775 -0.0471
  500TIP3    H122991   2.983   2.849  10.310  2.1132 -0.1133  0.2668
  500TIP3    H222992   2.920   2.717  10.271  0.2235  0.9379 -0.2641
  501TIP3   OH222993   4.659   0.482   1.131 -0.0145  0.2313 -0.2999
  501TIP3    H122994   4.624   0.437   1.054 -1.0707 -0.3267  0.5045
  501TIP3    H222995   4.639   0.425   1.205  2.8457 -0.2467  0.1623
  502TIP3   OH222996   1.245   2.190   9.911 -0.1870  0.2977 -0.4593
  502TIP3    H122997   1.251   2.283   9.892 -2.4917  0.0879 -2.4579
  502TIP3    H222998   1.259   2.147   9.827  1.8088 -1.2366  0.6088
  503TIP3   OH222999   2.787   2.514  10.693  0.4546 -0.0124 -0.2031
  503TIP3    H123000   2.697   2.541  10.712  0.5273 -0.9300  1.5501
  503TIP3    H223001   2.778   2.437  10.638  0.1541 -0.1567  0.0450
  504TIP3   OH223002   7.190   6.928  10.101  0.1336  0.3010  0.2331
  504TIP3    H123003   7.138   6.917  10.022  3.1415 -1.7032 -1.5550
  504TIP3    H223004   7.261   6.987  10.076  1.8371 -1.3577  1.0280
  505TIP3   OH223005   3.919   7.006  11.029  0.4298 -0.1182 -0.1392
  505TIP3    H123006   3.870   7.004  10.947 -0.2206  1.6214  0.1823
  505TIP3    H223007   3.874   6.944  11.086 -0.6552  0.5400 -0.2723
  506TIP3   OH223008   1.333   1.346  12.850 -0.5559 -0.4519  0.0891
  506TIP3    H123009   1.342   1.439  12.872 -1.2148 -0.4785  0.4691
  506TIP3    H223010   1.307   1.304  12.932  0.0530 -1.0207 -0.0041
  507TIP3   OH223011   6.563   2.771  11.468 -0.0039  0.5340 -0.1082
  507TIP3    H123012   6.627   2.840  11.484  3.1000 -2.3114  0.3929
  507TIP3    H223013   6.548   2.774  11.374  0.5338  1.5124 -0.1765
  508TIP3   OH223014   1.271   2.307  11.752 -0.0582 -0.1024 -0.0755
  508TIP3    H123015   1.191   2.256  11.765 -0.4893  0.4821 -0.3946
  508TIP3    H223016   1.338   2.242  11.732 -0.7326 -0.5076 -1.0492
  509TIP3   OH223017   3.317   2.322  10.254 -0.1255 -0.3067  0.0404
  509TIP3    H123018   3.368   2.246  10.226  1.1143  0.0652  1.2676
  509TIP3    H223019   3.251   2.333  10.185  0.6561 -1.5523 -0.9242
  510TIP3   OH223020   1.349   4.761  10.091  0.8267 -0.0263 -0.3121
  510TIP3    H123021   1.402   4.703  10.037  1.5891  0.8325 -0.5051
  510TIP3    H223022   1.317   4.828  10.031  1.3883  0.7332  0.2238
  511TIP3   OH223023   0.644   1.765  11.247  0.4510 -0.0622  0.4282
  511TIP3    H123024   0.639   1.742  11.340 -0.8755  1.6934  0.8138
  511TIP3    H223025   0.569   1.719  11.208 -1.2685  2.2632  0.9234
  512TIP3   OH223026   2.156   6.639  10.949 -0.2957 -0.5805  0.8464
  512TIP3    H123027   2.196   6.723  10.972  0.6739  0.1315 -3.1168
  512TIP3    H223028   2.231   6.581  10.935 -0.8423 -0.9729 -0.4353
  513TIP3   OH223029   0.478   1.577  10.437  0.2540 -0.5129  0.3173
  513TIP3    H123030   0.533   1.499  10.427 -0.1926 -0.6455 -1.2394
  513TIP3    H223031   0.487   1.624  10.354 -0.7585  0.2553  0.6248
  514TIP3   OH223032   2.714   3.613  14.461  0.5884  0.6808  0.4376
  514TIP3    H123033   2.750   3.554  14.394 -2.7351  0.3713 -1.1416
  514TIP3    H223034   2.690   3.556  14.533  1.5156  0.6726  0.7487
  515TIP3   OH223035   0.551   1.655  10.156  0.0507 -0.1227 -0.5934
  515TIP3    H123036   0.473   1.711  10.155  0.5439  0.6285  0.5635
  515TIP3    H223037   0.569   1.637  10.064 -0.6593  0.8862 -0.9476
  516TIP3   OH223038   6.542   5.166  11.666  0.3666 -0.6376 -0.0711
  516TIP3    H123039   6.450   5.158  11.693  0.4847 -0.9882  0.2368
  516TIP3    H223040   6.588   5.194  11.746  0.3742  0.5502 -0.4797
  517TIP3   OH223041   0.415   6.837  10.306  0.2589  0.5012 -0.5059
  517TIP3    H123042   0.386   6.757  10.263  3.1804 -0.1765 -1.2833
  517TIP3    H223043   0.334   6.875  10.341 -1.3579 -2.0417 -1.3124
  518TIP3   OH223044   5.325   7.191  12.407 -0.1035  0.1767  0.0174
  518TIP3    H123045   5.286   7.131  12.472  0.0743 -0.5740 -0.5606
  518TIP3    H223046   5.397   7.232  12.454 -0.2485 -0.0385  0.4356
  519TIP3   OH223047   0.061   1.897  10.877 -0.6469  0.1716 -0.2297
  519TIP3    H123048   0.125   1.838  10.916 -0.7711  0.6078  0.6641
  519TIP3    H223049  -0.005   1.840  10.838 -0.5722 -0.2755  0.3015
  520TIP3   OH223050   4.119   0.244  10.081  0.0575 -0.2892 -0.2931
  520TIP3    H123051   4.098   0.167  10.028  1.3124 -1.6108  1.0731
  520TIP3    H223052   4.132   0.314  10.017 -1.2202 -1.1580 -1.5534
  521TIP3   OH223053   0.213   5.756  11.890  0.3390  0.0045 -0.5695
  521TIP3    H123054   0.244   5.686  11.832 -0.8344  0.3638 -1.6522
  521TIP3    H223055   0.247   5.836  11.850 -1.3454  0.3433 -1.3733
  522TIP3   OH223056   0.469   2.849   9.956  0.0390  0.1222  0.0445
  522TIP3    H123057   0.422   2.923   9.919 -1.2364 -0.5735  0.2318
  522TIP3    H223058   0.561   2.865   9.934 -0.2665  1.5596 -0.2288
  523TIP3   OH223059   5.767   6.223  11.017  0.0594 -0.1796  0.0684
  523TIP3    H123060   5.816   6.167  10.956  1.9816 -0.9388  2.2578
  523TIP3    H223061   5.751   6.168  11.093 -1.7748  0.9648  0.5338
  524TIP3   OH223062   2.681   3.495  11.204 -0.2606 -0.1667  0.0010
  524TIP3    H123063   2.753   3.550  11.234 -0.2115  2.2722 -4.1639
  524TIP3    H223064   2.604   3.529  11.251  0.6126 -0.0404  1.3683
  525TIP3   OH223065   2.519   0.062  11.640 -0.5403 -0.0110 -0.2565
  525TIP3    H123066   2.446   0.001  11.634 -0.5263 -0.4665  3.0852
  525TIP3    H223067   2.479   0.147  11.658 -0.3517  0.0557 -0.1447
  526TIP3   OH223068   2.316   1.853  10.764 -0.3981 -0.2982  0.2640
  526TIP3    H123069   2.244   1.866  10.703 -1.4785  0.0438  1.5995
  526TIP3    H223070   2.316   1.759  10.782 -1.1534 -0.1562  1.0326
  527TIP3   OH223071   2.390   3.591  12.783 -0.2201  0.0503 -0.1669
  527TIP3    H123072   2.347   3.662  12.830 -1.4061 -2.3494  2.4968
  527TIP3    H223073   2.324   3.522  12.777  2.0372 -2.2861  0.7599
  528TIP3   OH223074   2.543   5.283  10.482 -0.2374 -0.5805 -0.0086
  528TIP3    H123075   2.500   5.368  10.485 -0.4731 -0.4989 -3.7469
  528TIP3    H223076   2.577   5.276  10.393  1.4483 -3.5895  0.8002
  529TIP3   OH223077   5.638   5.039  13.581  1.1736 -0.6552 -0.6484
  529TIP3    H123078   5.663   5.002  13.666  0.4554  1.6816  0.6407
  529TIP3    H223079   5.578   4.974  13.544  0.0019 -0.8547  1.5009
  530TIP3   OH223080   4.748   5.433  14.222  1.1147  0.1321 -0.0381
  530TIP3    H123081   4.789   5.512  14.189  0.7843  0.0102 -0.7382
  530TIP3    H223082   4.725   5.454  14.313 -1.1975  1.7141 -0.9386
  531TIP3   OH223083   3.223   1.346  14.539  0.4918 -0.3609  0.6164
  531TIP3    H123084   3.132   1.373  14.552  1.1764  0.6952  3.5446
  531TIP3    H223085   3.261   1.415  14.485  0.3292  0.8425  1.9967
  532TIP3   OH223086   1.108   6.724  11.150  0.2729 -1.0027 -0.2290
  532TIP3    H123087   1.130   6.788  11.082 -0.0881 -0.6889 -0.0560
  532TIP3    H223088   1.019   6.696  11.128  0.0659 -0.7239  0.2458
  533TIP3   OH223089   3.131   6.494  11.654 -0.3825 -0.4207  0.6263
  533TIP3    H123090   3.089   6.548  11.587  1.1908 -0.4768 -0.4576
  533TIP3    H223091   3.094   6.524  11.737 -1.5038  0.4685 -0.1871
  534TIP3   OH223092   0.767   0.140  11.965  0.1354  0.5212 -0.4051
  534TIP3    H123093   0.817   0.189  12.030  1.3661 -1.8055  0.4737
  534TIP3    H223094   0.802   0.051  11.970 -4.1451 -1.2313  0.2770
  535TIP3   OH223095   5.756   7.082  10.217  0.3561 -0.6005  0.2435
  535TIP3    H123096   5.847   7.092  10.246 -0.1900  1.1356  1.4579
  535TIP3    H223097   5.707   7.062  10.296 -0.4260 -0.8574 -0.3007
  536TIP3   OH223098   5.261   1.160  11.929 -0.1764  0.0502 -0.2325
  536TIP3    H123099   5.208   1.170  11.850 -0.1146 -1.6708 -0.4988
  536TIP3    H223100   5.245   1.071  11.959  1.9559 -0.2526  0.1280
  537TIP3   OH223101   0.019   3.126  15.409 -0.4459  0.1726  0.6957
  537TIP3    H123102   0.113   3.127  15.427 -0.5024 -1.9260  1.2666
  537TIP3    H223103   0.012   3.129  15.314  0.0379  4.7874  0.6729
  538TIP3   OH223104   3.651   3.238   9.883  0.2012 -0.6290  0.1302
  538TIP3    H123105   3.704   3.307   9.843  0.3648 -0.5271  0.5194
  538TIP3    H223106   3.567   3.241   9.837  0.2975 -0.3413 -0.0234
  539TIP3   OH223107   5.750   6.391   9.983 -0.2553  0.1429 -0.0594
  539TIP3    H123108   5.720   6.424   9.898 -1.0503  0.2110  0.2397
  539TIP3    H223109   5.787   6.305   9.964 -0.3457  0.1984 -0.4948
  540TIP3   OH223110   2.488   1.727  14.010 -0.1039  0.0186 -0.3111
  540TIP3    H123111   2.530   1.642  14.023  0.2923  0.1843 -0.4930
  540TIP3    H223112   2.550   1.790  14.046  0.2910  0.3504 -1.5360
  541TIP3   OH223113   1.740   2.388  13.995 -0.4110  0.3178  0.3396
  541TIP3    H123114   1.717   2.348  13.911 -0.1767  0.8410  0.0202
  541TIP3    H223115   1.711   2.479  13.987 -1.0793  0.1689  1.1197
  542TIP3   OH223116   0.073   5.011  14.163  0.3806 -0.2647  0.1849
  542TIP3    H123117   0.072   4.989  14.257 -1.4149  1.3974  0.5692
  542TIP3    H223118   0.054   5.104  14.160  1.1092 -0.1644 -1.8297
  543TIP3   OH223119   2.263   3.036  13.213  0.2934 -0.2780 -0.2957
  543TIP3    H123120   2.312   3.028  13.130 -0.1567 -0.6682 -0.5250
  543TIP3    H223121   2.240   2.946  13.236  1.6022 -0.2977  0.9751
  544TIP3   OH223122   7.143   7.129  15.252  0.2819 -0.3208 -0.2834
  544TIP3    H123123   7.200   7.197  15.215  1.9079  0.1109  2.7978
  544TIP3    H223124   7.204   7.062  15.283 -1.1006 -1.4488 -0.0001
  545TIP3   OH223125   1.450   4.142  14.411 -0.1678  0.5002 -0.8973
  545TIP3    H123126   1.514   4.213  14.407 -1.0226  1.2367 -1.8420
  545TIP3    H223127   1.476   4.084  14.339  1.2226 -0.7598  0.5934
  546TIP3   OH223128   7.074   1.463  13.448  0.0958  0.1041 -0.5073
  546TIP3    H123129   7.148   1.515  13.417  1.7081 -1.5471  0.3821
  546TIP3    H223130   7.087   1.377  13.407 -1.6369 -0.0452 -0.7544
  547TIP3   OH223131   0.822   2.734  13.132 -0.1961 -0.2712  0.4530
  547TIP3    H123132   0.895   2.672  13.132  1.2425  1.3548 -1.5225
  547TIP3    H223133   0.850   2.804  13.072 -2.6074  1.2926  1.0869
  548TIP3   OH223134   6.995   5.711  11.117 -0.0310 -0.1969  0.1748
  548TIP3    H123135   6.903   5.735  11.109 -0.1623  0.0287  2.1960
  548TIP3    H223136   7.034   5.780  11.171  1.1058 -0.8179  0.1675
  549TIP3   OH223137   0.178   4.459  12.198  0.5246  0.5834 -0.2806
  549TIP3    H123138   0.162   4.538  12.147 -1.9665  0.0151 -0.4295
  549TIP3    H223139   0.164   4.387  12.136 -1.4546 -0.0771  0.8898
  550TIP3   OH223140   5.073   3.479  12.479 -0.0625  0.1263 -0.5760
  550TIP3    H123141   5.116   3.517  12.403  0.2778 -0.1377 -0.5148
  550TIP3    H223142   5.085   3.385  12.470  1.4020  0.1685  0.6386
  551TIP3   OH223143   5.418   5.490  14.085 -0.1278  0.8218 -0.8158
  551TIP3    H123144   5.462   5.414  14.047 -0.6975  0.1806 -0.2119
  551TIP3    H223145   5.348   5.452  14.140 -0.0823  1.7612 -0.1018
  552TIP3   OH223146   0.295   2.821   0.580  0.1228 -0.1323  0.1814
  552TIP3    H123147   0.209   2.809   0.619 -0.5185  0.7877 -0.9202
  552TIP3    H223148   0.320   2.733   0.552 -0.1299 -0.5218  1.1647
  553TIP3   OH223149   0.001   1.699  12.834  0.3731  0.1261  0.0496
  553TIP3    H123150  -0.009   1.787  12.798  0.1648 -0.3483 -1.0699
  553TIP3    H223151   0.083   1.667  12.795 -1.0517 -1.2712 -1.8632
  554TIP3   OH223152   2.918   7.156  12.368  0.6969 -0.2880  0.7857
  554TIP3    H123153   2.996   7.109  12.396  1.0060 -1.0861 -1.2757
  554TIP3    H223154   2.936   7.180  12.277 -1.1137  0.2830  0.5497
  555TIP3   OH223155   2.477   0.517  14.725 -0.2688 -0.5935 -0.1173
  555TIP3    H123156   2.532   0.593  14.744  0.0969 -0.9240  0.1818
  555TIP3    H223157   2.537   0.442  14.734 -0.7567 -0.9530  0.1451
  556TIP3   OH223158   1.499   1.580  11.098 -0.3091 -0.3501 -0.9045
  556TIP3    H123159   1.564   1.532  11.048  2.2836  0.3016  1.7150
  556TIP3    H223160   1.427   1.518  11.111  0.3981 -1.5472 -2.5708
  557TIP3   OH223161   3.201   1.451  12.413  0.1368  0.5099 -0.0703
  557TIP3    H123162   3.231   1.508  12.483  0.6601 -1.7103  1.5934
  557TIP3    H223163   3.111   1.429  12.438  0.1129  0.2167 -0.4221
  558TIP3   OH223164   3.529   0.354  11.898 -0.5391 -0.1736  0.1531
  558TIP3    H123165   3.604   0.324  11.846 -1.8331 -2.0739 -0.6802
  558TIP3    H223166   3.475   0.403  11.836 -0.5060  0.2842  0.4885
  559TIP3   OH223167   5.015   2.265  11.788  0.4751  0.1999 -0.1898
  559TIP3    H123168   4.998   2.303  11.874  1.0475  0.3407 -0.1390
  559TIP3    H223169   4.965   2.183  11.788  0.7203  0.0460  0.3932
  560TIP3   OH223170   1.461   3.772  12.475  0.5997 -0.5015 -0.6710
  560TIP3    H123171   1.432   3.694  12.427 -1.2759  1.0341 -2.1392
  560TIP3    H223172   1.409   3.771  12.556  1.1952 -1.2076 -0.2917
  561TIP3   OH223173   7.106   6.199  13.930  0.3185 -0.0649  0.4180
  561TIP3    H123174   7.197   6.199  13.959 -0.4241  0.4287  2.8133
  561TIP3    H223175   7.060   6.254  13.993 -1.4003  0.8479 -1.5736
  562TIP3   OH223176   6.815   6.251  13.444  0.5272 -0.0999  0.1283
  562TIP3    H123177   6.753   6.288  13.381 -0.1557 -2.5110 -0.6746
  562TIP3    H223178   6.880   6.320  13.458 -1.2878  1.7745 -0.4701
  563TIP3   OH223179   1.938   1.627  12.392 -0.1117  0.5368  0.5749
  563TIP3    H123180   1.946   1.622  12.487 -0.7598  0.0745  0.6098
  563TIP3    H223181   2.020   1.590  12.359 -0.4638 -0.5822  0.9396
  564TIP3   OH223182   0.153   1.519   9.410  0.0627 -0.3272  0.3547
  564TIP3    H123183   0.232   1.466   9.408  1.0984  1.2176 -0.3531
  564TIP3    H223184   0.139   1.539   9.503  0.7434 -0.2617  0.4439
  565TIP3   OH223185   1.577   1.248  13.417 -0.3681 -0.1812 -0.0105
  565TIP3    H123186   1.540   1.250  13.328  1.9902 -1.4966 -1.0810
  565TIP3    H223187   1.666   1.282  13.407  0.2319 -1.1760  1.6789
  566TIP3   OH223188   1.192   4.105  10.866 -0.1119  0.4922  0.1856
  566TIP3    H123189   1.121   4.119  10.804  0.9804 -0.6329 -1.3853
  566TIP3    H223190   1.242   4.187  10.865 -0.0753  0.4666 -0.4820
  567TIP3   OH223191   2.336   2.920  14.544 -0.3066  0.5689  0.0953
  567TIP3    H123192   2.344   2.998  14.599  0.4182 -0.0707  0.9103
  567TIP3    H223193   2.360   2.950  14.457 -0.9381  1.4712  0.2276
  568TIP3   OH223194   2.523   2.758  13.370  0.0166  0.1829  0.3838
  568TIP3    H123195   2.603   2.738  13.322  0.7700  1.8109  0.9186
  568TIP3    H223196   2.454   2.757  13.304  0.5045 -0.9885 -0.1210
  569TIP3   OH223197   4.115   4.320  12.427 -0.2359  0.1663 -0.2381
  569TIP3    H123198   4.070   4.257  12.371 -0.5555 -2.0590  2.3768
  569TIP3    H223199   4.185   4.269  12.468 -2.1600  0.7406  3.9861
  570TIP3   OH223200   1.624   5.273  10.076 -0.1205  0.1830 -0.0221
  570TIP3    H123201   1.695   5.337  10.080 -0.1788  0.3392 -1.3133
  570TIP3    H223202   1.660   5.200  10.025  0.9972 -2.2066  3.9206
  571TIP3   OH223203   4.780   5.191  10.983  0.0564  0.5402  0.0080
  571TIP3    H123204   4.817   5.232  10.906 -0.1018 -0.1565 -0.4441
  571TIP3    H223205   4.745   5.108  10.952  0.4895 -0.0020  0.9233
  572TIP3   OH223206   2.181   2.692  11.189  0.8876  0.2018  0.0904
  572TIP3    H123207   2.180   2.778  11.147 -0.0823  1.0306  1.7164
  572TIP3    H223208   2.113   2.642  11.143 -0.8608  1.4230  1.2536
  573TIP3   OH223209   1.376   2.153   0.757  0.0770  0.0710  0.5245
  573TIP3    H123210   1.402   2.126   0.669 -3.4917 -0.0681 -0.6063
  573TIP3    H223211   1.335   2.238   0.744  1.2489  0.9350  2.3797
  574TIP3   OH223212   3.783   3.649  11.960  0.0542  0.6814  0.0652
  574TIP3    H123213   3.818   3.733  11.930  0.3880  0.9904  1.2749
  574TIP3    H223214   3.812   3.586  11.893  0.7540  1.3496 -0.2778
  575TIP3   OH223215   2.156   1.175  10.835  0.2893 -0.0105 -0.2123
  575TIP3    H123216   2.239   1.139  10.865 -0.2803 -1.5264 -0.4094
  575TIP3    H223217   2.091   1.139  10.895  0.1123  3.8015  2.0094
  576TIP3   OH223218   3.738   3.363  12.041 -0.0414 -0.4128  0.5392
  576TIP3    H123219   3.812   3.345  11.984 -1.9555  0.8664 -2.4488
  576TIP3    H223220   3.670   3.302  12.013 -0.7495 -0.3514  2.0464
  577TIP3   OH223221   5.176   1.346  12.712  0.1341 -0.1819  0.2351
  577TIP3    H123222   5.210   1.428  12.675  0.5216  0.0914  1.1778
  577TIP3    H223223   5.254   1.293  12.727 -0.0442 -0.3928  0.4121
  578TIP3   OH223224   2.274   5.117  14.157  0.4330  0.1421 -0.3241
  578TIP3    H123225   2.296   5.194  14.104  0.7069  0.1574 -0.1892
  578TIP3    H223226   2.272   5.045  14.095  0.3175  0.2363 -0.4303
  579TIP3   OH223227   6.533   0.982  11.836  0.4604 -0.4870  0.2686
  579TIP3    H123228   6.502   0.902  11.880 -0.1913  0.2577  1.1822
  579TIP3    H223229   6.538   1.047  11.906  0.8585  0.3162 -0.5002
  580TIP3   OH223230   4.533   1.122  14.389  0.5381  1.0000  0.2931
  580TIP3    H123231   4.457   1.075  14.355  1.9946 -1.5700  0.4903
  580TIP3    H223232   4.592   1.054  14.420  1.6869  3.0612  2.8460
  581TIP3   OH223233   2.302   1.314  12.878  0.3506  0.1826 -0.0749
  581TIP3    H123234   2.324   1.328  12.786  0.1380 -1.2564 -0.3721
  581TIP3    H223235   2.355   1.376  12.926 -0.5132  1.8672 -1.2595
  582TIP3   OH223236   0.384   6.825   9.871  0.4112 -0.3685  0.5317
  582TIP3    H123237   0.369   6.911   9.909  0.8144  0.7475 -1.8038
  582TIP3    H223238   0.433   6.777   9.938 -1.1132  0.6842  2.4500
  583TIP3   OH223239   4.834   2.817  13.098  0.5604 -0.2398  0.1236
  583TIP3    H123240   4.779   2.894  13.083  0.3061 -0.5693 -0.6176
  583TIP3    H223241   4.792   2.746  13.049  1.9117 -0.3841 -0.8541
  584TIP3   OH223242   0.640   5.494  10.497 -0.4126 -0.6920 -0.4627
  584TIP3    H123243   0.604   5.416  10.538  0.6110 -0.1733  1.4894
  584TIP3    H223244   0.721   5.464  10.455  0.3563 -0.5663  0.8990
  585TIP3   OH223245   4.452   5.594   0.588 -0.0366 -0.3360 -0.0098
  585TIP3    H123246   4.369   5.607   0.634 -0.4392  3.8547 -1.7543
  585TIP3    H223247   4.515   5.648   0.636  0.3532  1.1324 -2.1226
  586TIP3   OH223248   4.221   0.611  12.567 -0.5389  0.1515 -0.0201
  586TIP3    H123249   4.177   0.681  12.519 -2.2229 -0.1087  1.1177
  586TIP3    H223250   4.211   0.635  12.659  0.5440 -0.6088  0.3101
  587TIP3   OH223251   4.164   7.063  11.214  0.0632 -0.1264 -0.0039
  587TIP3    H123252   4.098   7.040  11.280 -1.7601  0.3163 -1.6215
  587TIP3    H223253   4.123   7.039  11.131  2.1886 -0.3579 -1.0062
  588TIP3   OH223254   7.087   6.359  11.060  0.1108 -0.4528  0.0147
  588TIP3    H123255   7.116   6.441  11.100 -0.4570 -1.7764  3.2507
  588TIP3    H223256   7.165   6.323  11.018  0.7678  0.8752  0.0824
  589TIP3   OH223257   4.744   2.118  10.861 -0.7327 -0.6454 -0.2404
  589TIP3    H123258   4.795   2.122  10.780  0.5571 -1.0412  0.5519
  589TIP3    H223259   4.714   2.028  10.866  0.7535 -1.1063  0.6675
  590TIP3   OH223260   0.814   6.811  10.127  0.5777 -0.2606  0.1024
  590TIP3    H123261   0.901   6.823  10.166  0.3240  0.1839  0.5503
  590TIP3    H223262   0.788   6.899  10.101  1.0105 -0.6476 -1.6650
  591TIP3   OH223263   2.974   6.598   1.067  0.0883 -0.1383 -0.0452
  591TIP3    H123264   2.888   6.590   1.110  0.4494 -2.8147  0.2723
  591TIP3    H223265   2.955   6.641   0.984 -1.6189 -0.9182 -0.0876
  592TIP3   OH223266   6.093   1.822  13.144 -0.0946 -0.2611  0.2047
  592TIP3    H123267   6.099   1.912  13.174  0.6677 -1.1838  2.9225
  592TIP3    H223268   6.019   1.785  13.191 -0.2383 -1.1447 -0.6848
  593TIP3   OH223269   5.444   4.778   9.505 -0.4628 -0.7598  0.4731
  593TIP3    H123270   5.510   4.712   9.526  0.3037 -0.3726 -0.6679
  593TIP3    H223271   5.381   4.731   9.449  0.1270 -0.5121 -0.4077
  594TIP3   OH223272   3.725   5.653  11.050  0.2375 -0.3789 -0.6077
  594TIP3    H123273   3.748   5.735  11.006 -1.1962  0.4489  0.1338
  594TIP3    H223274   3.673   5.681  11.126 -1.4040 -2.0501 -1.0931
  595TIP3   OH223275   5.486   5.793  12.626  0.6398 -0.2546  0.2702
  595TIP3    H123276   5.517   5.730  12.691  0.4233 -1.1116 -0.4365
  595TIP3    H223277   5.400   5.759  12.599  1.5677 -0.9910 -1.8662
  596TIP3   OH223278   6.781   3.999  15.090 -0.3956 -0.6069  0.2705
  596TIP3    H123279   6.722   4.009  15.164 -2.3211  1.1031 -1.4272
  596TIP3    H223280   6.853   3.945  15.123 -1.1292  0.2499  3.4053
  597TIP3   OH223281   6.453   2.023  13.525  0.4950  0.1933 -0.0735
  597TIP3    H123282   6.533   2.009  13.576  0.2312  1.0489  0.5836
  597TIP3    H223283   6.461   1.962  13.451  0.9387 -0.9694  0.9142
  598TIP3   OH223284   5.880   3.285  10.072  1.1790  0.3030 -0.1653
  598TIP3    H123285   5.938   3.223  10.027 -0.9177 -1.2432 -0.8471
  598TIP3    H223286   5.903   3.370  10.035  3.3553 -0.1838 -0.0238
  599TIP3   OH223287   3.315   4.075   9.853  0.2672 -0.2621  0.4400
  599TIP3    H123288   3.301   4.014   9.781 -0.1283 -1.1502  1.2609
  599TIP3    H223289   3.396   4.046   9.895  1.1312  0.9664 -0.3566
  600TIP3   OH223290   4.021   6.492  13.946  0.0183  0.3344  0.1144
  600TIP3    H123291   3.946   6.542  13.913  0.8160  1.5295  0.0912
  600TIP3    H223292   4.014   6.499  14.041  0.2464  0.6717  0.1084
  601TIP3   OH223293   6.536   1.766  12.910  0.3863 -0.6536 -0.3633
  601TIP3    H123294   6.529   1.789  12.817 -0.0350 -0.1445 -0.2097
  601TIP3    H223295   6.453   1.724  12.931 -0.8240  2.0758  0.5524
  602TIP3   OH223296   0.693   2.920  12.025  0.4816  0.3659 -0.1328
  602TIP3    H123297   0.706   2.870  11.945 -2.7508  0.6577 -0.8911
  602TIP3    H223298   0.697   3.012  11.997 -0.2496  0.4716  0.0964
  603TIP3   OH223299   0.603   1.148  11.929 -0.4501  0.4122 -0.3030
  603TIP3    H123300   0.653   1.084  11.880  1.0228  1.0434  0.3549
  603TIP3    H223301   0.582   1.217  11.866 -2.2999 -0.8323 -1.0849
  604TIP3   OH223302   4.477   2.909  13.808 -0.2828 -0.2049 -0.0640
  604TIP3    H123303   4.428   2.834  13.840 -2.4005  2.1709  2.5451
  604TIP3    H223304   4.467   2.975  13.877  2.3838  2.1012 -1.7873
  605TIP3   OH223305   2.913   3.585  13.971 -0.1075 -0.4483 -0.2078
  605TIP3    H123306   2.849   3.623  13.910 -0.2994  0.8651  0.7823
  605TIP3    H223307   2.882   3.496  13.985 -2.0566  0.3260  0.6708
  606TIP3   OH223308   2.291   1.866  13.307 -0.1950 -0.4510 -0.3901
  606TIP3    H123309   2.373   1.879  13.355  0.5311  1.3495 -2.0829
  606TIP3    H223310   2.262   1.778  13.334  0.2729  0.3767  3.1707
  607TIP3   OH223311   2.562   6.962  10.459  0.2108  0.5536  0.0380
  607TIP3    H123312   2.599   7.050  10.447  0.4042  0.2655 -1.6064
  607TIP3    H223313   2.638   6.903  10.456 -0.0990  0.1847 -0.6849
  608TIP3   OH223314   1.012   1.199  11.965 -0.3127 -0.1708 -0.1345
  608TIP3    H123315   1.107   1.190  11.967 -0.3578 -0.6279  0.1402
  608TIP3    H223316   0.981   1.113  11.936 -0.6618 -0.1775  0.2541
  609TIP3   OH223317   1.610   6.815  10.089 -0.0223 -0.0390 -0.1676
  609TIP3    H123318   1.669   6.830  10.163  0.1624 -2.2364  0.1648
  609TIP3    H223319   1.578   6.902  10.067  1.7542  0.9532  0.9692
  610TIP3   OH223320   2.092   0.868  10.881  0.0662 -0.5663 -0.0026
  610TIP3    H123321   2.046   0.938  10.926  1.2103  0.7632 -0.8536
  610TIP3    H223322   2.180   0.903  10.866  0.8135 -2.3616 -0.0228
  611TIP3   OH223323   2.931   4.487  11.526 -0.2619 -0.4896 -0.0550
  611TIP3    H123324   2.893   4.526  11.605  0.6230 -1.5533  0.9199
  611TIP3    H223325   2.892   4.536  11.454 -0.3196  1.1753  1.0767
  612TIP3   OH223326   6.064   0.048  10.800 -0.2590  0.4079 -0.2595
  612TIP3    H123327   6.105   0.006  10.875 -0.4671 -1.0498 -0.9362
  612TIP3    H223328   5.970   0.039  10.816 -0.3036 -0.7794 -1.1612
  613TIP3   OH223329   4.679   1.043  11.420  0.1308  0.2568 -0.7079
  613TIP3    H123330   4.662   0.950  11.402  1.1290  0.1287 -0.9986
  613TIP3    H223331   4.767   1.045  11.457 -0.9150  0.8143  1.8265
  614TIP3   OH223332   1.502   4.221  12.510 -0.2502  0.0705 -0.0626
  614TIP3    H123333   1.499   4.299  12.455  0.7053 -1.3783 -2.2780
  614TIP3    H223334   1.442   4.159  12.467  0.5400 -1.1071  0.5010
  615TIP3   OH223335   5.617   0.744  13.496 -0.5377 -0.0609  0.3222
  615TIP3    H123336   5.608   0.692  13.416  0.0529 -0.6063  0.6094
  615TIP3    H223337   5.685   0.700  13.546  0.3689  1.2971  0.3198
  616TIP3   OH223338   2.055   0.428   9.850 -0.3530 -0.4563 -0.1459
  616TIP3    H123339   2.133   0.373   9.843  0.3030  0.3187  0.9076
  616TIP3    H223340   2.024   0.438   9.760  1.1267 -0.2603 -0.6466
  617TIP3   OH223341   5.222   4.774   9.739 -0.4556 -0.6196 -0.2111
  617TIP3    H123342   5.146   4.751   9.685 -0.8941 -0.7957  0.4717
  617TIP3    H223343   5.294   4.784   9.676 -1.1810  0.1865 -0.9287
  618TIP3   OH223344   2.016   6.491  12.143 -0.0650  0.3916  0.4503
  618TIP3    H123345   2.098   6.446  12.166 -0.0322  1.0302  1.6222
  618TIP3    H223346   2.030   6.523  12.054  0.3795 -0.8277  0.0690
  619TIP3   OH223347   4.352   1.124  10.556  0.2758 -0.9022  0.3357
  619TIP3    H123348   4.277   1.067  10.538 -2.0153  1.9071  0.5040
  619TIP3    H223349   4.397   1.083  10.629 -2.1974 -1.7135  1.4706
  620TIP3   OH223350   1.327   5.140  13.081  0.6729 -0.9573 -0.1758
  620TIP3    H123351   1.352   5.217  13.030 -1.9225  0.8992  1.2439
  620TIP3    H223352   1.409   5.101  13.109  2.0206  1.4395 -0.7214
  621TIP3   OH223353   3.003   0.184  10.898  0.1579 -0.4791  0.0623
  621TIP3    H123354   3.073   0.126  10.865 -2.1058 -3.2926  0.0011
  621TIP3    H223355   2.971   0.141  10.977 -0.8370  1.3112  0.6658
  622TIP3   OH223356   3.193   1.626  11.233  0.2462  0.4895 -0.4473
  622TIP3    H123357   3.265   1.659  11.286 -1.2973  2.5597  0.4336
  622TIP3    H223358   3.207   1.664  11.146  0.3488  0.7202 -0.3307
  623TIP3   OH223359   2.062   2.062  10.895 -0.1311 -0.2061 -0.6437
  623TIP3    H123360   2.092   2.020  10.975 -2.1608 -1.0785 -0.3129
  623TIP3    H223361   2.000   2.129  10.925  0.3481  0.5788 -1.3898
  624TIP3   OH223362   4.069   1.782  10.171 -0.0660 -0.0286 -0.2983
  624TIP3    H123363   4.131   1.839  10.214 -2.7154  1.4555  1.7014
  624TIP3    H223364   4.007   1.841  10.128 -0.2474 -1.4493 -2.0881
  625TIP3   OH223365   1.773   2.539  14.469 -0.2465 -0.5172 -0.2273
  625TIP3    H123366   1.850   2.560  14.416 -0.5501 -2.4542 -1.5176
  625TIP3    H223367   1.797   2.457  14.513 -0.4595  0.4400  1.7393
  626TIP3   OH223368   2.497   1.710   9.747 -0.5751  0.4363  0.1525
  626TIP3    H123369   2.460   1.639   9.695 -0.4796  1.2136 -1.0009
  626TIP3    H223370   2.421   1.762   9.773 -0.5067  0.7824 -0.3290
  627TIP3   OH223371   4.788   0.579  11.350 -0.2359 -0.1783 -0.1644
  627TIP3    H123372   4.877   0.565  11.317  0.1172  3.0944 -0.8323
  627TIP3    H223373   4.732   0.565  11.274 -0.2445 -1.5488  0.0852
  628TIP3   OH223374   2.763   4.082  11.064 -0.1346  0.4988 -0.4789
  628TIP3    H123375   2.676   4.070  11.027 -0.4201  1.3465 -0.0789
  628TIP3    H223376   2.751   4.073  11.159  0.1440  1.0214 -0.3917
  629TIP3   OH223377   1.978   0.545  10.689  0.1292 -0.5408  0.1903
  629TIP3    H123378   1.885   0.562  10.674 -0.1163 -0.4053  1.7747
  629TIP3    H223379   2.022   0.582  10.613 -0.9283  1.3844  0.4986
  630TIP3   OH223380   5.636   3.763  10.624 -0.1242  0.1269 -0.7190
  630TIP3    H123381   5.723   3.739  10.593 -0.2735  0.8397 -1.6949
  630TIP3    H223382   5.629   3.857  10.607 -1.0687  0.0860 -0.5981
  631TIP3   OH223383   1.510   5.480  13.404  0.1130  0.4275  0.4304
  631TIP3    H123384   1.562   5.510  13.479 -0.0476 -0.9304  1.0988
  631TIP3    H223385   1.450   5.552  13.386  0.9937  1.2639  0.8141
  632TIP3   OH223386   4.251   2.064   9.914  0.1782  0.0713 -0.6734
  632TIP3    H123387   4.174   2.103   9.955  0.2187  0.8658 -1.3448
  632TIP3    H223388   4.226   2.052   9.823  0.6024 -0.3273 -0.7381
  633TIP3   OH223389   0.922   1.453  13.755 -0.2239 -0.1111  0.4156
  633TIP3    H123390   0.835   1.488  13.773  0.0479  1.2492 -0.7519
  633TIP3    H223391   0.970   1.528  13.717  0.6506 -1.5305 -1.3534
  634TIP3   OH223392   0.971   0.055  10.247 -0.0621  0.1690  0.0571
  634TIP3    H123393   1.008   0.114  10.182 -0.7421 -0.8651 -1.3138
  634TIP3    H223394   1.047   0.019  10.294  0.7087 -1.7289 -2.5314
  635TIP3   OH223395   4.964   4.993  13.486 -0.5582 -0.2818  0.9887
  635TIP3    H123396   4.879   4.994  13.441  0.4700 -0.9430 -1.0131
  635TIP3    H223397   4.975   5.082  13.520  0.1150  1.2122 -2.9170
  636TIP3   OH223398   3.373   6.973  10.332 -0.5232 -0.1538 -0.1979
  636TIP3    H123399   3.373   6.893  10.280  0.9810  0.8782 -1.8224
  636TIP3    H223400   3.457   6.972  10.379 -0.5194  0.4338 -0.1799
  637TIP3   OH223401   2.159   1.062  12.519  0.1799 -0.2195  0.2596
  637TIP3    H123402   2.203   0.978  12.524 -0.8614 -0.7365  0.8396
  637TIP3    H223403   2.191   1.101  12.438  1.1102 -0.9181  0.2874
  638TIP3   OH223404   1.682   1.778  10.114  0.1803 -0.4028 -0.5172
  638TIP3    H123405   1.710   1.697  10.156  0.5591 -0.2146 -0.4028
  638TIP3    H223406   1.612   1.751  10.054  0.2256 -0.7954 -0.3957
  639TIP3   OH223407   3.091   2.359  11.591 -0.1872 -0.2491  0.0285
  639TIP3    H123408   3.034   2.336  11.664 -0.3934  0.1442 -0.0057
  639TIP3    H223409   3.176   2.320  11.613  0.0040  0.6346  0.9288
  640TIP3   OH223410   5.078   0.108   9.838 -0.2926 -0.1429 -0.0839
  640TIP3    H123411   5.083   0.056   9.918 -0.3360  0.8766  0.5783
  640TIP3    H223412   5.150   0.074   9.784  1.6380  1.2041  1.5911
  641TIP3   OH223413   3.786   0.573  10.365 -1.0243 -0.0944  0.3397
  641TIP3    H123414   3.818   0.533  10.284  1.0224 -0.7315  1.4302
  641TIP3    H223415   3.821   0.518  10.435 -2.2831  0.7817  1.6896
  642TIP3   OH223416   5.490   7.041  11.176 -0.2192  0.3199 -0.6461
  642TIP3    H123417   5.548   6.994  11.115  0.8303  1.4387 -0.5126
  642TIP3    H223418   5.497   6.992  11.258 -0.7107 -0.4816 -1.0658
  643TIP3   OH223419   1.232   6.643  10.788 -0.2502 -0.1340 -0.5272
  643TIP3    H123420   1.205   6.575  10.850  1.9909  0.6486  1.3469
  643TIP3    H223421   1.150   6.668  10.744 -1.7899 -1.1838  1.6302
  644TIP3   OH223422   1.621   3.487   9.886 -0.5095 -0.7444  0.2743
  644TIP3    H123423   1.703   3.455   9.847 -0.5809 -1.0362  0.3627
  644TIP3    H223424   1.581   3.409   9.926 -0.7390 -0.5661  0.3921
  645TIP3   OH223425   6.281   6.205  13.979 -0.6426  0.2042 -0.0151
  645TIP3    H123426   6.372   6.176  13.972 -0.3101 -0.3049  4.6781
  645TIP3    H223427   6.283   6.295  13.947  0.8888 -0.6984 -2.6263
  646TIP3   OH223428   3.259   4.235  12.802 -0.0521 -0.0663 -0.3615
  646TIP3    H123429   3.255   4.298  12.874 -0.2098  1.4558 -1.6873
  646TIP3    H223430   3.322   4.272  12.741  0.0444 -1.3312 -1.0504
  647TIP3   OH223431   4.198   3.132  11.376  0.1807  0.2167 -0.6576
  647TIP3    H123432   4.251   3.093  11.307 -0.4224 -0.2748 -0.8445
  647TIP3    H223433   4.123   3.074  11.385  0.6899 -0.2257  1.0248
  648TIP3   OH223434   4.106   3.726   9.784 -0.2427 -0.1786  0.0344
  648TIP3    H123435   4.031   3.733   9.725  0.5154  1.6364 -0.7378
  648TIP3    H223436   4.067   3.734   9.872 -0.8865  1.7089 -0.3851
  649TIP3   OH223437   3.813   5.566  13.936  0.3290  0.1845 -0.1858
  649TIP3    H123438   3.770   5.629  13.994  2.3155  1.0188  0.4343
  649TIP3    H223439   3.744   5.538  13.875 -1.5272  0.1120  1.8723
  650TIP3   OH223440   3.426   1.113  10.183  0.1609 -0.4948 -0.4284
  650TIP3    H123441   3.474   1.133  10.103 -1.1990 -0.8411 -1.3472
  650TIP3    H223442   3.387   1.027  10.167 -2.8566  0.8709 -0.7188
  651TIP3   OH223443   4.417   1.428  11.877 -0.4347  0.7436  0.1999
  651TIP3    H123444   4.497   1.438  11.928  0.1705  1.8942 -0.9719
  651TIP3    H223445   4.400   1.333  11.877  1.0090  0.4799  0.3049
  652TIP3   OH223446   2.843   1.372  11.194  0.4765  0.0972 -0.0714
  652TIP3    H123447   2.830   1.293  11.142 -1.2585  0.9140 -0.9198
  652TIP3    H223448   2.850   1.443  11.129  0.9263  0.7724  0.7047
  653TIP3   OH223449   2.634   0.881  13.417  0.0980 -0.2238 -0.5051
  653TIP3    H123450   2.652   0.827  13.340 -0.4021 -2.0679  0.6361
  653TIP3    H223451   2.569   0.831  13.466  0.0724  1.1530  0.8769
  654TIP3   OH223452   5.640   0.667  11.826 -0.1757 -0.4301  0.7652
  654TIP3    H123453   5.567   0.709  11.781  0.6441  0.6127  0.3635
  654TIP3    H223454   5.657   0.723  11.902  1.5315  0.5383 -0.2825
  655TIP3   OH223455   4.096   4.307  10.521 -0.4447  0.8064  0.6951
  655TIP3    H123456   4.102   4.350  10.436 -1.0155  2.7920  1.6250
  655TIP3    H223457   4.002   4.298  10.537 -0.3383  0.3347  1.0709
  656TIP3   OH223458   2.779   0.202  11.704  0.0637 -0.0257  0.0299
  656TIP3    H123459   2.807   0.251  11.781  0.9455  0.1390 -0.3827
  656TIP3    H223460   2.705   0.149  11.734 -0.9932  1.6519  0.4448
  657TIP3   OH223461   3.358   1.686  10.265  0.3051  0.2817 -0.3665
  657TIP3    H123462   3.359   1.698  10.170  0.0018  0.1052 -0.3903
  657TIP3    H223463   3.282   1.735  10.295 -0.2297 -0.5552 -0.3330
  658TIP3   OH223464   1.842   1.230  14.784  0.9111  0.3511 -0.3330
  658TIP3    H123465   1.821   1.320  14.762  0.3097 -0.1171 -1.7542
  658TIP3    H223466   1.898   1.200  14.713  0.0376 -0.7907 -0.5641
  659TIP3   OH223467   3.812   1.188  12.280  0.4606  0.0874  0.2555
  659TIP3    H123468   3.804   1.280  12.306 -1.7318 -0.1452  0.5364
  659TIP3    H223469   3.865   1.190  12.201  1.0178  1.5200  0.6410
  660TIP3   OH223470   3.316   0.874  10.130  0.0732  0.6794  0.0229
  660TIP3    H123471   3.349   0.837  10.048 -0.1973  0.7163 -0.1018
  660TIP3    H223472   3.306   0.798  10.188  1.5460  0.8157  0.4609
  661TIP3   OH223473   5.432   0.812  11.633 -0.3417  0.5924 -0.0848
  661TIP3    H123474   5.361   0.749  11.641  1.5277 -1.8662 -1.9887
  661TIP3    H223475   5.432   0.837  11.541 -0.1432  2.3009  0.3613
  662TIP3   OH223476   2.202   1.573  11.581  0.0031 -0.2314  0.0308
  662TIP3    H123477   2.132   1.522  11.543 -0.7416 -0.8017  2.0849
  662TIP3    H223478   2.280   1.519  11.570 -0.1232 -0.2135 -1.0041
  663TIP3   OH223479   0.347   3.043   9.811  0.0211  0.4959  0.1398
  663TIP3    H123480   0.292   3.120   9.829  1.5695  2.0858 -1.6397
  663TIP3    H223481   0.423   3.079   9.766  1.2697 -1.9994  0.1947
  664TIP3   OH223482   0.668   2.038  11.206 -0.0650  0.4413 -0.3427
  664TIP3    H123483   0.690   1.946  11.221  0.0660  0.6792  0.9845
  664TIP3    H223484   0.628   2.039  11.120 -1.8990 -1.1820  0.4553
  665TIP3   OH223485   2.558   0.277  11.870 -0.2382 -0.0695  0.1003
  665TIP3    H123486   2.577   0.357  11.821  2.7156 -1.8984 -1.9296
  665TIP3    H223487   2.464   0.264  11.859 -0.4124  2.0400 -1.2735
  666TIP3   OH223488   1.356   1.503  11.715  0.6754  0.4138 -0.0435
  666TIP3    H123489   1.331   1.414  11.690 -1.8764  1.1526 -0.2675
  666TIP3    H223490   1.321   1.514  11.804  1.9420  0.8215  0.4137
  667TIP3   OH223491   1.563   3.087   0.815 -0.1233 -0.0054 -0.5129
  667TIP3    H123492   1.597   3.093   0.726 -1.3488 -0.3328 -1.0032
  667TIP3    H223493   1.628   3.035   0.862  0.8571  0.7264 -1.0383
  668TIP3   OH223494   2.009   0.430   9.585 -0.1767 -0.3970 -0.1633
  668TIP3    H123495   2.055   0.358   9.542 -0.0024 -0.5422  0.2605
  668TIP3    H223496   1.931   0.445   9.531  1.3412  1.1512 -1.9964
  669TIP3   OH223497   3.845   2.125  12.451  0.1050  0.2472  0.3167
  669TIP3    H123498   3.920   2.155  12.400  0.1632 -1.2489 -0.5041
  669TIP3    H223499   3.771   2.127  12.390 -0.1844  0.1448  0.6604
  670TIP3   OH223500   2.721   0.733  11.910  0.2052  0.3616 -0.1153
  670TIP3    H123501   2.800   0.736  11.964  0.0399 -0.2378  0.1723
  670TIP3    H223502   2.707   0.824  11.882 -0.0344  0.7958  1.3531
  671TIP3   OH223503   3.557   0.133  10.719 -0.6923  0.1597  1.0796
  671TIP3    H123504   3.525   0.194  10.787 -2.4657  0.9294 -0.3926
  671TIP3    H223505   3.479   0.113  10.667  0.2275 -2.1003  0.5452
  672TIP3   OH223506   5.679   6.833  14.209  0.0152 -0.2971  0.0399
  672TIP3    H123507   5.610   6.769  14.196  0.5052 -1.0766  1.1750
  672TIP3    H223508   5.725   6.803  14.288  1.3162  0.4893 -0.3997
  673TIP3   OH223509   3.376   5.194  11.291  0.3128  0.0726 -0.1972
  673TIP3    H123510   3.452   5.143  11.319  0.4492 -0.9874 -2.3653
  673TIP3    H223511   3.302   5.133  11.298  0.2258  0.0424 -1.3741
  674TIP3   OH223512   3.150   6.582  10.528 -0.2393  0.1572 -0.3038
  674TIP3    H123513   3.102   6.503  10.554  1.1128 -0.3005  0.8331
  674TIP3    H223514   3.144   6.583  10.432 -2.9733  0.4188 -0.1834
  675TIP3   OH223515   4.722   2.339   4.172  0.5477 -0.2633  0.1546
  675TIP3    H123516   4.723   2.422   4.124  0.8499 -0.1727  0.3123
  675TIP3    H223517   4.802   2.342   4.225  0.9774 -1.0055 -0.4353
  676TIP3   OH223518   4.244   1.483   9.641 -0.1762  0.1075  0.1170
  676TIP3    H123519   4.216   1.445   9.558  0.0808 -2.5530  1.1928
  676TIP3    H223520   4.306   1.419   9.677  0.1704  1.4993  2.0750
  677TIP3   OH223521   1.795   5.414  12.121  0.0264  0.1156  1.3763
  677TIP3    H123522   1.766   5.326  12.097 -3.4335  1.4799  0.3084
  677TIP3    H223523   1.875   5.427  12.070  0.2310 -2.1527  1.0734
  678TIP3   OH223524   6.713   1.301  10.247 -0.1532 -0.1657 -0.4515
  678TIP3    H123525   6.671   1.277  10.164 -2.0927 -0.4376  0.5839
  678TIP3    H223526   6.658   1.370  10.283 -0.4856 -1.4560  1.5712
  679TIP3   OH223527   6.264   2.610  11.246  0.2318  0.1211 -0.7754
  679TIP3    H123528   6.178   2.604  11.203 -0.6859  0.5403  0.9282
  679TIP3    H223529   6.310   2.679  11.198 -0.8785  0.7859 -0.8974
  680TIP3   OH223530   1.843   0.182  11.689 -0.2512  0.0439  0.0076
  680TIP3    H123531   1.870   0.264  11.732 -1.0590  0.2003  0.2254
  680TIP3    H223532   1.813   0.126  11.761  2.4850 -1.3348  0.1323
  681TIP3   OH223533   2.511   0.493  13.705 -0.3663  0.1172  0.0392
  681TIP3    H123534   2.533   0.503  13.798  0.4852  0.1381 -0.1637
  681TIP3    H223535   2.470   0.406  13.700 -1.3956  0.5589  0.6110
  682TIP3   OH223536   0.449   1.576  10.913  0.0855 -0.6464 -0.6925
  682TIP3    H123537   0.401   1.572  10.831 -1.2579 -2.3308  0.1373
  682TIP3    H223538   0.541   1.568  10.888 -0.0059  2.6864 -2.2975
  683TIP3   OH223539   4.417   5.824  12.803 -0.1951 -0.6377 -0.0729
  683TIP3    H123540   4.428   5.854  12.713 -0.3338  1.6037  0.6145
  683TIP3    H223541   4.498   5.849  12.847  0.0600 -2.1317  0.3432
  684TIP3   OH223542   0.389   4.137  12.184 -0.4787  0.3979 -0.2099
  684TIP3    H123543   0.394   4.218  12.132 -2.2208 -0.1401 -1.2812
  684TIP3    H223544   0.441   4.155  12.262 -2.2100  3.1971  0.3868
  685TIP3   OH223545   3.447   2.592  15.527 -0.2879 -0.2189  0.3200
  685TIP3    H123546   3.380   2.616  15.592 -0.4992 -1.2762  0.4969
  685TIP3    H223547   3.505   2.668  15.524 -2.8795  1.8046 -1.6575
  686TIP3   OH223548   2.997   6.580  11.985 -0.4025 -0.0452 -0.2245
  686TIP3    H123549   3.076   6.594  12.037  0.2275  1.7622 -1.6360
  686TIP3    H223550   2.985   6.661  11.936 -3.1074 -0.3138 -0.0792
  687TIP3   OH223551   0.872   1.980  10.811  0.2744  0.2170 -0.3664
  687TIP3    H123552   0.853   1.895  10.851  1.1016 -0.2799 -1.0331
  687TIP3    H223553   0.799   1.995  10.750  1.5204 -1.3013 -2.2869
  688TIP3   OH223554   2.930   3.282  11.069  0.1335  0.5128 -0.2209
  688TIP3    H123555   2.883   3.251  10.992  0.4436 -1.9091  0.5213
  688TIP3    H223556   2.873   3.260  11.143  2.3744 -2.4818  0.6933
  689TIP3   OH223557   6.168   4.993  14.455  0.3004  0.4695  0.1103
  689TIP3    H123558   6.151   5.006  14.362  1.5629  1.3083 -0.0189
  689TIP3    H223559   6.263   4.983  14.460 -0.0579 -3.6173  0.8361
  690TIP3   OH223560   4.159   3.160  13.276 -0.5185 -0.2063 -0.1922
  690TIP3    H123561   4.081   3.202  13.242 -1.0615 -0.6130  0.5415
  690TIP3    H223562   4.199   3.118  13.200 -0.3597  1.0039 -0.7974
  691TIP3   OH223563   2.444   6.983  10.212  0.7023 -0.0770  0.1159
  691TIP3    H123564   2.420   7.062  10.260 -0.8280 -0.2666 -0.3233
  691TIP3    H223565   2.483   6.926  10.279 -0.0307  0.2586  0.8399
  692TIP3   OH223566   0.890   7.193   9.727  0.2161  0.4232 -0.0161
  692TIP3    H123567   0.975   7.211   9.766 -0.0662  1.8471 -0.0355
  692TIP3    H223568   0.829   7.248   9.775 -0.4193  0.7657 -1.1870
  693TIP3   OH223569   1.467   7.182  13.860  0.1279  0.1152  0.1360
  693TIP3    H123570   1.444   7.090  13.877 -3.0358  0.6627 -0.9784
  693TIP3    H223571   1.441   7.197  13.769  1.3588  1.9254  0.0568
  694TIP3   OH223572   2.758   5.465  10.653 -0.3852 -0.4745 -0.0133
  694TIP3    H123573   2.724   5.388  10.608  0.6668  0.7487 -2.9951
  694TIP3    H223574   2.682   5.524  10.659 -0.4677 -0.5457 -0.3724
  695TIP3   OH223575   4.785   1.050   9.826 -0.0756 -0.1755  0.7555
  695TIP3    H123576   4.690   1.035   9.818 -0.8199  2.6905  3.1812
  695TIP3    H223577   4.794   1.146   9.827  2.8394 -0.4105  0.9479
  696TIP3   OH223578   5.400   1.891  11.286  0.0881  0.2525 -0.4439
  696TIP3    H123579   5.362   1.870  11.201 -1.5551  1.0262  0.0930
  696TIP3    H223580   5.474   1.948  11.266 -0.5417  0.7621 -1.3295
  697TIP3   OH223581   0.611   2.586  15.451  0.3332 -0.0525  0.4628
  697TIP3    H123582   0.697   2.544  15.462 -0.1843 -0.8849  1.4173
  697TIP3    H223583   0.549   2.523  15.488 -0.5486  1.2177  1.1907
  698TIP3   OH223584   3.644   0.742   9.738 -0.7758  0.5390  0.0646
  698TIP3    H123585   3.579   0.686   9.779  0.0810 -0.7646 -0.3257
  698TIP3    H223586   3.596   0.820   9.711 -1.6204  0.8286  2.3016
  699TIP3   OH223587   4.090   5.329  11.166 -0.1220  0.5336 -0.4368
  699TIP3    H123588   4.184   5.332  11.149  0.3650 -1.7373  1.6410
  699TIP3    H223589   4.059   5.250  11.121 -0.9646  1.0089 -0.7087
  700TIP3   OH223590   0.512   3.138  14.477  0.3240 -0.0931  1.0328
  700TIP3    H123591   0.494   3.213  14.422  1.5054 -1.5137 -1.3815
  700TIP3    H223592   0.452   3.070  14.446  1.5516 -1.1562  0.9462
  701TIP3   OH223593   5.220   0.887  11.971  0.3441 -0.3325 -0.1590
  701TIP3    H123594   5.216   0.847  11.884  2.4367 -0.1480 -0.3719
  701TIP3    H223595   5.266   0.823  12.024  0.1335  0.0790  0.5199
  702TIP3   OH223596   0.208   5.640  12.405 -0.3799 -0.2514 -0.7023
  702TIP3    H123597   0.205   5.734  12.387  2.1498  0.2001  0.8414
  702TIP3    H223598   0.186   5.632  12.498  0.4951 -1.0386 -0.5456
  703TIP3   OH223599   1.777   1.357   9.965 -0.7055 -0.4571 -0.1915
  703TIP3    H123600   1.742   1.440   9.931 -2.1269 -1.6363 -1.7207
  703TIP3    H223601   1.857   1.342   9.915 -0.3526  0.0835  0.2131
  704TIP3   OH223602   0.987   2.771  11.272  0.0630 -0.2623 -0.4619
  704TIP3    H123603   0.945   2.705  11.326  1.4979 -0.7298  0.1145
  704TIP3    H223604   1.009   2.842  11.332 -1.1712  0.6086 -1.0170
  705TIP3   OH223605   4.423   5.839  10.733  0.3383  0.5232  0.2332
  705TIP3    H123606   4.421   5.875  10.822  0.3018  1.2308 -0.0533
  705TIP3    H223607   4.505   5.872  10.696 -1.6584  3.7391 -1.4512
  706TIP3   OH223608   6.189   4.839  11.849 -0.0171  0.1101 -0.3037
  706TIP3    H123609   6.168   4.860  11.940 -0.3091 -0.1802 -0.3056
  706TIP3    H223610   6.274   4.795  11.854 -0.4863 -0.7800 -0.0761
  707TIP3   OH223611   3.900   2.737  11.769  0.1993 -0.2203 -0.4122
  707TIP3    H123612   3.843   2.684  11.825 -2.0099  1.6675 -0.8085
  707TIP3    H223613   3.880   2.827  11.793  1.8579  0.5209 -1.7288
  708TIP3   OH223614   0.563   6.393  11.808  0.6104 -0.0592 -0.2348
  708TIP3    H123615   0.581   6.328  11.739  2.2205 -0.1416  0.2496
  708TIP3    H223616   0.549   6.475  11.761  1.4992 -0.1579 -0.6653
  709TIP3   OH223617   1.529   1.931   2.395 -0.4957 -0.3486  0.0236
  709TIP3    H123618   1.549   1.916   2.488  0.9658  0.6638 -0.1008
  709TIP3    H223619   1.571   1.858   2.350  1.4050  0.7451 -0.0658
  710TIP3   OH223620   3.596   2.037   9.490 -0.0346  0.5190  0.1467
  710TIP3    H123621   3.507   2.026   9.457  0.1656  1.5546 -0.8187
  710TIP3    H223622   3.619   1.953   9.529 -0.9231 -0.2029 -0.8672
  711TIP3   OH223623   1.312   0.402   9.899  0.2164  0.1935 -0.0205
  711TIP3    H123624   1.307   0.401   9.994 -0.3369 -1.3609 -0.0372
  711TIP3    H223625   1.374   0.332   9.877  0.2646  0.4726 -0.7922
  712TIP3   OH223626   3.115   6.918  10.213  0.0657 -0.0244 -0.2654
  712TIP3    H123627   3.186   6.910  10.277  0.3870  0.7230 -0.5138
  712TIP3    H223628   3.160   6.936  10.130 -0.2954 -1.8600 -0.8842
  713TIP3   OH223629   3.839   7.069  14.672 -0.0769 -0.3630 -0.2719
  713TIP3    H123630   3.833   7.055  14.577  2.5932 -0.5475 -0.4744
  713TIP3    H223631   3.771   7.133  14.692 -0.9799 -0.6793 -2.2474
  714TIP3   OH223632   0.377   1.853  10.142  0.0331 -0.0108  0.2707
  714TIP3    H123633   0.349   1.903  10.065  2.3020  2.0448  0.7287
  714TIP3    H223634   0.315   1.879  10.211  1.3594  2.5314  0.5901
  715TIP3   OH223635   1.272   0.229  14.500 -0.5702  0.0516 -0.3181
  715TIP3    H123636   1.292   0.136  14.498  0.3257  0.1886  1.2654
  715TIP3    H223637   1.321   0.266  14.426  1.5007 -0.2946  0.8499
  716TIP3   OH223638   0.747   5.006  11.750  0.5070  0.0136  0.4824
  716TIP3    H123639   0.740   5.043  11.662 -1.8087 -0.7887  0.3041
  716TIP3    H223640   0.728   4.913  11.739  1.9896 -0.4559  1.5859
  717TIP3   OH223641   4.908   0.546  12.509 -0.0965 -0.5139  0.0847
  717TIP3    H123642   4.933   0.599  12.585 -1.5660  0.6111 -0.1843
  717TIP3    H223643   4.814   0.533  12.520 -0.2290 -0.7491 -1.3128
  718TIP3   OH223644   3.034   2.824  12.783  0.5267  1.0267  0.4091
  718TIP3    H123645   3.024   2.827  12.878 -2.5882 -2.8996  0.3501
  718TIP3    H223646   2.950   2.857  12.750  0.6643  0.1158 -0.8849
  719TIP3   OH223647   1.888   1.163  12.191  0.0655 -0.4145  0.3308
  719TIP3    H123648   1.826   1.122  12.130 -0.5932  0.7914  0.1796
  719TIP3    H223649   1.971   1.117  12.175 -0.0764 -0.0486 -1.5441
  720TIP3   OH223650   3.250   3.010  11.560  0.6878 -0.0747 -0.9082
  720TIP3    H123651   3.242   3.074  11.489 -2.0214  0.0947 -0.5092
  720TIP3    H223652   3.245   2.925  11.515 -2.5238  0.0233 -0.8527
  721TIP3   OH223653   5.462   4.709  12.729 -0.6765 -0.4126 -0.0713
  721TIP3    H123654   5.542   4.744  12.690 -0.1286 -0.5987  0.8792
  721TIP3    H223655   5.472   4.614  12.722 -0.9198 -0.4322 -0.1525
  722TIP3   OH223656   1.995   6.824  12.160 -0.9190  0.3547 -0.4921
  722TIP3    H123657   2.075   6.846  12.206 -1.6970  0.5181  0.8114
  722TIP3    H223658   2.024   6.776  12.083  0.2800 -2.1790  1.4640
  723TIP3   OH223659   3.657   5.162  10.137  0.0363  0.1388  0.1883
  723TIP3    H123660   3.633   5.133  10.225  0.2375 -0.0974  0.1650
  723TIP3    H223661   3.644   5.086  10.082  0.5901  0.0829  0.1309
  724TIP3   OH223662   2.726   2.348  13.009 -0.4514  0.1915 -0.1011
  724TIP3    H123663   2.792   2.281  13.026 -0.9950 -0.3652 -0.1610
  724TIP3    H223664   2.722   2.399  13.090 -1.5760 -1.1873  0.7197
  725TIP3   OH223665   5.567   6.720  12.398  0.3693 -0.4194 -0.0513
  725TIP3    H123666   5.623   6.660  12.447 -0.7457 -0.2868  1.4040
  725TIP3    H223667   5.478   6.695  12.421 -0.1980 -0.6434 -2.3698
  726TIP3   OH223668   2.379   6.290  14.543 -0.5874  0.3840  0.0151
  726TIP3    H123669   2.349   6.377  14.517  0.5070  0.6317 -0.4619
  726TIP3    H223670   2.467   6.305  14.580 -0.9295 -0.3400  1.1511
  727TIP3   OH223671   1.971   1.271  15.030  0.2603  0.3409 -0.1583
  727TIP3    H123672   1.950   1.241  14.942 -0.0523  0.2645 -0.0552
  727TIP3    H223673   1.926   1.210  15.088  1.7672 -0.5868  0.0694
  728TIP3   OH223674   6.788   2.798  13.126 -0.1848 -0.2587  0.1406
  728TIP3    H123675   6.697   2.786  13.099  0.2900 -2.4543 -0.5875
  728TIP3    H223676   6.840   2.751  13.060  1.5358  1.5231  0.1562
  729TIP3   OH223677   3.153   0.344  11.132 -0.6781 -0.6606  0.0510
  729TIP3    H123678   3.246   0.368  11.134 -0.6578 -0.7433  0.1280
  729TIP3    H223679   3.138   0.313  11.043 -0.1022 -2.7225  0.6440
  730TIP3   OH223680   0.945   1.640  12.000  0.2491 -0.4047 -0.2692
  730TIP3    H123681   0.947   1.717  11.943 -1.5582 -0.5870 -0.5982
  730TIP3    H223682   1.025   1.647  12.052 -0.8298  2.7908  1.1142
  731TIP3   OH223683   4.461   6.366  10.331  0.2678  0.3560 -0.6959
  731TIP3    H123684   4.490   6.454  10.353  1.4242 -0.5301  1.4729
  731TIP3    H223685   4.375   6.358  10.374  1.7239 -0.7485  2.1237
  732TIP3   OH223686   1.392   6.806  10.957  0.1085  0.2750 -0.7138
  732TIP3    H123687   1.361   6.758  10.881 -1.5275 -0.7117  0.5329
  732TIP3    H223688   1.416   6.739  11.020 -0.7532  1.0677  0.4864
  733TIP3   OH223689   3.936   1.891  13.362 -0.1023  0.4033 -0.4748
  733TIP3    H123690   3.944   1.809  13.313 -0.9762 -0.3016  0.5488
  733TIP3    H223691   3.888   1.950  13.303  0.4835  0.1769 -1.1894
  734TIP3   OH223692   4.426   6.117  13.920  0.2107 -0.2509  0.0607
  734TIP3    H123693   4.397   6.082  13.836  0.7690 -2.2440  0.6666
  734TIP3    H223694   4.517   6.141  13.906  0.1198  0.0029 -0.0848
  735TIP3   OH223695   3.741   3.910  13.839  0.0140  0.1225 -0.2134
  735TIP3    H123696   3.651   3.894  13.869  0.1842 -0.6521 -0.0886
  735TIP3    H223697   3.736   3.992  13.791 -0.4858  0.8453  1.0371
  736TIP3   OH223698   3.812   6.419  13.193  0.1690 -0.4206 -0.3043
  736TIP3    H123699   3.787   6.332  13.223  0.2736 -0.0681  0.8128
  736TIP3    H223700   3.887   6.403  13.135  0.3248 -1.0534  0.0619
  737TIP3   OH223701   0.784   0.395  11.269  0.1895  0.0379  0.2749
  737TIP3    H123702   0.867   0.378  11.224  0.7452 -1.7417  1.8794
  737TIP3    H223703   0.797   0.358  11.356 -1.9241  0.7146  0.8882
  738TIP3   OH223704   4.019   4.545  12.323  0.0116  0.2571 -0.2803
  738TIP3    H123705   4.085   4.545  12.254 -0.6126  1.9041 -0.9037
  738TIP3    H223706   4.046   4.475  12.382  1.8467  0.3695 -0.9580
  739TIP3   OH223707   4.743   0.829  12.454  0.6987 -0.5865 -0.6828
  739TIP3    H123708   4.784   0.816  12.369 -0.7353  2.0456 -1.8069
  739TIP3    H223709   4.650   0.812  12.439  0.4609 -0.3051  0.4015
  740TIP3   OH223710   3.102   5.485  11.347 -0.3695 -0.3733  0.2637
  740TIP3    H123711   3.112   5.536  11.267 -0.0366 -0.7791  0.0482
  740TIP3    H223712   3.063   5.402  11.319 -0.8792 -0.2583  0.6096
  741TIP3   OH223713   6.491   3.889  10.955  0.5099 -0.0256  0.2232
  741TIP3    H123714   6.477   3.983  10.970 -0.7837 -0.3619  1.1386
  741TIP3    H223715   6.570   3.869  11.005  1.2409  0.7287 -0.6011
  742TIP3   OH223716   4.480   0.280  10.027  0.4498 -0.4953  0.0970
  742TIP3    H123717   4.425   0.346   9.984  0.5793 -0.0466  0.6136
  742TIP3    H223718   4.430   0.199  10.018  0.5975 -0.4534 -1.1199
  743TIP3   OH223719   5.400   5.598  11.094  0.1725 -0.4449 -0.5243
  743TIP3    H123720   5.357   5.515  11.115 -0.0697 -0.1670  0.0778
  743TIP3    H223721   5.391   5.606  10.999 -3.7592  1.0316 -0.1159
  744TIP3   OH223722   2.923   5.381  11.852  0.4117 -0.4720 -0.1283
  744TIP3    H123723   2.943   5.473  11.869 -2.0478 -0.0276  0.4714
  744TIP3    H223724   2.953   5.335  11.930 -0.9145  0.1978  0.7942
  745TIP3   OH223725   1.346   1.096   0.853 -0.2193  0.2192  0.4942
  745TIP3    H123726   1.329   1.052   0.936  2.6604 -1.3191  0.3436
  745TIP3    H223727   1.270   1.074   0.798  0.2043 -2.9691  1.0853
  746TIP3   OH223728   5.318   2.279  12.620  0.2241  0.0930 -0.5477
  746TIP3    H123729   5.266   2.318  12.691 -0.7771 -2.2257  0.0307
  746TIP3    H223730   5.253   2.240  12.561  1.1943 -0.6244 -1.1536
  747TIP3   OH223731   2.251   5.367  13.248 -0.1261 -0.2718 -0.5356
  747TIP3    H123732   2.162   5.341  13.269  0.1697  1.1714  2.8562
  747TIP3    H223733   2.243   5.458  13.218  0.2326  0.0135  0.2188
  748TIP3   OH223734   4.597   2.735  11.736 -0.1750  0.1518  0.4269
  748TIP3    H123735   4.510   2.739  11.775 -0.5445  2.3552 -0.5120
  748TIP3    H223736   4.646   2.806  11.779  0.7393 -0.2047 -0.0034
  749TIP3   OH223737   1.437   4.981  10.283 -0.3299 -0.0655 -0.5760
  749TIP3    H123738   1.409   5.073  10.280 -1.8333 -0.5223 -0.9486
  749TIP3    H223739   1.390   4.940  10.211  1.8509 -0.7308 -1.6290
  750TIP3   OH223740   2.003   5.702  13.378 -0.4142 -0.4391 -0.0076
  750TIP3    H123741   1.970   5.774  13.432  0.9327 -0.0400  0.3191
  750TIP3    H223742   1.927   5.672  13.329 -1.4254 -0.1011  1.3194
  751TIP3   OH223743   4.101   4.577  13.114  0.4757 -0.3543  0.0245
  751TIP3    H123744   4.157   4.503  13.138  2.0332  0.6020 -0.6066
  751TIP3    H223745   4.040   4.541  13.049  1.8273 -0.8676 -0.9697
  752TIP3   OH223746   0.834   5.163  12.971  0.1099 -0.7430 -0.5058
  752TIP3    H123747   0.749   5.208  12.967  0.4205 -0.0127  0.8058
  752TIP3    H223748   0.884   5.201  12.899  1.7047  3.8843  2.8297
  753TIP3   OH223749   5.462   0.863  10.773  0.0838 -0.3229 -0.4534
  753TIP3    H123750   5.483   0.871  10.680  3.1045 -0.0544  0.1903
  753TIP3    H223751   5.528   0.803  10.807  0.2049  1.0827  1.8864
  754TIP3   OH223752   6.167   6.817  10.928 -0.0954 -0.1026  0.4513
  754TIP3    H123753   6.149   6.727  10.957 -0.4773 -0.3268 -0.4433
  754TIP3    H223754   6.176   6.809  10.833  2.5809  0.3546  0.6088
  755TIP3   OH223755   0.090   1.387  10.329 -0.5053  0.4353 -0.4063
  755TIP3    H123756   0.049   1.324  10.388  0.4539  0.0907 -0.0906
  755TIP3    H223757   0.152   1.335  10.278 -1.9848  0.5457 -2.3998
  756TIP3   OH223758   3.386   2.689  15.042  0.6388 -0.1781 -0.0939
  756TIP3    H123759   3.467   2.650  15.008  1.9359  0.5532  2.0868
  756TIP3    H223760   3.330   2.613  15.063  2.1995 -0.8405  1.8143
  757TIP3   OH223761   6.183   3.146  12.679 -0.1851  0.2627 -0.2541
  757TIP3    H123762   6.147   3.231  12.704 -0.3235  0.2046 -0.2614
  757TIP3    H223763   6.110   3.085  12.688  0.3115 -0.1223  1.2229
  758TIP3   OH223764   2.747   0.411   9.659  0.5546  0.2754  0.0411
  758TIP3    H123765   2.652   0.405   9.664  0.4561  0.7866 -1.0559
  758TIP3    H223766   2.777   0.393   9.748 -0.6326  1.5807  0.7192
  759TIP3   OH223767   0.742   7.027  13.687  0.1246 -0.1221 -0.0705
  759TIP3    H123768   0.719   7.117  13.709 -0.0916  0.1308 -1.2583
  759TIP3    H223769   0.766   6.987  13.770  0.4215  1.0895  0.4465
  760TIP3   OH223770   6.240   0.634  14.967  0.2404 -0.3590 -0.5062
  760TIP3    H123771   6.165   0.690  14.949 -0.4548 -0.8110  0.9446
  760TIP3    H223772   6.298   0.647  14.891 -1.5408 -0.4410 -1.9102
  761TIP3   OH223773   2.477   1.087   9.976  0.5496  0.2394 -0.5049
  761TIP3    H123774   2.481   1.179  10.004  0.0790  0.6134 -1.6740
  761TIP3    H223775   2.525   1.085   9.893 -0.0822 -0.4363 -0.8561
  762TIP3   OH223776   3.715   0.762  11.746  0.2708  0.7203  0.0875
  762TIP3    H123777   3.697   0.774  11.839 -1.7567  1.4832 -0.3660
  762TIP3    H223778   3.636   0.794  11.703  0.2670 -1.7222 -1.8122
  763TIP3   OH223779   5.709   6.457   9.363  0.2074  0.4811  0.3497
  763TIP3    H123780   5.763   6.379   9.350  0.0755  0.4443  0.0269
  763TIP3    H223781   5.770   6.523   9.398  0.6313  0.6732 -0.7430
  764TIP3   OH223782   2.773   4.777  11.129 -0.0846  0.1887 -0.1969
  764TIP3    H123783   2.720   4.708  11.168 -1.0512 -0.3200 -2.3949
  764TIP3    H223784   2.807   4.739  11.048 -0.9950  2.4236 -1.6576
  765TIP3   OH223785   4.415   4.737  11.937 -0.3832  0.2207  0.3068
  765TIP3    H123786   4.431   4.714  12.028 -0.7742 -0.4473  0.2147
  765TIP3    H223787   4.498   4.773  11.906 -0.5306  1.3487  1.1836
  766TIP3   OH223788   5.614   4.611  11.665  0.3073 -0.3327 -0.0896
  766TIP3    H123789   5.588   4.688  11.615  0.5498  1.1191  1.9820
  766TIP3    H223790   5.656   4.646  11.743  1.6305 -2.5811  0.2437
  767TIP3   OH223791   2.580   5.438  13.377  0.3069 -0.0706  0.2156
  767TIP3    H123792   2.543   5.526  13.373  0.3990 -0.0068  0.8697
  767TIP3    H223793   2.612   5.422  13.288  0.5637  0.6669  0.1737
  768TIP3   OH223794   1.177   4.057  10.456 -0.4060 -0.3290  0.2311
  768TIP3    H123795   1.163   4.113  10.532 -0.2374  2.5182 -1.7656
  768TIP3    H223796   1.272   4.051  10.447 -0.4276 -0.0057 -0.2237
  769TIP3   OH223797   4.272   0.008  14.002  0.2472 -0.2193 -0.2553
  769TIP3    H123798   4.290   0.094  13.965 -0.4100 -0.6915 -1.6972
  769TIP3    H223799   4.290  -0.053  13.931 -1.1719 -1.1177  0.1380
  770TIP3   OH223800   2.117   7.126  12.527  0.3455 -0.4095 -0.7372
  770TIP3    H123801   2.161   7.188  12.585 -0.2674  0.7159 -1.4536
  770TIP3    H223802   2.166   7.044  12.538  1.5733  0.3657 -0.2703
  771TIP3   OH223803   1.455   4.412  10.909  0.3251  0.3101 -0.0268
  771TIP3    H123804   1.459   4.507  10.899 -2.2205  0.6948  2.1553
  771TIP3    H223805   1.543   4.387  10.937  1.0600  1.9774 -0.7869
  772TIP3   OH223806   4.423   4.402  10.085  0.7497 -0.7804 -0.1256
  772TIP3    H123807   4.381   4.323  10.120  0.7932 -0.0199  1.7084
  772TIP3    H223808   4.356   4.470  10.092  0.7692 -0.5960 -1.5472
  773TIP3   OH223809   0.004   3.486  12.208  0.2687 -0.7428  0.1670
  773TIP3    H123810  -0.030   3.528  12.129  0.1838  0.1866  0.6997
  773TIP3    H223811  -0.054   3.516  12.278  0.2422 -1.6969  0.5653
  774TIP3   OH223812   5.487   6.692  12.099 -0.4880 -0.5205  0.1258
  774TIP3    H123813   5.483   6.778  12.057 -1.8805 -0.6442 -0.0353
  774TIP3    H223814   5.476   6.710  12.192  0.7302 -0.4008  0.2484
  775TIP3   OH223815   3.333   1.075  11.546  0.4830  0.1419  0.0070
  775TIP3    H123816   3.243   1.105  11.561  0.5185  0.1097  0.2967
  775TIP3    H223817   3.367   1.133  11.478  0.2606  0.1913 -0.0633
  776TIP3   OH223818   5.551   6.015  10.149 -0.2587  0.6094  0.4296
  776TIP3    H123819   5.458   6.027  10.129 -0.5552 -0.9161  0.8234
  776TIP3    H223820   5.590   5.992  10.065 -0.6552 -1.0571  0.6965
  777TIP3   OH223821   2.290   4.158  14.212  0.4292  0.1536 -0.2296
  777TIP3    H123822   2.261   4.206  14.134  0.2983 -0.4724 -0.5761
  777TIP3    H223823   2.381   4.185  14.224  0.2924  0.6528 -0.2895
  778TIP3   OH223824   1.933   1.593  11.271  0.0881 -0.0595 -0.7516
  778TIP3    H123825   1.878   1.665  11.239 -0.3473 -0.6705 -1.3958
  778TIP3    H223826   1.917   1.592  11.366 -0.2162  0.4320 -0.7915
  779TIP3   OH223827   2.603   5.814  14.947  0.2856  0.2847  0.0100
  779TIP3    H123828   2.691   5.778  14.947  0.0212 -0.4443 -3.0596
  779TIP3    H223829   2.551   5.748  14.993  1.2016  0.4136  1.2500
  780TIP3   OH223830   3.445   5.212  10.945  0.2234  1.1756  0.4657
  780TIP3    H123831   3.409   5.204  11.034  0.5825 -0.9906  0.4509
  780TIP3    H223832   3.381   5.167  10.890  2.6054 -2.3841  0.3838
  781TIP3   OH223833   0.493   3.904  15.561  1.1286  0.8142 -0.2824
  781TIP3    H123834   0.568   3.964  15.557  1.6953  0.2443  1.4451
  781TIP3    H223835   0.508   3.852  15.639 -0.2759 -0.3964 -0.8008
  782TIP3   OH223836   6.161   1.773   9.954 -0.4269  0.0235  0.2214
  782TIP3    H123837   6.160   1.866   9.932 -1.7006 -0.3731 -1.5433
  782TIP3    H223838   6.171   1.729   9.870  1.8526 -1.4085  1.2060
  783TIP3   OH223839   2.748   6.235  10.689  0.0908 -0.1475 -0.4450
  783TIP3    H123840   2.738   6.145  10.658  0.2769 -0.3292  0.0117
  783TIP3    H223841   2.659   6.270  10.690 -0.8843 -2.1899  4.8583
  784TIP3   OH223842   4.616   2.646  14.380  0.4713  0.0166 -0.0549
  784TIP3    H123843   4.665   2.577  14.425  0.6966 -0.4233 -0.9450
  784TIP3    H223844   4.536   2.602  14.351 -0.7543  0.8890  1.9300
  785TIP3   OH223845   3.804   3.648  13.053  0.6963 -0.2678  0.2939
  785TIP3    H123846   3.780   3.686  12.968  0.4312  0.8377  0.8651
  785TIP3    H223847   3.882   3.596  13.034 -0.4661 -1.6088 -1.0085
  786TIP3   OH223848   1.054   2.940  13.766  0.4766 -0.2814 -0.0778
  786TIP3    H123849   1.026   2.850  13.781 -0.7670 -0.0087 -0.6968
  786TIP3    H223850   1.144   2.931  13.733  0.1707 -1.3224 -0.6659
  787TIP3   OH223851   3.274   1.477  11.920  0.1726 -0.2862 -0.4575
  787TIP3    H123852   3.317   1.491  12.004 -0.0822  2.1907 -0.6983
  787TIP3    H223853   3.182   1.461  11.942 -0.1573  1.7265 -0.3174
  788TIP3   OH223854   4.336   3.486  11.458 -0.2419 -0.6571 -0.3274
  788TIP3    H123855   4.411   3.453  11.509  0.8909  1.6039 -0.4940
  788TIP3    H223856   4.289   3.543  11.519  0.3314  0.9568 -1.4024
  789TIP3   OH223857   1.899   5.947  11.334 -0.2379 -0.1608  0.4054
  789TIP3    H123858   1.970   5.897  11.373  0.2961 -0.0003 -0.3645
  789TIP3    H223859   1.820   5.897  11.356 -0.2159  1.0795  3.6181
  790TIP3   OH223860   1.528   3.529  11.632  0.4385 -0.3059  0.3492
  790TIP3    H123861   1.556   3.439  11.649 -0.3711 -0.5735  0.3085
  790TIP3    H223862   1.517   3.568  11.718 -2.2754 -1.2244  0.4689
  791TIP3   OH223863   5.210   6.899  12.285 -0.3592 -0.5863  0.5097
  791TIP3    H123864   5.239   6.811  12.311  1.0245 -1.0048 -2.2362
  791TIP3    H223865   5.219   6.899  12.190 -2.1713  1.9136  0.3163
  792TIP3   OH223866   2.317   6.938   9.489 -0.1149  0.4697  1.0157
  792TIP3    H123867   2.398   6.988   9.484  0.3099 -0.0693  2.4478
  792TIP3    H223868   2.327   6.882   9.565  0.5255 -3.8483 -2.0457
  793TIP3   OH223869   4.796   5.697  10.207 -0.4104  0.1258  0.2142
  793TIP3    H123870   4.744   5.619  10.191 -0.4310 -0.1292  1.4358
  793TIP3    H223871   4.880   5.680  10.165 -0.7110 -0.1997 -0.2494
  794TIP3   OH223872   2.887   2.553  10.140 -0.6278  0.3461  0.6258
  794TIP3    H123873   2.846   2.468  10.158  0.9072 -0.2201  1.5691
  794TIP3    H223874   2.925   2.542  10.052 -0.0689 -0.1081  0.9142
  795TIP3   OH223875   2.140   7.083   9.624  0.8528  0.2954  0.2131
  795TIP3    H123876   2.176   7.029   9.553  2.2840  1.6589 -0.0946
  795TIP3    H223877   2.201   7.072   9.697  0.1747  0.0773  0.7574
  796TIP3   OH223878   2.132   0.349  11.456  0.4268  0.1962  0.1871
  796TIP3    H123879   2.047   0.386  11.435  1.3548  1.2562 -1.8359
  796TIP3    H223880   2.152   0.383  11.543  0.2017  2.5274 -0.6537
  797TIP3   OH223881   6.959   5.428  13.421  0.0483 -0.1521  0.4256
  797TIP3    H123882   6.932   5.337  13.431 -1.2656 -0.0295 -1.7047
  797TIP3    H223883   6.887   5.479  13.458 -0.9654  0.0815 -1.7843
  798TIP3   OH223884   3.289   0.684  15.548 -0.1972  0.0797  0.3704
  798TIP3    H123885   3.231   0.609  15.536 -0.0496  0.0643 -0.2624
  798TIP3    H223886   3.229   0.758  15.562 -0.4301  0.2997 -1.6105
  799TIP3   OH223887   3.557   3.592  11.542  0.1671  0.3688 -0.2717
  799TIP3    H123888   3.573   3.546  11.625  1.8626 -1.6529 -1.6501
  799TIP3    H223889   3.629   3.654  11.535 -0.3176  0.9704  0.0509
  800TIP3   OH223890   2.221   0.833  12.029 -0.1327 -0.5509 -0.0660
  800TIP3    H123891   2.315   0.817  12.017 -0.3449 -1.5285 -0.5007
  800TIP3    H223892   2.207   0.824  12.124  0.6321  2.0305  0.3171
  801TIP3   OH223893   2.903   6.511   9.687 -0.1867  0.0430  0.5185
  801TIP3    H123894   2.828   6.523   9.745  0.4823  0.5440  1.2905
  801TIP3    H223895   2.898   6.419   9.660 -1.6663  0.3288 -0.2829
  802TIP3   OH223896   2.788   6.577  10.605 -0.4741 -0.1065 -0.2644
  802TIP3    H123897   2.703   6.555  10.565 -0.7312 -2.3768  1.3975
  802TIP3    H223898   2.768   6.587  10.698  0.7526  1.3799 -0.1497
  803TIP3   OH223899   2.400   1.473  11.868 -0.6878  0.3708 -0.2182
  803TIP3    H123900   2.480   1.479  11.920 -0.6667 -0.1722 -0.1787
  803TIP3    H223901   2.415   1.531  11.793 -1.3200  2.3004  1.1395
  804TIP3   OH223902   0.184   6.973  13.996 -0.1531  0.0557  0.1433
  804TIP3    H123903   0.180   6.950  14.089 -1.3622  0.8325  0.2971
  804TIP3    H223904   0.094   6.998  13.974  0.3497  0.9502 -0.9514
  805TIP3   OH223905   2.784   1.706  13.382  0.3943 -0.3952 -0.0825
  805TIP3    H123906   2.764   1.632  13.325 -1.5957  0.7569 -0.9431
  805TIP3    H223907   2.735   1.689  13.462  0.4974 -0.3781 -0.0163
  806TIP3   OH223908   3.126   3.398  11.221 -0.0842 -0.4455  0.2096
  806TIP3    H123909   3.197   3.437  11.171  0.5642  0.3719  1.7384
  806TIP3    H223910   3.079   3.343  11.158 -0.2496  1.8040 -1.6953
  807TIP3   OH223911   3.612   3.679  11.034  0.3726  0.5810  0.1616
  807TIP3    H123912   3.593   3.764  11.074  1.2413  0.3657  1.0348
  807TIP3    H223913   3.609   3.696  10.939 -3.0190  0.8250  0.2291
  808TIP3   OH223914   6.210   2.332  12.952  0.0395  0.2944 -0.2882
  808TIP3    H123915   6.143   2.317  13.019  1.3853  0.3175  1.0824
  808TIP3    H223916   6.160   2.355  12.874 -1.7572 -3.3085 -0.3261
  809TIP3   OH223917   3.389   2.913  11.781  0.0912 -0.1848 -0.1818
  809TIP3    H123918   3.398   2.819  11.762  0.1937 -0.2648  0.2641
  809TIP3    H223919   3.347   2.949  11.703  0.8307 -0.4562 -0.7202
  810TIP3   OH223920   5.000   3.034  10.634  0.0558  0.1526  0.1551
  810TIP3    H123921   5.083   2.987  10.646 -1.0622 -1.5058  1.6949
  810TIP3    H223922   5.014   3.118  10.677  1.1956  0.1921 -0.2831
  811TIP3   OH223923   5.698   3.993  12.598 -0.0904  0.0982 -0.2126
  811TIP3    H123924   5.715   4.004  12.691  0.5709  1.4165 -0.4807
  811TIP3    H223925   5.603   3.998  12.590 -0.0119  2.4621  0.0980
  812TIP3   OH223926   4.485   0.108  11.576  0.1943 -0.2418 -0.3684
  812TIP3    H123927   4.399   0.090  11.539  0.4777  1.1355 -1.7577
  812TIP3    H223928   4.532   0.024  11.569 -0.7061 -0.7463 -0.4735
  813TIP3   OH223929   0.835   1.153  10.951  0.1904 -0.2436 -0.3978
  813TIP3    H123930   0.819   1.226  10.892  0.6760  0.1545 -0.0406
  813TIP3    H223931   0.783   1.173  11.029 -0.9289 -1.0668 -0.9261
  814TIP3   OH223932   4.491   1.052   9.765 -0.2916 -0.0644  0.2958
  814TIP3    H123933   4.457   1.140   9.751  1.8007  0.8201  0.7373
  814TIP3    H223934   4.499   1.015   9.676 -3.6793 -0.8338  0.2223
  815TIP3   OH223935   2.590   0.730  10.754  0.6190  0.0915  0.0847
  815TIP3    H123936   2.628   0.710  10.669 -1.6473 -0.0122 -0.9415
  815TIP3    H223937   2.561   0.646  10.788  0.0712  0.3366  0.2330
  816TIP3   OH223938   5.200   3.555  10.788  0.3445  0.3755 -0.5314
  816TIP3    H123939   5.129   3.611  10.820 -0.3640 -0.5676 -0.4164
  816TIP3    H223940   5.231   3.597  10.708  0.1287  1.1657 -0.2038
  817TIP3   OH223941   1.181   1.537  11.141  0.1721  0.0106 -0.1826
  817TIP3    H123942   1.160   1.531  11.048 -1.3185  0.7995  0.0945
  817TIP3    H223943   1.226   1.455  11.161  0.6275 -0.1043 -1.6211
  818TIP3   OH223944   2.633   0.649  13.221  0.2796 -1.0918  0.3891
  818TIP3    H123945   2.612   0.599  13.143  0.0070 -0.9750  0.3860
  818TIP3    H223946   2.728   0.651  13.224  0.4202  2.8228 -2.4726
  819TIP3   OH223947   4.706   6.935  12.043 -0.3213 -0.0381 -0.3094
  819TIP3    H123948   4.771   6.989  11.998  1.0266 -1.4125 -0.0513
  819TIP3    H223949   4.736   6.933  12.134 -1.3227  0.1958  0.0272
  820TIP3   OH223950   2.173   3.675   0.588  0.3417 -0.3847  0.1731
  820TIP3    H123951   2.215   3.759   0.607  0.8052 -0.7675  0.8710
  820TIP3    H223952   2.240   3.610   0.609 -1.0747 -1.0835  2.7260
  821TIP3   OH223953   2.854   6.941  11.476 -0.1161  0.0349 -0.4184
  821TIP3    H123954   2.856   7.012  11.412 -0.8838  1.1900  0.8430
  821TIP3    H223955   2.765   6.943  11.512  0.6173  0.0265  1.4154
  822TIP3   OH223956   1.183   0.188   9.341  0.1228  0.5296  0.3285
  822TIP3    H123957   1.104   0.205   9.289 -0.3612 -0.6301  0.6817
  822TIP3    H223958   1.232   0.270   9.337 -1.1078  1.2657  0.1158
  823TIP3   OH223959   7.131   1.200  11.225  0.1410 -0.1623 -0.2239
  823TIP3    H123960   7.168   1.276  11.271 -0.5067  1.6421 -2.6110
  823TIP3    H223961   7.040   1.197  11.252  0.0423  0.2277 -0.5067
  824TIP3   OH223962   2.512   6.982  12.143 -0.3892 -0.0091 -0.0732
  824TIP3    H123963   2.498   7.009  12.053 -1.6781 -1.1560 -0.2371
  824TIP3    H223964   2.548   7.059  12.186 -1.8242  1.2515 -1.0729
  825TIP3   OH223965   4.858   0.307  10.441 -0.4932  0.2850  0.1488
  825TIP3    H123966   4.765   0.326  10.430 -0.7351  0.0570  1.7285
  825TIP3    H223967   4.899   0.341  10.362 -1.9723  0.0224 -0.7433
  826TIP3   OH223968   2.957   3.160  13.801  0.8123  0.5847 -0.5206
  826TIP3    H123969   2.943   3.189  13.711  0.3892  0.9871 -0.3251
  826TIP3    H223970   2.976   3.066  13.792 -0.4275  0.3538 -0.9384
  827TIP3   OH223971   2.139   5.635  10.949 -0.1862 -0.7849  0.6255
  827TIP3    H123972   2.189   5.592  10.880 -1.8446 -1.3327 -0.2626
  827TIP3    H223973   2.182   5.608  11.030  1.0519 -1.1032 -0.1227
  828TIP3   OH223974   0.768   1.764  10.327 -0.4544 -0.0514 -0.3763
  828TIP3    H123975   0.792   1.855  10.311 -0.2073 -0.1309 -0.4578
  828TIP3    H223976   0.684   1.752  10.282 -1.9137  0.9267  1.9840
  829TIP3   OH223977   5.411   0.834   9.446 -0.3724  0.4952  0.1205
  829TIP3    H123978   5.337   0.805   9.392  1.0237  0.7218 -1.9825
  829TIP3    H223979   5.461   0.755   9.462 -0.0625  0.6562 -0.0543
  830TIP3   OH223980   6.654   1.401  13.801  0.1781  0.4105 -0.1179
  830TIP3    H123981   6.660   1.474  13.739  0.7491  2.8166  2.6425
  830TIP3    H223982   6.563   1.403  13.831 -0.1175 -0.7987 -0.9011
  831TIP3   OH223983   5.095   2.665  11.641 -0.0067 -0.0653  0.5943
  831TIP3    H123984   5.146   2.594  11.602 -2.2825 -0.6939 -1.3740
  831TIP3    H223985   5.096   2.735  11.574 -0.1896  0.6260  1.3069
  832TIP3   OH223986   0.520   0.852  10.045 -0.0294  0.5197  0.4837
  832TIP3    H123987   0.584   0.787  10.073 -0.4422  0.2386  0.7925
  832TIP3    H223988   0.572   0.926  10.014  0.4404  0.2443  0.6083
  833TIP3   OH223989   3.138   1.784  12.332 -0.0747  0.2297  0.9804
  833TIP3    H123990   3.159   1.724  12.404 -0.4055  0.0010  0.8867
  833TIP3    H223991   3.046   1.806  12.346 -0.1494  0.1594  0.6081
  834TIP3   OH223992   7.143   1.242   9.779 -0.0482  0.6378  0.3731
  834TIP3    H123993   7.195   1.300   9.723  1.1165  0.5818  1.3785
  834TIP3    H223994   7.077   1.300   9.818 -0.6464  0.7411 -0.7716
  835TIP3   OH223995   4.501   0.064  12.045 -0.5477  0.9348 -0.2505
  835TIP3    H123996   4.419   0.024  12.015 -0.8808  0.0850  1.7304
  835TIP3    H223997   4.474   0.146  12.088 -0.4769  0.1639  1.2956
  836TIP3   OH223998   4.599   3.011  11.268 -0.4090 -0.2915  0.7071
  836TIP3    H123999   4.506   2.995  11.251 -0.3804 -0.0636  0.3446
  836TIP3    H224000   4.617   2.959  11.347 -1.0504  0.3461  1.2894
  837TIP3   OH224001   2.241   5.415  10.161 -0.6077  0.1447  0.1829
  837TIP3    H124002   2.288   5.416  10.077  0.2954  0.6591  0.6888
  837TIP3    H224003   2.307   5.438  10.226 -1.3207 -0.1932  1.0364
  838TIP3   OH224004   4.736   1.109  13.474  0.3206  0.7400 -0.6734
  838TIP3    H124005   4.748   1.203  13.485  0.2265  0.6052  0.5826
  838TIP3    H224006   4.677   1.102  13.398 -0.2172  1.7137 -0.3548
  839TIP3   OH224007   6.257   3.771  11.041 -0.0792  0.3856 -0.2399
  839TIP3    H124008   6.325   3.805  10.983  1.3064 -2.1745 -0.1418
  839TIP3    H224009   6.271   3.817  11.124  1.2074  0.2518 -0.3759
  840TIP3   OH224010   5.056   0.465   9.674  0.5267  0.1053  0.2746
  840TIP3    H124011   5.020   0.521   9.606 -0.8582 -1.1741 -0.0792
  840TIP3    H224012   5.132   0.512   9.706 -0.9195  2.4416  0.3867
  841TIP3   OH224013   4.235   5.841  11.426 -0.1005  0.4388 -0.2781
  841TIP3    H124014   4.293   5.887  11.486 -1.5254  1.8439  0.0574
  841TIP3    H224015   4.147   5.859  11.459 -0.8191 -0.1257 -1.8350
  842TIP3   OH224016   7.020   0.071   9.875 -0.1791  0.1533  0.5433
  842TIP3    H124017   7.012   0.104   9.785 -0.0195 -0.3140  0.3574
  842TIP3    H224018   6.959  -0.003   9.879 -2.1966  1.8012  1.6000
  843TIP3   OH224019   6.210   4.095  10.755  0.1103  0.5715 -0.0766
  843TIP3    H124020   6.147   4.156  10.793  1.2947 -0.6535  4.1835
  843TIP3    H224021   6.288   4.148  10.740 -0.2830  1.0174 -0.5618
  844TIP3   OH224022   2.190   3.634  11.167  0.5708 -0.3658  0.8130
  844TIP3    H124023   2.115   3.691  11.182 -0.2454 -1.5904  1.4793
  844TIP3    H224024   2.155   3.545  11.175  1.8968 -0.9687  0.1857
  845TIP3   OH224025   5.032   3.883  13.258  0.5236 -0.6084  0.3083
  845TIP3    H124026   4.961   3.829  13.224  0.7564 -0.2829 -0.7149
  845TIP3    H224027   5.111   3.846  13.219  0.6989  0.3863 -0.2847
  846TIP3   OH224028   1.745   5.773  14.911 -0.3015 -0.6409  0.3780
  846TIP3    H124029   1.757   5.836  14.982 -0.1950 -1.2117  0.8582
  846TIP3    H224030   1.800   5.699  14.934  2.3392  0.4991 -1.9011
  847TIP3   OH224031   1.048   5.464  11.147 -0.1052  0.6837  0.2280
  847TIP3    H124032   1.095   5.461  11.064 -0.3271  0.5810  0.1055
  847TIP3    H224033   1.102   5.519  11.204  2.8018 -3.4603  1.7416
  848TIP3   OH224034   2.827   1.838  12.998  0.3631 -0.1759  0.0386
  848TIP3    H124035   2.891   1.771  13.023  0.3220 -0.3373 -0.2865
  848TIP3    H224036   2.774   1.850  13.076 -0.1094 -1.0721 -0.1375
  849TIP3   OH224037   4.142   6.299   9.852  0.1414  0.5691 -0.2376
  849TIP3    H124038   4.118   6.207   9.853 -0.3567  0.6691  2.6472
  849TIP3    H224039   4.072   6.342   9.804 -1.1132 -0.2348  0.8209
  850TIP3   OH224040   4.400   0.342  11.068 -0.3728  0.0608  0.9056
  850TIP3    H124041   4.461   0.349  11.142  1.5822  0.5617 -0.7199
  850TIP3    H224042   4.456   0.342  10.991 -2.3763 -0.7992 -0.5846
  851TIP3   OH224043   3.537   5.397  11.206  0.2107  0.1429 -0.4833
  851TIP3    H124044   3.473   5.329  11.227  2.5983 -2.1291 -0.3713
  851TIP3    H224045   3.567   5.429  11.291 -0.4186  0.8746 -0.5333
  852TIP3   OH224046   0.967   5.043  10.009 -0.4474  0.4562  0.1633
  852TIP3    H124047   0.883   5.031   9.966 -0.1446 -2.5119  0.2824
  852TIP3    H224048   0.972   4.972  10.073  2.1768  0.5255  0.0994
  853TIP3   OH224049   1.301   1.904  11.323 -0.2230  0.3053  0.4127
  853TIP3    H124050   1.378   1.910  11.266  0.2451 -0.6076  0.9317
  853TIP3    H224051   1.304   1.815  11.358 -0.2430  0.9967  2.2260
  854TIP3   OH224052   3.315   5.659   9.427  0.3825  0.2361  0.2718
  854TIP3    H124053   3.274   5.639   9.512  0.2921  1.3018  0.4841
  854TIP3    H224054   3.349   5.575   9.397  0.4043 -0.1531  1.3609
  855TIP3   OH224055   7.027   6.885  11.486 -0.0786 -0.3446 -0.0277
  855TIP3    H124056   7.107   6.832  11.490 -0.3506 -0.6565  1.6850
  855TIP3    H224057   6.996   6.889  11.577 -1.4641  0.6155 -0.5207
  856TIP3   OH224058   4.256   0.965  11.168  0.3657 -0.0396  0.5575
  856TIP3    H124059   4.317   1.021  11.217 -0.3364  0.0296  1.3733
  856TIP3    H224060   4.245   1.009  11.084 -0.3742  1.1974  1.2850
  857TIP3   OH224061   1.725   4.088  11.404  0.2106  0.1882 -0.6173
  857TIP3    H124062   1.678   4.018  11.359  1.6762 -0.2752 -1.4708
  857TIP3    H224063   1.801   4.106  11.348  1.2313  0.6684  0.8788
  858TIP3   OH224064   6.064   7.189  14.078  0.0133 -0.1562 -0.1369
  858TIP3    H124065   6.063   7.094  14.072  0.2577 -0.1265 -0.6844
  858TIP3    H224066   6.008   7.209  14.152 -0.4211 -0.7043 -0.3176
  859TIP3   OH224067   0.840   4.036  14.434 -0.1997 -0.1052  0.0338
  859TIP3    H124068   0.820   4.123  14.469 -4.1304 -2.0644  3.1529
  859TIP3    H224069   0.780   4.026  14.360 -1.1401 -0.8256  0.8729
  860TIP3   OH224070   5.037   1.288  13.438  0.2410 -0.0498 -0.5839
  860TIP3    H124071   5.097   1.246  13.500 -0.1999 -1.5778 -1.1683
  860TIP3    H224072   4.981   1.344  13.492 -0.9130 -2.2495  0.5634
  861TIP3   OH224073   4.813   2.265  10.229  0.2072 -0.3904  0.4126
  861TIP3    H124074   4.908   2.268  10.225  0.1770  1.5031  0.5931
  861TIP3    H224075   4.792   2.286  10.320 -0.4248  1.2277 -0.0852
  862TIP3   OH224076   1.435   0.594  11.033 -0.6451  0.0613 -0.2960
  862TIP3    H124077   1.387   0.513  11.051 -0.5090 -0.0507 -0.4348
  862TIP3    H224078   1.504   0.596  11.100 -0.2197 -0.2894 -0.7219
  863TIP3   OH224079   0.218   0.101  12.330 -0.6122  0.3156 -0.1280
  863TIP3    H124080   0.271   0.022  12.340 -0.6591  0.2117 -0.7042
  863TIP3    H224081   0.250   0.141  12.249  1.1408  2.1946  1.4017
  864TIP3   OH224082   0.013   5.983  13.027 -0.1739 -0.8761  0.1940
  864TIP3    H124083   0.059   5.900  13.042 -0.3162 -0.9033  0.4784
  864TIP3    H224084  -0.079   5.964  13.047  0.0012 -0.2930  1.5901
  865TIP3   OH224085   1.687   0.122  11.930 -0.1442  0.2948  0.4749
  865TIP3    H124086   1.642   0.039  11.945 -1.5600  1.1814  1.1836
  865TIP3    H224087   1.618   0.183  11.905  0.7941  1.4349  0.6293
  866TIP3   OH224088   3.753   2.417  12.115  0.1769 -0.3267 -0.2700
  866TIP3    H124089   3.822   2.406  12.180  1.7864 -0.6486 -1.9760
  866TIP3    H224090   3.735   2.329  12.084 -0.4299 -0.1499 -0.4306
  867TIP3   OH224091   3.891   1.770  12.918 -0.2881  0.1614  0.1236
  867TIP3    H124092   3.888   1.687  12.966  0.1673 -0.3967 -0.7900
  867TIP3    H224093   3.809   1.771  12.868  0.4645 -0.5439 -1.1567
  868TIP3   OH224094   5.717   0.091  11.219  0.6424  0.2441 -0.7720
  868TIP3    H124095   5.799   0.042  11.227  1.0520  0.8485 -1.1827
  868TIP3    H224096   5.730   0.169  11.272  0.2193  0.1994 -0.6019
  869TIP3   OH224097   5.601   1.039  12.282 -0.6398  0.2429 -0.1699
  869TIP3    H124098   5.567   0.950  12.295 -0.0116 -0.4559 -2.9424
  869TIP3    H224099   5.528   1.087  12.242 -0.8638  0.9141  1.0108
  870TIP3   OH224100   4.104   5.625  10.283  0.6151  0.0368 -0.9197
  870TIP3    H124101   4.030   5.566  10.296  1.2109  0.0137  2.9372
  870TIP3    H224102   4.173   5.568  10.249  0.0679 -0.7453 -0.7387
  871TIP3   OH224103   6.196   0.394  10.204  0.2608  0.0994  0.1477
  871TIP3    H124104   6.174   0.301  10.194 -0.2830  0.2786 -0.4050
  871TIP3    H224105   6.267   0.396  10.268  1.1163 -0.7934 -0.7553
  872TIP3   OH224106   6.799   5.445  10.906 -0.4198 -0.5486 -0.0925
  872TIP3    H124107   6.735   5.496  10.957  0.1246  0.6455 -0.5748
  872TIP3    H224108   6.818   5.500  10.830  1.6074 -0.6231  0.3206
  873TIP3   OH224109   3.983   5.102  10.747 -0.2366 -0.8792  0.0402
  873TIP3    H124110   3.909   5.045  10.767  0.5916 -2.1016 -0.2607
  873TIP3    H224111   4.008   5.077  10.657 -0.4565  0.6363 -0.4526
  874TIP3   OH224112   4.220   2.175  10.248  0.3186  0.1886  0.3000
  874TIP3    H124113   4.152   2.240  10.267 -0.5000 -0.0726 -1.6085
  874TIP3    H224114   4.272   2.214  10.178  0.7094 -0.6215  0.1342
  875TIP3   OH224115   5.934   1.558  11.946 -0.6674  0.4041  0.1989
  875TIP3    H124116   5.931   1.637  11.999 -1.5262 -0.0262  0.8140
  875TIP3    H224117   5.975   1.585  11.864  1.9643  0.7757  1.5864
  876TIP3   OH224118   6.796   0.870  15.185 -0.1251  0.1008 -0.0585
  876TIP3    H124119   6.883   0.888  15.221  0.0775  0.2372 -0.6046
  876TIP3    H224120   6.786   0.776  15.192  1.5120 -0.3677 -3.1771
  877TIP3   OH224121   4.047   6.691  10.957  0.3105 -0.1998 -0.0977
  877TIP3    H124122   4.043   6.734  11.042  0.4376  0.5413 -0.4621
  877TIP3    H224123   4.132   6.715  10.921  0.0556 -0.0929 -0.6480
  878TIP3   OH224124   3.156   2.616  11.646 -0.5510 -0.5066 -0.0906
  878TIP3    H124125   3.186   2.569  11.568  0.0707  0.0083 -0.1673
  878TIP3    H224126   3.221   2.595  11.713 -0.6939 -0.3835  0.0872
  879TIP3   OH224127   5.725   0.970   9.611  0.6687 -0.2745  0.0206
  879TIP3    H124128   5.716   1.002   9.521  0.1909  0.9859  0.4978
  879TIP3    H224129   5.819   0.965   9.625  0.7465 -0.3351 -0.5083
  880TIP3   OH224130   5.161   0.379  10.002 -0.2051  0.4718 -0.0943
  880TIP3    H124131   5.196   0.431   9.930 -0.1092 -0.6302 -0.8486
  880TIP3    H224132   5.202   0.294   9.992 -2.2376 -0.5063 -0.3347
  881TIP3   OH224133   4.324   4.698  10.386 -0.3961  1.0103  0.2147
  881TIP3    H124134   4.345   4.775  10.333  0.2687  1.6497  1.3838
  881TIP3    H224135   4.295   4.734  10.470  1.0464 -0.0228  1.1848
  882TIP3   OH224136   1.123   0.543   9.752 -0.7442 -0.1536  0.7643
  882TIP3    H124137   1.181   0.474   9.785 -0.2607  0.7216  1.7948
  882TIP3    H224138   1.111   0.601   9.827  0.9842  2.3060 -0.8093
  883TIP3   OH224139   5.378   1.696  11.861 -0.5010  0.2418 -0.6401
  883TIP3    H124140   5.325   1.734  11.790  1.2395  3.8905 -0.0983
  883TIP3    H224141   5.450   1.652  11.816 -1.8567 -1.4522 -1.2326
  884TIP3   OH224142   5.581   2.774  10.065 -0.2572  0.2970 -0.5090
  884TIP3    H124143   5.602   2.848  10.008 -0.1143  0.5953 -0.0698
  884TIP3    H224144   5.491   2.750  10.041  0.2103 -0.3123 -1.6535
  885TIP3   OH224145   6.921   3.256   0.381 -0.3977 -0.7830  0.0235
  885TIP3    H124146   6.982   3.216   0.444 -0.5880 -1.8109 -0.4282
  885TIP3    H224147   6.970   3.259   0.299  0.8184  3.0687  0.8003
  886TIP3   OH224148   0.353   7.061   9.987  0.0286  0.1634  0.5114
  886TIP3    H124149   0.296   7.138   9.988 -0.5180 -0.1380 -3.0341
  886TIP3    H224150   0.436   7.094   9.953  0.0416 -0.6519 -0.2487
  887TIP3   OH224151   3.031   3.011  10.214 -0.0567  0.2934  0.6848
  887TIP3    H124152   3.011   2.987  10.124 -1.8474  0.1525  1.0949
  887TIP3    H224153   2.962   3.074  10.238  0.4396  0.3829  1.9304
  888TIP3   OH224154   6.991   3.462  10.762 -0.2456 -0.5334  0.4059
  888TIP3    H124155   6.987   3.367  10.775  0.3427 -0.2355  3.1713
  888TIP3    H224156   7.084   3.481  10.752 -0.1431 -0.0143  2.1703
  889TIP3   OH224157   5.443   0.699  13.845 -0.1541 -0.7008 -0.4235
  889TIP3    H124158   5.361   0.725  13.802 -0.5078 -2.2973 -0.7861
  889TIP3    H224159   5.418   0.684  13.936  0.4769  2.1335  0.2604
  890TIP3   OH224160   4.169   1.064  10.136 -0.1475  0.4526  0.2518
  890TIP3    H124161   4.139   1.107  10.216 -1.2963  0.3373 -0.1123
  890TIP3    H224162   4.213   1.134  10.087  2.1219  0.1282  1.7515
  891TIP3   OH224163   4.309   5.554  12.166 -0.2535 -0.1705 -0.3867
  891TIP3    H124164   4.392   5.599  12.156  0.3919 -1.3475 -0.4136
  891TIP3    H224165   4.332   5.468  12.201 -1.4591 -0.4836 -0.3371
  892TIP3   OH224166   1.559   2.367  13.520 -0.0132  0.2606  0.1498
  892TIP3    H124167   1.559   2.409  13.607 -0.8081  1.0679 -0.2281
  892TIP3    H224168   1.652   2.351  13.502  0.1853  0.3922  1.0048
  893TIP3   OH224169   4.196   6.332  13.809 -0.3087 -0.5316 -0.0766
  893TIP3    H124170   4.128   6.385  13.849  3.5439  3.7760  1.2307
  893TIP3    H224171   4.224   6.272  13.878 -0.9644 -0.5018  0.2128
  894TIP3   OH224172   4.393   0.807  11.788 -0.1470 -0.6121 -0.3114
  894TIP3    H124173   4.440   0.881  11.749 -0.3819 -0.0624  0.4306
  894TIP3    H224174   4.357   0.842  11.869 -0.2325 -1.5581  0.0664
  895TIP3   OH224175   5.090   0.773   9.535  0.2461  0.4046 -0.0448
  895TIP3    H124176   5.041   0.761   9.617  0.3995  1.5765  0.2304
  895TIP3    H224177   5.042   0.721   9.471  0.9823 -1.7455  1.1111
  896TIP3   OH224178   3.769   2.995  11.456 -0.1094 -0.4745  0.0921
  896TIP3    H124179   3.717   3.074  11.475 -1.3807 -1.9494  3.0422
  896TIP3    H224180   3.729   2.960  11.376 -0.7886  0.7821 -0.1461
  897TIP3   OH224181   0.805   0.127  10.711  0.4621  0.0354 -0.0908
  897TIP3    H124182   0.788   0.037  10.685  2.5449  0.2053 -2.2189
  897TIP3    H224183   0.740   0.178  10.662  1.1472 -0.0913 -1.1644
  898TIP3   OH224184   0.316   6.996  10.970 -0.0459  0.0969  0.7410
  898TIP3    H124185   0.238   7.019  11.020 -1.3759  1.1422 -1.7388
  898TIP3    H224186   0.389   7.014  11.029 -1.5696  1.1574  2.3369
  899TIP3   OH224187   4.080   0.416  11.477 -0.2485  0.0072 -0.2356
  899TIP3    H124188   4.045   0.359  11.408  0.6550 -0.3875 -0.3847
  899TIP3    H224189   4.161   0.451  11.440  0.3904 -0.4239  0.7197
  900TIP3   OH224190   6.960   0.526  12.883 -0.0223 -0.6589 -0.2760
  900TIP3    H124191   7.024   0.461  12.912 -1.4600 -1.2712  1.5578
  900TIP3    H224192   7.010   0.581  12.822  1.6546 -2.4461 -0.5881
  901TIP3   OH224193   3.994   6.597   9.715  0.6352 -0.1626 -0.5961
  901TIP3    H124194   3.973   6.507   9.693  0.9380 -0.8170  1.6734
  901TIP3    H224195   3.914   6.646   9.695 -0.3122 -1.3087  0.3138
  902TIP3   OH224196   4.718   5.675   9.561  0.4279  0.1443  0.2785
  902TIP3    H124197   4.726   5.760   9.519  1.7515  0.2396  0.6814
  902TIP3    H224198   4.630   5.645   9.539 -0.0254  1.5776  0.0787
  903TIP3   OH224199   5.180   2.774  11.358 -0.2358 -0.1847 -0.8083
  903TIP3    H124200   5.085   2.778  11.343 -0.1562  1.4743 -0.9565
  903TIP3    H224201   5.200   2.855  11.404  0.8714 -1.2756  0.6871
  904TIP3   OH224202   2.067   6.690  10.207  0.2696 -0.1491 -0.4837
  904TIP3    H124203   2.137   6.689  10.272 -3.0212 -0.9951  3.2354
  904TIP3    H224204   2.038   6.599  10.202 -1.7909  0.4916 -0.5542
  905TIP3   OH224205   0.983   0.851  12.633 -0.2731  1.0121 -0.0038
  905TIP3    H124206   0.924   0.844  12.709 -0.4118 -0.8425 -0.2508
  905TIP3    H224207   1.068   0.873  12.670 -0.4416  0.5534  0.6651
  906TIP3   OH224208   3.779   1.490  11.224 -0.3090 -0.6669  0.4878
  906TIP3    H124209   3.693   1.493  11.267 -1.0662  0.3116 -1.0476
  906TIP3    H224210   3.829   1.561  11.264 -0.5161 -0.6678  0.7496
  907TIP3   OH224211   3.304   6.650  12.501  0.5761 -0.2853 -0.4313
  907TIP3    H124212   3.216   6.649  12.465  0.0977 -1.1908  0.7496
  907TIP3    H224213   3.357   6.694  12.434 -0.3166 -1.8198 -2.1711
  908TIP3   OH224214   0.347   0.182  11.686  0.1662 -0.8781  0.3198
  908TIP3    H124215   0.409   0.183  11.758  1.3112 -0.3528 -0.6551
  908TIP3    H224216   0.266   0.217  11.723  1.3607  1.4531  0.8162
  909TIP3   OH224217   4.376   3.989  13.688  0.1555 -0.2698  0.0241
  909TIP3    H124218   4.422   4.069  13.714 -0.5044 -0.5218  2.0547
  909TIP3    H224219   4.428   3.918  13.725  0.5450 -0.7844 -1.4778
  910TIP3   OH224220   4.553   3.356  10.665 -0.2378  0.2233  0.1073
  910TIP3    H124221   4.486   3.314  10.719 -1.1488  0.7392 -0.6117
  910TIP3    H224222   4.504   3.409  10.602  0.8120 -0.1174 -1.0254
  911TIP3   OH224223   1.489   3.027  11.880 -0.1766 -0.3922 -0.5389
  911TIP3    H124224   1.514   3.112  11.917  3.3206 -2.5318  2.3297
  911TIP3    H224225   1.393   3.027  11.885 -0.1899  2.7434  0.8835
  912TIP3   OH224226   5.162   1.396  10.676  0.6477  0.2346 -0.2429
  912TIP3    H124227   5.234   1.371  10.733  1.2233  1.0752 -0.5993
  912TIP3    H224228   5.141   1.486  10.701  0.6308  0.4674 -1.0711
  913TIP3   OH224229   4.956   6.025  10.888  0.2238  0.1217  0.2166
  913TIP3    H124230   4.932   5.936  10.861 -2.4345  0.8325  0.1345
  913TIP3    H224231   4.880   6.078  10.866  1.9796  2.5318 -0.1814
  914TIP3   OH224232   4.225   0.629  12.981  0.2747  0.3376 -0.0531
  914TIP3    H124233   4.286   0.556  12.973  0.0435 -0.1569  2.2460
  914TIP3    H224234   4.280   0.707  12.975  1.2844 -0.1081  2.7170
  915TIP3   OH224235   5.369   2.686  10.905 -0.4833 -0.1524 -0.0678
  915TIP3    H124236   5.440   2.730  10.858 -0.2413  0.9105  1.2643
  915TIP3    H224237   5.412   2.642  10.978 -0.8439 -1.8987 -0.8681
  916TIP3   OH224238   4.632   0.285  10.278  0.0655 -0.1744 -0.1085
  916TIP3    H124239   4.715   0.245  10.250 -0.1229 -0.4171 -0.3147
  916TIP3    H224240   4.582   0.296  10.197  1.4190  3.4954 -0.5295
  917TIP3   OH224241   6.914   1.302  14.239  0.0904 -0.1902 -0.1799
  917TIP3    H124242   6.879   1.390  14.223 -1.0148 -0.5527  0.2559
  917TIP3    H224243   6.899   1.255  14.158  1.1770  0.1695 -0.6085
  918TIP3   OH224244   4.139   1.261   9.835 -0.0396 -0.4067  0.6255
  918TIP3    H124245   4.227   1.262   9.873  0.6211  2.1282 -0.8188
  918TIP3    H224246   4.127   1.172   9.805  3.3430 -0.0979 -1.9700
  919TIP3   OH224247   3.478   6.267  10.941  0.1838  0.2353  0.1833
  919TIP3    H124248   3.394   6.292  10.902  0.4974  0.1132 -0.5867
  919TIP3    H224249   3.542   6.283  10.872  0.7184 -0.2413  0.5610
  920TIP3   OH224250   0.985   3.790  13.305 -0.1385 -0.1136 -0.5423
  920TIP3    H124251   0.960   3.875  13.268  0.6787  1.5720  2.5512
  920TIP3    H224252   0.947   3.791  13.393  0.5853 -2.6306 -0.1770
  921TIP3   OH224253   1.766   4.587  10.513  0.0596  0.0067 -0.1302
  921TIP3    H124254   1.764   4.547  10.426 -0.4401  1.5813 -0.8647
  921TIP3    H224255   1.675   4.586  10.541  0.3374 -1.2758  0.7536
  922TIP3   OH224256   6.213   6.191   0.348 -0.2295 -0.1418 -0.0648
  922TIP3    H124257   6.144   6.161   0.408  0.3461 -0.2422  0.5467
  922TIP3    H224258   6.225   6.283   0.369 -1.5826  0.4040 -1.5467
  923TIP3   OH224259   1.752   1.140  10.168 -0.5242 -0.6401 -0.0540
  923TIP3    H124260   1.793   1.149  10.254 -0.6906 -0.5802  0.0197
  923TIP3    H224261   1.794   1.207  10.114 -0.3429 -0.7480 -0.0478
  924TIP3   OH224262   5.399   5.510  10.500  0.1340 -0.2515 -0.6935
  924TIP3    H124263   5.479   5.483  10.545 -0.9516 -0.8937  0.9215
  924TIP3    H224264   5.427   5.532  10.411  1.6470 -3.4326 -1.0864
  925TIP3   OH224265   0.192   7.032  10.724  0.2168  0.3189  0.6640
  925TIP3    H124266   0.126   7.099  10.738  0.3821  0.2227  1.9552
  925TIP3    H224267   0.257   7.047  10.793  0.6245 -0.7006  0.5154
  926TIP3   OH224268   5.956   4.910  10.586  0.2192  0.1163 -0.6386
  926TIP3    H124269   5.914   4.911  10.672  0.4390 -1.3645 -0.5016
  926TIP3    H224270   5.924   4.989  10.543  1.2255  1.6271  1.3318
  927TIP3   OH224271   5.112   5.811  10.182  0.5715 -0.4792  0.3874
  927TIP3    H124272   5.191   5.780  10.227  0.6882  0.4920  0.8513
  927TIP3    H224273   5.139   5.818  10.090  0.6567 -1.3577  0.3346
  928TIP3   OH224274   2.650   2.298  13.810  0.0070  0.1948  0.0199
  928TIP3    H124275   2.583   2.231  13.802 -0.5316  0.9692 -2.5610
  928TIP3    H224276   2.732   2.254  13.786 -0.0989  0.0345 -0.0456
  929TIP3   OH224277   3.572   1.740  11.132 -0.4374 -0.3903 -0.1461
  929TIP3    H124278   3.504   1.726  11.198  0.8657 -0.9820  1.0884
  929TIP3    H224279   3.643   1.784  11.179  0.7686 -1.4142 -0.9766
  930TIP3   OH224280   6.893   1.056  13.075 -0.2346  0.0211 -0.0456
  930TIP3    H124281   6.850   0.983  13.031 -2.4857  1.2641 -0.0185
  930TIP3    H224282   6.835   1.077  13.148  0.9074  1.1721  0.5533
  931TIP3   OH224283   5.179   0.874  11.148 -0.0048  0.0926 -0.0920
  931TIP3    H124284   5.145   0.880  11.058  1.1831 -0.5430 -0.5879
  931TIP3    H224285   5.273   0.862  11.137 -0.0318 -1.3389  1.2270
  932TIP3   OH224286   6.829   3.143  10.563  0.3958  0.4543 -0.6332
  932TIP3    H124287   6.844   3.051  10.586 -1.5222  0.6921  1.7515
  932TIP3    H224288   6.915   3.183  10.567  1.2497 -1.2033 -1.6742
  933TIP3   OH224289   2.225   4.410  12.543 -0.2630  0.2648 -0.4239
  933TIP3    H124290   2.246   4.410  12.450  1.1103  0.3632 -0.1317
  933TIP3    H224291   2.214   4.318  12.565  1.5424  0.0734 -0.2455
  934TIP3   OH224292   5.250   5.454  11.501 -0.5774 -0.3276  0.1554
  934TIP3    H124293   5.278   5.388  11.438 -0.8537 -0.3892  0.0951
  934TIP3    H224294   5.159   5.473  11.477 -0.3082  0.5135 -0.1979
  935TIP3   OH224295   5.603   0.620  11.411  0.3766 -0.1534 -0.1994
  935TIP3    H124296   5.690   0.651  11.438  0.7131 -0.9965 -0.3086
  935TIP3    H224297   5.562   0.592  11.493  0.0143  0.7035 -0.0797
  936TIP3   OH224298   0.357   6.111  11.304  0.5077 -0.0215 -0.3481
  936TIP3    H124299   0.366   6.079  11.394  0.8686 -0.9437 -0.7087
  936TIP3    H224300   0.325   6.036  11.255 -0.3996  0.6828 -0.8583
  937TIP3   OH224301   5.327   1.350  11.205  0.7304 -0.0122  0.1386
  937TIP3    H124302   5.382   1.293  11.150  0.5011 -0.4827  0.3980
  937TIP3    H224303   5.283   1.407  11.143  0.2101 -0.7692 -0.1990
  938TIP3   OH224304   0.338   2.648  12.220  1.0764 -0.2474  0.4206
  938TIP3    H124305   0.419   2.682  12.256  0.0881  4.5927 -1.5590
  938TIP3    H224306   0.327   2.694  12.137 -2.0523 -3.2383 -0.9719
  939TIP3   OH224307   4.777   2.470  14.789 -0.1262 -0.4865 -0.1190
  939TIP3    H124308   4.792   2.562  14.767 -2.2504 -0.1117 -0.1287
  939TIP3    H224309   4.682   2.462  14.795  0.0366 -2.6396  0.1052
  940TIP3   OH224310   3.405   0.216  10.973  0.5221 -0.0552  0.0599
  940TIP3    H124311   3.457   0.148  11.016 -1.1087 -0.3439  1.6254
  940TIP3    H224312   3.406   0.290  11.034 -1.3810 -0.2780  0.3926
  941TIP3   OH224313   4.572   0.147  12.870  0.0114  0.4768  0.3081
  941TIP3    H124314   4.522   0.119  12.794  1.5791 -0.3222 -0.4528
  941TIP3    H224315   4.554   0.241  12.877 -2.0277  0.0936  0.4027
  942TIP3   OH224316   6.409   2.100  10.100 -0.4378  0.3654 -0.0523
  942TIP3    H124317   6.360   2.080  10.021 -0.1812  1.0445 -0.3836
  942TIP3    H224318   6.397   2.194  10.114 -0.9346  0.1507  1.0194
  943TIP3   OH224319   3.864   6.563  11.800  0.1464  0.2487  0.0704
  943TIP3    H124320   3.824   6.576  11.714 -0.0198  1.6921  0.3444
  943TIP3    H224321   3.880   6.652  11.833 -0.1991 -0.2636  1.7096
  944TIP3   OH224322   5.119   5.633  11.226 -0.0927  0.7724 -0.3336
  944TIP3    H124323   5.118   5.598  11.137  0.3181  0.2146 -0.1248
  944TIP3    H224324   5.196   5.690  11.229 -0.3774  1.1632 -0.4746
  945TIP3   OH224325   1.896   1.954  11.447 -0.3106 -0.0008 -0.4087
  945TIP3    H124326   1.964   1.899  11.487  0.9766  1.2408 -0.8368
  945TIP3    H224327   1.932   2.043  11.452 -0.2970  0.2561 -3.8872
  946TIP3   OH224328   4.159   7.023  12.192  0.1308 -0.1699 -0.6458
  946TIP3    H124329   4.226   7.037  12.125 -0.1190 -0.9076 -1.0596
  946TIP3    H224330   4.189   7.073  12.267  1.9205 -1.6654 -0.3197
  947TIP3   OH224331   1.706   5.704  12.830  0.4932 -0.3799 -0.4957
  947TIP3    H124332   1.760   5.776  12.798  0.0411  0.4528  0.6100
  947TIP3    H224333   1.688   5.652  12.751 -0.1065  1.3240 -1.5318
  948TIP3   OH224334   5.276   1.370  10.179  0.2324  0.5874 -0.2748
  948TIP3    H124335   5.316   1.369  10.265  1.0335 -1.4513 -0.6297
  948TIP3    H224336   5.308   1.450  10.137  2.3514  0.0089  0.1828
  949TIP3   OH224337   4.740   5.596  13.428  0.3751  0.1886  0.0575
  949TIP3    H124338   4.776   5.539  13.360  0.5946  0.5448 -0.1241
  949TIP3    H224339   4.757   5.549  13.510  2.7575  1.1334  0.1165
  950TIP3   OH224340   6.809   2.468  11.409 -0.1792 -0.1116 -0.5555
  950TIP3    H124341   6.839   2.553  11.377 -1.1244 -0.8676 -3.6540
  950TIP3    H224342   6.870   2.405  11.370 -0.5775 -0.9888  0.2117
  951TIP3   OH224343   3.512   5.366  11.676 -0.3267 -0.4687 -0.2471
  951TIP3    H124344   3.548   5.370  11.765  1.4140  0.5826 -0.9787
  951TIP3    H224345   3.428   5.412  11.682 -0.6771 -1.2502  1.0615
  952TIP3   OH224346   4.829   6.231  10.281 -0.8911 -0.1242  0.1566
  952TIP3    H124347   4.834   6.152  10.335  3.0484 -0.6341 -0.8053
  952TIP3    H224348   4.756   6.215  10.222  0.6722 -3.7534 -0.9480
  953TIP3   OH224349   4.280   1.950  13.589  0.1770 -0.1864 -0.4917
  953TIP3    H124350   4.359   1.955  13.535 -0.9750 -0.2081 -2.2144
  953TIP3    H224351   4.235   2.034  13.574  1.5070  1.3126  3.1358
  954TIP3   OH224352   2.445   6.554   9.658  0.7550 -0.0387 -0.4553
  954TIP3    H124353   2.360   6.584   9.624  0.8440  2.4340  1.3084
  954TIP3    H224354   2.477   6.492   9.593 -1.9433 -0.2261 -1.6665
  955TIP3   OH224355   2.995   4.026  13.807  0.7687 -0.2259 -0.2363
  955TIP3    H124356   2.948   3.952  13.846 -0.1084 -0.4433 -1.6764
  955TIP3    H224357   2.931   4.069  13.751  1.8041  0.5248 -0.8620
  956TIP3   OH224358   4.808   6.406  10.510  0.0479 -0.5466  0.1018
  956TIP3    H124359   4.801   6.352  10.431  1.7837 -1.1643  0.3505
  956TIP3    H224360   4.884   6.370  10.557  2.2875  3.1221 -0.5124
  957TIP3   OH224361   1.671   2.534  11.919  0.3079  0.6431 -0.0906
  957TIP3    H124362   1.605   2.599  11.894 -0.6053 -0.4233 -0.4663
  957TIP3    H224363   1.623   2.452  11.923  1.2024  0.1959  1.6164
  958TIP3   OH224364   6.993   6.900  11.139  0.3782  0.0879 -0.6768
  958TIP3    H124365   7.055   6.865  11.075 -0.4399  0.0176 -1.4291
  958TIP3    H224366   7.038   6.977  11.175  0.6897  0.3513 -1.6031
  959TIP3   OH224367   4.616   3.703  12.816 -0.3099  0.0320 -0.2451
  959TIP3    H124368   4.675   3.765  12.772  0.7709 -1.1324 -0.4812
  959TIP3    H224369   4.650   3.617  12.791  0.2188 -0.6806  2.6911
  960TIP3   OH224370   1.836   1.734  12.170  0.6319 -0.4525  0.2203
  960TIP3    H124371   1.878   1.689  12.244  1.3986  0.2362  0.2029
  960TIP3    H224372   1.879   1.819  12.165  0.4825 -0.4393 -0.9398
  961TIP3   OH224373   0.667   2.274  10.949 -0.7928 -0.0181 -0.5233
  961TIP3    H124374   0.636   2.361  10.976 -0.7248  0.4634 -1.9998
  961TIP3    H224375   0.588   2.230  10.917 -0.5953 -0.0620 -0.9464
  962TIP3   OH224376   1.020   3.133  12.034  0.1870  0.0073 -0.0476
  962TIP3    H124377   1.053   3.173  12.114 -3.1468 -0.9625  1.9077
  962TIP3    H224378   0.969   3.202  11.992  1.4724  0.3436 -1.0798
  963TIP3   OH224379   3.543   6.117   0.183  0.0057  0.5068 -0.2814
  963TIP3    H124380   3.491   6.196   0.173  0.9221  1.0175 -1.0522
  963TIP3    H224381   3.531   6.092   0.275 -2.0100  0.3152 -0.5554
  964TIP3   OH224382   1.375   2.655  14.220  0.3902  0.1026 -0.8536
  964TIP3    H124383   1.455   2.707  14.217  1.3583 -1.3419 -0.8427
  964TIP3    H224384   1.363   2.625  14.129  0.8394 -1.1040 -0.5250
  965TIP3   OH224385   0.356   2.406  11.998 -0.2575  0.1104 -0.4213
  965TIP3    H124386   0.346   2.381  12.090  0.9730  1.4956  0.1085
  965TIP3    H224387   0.431   2.465  11.997 -0.4833  0.4092 -2.2728
  966TIP3   OH224388   1.735   4.147  11.933  0.2221  0.2642  0.0310
  966TIP3    H124389   1.812   4.189  11.895  0.0541 -1.2574 -2.0798
  966TIP3    H224390   1.695   4.098  11.861 -0.3794 -2.3728  2.0244
  967TIP3   OH224391   1.459   6.113  11.647  0.7009  0.5644  0.3765
  967TIP3    H124392   1.463   6.095  11.553 -3.5357 -4.4185  0.8699
  967TIP3    H224393   1.402   6.189  11.655  0.0844  0.2663 -1.0335
  968TIP3   OH224394   5.108   6.501   1.817 -0.6758 -0.2397 -0.0361
  968TIP3    H124395   5.155   6.580   1.791 -2.1959  0.7224  0.0247
  968TIP3    H224396   5.172   6.431   1.812  1.4074  1.3950  2.3296
  969TIP3   OH224397   6.133   0.319  11.973 -0.3687 -0.1074 -0.5472
  969TIP3    H124398   6.188   0.386  11.933 -2.0022  0.5924 -1.7052
  969TIP3    H224399   6.157   0.320  12.066  0.6547  1.0494 -0.8179
  970TIP3   OH224400   2.355   5.011  11.916  0.4179  0.4134  0.4362
  970TIP3    H124401   2.364   4.991  11.823  0.1305  1.1177  0.2567
  970TIP3    H224402   2.445   5.025  11.946  0.5956 -0.7429  0.4817
  971TIP3   OH224403   0.605   6.836  10.843  0.4371 -0.5652  0.2346
  971TIP3    H124404   0.671   6.861  10.908  0.4128 -1.9148  0.7994
  971TIP3    H224405   0.541   6.785  10.893 -0.5093 -0.1047 -0.5051
  972TIP3   OH224406   5.670   6.471   9.733 -0.1206  0.5964 -0.7831
  972TIP3    H124407   5.641   6.398   9.678 -1.5370  0.8260 -0.3769
  972TIP3    H224408   5.593   6.491   9.787  0.4242  2.0551 -0.5351
  973TIP3   OH224409   5.925   0.675  11.197 -0.0175  0.2072 -0.6385
  973TIP3    H124410   5.947   0.729  11.121  0.6087 -1.6626 -1.8210
  973TIP3    H224411   6.007   0.671  11.247 -0.6808  2.2015  0.6372
  974TIP3   OH224412   5.739   0.989  10.412 -0.3925  0.1129 -0.6850
  974TIP3    H124413   5.743   1.047  10.336 -2.2262  1.5996  0.3465
  974TIP3    H224414   5.826   0.996  10.451 -0.7209  2.5703 -0.2985
  975TIP3   OH224415   6.999   1.283  10.846 -0.2843 -0.4853 -0.0730
  975TIP3    H124416   7.095   1.288  10.846 -0.2815 -0.4689 -0.6302
  975TIP3    H224417   6.979   1.196  10.813 -0.4561 -0.7889  0.8151
  976TIP3   OH224418   0.793   0.596   9.920 -0.5613 -0.5892  0.0627
  976TIP3    H124419   0.819   0.512   9.881 -0.3146 -0.4989  0.0313
  976TIP3    H224420   0.766   0.649   9.845  1.9997  0.3350 -0.2266
  977TIP3   OH224421   3.518   7.033  10.008 -0.3179 -0.4464  0.5780
  977TIP3    H124422   3.426   7.041  10.033  0.3971  0.6990  3.0571
  977TIP3    H224423   3.549   7.124  10.000  1.0131 -0.7905  1.5590
  978TIP3   OH224424   0.717   1.114   0.450  0.0298  0.2049  0.3245
  978TIP3    H124425   0.806   1.118   0.415  0.2109 -0.1949  0.7263
  978TIP3    H224426   0.662   1.091   0.375  0.1463  1.3635 -0.1077
  979TIP3   OH224427   6.708   1.415  11.393  0.2038 -0.0279 -0.5053
  979TIP3    H124428   6.636   1.449  11.341 -1.0028 -1.6633  0.0441
  979TIP3    H224429   6.733   1.488  11.450 -0.9501  0.5827 -0.7648
  980TIP3   OH224430   4.337   2.938  11.250  0.4129  0.1745 -0.1144
  980TIP3    H124431   4.340   2.873  11.321 -0.5650 -0.5893 -0.7578
  980TIP3    H224432   4.353   2.886  11.170 -1.5412  0.5381 -0.7500
  981TIP3   OH224433   2.349   6.617   9.957 -0.5303 -0.5522  0.2792
  981TIP3    H124434   2.367   6.580   9.870  0.7608 -0.0750  0.3349
  981TIP3    H224435   2.296   6.694   9.940 -0.1963 -0.4058 -0.0906
  982TIP3   OH224436   1.858   2.084  13.749 -0.1004  0.1300 -0.2051
  982TIP3    H124437   1.904   2.157  13.707 -0.8350  0.9084  0.3059
  982TIP3    H224438   1.776   2.075  13.700 -0.4255  0.2644  0.2970
  983TIP3   OH224439   6.953   2.741  15.080 -0.5828 -0.0126 -0.2876
  983TIP3    H124440   6.935   2.817  15.025  0.1293  1.4093  1.3801
  983TIP3    H224441   7.046   2.722  15.065 -0.6356 -0.2433 -0.3211
  984TIP3   OH224442   1.833   5.842  10.217 -0.1414  0.3961  0.0011
  984TIP3    H124443   1.813   5.908  10.151 -1.3016 -0.8001 -0.8644
  984TIP3    H224444   1.903   5.790  10.179 -0.8287 -0.3117 -0.2937
  985TIP3   OH224445   4.276   6.778   9.557 -0.1681  0.3194  0.4957
  985TIP3    H124446   4.319   6.858   9.586  2.2535 -0.6040 -0.4816
  985TIP3    H224447   4.241   6.800   9.470  0.0156  0.4879  0.4644
  986TIP3   OH224448   6.401   2.690  12.678 -0.4178 -0.7094 -0.1344
  986TIP3    H124449   6.486   2.684  12.721 -1.1865 -0.0255  1.5593
  986TIP3    H224450   6.343   2.637  12.733 -2.1726  2.9333  1.6749
  987TIP3   OH224451   1.851   1.345  10.758 -0.2819  0.4003  0.2540
  987TIP3    H124452   1.947   1.351  10.762 -0.3545  2.7221 -1.0996
  987TIP3    H224453   1.828   1.376  10.671 -2.0764 -3.4943 -0.7575
  988TIP3   OH224454   0.581   0.887   9.320 -0.3515 -0.0554  0.5041
  988TIP3    H124455   0.550   0.919   9.235  2.4832  0.1546 -0.5129
  988TIP3    H224456   0.630   0.807   9.300  0.0477 -0.2062  1.9826
  989TIP3   OH224457   6.454   6.543  11.418  0.2324 -0.4014 -0.1374
  989TIP3    H124458   6.383   6.591  11.377  0.1818  1.4381  2.0269
  989TIP3    H224459   6.508   6.610  11.459  1.4316 -2.0142  0.9747
  990TIP3   OH224460   4.864   0.114  12.871  0.2649 -0.3867 -0.3375
  990TIP3    H124461   4.771   0.122  12.850  0.8271  1.1307 -2.3832
  990TIP3    H224462   4.882   0.186  12.931 -0.0498 -1.2268  0.7917
  991TIP3   OH224463   0.336   3.905  10.803 -0.4312  0.1426 -0.0325
  991TIP3    H124464   0.264   3.955  10.763 -2.2874  0.0554  3.0391
  991TIP3    H224465   0.401   3.971  10.826 -0.8416  0.6029 -0.1801
  992TIP3   OH224466   6.976   1.077   9.639 -0.2154 -0.1704  0.3989
  992TIP3    H124467   6.926   1.013   9.689 -0.6795  0.3968  0.6647
  992TIP3    H224468   7.030   1.122   9.704 -1.5466  1.2455  0.5555
  993TIP3   OH224469   4.019   1.067  11.761  0.5981 -0.1238  0.4093
  993TIP3    H124470   4.056   1.087  11.847  0.9763  1.4903 -0.1152
  993TIP3    H224471   3.924   1.080  11.773  0.8064  1.8773  0.1431
  994TIP3   OH224472   0.342   0.761  12.990 -0.1723  0.3590  0.0998
  994TIP3    H124473   0.323   0.751  12.896 -2.1884  2.0278  0.3048
  994TIP3    H224474   0.354   0.855  13.002  3.9198 -0.1344  0.8646
  995TIP3   OH224475   1.745   1.077  13.700 -0.1682 -0.0945 -0.3554
  995TIP3    H124476   1.835   1.047  13.712 -0.2658  0.0674  0.8105
  995TIP3    H224477   1.729   1.068  13.606  1.0572 -0.1421 -0.5642
  996TIP3   OH224478   3.730   1.795  14.039  0.0414 -0.1189 -0.1372
  996TIP3    H124479   3.825   1.787  14.050  0.2575  1.0512 -1.0500
  996TIP3    H224480   3.712   1.888  14.056 -0.7387 -0.0399 -1.3652
  997TIP3   OH224481   5.781   1.388  11.380  0.6032 -0.2582  0.8208
  997TIP3    H124482   5.691   1.411  11.361  0.0660 -1.2323  2.1043
  997TIP3    H224483   5.796   1.306  11.334  1.1325  0.3611 -0.1347
  998TIP3   OH224484   1.850   6.353  12.828 -0.4215 -0.0743 -0.5065
  998TIP3    H124485   1.885   6.426  12.776 -0.1761  0.5890  0.5834
  998TIP3    H224486   1.889   6.275  12.788  0.2454  0.4711 -0.9434
  999TIP3   OH224487   3.362   2.423  13.604 -0.7773 -0.1798 -0.1879
  999TIP3    H124488   3.410   2.418  13.687 -0.9345  2.3617  0.0964
  999TIP3    H224489   3.418   2.378  13.541 -0.1164 -1.1181  1.0446
 1000TIP3   OH224490   5.365   4.995  13.239 -0.1621 -0.3515 -0.0089
 1000TIP3    H124491   5.288   4.981  13.294  0.2754  0.8850  0.9455
 1000TIP3    H224492   5.361   4.925  13.173 -2.5564  0.2535 -0.5234
 1001TIP3   OH224493   0.512   1.338  10.123 -0.1213  0.2886 -0.5245
 1001TIP3    H124494   0.580   1.316  10.186  0.0449 -0.0537 -0.8202
 1001TIP3    H224495   0.523   1.431  10.106  0.2287  0.2475 -0.5156
 1002TIP3   OH224496   0.498   0.517  14.197  0.8424  0.1299 -0.0823
 1002TIP3    H124497   0.480   0.574  14.122  1.1091  1.2783  0.7319
 1002TIP3    H224498   0.415   0.472  14.214  0.1381  1.6160  0.4235
 1003TIP3   OH224499   6.586   0.486  12.122  0.3198 -0.1328 -0.3059
 1003TIP3    H124500   6.578   0.548  12.049 -0.0157 -0.8213 -0.8638
 1003TIP3    H224501   6.669   0.508  12.164  0.1930  0.7059 -0.4901
 1004TIP3   OH224502   0.850   3.802  13.543  0.2503 -0.6356  0.0497
 1004TIP3    H124503   0.917   3.855  13.587  1.4204 -0.3010 -2.0508
 1004TIP3    H224504   0.779   3.863  13.524  1.3943  0.1424 -1.9395
 1005TIP3   OH224505   0.390   5.905  14.079  0.1148 -0.4846  0.5640
 1005TIP3    H124506   0.343   5.902  13.996 -0.6799 -0.1103  1.0032
 1005TIP3    H224507   0.466   5.960  14.061 -0.1969 -0.1854  0.1643
 1006TIP3   OH224508   1.058   2.164  10.371 -0.2560 -0.2141 -0.0349
 1006TIP3    H124509   1.070   2.254  10.401 -1.1177 -0.1649  0.1599
 1006TIP3    H224510   1.053   2.170  10.276 -0.6179 -0.0232 -0.0029
 1007TIP3   OH224511   4.791   2.998  11.707  0.1912 -0.4531 -0.2326
 1007TIP3    H124512   4.752   3.066  11.652 -0.4779 -0.1985  0.5362
 1007TIP3    H224513   4.787   3.035  11.796  3.5711  0.2234 -0.2884
 1008TIP3   OH224514   2.588   1.010  11.874  0.1810 -0.1867  0.0175
 1008TIP3    H124515   2.508   0.958  11.872 -1.2650  1.9809 -0.8091
 1008TIP3    H224516   2.624   1.001  11.785  0.5165 -0.6702  0.2039
 1009TIP3   OH224517   1.332   5.903  10.760  0.1783  0.0834 -0.2276
 1009TIP3    H124518   1.248   5.949  10.766 -0.3043 -0.8707  0.5609
 1009TIP3    H224519   1.389   5.963  10.712 -1.0287  0.6409 -0.9900
 1010TIP3   OH224520   6.629   1.388   0.566 -0.8625  0.2580  0.2538
 1010TIP3    H124521   6.551   1.353   0.522 -1.7269 -1.2376  2.8561
 1010TIP3    H224522   6.610   1.380   0.659  2.2823  0.1988  0.9573
 1011TIP3   OH224523   4.530   5.922  10.981  0.3817 -0.1298  0.6953
 1011TIP3    H124524   4.574   5.867  10.916 -0.7089  0.0505 -0.2310
 1011TIP3    H224525   4.590   5.995  10.996  0.9934 -0.5900  0.4727
 1012TIP3   OH224526   0.643   6.881  10.458  0.1716 -0.3781  0.6494
 1012TIP3    H124527   0.662   6.965  10.416  2.0754 -0.5548  1.1106
 1012TIP3    H224528   0.577   6.840  10.402  0.5295  0.6520 -0.5529
 1013TIP3   OH224529   5.907   4.072  11.991 -0.7867 -0.3257 -0.5797
 1013TIP3    H124530   5.902   4.031  12.077  1.7845 -1.1771 -0.7930
 1013TIP3    H224531   5.960   4.151  12.005  0.1766 -0.7937 -1.4506
 1014TIP3   OH224532   6.326   2.340   0.304  0.0829  0.2207 -0.6294
 1014TIP3    H124533   6.390   2.330   0.234  0.2447  1.4837 -0.6883
 1014TIP3    H224534   6.242   2.321   0.263  0.3249 -0.5306 -0.7836
 1015TIP3   OH224535   7.146   0.489  11.887 -0.0069 -0.7002 -0.5520
 1015TIP3    H124536   7.082   0.551  11.923 -1.1424 -1.2351 -1.6161
 1015TIP3    H224537   7.158   0.516  11.796  2.0741  0.0141 -0.0804
 1016TIP3   OH224538   1.476   1.872  11.861 -0.8516  0.8259  0.1787
 1016TIP3    H124539   1.523   1.888  11.780 -1.3696 -1.3762 -0.5763
 1016TIP3    H224540   1.408   1.809  11.838 -0.4151 -0.5431  2.5170
 1017TIP3   OH224541   0.268   2.722  15.289 -0.1977 -0.1844 -0.0244
 1017TIP3    H124542   0.241   2.650  15.231  1.3208  1.2387 -2.5943
 1017TIP3    H224543   0.364   2.724  15.281  0.0165  0.3254  2.2639
 1018TIP3   OH224544   0.913   1.743  10.960 -0.5029  0.0236 -0.2188
 1018TIP3    H124545   0.860   1.666  10.978 -0.7752  0.4572  0.8847
 1018TIP3    H224546   0.988   1.710  10.911 -1.3468 -0.7207 -1.0249
 1019TIP3   OH224547   6.722   0.241   9.712  0.1410  0.2274 -0.1136
 1019TIP3    H124548   6.710   0.240   9.617 -1.6111 -1.7138  0.0856
 1019TIP3    H224549   6.817   0.243   9.724  0.4213 -1.0003 -1.9339
 1020TIP3   OH224550   3.483   3.482  11.886  0.3023  0.2644 -0.1580
 1020TIP3    H124551   3.496   3.418  11.956 -1.5134  2.5519  2.3677
 1020TIP3    H224552   3.572   3.503  11.857  1.1257 -0.4150  1.7555
 1021TIP3   OH224553   6.699   3.304  13.089  0.4230 -0.3351 -0.2779
 1021TIP3    H124554   6.731   3.216  13.071  0.1597 -0.5968  0.5266
 1021TIP3    H224555   6.770   3.347  13.136  0.2073 -0.4030  0.1111
 1022TIP3   OH224556   5.424   1.178   9.955  0.2400 -0.2702  0.0227
 1022TIP3    H124557   5.404   1.197  10.047 -1.2399  0.8042 -0.4965
 1022TIP3    H224558   5.502   1.230   9.936  0.1288  0.0644  0.4823
 1023TIP3   OH224559   3.648   6.008  12.875  0.4204  0.4435 -0.2082
 1023TIP3    H124560   3.629   6.059  12.954 -1.3248 -0.7995  0.1872
 1023TIP3    H224561   3.742   5.991  12.880  0.5587  1.4502  0.9411
 1024TIP3   OH224562   6.092   0.403  14.126 -0.3245 -0.0821  0.5070
 1024TIP3    H124563   6.086   0.411  14.221 -0.0813  0.7814  0.4617
 1024TIP3    H224564   6.119   0.491  14.097  0.9491 -0.7117 -0.2380
 1025TIP3   OH224565   2.300   3.790  12.177  0.1859 -0.1446  0.0759
 1025TIP3    H124566   2.283   3.836  12.094  0.9754  0.6691  0.3557
 1025TIP3    H224567   2.395   3.783  12.181  0.1850  0.4276  1.2419
 1026TIP3   OH224568   6.764   5.048  10.904 -0.2716  0.3010 -0.2412
 1026TIP3    H124569   6.756   5.136  10.940  3.0173  1.6788 -2.6646
 1026TIP3    H224570   6.831   5.005  10.956 -1.2792 -0.5234  0.4069
 1027TIP3   OH224571   0.475   0.640  11.354 -0.0328  0.9826  0.3542
 1027TIP3    H124572   0.452   0.564  11.299 -0.4889  1.8767 -0.7227
 1027TIP3    H224573   0.424   0.628  11.434 -0.5782  0.4640 -0.0615
 1028TIP3   OH224574   4.493   5.750  12.150 -0.2386  0.0617  0.1284
 1028TIP3    H124575   4.447   5.807  12.211 -0.6406  1.0786 -1.1231
 1028TIP3    H224576   4.501   5.801  12.070  0.9199 -1.0043 -0.4519
 1029TIP3   OH224577   2.168   1.572  12.747 -0.0577 -0.2363 -0.0322
 1029TIP3    H124578   2.201   1.482  12.748  1.6432  0.3638 -0.3750
 1029TIP3    H224579   2.090   1.569  12.802  0.7900 -1.6211  1.1643
 1030TIP3   OH224580   0.063   0.977  13.260 -0.1577  0.0746  0.0239
 1030TIP3    H124581  -0.021   0.942  13.292 -1.0792 -0.2083 -2.6022
 1030TIP3    H224582   0.122   0.903  13.263 -1.2840 -0.9871 -2.5541
 1031TIP3   OH224583   5.715   0.272  10.692  0.1059 -0.4708 -0.5459
 1031TIP3    H124584   5.764   0.341  10.647 -0.0567 -0.7830 -1.2026
 1031TIP3    H224585   5.624   0.288  10.667 -0.1404  0.1298  0.6934
 1032TIP3   OH224586   0.197   2.001   0.004 -0.5481 -0.2629  0.2522
 1032TIP3    H124587   0.266   2.026  -0.058 -0.3342  0.5099  0.7958
 1032TIP3    H224588   0.144   2.080   0.015 -0.7723 -0.4849  0.8086
 1033TIP3   OH224589   3.635   1.678  10.139 -0.0824 -0.0011  0.8672
 1033TIP3    H124590   3.643   1.770  10.166 -1.5355  0.0811  1.0603
 1033TIP3    H224591   3.604   1.682  10.048 -0.7201 -0.2960  1.0678
 1034TIP3   OH224592   4.737   0.867  11.153  0.1739 -0.2676  0.5716
 1034TIP3    H124593   4.698   0.794  11.105  1.2938  0.0997 -0.9346
 1034TIP3    H224594   4.805   0.827  11.206  0.5010 -0.3857  0.0696
 1035TIP3   OH224595   5.805   4.404  14.120 -0.2331 -0.0261  0.1754
 1035TIP3    H124596   5.824   4.334  14.183  0.4201 -1.4295 -1.5444
 1035TIP3    H224597   5.858   4.382  14.044 -0.5112  2.0177 -0.6277
 1036TIP3   OH224598   0.866   6.602  11.053  0.0187 -0.0063  0.2460
 1036TIP3    H124599   0.807   6.677  11.048 -0.5002 -0.4192  0.0787
 1036TIP3    H224600   0.818   6.537  11.105  0.5443 -0.1487  0.5550
 1037TIP3   OH224601   3.141   5.720  14.282  0.0023  0.8691 -0.1857
 1037TIP3    H124602   3.074   5.657  14.306 -0.2626  1.1726 -0.1166
 1037TIP3    H224603   3.179   5.686  14.201 -0.5892  0.9608 -0.5047
 1038TIP3   OH224604   3.225   1.656  12.588  0.3606 -0.4691 -0.0699
 1038TIP3    H124605   3.302   1.711  12.572 -0.7502  0.5487 -2.0898
 1038TIP3    H224606   3.164   1.713  12.636 -0.6259 -0.0314 -1.7999
 1039TIP3   OH224607   6.974   5.122  13.117  0.4800  0.3154  0.3668
 1039TIP3    H124608   6.921   5.109  13.196 -0.1498  0.7656  0.0194
 1039TIP3    H224609   6.994   5.033  13.087  0.3646  0.1438  0.7936
 1040TIP3   OH224610   6.223   0.136  10.045  0.2659 -0.5699  0.4016
 1040TIP3    H124611   6.173   0.180   9.976  1.1076  1.0832  0.8194
 1040TIP3    H224612   6.296   0.095   9.999  1.2264  1.1316  0.3653
 1041TIP3   OH224613   1.387   0.677  12.622  0.0323  0.0751  0.7189
 1041TIP3    H124614   1.403   0.608  12.687 -0.5705 -1.2318 -0.4824
 1041TIP3    H224615   1.472   0.690  12.579  0.1034 -0.0598  0.8189
 1042TIP3   OH224616   5.423   6.874  10.734  0.1419  0.6690  0.4734
 1042TIP3    H124617   5.487   6.803  10.729 -0.1954  0.3137  0.9982
 1042TIP3    H224618   5.373   6.855  10.814 -1.3174  0.3218 -0.4934
 1043TIP3   OH224619   6.062   1.213  11.851 -0.3023 -0.1970  0.1415
 1043TIP3    H124620   6.040   1.212  11.758  0.3682 -1.0830 -0.0167
 1043TIP3    H224621   6.065   1.306  11.874 -0.0192  0.0445 -0.8339
 1044TIP3   OH224622   6.299   0.473  11.733 -0.7525 -0.5093 -0.0516
 1044TIP3    H124623   6.209   0.476  11.699 -0.7635 -0.4912 -0.0199
 1044TIP3    H224624   6.352   0.514  11.664 -0.7051 -0.9450 -0.2765
 1045TIP3   OH224625   5.416   6.784  10.215 -0.3229  0.8245 -0.0637
 1045TIP3    H124626   5.422   6.758  10.123 -2.0789 -2.2457  0.6293
 1045TIP3    H224627   5.495   6.748  10.255 -0.9767 -0.3642  0.1771
 1046TIP3   OH224628   5.160   2.533  10.873 -0.0943  0.1887 -0.3430
 1046TIP3    H124629   5.238   2.588  10.887  0.7521 -1.0776  0.0019
 1046TIP3    H224630   5.110   2.542  10.955 -1.4646  2.7656 -1.3949
 1047TIP3   OH224631   5.768   6.071  11.265  0.1795 -0.0448  0.1907
 1047TIP3    H124632   5.684   6.065  11.309 -0.4056  1.1557 -0.7309
 1047TIP3    H224633   5.829   6.099  11.333 -0.6296  1.3447  0.3546
 1048TIP3   OH224634   0.249   2.646  14.246 -0.2651  0.1050 -0.5739
 1048TIP3    H124635   0.311   2.613  14.311  0.5850  2.9098  0.1114
 1048TIP3    H224636   0.178   2.581  14.245  0.6768 -1.0129  1.6604
 1049TIP3   OH224637   0.207   5.755  10.241 -0.1547  0.0023  0.3208
 1049TIP3    H124638   0.271   5.688  10.219 -0.8747 -0.4216 -0.5056
 1049TIP3    H224639   0.258   5.824  10.283  0.8848 -0.2171 -0.5643
 1050TIP3   OH224640   6.754   6.392  11.866 -0.2432  0.7738 -0.3443
 1050TIP3    H124641   6.771   6.403  11.773  2.2869  1.4290  0.1682
 1050TIP3    H224642   6.743   6.298  11.877 -1.1373  0.7425 -1.3787
 1051TIP3   OH224643   0.824   2.308   0.469 -0.0049 -0.1746 -0.0402
 1051TIP3    H124644   0.749   2.254   0.445  0.1549 -0.5020  0.1882
 1051TIP3    H224645   0.900   2.259   0.438  0.0881  0.3974 -0.7146
 1052TIP3   OH224646   0.268   6.951  13.154  0.1748  0.7397 -0.8368
 1052TIP3    H124647   0.360   6.960  13.131  1.0675  1.9697  2.8990
 1052TIP3    H224648   0.262   6.865  13.196 -0.2311  0.9576 -0.4407
 1053TIP3   OH224649   0.654   5.033  14.001  0.3971 -0.2268  0.5137
 1053TIP3    H124650   0.614   4.954  13.964 -0.1876  0.1660  0.3074
 1053TIP3    H224651   0.612   5.043  14.087 -0.8628  0.8708 -0.1995
 1054TIP3   OH224652   4.949   0.336   9.383 -0.5272 -0.1119  0.4545
 1054TIP3    H124653   5.030   0.308   9.341 -0.1656  2.0993 -0.4208
 1054TIP3    H224654   4.912   0.257   9.421  0.9564 -1.5225 -0.9937
 1055TIP3   OH224655   4.526   0.050  14.614  0.2976  0.0748  0.0622
 1055TIP3    H124656   4.587   0.082  14.547  0.2683 -0.7669 -0.3755
 1055TIP3    H224657   4.544  -0.044  14.620 -0.5085 -0.0626  0.4074
 1056TIP3   OH224658   6.034   7.189  10.168  0.6606  0.0518  0.5986
 1056TIP3    H124659   5.983   7.221  10.094  1.5193  0.4243  0.1661
 1056TIP3    H224660   6.122   7.225  10.155  1.1805 -1.0195  1.0562
 1057TIP3   OH224661   5.480   1.604  10.942 -0.1328 -0.4592 -0.4042
 1057TIP3    H124662   5.524   1.544  10.882  2.4712  0.5705  0.3988
 1057TIP3    H224663   5.496   1.567  11.029 -1.3191 -0.3562 -0.1416
 1058TIP3   OH224664   6.292   6.084  10.140  0.4360  0.1422  0.3040
 1058TIP3    H124665   6.240   6.133  10.204  0.4315 -0.6775  0.9325
 1058TIP3    H224666   6.335   6.151  10.087  0.0316  0.8219  0.8362
 1059TIP3   OH224667   0.177   3.996  12.483 -0.3805 -0.0944  0.3527
 1059TIP3    H124668   0.246   4.056  12.510  0.0022 -0.1205 -0.5412
 1059TIP3    H224669   0.120   4.047  12.426  0.1563 -0.6579 -0.7180
 1060TIP3   OH224670   1.656   0.458   9.831 -0.0593  0.4405 -0.4167
 1060TIP3    H124671   1.673   0.541   9.788 -0.1912  1.2644  1.1173
 1060TIP3    H224672   1.582   0.421   9.783  0.6655  0.6942 -1.7685
 1061TIP3   OH224673   6.432   1.120  12.749  0.2081 -0.6831 -0.1233
 1061TIP3    H124674   6.350   1.113  12.798  0.6912  1.5408  1.0341
 1061TIP3    H224675   6.404   1.122  12.657 -0.9677 -0.8730  0.2217
 1062TIP3   OH224676   5.417   1.002  15.243 -0.0736 -0.6786  0.6066
 1062TIP3    H124677   5.350   0.936  15.261 -0.5865 -0.2343  0.3294
 1062TIP3    H224678   5.483   0.956  15.191 -1.4814 -0.4256 -1.4431
 1063TIP3   OH224679   5.031   0.983   9.729  0.3643 -0.5674  0.5349
 1063TIP3    H124680   4.952   1.006   9.779 -0.9425 -1.2116 -1.1780
 1063TIP3    H224681   4.997   0.943   9.649  2.4541 -0.8802 -0.2083
 1064TIP3   OH224682   7.094   5.557  12.529  0.6838  0.1978 -0.0581
 1064TIP3    H124683   7.114   5.483  12.472  0.4059 -0.0059  0.1062
 1064TIP3    H224684   7.105   5.634  12.474 -1.9748 -0.1192 -1.0851
 1065TIP3   OH224685   4.174   1.317  10.963  0.8982  0.6527 -0.3082
 1065TIP3    H124686   4.081   1.337  10.979  1.1244 -0.3058  2.3390
 1065TIP3    H224687   4.197   1.372  10.887 -2.2726 -0.3711 -2.1191
 1066TIP3   OH224688   6.800   2.090  10.476 -0.0537  0.2634  0.0442
 1066TIP3    H124689   6.747   2.115  10.552 -0.6211 -0.9743  0.0623
 1066TIP3    H224690   6.869   2.034  10.512 -0.4472 -0.4915 -0.3915
 1067TIP3   OH224691   6.707   5.909  10.826  0.8229  0.1197  0.4341
 1067TIP3    H124692   6.713   6.003  10.814 -1.1870 -0.0384 -2.4406
 1067TIP3    H224693   6.630   5.897  10.881  0.9754  0.1556  0.6548
 1068TIP3   OH224694   4.969   1.331   1.505  0.3665 -0.2048  0.5332
 1068TIP3    H124695   5.006   1.267   1.566  0.6431  0.0372  0.6209
 1068TIP3    H224696   4.922   1.394   1.560  2.3914  1.2103  0.6917
 1069TIP3   OH224697   4.038   2.463  11.541  0.0188  0.1496 -0.6226
 1069TIP3    H124698   4.025   2.518  11.464  2.5101  0.6912 -0.6884
 1069TIP3    H224699   4.117   2.413  11.522  0.4334 -0.0060  1.3967
 1070TIP3   OH224700   0.391   6.441  10.449 -0.1551  0.0825 -0.0287
 1070TIP3    H124701   0.396   6.355  10.492  0.2366 -0.2046 -0.6330
 1070TIP3    H224702   0.483   6.465  10.434 -0.2185  1.2094  1.3044
 1071TIP3   OH224703   0.485   0.030  11.015  0.7198 -0.5987  0.3656
 1071TIP3    H124704   0.466   0.074  11.098  0.8423  2.5365 -1.1679
 1071TIP3    H224705   0.575   0.055  10.994  0.5854 -1.0834 -0.8589
 1072TIP3   OH224706   3.027   2.811  13.053 -0.5982 -0.1243 -0.4726
 1072TIP3    H124707   2.992   2.721  13.049  0.7238 -0.5914 -2.2774
 1072TIP3    H224708   3.122   2.799  13.059 -0.3608  1.1408 -1.5117
 1073TIP3   OH224709   0.877   0.067   9.438 -0.3502 -0.3619 -0.1804
 1073TIP3    H124710   0.915  -0.012   9.399  0.4449  0.0043 -0.1517
 1073TIP3    H224711   0.854   0.041   9.528  0.7243 -0.3232  0.1177
 1074TIP3   OH224712   0.287   1.493  15.162 -0.0566 -0.4794 -0.0291
 1074TIP3    H124713   0.198   1.481  15.128  0.6852 -0.0432 -2.2141
 1074TIP3    H224714   0.339   1.425  15.119  1.2894  1.3331 -1.3463
 1075TIP3   OH224715   0.547   6.375  10.184  0.2928 -0.6434 -0.3167
 1075TIP3    H124716   0.619   6.388  10.122 -0.4068  2.2775 -0.5731
 1075TIP3    H224717   0.559   6.444  10.249 -0.7692 -1.7812  1.1113
 1076TIP3   OH224718   6.457   3.353  10.680 -1.1762 -0.0566 -0.3242
 1076TIP3    H124719   6.462   3.268  10.725  0.1722  0.2947  0.2155
 1076TIP3    H224720   6.505   3.340  10.599  0.5448  0.6801  0.5630
 1077TIP3   OH224721   0.292   0.890   0.149 -0.2004 -0.1343 -0.4169
 1077TIP3    H124722   0.248   0.939   0.218 -0.7867  0.8202 -1.4550
 1077TIP3    H224723   0.256   0.924   0.067  2.9199  1.1733 -1.3414
 1078TIP3   OH224724   5.424   6.652   9.959  0.3280 -0.0033 -0.0733
 1078TIP3    H124725   5.385   6.565   9.967 -0.0223  0.2012  0.4736
 1078TIP3    H224726   5.358   6.704   9.912 -0.6956  0.7262  2.0903
 1079TIP3   OH224727   1.350   0.714   9.664  0.0968  0.5233  0.4611
 1079TIP3    H124728   1.298   0.648   9.710 -0.8374  0.9428  0.0247
 1079TIP3    H224729   1.302   0.796   9.678  1.8190  1.3163  1.9151
 1080TIP3   OH224730   5.116   6.368   9.737  0.4691 -0.3376 -0.9341
 1080TIP3    H124731   5.161   6.288   9.763  0.8009 -0.4387 -1.8314
 1080TIP3    H224732   5.177   6.412   9.678 -0.2973 -0.1061 -1.5530
 1081TIP3   OH224733   5.989   5.906   9.274 -0.0532 -0.6165  0.5244
 1081TIP3    H124734   5.972   5.852   9.197  1.2624  1.1494 -1.0413
 1081TIP3    H224735   6.076   5.878   9.304  1.2785  1.5666 -1.1576
 1082TIP3   OH224736   0.019   1.368  11.439  0.7609 -0.1355 -0.1460
 1082TIP3    H124737   0.080   1.438  11.462  2.7233 -1.4676 -1.1409
 1082TIP3    H224738  -0.067   1.404  11.459  1.8336  1.9234  0.9741
 1083TIP3   OH224739   7.194   0.011  11.650 -0.4056  0.0111 -0.0066
 1083TIP3    H124740   7.169  -0.027  11.735  0.3291 -0.0691  0.1751
 1083TIP3    H224741   7.240  -0.060  11.605  2.1032  1.0419  0.8397
 1084TIP3   OH224742   6.320   6.134  10.966 -0.1644 -0.2750  0.1004
 1084TIP3    H124743   6.399   6.188  10.971  0.2987 -0.9388  0.0099
 1084TIP3    H224744   6.248   6.195  10.983  0.4096  0.2135  0.7988
 1085TIP3   OH224745   6.973   3.072  11.118  0.3704  0.6044  0.0360
 1085TIP3    H124746   7.039   3.008  11.091 -0.3305  0.3369 -1.0587
 1085TIP3    H224747   6.989   3.147  11.061 -2.2613 -0.6205 -2.4105
 1086TIP3   OH224748   6.629   0.402  10.458  0.0390  0.0645  0.0396
 1086TIP3    H124749   6.611   0.468  10.525 -0.3495 -0.5032  0.4991
 1086TIP3    H224750   6.542   0.382  10.421 -0.0062 -1.1270  0.7865
 1087TIP3   OH224751   4.608   3.978   9.741  0.5064 -0.2538  0.6319
 1087TIP3    H124752   4.539   4.015   9.796  0.4311 -1.1312  1.1371
 1087TIP3    H224753   4.562   3.927   9.675  0.6286  0.1677  0.2158
 1088TIP3   OH224754   3.898   5.286  10.086 -0.5860  0.6920  0.2763
 1088TIP3    H124755   3.921   5.337  10.164  4.0642 -2.8568  1.4840
 1088TIP3    H224756   3.830   5.226  10.117  0.4924  0.0067  1.3856
 1089TIP3   OH224757   5.635   0.341  11.357 -0.3614 -0.2106  0.6748
 1089TIP3    H124758   5.623   0.417  11.300  2.4836 -0.4047 -0.2821
 1089TIP3    H224759   5.558   0.340  11.413 -1.3963  2.2208 -0.6343
 1090TIP3   OH224760   5.116   7.183  11.845  0.4102 -0.2376 -0.4006
 1090TIP3    H124761   5.190   7.237  11.872 -0.4733  2.2738 -2.8105
 1090TIP3    H224762   5.047   7.204  11.908  0.9707 -0.8050  0.4197
 1091TIP3   OH224763   6.843   2.447  10.698 -0.5322 -0.0122 -0.4897
 1091TIP3    H124764   6.815   2.511  10.764 -2.1970 -1.4760  0.2536
 1091TIP3    H224765   6.914   2.491  10.651 -0.9831  2.0020  0.6540
 1092TIP3   OH224766   5.043   1.497   9.911  0.2736 -0.1992  0.8078
 1092TIP3    H124767   5.092   1.428   9.867  0.6142  0.7342 -0.2735
 1092TIP3    H224768   5.100   1.573   9.908 -0.5771  0.4511  0.9947
 1093TIP3   OH224769   2.132   1.691  11.061 -0.5395  0.2722  0.0202
 1093TIP3    H124770   2.091   1.638  11.129 -1.9280 -0.4881 -1.3929
 1093TIP3    H224771   2.107   1.781  11.082 -0.2302  0.1310  1.0111
 1094TIP3   OH224772   0.220   2.849  14.058 -0.6695 -0.1643  0.1607
 1094TIP3    H124773   0.281   2.918  14.085  0.9129 -1.2566 -0.5258
 1094TIP3    H224774   0.239   2.776  14.116 -1.7715 -0.3201  0.3410
 1095TIP3   OH224775   0.168   6.462  14.489 -0.1929 -0.2595  0.5243
 1095TIP3    H124776   0.244   6.435  14.540 -1.4363 -1.8248  1.5849
 1095TIP3    H224777   0.147   6.386  14.435 -1.2904 -0.0051  0.5762
 1096TIP3   OH224778   5.284   0.518  10.194 -0.1532 -0.7639 -0.0184
 1096TIP3    H124779   5.236   0.456  10.139 -1.2204 -0.1305  0.1823
 1096TIP3    H224780   5.375   0.505  10.170 -0.4246 -1.9521 -0.4492
 1097TIP3   OH224781   1.366   7.165  12.917 -0.0876 -0.4630  0.0504
 1097TIP3    H124782   1.300   7.134  12.979 -0.6704  2.0992  0.7408
 1097TIP3    H224783   1.320   7.230  12.864  1.2472 -0.3872 -1.0203
 1098TIP3   OH224784   5.637   5.852  10.352 -0.0169  0.1118 -0.3705
 1098TIP3    H124785   5.725   5.822  10.330  0.3573  0.7353  0.2398
 1098TIP3    H224786   5.597   5.875  10.268  0.9346  1.2494 -0.5276
 1099TIP3   OH224787   3.613   1.960  13.102 -0.4454  0.3943  0.4256
 1099TIP3    H124788   3.519   1.977  13.102 -0.4925  0.1458  0.7584
 1099TIP3    H224789   3.622   1.873  13.139 -0.1384  0.0675 -0.4072
 1100TIP3   OH224790   1.790   5.199  12.527  0.4144 -0.0644  0.0246
 1100TIP3    H124791   1.715   5.176  12.472 -0.6462 -0.8375  1.7770
 1100TIP3    H224792   1.824   5.115  12.558  0.4266  0.4017  1.3054
 1101TIP3   OH224793   0.913   1.279  13.510 -1.2778 -0.2655  0.1501
 1101TIP3    H124794   0.954   1.208  13.560 -1.0293 -0.3030 -0.0986
 1101TIP3    H224795   0.894   1.347  13.574 -0.2329  0.0136  0.1751
 1102TIP3   OH224796   6.719   7.057  10.113  0.3557  0.5168  0.0991
 1102TIP3    H124797   6.777   7.009  10.055 -1.5169 -1.1018 -0.4978
 1102TIP3    H224798   6.631   7.032  10.085 -0.6567  3.2114  0.7155
 1103TIP3   OH224799   3.160   0.364  13.207  0.1620 -0.2169 -0.8152
 1103TIP3    H124800   3.138   0.420  13.132  0.4164 -0.1268 -0.8204
 1103TIP3    H224801   3.141   0.418  13.284  2.0190  0.4963 -0.8283
 1104TIP3   OH224802   2.722   2.609  12.517  0.9216  0.9919 -0.3558
 1104TIP3    H124803   2.680   2.607  12.431 -0.9310  0.5803  0.5397
 1104TIP3    H224804   2.811   2.639  12.499  0.1791  2.1490 -2.2493
 1105TIP3   OH224805   0.304   4.255  11.071 -0.3147  0.3384  0.8446
 1105TIP3    H124806   0.281   4.348  11.067 -0.4860  0.3516  1.9688
 1105TIP3    H224807   0.385   4.252  11.122  1.0234  0.0791 -1.2399
 1106TIP3   OH224808   0.522   4.645  11.670  0.8806  0.2171 -0.0213
 1106TIP3    H124809   0.513   4.619  11.578  1.7499  0.3157 -0.1338
 1106TIP3    H224810   0.480   4.574  11.719  0.9691 -0.1379 -0.4573
 1107TIP3   OH224811   5.298   5.573  13.229 -0.1033  0.0422  0.8490
 1107TIP3    H124812   5.282   5.492  13.180 -1.2596  1.1469 -0.6291
 1107TIP3    H224813   5.310   5.544  13.320  2.6963 -2.0952 -0.1337
 1108TIP3   OH224814   1.253   6.083  12.605 -0.2023 -0.5029  0.1660
 1108TIP3    H124815   1.299   6.000  12.588  1.1472  0.1739  0.3971
 1108TIP3    H224816   1.299   6.147  12.551  1.6163  0.9289  3.2559
 1109TIP3   OH224817   5.598   2.715  13.936 -0.6111  0.2022  0.1652
 1109TIP3    H124818   5.539   2.741  14.007 -0.6806  2.6559 -0.7601
 1109TIP3    H224819   5.677   2.767  13.951  1.0003 -2.3328  0.8229
 1110TIP3   OH224820   3.859   0.939  12.052  0.4543 -0.5761  0.4742
 1110TIP3    H124821   3.855   0.863  11.994  0.5167  0.2497 -0.6278
 1110TIP3    H224822   3.806   1.005  12.009  1.3269  0.3879  0.8577
 1111TIP3   OH224823   0.690   6.657  13.820 -0.1673 -0.1876  0.0799
 1111TIP3    H124824   0.686   6.687  13.729 -0.3914  2.2959  0.8592
 1111TIP3    H224825   0.780   6.627  13.831  0.4540  1.3892 -0.4296
 1112TIP3   OH224826   2.971   2.190  12.269 -0.1386 -0.1711 -0.3806
 1112TIP3    H124827   2.996   2.220  12.356  0.7109  0.9029 -0.9884
 1112TIP3    H224828   3.020   2.246  12.209 -0.7750 -0.8512 -1.5541
 1113TIP3   OH224829   0.442   1.429  11.465 -0.0618 -0.1790  0.4560
 1113TIP3    H124830   0.523   1.409  11.417 -1.3247 -0.2960 -1.7211
 1113TIP3    H224831   0.390   1.349  11.456 -1.3958  0.7588 -0.2970
 1114TIP3   OH224832   1.536   6.538  11.465 -0.1800  0.0995 -0.6431
 1114TIP3    H124833   1.618   6.493  11.442 -1.9628 -1.9828 -3.2312
 1114TIP3    H224834   1.527   6.606  11.398  0.3284  1.5928  0.7559
 1115TIP3   OH224835   5.775   0.896  10.696  0.1682 -0.2462 -0.3331
 1115TIP3    H124836   5.731   0.879  10.613  0.8704  1.7299 -1.1484
 1115TIP3    H224837   5.868   0.901  10.673  0.5795 -1.6277  0.9151
 1116TIP3   OH224838   5.177   1.694  10.418 -0.2316 -0.1129 -0.2022
 1116TIP3    H124839   5.187   1.705  10.323  2.3741 -2.7246 -0.2821
 1116TIP3    H224840   5.128   1.612  10.428  0.0839 -0.1939  0.7315
 1117TIP3   OH224841   6.217   0.663   9.918 -0.3064  0.1058  0.7062
 1117TIP3    H124842   6.195   0.582   9.871 -0.9833  1.1480 -0.8436
 1117TIP3    H224843   6.311   0.658   9.932 -0.6910 -2.0615  2.8300
 1118TIP3   OH224844   0.987   1.432  11.821 -0.0453 -0.5787 -0.0196
 1118TIP3    H124845   0.959   1.493  11.890  0.5906  0.6768 -0.8463
 1118TIP3    H224846   0.986   1.346  11.863 -1.8090 -0.1300  0.9403
 1119TIP3   OH224847   0.754   3.162   9.958 -0.5784  0.1504 -0.4441
 1119TIP3    H124848   0.669   3.204   9.942 -0.0399  1.6370  0.5314
 1119TIP3    H224849   0.738   3.069   9.941 -1.8189  0.7084 -2.5163
 1120TIP3   OH224850   1.725   4.274  14.958  0.1135 -0.3054 -0.4070
 1120TIP3    H124851   1.665   4.314  15.021 -1.3957 -0.4341 -1.7333
 1120TIP3    H224852   1.791   4.231  15.012 -1.3991 -0.8044  1.1044
 1121TIP3   OH224853   4.346   1.705   2.072  0.0676 -0.0854 -0.2153
 1121TIP3    H124854   4.419   1.751   2.030  0.4920 -0.1857  0.4031
 1121TIP3    H224855   4.273   1.767   2.066  0.2267  0.0615 -0.7369
 1122TIP3   OH224856   0.136   4.958  10.278  0.1622  0.3718  0.1459
 1122TIP3    H124857   0.207   5.009  10.236 -0.3804  0.0101 -1.2437
 1122TIP3    H224858   0.153   4.868  10.252 -0.2219  0.1446  0.6791
 1123TIP3   OH224859   4.793   6.797  12.569  0.3005 -0.6552 -0.0248
 1123TIP3    H124860   4.729   6.867  12.583 -1.3887 -1.6494 -2.3041
 1123TIP3    H224861   4.771   6.730  12.634 -0.7025 -0.7723 -0.4712
 1124TIP3   OH224862   2.145   0.676  10.517 -0.3269 -0.1291 -0.4286
 1124TIP3    H124863   2.195   0.738  10.463 -1.3137  0.2783 -0.8842
 1124TIP3    H224864   2.184   0.591  10.498  2.6941  0.5947  2.0750
 1125TIP3   OH224865   1.881   0.799   9.957  0.0898  0.0717  0.1971
 1125TIP3    H124866   1.865   0.705   9.966 -1.4789  0.3108  0.0478
 1125TIP3    H224867   1.888   0.831  10.047 -0.2397 -0.0437  0.2630
 1126TIP3   OH224868   4.479   1.859  12.989 -0.2600 -0.1116  0.1164
 1126TIP3    H124869   4.500   1.845  12.897 -0.0678  0.0209  0.1408
 1126TIP3    H224870   4.387   1.886  12.989 -0.0873  0.4783 -0.0873
 1127TIP3   OH224871   4.971   5.436  11.497 -0.1145 -0.4467 -0.1684
 1127TIP3    H124872   4.935   5.367  11.441 -0.3847 -0.8293  0.4770
 1127TIP3    H224873   4.980   5.395  11.583  2.2619 -0.4993 -0.3960
 1128TIP3   OH224874   6.189   7.064  10.627  0.3126 -0.2868  0.4180
 1128TIP3    H124875   6.145   6.979  10.636 -1.9234  0.6100 -1.5624
 1128TIP3    H224876   6.166   7.111  10.707 -1.7812 -0.0983 -0.2749
 1129TIP3   OH224877   5.052   2.671  10.633 -0.8126  0.3654 -0.1958
 1129TIP3    H124878   4.979   2.709  10.681 -2.1707 -2.0744 -0.2087
 1129TIP3    H224879   5.104   2.626  10.699 -2.1104 -2.1102 -0.7766
 1130TIP3   OH224880   5.223   6.441  11.347 -0.5152  0.2259 -0.2493
 1130TIP3    H124881   5.192   6.351  11.337 -1.0980  0.3086  0.7190
 1130TIP3    H224882   5.318   6.436  11.333 -0.6045 -0.4652 -0.6096
 1131TIP3   OH224883   6.664   6.132   1.153  0.3336 -0.7065  0.1332
 1131TIP3    H124884   6.720   6.209   1.145  0.7819 -1.1314 -0.8492
 1131TIP3    H224885   6.637   6.132   1.245  1.4330 -0.1456  0.4661
 1132TIP3   OH224886   3.311   2.667  12.824  0.0540 -0.1973 -0.0106
 1132TIP3    H124887   3.326   2.692  12.915 -0.5171 -0.6582  0.2088
 1132TIP3    H224888   3.229   2.710  12.800  0.6060  0.5580 -0.5467
 1133TIP3   OH224889   0.690   0.595  12.913  0.5312  0.6907  0.6031
 1133TIP3    H124890   0.602   0.582  12.949  0.3454 -1.1698 -0.4584
 1133TIP3    H224891   0.746   0.603  12.991 -0.5047  1.5170  1.2823
 1134TIP3   OH224892   4.313   1.652  11.094  1.0104  0.0121  0.3411
 1134TIP3    H124893   4.291   1.637  11.002 -0.2319 -1.0037  0.7851
 1134TIP3    H224894   4.373   1.727  11.093 -0.5658  1.2767 -1.1160
 1135TIP3   OH224895   1.368   1.881  10.353  0.3122 -0.0793  0.0248
 1135TIP3    H124896   1.393   1.969  10.324 -1.0872 -0.4034 -2.2966
 1135TIP3    H224897   1.284   1.893  10.397 -0.6169 -0.4511 -1.6302
 1136TIP3   OH224898   1.452   4.373  13.218  0.0710 -0.0643 -0.2783
 1136TIP3    H124899   1.422   4.392  13.306  0.2661 -2.3479  0.3274
 1136TIP3    H224900   1.506   4.448  13.193 -1.3687  1.3603  0.8810
 1137TIP3   OH224901   4.682   0.784  11.484  0.2039  0.0158 -0.5884
 1137TIP3    H124902   4.592   0.798  11.453  0.5783 -0.1515 -1.7938
 1137TIP3    H224903   4.706   0.698  11.450  1.0154  0.3013 -0.7538
 1138TIP3   OH224904   6.341   3.948  11.296  0.4074  0.2610  0.0102
 1138TIP3    H124905   6.254   3.983  11.276 -1.4368 -3.6520  0.8848
 1138TIP3    H224906   6.357   3.975  11.386 -0.5452 -0.2582  0.3425
 1139TIP3   OH224907   0.733   1.256  14.095  0.2301 -0.3502  0.2974
 1139TIP3    H124908   0.720   1.229  14.186 -1.1039 -0.1717  0.1711
 1139TIP3    H224909   0.644   1.258  14.058  0.5726  1.5036 -0.4663
 1140TIP3   OH224910   6.792   5.780   9.976 -0.0457  0.1354 -0.1399
 1140TIP3    H124911   6.716   5.838   9.984 -0.0801 -0.1005  1.5595
 1140TIP3    H224912   6.816   5.783   9.884 -1.5235  0.9805 -0.5101
 1141TIP3   OH224913   6.141   0.328  11.251 -0.2050 -0.0983 -0.0586
 1141TIP3    H124914   6.133   0.268  11.177 -0.8219 -0.1942  0.0827
 1141TIP3    H224915   6.051   0.345  11.278 -0.0893  1.8300 -0.8459
 1142TIP3   OH224916   6.935   0.698  13.527 -0.4854  0.4971  0.1717
 1142TIP3    H124917   6.859   0.674  13.474 -0.2573 -1.6069  0.7550
 1142TIP3    H224918   7.008   0.650  13.488  0.4316  2.0164 -0.0052
 1143TIP3   OH224919   5.393   3.924  11.392  0.0652 -0.7389  0.6132
 1143TIP3    H124920   5.485   3.942  11.373  0.2816 -2.7208 -0.3735
 1143TIP3    H224921   5.346   4.000  11.357  1.2374 -0.2050  0.1752
 1144TIP3   OH224922   0.195   7.104   9.593  0.1683  0.0323  0.4496
 1144TIP3    H124923   0.210   7.010   9.607 -1.2396 -0.1768  0.6137
 1144TIP3    H224924   0.170   7.137   9.679  0.2040  0.4732  0.2900
 1145TIP3   OH224925   2.226   4.633  11.518 -0.1467  0.3063  0.2892
 1145TIP3    H124926   2.292   4.565  11.503 -2.2456 -1.8294  0.3489
 1145TIP3    H224927   2.253   4.705  11.462  2.3134 -0.4531  0.4304
 1146TIP3   OH224928   3.845   3.051  12.560 -0.0851 -0.4127  0.0684
 1146TIP3    H124929   3.916   3.055  12.624 -2.2409  1.1615  2.5167
 1146TIP3    H224930   3.856   3.130  12.507 -0.1287 -0.0136  0.6366
 1147TIP3   OH224931   6.196   0.201  12.258  0.1532  0.3816  0.0675
 1147TIP3    H124932   6.285   0.171  12.242 -0.0558 -1.2840  1.8183
 1147TIP3    H224933   6.146   0.121  12.278 -1.5875  1.3477 -0.2545
 1148TIP3   OH224934   1.121   5.271   9.948 -0.0846  0.6228 -0.4099
 1148TIP3    H124935   1.101   5.179   9.965  2.3749  0.3273  1.0216
 1148TIP3    H224936   1.111   5.314  10.033  2.3318  0.9874 -0.2713
 1149TIP3   OH224937   5.552   0.432  10.193  0.4407 -0.1909  0.2462
 1149TIP3    H124938   5.538   0.444  10.099 -0.8133 -0.7352  0.3579
 1149TIP3    H224939   5.563   0.338  10.205 -0.2926 -0.2133  0.7618
 1150TIP3   OH224940   4.107   5.931  10.893 -0.0562  0.6388  0.5180
 1150TIP3    H124941   4.168   5.978  10.837 -0.9271  0.8988 -0.2165
 1150TIP3    H224942   4.145   5.844  10.903 -1.5762 -0.5549 -3.2877
 1151TIP3   OH224943   0.337   3.343   0.667  0.4798 -0.2175  0.8189
 1151TIP3    H124944   0.300   3.261   0.634  1.1129 -0.4520  0.6940
 1151TIP3    H224945   0.271   3.376   0.728  0.1185 -0.6991  0.6918
 1152TIP3   OH224946   2.073   1.858  14.174 -0.2603 -0.6417 -0.1137
 1152TIP3    H124947   2.078   1.927  14.108 -1.4319 -1.0253 -0.6129
 1152TIP3    H224948   1.979   1.845  14.189 -0.0113  0.0824  2.3139
 1153TIP3   OH224949   6.958   3.838  11.791  0.1273 -0.4585  0.1484
 1153TIP3    H124950   7.002   3.862  11.709  0.2844 -0.3859  0.2559
 1153TIP3    H224951   7.023   3.787  11.839 -0.6732 -2.3337 -0.6895
 1154TIP3   OH224952   0.354   4.995  14.619 -0.2923  0.1173  0.3890
 1154TIP3    H124953   0.383   4.930  14.555 -0.2330 -0.0158  0.5500
 1154TIP3    H224954   0.314   4.943  14.689  0.0706  0.2276  0.6837
 1155TIP3   OH224955   6.172   3.743   9.741 -0.2616  0.3103  1.0834
 1155TIP3    H124956   6.189   3.658   9.782 -0.3473  0.0484  0.5825
 1155TIP3    H224957   6.257   3.786   9.739  0.1143 -0.4766 -0.2534
 1156TIP3   OH224958   4.848   6.851  11.134 -0.1092 -0.1169 -0.0466
 1156TIP3    H124959   4.939   6.879  11.149 -0.2352  1.0477 -1.3171
 1156TIP3    H224960   4.813   6.916  11.073 -1.0277 -1.9612 -1.5713
 1157TIP3   OH224961   3.348   4.591  13.200 -0.5427 -0.0739 -0.4541
 1157TIP3    H124962   3.347   4.686  13.184 -1.0268  0.2179  1.2200
 1157TIP3    H224963   3.266   4.574  13.245  0.5366 -0.9250  1.2288
 1158TIP3   OH224964   6.450   0.241  11.884  0.0536 -0.4960  0.4684
 1158TIP3    H124965   6.373   0.293  11.861  0.3164 -0.4530 -0.3529
 1158TIP3    H224966   6.524   0.298  11.862  0.3270 -0.7750  0.6658
 1159TIP3   OH224967   2.125   5.152  11.907  0.0370  0.7942  0.4552
 1159TIP3    H124968   2.204   5.099  11.918  0.1628  0.4715 -1.8899
 1159TIP3    H224969   2.053   5.092  11.923  0.2167  1.1595  2.9208
 1160TIP3   OH224970   2.568   2.386  12.809  0.4580  0.4856  0.0113
 1160TIP3    H124971   2.617   2.377  12.727  1.7629 -1.7834  0.9867
 1160TIP3    H224972   2.635   2.393  12.877 -0.5677 -0.2599  1.1308
 1161TIP3   OH224973   5.849   4.900  10.849 -0.1852 -0.6049 -0.2974
 1161TIP3    H124974   5.775   4.865  10.898 -0.6134  0.9648  0.2187
 1161TIP3    H224975   5.910   4.931  10.916 -0.1461  0.2707 -0.7227
 1162TIP3   OH224976   6.151   0.291  10.911  0.1783 -0.0630 -1.2041
 1162TIP3    H124977   6.077   0.237  10.882  0.6452 -1.2589 -0.1763
 1162TIP3    H224978   6.228   0.248  10.875  0.9247 -2.4279  2.8556
 1163TIP3   OH224979   5.073   0.597  11.247 -0.5541 -0.4839  0.3480
 1163TIP3    H124980   5.147   0.657  11.256 -1.2852  0.1804  2.1376
 1163TIP3    H224981   5.103   0.515  11.286 -1.5639  0.5230  3.3776
 1164TIP3   OH224982   4.697   2.868  12.807  0.8146 -0.5920 -0.1227
 1164TIP3    H124983   4.613   2.885  12.849  0.1339 -1.2877 -1.1846
 1164TIP3    H224984   4.727   2.954  12.777  0.5364 -0.3336  0.3274
 1165TIP3   OH224985   1.797   2.510  10.995  0.1039 -0.1003 -0.2748
 1165TIP3    H124986   1.802   2.534  10.902 -1.3516  1.0802 -0.0723
 1165TIP3    H224987   1.822   2.590  11.041 -2.2855  0.3050  0.3841
 1166TIP3   OH224988   4.399   3.557  10.567  0.1772  0.8227 -0.0300
 1166TIP3    H124989   4.395   3.603  10.483  0.4655  0.2096 -0.3832
 1166TIP3    H224990   4.332   3.599  10.620 -1.7755 -0.4505 -1.4110
 1167TIP3   OH224991   2.542   6.573  10.176 -0.0479  0.2208  0.3402
 1167TIP3    H124992   2.492   6.593  10.097  0.5617  2.1226  0.4133
 1167TIP3    H224993   2.597   6.498  10.151  2.6884  2.9488 -2.1884
 1168TIP3   OH224994   0.530   2.974  12.635  0.2887 -0.6394 -0.6915
 1168TIP3    H124995   0.459   2.933  12.685 -0.5875  0.1059 -1.3057
 1168TIP3    H224996   0.591   3.005  12.702 -1.1699  0.8751 -0.0044
 1169TIP3   OH224997   1.052   3.443  10.231 -0.1548 -0.0215  0.4434
 1169TIP3    H124998   1.125   3.442  10.170  0.7461  0.0462  1.4973
 1169TIP3    H224999   1.077   3.509  10.296 -1.2207  0.0997  0.7355
 1170TIP3   OH225000   1.538   5.119  10.930  0.0891 -0.0066  0.6721
 1170TIP3    H125001   1.610   5.148  10.874 -1.6881  1.0100 -1.1373
 1170TIP3    H225002   1.576   5.117  11.018  2.6794 -0.7793 -0.4045
 1171TIP3   OH225003   5.547   2.470  13.821 -0.6067  0.2491 -0.8573
 1171TIP3    H125004   5.580   2.408  13.885  0.0378  0.0772 -1.3472
 1171TIP3    H225005   5.582   2.555  13.850 -1.0737  0.3099 -0.4682
 1172TIP3   OH225006   0.967   1.121  10.070  0.2519 -0.0098 -0.4124
 1172TIP3    H125007   0.923   1.036  10.067  1.1343 -0.4681 -0.9016
 1172TIP3    H225008   1.020   1.123   9.990  0.7540  0.7129 -0.0686
 1173TIP3   OH225009   0.689   3.712  10.720  0.1336 -1.0264 -0.1707
 1173TIP3    H125010   0.625   3.732  10.652 -0.9063 -1.2745  0.7182
 1173TIP3    H225011   0.668   3.622  10.747  0.5176 -0.9176  0.5018
 1174TIP3   OH225012   2.253   1.952   9.740 -0.1109  0.0880  0.0090
 1174TIP3    H125013   2.186   1.965   9.674  0.2360  1.4857 -0.0904
 1174TIP3    H225014   2.209   1.970   9.823 -0.0496  0.3392 -0.0084
 1175TIP3   OH225015   2.764   5.918  12.479 -0.0066 -0.6163 -0.5166
 1175TIP3    H125016   2.766   5.955  12.568  0.3507 -1.5385 -0.1354
 1175TIP3    H225017   2.772   5.994  12.422  2.1161 -0.1871  0.2869
 1176TIP3   OH225018   2.123   2.570  10.617  0.2384  0.0215  0.1870
 1176TIP3    H125019   2.042   2.560  10.566 -1.1821  0.3071  2.3258
 1176TIP3    H225020   2.156   2.657  10.593 -0.8359  0.4731  0.3380
 1177TIP3   OH225021   6.505   2.800  11.167 -0.6181  0.0285 -0.8204
 1177TIP3    H125022   6.586   2.847  11.146 -0.2975 -0.3688 -0.4772
 1177TIP3    H225023   6.502   2.729  11.103  0.4589 -1.3002  0.5746
 1178TIP3   OH225024   2.542   4.861  10.747  0.4110 -0.1148 -0.5021
 1178TIP3    H125025   2.482   4.796  10.783  2.0444 -1.3563  0.0590
 1178TIP3    H225026   2.488   4.939  10.732 -1.4936 -1.4643 -0.8051
 1179TIP3   OH225027   5.905   4.682  12.746 -0.7098  0.2479  0.2095
 1179TIP3    H125028   5.984   4.719  12.705 -0.1302  0.2417  1.3079
 1179TIP3    H225029   5.936   4.646  12.829 -1.5279 -1.4098 -0.1772
 1180TIP3   OH225030   0.452   4.837  10.089  0.3649 -0.2105 -0.5604
 1180TIP3    H125031   0.417   4.761  10.135 -0.6276 -0.2436 -1.3531
 1180TIP3    H225032   0.389   4.907  10.106  0.6213  0.0939 -0.8587
 1181TIP3   OH225033   1.903   4.254  11.736  0.2275  0.4523  0.0968
 1181TIP3    H125034   1.830   4.265  11.675  0.1107  0.4057  0.2279
 1181TIP3    H225035   1.917   4.159  11.739  1.1533  0.5406 -0.9443
 1182TIP3   OH225036   1.891   5.655  10.660 -0.2025 -0.8723  0.0383
 1182TIP3    H125037   1.944   5.714  10.714 -1.4601  0.2011  0.1045
 1182TIP3    H225038   1.876   5.703  10.579 -0.4268 -1.4892 -0.2911
 1183TIP3   OH225039   0.894   6.589  14.812  0.3605  0.4463 -0.3640
 1183TIP3    H125040   0.932   6.654  14.753  2.3722 -0.1928  0.1836
 1183TIP3    H225041   0.959   6.519  14.817 -0.1225  0.0999  1.9479
 1184TIP3   OH225042   0.479   7.107  12.179  0.1567  0.1889 -0.4706
 1184TIP3    H125043   0.429   7.179  12.140 -0.6354  0.5570  1.1717
 1184TIP3    H225044   0.530   7.149  12.249  1.6986 -0.4181 -1.2058
 1185TIP3   OH225045   0.802   3.368  10.130  0.0861 -0.3525  0.3618
 1185TIP3    H125046   0.892   3.376  10.163  0.5715  0.6385 -1.1568
 1185TIP3    H225047   0.809   3.302  10.060 -0.0628  0.7925 -0.7570
 1186TIP3   OH225048   6.745   2.137   9.945  0.6336  0.0131  0.1772
 1186TIP3    H125049   6.707   2.148  10.032 -0.0371  0.5975 -0.1845
 1186TIP3    H225050   6.830   2.095   9.961  1.2578  1.6489  1.2539
 1187TIP3   OH225051   3.110   3.957  10.014  0.4286 -0.1455  0.5044
 1187TIP3    H125052   3.179   3.993   9.959 -0.2649  1.1221  0.4616
 1187TIP3    H225053   3.109   4.013  10.092 -0.9251  0.1919  0.2602
 1188TIP3   OH225054   0.947   2.467  10.055 -0.3933  0.1377  0.2843
 1188TIP3    H125055   1.026   2.499  10.100 -1.0271  2.1145  0.0322
 1188TIP3    H225056   0.905   2.546  10.021 -2.2793 -0.9353  0.0507
 1189TIP3   OH225057   1.094   3.796  10.315  0.2417  0.0788 -0.1766
 1189TIP3    H125058   1.004   3.764  10.321  0.3348 -0.3436 -0.8770
 1189TIP3    H225059   1.097   3.871  10.374 -1.1033  1.2885 -1.5884
 1190TIP3   OH225060   7.177   6.738  11.003 -0.3065 -0.2302 -0.0516
 1190TIP3    H125061   7.251   6.741  10.943 -1.7615 -0.1225 -1.8818
 1190TIP3    H225062   7.217   6.735  11.090  1.8415  2.0836 -0.8923
 1191TIP3   OH225063   0.604   4.189  10.327  0.6376  0.1822  0.2729
 1191TIP3    H125064   0.542   4.146  10.385  1.1573 -0.0584  0.6525
 1191TIP3    H225065   0.582   4.157  10.239  1.6122 -1.5722  0.6549
 1192TIP3   OH225066   3.829   4.027  11.576  0.3406  0.4964  0.0350
 1192TIP3    H125067   3.744   4.001  11.542 -0.1919  0.0333  1.6679
 1192TIP3    H225068   3.841   4.118  11.546 -1.4753  1.1286  1.1858
 1193TIP3   OH225069   2.947   2.522  11.089 -0.2951 -0.2009  0.4800
 1193TIP3    H125070   2.980   2.609  11.110 -2.1095  0.6996 -0.3732
 1193TIP3    H225071   2.978   2.467  11.162  2.6030  0.6922 -0.0051
 1194TIP3   OH225072   3.766   6.527  11.440 -0.3702  0.1666 -0.0851
 1194TIP3    H125073   3.831   6.598  11.439 -0.9771  0.7282  0.3446
 1194TIP3    H225074   3.682   6.571  11.449 -0.8281 -0.5608 -0.7356
 1195TIP3   OH225075   2.646   2.958  10.896  0.3501  0.1075  0.0913
 1195TIP3    H125076   2.598   2.922  10.821  1.4201  1.1489 -1.1037
 1195TIP3    H225077   2.653   2.884  10.957 -0.6239 -0.7130 -0.7696
 1196TIP3   OH225078   6.741   2.747  10.571 -0.0292  0.1316 -0.2289
 1196TIP3    H125079   6.811   2.797  10.615  0.4457 -2.7864  2.5580
 1196TIP3    H225080   6.767   2.746  10.479  2.4589  0.9745  0.4096
 1197TIP3   OH225081   5.548   1.513  11.243 -0.0232  0.2976 -0.2518
 1197TIP3    H125082   5.517   1.556  11.323 -1.6782  0.0599 -0.7392
 1197TIP3    H225083   5.492   1.436  11.234  2.8031 -1.9295  0.5172
 1198TIP3   OH225084   6.483   1.281  10.565 -0.4528 -0.2894  0.5084
 1198TIP3    H125085   6.572   1.246  10.570 -0.4164 -0.2430  0.1605
 1198TIP3    H225086   6.428   1.206  10.543 -0.2683  0.0293 -1.0386
 1199TIP3   OH225087   5.768   5.542  11.963  0.0524 -0.3407  0.3297
 1199TIP3    H125088   5.678   5.546  11.995 -0.2331 -0.4977 -0.4604
 1199TIP3    H225089   5.776   5.456  11.923  0.4152 -0.1474 -0.0170
 1200TIP3   OH225090   1.535   0.891  10.422  0.4568 -0.3441 -0.6922
 1200TIP3    H125091   1.619   0.923  10.455  0.8087 -2.8989  1.0719
 1200TIP3    H225092   1.487   0.969  10.396  2.3389  1.3569  0.8202
 1201TIP3   OH225093   5.487   3.737  10.398  0.6099 -0.1653 -0.1129
 1201TIP3    H125094   5.520   3.750  10.487 -0.1635 -1.0057  0.3059
 1201TIP3    H225095   5.535   3.661  10.366  0.9410  0.1826 -0.4442
 1202TIP3   OH225096   2.331   6.617  11.923  0.3069 -0.1872 -0.1203
 1202TIP3    H125097   2.287   6.661  11.850  1.3363 -3.2909 -2.7138
 1202TIP3    H225098   2.413   6.664  11.934 -1.0910  2.0891  1.0069
 1203TIP3   OH225099   5.717   6.870  12.257  0.3861 -0.1829  0.2820
 1203TIP3    H125100   5.748   6.808  12.191 -0.5212  0.7389 -1.0583
 1203TIP3    H225101   5.664   6.817  12.317 -2.8323 -0.3181 -2.4909
 1204TIP3   OH225102   1.900   1.174   9.649  0.6616  0.2702  0.5033
 1204TIP3    H125103   1.842   1.247   9.629 -0.0108  0.0065  1.4487
 1204TIP3    H225104   1.980   1.192   9.599  0.3544  1.4362  0.4198
 1205TIP3   OH225105   1.598   0.424  10.571  0.0927 -0.9774 -0.0230
 1205TIP3    H125106   1.553   0.445  10.652  2.2047  2.3538  0.3999
 1205TIP3    H225107   1.545   0.356  10.530 -2.4590 -0.7821  2.8346
 1206TIP3   OH225108   0.087   2.194  10.981  0.9861  0.5257 -0.3785
 1206TIP3    H125109   0.162   2.213  11.038  1.8363  0.8441 -1.5830
 1206TIP3    H225110   0.089   2.099  10.971  0.2272  0.3561  0.9202
 1207TIP3   OH225111   1.659   4.902  11.162 -0.6541 -0.0387  0.0133
 1207TIP3    H125112   1.679   4.991  11.191  0.0167  0.1073 -0.8744
 1207TIP3    H225113   1.655   4.851  11.243 -0.5878  0.7037  0.4937
 1208TIP3   OH225114   0.259   1.226  11.448  0.4416 -0.3109 -0.4296
 1208TIP3    H125115   0.165   1.242  11.453  0.4753  0.3403 -1.6579
 1208TIP3    H225116   0.266   1.131  11.438  0.0665 -0.7106  2.7132
 1209TIP3   OH225117   7.116   1.529  11.179  0.2233 -0.6134  0.1922
 1209TIP3    H125118   7.187   1.526  11.242  0.6850 -0.5154 -0.3183
 1209TIP3    H225119   7.159   1.523  11.093 -0.3723 -0.4912 -0.1228
 1210TIP3   OH225120   0.740   1.207  10.250 -0.3083  0.0595  0.3927
 1210TIP3    H125121   0.733   1.117  10.281 -3.3676  0.0468 -0.2126
 1210TIP3    H225122   0.824   1.210  10.203  0.1194 -2.2747  0.9751
 1211TIP3   OH225123   7.069   0.200  10.113 -0.2175 -0.1732 -1.4613
 1211TIP3    H125124   7.145   0.252  10.140 -0.6150 -1.0460  1.5106
 1211TIP3    H225125   7.094   0.165  10.027  2.8024 -0.4965 -0.5444
 1212TIP3   OH225126   6.697   6.322  12.708  1.0330 -0.3302 -0.2916
 1212TIP3    H125127   6.673   6.266  12.635  0.1568 -2.1904  1.3681
 1212TIP3    H225128   6.615   6.336  12.755  2.1289 -1.8911  2.1687
 1213TIP3   OH225129   0.211   5.469  10.751  0.0795 -0.4639 -0.0736
 1213TIP3    H125130   0.230   5.500  10.840  1.2564  2.9849 -1.4294
 1213TIP3    H225131   0.251   5.382  10.746 -0.5611 -0.9811  2.9419
 1214TIP3   OH225132   1.180   6.705  12.034 -0.3655  0.5518  0.4035
 1214TIP3    H125133   1.110   6.640  12.036 -0.1661  0.3368  0.4744
 1214TIP3    H225134   1.233   6.686  12.112  0.8424 -0.4746 -0.6503
 1215TIP3   OH225135   6.500   6.908  11.263  0.1036  0.0314 -0.1936
 1215TIP3    H125136   6.532   6.987  11.308 -0.4093  2.3649 -3.6648
 1215TIP3    H225137   6.578   6.870  11.224 -0.0894  0.7185 -1.2711
 1216TIP3   OH225138   5.814   3.945  11.225 -0.0590  0.2957 -0.1751
 1216TIP3    H125139   5.745   3.909  11.170  0.6436  1.1577 -1.6450
 1216TIP3    H225140   5.769   3.976  11.303 -1.4803  1.8020 -1.5742
 1217TIP3   OH225141   2.343   1.392  14.199  0.1200 -0.3240  0.5691
 1217TIP3    H125142   2.410   1.386  14.268  0.7555  2.3736  0.2287
 1217TIP3    H225143   2.268   1.434  14.241 -0.1153 -0.2303  0.0626
 1218TIP3   OH225144   3.298   2.794  13.074 -0.8747  0.3554 -0.0350
 1218TIP3    H125145   3.309   2.739  13.151  0.1640 -1.0479 -1.1430
 1218TIP3    H225146   3.324   2.881  13.103  2.3713 -0.7073  0.4780
 1219TIP3   OH225147   4.360   5.039  13.020 -0.3518 -0.2234  0.3369
 1219TIP3    H125148   4.267   5.034  13.001  0.2580 -1.4310 -2.5457
 1219TIP3    H225149   4.380   4.956  13.064 -0.8156  0.5229  2.0140
 1220TIP3   OH225150   5.180   3.381  14.915 -0.0474 -0.2503 -0.5412
 1220TIP3    H125151   5.262   3.428  14.899 -0.7568  1.2715  0.1428
 1220TIP3    H225152   5.139   3.375  14.829  0.9451 -1.3211 -0.9372
 1221TIP3   OH225153   0.722   0.108  13.741 -0.3817 -0.4204  0.2765
 1221TIP3    H125154   0.713   0.119  13.836  0.4879 -0.3802  0.3581
 1221TIP3    H225155   0.662   0.173  13.703 -0.5720 -0.2922  0.7953
 1222TIP3   OH225156   5.564   6.574  11.783  0.5790  0.3877  0.4270
 1222TIP3    H125157   5.650   6.616  11.773  0.0565  1.4591  0.3691
 1222TIP3    H225158   5.573   6.490  11.738  1.3366  0.8579 -0.3065
 1223TIP3   OH225159   3.149   4.452  11.227 -0.8203  0.3287  0.1403
 1223TIP3    H125160   3.169   4.362  11.254 -1.1923  0.7559  1.9416
 1223TIP3    H225161   3.059   4.448  11.194 -0.2496 -0.2689 -1.3737
 1224TIP3   OH225162   5.264   1.988  11.495  0.0417  0.0969  0.2045
 1224TIP3    H125163   5.333   1.960  11.435  1.1865  0.1992  1.4530
 1224TIP3    H225164   5.183   1.963  11.451  0.8949 -0.8982 -0.8467
 1225TIP3   OH225165   1.860   0.313  14.128 -0.3833 -0.2122  0.5033
 1225TIP3    H125166   1.886   0.257  14.054 -0.4584 -1.0073  1.0753
 1225TIP3    H225167   1.830   0.394  14.087  3.1683  0.8581 -0.2311
 1226TIP3   OH225168   0.878   4.997  14.919  0.0860 -0.5204 -0.7927
 1226TIP3    H125169   0.964   4.957  14.931  0.0628 -0.2650  0.3148
 1226TIP3    H225170   0.858   5.035  15.004 -1.2495 -0.8234 -0.9636
 1227TIP3   OH225171   6.952   1.553  13.993  0.8064 -0.1877 -0.0919
 1227TIP3    H125172   6.983   1.533  13.905  0.6466 -2.5893  0.3879
 1227TIP3    H225173   7.001   1.495  14.050  0.1050  0.5796  1.3074
 1228TIP3   OH225174   5.113   6.019  10.377  0.0570 -0.4241  0.1065
 1228TIP3    H125175   5.063   6.003  10.457 -0.0119 -1.9770 -0.2386
 1228TIP3    H225176   5.177   5.948  10.373  0.3057 -0.1496 -1.0144
 1229TIP3   OH225177   0.611   2.828   9.581 -0.0824 -0.2171  0.1891
 1229TIP3    H125178   0.649   2.916   9.580 -0.9416  0.1540 -1.7268
 1229TIP3    H225179   0.660   2.782   9.649  1.5530  1.2288  0.0318
 1230TIP3   OH225180   4.679   3.004  10.368 -0.1847  0.2956  0.1678
 1230TIP3    H125181   4.606   2.947  10.390 -0.7401  1.3829  1.2332
 1230TIP3    H225182   4.698   3.052  10.449  1.0182  0.7809 -0.3777
 1231TIP3   OH225183   6.736   6.685  10.899 -0.2820  0.2504 -0.5985
 1231TIP3    H125184   6.685   6.638  10.833  0.6842 -0.6366 -0.7168
 1231TIP3    H225185   6.799   6.737  10.848 -1.0655  1.3548 -0.4533
 1232TIP3   OH225186   3.663   5.193  13.419 -0.0063 -0.2738 -0.3104
 1232TIP3    H125187   3.749   5.235  13.407  0.0656  0.5752  2.8623
 1232TIP3    H225188   3.616   5.213  13.338  1.5562  2.2843 -0.6523
 1233TIP3   OH225189   4.841   2.082  11.414 -0.3435 -0.6209  0.2680
 1233TIP3    H125190   4.775   2.148  11.431 -0.5382 -0.4533 -1.0846
 1233TIP3    H225191   4.924   2.129  11.420 -0.5636  0.3997 -3.2519
 1234TIP3   OH225192   2.151   3.603  10.918  0.2452  0.0851 -0.3646
 1234TIP3    H125193   2.080   3.662  10.893 -0.2248 -0.2112  0.2595
 1234TIP3    H225194   2.193   3.645  10.993  1.1955  0.6155 -1.1844
 1235TIP3   OH225195   4.440   3.701  10.317  0.4556 -0.5606  0.3955
 1235TIP3    H125196   4.494   3.730  10.243 -0.7590  1.6402  0.3527
 1235TIP3    H225197   4.354   3.685  10.279 -0.2138  0.7125  1.3542
 1236TIP3   OH225198   4.342   2.521  12.920  0.0238 -0.0500 -0.0234
 1236TIP3    H125199   4.312   2.434  12.946 -1.2688  0.4778  0.3217
 1236TIP3    H225200   4.380   2.558  12.999 -1.7389  0.6516  0.5142
 1237TIP3   OH225201   4.271   2.923  12.672  0.4938 -0.6069 -0.0746
 1237TIP3    H125202   4.340   2.857  12.674 -0.5217 -1.7674 -2.0040
 1237TIP3    H225203   4.194   2.878  12.705 -0.2748 -0.4931 -1.6799
 1238TIP3   OH225204   0.524   2.197   9.335 -0.2474  0.4734  0.0395
 1238TIP3    H125205   0.440   2.242   9.334 -0.7554 -0.4624 -0.4275
 1238TIP3    H225206   0.585   2.258   9.294 -0.7985  0.9689 -0.0481
 1239TIP3   OH225207   3.720   2.329  13.251 -0.3629  0.0436 -0.6134
 1239TIP3    H125208   3.716   2.309  13.157 -0.1949  1.6586 -0.9795
 1239TIP3    H225209   3.734   2.423  13.254 -0.8296  0.0632  1.0487
 1240TIP3   OH225210   5.944   2.089  13.652  0.2304 -0.2104 -0.0064
 1240TIP3    H125211   5.960   2.017  13.591 -0.9032 -1.0842  0.7017
 1240TIP3    H225212   5.866   2.133  13.617 -0.9912 -1.2872  1.2933
 1241TIP3   OH225213   5.414   5.583  10.240  0.6617  0.8091 -0.2943
 1241TIP3    H125214   5.495   5.584  10.188 -0.0330  0.6288 -1.3911
 1241TIP3    H225215   5.358   5.649  10.199  0.0507  0.5728  0.1484
 1242TIP3   OH225216   6.234   2.936  12.433 -0.7847 -0.9078  0.2301
 1242TIP3    H125217   6.276   2.949  12.348 -3.0316 -1.6031 -1.0389
 1242TIP3    H225218   6.193   3.021  12.452  0.1030 -0.6128  0.8543
 1243TIP3   OH225219   6.566   2.347  10.301 -0.7500  0.4871  0.4283
 1243TIP3    H125220   6.515   2.275  10.338 -1.4123  0.5800 -0.2824
 1243TIP3    H225221   6.591   2.400  10.377 -0.4507 -0.3626  0.9299
 1244TIP3   OH225222   1.260   3.106   9.396 -0.2415 -0.4939 -0.3916
 1244TIP3    H125223   1.307   3.046   9.453  0.1557  0.1200 -0.0670
 1244TIP3    H225224   1.324   3.134   9.331 -0.0161  0.6556  0.2911
 1245TIP3   OH225225   1.855   1.611  10.553  0.5422  0.2010  0.6600
 1245TIP3    H125226   1.889   1.635  10.639  0.4287  1.8855  0.2534
 1245TIP3    H225227   1.913   1.655  10.491 -0.4934  0.5122 -0.0929
 1246TIP3   OH225228   2.958   3.642  10.195 -0.1602 -0.6004  0.0146
 1246TIP3    H125229   3.039   3.609  10.235 -0.3545 -0.0823  0.8586
 1246TIP3    H225230   2.989   3.700  10.125  0.2060 -0.5698  0.1985
 1247TIP3   OH225231   3.047   3.645  11.776  0.2655  0.2805  0.3103
 1247TIP3    H125232   3.097   3.592  11.838  0.5161  0.7326  0.4948
 1247TIP3    H225233   3.107   3.715  11.750 -0.2631  0.8227  0.5285
 1248TIP3   OH225234   2.260   2.036  10.061 -0.5659 -0.0875  0.3717
 1248TIP3    H125235   2.187   2.093  10.038 -0.6092 -0.4683 -0.4524
 1248TIP3    H225236   2.219   1.962  10.106 -0.9021 -1.1658 -1.6407
 1249TIP3   OH225237   1.180   1.380   9.860 -0.9536 -0.5550 -0.2333
 1249TIP3    H125238   1.181   1.285   9.872  0.4372 -0.5144  0.0022
 1249TIP3    H225239   1.268   1.408   9.884 -1.4404  0.8291 -0.0497
 1250TIP3   OH225240   0.571   0.908  11.244  0.4019 -0.7119  0.3406
 1250TIP3    H125241   0.485   0.940  11.216  0.5550  0.7970  1.4945
 1250TIP3    H225242   0.552   0.825  11.288 -0.0836 -1.9611 -2.1216
 1251TIP3   OH225243   6.859   4.606  14.415 -0.4459 -0.1881 -0.1516
 1251TIP3    H125244   6.924   4.587  14.484  0.6489  0.6373 -0.9384
 1251TIP3    H225245   6.902   4.671  14.360 -2.5198  1.4367  0.1106
 1252TIP3   OH225246   2.809   0.379  12.228 -0.0358  0.7841 -0.4746
 1252TIP3    H125247   2.832   0.468  12.256  0.2316  0.7323 -0.5335
 1252TIP3    H225248   2.770   0.339  12.305 -0.5386  1.0902 -0.5668
 1253TIP3   OH225249   1.775   2.023  13.446 -0.2786  0.6072 -0.1952
 1253TIP3    H125250   1.796   2.116  13.456  3.3594 -0.1348 -0.5132
 1253TIP3    H225251   1.823   1.996  13.368 -0.8228 -1.6964  0.2508
 1254TIP3   OH225252   0.253   2.223  10.587 -0.1197 -0.5682 -0.6228
 1254TIP3    H125253   0.161   2.200  10.597 -0.6922  1.6866 -0.4876
 1254TIP3    H225254   0.257   2.316  10.610  1.5857  0.2776 -4.0366
 1255TIP3   OH225255   6.685   3.026  11.558 -0.2138  0.4038  0.1182
 1255TIP3    H125256   6.676   3.096  11.623 -0.2493  1.8390 -1.4084
 1255TIP3    H225257   6.713   3.071  11.478 -1.6255 -1.1391 -1.2755
 1256TIP3   OH225258   4.814   7.179  11.643  0.0880  0.2936 -0.3400
 1256TIP3    H125259   4.789   7.196  11.734 -0.3319 -0.3477 -0.3296
 1256TIP3    H225260   4.733   7.187  11.593  0.3777  0.9693 -0.7068
 1257TIP3   OH225261   5.393   6.322  10.157 -0.2687 -0.0638 -0.2097
 1257TIP3    H125262   5.400   6.280  10.071  1.9780  1.1165 -0.6482
 1257TIP3    H225263   5.378   6.250  10.218 -0.3650 -1.0829 -1.4171
 1258TIP3   OH225264   5.981   7.084  14.706 -0.5528 -0.2742 -0.4098
 1258TIP3    H125265   6.045   7.026  14.748  1.1664  0.6110 -1.7787
 1258TIP3    H225266   6.010   7.091  14.616 -1.6193  1.5247 -0.6254
 1259TIP3   OH225267   7.138   6.577  10.691  0.3628 -0.2319  0.1420
 1259TIP3    H125268   7.172   6.654  10.736  1.3995 -0.2746 -0.5480
 1259TIP3    H225269   7.174   6.503  10.740  1.2091 -0.2769 -0.5314
 1260TIP3   OH225270   0.238   0.053  11.979 -0.3728 -0.4740  0.5492
 1260TIP3    H125271   0.196  -0.018  12.027 -0.5935 -0.5035  0.3105
 1260TIP3    H225272   0.236   0.127  12.040 -1.0595 -0.3834  0.4171
 1261TIP3   OH225273   1.125   4.576   9.952  0.1458  0.3931  0.4344
 1261TIP3    H125274   1.201   4.575   9.894  0.1932  0.6791  0.4929
 1261TIP3    H225275   1.069   4.646   9.918 -1.0945 -1.1962 -0.8935
 1262TIP3   OH225276   1.976   4.684  10.706 -0.3674  0.0967  0.2844
 1262TIP3    H125277   1.995   4.654  10.795  0.8868 -1.9249 -0.6195
 1262TIP3    H225278   1.908   4.625  10.675 -0.8397  0.8270 -0.0723
 1263TIP3   OH225279   6.265   2.711  10.141  0.2719 -0.0721 -0.4319
 1263TIP3    H125280   6.289   2.655  10.215  1.4288  0.1356 -0.6330
 1263TIP3    H225281   6.310   2.672  10.066  0.3542  0.6089 -0.7396
 1264TIP3   OH225282   0.517   0.643   9.496  0.4497 -0.4337  0.0823
 1264TIP3    H125283   0.432   0.601   9.501 -0.1366  0.6992 -0.2327
 1264TIP3    H225284   0.511   0.718   9.555  1.4182 -0.6592  0.4846
 1265TIP3   OH225285   0.727   2.227   9.512  0.0485 -0.5794 -0.0629
 1265TIP3    H125286   0.648   2.240   9.458  0.7991  0.3721 -0.9488
 1265TIP3    H225287   0.693   2.212   9.600 -1.1351 -0.2903 -0.4539
 1266TIP3   OH225288   1.229   2.093  11.040  0.8385  0.1099  0.1675
 1266TIP3    H125289   1.284   2.020  11.070 -0.9910 -2.7117 -3.0342
 1266TIP3    H225290   1.144   2.078  11.081  0.9502  1.5447  0.9694
 1267TIP3   OH225291   6.994   2.688  13.923  0.6231 -0.1585  0.0547
 1267TIP3    H125292   6.922   2.732  13.969  1.4765 -0.7565  2.0240
 1267TIP3    H225293   6.953   2.646  13.848 -0.9764  0.0094  0.8150
 1268TIP3   OH225294   5.162   3.547  12.237  0.8047 -0.2015 -0.0369
 1268TIP3    H125295   5.205   3.471  12.198 -1.0714 -1.1716 -0.2875
 1268TIP3    H225296   5.189   3.621  12.182  2.8638 -0.6191  0.3688
 1269TIP3   OH225297   6.428   2.133   9.805  0.2609  0.1118  0.3277
 1269TIP3    H125298   6.379   2.083   9.739  0.6850 -0.5554  0.5159
 1269TIP3    H225299   6.364   2.196   9.839 -0.3901 -0.5496  0.3615
 1270TIP3   OH225300   6.382   2.955  11.599  0.3892  0.3020 -0.5690
 1270TIP3    H125301   6.436   3.029  11.573  2.1233 -0.7665 -0.1233
 1270TIP3    H225302   6.420   2.880  11.552 -1.4905 -0.2730 -1.2274
 1271TIP3   OH225303   2.083   2.882  10.269 -0.7667 -0.7837 -0.1669
 1271TIP3    H125304   2.005   2.848  10.226 -0.9427 -0.4748 -0.0960
 1271TIP3    H225305   2.095   2.969  10.231 -2.3502  0.5217  2.1715
 1272TIP3   OH225306   2.918   6.422  13.078  0.3140  0.1251  0.4383
 1272TIP3    H125307   2.847   6.403  13.140  0.7139  3.0796  1.8926
 1272TIP3    H225308   2.995   6.435  13.134  1.0822  1.0507 -0.8281
 1273TIP3   OH225309   4.497   5.801  11.260 -0.0123 -0.2817 -0.6684
 1273TIP3    H125310   4.437   5.749  11.208  0.6469  0.4289 -2.1721
 1273TIP3    H225311   4.519   5.876  11.205  1.6187 -0.1121  0.1570
 1274TIP3   OH225312   0.251   2.401  12.748 -0.2567 -0.6688  0.0943
 1274TIP3    H125313   0.194   2.348  12.693 -1.1480  1.2884 -0.9282
 1274TIP3    H225314   0.318   2.434  12.688 -0.0862 -0.1130  0.5874
 1275TIP3   OH225315   0.984   2.686  13.611  0.0635  0.3358  0.6822
 1275TIP3    H125316   0.918   2.651  13.671 -0.4758  1.3800  0.7120
 1275TIP3    H225317   1.055   2.623  13.614 -0.3367 -0.0768  1.7486
 1276TIP3   OH225318   3.972   1.319  12.110  0.5914 -0.1372 -0.3957
 1276TIP3    H125319   3.955   1.324  12.016  0.8439 -1.2225 -0.5058
 1276TIP3    H225320   3.992   1.409  12.135  0.5701  0.1539 -1.3870
 1277TIP3   OH225321   6.135   5.558  13.702 -0.3169  0.1220  0.1725
 1277TIP3    H125322   6.066   5.589  13.761  0.4635  2.4718 -0.0846
 1277TIP3    H225323   6.214   5.599  13.734  1.7335 -5.2797  2.6136
 1278TIP3   OH225324   0.576   0.634  10.498  0.2697 -0.1302  0.3043
 1278TIP3    H125325   0.653   0.684  10.473  0.3190 -0.2053  0.3050
 1278TIP3    H225326   0.506   0.665  10.440  0.4124 -0.3892 -0.0087
 1279TIP3   OH225327   3.800   0.176  10.103  0.1676 -0.0878 -0.3958
 1279TIP3    H125328   3.779   0.165  10.196  0.2579 -0.5806 -0.4300
 1279TIP3    H225329   3.717   0.163  10.058  0.3855 -1.3001 -0.4788
 1280TIP3   OH225330   2.724   0.869  10.380  0.3953  0.6050 -0.2739
 1280TIP3    H125331   2.656   0.855  10.314 -0.7992  1.7485  0.6865
 1280TIP3    H225332   2.737   0.783  10.419 -0.1335  0.2686 -0.8147
 1281TIP3   OH225333   6.796   4.314  12.286  0.3488 -0.4259  0.5890
 1281TIP3    H125334   6.751   4.269  12.358  0.8908  0.9692  1.8320
 1281TIP3    H225335   6.871   4.356  12.328  0.4450  0.7436 -0.7217
 1282TIP3   OH225336   0.611   2.444   9.285  0.3349  0.3974  0.1293
 1282TIP3    H125337   0.524   2.459   9.322  0.3346  0.4782  0.0955
 1282TIP3    H225338   0.649   2.531   9.275  0.2405  0.3909 -0.2870
 1283TIP3   OH225339   3.492   4.879  13.780 -0.1273 -0.0554 -0.3003
 1283TIP3    H125340   3.480   4.911  13.870  2.6999  1.0261 -0.2430
 1283TIP3    H225341   3.442   4.940  13.726 -2.5461 -1.2070  0.5701
 1284TIP3   OH225342   3.188   4.364  10.936 -0.0144 -0.1413  0.1388
 1284TIP3    H125343   3.132   4.286  10.930  0.0325 -0.2094  0.6235
 1284TIP3    H225344   3.161   4.407  11.016  0.2281  0.1405  0.0692
 1285TIP3   OH225345   1.061   1.441  10.626 -0.0056 -0.3437 -0.7983
 1285TIP3    H125346   1.101   1.520  10.589 -0.6688 -0.2886 -1.4067
 1285TIP3    H225347   1.076   1.373  10.559 -1.1400 -0.2644 -1.1401
 1286TIP3   OH225348   2.506   4.454  10.963  0.1915 -0.2188  0.3321
 1286TIP3    H125349   2.532   4.454  11.055 -1.0060  1.8719  0.7170
 1286TIP3    H225350   2.582   4.421  10.916  0.8442 -1.2500  2.0715
 1287TIP3   OH225351   1.529   2.218  10.863  0.4037  0.4886  0.5849
 1287TIP3    H125352   1.461   2.272  10.904 -0.0498 -0.6632  1.3613
 1287TIP3    H225353   1.521   2.237  10.769 -0.1689  1.2892  0.7860
 1288TIP3   OH225354   3.402   4.567  10.158 -0.1508 -0.2483  0.4413
 1288TIP3    H125355   3.455   4.540  10.083 -0.8214  1.4122 -0.6356
 1288TIP3    H225356   3.312   4.549  10.131 -0.4668  1.3064  0.4439
 1289TIP3   OH225357   0.758   7.145  10.408  0.0627  0.1600  0.1887
 1289TIP3    H125358   0.689   7.177  10.350 -0.4411  0.2017  0.7961
 1289TIP3    H225359   0.839   7.177  10.370 -0.1214 -1.2996 -1.4593
 1290TIP3   OH225360   4.227   1.362   0.468  0.0756 -0.1430  0.3957
 1290TIP3    H125361   4.192   1.344   0.555  0.6967 -0.7624  0.5155
 1290TIP3    H225362   4.251   1.276   0.433  0.8649  0.2169  0.0531
 1291TIP3   OH225363   1.867   3.533  11.913  0.2895 -0.0470 -0.1663
 1291TIP3    H125364   1.961   3.546  11.925  0.4150 -1.5517  0.5957
 1291TIP3    H225365   1.860   3.467  11.844 -0.1819 -0.3609  0.1726
 1292TIP3   OH225366   0.702   1.450  12.842 -0.3619 -0.2848 -0.2907
 1292TIP3    H125367   0.776   1.416  12.792  0.0845 -1.7471  1.3073
 1292TIP3    H225368   0.699   1.395  12.920 -0.9372  2.0288  1.3806
 1293TIP3   OH225369   2.293   4.879  12.430 -0.1041 -0.0255  1.0881
 1293TIP3    H125370   2.291   4.826  12.509  0.3816  0.7730  1.6473
 1293TIP3    H225371   2.231   4.837  12.371  0.1128 -1.0708  1.6030
 1294TIP3   OH225372   5.724   5.147  13.183 -0.2132  0.5218 -0.1487
 1294TIP3    H125373   5.632   5.130  13.201  0.5150 -2.7403  0.8053
 1294TIP3    H225374   5.723   5.212  13.112 -3.2600 -1.3480 -1.9216
 1295TIP3   OH225375   6.466   2.639   1.191  0.2734  0.0961  0.1234
 1295TIP3    H125376   6.450   2.598   1.277  0.4490 -0.6332 -0.1897
 1295TIP3    H225377   6.431   2.576   1.128  1.8652 -0.2493 -0.4373
 1296TIP3   OH225378   1.246   2.382  10.436 -0.0326 -0.8479  0.8835
 1296TIP3    H125379   1.224   2.379  10.529  0.5514  0.7942  1.0992
 1296TIP3    H225380   1.333   2.423  10.433 -0.7886  0.7490 -0.4648
 1297TIP3   OH225381   6.059   6.900  12.293 -0.0500 -0.0982  0.2177
 1297TIP3    H125382   5.983   6.886  12.237  0.5122 -1.9242 -0.1192
 1297TIP3    H225383   6.043   6.845  12.370  1.4313 -1.3348 -0.3451
 1298TIP3   OH225384   6.050   3.109  13.056 -0.0556  0.6600 -0.1482
 1298TIP3    H125385   6.114   3.085  13.123  0.1457 -1.0019 -0.9096
 1298TIP3    H225386   6.031   3.202  13.072  0.5254  0.4604  1.7453
 1299TIP3   OH225387   1.568   5.062  11.609 -0.6097  0.1338  0.1601
 1299TIP3    H125388   1.493   5.033  11.661 -0.5103 -1.4856 -0.5588
 1299TIP3    H225389   1.538   5.057  11.518 -0.2461  1.3608 -0.0427
 1300TIP3   OH225390   6.394   0.376  11.333  0.3863 -0.4774  0.1030
 1300TIP3    H125391   6.454   0.377  11.258  0.9144  0.6084  0.5311
 1300TIP3    H225392   6.307   0.365  11.294  0.5995  0.6789 -0.7116
 1301TIP3   OH225393   6.987   5.837  12.038 -0.2599  0.2485 -0.3210
 1301TIP3    H125394   7.057   5.776  12.063  0.7313  1.0996 -0.9686
 1301TIP3    H225395   6.947   5.798  11.961 -1.5946 -1.0655  1.0055
 1302TIP3   OH225396   0.384   5.041  11.389 -0.4066  0.1993  0.2865
 1302TIP3    H125397   0.339   5.126  11.385 -0.8115  0.1162  2.5686
 1302TIP3    H225398   0.363   5.007  11.476  1.9800 -1.0022  0.4295
 1303TIP3   OH225399   2.418   2.441  11.229  0.5663  0.4195 -0.4933
 1303TIP3    H125400   2.437   2.367  11.287 -0.2085  0.4011 -0.2517
 1303TIP3    H225401   2.503   2.481  11.213  0.7281  0.7998  1.1737
 1304TIP3   OH225402   1.358   2.544   9.646 -0.1323 -0.6498 -0.0191
 1304TIP3    H125403   1.432   2.504   9.690 -0.6459 -2.3257 -0.6456
 1304TIP3    H225404   1.339   2.623   9.697  0.2612 -1.7351  1.8270
 1305TIP3   OH225405   1.084   6.393  13.004 -0.0351 -0.4541  0.1737
 1305TIP3    H125406   1.124   6.387  12.918  0.1654  1.7500  0.0673
 1305TIP3    H225407   1.148   6.440  13.057 -1.2028  0.4349  0.8263
 1306TIP3   OH225408   6.348   0.045  15.294  0.8938  0.2072 -0.2053
 1306TIP3    H125409   6.387   0.129  15.320  0.7670  0.2912 -0.2851
 1306TIP3    H225410   6.392  -0.020  15.348 -0.4364  0.5361  1.3205
 1307TIP3   OH225411   5.016   1.453  10.243 -0.0600  0.2906 -0.4941
 1307TIP3    H125412   5.102   1.422  10.212 -1.1763 -1.5121 -1.8504
 1307TIP3    H225413   4.998   1.400  10.320 -0.3090  0.1624 -0.6438
 1308TIP3   OH225414   0.048   3.200  13.850  0.5733 -0.0092  0.4611
 1308TIP3    H125415   0.144   3.196  13.855  0.5626 -0.6155  0.2870
 1308TIP3    H225416   0.020   3.110  13.865  0.0398  0.1319  0.3162
 1309TIP3   OH225417   1.119   5.894  11.955  0.3845  0.2826 -0.0597
 1309TIP3    H125418   1.086   5.912  12.043 -1.5827  0.3434 -0.7816
 1309TIP3    H225419   1.122   5.798  11.950 -0.2235  0.2660 -0.1708
 1310TIP3   OH225420   6.750   3.554   9.738 -0.4331  0.3972 -0.2590
 1310TIP3    H125421   6.742   3.649   9.726 -1.8296  0.1481 -1.4150
 1310TIP3    H225422   6.843   3.535   9.726 -0.2520  1.5279 -0.6586
 1311TIP3   OH225423   6.484   6.773   1.086 -0.2508  0.2582  0.4755
 1311TIP3    H125424   6.417   6.706   1.095 -1.1893  0.3217 -4.3648
 1311TIP3    H225425   6.437   6.848   1.048  2.2188  0.8378 -1.5572
 1312TIP3   OH225426   3.310   4.874  12.784  0.0460  0.1415  0.3725
 1312TIP3    H125427   3.336   4.833  12.702 -0.1299  1.2037 -0.2283
 1312TIP3    H225428   3.227   4.833  12.806 -0.0646  0.0764 -0.1530
 1313TIP3   OH225429   2.992   3.310   9.776 -0.2900 -0.5625 -0.1550
 1313TIP3    H125430   3.000   3.225   9.733  0.1314 -1.7135  2.0736
 1313TIP3    H225431   3.073   3.356   9.755 -1.3013  0.0405 -2.8671
 1314TIP3   OH225432   7.127   2.274  10.564 -0.1863 -0.1238 -0.3470
 1314TIP3    H125433   7.098   2.365  10.570 -2.6442 -0.7936 -1.2913
 1314TIP3    H225434   7.091   2.233  10.643  1.4271 -0.1657  0.3822
 1315TIP3   OH225435   6.344   1.061  10.451 -0.3044  0.0259  0.4605
 1315TIP3    H125436   6.413   1.002  10.424  0.2137  1.3121 -1.1232
 1315TIP3    H225437   6.301   1.087  10.370 -0.2961  2.0565  1.0608
 1316TIP3   OH225438   0.974   2.534  10.901  0.0735  0.6077 -0.0515
 1316TIP3    H125439   1.051   2.540  10.957 -1.2859  1.4547  1.8021
 1316TIP3    H225440   0.937   2.623  10.902 -1.6823 -0.1046  0.2333
 1317TIP3   OH225441   5.144   3.349   9.971 -0.2965  0.5778  0.0403
 1317TIP3    H125442   5.176   3.349   9.881 -0.6559 -1.3654 -0.1064
 1317TIP3    H225443   5.191   3.277  10.013  0.4262  1.9344  1.6223
 1318TIP3   OH225444   4.636   3.734  11.114  0.1382 -0.7432 -0.3273
 1318TIP3    H125445   4.587   3.685  11.049  1.0621  2.1765 -3.3897
 1318TIP3    H225446   4.728   3.726  11.086  0.7449 -0.8512  1.6044
 1319TIP3   OH225447   7.089   1.970  14.702  0.5796  0.2793 -0.1327
 1319TIP3    H125448   7.052   1.957  14.615  1.0345 -0.3626 -0.2256
 1319TIP3    H225449   7.091   1.883  14.741 -0.1355  0.6451  0.7280
 1320TIP3   OH225450   1.287   0.436   9.357 -0.3266  0.0718  0.0861
 1320TIP3    H125451   1.223   0.506   9.371 -0.0823  0.8539 -2.4930
 1320TIP3    H225452   1.369   0.471   9.391 -0.3690  0.7255 -0.4904
 1321TIP3   OH225453   0.317   6.151  10.377  0.0200  0.0593  0.1974
 1321TIP3    H125454   0.307   6.239  10.340  1.2946 -0.7348 -2.1754
 1321TIP3    H225455   0.390   6.159  10.438 -1.4295  1.1609  1.8482
 1322TIP3   OH225456   2.334   1.179   9.628  0.5049  0.0005 -0.0658
 1322TIP3    H125457   2.424   1.160   9.601 -0.1315 -0.3379 -1.9890
 1322TIP3    H225458   2.294   1.092   9.639  0.4821  0.1461  1.0801
 1323TIP3   OH225459   0.281   0.650  13.670 -0.3788  0.2245  0.0635
 1323TIP3    H125460   0.219   0.709  13.714  0.0588  0.5894  0.1848
 1323TIP3    H225461   0.360   0.702  13.658 -0.5462  0.1605 -1.3012
 1324TIP3   OH225462   0.161   1.556   9.684  0.5430 -0.0191 -0.6073
 1324TIP3    H125463   0.241   1.605   9.706 -0.2331  1.8625 -1.8798
 1324TIP3    H225464   0.182   1.466   9.708  1.8385  0.9706  2.2563
 1325TIP3   OH225465   6.974   3.081  11.399 -0.3685  0.1462  0.2106
 1325TIP3    H125466   7.058   3.121  11.374 -0.4365 -0.1191 -0.4526
 1325TIP3    H225467   6.935   3.054  11.316  0.2259 -2.3887  0.7229
 1326TIP3   OH225468   4.577   1.488  12.744 -0.4087  0.4320  0.2687
 1326TIP3    H125469   4.499   1.436  12.726 -0.5022  0.8684 -0.6260
 1326TIP3    H225470   4.649   1.439  12.703 -0.5836  1.2974 -1.1062
 1327TIP3   OH225471   0.667   2.541  11.553  0.2346 -0.3473  0.0987
 1327TIP3    H125472   0.692   2.484  11.626  1.0410 -1.4165 -0.9801
 1327TIP3    H225473   0.751   2.572  11.518 -0.1998  1.8398  0.9055
 1328TIP3   OH225474   0.323   4.608   9.953  0.1915 -0.1720  0.0709
 1328TIP3    H125475   0.363   4.522   9.962  2.5509  0.9306  0.3975
 1328TIP3    H225476   0.354   4.641   9.869  0.6116  1.0311  0.6906
 1329TIP3   OH225477   0.894   0.540  10.315 -0.7804  0.2121 -0.4574
 1329TIP3    H125478   0.954   0.516  10.245 -3.0499 -0.9889 -2.0428
 1329TIP3    H225479   0.917   0.482  10.387  0.9938  0.8629 -0.4744
 1330TIP3   OH225480   3.522   2.621  11.012  0.5493 -0.6624 -0.1709
 1330TIP3    H125481   3.553   2.583  10.929 -1.4214 -1.1764 -0.7010
 1330TIP3    H225482   3.464   2.692  10.986  1.0185  0.0833  0.7971
 1331TIP3   OH225483   6.592   6.726  11.537 -0.4571  0.5024 -0.2414
 1331TIP3    H125484   6.572   6.818  11.518  1.2798  0.7890 -0.7117
 1331TIP3    H225485   6.674   6.709  11.492  0.5397 -0.5850  1.9212
 1332TIP3   OH225486   3.944   2.159  13.523 -0.4909 -0.2064 -0.3685
 1332TIP3    H125487   3.931   2.067  13.500 -0.5146  0.2371 -2.2295
 1332TIP3    H225488   4.004   2.192  13.456  0.0069  0.9836  0.6496
 1333TIP3   OH225489   0.228   4.671  10.189  0.1921  0.2431 -0.4080
 1333TIP3    H125490   0.251   4.590  10.234 -0.0418 -0.0125 -0.7433
 1333TIP3    H225491   0.216   4.645  10.097  0.3317  0.6979 -0.5564
 1334TIP3   OH225492   1.375   6.430  11.165  0.5496 -0.3597 -0.4973
 1334TIP3    H125493   1.337   6.440  11.077 -0.1709  0.3769 -0.1102
 1334TIP3    H225494   1.351   6.342  11.191 -0.0299 -0.2558 -0.6705
 1335TIP3   OH225495   2.285   7.123  10.373  0.7609  0.3206 -0.3047
 1335TIP3    H125496   2.190   7.133  10.371  0.6325 -0.6925  0.1912
 1335TIP3    H225497   2.302   7.066  10.449  1.7034 -0.0388 -0.7671
 1336TIP3   OH225498   5.394   3.637  11.252  0.0873 -0.0530  0.0684
 1336TIP3    H125499   5.463   3.620  11.316  0.9343 -0.9587 -1.0636
 1336TIP3    H225500   5.396   3.561  11.194  0.5406  1.5484 -2.0764
 1337TIP3   OH225501   2.190   2.737  11.867 -0.4753  0.2603  0.0611
 1337TIP3    H125502   2.235   2.718  11.785  1.8747  2.3306  0.7746
 1337TIP3    H225503   2.100   2.756  11.842 -0.4762 -1.9090 -1.6791
 1338TIP3   OH225504   4.220   2.982  10.702  0.2908 -0.1221 -0.3473
 1338TIP3    H125505   4.173   2.941  10.629 -0.2627  1.6789 -1.0183
 1338TIP3    H225506   4.181   3.069  10.710  1.5704  0.3479  0.9550
 1339TIP3   OH225507   4.135   4.762  12.680 -0.0370 -0.5281 -0.4306
 1339TIP3    H125508   4.133   4.839  12.624 -1.3716  0.5117  1.0333
 1339TIP3    H225509   4.189   4.787  12.755 -2.2191 -0.2555  1.0962
 1340TIP3   OH225510   5.406   4.689  12.019 -0.5861 -0.2431 -0.2837
 1340TIP3    H125511   5.494   4.681  11.982 -0.5878  1.3784 -0.6776
 1340TIP3    H225512   5.418   4.740  12.099 -1.1323 -0.2897 -0.1703
 1341TIP3   OH225513   1.521   4.872  10.517  0.0049 -0.3833  0.1240
 1341TIP3    H125514   1.529   4.779  10.497 -0.3883 -0.4269  0.1664
 1341TIP3    H225515   1.500   4.913  10.433 -0.2914 -0.3944  0.1915
 1342TIP3   OH225516   4.255   3.345  12.263 -0.3105 -0.2007  0.0134
 1342TIP3    H125517   4.205   3.264  12.258 -0.6290  0.0755 -1.7706
 1342TIP3    H225518   4.197   3.411  12.225  1.2191  0.2154 -1.6560
 1343TIP3   OH225519   1.813   3.588  11.143 -0.2772  0.1852  0.3323
 1343TIP3    H125520   1.743   3.525  11.157 -0.8639  0.9349  0.8016
 1343TIP3    H225521   1.888   3.535  11.114 -0.8219 -0.6915  0.5219
 1344TIP3   OH225522   6.481   1.155  10.886 -0.3798 -0.3341 -0.0894
 1344TIP3    H125523   6.510   1.208  10.812  1.2359 -1.3481 -0.1959
 1344TIP3    H225524   6.500   1.209  10.963  2.7411 -1.3429 -0.0855
 1345TIP3   OH225525   6.492   4.384  11.959 -0.3093  0.8126 -0.3883
 1345TIP3    H125526   6.470   4.348  11.873  3.0391  0.3880 -1.1394
 1345TIP3    H225527   6.489   4.309  12.018  1.4725  0.2584 -0.9633
 1346TIP3   OH225528   2.542   6.171  11.282  0.3454  0.0458  0.0157
 1346TIP3    H125529   2.509   6.259  11.298 -1.9469 -0.6776 -0.5013
 1346TIP3    H225530   2.609   6.157  11.349 -1.6420  0.9374  2.2573
 1347TIP3   OH225531   3.288   3.247  11.403  0.0557  0.2850 -0.0288
 1347TIP3    H125532   3.235   3.302  11.346 -0.4956  0.1630  0.3678
 1347TIP3    H225533   3.269   3.278  11.491 -0.4064 -0.6750  0.2089
 1348TIP3   OH225534   0.188   1.890  10.364 -0.3274 -0.2849  0.0426
 1348TIP3    H125535   0.161   1.812  10.412 -0.4478 -1.2327 -1.5303
 1348TIP3    H225536   0.111   1.947  10.366 -0.2411 -0.1958  1.1901
 1349TIP3   OH225537   2.115   1.302   9.539 -0.1293 -0.3541 -0.2294
 1349TIP3    H125538   2.135   1.385   9.497 -1.1296 -0.3732 -0.7654
 1349TIP3    H225539   2.199   1.270   9.572  0.6095 -0.1560 -1.8977
 1350TIP3   OH225540   3.972   0.307  13.095  0.3729  0.0767  0.1573
 1350TIP3    H125541   3.983   0.261  13.178 -0.7502  1.6095  1.2070
 1350TIP3    H225542   3.932   0.243  13.037 -2.8010  0.1557  2.1079
 1351TIP3   OH225543   2.152   2.836  10.560  0.4677  0.0985  0.6552
 1351TIP3    H125544   2.211   2.911  10.546  1.2873 -0.8545 -1.1023
 1351TIP3    H225545   2.113   2.819  10.475 -0.0719 -1.1927  1.1419
 1352TIP3   OH225546   4.314   1.284  10.040  0.1380 -0.0160 -0.0263
 1352TIP3    H125547   4.362   1.297   9.959  0.7178 -0.6515  0.2144
 1352TIP3    H225548   4.273   1.369  10.058  0.9722  0.4568 -0.3546
 1353TIP3   OH225549   3.331   5.454  13.819 -0.0935  0.3136  0.5361
 1353TIP3    H125550   3.280   5.395  13.763  1.4265  1.5927 -2.3017
 1353TIP3    H225551   3.292   5.444  13.906 -1.6413 -2.7734 -0.4319
 1354TIP3   OH225552   2.313   5.577  11.172  0.3403 -0.0153 -0.5138
 1354TIP3    H125553   2.378   5.508  11.183 -1.3397 -1.1967  2.6295
 1354TIP3    H225554   2.339   5.644  11.236  0.5960  1.2651 -1.9017
 1355TIP3   OH225555   1.215   5.012  11.242 -0.2682  0.3913  0.3653
 1355TIP3    H125556   1.252   4.985  11.158 -3.4689 -0.7903 -0.7538
 1355TIP3    H225557   1.185   4.930  11.282  0.4321  1.0488  2.2912
 1356TIP3   OH225558   2.861   2.588  13.621 -0.1183 -0.2452  0.3529
 1356TIP3    H125559   2.897   2.673  13.599 -1.0475  0.5456  1.7621
 1356TIP3    H225560   2.935   2.538  13.656  0.4177 -0.0064 -0.4440
 1357TIP3   OH225561   4.085   1.175  11.294 -0.5120  0.0321 -0.2689
 1357TIP3    H125562   4.078   1.111  11.365  2.7711  0.2976  0.3871
 1357TIP3    H225563   4.079   1.124  11.214  1.4135 -1.0667  0.2477
 1358TIP3   OH225564   3.194   0.463  15.328  0.3423  0.3550  0.0000
 1358TIP3    H125565   3.134   0.428  15.262  0.2312 -0.8231  0.7164
 1358TIP3    H225566   3.146   0.536  15.368  0.1081  0.5781 -0.6900
 1359TIP3   OH225567   1.707   2.538  10.270  0.5676  0.4111  0.5724
 1359TIP3    H125568   1.697   2.445  10.249  0.7778  0.2177  1.3007
 1359TIP3    H225569   1.621   2.576  10.251  1.0389  0.4363 -1.5520
 1360TIP3   OH225570   4.643   0.105  10.969 -0.8181 -0.3682 -0.4145
 1360TIP3    H125571   4.616   0.047  11.040  0.4481 -0.5080 -0.0418
 1360TIP3    H225572   4.731   0.075  10.946 -1.3947 -0.6405 -2.3724
 1361TIP3   OH225573   4.985   4.845  10.332 -0.2713 -0.2842  0.4499
 1361TIP3    H125574   4.925   4.849  10.407  0.9556 -0.9491  1.4933
 1361TIP3    H225575   4.963   4.764  10.288  0.2069 -0.7896  1.1346
 1362TIP3   OH225576   3.194   4.214  15.283  0.7985  0.6477 -0.1491
 1362TIP3    H125577   3.157   4.255  15.205 -0.2667 -0.0848 -0.0528
 1362TIP3    H225578   3.205   4.286  15.345  2.1238  1.3124 -1.1369
 1363TIP3   OH225579   0.226   1.293  12.325  0.4240  0.1620  0.3756
 1363TIP3    H125580   0.306   1.341  12.346 -0.5195  1.2224  1.6311
 1363TIP3    H225581   0.207   1.243  12.405 -1.5241  1.8661  1.0180
 1364TIP3   OH225582   0.854   4.519  13.099  0.7140 -0.2453  0.0499
 1364TIP3    H125583   0.932   4.501  13.046  0.5639  1.0434 -0.6131
 1364TIP3    H225584   0.802   4.580  13.046 -0.4677 -0.6208  0.7466
 1365TIP3   OH225585   4.666   4.976  10.861 -0.0321  0.1900  0.0271
 1365TIP3    H125586   4.683   4.886  10.889  1.4423  0.5642  0.4181
 1365TIP3    H225587   4.658   4.970  10.766  0.0091 -0.3636  0.0548
 1366TIP3   OH225588   1.686   3.652  11.448  0.4926  0.1870 -0.0936
 1366TIP3    H125589   1.760   3.594  11.437  0.7533  0.1558  1.6704
 1366TIP3    H225590   1.629   3.607  11.511 -0.6519  0.5580 -0.8440
 1367TIP3   OH225591   2.321   2.275  10.842 -0.1771  0.1943 -0.1598
 1367TIP3    H125592   2.323   2.189  10.883 -0.8285 -1.0934 -2.7014
 1367TIP3    H225593   2.244   2.273  10.785 -0.4718  2.6352  0.0881
 1368TIP3   OH225594   5.265   7.189  15.292 -0.0232  0.0941  0.0092
 1368TIP3    H125595   5.263   7.257  15.225 -1.3901 -0.1696 -0.2488
 1368TIP3    H225596   5.213   7.118  15.255  1.3941 -1.1054  0.2711
 1369TIP3   OH225597   2.556   3.462  12.337  0.5162 -0.2888  0.5109
 1369TIP3    H125598   2.577   3.377  12.376 -2.6351 -0.9816  0.8860
 1369TIP3    H225599   2.485   3.444  12.276 -0.7143  2.1455  1.1241
 1370TIP3   OH225600   1.462   2.989  10.406  0.7732  0.4675  0.5188
 1370TIP3    H125601   1.528   3.012  10.472 -0.0238  1.5169  0.9717
 1370TIP3    H225602   1.409   3.068  10.398  0.4185  0.0933 -0.8599
 1371TIP3   OH225603   6.147   2.248  12.469 -0.1975 -0.5768  0.1500
 1371TIP3    H125604   6.118   2.221  12.556 -2.2995  0.2569 -0.2698
 1371TIP3    H225605   6.214   2.315  12.486  0.0968 -1.1107  1.1284
 1372TIP3   OH225606   2.586   0.875  10.145 -0.5532  0.1552  0.8098
 1372TIP3    H125607   2.537   0.954  10.120  0.5491  0.1965 -1.3918
 1372TIP3    H225608   2.655   0.869  10.079  0.2933 -1.8292  1.8501
 1373TIP3   OH225609   1.027   3.502  10.746 -0.0313 -0.2403 -0.9527
 1373TIP3    H125610   1.041   3.475  10.837 -0.6528 -1.5586 -1.2347
 1373TIP3    H225611   0.968   3.578  10.753 -0.9959 -1.0292 -0.3003
 1374TIP3   OH225612   1.667   5.350  11.880 -0.1481  0.1440 -0.7051
 1374TIP3    H125613   1.681   5.323  11.790  0.1309 -0.4156 -0.4915
 1374TIP3    H225614   1.702   5.279  11.933  1.9283  1.5507 -0.1295
 1375TIP3   OH225615   4.058   1.614  12.101 -0.4028 -0.3836 -1.2457
 1375TIP3    H125616   3.994   1.664  12.051 -0.9674 -2.5655 -2.8172
 1375TIP3    H225617   4.142   1.635  12.061 -0.6078 -0.4803 -1.7310
 1376TIP3   OH225618   2.053   4.230  13.513 -0.0759 -0.3073  0.3253
 1376TIP3    H125619   2.040   4.204  13.604  0.2925 -0.8621  0.2204
 1376TIP3    H225620   2.117   4.167  13.479  1.5190  1.2593  0.3280
 1377TIP3   OH225621   0.837   5.324  10.378  0.6697  0.3019 -0.6014
 1377TIP3    H125622   0.906   5.390  10.378  0.6695  0.3400 -2.3367
 1377TIP3    H225623   0.832   5.295  10.287 -2.7021  1.4425 -0.8214
 1378TIP3   OH225624   4.596   3.930  10.478  0.3091 -0.8183 -0.3984
 1378TIP3    H125625   4.533   3.959  10.543 -0.5284  0.2757 -1.6689
 1378TIP3    H225626   4.546   3.875  10.419  0.6798 -0.4867 -1.0305
 1379TIP3   OH225627   2.871   5.578  11.463  0.3068  0.4702  0.0536
 1379TIP3    H125628   2.950   5.554  11.415  0.0542  0.5573 -0.3996
 1379TIP3    H225629   2.808   5.605  11.396 -0.7747 -1.4379  0.2573
 1380TIP3   OH225630   3.036   3.144   9.541 -0.3389 -0.4569 -0.1015
 1380TIP3    H125631   2.985   3.071   9.506  0.1330 -1.4824  1.2907
 1380TIP3    H225632   3.111   3.152   9.482  0.0897 -1.7056  0.2600
 1381TIP3   OH225633   4.230   3.457   9.869 -0.0756  0.1711  0.4460
 1381TIP3    H125634   4.185   3.502   9.798 -1.4431 -0.3662  0.9689
 1381TIP3    H225635   4.219   3.364   9.850  1.6445  0.0140  0.0652
 1382TIP3   OH225636   6.281   2.982  10.048  0.1191  0.3739 -0.0322
 1382TIP3    H125637   6.364   3.008  10.008  0.9102 -1.2575  0.4908
 1382TIP3    H225638   6.305   2.908  10.105 -1.2319  1.5747  2.1744
 1383TIP3   OH225639   3.444   7.073  10.918  0.1573  0.2122  0.3562
 1383TIP3    H125640   3.511   7.006  10.927  0.5130  0.1253 -2.5208
 1383TIP3    H225641   3.488   7.145  10.871 -0.7655  1.6532  1.6430
 1384TIP3   OH225642   3.107   3.756  12.779  0.4784  0.1777 -0.3124
 1384TIP3    H125643   3.057   3.738  12.700  1.4249 -0.1038 -0.8513
 1384TIP3    H225644   3.165   3.829  12.756  1.6851 -0.7510 -0.3053
 1385TIP3   OH225645   5.804   1.988  12.923  0.3702 -0.5470 -0.3428
 1385TIP3    H125646   5.789   1.986  13.018 -1.5973 -0.2605 -0.6194
 1385TIP3    H225647   5.833   2.078  12.906 -1.6443  0.1483 -0.3039
 1386TIP3   OH225648   4.325   4.011  10.141 -0.1589 -0.1597  0.2484
 1386TIP3    H125649   4.306   3.992  10.049  0.2437 -1.7595  0.4824
 1386TIP3    H225650   4.245   4.053  10.173 -0.1188  0.8757 -0.9442
 1387TIP3   OH225651   3.422   2.148  10.833  0.0798  0.7748  0.0127
 1387TIP3    H125652   3.462   2.179  10.915 -1.2212  1.2863  0.4641
 1387TIP3    H225653   3.471   2.069  10.811  1.0536  1.1486  0.7854
 1388TIP3   OH225654   0.482   4.340  13.114 -0.0833 -0.3719 -0.4527
 1388TIP3    H125655   0.460   4.252  13.143 -0.8700  0.3996  1.3682
 1388TIP3    H225656   0.399   4.388  13.115  0.1805  0.1689 -2.2819
 1389TIP3   OH225657   5.749   1.855  11.307  0.2390 -0.3238  0.2902
 1389TIP3    H125658   5.764   1.945  11.279 -0.4543 -0.6514 -1.1667
 1389TIP3    H225659   5.697   1.864  11.387 -1.6657  0.5548 -0.9929
 1390TIP3   OH225660   0.371   0.851  10.710 -0.2731  0.0363 -0.2605
 1390TIP3    H125661   0.401   0.786  10.647  1.8365  0.0996  0.6373
 1390TIP3    H225662   0.446   0.908  10.723 -0.8813  0.3936  1.8610
 1391TIP3   OH225663   7.058   3.911  12.389  0.2613 -0.0817  0.0128
 1391TIP3    H125664   6.973   3.913  12.345  0.4699 -1.4765 -0.5146
 1391TIP3    H225665   7.122   3.917  12.318  0.6002 -1.3359  0.1945
 1392TIP3   OH225666   2.985   2.229  10.270 -0.2858  0.0275 -0.1137
 1392TIP3    H125667   3.018   2.263  10.187 -1.2803  1.7938  0.1829
 1392TIP3    H225668   2.893   2.210  10.253  0.3435 -3.0167 -0.3888
 1393TIP3   OH225669   3.168   2.028  10.889 -0.6204  0.1844 -0.2633
 1393TIP3    H125670   3.251   2.072  10.872  0.6770 -2.6383 -1.5558
 1393TIP3    H225671   3.156   2.034  10.984  1.6113 -0.3088  0.0767
 1394TIP3   OH225672   0.903   3.112  12.705 -0.4402 -0.3669  0.3943
 1394TIP3    H125673   0.965   3.132  12.635  1.3095  0.2030  2.0652
 1394TIP3    H225674   0.931   3.027  12.737 -0.1572  0.1498  1.5303
 1395TIP3   OH225675   6.925   2.417   9.938  0.2957 -0.1782  0.2971
 1395TIP3    H125676   6.971   2.355   9.994 -1.5999 -2.2456 -0.3158
 1395TIP3    H225677   6.971   2.500   9.949  2.0097 -1.3595  2.2716
 1396TIP3   OH225678   2.620   1.666  10.495 -0.1151  0.4957  0.1824
 1396TIP3    H125679   2.664   1.704  10.571 -0.8419  0.8279  0.4403
 1396TIP3    H225680   2.527   1.682  10.511 -0.2407  0.9165 -0.9709
 1397TIP3   OH225681   2.840   6.208  11.433 -0.3122  0.1390  0.8470
 1397TIP3    H125682   2.797   6.263  11.499 -1.4993 -0.3691  0.5117
 1397TIP3    H225683   2.907   6.160  11.482  1.4850  2.6440  0.9592
 1398TIP3   OH225684   3.984   4.797  13.647 -0.3060  0.0845  0.7366
 1398TIP3    H125685   3.987   4.733  13.718 -1.5992  0.8316  1.4899
 1398TIP3    H225686   3.891   4.803  13.625 -0.3175  2.4535  1.3790
 1399TIP3   OH225687   2.370   2.447  13.602  0.6808 -0.7900  0.1511
 1399TIP3    H125688   2.393   2.463  13.694  0.9200  0.7526 -0.1628
 1399TIP3    H225689   2.356   2.535  13.565  1.4122 -1.3376 -1.4894
 1400TIP3   OH225690   6.175   3.338  12.402 -0.2127  0.4660  0.1755
 1400TIP3    H125691   6.091   3.316  12.443 -1.1079  0.6536 -1.5122
 1400TIP3    H225692   6.168   3.432  12.384  0.0568  0.3316 -0.6486
 1401TIP3   OH225693   1.253   0.738   9.937  0.6683 -0.1377  0.2149
 1401TIP3    H125694   1.346   0.730   9.915  0.8856 -1.6569  1.6251
 1401TIP3    H225695   1.220   0.802   9.874  3.0093  1.6963  0.7504
 1402TIP3   OH225696   3.414   2.400  10.585 -0.4028 -0.4299 -0.2079
 1402TIP3    H125697   3.344   2.336  10.596  0.1361 -1.0320 -0.2785
 1402TIP3    H225698   3.421   2.412  10.490  0.4938 -1.3777 -0.2689
 1403TIP3   OH225699   2.186   2.066  13.473  0.0787 -0.4865 -0.3421
 1403TIP3    H125700   2.203   1.990  13.417 -0.0429  0.5595 -1.8608
 1403TIP3    H225701   2.255   2.128  13.449  1.1423 -0.7031  2.0308
 1404TIP3   OH225702   4.729   5.521  11.929  0.4905  0.7239  0.3842
 1404TIP3    H125703   4.663   5.578  11.968 -2.1553 -1.4334 -0.7230
 1404TIP3    H225704   4.753   5.563  11.847 -1.1843  0.4641 -0.2563
 1405TIP3   OH225705   3.462   3.052   9.594 -0.2210  0.0163  0.1354
 1405TIP3    H125706   3.429   3.064   9.505  0.8799 -0.4750 -0.3453
 1405TIP3    H225707   3.437   3.132   9.640 -2.9083 -0.7412  0.0531
 1406TIP3   OH225708   3.592   5.496  11.440 -0.8449  0.2029 -0.7652
 1406TIP3    H125709   3.565   5.458  11.523  0.5827  0.7763 -0.0273
 1406TIP3    H225710   3.549   5.581  11.437  0.0849  0.7058 -0.0374
 1407TIP3   OH225711   1.025   4.835  11.667  0.2788 -0.2484 -0.4943
 1407TIP3    H125712   1.007   4.929  11.669  0.2583 -0.2517 -0.5020
 1407TIP3    H225713   0.946   4.794  11.702  0.4109 -0.2473 -0.1934
 1408TIP3   OH225714   3.619   4.717  11.058  0.1740  0.1893  0.6750
 1408TIP3    H125715   3.563   4.678  10.991 -0.4440  2.3470 -0.1370
 1408TIP3    H225716   3.690   4.759  11.009  0.4594  0.6197  1.4435
 1409TIP3   OH225717   4.159   4.662  14.174  0.2307  0.4205  0.3721
 1409TIP3    H125718   4.254   4.654  14.174  0.3865  2.0881 -0.7112
 1409TIP3    H225719   4.128   4.576  14.202  2.0121 -0.8870 -1.5023
 1410TIP3   OH225720   4.767   2.898  13.719 -0.1777  0.3002  0.4121
 1410TIP3    H125721   4.694   2.947  13.757 -0.2592 -0.1149  0.7839
 1410TIP3    H225722   4.777   2.821  13.774  1.6598  1.2038  1.4198
 1411TIP3   OH225723   5.982   1.640  11.679  0.5497  0.7313 -0.3694
 1411TIP3    H125724   5.928   1.648  11.600 -0.0739 -1.5526 -0.1983
 1411TIP3    H225725   6.070   1.665  11.650  0.6356 -1.4930 -2.1805
 1412TIP3   OH225726   4.349   3.278  11.780  0.0730  0.5746  0.1891
 1412TIP3    H125727   4.424   3.281  11.839 -0.3640  0.5057  0.7570
 1412TIP3    H225728   4.353   3.191  11.740 -0.8062 -0.1875  1.6974
 1413TIP3   OH225729   4.463   5.861  11.875  0.4567  0.0231 -0.1297
 1413TIP3    H125730   4.440   5.949  11.906 -0.4085  0.1311 -1.0780
 1413TIP3    H225731   4.380   5.820  11.854  0.8028 -1.3150  1.0336
 1414TIP3   OH225732   2.871   2.958  12.394  0.5684  0.3378  0.1237
 1414TIP3    H125733   2.822   2.884  12.359  1.3259  0.0980 -0.4681
 1414TIP3    H225734   2.882   3.017  12.319  1.0354  0.4624  0.2869
 1415TIP3   OH225735   1.483   3.003   9.519  0.9193 -0.6104  0.8619
 1415TIP3    H125736   1.554   2.966   9.468  1.6282  1.9449 -0.0543
 1415TIP3    H225737   1.526   3.055   9.587 -0.0623 -0.0776  1.0864
 1416TIP3   OH225738   3.078   4.998  10.547  0.2157 -0.6198 -0.1538
 1416TIP3    H125739   3.088   4.913  10.504  1.5036 -1.3983  1.6331
 1416TIP3    H225740   2.984   5.005  10.565 -0.1048 -1.0099 -1.5683
 1417TIP3   OH225741   0.318   0.214  10.372 -0.2965 -0.3338  0.0997
 1417TIP3    H125742   0.330   0.125  10.405  0.4808  0.2055  1.3018
 1417TIP3    H225743   0.387   0.225  10.307 -0.9611 -0.9186 -0.7089
 1418TIP3   OH225744   3.804   2.024  12.121  0.0173  0.5799 -0.9030
 1418TIP3    H125745   3.817   1.965  12.047  2.3014 -0.0469 -0.0320
 1418TIP3    H225746   3.775   1.967  12.192  0.7613  0.7330 -0.4761
 1419TIP3   OH225747   2.052   6.312   1.157 -0.4557  0.1962 -0.1635
 1419TIP3    H125748   2.114   6.286   1.225  1.1670  1.4042 -1.1374
 1419TIP3    H225749   2.021   6.398   1.184 -1.1969 -0.1144 -0.0209
 1420TIP3   OH225750   2.455   2.705  10.471 -0.2986 -0.2479 -0.2959
 1420TIP3    H125751   2.439   2.637  10.405  0.3713 -0.3525 -0.3576
 1420TIP3    H225752   2.438   2.663  10.555 -1.2201 -0.0960 -0.4025
 1421TIP3   OH225753   3.649   4.160   9.924  0.3305 -0.3144 -0.2186
 1421TIP3    H125754   3.588   4.088   9.910 -1.2018  1.0838 -0.8786
 1421TIP3    H225755   3.729   4.134   9.878 -1.4017 -0.0384 -3.5416
 1422TIP3   OH225756   3.308   1.280  11.367 -0.1758  0.4816 -0.0013
 1422TIP3    H125757   3.339   1.303  11.280 -1.5036 -0.6184 -0.7878
 1422TIP3    H225758   3.215   1.303  11.366 -0.5996 -1.1494  0.5275
 1423TIP3   OH225759   5.894   3.468  10.822  0.1191  0.5025  0.0757
 1423TIP3    H125760   5.857   3.553  10.845  2.0635  1.3204  0.2776
 1423TIP3    H225761   5.914   3.475  10.728  0.1162  0.2132  0.0517
 1424TIP3   OH225762   4.826   3.820   9.914  0.0409  0.3435  0.1751
 1424TIP3    H125763   4.766   3.860   9.851  0.4315  2.7521  1.2443
 1424TIP3    H225764   4.904   3.875   9.909  0.1213  0.4870  2.6317
 1425TIP3   OH225765   3.838   0.862  12.306 -0.0037 -0.0711 -0.3018
 1425TIP3    H125766   3.850   0.889  12.215 -1.4664  1.9365  0.0660
 1425TIP3    H225767   3.795   0.777  12.300 -1.6752  0.8158 -1.5259
 1426TIP3   OH225768   6.443   0.970  10.026  0.4195  0.3709  0.6180
 1426TIP3    H125769   6.500   0.904   9.987 -1.8522 -0.7565 -0.8608
 1426TIP3    H225770   6.491   1.052  10.016  1.9359 -0.6071 -0.2418
 1427TIP3   OH225771   2.502   6.841   9.757 -0.5465  0.3502  0.6510
 1427TIP3    H125772   2.451   6.769   9.719  0.7535  0.8260 -2.1030
 1427TIP3    H225773   2.445   6.917   9.750  0.2653  0.7539 -1.8434
 1428TIP3   OH225774   0.290   6.443  12.861 -0.3650  0.0327  0.2663
 1428TIP3    H125775   0.377   6.470  12.889 -0.3923 -0.2924  0.6744
 1428TIP3    H225776   0.253   6.397  12.937 -1.1694  0.8019  0.3533
 1429TIP3   OH225777   2.450   0.366  12.150  0.1311  0.4844 -0.3370
 1429TIP3    H125778   2.495   0.329  12.074  1.2513 -0.3683  0.7355
 1429TIP3    H225779   2.425   0.290  12.203  1.3343  1.1734  1.2509
 1430TIP3   OH225780   2.150   3.581  12.262 -0.0884  0.6565 -0.1763
 1430TIP3    H125781   2.205   3.656  12.239  1.9632 -1.0230 -0.8411
 1430TIP3    H225782   2.196   3.505  12.227 -0.9701 -1.1746  2.4284
 1431TIP3   OH225783   0.154   7.048  11.464 -0.2031  0.3742 -0.1604
 1431TIP3    H125784   0.136   6.955  11.477 -0.0960  0.1682 -1.4121
 1431TIP3    H225785   0.249   7.054  11.457 -0.0966  0.7987  1.4875
 1432TIP3   OH225786   2.620   2.371   9.656 -0.1453  0.4283  0.2425
 1432TIP3    H125787   2.540   2.342   9.700 -0.9009  0.6649 -0.9418
 1432TIP3    H225788   2.690   2.353   9.718 -1.3558  2.2622  2.1813
 1433TIP3   OH225789   2.971   5.767  13.299 -0.4736 -0.6902  0.3502
 1433TIP3    H125790   2.966   5.788  13.392 -0.0901  1.6361 -0.1078
 1433TIP3    H225791   3.019   5.841  13.261 -0.9692 -1.4222 -1.7585
 1434TIP3   OH225792   1.715   2.072  11.014  0.1283 -0.7683 -0.1603
 1434TIP3    H125793   1.787   2.132  11.029  0.0975 -1.1085  1.4178
 1434TIP3    H225794   1.644   2.128  10.981  0.1723  0.0350  1.0735
 1435TIP3   OH225795   3.393   3.463  10.535 -0.2073  0.3425  0.0038
 1435TIP3    H125796   3.427   3.380  10.500  2.9912  1.4193  0.3880
 1435TIP3    H225797   3.393   3.451  10.630  0.2388  0.7704  0.0570
 1436TIP3   OH225798   6.943   0.882  10.513  0.7230  0.7428 -0.2035
 1436TIP3    H125799   6.921   0.925  10.596  1.9093 -0.0732  0.5449
 1436TIP3    H225800   6.891   0.801  10.513 -0.9302  1.7681 -1.2667
 1437TIP3   OH225801   3.769   4.935  13.466  0.4765 -0.1163 -0.4889
 1437TIP3    H125802   3.738   4.919  13.377  0.9910  0.0290 -0.6967
 1437TIP3    H225803   3.723   5.015  13.493 -2.7121 -2.3219  0.8523
 1438TIP3   OH225804   0.897   3.927  13.863  0.5702 -0.1408  0.3122
 1438TIP3    H125805   0.957   3.968  13.801 -0.1332  0.8627  0.2821
 1438TIP3    H225806   0.862   3.852  13.816  0.3993  0.3437 -0.3384
 1439TIP3   OH225807   2.082   2.071  14.009 -0.5737  0.5021  0.1586
 1439TIP3    H125808   2.001   2.122  14.002 -1.1304 -0.7571 -4.0480
 1439TIP3    H225809   2.151   2.135  13.990 -0.8892  0.7862 -0.0417
 1440TIP3   OH225810   0.988   3.395  11.644 -0.3485  0.1795  0.1736
 1440TIP3    H125811   1.025   3.472  11.602 -0.7548  0.0177 -0.4924
 1440TIP3    H225812   1.059   3.330  11.644  0.7232  1.2854  2.7737
 1441TIP3   OH225813   0.708   4.537  13.564  0.1232 -0.4470 -0.1991
 1441TIP3    H125814   0.714   4.507  13.474  0.0251 -0.3581 -0.2352
 1441TIP3    H225815   0.648   4.476  13.607 -2.1351  1.2134 -0.9212
 1442TIP3   OH225816   2.740   5.347  13.903  0.7327  0.7701 -0.0613
 1442TIP3    H125817   2.726   5.268  13.955 -0.5170  1.3432  0.5005
 1442TIP3    H225818   2.820   5.386  13.940  0.6725  0.4039  0.4705
 1443TIP3   OH225819   1.133   4.541  10.563 -0.4358 -0.7780 -0.0213
 1443TIP3    H125820   1.210   4.579  10.605 -0.2652 -0.1089 -0.9372
 1443TIP3    H225821   1.143   4.562  10.470 -1.8874 -0.3919 -0.1067
 1444TIP3   OH225822   3.995   2.597  10.079 -0.5744  0.7986  0.1453
 1444TIP3    H125823   4.054   2.671  10.068  0.0418  0.3712  0.5789
 1444TIP3    H225824   3.908   2.634  10.063 -0.1247  1.2207 -1.4537
 1445TIP3   OH225825   1.620   0.572  11.559 -0.6324 -0.0616  0.0514
 1445TIP3    H125826   1.629   0.477  11.554  1.8103  0.1184  0.6372
 1445TIP3    H225827   1.651   0.603  11.474  0.4697  0.3294  0.5930
 1446TIP3   OH225828   6.969   1.922  10.577 -0.5442 -0.6523  0.6673
 1446TIP3    H125829   6.959   1.841  10.527  2.0734  0.9596 -2.6906
 1446TIP3    H225830   7.042   1.905  10.637  0.5935 -0.5428 -0.6595
 1447TIP3   OH225831   1.332   6.611  12.836 -0.2468  0.2275  0.1777
 1447TIP3    H125832   1.425   6.625  12.818 -0.1807  0.4972  0.7136
 1447TIP3    H225833   1.309   6.533  12.785  0.7379 -0.9660  1.5095
 1448TIP3   OH225834   4.285   4.917  13.415  0.6667  0.1314 -0.0301
 1448TIP3    H125835   4.312   4.845  13.473 -1.2054  0.5880  1.4156
 1448TIP3    H225836   4.260   4.988  13.474 -2.3615  0.2032 -1.3421
 1449TIP3   OH225837   3.560   4.796  10.530  0.2906  0.5663 -0.1163
 1449TIP3    H125838   3.482   4.744  10.550  0.5795  0.4621  0.7560
 1449TIP3    H225839   3.562   4.800  10.435 -0.9188  0.7777 -0.1371
 1450TIP3   OH225840   3.812   1.347  11.787 -0.3622 -0.0800  0.6108
 1450TIP3    H125841   3.802   1.330  11.693 -0.6803 -1.3233  0.8573
 1450TIP3    H225842   3.906   1.361  11.799  0.0510 -2.4588  0.4891
 1451TIP3   OH225843   1.867   6.878  10.274  0.4403  0.2643  0.7990
 1451TIP3    H125844   1.793   6.849  10.328 -1.2339  0.3916 -1.3432
 1451TIP3    H225845   1.920   6.800  10.261 -0.8920 -0.5028 -0.0645
 1452TIP3   OH225846   3.135   4.519  13.335 -0.6153 -0.4572  0.1618
 1452TIP3    H125847   3.049   4.559  13.321 -0.3436  1.2734  3.0332
 1452TIP3    H225848   3.153   4.532  13.428  2.2528 -1.8229 -0.1427
 1453TIP3   OH225849   6.325   0.611  12.619  0.7070  0.3964  0.4127
 1453TIP3    H125850   6.354   0.563  12.541 -0.9197 -0.0721  0.0738
 1453TIP3    H225851   6.237   0.577  12.636  0.9391  0.6931  2.3003
 1454TIP3   OH225852   1.870   6.197  13.211 -0.5573 -0.7002 -0.3668
 1454TIP3    H125853   1.799   6.248  13.172 -0.4714 -0.4840 -0.2406
 1454TIP3    H225854   1.921   6.166  13.137  0.4170  0.8789 -0.3691
 1455TIP3   OH225855   4.096   2.787  10.511 -0.1021 -0.0088  0.1405
 1455TIP3    H125856   4.022   2.776  10.452  0.1163  1.3611 -0.4154
 1455TIP3    H225857   4.171   2.754  10.462 -0.1154  0.0086  0.1091
 1456TIP3   OH225858   1.363   3.756  15.438 -0.1196  0.0601 -0.1491
 1456TIP3    H125859   1.295   3.766  15.371  1.3382 -0.0299 -1.6660
 1456TIP3    H225860   1.442   3.790  15.398  0.8857 -0.3850  1.3881
 1457TIP3   OH225861   1.231   3.666  12.058  0.1916 -0.1041 -0.4707
 1457TIP3    H125862   1.145   3.660  12.016 -0.8449 -2.3104  1.7954
 1457TIP3    H225863   1.230   3.752  12.101 -1.0762 -0.2694 -0.1286
 1458TIP3   OH225864   2.337   5.095   9.468  0.1763 -1.0019 -0.2794
 1458TIP3    H125865   2.260   5.059   9.512 -0.0769  0.7584  0.8163
 1458TIP3    H225866   2.310   5.184   9.444  1.5995 -0.6533 -0.6050
 1459TIP3   OH225867   1.678   4.610  11.761  0.6741 -0.6541  0.1936
 1459TIP3    H125868   1.609   4.639  11.820  1.4549 -0.2646  0.9309
 1459TIP3    H225869   1.715   4.692  11.726  1.3964 -0.8316  0.5435
 1460TIP3   OH225870   4.794   2.043  12.082 -0.2812  0.0372 -0.2876
 1460TIP3    H125871   4.712   2.082  12.115 -1.0328  0.4201 -2.5178
 1460TIP3    H225872   4.768   1.957  12.051  0.2884 -0.0546 -0.4994
 1461TIP3   OH225873   0.740   0.759  12.042 -0.2807 -0.5375  0.0402
 1461TIP3    H125874   0.766   0.732  11.954  3.4917  2.8936 -0.0718
 1461TIP3    H225875   0.805   0.719  12.100 -1.5216 -1.1072  1.0471
 1462TIP3   OH225876   4.482   2.230  10.697  0.0286 -0.5162  0.7584
 1462TIP3    H125877   4.476   2.202  10.788 -1.1656  0.5034  1.0213
 1462TIP3    H225878   4.391   2.242  10.670  0.4099  0.3500 -0.1909
 1463TIP3   OH225879   3.147   2.098  12.666 -0.2045  0.4274  0.1000
 1463TIP3    H125880   3.215   2.151  12.707 -1.2645  1.6022  0.3844
 1463TIP3    H225881   3.187   2.065  12.586  0.9026  0.5923  0.5856
 1464TIP3   OH225882   2.732   1.239  10.753 -0.3820 -0.2153 -0.0006
 1464TIP3    H125883   2.743   1.187  10.673 -0.0038  0.3137 -0.2936
 1464TIP3    H225884   2.788   1.316  10.740 -1.4898  0.6286  0.1263
 1465TIP3   OH225885   3.275   3.586  11.484 -0.1165 -0.1628 -0.9233
 1465TIP3    H125886   3.278   3.588  11.388 -0.9961 -0.2008 -0.9553
 1465TIP3    H225887   3.360   3.549  11.510 -0.3290 -1.2334 -1.7226
 1466TIP3   OH225888   3.155   4.747  11.701 -0.1500  0.2851 -0.2089
 1466TIP3    H125889   3.228   4.729  11.760 -1.7576  0.2561  1.8248
 1466TIP3    H225890   3.182   4.710  11.617  1.7581 -0.5576  0.7481
 1467TIP3   OH225891   3.432   2.596  10.018  0.5306 -0.2638 -0.3625
 1467TIP3    H125892   3.392   2.577   9.933  0.7094  0.7861 -0.6863
 1467TIP3    H225893   3.524   2.614   9.997  0.9161 -1.5185  0.2390
 1468TIP3   OH225894   4.378   3.047  10.252 -0.7034 -0.3052  0.3281
 1468TIP3    H125895   4.423   2.974  10.210 -2.2509 -0.4882 -1.0291
 1468TIP3    H225896   4.400   3.038  10.345 -0.1873 -2.0006  0.0532
 1469TIP3   OH225897   0.116   0.348  11.130  0.3522 -0.3146  0.2420
 1469TIP3    H125898   0.178   0.360  11.057 -0.0835 -1.4973 -0.3339
 1469TIP3    H225899   0.087   0.257  11.122 -1.3807  0.1942  0.5773
 1470TIP3   OH225900   4.800   2.890  12.052  0.0486 -0.2403 -0.3591
 1470TIP3    H125901   4.880   2.925  12.014  0.2691 -0.4851 -0.1191
 1470TIP3    H225902   4.813   2.897  12.146  1.9546 -4.9887 -0.0933
 1471TIP3   OH225903   1.509   5.568  12.026 -0.4376  0.0702  0.4271
 1471TIP3    H125904   1.578   5.514  11.989  0.2640  2.0551 -1.2222
 1471TIP3    H225905   1.435   5.508  12.038  0.6657 -1.4641 -0.3909
 1472TIP3   OH225906   0.943   0.763   9.624 -0.3532 -0.2400 -0.1443
 1472TIP3    H125907   0.993   0.700   9.572  1.5693  1.0102  0.1156
 1472TIP3    H225908   1.010   0.811   9.673 -1.8863  1.0497  0.7174
 1473TIP3   OH225909   1.707   5.252  10.748  0.1570  0.1075 -0.2453
 1473TIP3    H125910   1.752   5.259  10.664  1.5232 -1.2155  0.3539
 1473TIP3    H225911   1.716   5.338  10.788  1.1980  0.1818 -0.6288
 1474TIP3   OH225912   4.994   2.666  15.036 -0.2762 -0.5001 -0.0479
 1474TIP3    H125913   5.034   2.681  15.122  0.2231  1.1662 -0.5511
 1474TIP3    H225914   5.004   2.572  15.021  0.4624 -0.6514  1.3035
 1475TIP3   OH225915   5.190   4.241  10.574  0.5698 -0.2113 -0.6108
 1475TIP3    H125916   5.270   4.218  10.526 -0.0874 -0.7372 -1.4647
 1475TIP3    H225917   5.140   4.294  10.512  0.1446 -0.0807 -0.1552
 1476TIP3   OH225918   0.855   4.511  11.169  0.1559 -0.5698  0.2073
 1476TIP3    H125919   0.924   4.551  11.117  0.0646  0.0812  0.5850
 1476TIP3    H225920   0.776   4.560  11.147 -0.1026 -1.0415  0.0886
 1477TIP3   OH225921   2.375   3.819  10.586  0.1990 -0.2788  0.1283
 1477TIP3    H125922   2.377   3.750  10.520  0.9792  0.3814 -0.5469
 1477TIP3    H225923   2.465   3.854  10.587  0.0649  0.0737  1.1562
 1478TIP3   OH225924   2.731   2.018  11.026 -0.4306 -0.1547 -0.9392
 1478TIP3    H125925   2.788   2.090  11.053 -2.6680  1.2841  0.1492
 1478TIP3    H225926   2.642   2.053  11.036 -1.5047 -1.1469 -5.8883
 1479TIP3   OH225927   2.207   6.354  12.482 -0.5918 -0.3566  0.4979
 1479TIP3    H125928   2.163   6.316  12.406  0.0388 -1.1110  0.4959
 1479TIP3    H225929   2.300   6.350  12.460 -0.5257  1.5657  0.3442
 1480TIP3   OH225930   6.839   1.420  11.043  0.4231  0.5108 -0.2912
 1480TIP3    H125931   6.884   1.362  10.982 -0.0403 -0.2189  0.0658
 1480TIP3    H225932   6.899   1.494  11.054  1.5143 -0.4353  0.1503
 1481TIP3   OH225933   5.261   1.006  13.026 -0.2376  0.3368 -0.4655
 1481TIP3    H125934   5.237   1.053  13.106  1.5388 -0.5494  0.6055
 1481TIP3    H225935   5.312   1.069  12.976  2.0829 -0.3874  0.9369
 1482TIP3   OH225936   0.956   3.767  11.171  0.2283 -0.3411  0.5187
 1482TIP3    H125937   0.990   3.820  11.099 -0.7477  0.5450  0.7129
 1482TIP3    H225938   0.862   3.783  11.172  0.2628 -0.1493  2.1587
 1483TIP3   OH225939   4.385   2.781  15.245 -0.0447  0.2756  0.3263
 1483TIP3    H125940   4.300   2.739  15.258 -0.0409  0.3254  0.5069
 1483TIP3    H225941   4.437   2.757  15.321 -0.1768  0.9317  0.6299
 1484TIP3   OH225942   5.914   5.991  10.474 -0.3955 -0.2964  0.5517
 1484TIP3    H125943   5.894   5.898  10.469  0.0781 -0.3131 -1.0694
 1484TIP3    H225944   5.841   6.029  10.523 -1.4913 -1.2313 -0.3661
 1485TIP3   OH225945   3.309   4.688  11.280  0.3081  0.6053 -0.0082
 1485TIP3    H125946   3.279   4.738  11.204  0.4998  0.0806 -0.4300
 1485TIP3    H225947   3.238   4.626  11.297 -0.0714  1.2376  0.7129
 1486TIP3   OH225948   3.397   2.199  12.743  0.1914  0.1772  0.3781
 1486TIP3    H125949   3.341   2.276  12.750 -0.5354 -0.0251 -2.7302
 1486TIP3    H225950   3.471   2.218  12.801 -0.6803  2.5701  0.7549
 1487TIP3   OH225951   1.131   2.044  10.758  0.3891 -0.2693  0.5993
 1487TIP3    H125952   1.038   2.036  10.776  0.5254 -2.0086  0.6573
 1487TIP3    H225953   1.170   2.066  10.843 -0.0194  1.0498  0.4562
 1488TIP3   OH225954   2.661   6.004  10.581  0.2424 -0.2116  0.6953
 1488TIP3    H125955   2.583   5.956  10.610  0.3705 -0.9129 -0.1216
 1488TIP3    H225956   2.716   5.938  10.539  0.5821  0.5852 -0.1075
 1489TIP3   OH225957   2.271   1.286   1.154 -0.0166 -0.0776  0.0445
 1489TIP3    H125958   2.364   1.275   1.175  0.3219  1.7084 -0.4574
 1489TIP3    H225959   2.263   1.377   1.127 -1.6004 -0.6757 -1.6286
 1490TIP3   OH225960   6.866   5.577  11.967  0.3908  0.2144  0.5037
 1490TIP3    H125961   6.930   5.510  11.941 -0.1382 -0.5318  1.1103
 1490TIP3    H225962   6.825   5.542  12.046 -0.6250  0.7860  0.2379
 1491TIP3   OH225963   2.411   3.572   9.756 -0.0917  0.0866  0.0675
 1491TIP3    H125964   2.338   3.558   9.694  1.0479 -0.8029 -1.0946
 1491TIP3    H225965   2.471   3.500   9.739  0.3653 -0.0375  2.0850
 1492TIP3   OH225966   3.350   6.248  15.528 -0.0654  0.4767 -0.3325
 1492TIP3    H125967   3.324   6.337  15.503 -1.7036 -0.1635 -0.9761
 1492TIP3    H225968   3.324   6.240  15.620 -1.4164  0.1243 -0.7372
 1493TIP3   OH225969   6.315   6.701  14.690  0.4235  0.6870 -0.2314
 1493TIP3    H125970   6.380   6.741  14.632 -0.2401  0.0418 -1.4420
 1493TIP3    H225971   6.366   6.643  14.747  1.1222  1.6079  0.1023
 1494TIP3   OH225972   6.047   6.003  13.326 -0.5352  0.0685  0.6149
 1494TIP3    H125973   6.041   6.053  13.407 -1.3180  0.5321  0.2797
 1494TIP3    H225974   6.121   5.944  13.339  1.1827  2.1850  0.5120
 1495TIP3   OH225975   1.562   6.174  12.017 -0.4035 -0.4018  0.0402
 1495TIP3    H125976   1.514   6.096  12.043 -2.8186  0.9916 -0.0213
 1495TIP3    H225977   1.505   6.247  12.042  1.7202  1.3560 -0.0056
 1496TIP3   OH225978   6.929   6.369  10.250  0.0933 -0.8523  0.2886
 1496TIP3    H125979   6.898   6.389  10.338  1.1585  1.4075  0.1707
 1496TIP3    H225980   7.023   6.389  10.253  0.0127 -0.2058 -1.5343
 1497TIP3   OH225981   4.049   2.368  10.264 -0.0892  0.0353 -0.0492
 1497TIP3    H125982   4.029   2.449  10.217 -0.3607 -0.7171 -1.2512
 1497TIP3    H225983   3.965   2.342  10.303 -0.1497 -0.0075 -0.2063
 1498TIP3   OH225984   2.846   1.555  11.004  0.1248  0.0999 -0.4608
 1498TIP3    H125985   2.791   1.626  10.971 -0.4085  0.4588  1.1798
 1498TIP3    H225986   2.916   1.547  10.938  1.2610  3.4094  0.2509
 1499TIP3   OH225987   4.985   5.417  11.880  0.1885 -0.6012 -0.4273
 1499TIP3    H125988   5.036   5.492  11.850  1.8912 -1.3857  0.4422
 1499TIP3    H225989   4.901   5.454  11.906  1.1258  1.0545  0.2870
 1500TIP3   OH225990   1.449   3.688   9.785 -0.3944  0.0424  0.9768
 1500TIP3    H125991   1.468   3.602   9.823  1.1551  0.4950  1.2590
 1500TIP3    H225992   1.518   3.700   9.719 -0.8328  0.9054  0.6724
 1501TIP3   OH225993   0.993   4.794  10.812 -0.0327  0.6114  0.5083
 1501TIP3    H125994   0.935   4.811  10.886 -1.5919 -1.5610 -0.1659
 1501TIP3    H225995   1.039   4.713  10.836  0.8798  0.9588 -0.0596
 1502TIP3   OH225996   3.871   3.789  12.223 -0.5725  0.1932  0.1064
 1502TIP3    H125997   3.908   3.726  12.284 -0.2204  1.5334  1.2981
 1502TIP3    H225998   3.843   3.736  12.148  0.3409 -1.2801  0.7834
 1503TIP3   OH225999   3.376   2.284   9.769 -0.3540  0.1987  0.3116
 1503TIP3    H126000   3.316   2.225   9.813 -2.7316  0.8391 -1.9528
 1503TIP3    H226001   3.338   2.371   9.782  0.0952  0.6184 -1.0886
 1504TIP3   OH226002   3.128   3.662   9.671  0.1855 -0.1044  0.2074
 1504TIP3    H126003   3.035   3.647   9.657 -0.0824  0.3291  1.4320
 1504TIP3    H226004   3.165   3.575   9.685 -0.1043 -0.2449  0.0910
 1505TIP3   OH226005   1.527   1.334  13.917 -0.3842 -0.4345  0.0731
 1505TIP3    H126006   1.509   1.390  13.842  0.5136 -0.8012 -0.4300
 1505TIP3    H226007   1.566   1.393  13.983  1.1041 -0.5625 -0.6710
 1506TIP3   OH226008   2.544   3.226  11.683 -0.8346  0.0454  0.0566
 1506TIP3    H126009   2.607   3.282  11.727  0.6620 -1.7495  0.2750
 1506TIP3    H226010   2.596   3.171  11.625 -2.1805 -1.4932  0.2582
 1507TIP3   OH226011   3.756   4.472  11.955 -0.2622  0.2677 -0.9843
 1507TIP3    H126012   3.810   4.400  11.923  0.4365  0.3601 -0.0567
 1507TIP3    H226013   3.808   4.511  12.026 -1.7312  0.0732  0.2336
 1508TIP3   OH226014   0.423   2.045  10.733  0.7365  0.4170  0.6145
 1508TIP3    H126015   0.338   2.015  10.765  0.5819  1.7932  1.5499
 1508TIP3    H226016   0.402   2.108  10.663  1.0300 -0.6150 -0.4205
 1509TIP3   OH226017   3.893   1.499  13.002  0.0225 -0.4274 -0.0345
 1509TIP3    H126018   3.945   1.480  12.924  1.1860  1.0631  0.3622
 1509TIP3    H226019   3.886   1.414  13.047  1.0530 -0.8877 -0.7202
 1510TIP3   OH226020   3.805   2.834  10.062  0.1602  0.4969  0.1061
 1510TIP3    H126021   3.842   2.895   9.998 -0.7363  1.7535  0.7540
 1510TIP3    H226022   3.758   2.770  10.009 -0.5523  1.5100 -0.5190
 1511TIP3   OH226023   5.284   6.031  10.110  0.1972 -0.2421  0.5639
 1511TIP3    H126024   5.220   6.006  10.043  0.0046  1.2725  0.1714
 1511TIP3    H226025   5.255   5.985  10.189 -0.5403 -0.7031  0.0327
 1512TIP3   OH226026   1.662   3.097  11.047 -0.7302 -0.7816  0.0063
 1512TIP3    H126027   1.672   3.175  10.994 -0.7387 -1.6045 -1.2177
 1512TIP3    H226028   1.729   3.105  11.115  0.2445 -0.4468 -0.9951
 1513TIP3   OH226029   5.775   2.707  10.256 -0.4074  0.5835 -0.3855
 1513TIP3    H126030   5.817   2.782  10.298  0.4712  0.3606 -0.8550
 1513TIP3    H226031   5.711   2.745  10.196  0.4889  0.9689 -1.0969
 1514TIP3   OH226032   3.498   4.140  10.498 -0.3845 -0.4606 -0.1267
 1514TIP3    H126033   3.404   4.134  10.481 -0.4307 -1.0786  0.3060
 1514TIP3    H226034   3.528   4.210  10.440 -1.3012  0.5158  0.5497
 1515TIP3   OH226035   5.622   4.929  10.460 -0.1039 -0.0428 -0.0790
 1515TIP3    H126036   5.552   4.973  10.508  0.2060 -1.3086  1.5935
 1515TIP3    H226037   5.696   4.990  10.464 -0.2274  0.0647  0.6661
 1516TIP3   OH226038   6.175   4.564  12.015  0.3134  0.2327  0.1029
 1516TIP3    H126039   6.209   4.603  12.096 -0.6092  0.6630  0.2824
 1516TIP3    H226040   6.241   4.586  11.949 -0.0141  1.8192  0.2761
 1517TIP3   OH226041   3.874   4.241  11.854  0.4886  0.0037  0.6127
 1517TIP3    H126042   3.810   4.173  11.875 -0.0351  0.1116 -0.5755
 1517TIP3    H226043   3.851   4.269  11.765  2.2309 -0.0058  0.1365
 1518TIP3   OH226044   5.408   4.608  10.534 -0.2016  0.3872  0.5325
 1518TIP3    H126045   5.456   4.533  10.501 -0.1100  0.3069  0.8445
 1518TIP3    H226046   5.473   4.657  10.586 -0.4885  0.2007  1.0749
 1519TIP3   OH226047   5.219   1.846  13.234 -0.1900  0.0451  0.6805
 1519TIP3    H126048   5.151   1.890  13.183  0.8015 -0.7665 -1.3848
 1519TIP3    H226049   5.301   1.866  13.188  0.7352 -0.6114  2.0084
 1520TIP3   OH226050   6.743   7.031  12.515 -1.2335 -0.1676 -0.4301
 1520TIP3    H126051   6.808   6.986  12.461  0.2456 -0.0798  1.2382
 1520TIP3    H226052   6.729   6.973  12.590  0.5807  2.0148  1.6693
 1521TIP3   OH226053   6.208   6.366  11.171 -0.3230  0.3798 -0.3087
 1521TIP3    H126054   6.157   6.287  11.189 -0.7769  0.5854 -0.6954
 1521TIP3    H226055   6.295   6.346  11.204 -0.8522  0.3343  1.1284
 1522TIP3   OH226056   5.762   1.198  10.711  0.1234 -0.2154 -0.0050
 1522TIP3    H126057   5.807   1.181  10.794 -0.5793  0.2311  0.4788
 1522TIP3    H226058   5.712   1.118  10.695 -1.5459  0.5503  1.1983
 1523TIP3   OH226059   0.969   1.313  13.216  0.3413  0.0521 -0.1528
 1523TIP3    H126060   0.950   1.326  13.309 -1.9543 -1.3685 -0.3775
 1523TIP3    H226061   1.051   1.265  13.215  1.4011  1.7810  1.0601
 1524TIP3   OH226062   5.077   6.816  12.634 -0.0800 -0.1816  0.4246
 1524TIP3    H126063   5.075   6.741  12.693 -0.8234  1.0540  2.0113
 1524TIP3    H226064   4.985   6.832  12.613  0.0558  0.4260  0.2913
 1525TIP3   OH226065   2.810   1.942  11.748  0.4618  0.1987 -0.0158
 1525TIP3    H126066   2.836   1.945  11.840  2.0066 -0.6702 -0.3917
 1525TIP3    H226067   2.737   1.880  11.744 -0.7251  1.5195  0.8540
 1526TIP3   OH226068   5.065   0.112  15.028  0.5291 -0.1883 -0.1705
 1526TIP3    H126069   5.008   0.068  14.965 -0.2476 -0.6405  0.8413
 1526TIP3    H226070   5.013   0.117  15.108  1.0870  1.4245  0.0986
 1527TIP3   OH226071   5.669   2.920  11.733 -0.0153  0.4376 -0.2632
 1527TIP3    H126072   5.634   2.966  11.809  0.0745  0.9447 -0.5249
 1527TIP3    H226073   5.592   2.903  11.678  0.0798  1.1712 -0.6370
 1528TIP3   OH226074   0.344   2.815   9.643 -0.0672 -0.1620 -0.3082
 1528TIP3    H126075   0.436   2.799   9.621  0.2114  0.4000  0.4213
 1528TIP3    H226076   0.346   2.891   9.702 -0.8195 -1.3580  1.3172
 1529TIP3   OH226077   6.092   2.355  15.136  1.1845  0.5951  0.1485
 1529TIP3    H126078   6.007   2.396  15.149  0.7275 -0.5592  0.8279
 1529TIP3    H226079   6.152   2.429  15.126 -0.0502  1.4065 -1.4432
 1530TIP3   OH226080   6.332   1.477  11.733 -0.4524  0.1259 -0.1370
 1530TIP3    H126081   6.292   1.564  11.739 -1.8332 -0.4650 -0.5002
 1530TIP3    H226082   6.282   1.433  11.665  1.7018 -0.1985 -1.5304
 1531TIP3   OH226083   3.280   1.995  12.432 -0.0736 -0.1124 -0.1640
 1531TIP3    H126084   3.353   1.943  12.398 -1.4962 -1.3080 -1.4337
 1531TIP3    H226085   3.204   1.968  12.380 -1.1506  2.1847  0.1368
 1532TIP3   OH226086   0.766   0.602  12.566 -0.0631 -0.1497 -0.4756
 1532TIP3    H126087   0.842   0.655  12.588 -0.1963  0.2918 -1.0546
 1532TIP3    H226088   0.691   0.657  12.587 -0.1951  0.0880 -1.5411
 1533TIP3   OH226089   2.506   4.984  10.419 -0.3898 -0.2515 -0.0794
 1533TIP3    H126090   2.506   4.990  10.515 -1.9245 -0.9383 -0.0331
 1533TIP3    H226091   2.414   4.984  10.395  0.0068  2.0726 -1.7283
 1534TIP3   OH226092   5.866   1.405  10.565 -0.1071  0.0550  0.1775
 1534TIP3    H126093   5.801   1.340  10.594 -0.2664  0.2925  0.3524
 1534TIP3    H226094   5.889   1.376  10.477  0.6078 -0.8456  0.6504
 1535TIP3   OH226095   5.627   6.461  10.227 -0.0101  0.4206  0.1950
 1535TIP3    H126096   5.670   6.439  10.145 -0.6938  1.4924 -0.4516
 1535TIP3    H226097   5.537   6.432  10.216  0.2131 -0.6854  1.0928
 1536TIP3   OH226098   1.122   2.226  12.403  0.0841  0.7663 -0.1324
 1536TIP3    H126099   1.036   2.195  12.429  0.2941  1.4846  1.5341
 1536TIP3    H226100   1.124   2.219  12.308 -1.3536 -0.4127 -0.0756
 1537TIP3   OH226101   5.163   3.105   9.722  0.4668 -0.1454  0.1725
 1537TIP3    H126102   5.218   3.048   9.775 -1.6446 -2.4387 -0.0344
 1537TIP3    H226103   5.155   3.060   9.638 -1.3184  0.3873  0.0305
 1538TIP3   OH226104   3.930   3.280  12.450  0.3218 -0.7095 -0.6648
 1538TIP3    H126105   3.886   3.355  12.408 -2.9195 -1.7463  0.6825
 1538TIP3    H226106   4.009   3.317  12.488 -0.8830  1.9302 -0.5865
 1539TIP3   OH226107   3.713   4.587  10.653 -0.2578  0.5762  0.2203
 1539TIP3    H126108   3.659   4.653  10.612 -0.9562  0.3865  0.8213
 1539TIP3    H226109   3.766   4.551  10.582 -0.7745  0.9058 -0.3326
 1540TIP3   OH226110   5.376   1.850  11.003 -0.0307 -0.4553  0.0324
 1540TIP3    H126111   5.420   1.776  10.960  0.5714 -0.6529  0.9859
 1540TIP3    H226112   5.381   1.921  10.939  2.1805 -0.2994  0.3192
 1541TIP3   OH226113   6.266   3.063  14.798  0.6318  0.6331  0.6273
 1541TIP3    H126114   6.173   3.053  14.814  0.7965  0.7968  1.7015
 1541TIP3    H226115   6.283   3.008  14.721 -0.0026 -0.8648  1.5248
 1542TIP3   OH226116   3.520   2.026  13.407  0.6796 -0.3665  0.4385
 1542TIP3    H126117   3.568   1.963  13.461 -1.5891 -1.3953  1.3573
 1542TIP3    H226118   3.545   2.112  13.441  1.8473 -0.8882  0.8982
 1543TIP3   OH226119   2.112   2.791  13.110 -0.4836 -0.8951 -0.6689
 1543TIP3    H126120   2.092   2.781  13.203  1.1236 -2.1301 -0.4503
 1543TIP3    H226121   2.058   2.725  13.066 -2.5088  0.7909 -0.8022
 1544TIP3   OH226122   0.938   1.658  11.279  0.2248  0.7571  0.2542
 1544TIP3    H126123   0.904   1.649  11.190  0.3123 -0.4489  0.3285
 1544TIP3    H226124   1.033   1.651  11.269  0.1096 -2.1718  0.7187
 1545TIP3   OH226125   5.768   2.150  12.647  0.0032 -0.3590 -0.3895
 1545TIP3    H126126   5.693   2.207  12.664 -0.2007 -1.6782  3.4441
 1545TIP3    H226127   5.733   2.079  12.593 -0.7618  0.6735 -1.2796
 1546TIP3   OH226128   4.605   6.428  10.691 -0.1237 -0.0800 -0.1071
 1546TIP3    H126129   4.540   6.365  10.660 -1.1735  1.3449 -0.8718
 1546TIP3    H226130   4.678   6.420  10.630  1.1739 -2.8735  1.7215
 1547TIP3   OH226131   6.507   1.796  13.978  0.3642 -0.4392  0.1166
 1547TIP3    H126132   6.469   1.884  13.973  0.9195 -0.1668  0.6624
 1547TIP3    H226133   6.473   1.751  13.901  0.8041  0.5366 -0.6512
 1548TIP3   OH226134   5.479   2.724   9.677  0.5999  0.3185  0.0189
 1548TIP3    H126135   5.513   2.638   9.651 -0.6494  0.7072 -3.0468
 1548TIP3    H226136   5.540   2.786   9.637 -0.1815  0.8993 -0.2789
 1549TIP3   OH226137   4.324   4.958  12.524 -0.7417 -0.2685 -0.3572
 1549TIP3    H126138   4.379   4.886  12.556 -0.4119  0.1436  0.0112
 1549TIP3    H226139   4.305   4.935  12.433 -0.1494 -0.5285 -0.4162
 1550TIP3   OH226140   3.239   3.002  12.715 -0.5000  0.2144 -0.2278
 1550TIP3    H126141   3.172   3.065  12.689  0.4958  0.2897 -2.8130
 1550TIP3    H226142   3.189   2.926  12.746 -1.7983  0.3347 -1.9477
 1551TIP3   OH226143   5.376   2.921  12.672  0.1432 -0.1539  0.4914
 1551TIP3    H126144   5.372   2.929  12.768  0.0837 -0.3179  0.5030
 1551TIP3    H226145   5.436   2.848  12.657 -0.3250 -0.5276  0.4169
 1552TIP3   OH226146   5.709   4.532  12.588 -0.0148 -0.1015 -0.3617
 1552TIP3    H126147   5.693   4.515  12.495 -0.2716 -0.5298 -0.2395
 1552TIP3    H226148   5.791   4.582  12.589  0.0419 -0.1815 -0.8119
 1553TIP3   OH226149   6.758   1.046  10.313  0.4250 -0.4392  0.3572
 1553TIP3    H126150   6.755   1.141  10.301 -0.9232 -0.5900 -0.6117
 1553TIP3    H226151   6.820   1.015  10.247 -1.5570 -0.5279 -1.5458
 1554TIP3   OH226152   3.105   1.513  10.111 -0.4636  0.3119  0.7890
 1554TIP3    H126153   3.065   1.460  10.042 -0.2431 -1.0935  1.7110
 1554TIP3    H226154   3.193   1.531  10.078 -0.2185 -0.6939  0.8535
 1555TIP3   OH226155   6.162   1.998   9.359 -0.7430  0.5865  0.3404
 1555TIP3    H126156   6.174   1.904   9.377  0.7402  0.6025 -0.5387
 1555TIP3    H226157   6.067   2.010   9.362 -1.0103 -1.1407 -0.4816
 1556TIP3   OH226158   5.840   4.896  13.227 -0.1622 -0.7276 -0.8592
 1556TIP3    H126159   5.750   4.866  13.235  0.0366 -0.8314  1.1719
 1556TIP3    H226160   5.833   4.991  13.214 -0.5013 -0.2186  2.6169
 1557TIP3   OH226161   3.974   2.222  12.241  0.4006  0.3934 -0.1700
 1557TIP3    H126162   4.023   2.280  12.182  0.7850 -1.4156 -1.6494
 1557TIP3    H226163   3.936   2.155  12.183 -2.0728  0.5362  1.2060
 1558TIP3   OH226164   0.155   3.593  10.063  0.3087 -0.1735 -0.2649
 1558TIP3    H126165   0.110   3.670  10.026  0.3872 -0.9044 -1.9235
 1558TIP3    H226166   0.099   3.519  10.039  0.0771 -0.6127  1.5900
 1559TIP3   OH226167   4.403   3.103  13.991 -0.1499 -0.1149 -0.4126
 1559TIP3    H126168   4.437   3.191  14.008 -1.8736  0.4036  0.5093
 1559TIP3    H226169   4.360   3.078  14.072 -1.3292 -1.0191 -1.2935
 1560TIP3   OH226170   5.924   1.591  10.975  0.3680  0.6860 -0.2467
 1560TIP3    H126171   5.843   1.641  10.961 -0.8347 -0.8644  0.9459
 1560TIP3    H226172   5.977   1.647  11.031 -0.5372  1.0806  0.2370
 1561TIP3   OH226173   5.584   4.355  11.258 -0.1587 -0.1121 -0.0512
 1561TIP3    H126174   5.591   4.379  11.350 -0.3187 -0.3910  0.0319
 1561TIP3    H226175   5.613   4.264  11.254 -2.1098 -0.7423  0.0235
 1562TIP3   OH226176   3.937   1.940  10.446  0.0518  0.0381 -0.2361
 1562TIP3    H126177   3.938   2.016  10.504  0.3254  0.7649 -1.1801
 1562TIP3    H226178   3.848   1.937  10.412 -0.8101 -1.8453  2.0959
 1563TIP3   OH226179   1.448   2.914  11.064 -0.2819 -0.3850  0.2131
 1563TIP3    H126180   1.453   2.890  10.971  0.3587  1.5814 -0.2817
 1563TIP3    H226181   1.519   2.977  11.076 -0.6961 -0.2330  1.9279
 1564TIP3   OH226182   6.004   2.162  10.891  0.1246  0.2685 -0.4631
 1564TIP3    H126183   6.062   2.087  10.883  1.0131  0.8173  0.7652
 1564TIP3    H226184   5.948   2.157  10.813  1.7930 -0.2847 -1.6535
 1565TIP3   OH226185   0.300   1.639  12.878  0.4144 -0.3606  0.0570
 1565TIP3    H126186   0.392   1.666  12.870  0.4763 -0.2888  0.9097
 1565TIP3    H226187   0.299   1.547  12.851  0.6458 -0.2134 -0.4524
 1566TIP3   OH226188   4.778   6.417  11.576 -0.2064 -0.3089  0.0632
 1566TIP3    H126189   4.712   6.462  11.630 -0.0146 -2.0540  1.8243
 1566TIP3    H226190   4.738   6.334  11.553  0.5705 -0.4876 -0.6874
 1567TIP3   OH226191   0.214   6.108  12.072 -0.5927  0.2117  0.5996
 1567TIP3    H126192   0.305   6.134  12.066  0.1408 -2.3864  0.0688
 1567TIP3    H226193   0.175   6.136  11.989 -0.0171  0.2834  0.3563
 1568TIP3   OH226194   4.209   1.537  10.083 -0.1191 -0.0679 -0.1197
 1568TIP3    H126195   4.129   1.542  10.135 -1.1536  0.0128 -1.6782
 1568TIP3    H226196   4.233   1.628  10.068  1.0653 -0.0883  1.5070
 1569TIP3   OH226197   5.277   2.179  11.685 -0.1540  0.2841  0.0142
 1569TIP3    H126198   5.206   2.181  11.749  0.2546  1.1222  0.4484
 1569TIP3    H226199   5.253   2.109  11.625 -1.5857  0.8711 -0.1180
 1570TIP3   OH226200   5.922   2.321   9.950 -0.4630 -0.4135 -0.2837
 1570TIP3    H126201   5.955   2.340   9.862 -0.8204 -0.6424 -0.4663
 1570TIP3    H226202   5.852   2.385   9.964 -0.6647 -0.6268 -0.3163
 1571TIP3   OH226203   4.412   3.787  13.896 -0.3102  1.0180  0.6494
 1571TIP3    H126204   4.496   3.829  13.911 -0.3013  1.7525 -1.1791
 1571TIP3    H226205   4.433   3.705  13.852 -0.4834  0.6169  1.3179
 1572TIP3   OH226206   3.554   4.337  10.271  0.2173  0.4063 -0.4668
 1572TIP3    H126207   3.492   4.401  10.236  1.5131  2.2309  0.5221
 1572TIP3    H226208   3.637   4.359  10.229  1.2506  1.0520  1.8616
 1573TIP3   OH226209   4.937   3.258  10.108  0.4348  0.1795  0.2295
 1573TIP3    H126210   4.981   3.285  10.189  0.4766 -1.0483  0.6363
 1573TIP3    H226211   5.002   3.273  10.039  0.0869  2.0652  0.2899
 1574TIP3   OH226212   4.215   1.941  10.371 -0.1835  0.0520 -0.2741
 1574TIP3    H126213   4.220   2.021  10.318 -0.2683 -0.3759 -0.9300
 1574TIP3    H226214   4.127   1.944  10.409 -0.4405 -0.0746 -0.8516
 1575TIP3   OH226215   5.010   1.265  13.719 -0.7859  0.4180  0.2184
 1575TIP3    H126216   4.927   1.304  13.692 -1.2560 -0.1468  0.8517
 1575TIP3    H226217   5.010   1.271  13.814 -1.3680 -2.1021  0.4286
 1576TIP3   OH226218   5.521   0.023  13.496 -0.3145  0.0170 -0.0027
 1576TIP3    H126219   5.533   0.073  13.576  2.6290  0.4994 -0.6845
 1576TIP3    H226220   5.570  -0.058  13.511 -0.3458 -0.1999 -1.0210
 1577TIP3   OH226221   2.803   2.962   9.737  0.3610  0.3074  0.4848
 1577TIP3    H126222   2.722   3.010   9.720  0.2365  0.3048  1.0766
 1577TIP3    H226223   2.855   2.975   9.657 -0.0902  0.5695  0.2305
 1578TIP3   OH226224   3.135   0.058  12.224  0.6690 -0.0325  0.1749
 1578TIP3    H126225   3.165   0.055  12.315  0.5280  0.2128  0.2292
 1578TIP3    H226226   3.179  -0.016  12.182 -2.5796 -2.8328  1.4470
 1579TIP3   OH226227   6.074   2.124  14.978  0.1933  0.2084 -0.0248
 1579TIP3    H126228   6.050   2.212  15.007 -1.0603 -0.0845 -0.1694
 1579TIP3    H226229   5.995   2.071  14.990  1.1174 -1.0543  0.6726
 1580TIP3   OH226230   4.824   3.874  12.689 -0.4640  0.0317  0.4529
 1580TIP3    H126231   4.791   3.960  12.714  1.5198  1.0765 -0.3402
 1580TIP3    H226232   4.836   3.879  12.595 -0.9903 -1.3564  0.3032
 1581TIP3   OH226233   3.919   1.235  13.364  0.4653 -0.4093 -0.2032
 1581TIP3    H126234   3.976   1.231  13.441 -0.4510  0.7098  0.5542
 1581TIP3    H226235   3.833   1.259  13.399 -0.2148 -0.9400 -1.4569
 1582TIP3   OH226236   3.855   4.934  10.283 -0.0964  0.3763 -0.4964
 1582TIP3    H126237   3.835   4.843  10.260 -0.1692  0.4269 -0.6371
 1582TIP3    H226238   3.770   4.971  10.307  0.0649  0.1672  0.4154
 1583TIP3   OH226239   2.537   6.045  10.135  0.6528 -0.1402  0.0423
 1583TIP3    H126240   2.582   6.120  10.174 -0.1517  0.2195  0.2812
 1583TIP3    H226241   2.530   5.982  10.207  2.0031 -0.7628 -0.3486
 1584TIP3   OH226242   5.840   3.895  10.907  0.0147  0.4419 -0.4082
 1584TIP3    H126243   5.926   3.894  10.865 -0.0388 -0.7375 -0.5278
 1584TIP3    H226244   5.791   3.827  10.859 -0.1780 -0.6321  1.2828
 1585TIP3   OH226245   0.381   2.001  11.273  0.3842  0.2544 -0.3911
 1585TIP3    H126246   0.364   1.980  11.365  0.7961  1.9444  0.0865
 1585TIP3    H226247   0.476   2.000  11.265  0.3957  1.4522 -0.4631
 1586TIP3   OH226248   5.079   2.980  10.309 -0.3254  0.1288 -0.4746
 1586TIP3    H126249   5.086   3.076  10.311 -2.4515  0.2962  0.1837
 1586TIP3    H226250   4.998   2.961  10.356  1.5080 -2.1870  1.8826
 1587TIP3   OH226251   2.225   3.327  11.372 -0.0230  0.3429  0.2565
 1587TIP3    H126252   2.261   3.240  11.355  0.0204  0.4070  0.0209
 1587TIP3    H226253   2.231   3.337  11.467 -0.8149 -0.2646  0.3840
 1588TIP3   OH226254   0.850   3.173  14.023 -0.2615  0.0850 -0.3340
 1588TIP3    H126255   0.905   3.095  14.031 -0.0339  0.3357  0.7143
 1588TIP3    H226256   0.912   3.246  14.022 -0.5551  0.3594  0.7017
 1589TIP3   OH226257   1.737   3.012  10.025  0.1085 -0.4004 -0.1997
 1589TIP3    H126258   1.647   3.044  10.029 -0.1393 -1.1312  0.1568
 1589TIP3    H226259   1.788   3.079  10.071 -0.3307 -0.2656  0.0935
 1590TIP3   OH226260   6.176   1.191  10.637 -0.3312  0.2090 -0.5229
 1590TIP3    H126261   6.115   1.217  10.568 -1.4433 -2.4041 -0.5420
 1590TIP3    H226262   6.259   1.177  10.591 -0.7345 -0.2358 -1.1174
 1591TIP3   OH226263   4.572   5.297  11.970 -0.3093 -0.1416 -0.3722
 1591TIP3    H126264   4.487   5.281  11.928 -0.4932  0.3750 -0.1970
 1591TIP3    H226265   4.603   5.379  11.931 -0.2068  0.0286  0.0609
 1592TIP3   OH226266   4.032   1.140  10.721 -0.5071 -0.6528 -0.4407
 1592TIP3    H126267   3.964   1.190  10.677 -0.8819 -1.0766 -0.3382
 1592TIP3    H226268   4.100   1.205  10.742 -0.0156 -0.5633 -2.2317
 1593TIP3   OH226269   5.455   0.922  11.391  0.5814  0.9139  1.2351
 1593TIP3    H126270   5.462   0.891  11.301 -0.7794  1.0796  1.0686
 1593TIP3    H226271   5.517   0.995  11.396  1.1044  0.5183  0.6111
 1594TIP3   OH226272   7.133   3.956  11.248 -0.3632  0.4538 -0.2086
 1594TIP3    H126273   7.220   3.952  11.288 -1.2024  0.6277  1.6657
 1594TIP3    H226274   7.124   3.873  11.202  1.2314  0.8952 -1.3630
 1595TIP3   OH226275   4.470   4.430  10.466 -0.4409  0.1659  0.0020
 1595TIP3    H126276   4.474   4.348  10.416 -0.8882 -0.2210  0.5856
 1595TIP3    H226277   4.454   4.498  10.400 -1.9011 -0.4445 -0.2913
 1596TIP3   OH226278   0.130   2.938  11.638 -0.2489  0.2465 -0.0367
 1596TIP3    H126279   0.166   2.852  11.658  0.7848  0.7923  0.4701
 1596TIP3    H226280   0.197   2.980  11.584 -0.3225  1.0900  0.5272
 1597TIP3   OH226281   5.372   3.382  10.635  0.5555  0.2007  1.1652
 1597TIP3    H126282   5.291   3.433  10.627 -0.3956 -1.5705 -1.1242
 1597TIP3    H226283   5.437   3.434  10.588  0.1737  0.4930  0.9517
 1598TIP3   OH226284   2.434   4.234  10.093  0.1347 -0.3239  0.3826
 1598TIP3    H126285   2.519   4.238  10.049  1.3984 -3.5101  2.3030
 1598TIP3    H226286   2.377   4.188  10.030  0.4677 -0.2271  0.0084
 1599TIP3   OH226287   4.379   2.146  10.980  0.0783  0.1032 -0.0989
 1599TIP3    H126288   4.419   2.189  11.055 -0.0905 -0.7259  0.4759
 1599TIP3    H226289   4.357   2.058  11.012 -2.3261  0.5837 -0.3440
 1600TIP3   OH226290   4.148   6.800  13.904  0.0639  0.6622 -0.8422
 1600TIP3    H126291   4.126   6.821  13.995  1.7294 -0.1013 -0.2440
 1600TIP3    H226292   4.097   6.863  13.852 -0.1304  1.7782  0.6580
 1601TIP3   OH226293   5.771   1.018  10.942  0.3219  0.0170  0.1347
 1601TIP3    H126294   5.863   1.005  10.963  0.9876  2.8641 -0.7607
 1601TIP3    H226295   5.758   0.972  10.860  0.7519 -1.0553  0.6693
 1602TIP3   OH226296   5.267   3.607  10.522 -0.4433 -0.5296  0.7038
 1602TIP3    H126297   5.181   3.640  10.496 -0.2229 -0.9059 -0.5458
 1602TIP3    H226298   5.329   3.670  10.485 -0.2001  0.3183  2.4879
 1603TIP3   OH226299   5.869   0.824  11.419  0.7324  0.3102  0.0628
 1603TIP3    H126300   5.781   0.856  11.401  0.3303  0.3653  1.9568
 1603TIP3    H226301   5.890   0.769  11.344  0.1400  2.3651 -1.6615
 1604TIP3   OH226302   4.399   6.343  13.403 -0.0384 -0.4840  0.6667
 1604TIP3    H126303   4.355   6.396  13.469 -0.4151  0.0913 -0.0337
 1604TIP3    H226304   4.431   6.407  13.338  0.5689 -1.0128  0.4342
 1605TIP3   OH226305   4.276   0.131  11.207  0.1003  0.3999 -0.0322
 1605TIP3    H126306   4.322   0.195  11.153 -0.5187  0.6971 -0.2187
 1605TIP3    H226307   4.212   0.092  11.147 -0.6152  0.7584  0.4959
 1606TIP3   OH226308   5.010   1.106  11.826 -0.3518 -0.1850  0.0842
 1606TIP3    H126309   4.958   1.044  11.776 -1.8990  1.1304  0.0282
 1606TIP3    H226310   4.962   1.189  11.820  1.3429  0.8776  0.6659
 1607TIP3   OH226311   5.642   2.395  11.255  0.3559 -0.4987 -0.1556
 1607TIP3    H126312   5.711   2.437  11.204 -1.0196  1.0349 -0.8231
 1607TIP3    H226313   5.634   2.448  11.334  0.4355 -1.1048  0.2665
 1608TIP3   OH226314   1.687   1.681  10.838 -0.2176 -0.5456 -0.6334
 1608TIP3    H126315   1.781   1.665  10.843 -0.0098 -1.3405 -4.7291
 1608TIP3    H226316   1.679   1.769  10.800 -1.1260 -0.5835 -0.5502
 1609TIP3   OH226317   1.328   3.612  10.052 -0.0732  0.0512  0.0650
 1609TIP3    H126318   1.301   3.534  10.004  0.0320  0.1858 -0.2118
 1609TIP3    H226319   1.274   3.683  10.015 -1.9131 -0.3040  1.9539
 1610TIP3   OH226320   6.405   0.715  10.480 -0.4992 -0.5473  0.3963
 1610TIP3    H126321   6.410   0.800  10.437 -0.7355  0.0721  1.5969
 1610TIP3    H226322   6.389   0.653  10.408 -1.1593  0.5163 -0.3832
 1611TIP3   OH226323   3.803   0.079  13.067  0.1606  0.2436 -0.2366
 1611TIP3    H126324   3.737   0.118  13.125  1.6462  0.5228  1.3214
 1611TIP3    H226325   3.804  -0.014  13.091  1.4198  0.5189  0.8909
 1612TIP3   OH226326   6.765   4.422  13.406  0.1225  0.3614 -0.3266
 1612TIP3    H126327   6.689   4.389  13.358  0.2999 -0.4809 -0.0562
 1612TIP3    H226328   6.814   4.473  13.342 -0.5230  0.6625 -0.5824
 1613TIP3   OH226329   1.157   3.517  11.026  0.0774 -0.1973  0.7725
 1613TIP3    H126330   1.166   3.598  11.078  0.7150  1.3552 -1.6861
 1613TIP3    H226331   1.222   3.526  10.956 -0.6485 -2.3394 -0.2117
 1614TIP3   OH226332   2.101   0.991  11.245  0.7336  0.1679  0.2548
 1614TIP3    H126333   2.067   1.038  11.321 -1.1208 -0.3067 -0.2406
 1614TIP3    H226334   2.077   0.899  11.260  1.1389 -0.0681 -0.4802
 1615TIP3   OH226335   6.615   1.976  11.020  0.1624  0.0800 -0.4548
 1615TIP3    H126336   6.542   1.999  10.963 -0.3847 -0.4577  0.0126
 1615TIP3    H226337   6.630   2.055  11.072 -0.8772 -0.1822  0.2695
 1616TIP3   OH226338   3.220   4.422  15.446 -0.0908 -0.6766  0.4195
 1616TIP3    H126339   3.166   4.501  15.443 -2.7285 -2.4479 -0.5902
 1616TIP3    H226340   3.247   4.415  15.537 -0.3659  1.0150  0.6530
 1617TIP3   OH226341   2.377   3.983  12.506  0.5400  0.6321  0.1946
 1617TIP3    H126342   2.445   3.999  12.440  0.2944 -0.1013 -0.2403
 1617TIP3    H226343   2.362   3.889  12.503 -0.0917  0.7113  0.6980
 1618TIP3   OH226344   2.145   3.904  13.156 -0.2851  0.5342 -0.1286
 1618TIP3    H126345   2.212   3.859  13.207 -0.0582  1.7374  0.6423
 1618TIP3    H226346   2.074   3.840  13.150 -0.5848  0.5817  2.2586
 1619TIP3   OH226347   4.487   4.187  10.342 -0.0843 -0.6677  0.7072
 1619TIP3    H126348   4.555   4.136  10.298  0.2176 -0.0171  0.4252
 1619TIP3    H226349   4.435   4.121  10.389 -1.9923 -1.6856 -2.7046
 1620TIP3   OH226350   4.150   0.705  11.216  0.2759 -0.3446 -0.5603
 1620TIP3    H126351   4.203   0.784  11.229  0.8121 -0.7869 -0.0030
 1620TIP3    H226352   4.109   0.717  11.130 -0.4414  0.9893 -0.0486
 1621TIP3   OH226353   5.075   3.217  12.445 -0.0618  0.3253  0.4827
 1621TIP3    H126354   4.994   3.206  12.396 -0.4811 -0.2356  1.2856
 1621TIP3    H226355   5.079   3.140  12.502  0.2302  1.1707  1.6038
 1622TIP3   OH226356   5.405   1.138   9.407  0.7986 -0.2039 -0.0860
 1622TIP3    H126357   5.500   1.148   9.407  0.9765 -1.8601  0.7695
 1622TIP3    H226358   5.390   1.046   9.425 -0.9571 -0.2249 -1.4866
 1623TIP3   OH226359   3.839   5.835  10.855  0.4776 -0.0870  0.5921
 1623TIP3    H126360   3.928   5.869  10.858  1.3144 -2.1627  0.1576
 1623TIP3    H226361   3.835   5.786  10.772 -0.4520 -1.6386  1.5268
 1624TIP3   OH226362   1.862   2.858  11.408  0.0638  0.5506  0.1959
 1624TIP3    H126363   1.842   2.821  11.494 -3.0471  0.0973 -0.6721
 1624TIP3    H226364   1.778   2.857  11.361  1.4333  1.9998 -2.3878
 1625TIP3   OH226365   5.344   0.119   9.728 -0.2899 -0.8263 -0.2070
 1625TIP3    H126366   5.335   0.027   9.753 -0.6398 -0.8746 -0.5120
 1625TIP3    H226367   5.397   0.117   9.648  1.2294 -0.6425  0.7648
 1626TIP3   OH226368   3.334   6.057  15.342  0.2492  0.0908 -0.4790
 1626TIP3    H126369   3.308   6.116  15.271  0.6300 -0.8177 -1.3806
 1626TIP3    H226370   3.338   6.114  15.419  1.4002  1.4304 -1.4826
 1627TIP3   OH226371   5.436   3.267  13.853 -0.0424 -0.7385 -0.2334
 1627TIP3    H126372   5.342   3.269  13.869 -0.6778 -4.5795 -2.8614
 1627TIP3    H226373   5.447   3.318  13.773 -0.0830 -1.3015 -0.6031
 1628TIP3   OH226374   4.646   0.114  12.460 -0.0819 -0.1839  0.0664
 1628TIP3    H126375   4.594   0.134  12.382  0.7883  0.9196 -0.2480
 1628TIP3    H226376   4.735   0.141  12.437  0.9139 -3.3241  0.0921
 1629TIP3   OH226377   7.163   1.962  12.672 -0.2765 -0.1765 -0.2200
 1629TIP3    H126378   7.196   1.990  12.587 -0.6882  1.5940  0.1798
 1629TIP3    H226379   7.075   1.930  12.654 -1.0985  2.0009 -0.1998
 1630TIP3   OH226380   3.472   2.793  12.067 -0.1512  0.2681  0.3255
 1630TIP3    H126381   3.384   2.816  12.095 -0.3706 -0.4634  0.2333
 1630TIP3    H226382   3.497   2.719  12.122 -0.3343 -0.7611 -0.9488
 1631TIP3   OH226383   3.919   5.412  13.427  0.2829 -0.3752 -0.5007
 1631TIP3    H126384   3.949   5.500  13.451  0.1933 -0.6653  0.7255
 1631TIP3    H226385   4.000   5.359  13.425  0.1272 -0.6809  0.6792
 1632TIP3   OH226386   4.352   6.936  11.466 -0.0516  0.1870 -0.2730
 1632TIP3    H126387   4.276   6.889  11.432 -0.3114  0.5872 -0.2496
 1632TIP3    H226388   4.330   7.029  11.455  0.2875  0.3066  0.0460
 1633TIP3   OH226389   1.558   1.151  12.206  0.4781 -0.3938  0.2985
 1633TIP3    H126390   1.631   1.097  12.174  0.2891  0.9328 -2.5466
 1633TIP3    H226391   1.481   1.116  12.162  0.1193  1.1532 -0.3378
 1634TIP3   OH226392   5.334   4.652  15.069  0.2294 -0.0536 -0.5006
 1634TIP3    H126393   5.350   4.581  15.008  0.8049 -0.6977  0.3860
 1634TIP3    H226394   5.264   4.620  15.126  0.1581  0.2778 -0.3986
 1635TIP3   OH226395   1.271   2.730  10.841 -0.8931 -0.0683 -0.4777
 1635TIP3    H126396   1.254   2.761  10.752  0.2102  0.4949 -0.4986
 1635TIP3    H226397   1.194   2.757  10.891 -1.0133  0.5915 -1.0193
 1636TIP3   OH226398   0.432   0.314  11.479 -0.2122  0.1991 -0.0836
 1636TIP3    H126399   0.443   0.385  11.542 -0.9383  1.0880 -0.9489
 1636TIP3    H226400   0.391   0.243  11.530  1.2277  0.0876  0.9717
 1637TIP3   OH226401   3.279   3.000  10.313  0.2565 -0.0131 -0.1364
 1637TIP3    H126402   3.191   3.018  10.280  0.5467  0.4408 -0.6648
 1637TIP3    H226403   3.332   3.074  10.283  1.3556 -1.4616 -1.8435
 1638TIP3   OH226404   4.007   5.082  12.485  0.2532 -0.8002  0.1418
 1638TIP3    H126405   3.952   5.012  12.519 -1.9306  0.6242 -0.3901
 1638TIP3    H226406   4.015   5.144  12.556 -0.8529  0.1615 -0.5600
 1639TIP3   OH226407   1.850   2.018   9.876 -0.1901  0.3150 -0.0162
 1639TIP3    H126408   1.771   2.064   9.904 -0.4345  0.2533 -0.6035
 1639TIP3    H226409   1.819   1.949   9.818 -0.1218 -2.7627  3.4685
 1640TIP3   OH226410   3.246   3.842  12.013  0.1203 -0.0097 -0.0683
 1640TIP3    H126411   3.152   3.833  12.027  0.2073  0.9062  1.2455
 1640TIP3    H226412   3.286   3.811  12.094  0.9384 -0.2563 -0.5610
 1641TIP3   OH226413   5.371   3.984  14.193  0.1243 -0.2272  0.1906
 1641TIP3    H126414   5.279   3.990  14.220  0.1714  0.1640  0.2637
 1641TIP3    H226415   5.408   4.069  14.214 -0.2376  0.6927 -2.6001
 1642TIP3   OH226416   2.258   3.248  10.710  0.0877 -0.0840  0.0330
 1642TIP3    H126417   2.246   3.245  10.615 -1.3661 -0.9627  0.2175
 1642TIP3    H226418   2.283   3.338  10.728  1.6252 -0.2113 -1.3092
 1643TIP3   OH226419   2.674   2.232  12.278 -0.6772  0.0609  0.1119
 1643TIP3    H126420   2.626   2.150  12.277 -0.8984  0.1800  0.8381
 1643TIP3    H226421   2.766   2.206  12.266 -0.8693 -0.1941 -0.8349
 1644TIP3   OH226422   0.378   1.489   9.917  0.4786 -0.3084 -0.1973
 1644TIP3    H126423   0.412   1.402   9.937  0.9750 -0.4735 -1.7034
 1644TIP3    H226424   0.456   1.543   9.902  0.2604  0.9842  2.9486
 1645TIP3   OH226425   4.868   3.602  12.633 -0.2434 -0.1216 -0.2465
 1645TIP3    H126426   4.866   3.696  12.616  1.0492  0.5091  2.8039
 1645TIP3    H226427   4.933   3.568  12.571  0.8780  1.3584  0.0834
 1646TIP3   OH226428   3.159   1.038  11.902  0.3326 -0.2305  0.6369
 1646TIP3    H126429   3.247   1.012  11.875  0.2044 -0.9780  0.9137
 1646TIP3    H226430   3.101   0.986  11.846  0.0711  0.0328  0.6649
 1647TIP3   OH226431   4.016   1.926  12.355  0.0102  0.3018 -0.6058
 1647TIP3    H126432   4.078   1.935  12.283  0.4370 -1.0231 -0.4328
 1647TIP3    H226433   3.945   1.874  12.318  0.3402 -0.5803 -0.0213
 1648TIP3   OH226434   0.114   3.243  12.092  0.2134  0.3628  0.1268
 1648TIP3    H126435   0.162   3.309  12.141 -0.2232 -0.1339  1.2581
 1648TIP3    H226436   0.022   3.268  12.102  0.2081  1.2395 -1.9212
 1649TIP3   OH226437   7.182   0.759  11.571 -0.1193  0.3751 -0.0010
 1649TIP3    H126438   7.129   0.683  11.596  0.3404  0.1204  0.2025
 1649TIP3    H226439   7.118   0.830  11.560 -0.5964 -0.1309 -0.5599
 1650TIP3   OH226440   6.448   1.993  12.510  0.3354 -0.6483  0.1903
 1650TIP3    H126441   6.522   2.049  12.485  0.4081  0.0451  1.8959
 1650TIP3    H226442   6.488   1.908  12.527  0.3720 -0.9590 -1.3860
 1651TIP3   OH226443   1.417   6.711  13.550  0.3046  0.2748  0.4383
 1651TIP3    H126444   1.425   6.702  13.645  1.8478  1.2495  0.4209
 1651TIP3    H226445   1.408   6.806  13.537  1.2779  0.2534 -0.4504
 1652TIP3   OH226446   5.292   1.198  12.463  0.2977 -0.5857 -0.4068
 1652TIP3    H126447   5.270   1.105  12.456  2.5215 -1.0519 -1.3869
 1652TIP3    H226448   5.341   1.205  12.545 -2.2331  0.2351  1.1046
 1653TIP3   OH226449   4.918   1.631  12.045 -0.3495 -0.0410 -0.3791
 1653TIP3    H126450   5.002   1.620  11.999 -0.2358  0.1394 -0.2173
 1653TIP3    H226451   4.867   1.688  11.987 -0.9266 -1.3682 -1.1977
 1654TIP3   OH226452   5.609   2.843  11.056 -0.8102  0.0611  0.0529
 1654TIP3    H126453   5.629   2.753  11.031  0.2303 -0.1771  1.6547
 1654TIP3    H226454   5.533   2.835  11.113 -0.2347  0.1151  0.8288
 1655TIP3   OH226455   6.999   3.373  10.501 -0.1577 -0.3001  0.0141
 1655TIP3    H126456   7.090   3.345  10.493 -0.0545 -0.0481  0.2865
 1655TIP3    H226457   6.993   3.408  10.590  0.4672  3.3009 -1.2695
 1656TIP3   OH226458   5.415   0.617  10.465 -0.3030 -0.7127 -0.5506
 1656TIP3    H126459   5.361   0.559  10.518 -0.9314 -0.5988 -1.0707
 1656TIP3    H226460   5.376   0.614  10.378  1.0154 -1.2801 -1.1349
 1657TIP3   OH226461   4.913   0.808  10.399  0.5263 -0.3925  0.1772
 1657TIP3    H126462   4.994   0.807  10.449  0.8220  1.7289 -0.1954
 1657TIP3    H226463   4.938   0.844  10.314 -0.7486  0.0369 -0.0322
 1658TIP3   OH226464   1.271   1.033  10.635  0.4236 -0.4964 -0.0568
 1658TIP3    H126465   1.235   1.110  10.678 -0.7920 -0.9259 -0.3071
 1658TIP3    H226466   1.356   1.062  10.601 -0.1313  0.7908 -0.3534
 1659TIP3   OH226467   2.796   2.999  11.885 -0.1600 -0.5615 -0.4143
 1659TIP3    H126468   2.764   3.040  11.804 -2.8911  0.2972  1.0314
 1659TIP3    H226469   2.755   2.913  11.886 -0.1363 -0.5676  0.0304
 1660TIP3   OH226470   5.917   1.324  11.619 -0.0131  0.4486  0.4391
 1660TIP3    H126471   5.996   1.377  11.633 -0.5546  1.1513  0.8787
 1660TIP3    H226472   5.886   1.348  11.532 -0.0252  0.5432  0.4706
 1661TIP3   OH226473   4.234   7.010  10.599  0.0839  0.0550  0.0124
 1661TIP3    H126474   4.329   7.012  10.608  0.0252 -1.4070  1.1824
 1661TIP3    H226475   4.203   7.088  10.644  0.7206  0.4395 -0.2124
 1662TIP3   OH226476   3.775   0.834   0.439  0.6293  0.5222 -0.3200
 1662TIP3    H126477   3.830   0.786   0.500 -1.1764 -1.6965 -0.3774
 1662TIP3    H226478   3.774   0.924   0.473  0.8974 -0.3249  2.0232
 1663TIP3   OH226479   3.924   2.468  10.818  0.2106 -0.0700  0.3892
 1663TIP3    H126480   3.891   2.532  10.755 -2.0955 -1.4863  0.1039
 1663TIP3    H226481   3.977   2.408  10.766 -0.7380 -0.5702 -0.0049
 1664TIP3   OH226482   2.960   0.796  12.036 -0.1764  0.3224  0.0107
 1664TIP3    H126483   3.049   0.784  12.070 -1.3297 -0.5295  2.8050
 1664TIP3    H226484   2.973   0.826  11.946  2.9405 -0.0119  0.3020
 1665TIP3   OH226485   4.837   3.588  10.049  0.1787 -0.7058  0.7960
 1665TIP3    H126486   4.865   3.591  10.141  0.6950  0.3276  0.6139
 1665TIP3    H226487   4.829   3.680  10.024 -2.1159 -0.9668  0.4457
 1666TIP3   OH226488   5.951   4.412  12.457  0.5129  0.2135  0.1167
 1666TIP3    H126489   5.877   4.358  12.428  1.5289  0.1800 -2.5064
 1666TIP3    H226490   5.965   4.386  12.548 -2.8392  0.3946  0.7366
 1667TIP3   OH226491   4.339   6.299  14.482  0.1040  0.0491  0.2411
 1667TIP3    H126492   4.320   6.380  14.435 -1.9885 -1.4310 -1.5875
 1667TIP3    H226493   4.335   6.322  14.574  0.4624  2.2129 -0.2700
 1668TIP3   OH226494   0.072   6.758  11.504  0.3571  0.2829  0.9787
 1668TIP3    H126495   0.116   6.700  11.442 -1.9525 -0.1287 -0.3297
 1668TIP3    H226496   0.040   6.700  11.573 -0.5580  0.1883  0.4863
 1669TIP3   OH226497   1.079   4.543  11.941 -0.1102 -0.2045 -0.0581
 1669TIP3    H126498   0.988   4.513  11.947 -0.5566  0.9343 -1.0657
 1669TIP3    H226499   1.079   4.629  11.983  0.6824 -0.5291  0.6441
 1670TIP3   OH226500   1.295   5.555  10.137 -0.0103  0.0194  0.1774
 1670TIP3    H126501   1.354   5.587  10.205 -0.8504 -0.1633  0.9979
 1670TIP3    H226502   1.215   5.533  10.183 -0.8483  0.6054 -0.9873
 1671TIP3   OH226503   4.568   3.639  13.715 -0.0806  0.1150 -0.1070
 1671TIP3    H126504   4.582   3.567  13.776 -3.9002 -0.5695  0.0644
 1671TIP3    H226505   4.532   3.598  13.636 -1.8153  1.7596 -0.2057
 1672TIP3   OH226506   1.789   0.214  10.557  0.3262  0.7061 -0.1534
 1672TIP3    H126507   1.792   0.303  10.592 -2.5078  1.2076 -1.0769
 1672TIP3    H226508   1.811   0.223  10.465  1.4124  0.2268  0.0425
 1673TIP3   OH226509   5.859   3.781  12.778 -0.5824 -0.1053 -0.3010
 1673TIP3    H126510   5.804   3.858  12.787  0.9188  0.9610 -0.0612
 1673TIP3    H226511   5.814   3.713  12.828 -2.1186  0.5017 -0.8616
 1674TIP3   OH226512   3.201   0.732  12.151 -0.2861  0.3640 -0.3752
 1674TIP3    H126513   3.266   0.662  12.145 -0.8419 -0.0433 -1.8798
 1674TIP3    H226514   3.242   0.798  12.207  0.2631 -1.1324  1.0530
 1675TIP3   OH226515   3.330   4.503  10.521  0.2043  0.1426 -0.0903
 1675TIP3    H126516   3.257   4.446  10.545 -2.0041  2.8576 -0.2462
 1675TIP3    H226517   3.328   4.504  10.425  1.4197 -0.9258 -0.1564
 1676TIP3   OH226518   1.073   2.793  11.005 -0.1598 -0.9517 -0.4665
 1676TIP3    H126519   0.982   2.812  10.979  0.6377 -0.0582 -2.7025
 1676TIP3    H226520   1.066   2.764  11.096 -2.3579  2.1260  0.4300
 1677TIP3   OH226521   4.196   3.727  10.660  0.3381  0.3154  0.3855
 1677TIP3    H126522   4.143   3.757  10.586  2.6194  0.2830 -1.2921
 1677TIP3    H226523   4.132   3.716  10.731 -1.9029  0.2539 -1.5609
 1678TIP3   OH226524   0.923   3.755   9.951 -0.5497 -0.0391  0.2915
 1678TIP3    H126525   0.882   3.823   9.896  0.1246  0.2511  0.1421
 1678TIP3    H226526   1.017   3.764   9.934 -0.1636  1.1609  2.7406
 1679TIP3   OH226527   1.681   3.904  10.820 -0.2874 -0.8524  0.2382
 1679TIP3    H126528   1.692   3.896  10.915 -0.1661 -0.6655  0.2426
 1679TIP3    H226529   1.604   3.851  10.799 -0.9244 -0.0756  0.5840
 1680TIP3   OH226530   7.171   3.744  10.483  0.5633  0.1477 -0.0465
 1680TIP3    H126531   7.124   3.698  10.553  2.1655  0.7698  1.5025
 1680TIP3    H226532   7.141   3.703  10.403 -0.0233 -1.8290  1.1399
 1681TIP3   OH226533   3.566   6.678  11.043  0.1208 -0.2552 -0.4471
 1681TIP3    H126534   3.567   6.719  10.956  0.8431 -0.6053 -0.6113
 1681TIP3    H226535   3.638   6.614  11.040 -1.3475 -1.9523 -0.4131
 1682TIP3   OH226536   3.209   6.367  12.585  0.9348 -0.2514  0.0998
 1682TIP3    H126537   3.170   6.374  12.672  0.0836  0.9573 -0.3618
 1682TIP3    H226538   3.197   6.454  12.546  1.2670 -0.7885 -1.2303
 1683TIP3   OH226539   6.484   0.606   9.989 -0.9445  0.2087 -0.4885
 1683TIP3    H126540   6.539   0.681   9.967 -2.2296  1.1983 -0.4277
 1683TIP3    H226541   6.467   0.564   9.905 -0.1547 -0.0633 -0.5144
 1684TIP3   OH226542   4.687   2.655  12.618 -0.3127  0.5145  0.5497
 1684TIP3    H126543   4.746   2.586  12.649 -2.6093 -2.3813 -1.2920
 1684TIP3    H226544   4.701   2.727  12.679  1.8459 -1.7305  2.8445
 1685TIP3   OH226545   5.037   2.264  11.493 -0.3497  0.0613 -0.0516
 1685TIP3    H126546   5.097   2.336  11.474  1.8965 -1.5038  0.9283
 1685TIP3    H226547   5.036   2.259  11.589 -1.6533 -0.2535 -0.0803
 1686TIP3   OH226548   4.028   3.129   9.191  0.3916  0.0257 -0.3217
 1686TIP3    H126549   4.039   3.219   9.219 -0.2528  0.6776 -2.0976
 1686TIP3    H226550   4.118   3.095   9.183  0.6156  0.1939  1.2316
 1687TIP3   OH226551   4.608   2.205  12.236  0.1442  0.0939  0.8495
 1687TIP3    H126552   4.525   2.227  12.194  0.7969  2.7176  0.8426
 1687TIP3    H226553   4.612   2.263  12.313  1.5234 -0.6776  1.3702
 1688TIP3   OH226554   6.377   2.174  10.399  0.2285 -0.9114  0.2774
 1688TIP3    H126555   6.428   2.168  10.479  0.3687 -0.5907  0.2133
 1688TIP3    H226556   6.292   2.207  10.427 -0.2509 -2.3066  0.5047
 1689TIP3   OH226557   0.532   5.508  10.897 -0.7406  0.8373 -0.5582
 1689TIP3    H126558   0.516   5.416  10.919  0.3991  1.4334  3.1098
 1689TIP3    H226559   0.471   5.556  10.953 -0.2460  2.3926 -1.3492
 1690TIP3   OH226560   5.439   6.544  14.555 -0.0459 -0.3389  0.3880
 1690TIP3    H126561   5.513   6.512  14.502 -0.2880  0.6225 -0.5561
 1690TIP3    H226562   5.367   6.485  14.533  0.2843 -0.9285  0.8755
 1691TIP3   OH226563   0.787   1.026  11.781  0.2189 -0.2842  0.2255
 1691TIP3    H126564   0.877   0.997  11.797  0.8198  0.3623 -1.9318
 1691TIP3    H226565   0.768   0.998  11.692 -1.1639  1.0151  0.1028
 1692TIP3   OH226566   4.538   5.384  10.981  0.2674 -0.4685 -0.8550
 1692TIP3    H126567   4.575   5.324  11.045  1.4275 -0.6087 -1.6507
 1692TIP3    H226568   4.445   5.388  11.003  0.3910 -1.6657 -0.0924
 1693TIP3   OH226569   4.465   2.063  11.583 -0.5899 -0.4675  0.8753
 1693TIP3    H126570   4.543   2.008  11.574  0.7171  1.4243  0.4523
 1693TIP3    H226571   4.410   2.017  11.647  1.2613 -1.3802  1.8293
 1694TIP3   OH226572   2.571   0.983  10.756  0.1980  0.2064 -0.0996
 1694TIP3    H126573   2.599   0.891  10.751  2.4697  0.5958  3.5222
 1694TIP3    H226574   2.627   1.028  10.692  0.3203 -0.6532 -0.6165
 1695TIP3   OH226575   2.195   2.760  10.034  0.3259 -0.2768 -0.4965
 1695TIP3    H126576   2.132   2.743   9.964 -0.5042  0.1210  0.1572
 1695TIP3    H226577   2.142   2.785  10.110  1.2572  0.0444  0.0623
 1696TIP3   OH226578   2.301   3.363  12.182 -0.2427  0.2485  0.0481
 1696TIP3    H126579   2.285   3.329  12.094  1.5208  0.2134 -0.2870
 1696TIP3    H226580   2.313   3.286  12.237 -1.6021  0.2663  0.3810
 1697TIP3   OH226581   3.859   2.255  11.347 -0.4440  0.2958  0.4419
 1697TIP3    H126582   3.851   2.313  11.271  0.2628  0.0859  0.1986
 1697TIP3    H226583   3.814   2.301  11.418  1.0956  1.7118  0.5503
 1698TIP3   OH226584   4.422   3.014  10.523 -0.2212  0.3215  0.5525
 1698TIP3    H126585   4.334   2.997  10.557 -0.0675 -1.9115 -0.1258
 1698TIP3    H226586   4.480   3.003  10.598 -0.4304  1.1428  0.8466
 1699TIP3   OH226587   5.989   3.145  14.555 -0.6440  0.6234 -0.0669
 1699TIP3    H126588   5.993   3.120  14.647 -1.6023 -0.3888 -0.2846
 1699TIP3    H226589   5.944   3.071  14.512  1.6711  0.0883 -1.6870
 1700TIP3   OH226590   6.300   0.639  10.249  0.3739  0.0247  0.3283
 1700TIP3    H126591   6.231   0.584  10.212  0.1637  0.6717 -0.2464
 1700TIP3    H226592   6.367   0.643  10.181  0.2833  0.6692  0.2690
 1701TIP3   OH226593   4.249   2.539  11.205 -0.0152  0.4100 -0.8581
 1701TIP3    H126594   4.273   2.456  11.246 -1.2945 -0.9751 -2.8638
 1701TIP3    H226595   4.154   2.545  11.217 -0.3371  0.2405 -3.1052
 1702TIP3   OH226596   4.392   1.737   9.701 -0.3333 -0.3117 -0.2256
 1702TIP3    H126597   4.475   1.702   9.732 -1.2656 -2.2824  0.0884
 1702TIP3    H226598   4.338   1.660   9.683 -2.3681  0.9469  0.3332
 1703TIP3   OH226599   6.217   2.298   9.914 -0.3234  0.1445 -0.4730
 1703TIP3    H126600   6.210   2.370   9.851  0.1601 -0.8930 -1.7314
 1703TIP3    H226601   6.258   2.337   9.991 -1.0273  1.4575 -0.7475
 1704TIP3   OH226602   0.954   0.181  11.458  0.4731  0.4086 -0.0338
 1704TIP3    H126603   1.009   0.186  11.381 -0.6080  0.3210 -0.8232
 1704TIP3    H226604   0.963   0.091  11.489  0.0926  0.1592 -0.6596
 1705TIP3   OH226605   5.948   6.338  10.450 -0.2015  0.3827  0.6643
 1705TIP3    H126606   5.990   6.365  10.369 -0.3720  0.7835  0.7091
 1705TIP3    H226607   5.863   6.303  10.422  0.1525 -0.4125  0.5765
 1706TIP3   OH226608   1.198   6.439  12.690 -0.0983 -0.4848  0.8853
 1706TIP3    H126609   1.114   6.430  12.645  0.3923 -0.5913 -0.0465
 1706TIP3    H226610   1.228   6.349  12.703  0.0112 -0.4439  0.9190
 1707TIP3   OH226611   6.661   1.600  10.293 -0.0496 -0.1860 -0.1311
 1707TIP3    H126612   6.722   1.673  10.282  0.7977 -0.7297  0.9533
 1707TIP3    H226613   6.586   1.638  10.340  1.2237 -0.4255  2.1688
 1708TIP3   OH226614   7.096   4.956  10.401  0.1228 -0.0087  0.0021
 1708TIP3    H126615   7.171   4.954  10.342  0.2799  0.9277  0.1562
 1708TIP3    H226616   7.060   5.044  10.390 -1.6896 -0.8496 -1.0014
 1709TIP3   OH226617   2.030   1.860   9.578 -0.3333  0.1239  0.3104
 1709TIP3    H126618   1.959   1.836   9.638 -0.9838  0.1284 -0.4450
 1709TIP3    H226619   2.096   1.792   9.592 -0.2487  0.4190  1.4056
 1710TIP3   OH226620   2.708   2.288  10.514 -0.0071 -0.0324 -0.4746
 1710TIP3    H126621   2.723   2.200  10.480  2.1903  0.1648 -0.0694
 1710TIP3    H226622   2.764   2.345  10.462 -1.5116  1.1713 -0.8229
 1711TIP3   OH226623   6.679   5.396  10.347 -0.5035 -0.1172 -0.2483
 1711TIP3    H126624   6.635   5.481  10.349 -0.7651 -0.2132 -1.5651
 1711TIP3    H226625   6.611   5.335  10.320  0.1816 -0.4312 -1.2535
 1712TIP3   OH226626   6.167   1.946  10.918 -0.1158  0.2933  0.1620
 1712TIP3    H126627   6.161   1.874  10.981 -1.2614 -0.2555 -0.5747
 1712TIP3    H226628   6.124   1.914  10.839  1.7348  0.8039 -1.0933
 1713TIP3   OH226629   4.045   2.207   9.982 -0.2809  0.1337  0.0425
 1713TIP3    H126630   4.121   2.255   9.946  0.7945 -1.2918  0.3842
 1713TIP3    H226631   4.022   2.256  10.061 -0.5432  1.3253 -0.7457
 1714TIP3   OH226632   1.056   2.520  14.216 -0.0234  0.3285  0.4107
 1714TIP3    H126633   1.063   2.501  14.310 -1.9990  1.9366  0.9199
 1714TIP3    H226634   0.964   2.507  14.195  0.3563  0.2291 -1.2689
 1715TIP3   OH226635   2.657   6.936  10.021  0.2155  0.0383  0.7134
 1715TIP3    H126636   2.575   6.916  10.066 -0.0899 -0.4268 -0.0309
 1715TIP3    H226637   2.713   6.974  10.088  0.0057 -1.2553  1.6444
 1716TIP3   OH226638   0.948   0.304  10.557  0.1925  0.2193 -0.4924
 1716TIP3    H126639   0.861   0.343  10.556  0.2681  0.3964 -0.1222
 1716TIP3    H226640   0.937   0.221  10.604  0.2902  0.4007 -0.1470
 1717TIP3   OH226641   3.586   1.287  10.779  0.5836  0.0538  0.0227
 1717TIP3    H126642   3.595   1.381  10.790 -2.5877  0.7841 -2.7578
 1717TIP3    H226643   3.626   1.268  10.694  0.4616 -0.9849  0.1813
 1718TIP3   OH226644   2.001   4.082  10.711 -0.1764 -0.0267 -0.2673
 1718TIP3    H126645   2.050   4.163  10.721 -2.1798  1.7539 -3.7330
 1718TIP3    H226646   2.040   4.039  10.635  0.5068 -2.0683  1.2035
 1719TIP3   OH226647   6.133   2.973   9.712 -0.2420 -0.5857 -0.1042
 1719TIP3    H126648   6.169   2.894   9.753 -0.4319 -1.0349 -0.7885
 1719TIP3    H226649   6.061   2.941   9.658  0.8422 -0.1904 -1.8467
 1720TIP3   OH226650   5.469   0.803  12.386 -0.0182 -0.1377 -0.1582
 1720TIP3    H126651   5.484   0.765  12.473 -0.6029 -2.1445 -0.9087
 1720TIP3    H226652   5.387   0.853  12.396  1.5956  2.3788  1.2586
 1721TIP3   OH226653   6.261   3.174  13.204  0.3051 -0.3811  0.2765
 1721TIP3    H126654   6.348   3.186  13.242 -0.4158  1.1881  1.5194
 1721TIP3    H226655   6.218   3.259  13.216 -1.1566 -0.9207 -0.9536
 1722TIP3   OH226656   0.921   6.746  11.710 -0.0041 -0.1348 -0.0621
 1722TIP3    H126657   0.993   6.774  11.766 -0.3996 -0.4696  0.6329
 1722TIP3    H226658   0.963   6.710  11.632  0.6125 -1.2981  0.7934
 1723TIP3   OH226659   0.972   4.086  14.945 -0.1346 -0.1229  0.0940
 1723TIP3    H126660   1.011   4.015  14.895  0.0248  0.4170 -0.5506
 1723TIP3    H226661   1.004   4.073  15.035  1.8910  0.5783 -0.5062
 1724TIP3   OH226662   2.489   0.641  11.588 -0.2789  0.7123 -0.6791
 1724TIP3    H126663   2.564   0.699  11.575 -1.2770  1.5027 -3.1117
 1724TIP3    H226664   2.494   0.579  11.515 -0.8250 -0.5352  0.3252
 1725TIP3   OH226665   2.205   4.558  13.355 -0.1780 -0.2232 -0.0493
 1725TIP3    H126666   2.223   4.652  13.351 -1.3272  0.0440  0.5931
 1725TIP3    H226667   2.228   4.525  13.268  1.7507  0.3558  0.2276
 1726TIP3   OH226668   0.547   1.136   9.923 -0.1431 -0.5865  0.1419
 1726TIP3    H126669   0.532   1.205   9.989  1.5783 -0.2830  0.2246
 1726TIP3    H226670   0.499   1.167   9.846 -0.1151  0.2773  0.4628
 1727TIP3   OH226671   2.360   5.903  10.734  0.6561 -0.5701  0.2734
 1727TIP3    H126672   2.374   5.820  10.689  3.0209 -0.8453  1.4375
 1727TIP3    H226673   2.337   5.965  10.665 -0.3727 -2.0067 -0.6914
 1728TIP3   OH226674   3.973   2.619  11.310 -0.3253 -0.1862 -0.0857
 1728TIP3    H126675   3.929   2.621  11.225 -1.1371  0.0095  0.3318
 1728TIP3    H226676   3.903   2.636  11.373  0.6649  2.0239  0.4751
 1729TIP3   OH226677   6.503   5.386  13.606 -0.8624  0.4072  0.1021
 1729TIP3    H126678   6.485   5.292  13.596  0.0754  0.2040  0.2368
 1729TIP3    H226679   6.477   5.406  13.695 -0.7448  0.1984  0.1837
 1730TIP3   OH226680   6.081   4.150  12.929 -0.4359  0.7472  0.1151
 1730TIP3    H126681   6.010   4.154  12.994 -0.5923 -2.6588  0.2625
 1730TIP3    H226682   6.161   4.157  12.981 -0.6087  0.8845  0.3676
 1731TIP3   OH226683   6.891   3.533  11.015  0.4901 -0.1188 -0.7686
 1731TIP3    H126684   6.897   3.523  10.919  1.5045 -3.0352 -0.4705
 1731TIP3    H226685   6.846   3.453  11.044 -0.3011  1.0089  1.1572
 1732TIP3   OH226686   3.557   3.846  11.943  0.0973  0.1698  0.5766
 1732TIP3    H126687   3.571   3.791  12.020 -1.1577  0.3021  0.9132
 1732TIP3    H226688   3.562   3.785  11.869  1.3781  0.0571  0.7515
 1733TIP3   OH226689   2.926   3.014  11.311 -0.5931 -0.1252  0.6340
 1733TIP3    H126690   3.010   3.055  11.292 -0.8742 -0.0053 -0.4142
 1733TIP3    H226691   2.861   3.073  11.273 -0.9967 -1.5337 -0.9259
 1734TIP3   OH226692   4.223   4.883  11.849 -0.3834 -0.3259  0.5861
 1734TIP3    H126693   4.271   4.813  11.893  0.4159 -1.3537 -1.7824
 1734TIP3    H226694   4.204   4.847  11.762 -1.5170  1.7637 -0.0697
 1735TIP3   OH226695   1.060   0.564  10.636 -0.0108 -0.0156 -0.1079
 1735TIP3    H126696   1.075   0.600  10.723 -0.2816 -0.1146 -0.0215
 1735TIP3    H226697   0.988   0.501  10.647 -0.6028  0.5767 -0.5573
 1736TIP3   OH226698   4.294   2.672  10.360 -0.0701 -0.1494 -0.1778
 1736TIP3    H126699   4.319   2.663  10.268 -1.3027 -2.8272 -0.2838
 1736TIP3    H226700   4.343   2.603  10.405 -1.0809 -0.1941  0.8591
 1737TIP3   OH226701   6.221   3.216  10.300  0.3761  0.4051 -0.0228
 1737TIP3    H126702   6.293   3.160  10.273  1.2580  0.9098  1.2331
 1737TIP3    H226703   6.242   3.302  10.264 -1.1133 -0.1029 -2.1829
 1738TIP3   OH226704   6.138   2.648  10.648 -0.1260  0.4875 -0.0808
 1738TIP3    H126705   6.144   2.624  10.740  0.1968  0.9211  0.0119
 1738TIP3    H226706   6.215   2.608  10.607 -0.1154  0.5362 -0.1099
 1739TIP3   OH226707   6.110   0.792  10.879 -0.3070  0.6588  0.2087
 1739TIP3    H126708   6.077   0.705  10.859 -2.8341  1.7801 -0.7870
 1739TIP3    H226709   6.199   0.793  10.845 -0.4345 -1.3545 -0.2163
 1740TIP3   OH226710   5.087   6.460  11.093 -0.6549 -0.1175 -0.0121
 1740TIP3    H126711   5.085   6.537  11.151 -0.9579 -0.8230  0.9236
 1740TIP3    H226712   5.171   6.419  11.110 -1.3283 -1.1180  0.9851
 1741TIP3   OH226713   2.178   2.409  11.021  0.0466 -0.3998 -0.3818
 1741TIP3    H126714   2.237   2.364  10.960  1.1914 -0.5401  0.8271
 1741TIP3    H226715   2.232   2.429  11.097 -1.3345 -0.0705  0.5295
 1742TIP3   OH226716   6.736   0.932  13.387 -0.9929  0.3360 -0.0498
 1742TIP3    H126717   6.741   1.028  13.388  0.3636  0.2722  1.5397
 1742TIP3    H226718   6.655   0.912  13.433 -1.0022  0.7228  0.1073
 1743TIP3   OH226719   6.084   6.391   9.402 -0.0119  0.5169  0.2668
 1743TIP3    H126720   6.038   6.314   9.370  1.8621 -0.6891  0.3667
 1743TIP3    H226721   6.020   6.437   9.456 -1.5684 -0.2362 -0.8912
 1744TIP3   OH226722   6.861   3.225  12.168  0.2088 -0.4745 -0.0053
 1744TIP3    H126723   6.846   3.240  12.262  1.4978 -0.9197  0.2761
 1744TIP3    H226724   6.773   3.217  12.132 -0.3031 -1.2613  1.3369
 1745TIP3   OH226725   1.521   3.848  12.196 -0.1419  0.1135  0.0139
 1745TIP3    H126726   1.509   3.827  12.289  0.1496 -0.3929 -0.0583
 1745TIP3    H226727   1.609   3.815  12.176  0.1506  1.0226 -0.2160
 1746TIP3   OH226728   3.202   0.023  11.880  0.4345  0.2627 -0.1936
 1746TIP3    H126729   3.146   0.051  11.808  0.8748 -0.1758 -0.7090
 1746TIP3    H226730   3.277   0.082  11.878  0.7736 -0.1759 -0.5194
 1747TIP3   OH226731   0.751   2.892  11.186 -0.5950 -0.1096 -0.6832
 1747TIP3    H126732   0.780   2.962  11.127  0.7588 -0.2869 -0.2462
 1747TIP3    H226733   0.832   2.855  11.220 -1.2458 -2.7223 -1.8547
 1748TIP3   OH226734   5.464   0.888   0.061  0.2332 -0.0225 -0.2541
 1748TIP3    H126735   5.385   0.888   0.114  0.1932 -0.4013 -0.3133
 1748TIP3    H226736   5.461   0.972   0.014 -2.3794 -1.8417 -3.5635
 1749TIP3   OH226737   0.778   3.080  10.350 -0.0354 -0.2201  0.4553
 1749TIP3    H126738   0.863   3.055  10.387  0.7056  0.6055 -0.6728
 1749TIP3    H226739   0.748   3.002  10.304  0.4026 -0.3182  0.3312
 1750TIP3   OH226740   1.002   3.107  11.078 -0.3678  0.2075 -0.5109
 1750TIP3    H126741   0.975   3.195  11.105  0.5512  0.1382  0.6819
 1750TIP3    H226742   1.096   3.116  11.060 -0.3664 -0.4234 -0.8103
 1751TIP3   OH226743   4.296   2.378  11.517 -0.2518 -0.7823  0.0715
 1751TIP3    H126744   4.315   2.285  11.523 -0.1287 -0.7861 -0.3430
 1751TIP3    H226745   4.370   2.421  11.560 -0.8855 -0.9196  1.2965
 1752TIP3   OH226746   0.509   3.885  12.374 -0.3489  0.4385  0.1534
 1752TIP3    H126747   0.560   3.894  12.294  0.6134  1.2547  0.8510
 1752TIP3    H226748   0.501   3.791  12.387 -0.8790  0.2925 -1.1283
 1753TIP3   OH226749   6.343   1.277   9.867 -0.3466 -0.0928 -0.1207
 1753TIP3    H126750   6.349   1.329   9.787  1.8576  0.5801  0.4369
 1753TIP3    H226751   6.264   1.225   9.856 -2.0002  2.5437 -1.2195
 1754TIP3   OH226752   6.124   2.052   9.913 -0.0026  0.1326  0.2252
 1754TIP3    H126753   6.131   2.147   9.910  0.1314  0.1178  0.0340
 1754TIP3    H226754   6.072   2.029   9.836 -1.6532  0.1943  1.3086
 1755TIP3   OH226755   6.481   1.433  12.887  0.7590 -0.0559 -0.1459
 1755TIP3    H126756   6.420   1.506  12.885 -0.5418 -1.1217 -0.0757
 1755TIP3    H226757   6.481   1.403  12.978  0.6197 -0.6867 -0.3471
 1756TIP3   OH226758   4.650   3.644  12.464  0.3634 -0.0441 -0.6175
 1756TIP3    H126759   4.597   3.598  12.400  0.9590 -0.1087 -1.0740
 1756TIP3    H226760   4.739   3.613  12.448  0.7425  1.0923 -0.7949
 1757TIP3   OH226761   5.240   2.509  11.474  0.3924  0.5939  0.0712
 1757TIP3    H126762   5.277   2.581  11.424  0.5973  0.0703 -0.5373
 1757TIP3    H226763   5.316   2.459  11.505  0.2386  0.3021 -0.0142
 1758TIP3   OH226764   4.722   4.224  14.120 -0.1232  0.1165 -0.2496
 1758TIP3    H126765   4.756   4.280  14.051 -1.0652  2.2668  0.9777
 1758TIP3    H226766   4.628   4.245  14.124  0.1079  0.8541  2.3984
 1759TIP3   OH226767   3.548   3.934  13.093  0.3671 -0.0878  0.1329
 1759TIP3    H126768   3.477   3.891  13.045 -0.4934  1.9769 -0.5021
 1759TIP3    H226769   3.620   3.937  13.030  0.3262 -0.3025  0.0725
 1760TIP3   OH226770   3.652   2.643  10.464  0.2851 -0.4171  0.3301
 1760TIP3    H126771   3.568   2.642  10.418  0.1936 -0.1623  0.4883
 1760TIP3    H226772   3.678   2.551  10.470  0.2699 -0.4556 -0.1796
 1761TIP3   OH226773   6.173   1.732   9.392  0.5883  0.1013 -0.2347
 1761TIP3    H126774   6.108   1.665   9.410 -0.4063  0.8270 -1.0636
 1761TIP3    H226775   6.256   1.693   9.420  0.3559 -2.3312 -2.6801
 1762TIP3   OH226776   4.803   2.985  10.130  1.3234  0.0236 -0.4054
 1762TIP3    H126777   4.755   2.999  10.211 -0.6258  0.6271 -1.6358
 1762TIP3    H226778   4.880   3.041  10.137  0.6118  0.8911  0.5529
 1763TIP3   OH226779   5.475   2.654  10.311  0.0277  0.2967  0.3836
 1763TIP3    H126780   5.499   2.669  10.219 -0.1679 -1.2112  0.0704
 1763TIP3    H226781   5.551   2.610  10.349 -0.4758 -0.4536  0.5415
 1764TIP3   OH226782   5.982   4.000  10.429 -0.0603  0.1596 -0.0864
 1764TIP3    H126783   6.074   3.990  10.407 -0.3732 -1.0822 -0.8583
 1764TIP3    H226784   5.954   3.914  10.458 -0.9197  0.5891  0.3903
 1765TIP3   OH226785   5.215   1.167  10.476 -0.3888  0.2418  0.2516
 1765TIP3    H126786   5.155   1.133  10.409 -0.8311  1.1880  0.1454
 1765TIP3    H226787   5.158   1.216  10.536  0.2275  0.8025  0.3850
 1766TIP3   OH226788   0.147   2.999  13.622  0.2522  0.1252 -0.7855
 1766TIP3    H126789   0.213   2.984  13.690 -0.0616  0.6218 -0.3706
 1766TIP3    H226790   0.167   3.086  13.588  2.1445 -1.2183 -3.2820
 1767TIP3   OH226791   4.298   1.791   9.986 -0.6634 -0.0600  0.0191
 1767TIP3    H126792   4.256   1.876   9.974  1.7967  1.1514 -0.4535
 1767TIP3    H226793   4.342   1.775   9.902  0.9990 -0.5599  0.9630
 1768TIP3   OH226794   1.306   5.924  11.362  0.0249 -0.4004 -0.0034
 1768TIP3    H126795   1.240   5.954  11.424  0.2565 -0.1906  0.1414
 1768TIP3    H226796   1.355   5.857  11.409  1.5064  1.1731  0.7578
 1769TIP3   OH226797   0.598   4.798   9.887 -0.2144  0.9059  0.4243
 1769TIP3    H126798   0.665   4.739   9.922 -0.1253  0.5267 -0.3667
 1769TIP3    H226799   0.521   4.780   9.940  0.3009  1.3270  1.3233
 1770TIP3   OH226800   7.186   2.432  10.228 -0.1600  0.2930 -0.5099
 1770TIP3    H126801   7.228   2.496  10.286 -0.1116  0.1310 -0.3669
 1770TIP3    H226802   7.218   2.454  10.141  0.4880 -0.0465 -0.3579
 1771TIP3   OH226803   2.471   2.031  11.376  0.0718 -0.6881  0.1832
 1771TIP3    H126804   2.523   2.085  11.316 -1.0910  0.2662  0.0309
 1771TIP3    H226805   2.483   2.072  11.461  1.7343 -2.0526  0.6445
 1772TIP3   OH226806   6.403   3.124   9.795 -0.2933 -0.0068 -0.3407
 1772TIP3    H126807   6.451   3.194   9.750  0.2990 -0.4685 -0.4278
 1772TIP3    H226808   6.311   3.144   9.778 -0.0957  0.1922 -1.2077
 1773TIP3   OH226809   4.318   6.528  10.634 -0.1242 -0.0915 -0.1833
 1773TIP3    H126810   4.226   6.506  10.619 -0.6666  0.8540  1.7001
 1773TIP3    H226811   4.352   6.456  10.687  0.6640 -1.2412 -2.1935
 1774TIP3   OH226812   4.016   0.036  10.802  0.2124  0.1747  0.3121
 1774TIP3    H126813   4.079  -0.013  10.854 -0.0946 -1.8417 -1.1896
 1774TIP3    H226814   4.070   0.092  10.745  0.6247 -0.7464 -0.2008
 1775TIP3   OH226815   5.710   1.878  10.391 -0.1124 -0.0018  0.2666
 1775TIP3    H126816   5.615   1.886  10.384 -0.0438 -0.5822 -1.4017
 1775TIP3    H226817   5.737   1.958  10.435 -1.3351  0.3269  0.4455
 1776TIP3   OH226818   5.780   4.997   1.014 -0.0660 -0.6151  0.5639
 1776TIP3    H126819   5.772   4.965   1.104  0.0804 -2.3829 -0.0372
 1776TIP3    H226820   5.860   5.049   1.014 -0.5092  0.0847  1.6524
 1777TIP3   OH226821   6.569   1.732  11.771  0.7375  0.0397  0.4268
 1777TIP3    H126822   6.474   1.735  11.757  0.5216 -0.5214  1.6812
 1777TIP3    H226823   6.594   1.822  11.790  0.4795  0.2144 -0.0641
 1778TIP3   OH226824   4.041   1.194  15.009  0.4304  0.5216  0.3057
 1778TIP3    H126825   4.083   1.158  14.931  0.9049  1.5949  0.0625
 1778TIP3    H226826   3.982   1.124  15.038  0.5828 -0.0625 -0.7491
 1779TIP3   OH226827   7.137   3.821  11.552  0.2489  0.0207  1.1279
 1779TIP3    H126828   7.188   3.747  11.519 -1.3776 -0.1995 -1.0520
 1779TIP3    H226829   7.182   3.898  11.519  0.4371 -0.0866  1.1322
 1780TIP3   OH226830   4.123   4.506  10.304 -0.3099  0.1045  0.2172
 1780TIP3    H126831   4.124   4.488  10.210 -2.7217 -0.7251  0.3093
 1780TIP3    H226832   4.185   4.578  10.316  1.4914 -1.0868 -1.7107
 1781TIP3   OH226833   0.113   0.958  10.567 -0.0236 -0.3439  0.2571
 1781TIP3    H126834   0.144   0.952  10.658  1.1877 -0.6185 -0.1603
 1781TIP3    H226835   0.163   0.891  10.520 -0.5297 -0.0976 -0.6404
 1782TIP3   OH226836   0.400   4.157   9.698  0.0287 -0.3361  0.1158
 1782TIP3    H126837   0.460   4.091   9.663 -0.0107 -1.2319  1.7099
 1782TIP3    H226838   0.455   4.235   9.710  0.9715 -1.2532  1.9009
 1783TIP3   OH226839   5.104   1.984  10.867 -0.4795 -0.2093  0.0397
 1783TIP3    H126840   5.085   2.077  10.876  0.6954  0.0491 -0.1144
 1783TIP3    H226841   5.120   1.972  10.774 -1.2240 -0.6871 -0.0310
 1784TIP3   OH226842   6.035   0.782  10.340 -0.2301  0.8906 -0.7837
 1784TIP3    H126843   5.984   0.701  10.336  2.2940 -0.8667  0.7884
 1784TIP3    H226844   6.112   0.764  10.287  0.6875  1.9881  0.1440
 1785TIP3   OH226845   5.082   4.350  12.649 -0.1201  0.5173 -0.3880
 1785TIP3    H126846   5.153   4.389  12.698 -0.3225 -0.8339  1.0083
 1785TIP3    H226847   5.094   4.255  12.660 -0.6813  0.2161 -2.1987
 1786TIP3   OH226848   6.823   1.986   9.693 -0.3012 -0.3099 -0.1659
 1786TIP3    H126849   6.851   1.930   9.621  1.0831 -2.8011  2.1778
 1786TIP3    H226850   6.905   2.014   9.734 -1.0613 -1.6554  2.3855
 1787TIP3   OH226851   5.006   2.528  10.394 -0.0308  0.5646 -0.8834
 1787TIP3    H126852   5.098   2.542  10.373  0.4971 -0.6556  0.5012
 1787TIP3    H226853   4.991   2.583  10.471 -0.5349  0.9679 -1.2695
 1788TIP3   OH226854   6.805   3.435  11.947 -0.2295  0.2522  0.3631
 1788TIP3    H126855   6.868   3.387  12.001 -0.1018  0.3717  0.3204
 1788TIP3    H226856   6.822   3.527  11.968  0.8145  0.3795 -0.9714
 1789TIP3   OH226857   6.848   3.768  10.612 -0.3259 -0.0388  0.1776
 1789TIP3    H126858   6.800   3.841  10.652 -0.6216  0.6974 -1.5098
 1789TIP3    H226859   6.847   3.700  10.679  0.6710  1.7861  2.1109
 1790TIP3   OH226860   3.185   2.397  12.834  0.2429 -0.3836 -0.3155
 1790TIP3    H126861   3.116   2.406  12.768  0.0869 -0.4435 -0.1629
 1790TIP3    H226862   3.203   2.487  12.862 -1.3601 -0.5177  1.2512
 1791TIP3   OH226863   5.033   1.398  11.400 -0.3666 -0.1189 -0.0396
 1791TIP3    H126864   4.989   1.459  11.341 -1.3194 -0.8145 -0.0664
 1791TIP3    H226865   5.112   1.372  11.353 -0.0649  0.9314 -0.1149
 1792TIP3   OH226866   2.886   2.082  11.516  0.0859  0.3380 -0.2348
 1792TIP3    H126867   2.853   2.047  11.599 -1.5937 -1.3416 -1.5859
 1792TIP3    H226868   2.981   2.072  11.522 -0.0118  0.3967  1.5586
 1793TIP3   OH226869   3.532   5.039  12.698  0.1978  0.5358 -0.1649
 1793TIP3    H126870   3.537   4.950  12.731  1.2966  0.3983 -0.6651
 1793TIP3    H226871   3.481   5.032  12.617  0.2949  0.3549 -0.2113
 1794TIP3   OH226872   0.314   6.575  14.957  1.0214 -0.0185 -0.2233
 1794TIP3    H126873   0.380   6.519  14.997  0.7282  0.6121  1.1516
 1794TIP3    H226874   0.362   6.650  14.924  1.3408 -0.7930 -1.6052
 1795TIP3   OH226875   3.667   4.328  12.332 -0.2635 -0.5077 -0.3007
 1795TIP3    H126876   3.616   4.386  12.389 -0.6418 -2.0160  0.9568
 1795TIP3    H226877   3.618   4.326  12.250 -0.5757  0.4432 -0.1440
 1796TIP3   OH226878   4.837   5.170  11.386  0.0697  0.0084 -0.7346
 1796TIP3    H126879   4.867   5.093  11.337  2.4206  0.3384  0.0982
 1796TIP3    H226880   4.789   5.134  11.460  2.1353 -0.7392  0.2821
 1797TIP3   OH226881   5.885   5.319  10.905 -0.1032 -0.2294 -0.0105
 1797TIP3    H126882   5.908   5.270  10.984  1.1480  0.7139  0.2100
 1797TIP3    H226883   5.816   5.379  10.933  0.0578 -0.1781  0.2771
 1798TIP3   OH226884   5.011   2.889  12.436  0.5515  0.7693  0.4758
 1798TIP3    H126885   5.077   2.843  12.488  1.2014  1.3292  0.1567
 1798TIP3    H226886   5.048   2.892  12.348  0.0000  0.8993  0.2498
 1799TIP3   OH226887   7.149   2.874   9.863 -0.7036 -0.2947 -0.5577
 1799TIP3    H126888   7.212   2.801   9.866  1.0773  1.1921 -1.0835
 1799TIP3    H226889   7.202   2.951   9.846 -2.5805  1.1507 -0.0528
 1800TIP3   OH226890   0.728   5.364  11.893 -0.4063  0.3313  0.0480
 1800TIP3    H126891   0.668   5.403  11.956 -0.0775  0.3335  0.3590
 1800TIP3    H226892   0.750   5.278  11.930 -2.1394 -0.7037 -1.2608
 1801TIP3   OH226893   5.487   5.327  13.850 -0.1955 -0.7794  0.2077
 1801TIP3    H126894   5.398   5.362  13.863 -0.0999 -0.9658  1.4663
 1801TIP3    H226895   5.501   5.331  13.756 -1.5676 -0.7873 -0.0089
 1802TIP3   OH226896   3.681   4.088  11.980 -0.5588 -0.4244 -0.0973
 1802TIP3    H126897   3.667   3.994  11.976 -1.6270 -0.2732 -0.0066
 1802TIP3    H226898   3.596   4.125  12.004 -0.0073  0.5213  0.4683
 1803TIP3   OH226899   6.332   3.745  13.463 -0.2853  0.1911 -0.5084
 1803TIP3    H126900   6.416   3.701  13.472 -0.5666 -0.1183  0.6465
 1803TIP3    H226901   6.348   3.835  13.492 -0.6749 -0.2386  1.1014
 1804TIP3   OH226902   0.553   6.479  15.030 -0.6439  0.0560 -0.0775
 1804TIP3    H126903   0.610   6.480  14.952 -0.8932 -1.4298 -0.2908
 1804TIP3    H226904   0.608   6.514  15.100  0.2674 -0.5603 -0.4719
 1805TIP3   OH226905   1.610   3.660  10.144 -0.1901  0.1559  0.7290
 1805TIP3    H126906   1.611   3.587  10.082  0.9816  1.0851 -0.3697
 1805TIP3    H226907   1.517   3.682  10.154 -0.5513 -1.4757  1.0807
 1806TIP3   OH226908   2.648   2.838  13.003 -0.4427 -0.3496 -0.0706
 1806TIP3    H126909   2.556   2.860  13.018  0.0868  1.0926  1.2958
 1806TIP3    H226910   2.648   2.786  12.923 -2.3750  0.2636 -0.4997
 1807TIP3   OH226911   0.104   3.875  10.004  0.5174  0.2017 -0.7109
 1807TIP3    H126912   0.057   3.937  10.059 -0.4101 -1.6340  0.6146
 1807TIP3    H226913   0.097   3.911   9.915 -0.8256  1.4694 -0.1117
 1808TIP3   OH226914   0.195   0.193  13.535 -0.5630 -0.6167 -0.7130
 1808TIP3    H126915   0.164   0.185  13.445 -3.3241  2.9483 -0.1691
 1808TIP3    H226916   0.115   0.194  13.588  0.7430  2.4940  1.2991
 1809TIP3   OH226917   2.202   0.757  12.324 -0.5355 -0.0664 -0.2060
 1809TIP3    H126918   2.247   0.768  12.408 -1.4138 -2.6506  0.6381
 1809TIP3    H226919   2.132   0.823  12.326 -1.4336 -1.0356  1.7314
 1810TIP3   OH226920   6.143   0.030  11.181 -0.0124 -0.3890  0.3070
 1810TIP3    H126921   6.091  -0.023  11.120 -1.4254 -0.2801  1.3630
 1810TIP3    H226922   6.215   0.064  11.129 -2.6835  1.9768 -2.0319
 1811TIP3   OH226923   5.268   1.901  10.584  0.4914 -0.3850 -0.6593
 1811TIP3    H126924   5.223   1.830  10.538  0.8413 -0.0754 -1.4799
 1811TIP3    H226925   5.337   1.857  10.634 -1.0754 -0.9353  1.0799
 1812TIP3   OH226926   1.545   2.808  12.108  0.4597 -0.0301  0.0257
 1812TIP3    H126927   1.450   2.791  12.112 -0.1063  2.7374 -0.4716
 1812TIP3    H226928   1.564   2.810  12.014  1.1269 -1.0298  0.1324
 1813TIP3   OH226929   6.623   6.332  12.325 -0.4154 -0.1737  0.1036
 1813TIP3    H126930   6.564   6.283  12.381  0.9319 -0.9636  0.8536
 1813TIP3    H226931   6.693   6.270  12.303  0.5812  0.9821 -0.0554
 1814TIP3   OH226932   2.984   3.324  11.688  0.3606  0.0575  0.5759
 1814TIP3    H126933   3.013   3.234  11.669  1.9204  1.1469 -2.4968
 1814TIP3    H226934   3.065   3.370  11.709  0.3223  1.9413 -3.0663
 1815TIP3   OH226935   0.029   6.414  10.082  0.0871  0.0237  0.0910
 1815TIP3    H126936   0.019   6.504  10.113  2.4963  0.8873 -1.4794
 1815TIP3    H226937   0.110   6.384  10.123 -1.0660 -1.7081  1.1599
 1816TIP3   OH226938   0.058   2.079  12.930 -0.1871  0.5273  0.2158
 1816TIP3    H126939   0.047   2.025  13.008 -1.9879  0.4211 -0.1004
 1816TIP3    H226940   0.013   2.031  12.861 -1.7246  2.3753 -0.0981
 1817TIP3   OH226941   4.169   1.276  10.355 -0.0301 -0.5960 -0.5140
 1817TIP3    H126942   4.189   1.368  10.371  0.8976 -0.9598  0.3888
 1817TIP3    H226943   4.073   1.272  10.359  0.0721 -0.3598  3.1783
 1818TIP3   OH226944   6.483   4.334  11.423 -0.3388  0.3990  0.3245
 1818TIP3    H126945   6.497   4.416  11.471  0.1291 -0.2890  1.3799
 1818TIP3    H226946   6.528   4.268  11.476 -0.9362 -0.5772 -0.3903
 1819TIP3   OH226947   5.513   3.084  10.262  0.1803  0.2657 -0.0129
 1819TIP3    H126948   5.578   3.025  10.301  0.6378  1.3973  0.9529
 1819TIP3    H226949   5.564   3.146  10.211 -0.3105 -0.2185 -1.1166
 1820TIP3   OH226950   1.053   6.393  11.538 -0.0923 -0.6265  0.5022
 1820TIP3    H126951   1.104   6.430  11.466  1.8247 -1.0452  1.5972
 1820TIP3    H226952   0.968   6.372  11.500  0.2724  0.8458 -1.1784
 1821TIP3   OH226953   6.897   1.142   0.243 -0.1091  0.6831 -0.0537
 1821TIP3    H126954   6.872   1.228   0.276 -0.6894  0.6261 -0.3326
 1821TIP3    H226955   6.965   1.112   0.303  1.5213  2.1789 -1.1053
 1822TIP3   OH226956   7.043   2.058   9.819  0.2516  0.2870 -0.0979
 1822TIP3    H126957   7.131   2.063   9.780  0.3967  3.2281  0.4783
 1822TIP3    H226958   7.059   2.054   9.913 -0.2408  1.1042  0.0192
 1823TIP3   OH226959   0.526   2.343  12.701  0.4692 -0.9745  0.0814
 1823TIP3    H126960   0.613   2.345  12.661  0.6234 -1.5480  0.3893
 1823TIP3    H226961   0.542   2.357  12.794  0.1096  0.3454 -0.0474
 1824TIP3   OH226962   4.831   6.263  13.350  0.3815  0.0460  0.5069
 1824TIP3    H126963   4.763   6.257  13.283  2.1838  0.5085 -1.3812
 1824TIP3    H226964   4.784   6.247  13.432 -1.4191 -3.1336 -1.0354
 1825TIP3   OH226965   1.421   0.742  10.665  0.3877 -0.1718  0.3502
 1825TIP3    H126966   1.431   0.773  10.575 -0.0680 -2.1843 -0.4326
 1825TIP3    H226967   1.472   0.803  10.717  0.5820  1.0872 -1.2640
 1826TIP3   OH226968   6.364   0.567  11.073  0.1487 -0.2148  0.1796
 1826TIP3    H126969   6.382   0.658  11.050  0.4418 -0.7300 -1.7473
 1826TIP3    H226970   6.272   0.554  11.052 -0.0142 -0.2415  0.8970
 1827TIP3   OH226971   4.875   1.712  14.282 -0.6021  0.0059  0.1996
 1827TIP3    H126972   4.802   1.773  14.294 -0.4271  0.1278  0.6581
 1827TIP3    H226973   4.913   1.703  14.369  0.6352  0.8326 -0.2506
 1828TIP3   OH226974   4.035   1.196  12.877 -0.3629  0.5860  0.3755
 1828TIP3    H126975   4.106   1.150  12.923 -1.5679 -2.2178 -0.4415
 1828TIP3    H226976   3.972   1.217  12.945 -0.5376 -0.4602  0.5502
 1829TIP3   OH226977   5.089   4.158  13.210 -0.1827 -0.4113  0.1520
 1829TIP3    H126978   5.017   4.095  13.206  0.3852 -0.9862 -1.5468
 1829TIP3    H226979   5.155   4.115  13.265 -1.2281  0.2492  1.9740
 1830TIP3   OH226980   4.611   1.598  12.443  0.8096 -0.4241 -0.6716
 1830TIP3    H126981   4.516   1.611  12.443  0.9697  0.8008 -0.3439
 1830TIP3    H226982   4.624   1.516  12.396 -0.3750 -0.3393 -1.1600
 1831TIP3   OH226983   5.698   3.700  13.593 -0.0234 -0.1694 -0.3560
 1831TIP3    H126984   5.732   3.652  13.669  0.1772 -1.8593 -1.4788
 1831TIP3    H226985   5.708   3.792  13.617  0.6456 -0.6663  1.3997
 1832TIP3   OH226986   6.319   1.144  11.989 -0.0600 -0.0845  0.2787
 1832TIP3    H126987   6.231   1.179  11.970  0.2396  1.4066  1.5282
 1832TIP3    H226988   6.331   1.073  11.925 -1.1165  1.4161 -1.6442
 1833TIP3   OH226989   5.339   0.153  10.032  0.1327 -0.4818 -0.2088
 1833TIP3    H126990   5.330   0.113   9.945  0.1225 -0.4482 -0.2237
 1833TIP3    H226991   5.302   0.089  10.092 -2.9354  0.8667 -0.5531
 1834TIP3   OH226992   6.796   4.319  12.654  0.6278  0.8021 -0.1418
 1834TIP3    H126993   6.811   4.294  12.745  0.0710  1.4681  0.1366
 1834TIP3    H226994   6.824   4.243  12.603 -0.3484 -0.1010  0.6509
 1835TIP3   OH226995   0.707   4.981  10.091  0.4027  0.0502  0.2636
 1835TIP3    H126996   0.665   4.897  10.076  1.5525 -0.3940 -0.5136
 1835TIP3    H226997   0.636   5.045  10.080 -0.7908 -0.8872  2.2877
 1836TIP3   OH226998   1.035   0.537   9.423  0.4313  0.0273 -0.5347
 1836TIP3    H126999   0.997   0.454   9.393 -3.0076  1.6524 -0.9047
 1836TIP3    H227000   1.038   0.591   9.344  1.2631  0.7534 -0.0076
 1837TIP3   OH227001   6.667   3.348  11.054  0.4502 -0.5708 -0.0558
 1837TIP3    H127002   6.634   3.330  11.142 -0.3223 -2.0170 -0.6204
 1837TIP3    H227003   6.599   3.402  11.014  0.8856  0.2400  0.2828
 1838TIP3   OH227004   3.968   2.217  13.234 -0.0457  0.5456 -0.4209
 1838TIP3    H127005   3.884   2.263  13.240  0.5646  2.1886 -3.4382
 1838TIP3    H227006   3.954   2.153  13.164  1.0569  0.4678 -0.5704
 1839TIP3   OH227007   5.355   2.854   9.866  0.0218  0.6999 -0.8055
 1839TIP3    H127008   5.395   2.940   9.856 -2.2224  1.5237 -3.3140
 1839TIP3    H227009   5.388   2.803   9.792  0.0169 -0.1091 -0.2681
 1840TIP3   OH227010   6.127   2.821  15.184 -0.0827  0.1269 -0.4121
 1840TIP3    H127011   6.076   2.788  15.110 -1.6320 -0.3961  0.8581
 1840TIP3    H227012   6.190   2.882  15.145 -1.9727  1.1350 -1.9708
 1841TIP3   OH227013   5.399   3.686  11.941 -0.2092 -0.0750  0.1248
 1841TIP3    H127014   5.444   3.754  11.990 -0.2678  1.7083 -2.2135
 1841TIP3    H227015   5.443   3.684  11.856 -1.6880 -1.3841 -0.6464
 1842TIP3   OH227016   6.636   2.504  10.534 -0.1379 -0.3540  0.7437
 1842TIP3    H127017   6.709   2.460  10.577  1.0672  0.9577  0.0922
 1842TIP3    H227018   6.659   2.597  10.536 -1.6910  0.0628  0.3431
 1843TIP3   OH227019   3.040   2.051  11.185  0.7745  0.5636 -0.4654
 1843TIP3    H127020   3.104   2.038  11.254  2.3067  1.2567 -1.7268
 1843TIP3    H227021   2.990   1.970  11.183  1.5426  0.0564  0.6012
 1844TIP3   OH227022   5.936   6.090  10.817 -0.6404 -0.1984  0.5087
 1844TIP3    H127023   5.976   6.003  10.817  0.8343  0.4211  2.9399
 1844TIP3    H227024   5.861   6.082  10.758  0.2329 -2.7472 -0.3392
 1845TIP3   OH227025   6.049   5.025  11.371  0.5528 -0.4311  0.0543
 1845TIP3    H127026   6.046   4.938  11.410  0.8360  0.1905  1.4600
 1845TIP3    H227027   6.043   5.085  11.445  2.7806  0.7676 -0.7031
 1846TIP3   OH227028   5.922   1.324  11.008  0.1034 -0.3676 -0.9904
 1846TIP3    H127029   6.002   1.279  10.981 -0.1500 -0.1654 -2.0908
 1846TIP3    H227030   5.944   1.417  11.002  0.1212 -0.3207 -0.2524
 1847TIP3   OH227031   5.279   2.538  13.866 -0.5919 -0.7423 -0.0842
 1847TIP3    H127032   5.360   2.505  13.905 -0.8413 -0.5257  0.6396
 1847TIP3    H227033   5.259   2.477  13.795 -0.7562 -1.8518  0.8837
 1848TIP3   OH227034   3.093   0.674  10.945 -0.4343 -0.3506  0.6789
 1848TIP3    H127035   3.109   0.585  10.916 -0.1033 -0.6184  1.6615
 1848TIP3    H227036   3.006   0.671  10.986 -0.6185 -0.1203  0.3081
 1849TIP3   OH227037   0.327   2.286  11.602 -0.3882  0.6073 -0.2798
 1849TIP3    H127038   0.338   2.379  11.583  0.9744  0.5892  0.3762
 1849TIP3    H227039   0.280   2.284  11.686  1.3291  0.7149  0.6896
 1850TIP3   OH227040   0.504   1.756  13.497  0.1193  0.3234  0.0857
 1850TIP3    H127041   0.434   1.817  13.472 -0.4204 -0.5563 -0.5802
 1850TIP3    H227042   0.459   1.673  13.510  0.9290 -0.0509  0.4941
 1851TIP3   OH227043   0.220   4.234  11.599  0.0775  0.0984 -0.4142
 1851TIP3    H127044   0.163   4.309  11.584  2.4757  1.8404 -0.9408
 1851TIP3    H227045   0.188   4.167  11.538 -0.6374  1.4683 -1.5592
 1852TIP3   OH227046   5.448   1.727  10.676 -0.2419 -0.5799  0.1278
 1852TIP3    H127047   5.439   1.661  10.744  0.5929  0.5867  1.4145
 1852TIP3    H227048   5.538   1.717  10.645  0.6693  1.4584  1.9849
 1853TIP3   OH227049   6.229   6.902   9.742 -0.2194 -0.3731 -0.3940
 1853TIP3    H127050   6.295   6.909   9.672 -1.4996 -0.4135 -1.6341
 1853TIP3    H227051   6.208   6.992   9.765 -0.3109 -0.3491 -0.5673
 1854TIP3   OH227052   3.511   1.983  11.957 -0.5661  0.4291 -0.0505
 1854TIP3    H127053   3.544   1.930  12.030  0.5692  0.9008 -0.2079
 1854TIP3    H227054   3.434   1.935  11.925  1.4086 -2.0107 -1.2743
 1855TIP3   OH227055   2.795   1.330  14.387 -0.1157 -0.5438  0.2994
 1855TIP3    H127056   2.798   1.398  14.454 -0.3364  0.7856 -1.0208
 1855TIP3    H227057   2.702   1.311  14.375  0.0030 -2.2811  1.8232
 1856TIP3   OH227058   1.221   5.133   9.710  0.2588 -0.4994  0.2367
 1856TIP3    H127059   1.140   5.105   9.667  0.8426  1.1508 -2.0448
 1856TIP3    H227060   1.193   5.194   9.778 -0.4278 -0.0090 -0.4859
 1857TIP3   OH227061   7.011   0.897  13.338  0.3540 -0.1872  0.6701
 1857TIP3    H127062   6.919   0.898  13.315  0.7148 -1.2354 -0.8635
 1857TIP3    H227063   7.016   0.840  13.415 -0.6084  1.9288  2.3415
 1858TIP3   OH227064   7.069   3.616  12.409 -0.1910  0.0783 -0.6405
 1858TIP3    H127065   7.079   3.711  12.402  1.4544 -0.0396 -0.1080
 1858TIP3    H227066   7.150   3.586  12.450 -0.9874 -1.4860 -0.1526
 1859TIP3   OH227067   1.662   2.900  12.327  0.2464  0.4294 -0.3399
 1859TIP3    H127068   1.613   2.976  12.359  2.3174  1.8361 -0.4371
 1859TIP3    H227069   1.605   2.861  12.261 -1.5925  0.8697  0.9372
 1860TIP3   OH227070   3.666   5.682  10.192  0.6368  0.1830 -0.4067
 1860TIP3    H127071   3.621   5.766  10.195  0.6235  0.1888 -0.7325
 1860TIP3    H227072   3.734   5.693  10.125  1.3801  0.3014  0.3521
 1861TIP3   OH227073   2.949   4.917  12.103  0.2788  0.1884 -0.1182
 1861TIP3    H127074   2.944   4.914  12.007 -1.0762  0.4908 -0.0570
 1861TIP3    H227075   3.040   4.893  12.122  0.4064 -0.4500 -1.4479
 1862TIP3   OH227076   7.151   4.133   9.873 -0.5298  0.2290 -0.0175
 1862TIP3    H127077   7.088   4.195   9.908 -0.5008 -0.2358  0.8906
 1862TIP3    H227078   7.214   4.186   9.825 -1.7928  0.6648 -1.2290
 1863TIP3   OH227079   4.293   5.705   0.335  0.0171  1.1093  0.7492
 1863TIP3    H127080   4.222   5.657   0.379 -0.7182  2.3510  0.9454
 1863TIP3    H227081   4.359   5.719   0.403  0.9607 -1.0056  0.2993
 1864TIP3   OH227082   6.742   3.487  10.183  0.7069 -0.2919 -0.1089
 1864TIP3    H127083   6.817   3.473  10.125  0.7535  0.5014 -0.2369
 1864TIP3    H227084   6.762   3.568  10.229  0.2536 -0.4564  0.3771
 1865TIP3   OH227085   6.408   6.143  11.787  0.6994  0.6669  0.5073
 1865TIP3    H127086   6.363   6.190  11.857  2.3560  0.3812  1.7853
 1865TIP3    H227087   6.351   6.068  11.769 -0.5099  1.5797  0.4492
 1866TIP3   OH227088   1.509   5.373  11.127  0.3466  0.3022 -0.1677
 1866TIP3    H127089   1.513   5.421  11.210  1.7941 -0.5161  0.2647
 1866TIP3    H227090   1.567   5.298  11.141  2.1414  1.1761 -2.5691
 1867TIP3   OH227091   6.106   0.894  12.344 -0.7266 -0.0757  0.5746
 1867TIP3    H127092   6.034   0.951  12.318  1.5366  2.9507  0.6216
 1867TIP3    H227093   6.079   0.859  12.429 -3.2548 -1.1294 -0.6133
 1868TIP3   OH227094   0.878   4.764  14.031  0.3949 -0.8422  0.4044
 1868TIP3    H127095   0.888   4.859  14.019 -1.5866 -0.8156 -1.3152
 1868TIP3    H227096   0.925   4.726  13.957 -0.8600 -1.1076 -0.2666
 1869TIP3   OH227097   2.525   4.162  10.342 -0.0304  0.3069  0.5107
 1869TIP3    H127098   2.484   4.216  10.275 -1.2582 -0.4071  0.6666
 1869TIP3    H227099   2.473   4.081  10.343  0.7110 -0.1764  1.4778
 1870TIP3   OH227100   6.715   1.938  13.561  0.1113  0.0951 -0.2155
 1870TIP3    H127101   6.804   1.971  13.571  0.0199  0.2472  0.0959
 1870TIP3    H227102   6.718   1.850  13.596 -0.6840  1.3235  3.1308
 1871TIP3   OH227103   6.569   1.582  11.242  0.1838 -0.0754  0.0322
 1871TIP3    H127104   6.653   1.627  11.228  1.5359 -1.6593  2.6974
 1871TIP3    H227105   6.529   1.627  11.316 -0.5229 -0.4608 -0.1067
 1872TIP3   OH227106   1.972   2.639  12.469 -0.5020  0.0905  0.7438
 1872TIP3    H127107   2.007   2.557  12.434 -0.4152 -0.3308  1.8094
 1872TIP3    H227108   1.987   2.702  12.399 -0.8353 -0.8599 -0.2137
 1873TIP3   OH227109   5.992   3.643  13.034  0.2936  0.0652  0.2390
 1873TIP3    H127110   6.082   3.673  13.021  0.3161 -0.0257  0.1765
 1873TIP3    H227111   5.942   3.722  13.052  0.5541  0.0132  1.2051
 1874TIP3   OH227112   7.086   2.927  13.641  0.1113 -0.3204 -0.1840
 1874TIP3    H127113   7.173   2.963  13.623  0.8024 -1.9718 -0.2430
 1874TIP3    H227114   7.091   2.893  13.730 -0.8035  0.4997  0.1920
 1875TIP3   OH227115   6.077   2.613  13.192 -0.1673 -0.3075 -0.0255
 1875TIP3    H127116   6.014   2.665  13.242 -0.0144 -1.6809  1.6422
 1875TIP3    H227117   6.130   2.677  13.146 -1.5563  0.9248  0.0545
 1876TIP3   OH227118   0.493   3.838  14.040 -0.6665 -0.5828 -0.1244
 1876TIP3    H127119   0.494   3.881  13.954 -1.4495  1.7386  0.9891
 1876TIP3    H227120   0.408   3.795  14.044 -1.9264  1.8576  0.6474
 1877TIP3   OH227121   3.122   5.896   9.700  0.4574 -0.8201  0.0271
 1877TIP3    H127122   3.099   5.809   9.734  0.5802 -0.6722  0.4950
 1877TIP3    H227123   3.062   5.910   9.627  2.5066 -2.6237 -2.0794
 1878TIP3   OH227124   6.979   2.906  10.454 -0.0245 -0.5090 -0.0994
 1878TIP3    H127125   6.989   2.824  10.502 -0.4443 -1.0500 -0.9198
 1878TIP3    H227126   7.025   2.971  10.507  1.4038 -1.5106 -0.0797
 1879TIP3   OH227127   3.498   3.595  10.228 -0.5422 -0.2872 -0.6339
 1879TIP3    H127128   3.533   3.654  10.162 -1.1966  0.0970 -0.6472
 1879TIP3    H227129   3.408   3.626  10.242 -0.2740 -0.0794  0.7504
 1880TIP3   OH227130   1.832   5.838  13.591  0.3898 -0.3434 -0.3616
 1880TIP3    H127131   1.749   5.856  13.547 -0.9822  2.0315  2.9769
 1880TIP3    H227132   1.861   5.924  13.623  1.7198 -1.8476  2.6202
 1881TIP3   OH227133   0.783   3.377  11.465  0.2020  0.5192  0.5245
 1881TIP3    H127134   0.871   3.342  11.451 -0.0077  0.0486  0.3860
 1881TIP3    H227135   0.786   3.415  11.553  0.3405 -0.1143  0.7924
 1882TIP3   OH227136   6.558   1.073  11.449 -0.5652  0.4324  0.4576
 1882TIP3    H127137   6.496   1.133  11.490  0.6319  1.4753  0.7807
 1882TIP3    H227138   6.644   1.107  11.474  0.1601 -0.0395 -1.3229
 1883TIP3   OH227139   0.734   3.607  10.053 -0.0636  0.0791  0.0689
 1883TIP3    H127140   0.811   3.655  10.022  0.5967 -1.0605 -0.0809
 1883TIP3    H227141   0.769   3.524  10.084 -1.2873 -0.6113 -0.3984
 1884TIP3   OH227142   3.531   4.999   9.613  0.6686 -0.3592 -0.1347
 1884TIP3    H127143   3.470   5.007   9.687  0.1333 -1.0662 -0.4925
 1884TIP3    H227144   3.572   5.085   9.607  1.8487 -0.7617  1.9517
 1885TIP3   OH227145   1.592   2.221  11.386  0.5079 -0.4183 -0.2575
 1885TIP3    H127146   1.578   2.271  11.305 -0.1661  0.7902  0.5939
 1885TIP3    H227147   1.627   2.137  11.356  0.3673  0.0545 -1.8025
 1886TIP3   OH227148   0.957   4.514  12.522 -0.1182  0.2171 -0.4467
 1886TIP3    H127149   1.041   4.554  12.498  0.2393  0.7659  1.5839
 1886TIP3    H227150   0.933   4.558  12.604 -1.5836 -1.1079 -0.1511
 1887TIP3   OH227151   2.198   2.000  10.430  0.4269 -0.2208  0.0360
 1887TIP3    H127152   2.147   2.073  10.394 -0.1658 -0.3131  0.6866
 1887TIP3    H227153   2.153   1.977  10.512  1.7120 -0.0878  0.7804
 1888TIP3   OH227154   6.791   4.249  10.164 -0.2336 -0.1582 -0.0939
 1888TIP3    H127155   6.865   4.208  10.208 -0.1153 -0.6437 -0.7324
 1888TIP3    H227156   6.722   4.182  10.165 -0.0087 -0.4228 -1.2168
 1889TIP3   OH227157   0.497   5.442  13.656  0.2331  0.1945 -0.4875
 1889TIP3    H127158   0.471   5.351  13.673  0.4230 -0.1993 -2.1656
 1889TIP3    H227159   0.494   5.485  13.741  0.7513 -1.5550  0.4311
 1890TIP3   OH227160   1.076   3.453  12.476 -0.1348 -0.6391  0.4760
 1890TIP3    H127161   1.025   3.526  12.511  0.6374 -0.1081  0.4929
 1890TIP3    H227162   1.077   3.389  12.548  0.0174 -0.2592  0.8136
 1891TIP3   OH227163   0.218   0.766  10.909  0.3678  0.4097 -0.6367
 1891TIP3    H127164   0.189   0.678  10.886 -1.3870  1.0789 -1.0089
 1891TIP3    H227165   0.276   0.792  10.838 -0.4407  0.1943 -1.3770
 1892TIP3   OH227166   6.773   4.106  11.148 -0.0635 -0.3429 -0.2501
 1892TIP3    H127167   6.793   4.039  11.214  0.3367  0.8659  0.8800
 1892TIP3    H227168   6.845   4.100  11.085  0.9660  0.2815  0.8549
 1893TIP3   OH227169   5.209   1.027  11.363 -0.0687 -0.4532  0.2014
 1893TIP3    H127170   5.172   0.989  11.284  0.6645  0.1416 -0.4474
 1893TIP3    H227171   5.290   0.979  11.378 -0.4490 -0.8921  0.8763
 1894TIP3   OH227172   6.855   1.197  11.251  0.2628 -0.0679 -0.2632
 1894TIP3    H127173   6.826   1.274  11.301  0.9003  0.0964 -0.1409
 1894TIP3    H227174   6.876   1.232  11.164  1.0114 -0.0164 -0.0653
 1895TIP3   OH227175   0.373   7.190  10.476  0.1525 -0.1547  0.1579
 1895TIP3    H127176   0.415   7.105  10.457 -1.0535 -0.3616 -1.7652
 1895TIP3    H227177   0.403   7.212  10.564 -1.9466 -4.0754  1.9905
 1896TIP3   OH227178   2.084   4.340  10.744 -0.2763  0.3131  0.1431
 1896TIP3    H127179   2.137   4.358  10.822 -0.1598  0.5611  0.0090
 1896TIP3    H227180   2.126   4.392  10.675  1.6153 -2.4238 -0.8475
 1897TIP3   OH227181   0.429   0.088  11.273  0.1960 -0.3631 -0.2264
 1897TIP3    H127182   0.336   0.111  11.272  0.5628  1.4249  1.7671
 1897TIP3    H227183   0.464   0.137  11.347  2.0117 -3.9076  1.3661
 1898TIP3   OH227184   0.697   5.022  10.466 -0.4743 -0.2927  0.0897
 1898TIP3    H127185   0.638   5.050  10.396  0.2241 -1.9319 -1.1911
 1898TIP3    H227186   0.705   4.927  10.454  1.1213 -0.3261  1.2638
 1899TIP3   OH227187   6.718   5.698  13.743  0.3090  0.4234 -0.2359
 1899TIP3    H127188   6.718   5.785  13.784 -0.2305  0.2974  0.0357
 1899TIP3    H227189   6.635   5.659  13.770  1.3521 -0.8862  1.1426
 1900TIP3   OH227190   1.352   5.374  10.726  0.1939  0.2440 -0.3677
 1900TIP3    H127191   1.412   5.447  10.710 -1.9557  1.7157 -2.0350
 1900TIP3    H227192   1.363   5.317  10.650  1.2749 -0.8021  0.5427
 1901TIP3   OH227193   0.649   0.047  11.463 -0.4346 -0.2190 -0.3503
 1901TIP3    H127194   0.718  -0.000  11.510  1.3147  0.5000 -2.1328
 1901TIP3    H227195   0.568   0.015  11.502  0.9327  0.0229  2.8304
 1902TIP3   OH227196   0.058   4.196  12.305 -0.9986 -0.0824 -0.4839
 1902TIP3    H127197   0.073   4.218  12.214 -0.9744  0.8141 -0.2734
 1902TIP3    H227198   0.073   4.278  12.352 -0.2407 -0.7267  0.4052
 1903TIP3   OH227199   6.921   0.341  13.303 -0.3107 -0.2936  0.5363
 1903TIP3    H127200   6.858   0.411  13.316  0.6965  1.0142 -1.4355
 1903TIP3    H227201   6.892   0.295  13.225  1.3810  0.5995 -0.6559
 1904TIP3   OH227202   2.881   6.128  10.972 -0.0400  0.2113 -0.0628
 1904TIP3    H127203   2.896   6.179  10.893 -1.9149  1.6152  0.4522
 1904TIP3    H227204   2.786   6.112  10.973  0.3951 -2.5139  0.2578
 1905TIP3   OH227205   1.683   4.112  10.249  0.3462 -0.2103  0.3022
 1905TIP3    H127206   1.715   4.187  10.198  1.7832  0.4169  2.0838
 1905TIP3    H227207   1.691   4.038  10.189  1.3734  0.6273 -0.6181
 1906TIP3   OH227208   0.931   0.847  13.264 -0.1828 -0.8382 -0.1751
 1906TIP3    H127209   1.009   0.797  13.289 -0.7189 -1.9835 -0.7571
 1906TIP3    H227210   0.860   0.807  13.314 -0.0184  1.8049  2.2560
 1907TIP3   OH227211   0.479   5.866  11.130 -0.5899  0.3116  0.0905
 1907TIP3    H127212   0.527   5.897  11.207  2.9967  0.6315 -2.1567
 1907TIP3    H227213   0.458   5.775  11.150  1.0567  0.1411  1.1246
 1908TIP3   OH227214   5.014   5.923  11.423  0.0900 -0.1428  0.4066
 1908TIP3    H127215   5.012   5.834  11.459 -1.4702  0.1395  1.0615
 1908TIP3    H227216   4.922   5.947  11.413  0.4877  1.5805  0.7071
 1909TIP3   OH227217   6.396   4.400  13.909  0.3534  0.9273  0.0162
 1909TIP3    H127218   6.456   4.456  13.959  1.6820 -0.4727  0.0124
 1909TIP3    H227219   6.378   4.326  13.968  0.8857 -0.0729 -1.0534
 1910TIP3   OH227220   2.346   2.825  11.357 -0.0072 -0.3268  0.5439
 1910TIP3    H127221   2.413   2.770  11.397 -1.4726 -1.5055  1.4600
 1910TIP3    H227222   2.291   2.763  11.308 -1.1238  0.4377  0.8144
 1911TIP3   OH227223   2.469   5.203  13.733  0.1357  0.2041  0.4197
 1911TIP3    H127224   2.490   5.296  13.734 -1.1375  0.4965  1.2237
 1911TIP3    H227225   2.531   5.164  13.671  0.8568  1.5371  0.3038
 1912TIP3   OH227226   3.360   3.090  14.209 -0.5867  1.3765 -0.6242
 1912TIP3    H127227   3.305   3.088  14.130 -0.7663  0.8157 -0.4882
 1912TIP3    H227228   3.299   3.104  14.281 -0.7971 -0.9814 -0.2863
 1913TIP3   OH227229   4.091   3.718  12.030  0.0922  0.4901 -0.0405
 1913TIP3    H127230   4.158   3.680  11.973 -2.4442 -2.0790 -1.4478
 1913TIP3    H227231   4.072   3.803  11.990  1.0356  0.3412 -0.8323
 1914TIP3   OH227232   0.839   1.897  12.225  0.6942 -0.1974  0.4355
 1914TIP3    H127233   0.916   1.899  12.282  0.2341  0.3186  1.0446
 1914TIP3    H227234   0.812   1.806  12.225  1.4211 -0.4221  0.0546
 1915TIP3   OH227235   5.442   4.578  11.172  0.3338 -0.2296 -0.0627
 1915TIP3    H127236   5.514   4.515  11.163  0.7389  0.2560 -0.2806
 1915TIP3    H227237   5.381   4.536  11.232  0.7675 -0.6815  0.0704
 1916TIP3   OH227238   1.471   2.531  10.814 -0.4635  0.4933 -0.8642
 1916TIP3    H127239   1.413   2.605  10.828 -0.0294  0.5501  0.7490
 1916TIP3    H227240   1.415   2.454  10.826 -0.3267  0.5511  0.1767
 1917TIP3   OH227241   0.522   5.683  10.685  0.5671 -0.0240 -0.4852
 1917TIP3    H127242   0.536   5.618  10.754  0.2453 -1.7456 -1.9948
 1917TIP3    H227243   0.534   5.634  10.604 -1.8991  1.2927 -1.6939
 1918TIP3   OH227244   1.454   4.084  10.363 -0.0445 -0.1643 -0.0702
 1918TIP3    H127245   1.417   4.019  10.304 -1.4006  0.7236 -0.2044
 1918TIP3    H227246   1.537   4.110  10.322 -0.5239 -0.2489 -1.0876
 1919TIP3   OH227247   6.744   5.726  10.618  0.3178 -0.9888  0.2853
 1919TIP3    H127248   6.739   5.788  10.545 -0.9595 -1.6080 -0.1758
 1919TIP3    H227249   6.740   5.781  10.696  1.0468 -0.3679 -0.1006
 1920TIP3   OH227250   6.879   3.200  14.475 -0.2816  0.3097 -0.0470
 1920TIP3    H127251   6.975   3.196  14.472 -0.3047 -0.6610  0.3867
 1920TIP3    H227252   6.860   3.238  14.561 -0.2945  0.5000 -0.1322
 1921TIP3   OH227253   0.515   4.101  10.085  0.4373  0.2187 -0.1541
 1921TIP3    H127254   0.434   4.052  10.071  0.1317  0.6575  0.0657
 1921TIP3    H227255   0.577   4.064  10.022  0.6226 -1.4066  0.9600
 1922TIP3   OH227256   3.894   6.269  13.812  0.2316 -0.8291  0.1059
 1922TIP3    H127257   3.931   6.344  13.859 -0.0386 -1.3004  1.0824
 1922TIP3    H227258   3.971   6.220  13.782  0.4248  0.3911 -1.4652
 1923TIP3   OH227259   5.294   6.034  12.695 -0.1868 -0.3129 -0.2682
 1923TIP3    H127260   5.384   6.040  12.725 -0.5659 -1.2513  1.1122
 1923TIP3    H227261   5.276   6.120  12.656  1.0957  0.0930  0.0147
 1924TIP3   OH227262   6.381   4.847  11.525  0.2478 -0.5106 -0.4491
 1924TIP3    H127263   6.385   4.934  11.566  2.8066 -2.1662  3.0411
 1924TIP3    H227264   6.289   4.822  11.531 -0.0261  0.7915  1.0319
 1925TIP3   OH227265   0.186   4.314  12.776 -0.2639 -0.4827  0.5148
 1925TIP3    H127266   0.241   4.355  12.842  2.5636 -3.3452  0.0297
 1925TIP3    H227267   0.096   4.332  12.805  0.8822  2.2811  2.5587
 1926TIP3   OH227268   2.690   2.040  10.396  0.6402  0.0451  0.0079
 1926TIP3    H127269   2.614   1.992  10.430  1.2124 -0.3277  0.7546
 1926TIP3    H227270   2.673   2.046  10.302 -1.0149  1.2197  0.3537
 1927TIP3   OH227271   0.540   3.685   9.838  0.4797 -0.2495 -0.0461
 1927TIP3    H127272   0.575   3.636   9.764 -0.1486  0.0931 -0.5844
 1927TIP3    H227273   0.590   3.655   9.913  1.3437 -0.3764 -0.6624
 1928TIP3   OH227274   3.172   4.673  12.063 -0.1793  0.1479  0.2351
 1928TIP3    H127275   3.245   4.725  12.096 -0.8052  2.1805 -1.4235
 1928TIP3    H227276   3.179   4.679  11.968 -1.4058 -1.2297  0.0317
 1929TIP3   OH227277   1.560   2.365   9.727 -0.2116 -0.0020 -0.2358
 1929TIP3    H127278   1.609   2.374   9.809  0.9428  0.0047 -0.9275
 1929TIP3    H227279   1.611   2.304   9.675 -1.5583 -0.9041 -0.5067
 1930TIP3   OH227280   0.870   2.139  12.480 -0.4550  0.1452 -0.2486
 1930TIP3    H127281   0.792   2.156  12.427  0.3619  0.3567 -1.3750
 1930TIP3    H227282   0.835   2.126  12.569 -1.9207 -1.2706 -0.9951
 1931TIP3   OH227283   4.429   5.962   9.758 -0.5532 -0.0669  0.1772
 1931TIP3    H127284   4.341   5.959   9.720 -0.0035 -0.4411 -1.1072
 1931TIP3    H227285   4.481   6.009   9.692  0.7194 -1.9021 -0.1548
 1932TIP3   OH227286   2.717   3.715  10.285 -0.1977  0.1857 -0.8170
 1932TIP3    H127287   2.682   3.772  10.217  1.4858  1.0301 -1.0034
 1932TIP3    H227288   2.805   3.692  10.255  0.0637 -0.5224  0.4314
 1933TIP3   OH227289   3.022   5.581  10.310  0.0494 -0.0186 -0.3421
 1933TIP3    H127290   3.018   5.562  10.217 -1.0293  2.7657 -0.9309
 1933TIP3    H227291   3.069   5.664  10.315  0.1955 -0.1983  1.5991
 1934TIP3   OH227292   6.014   4.695  11.232 -0.5145  0.3150 -0.6643
 1934TIP3    H127293   6.099   4.672  11.271 -0.4893 -1.3470 -1.6466
 1934TIP3    H227294   6.030   4.778  11.187  0.6431 -0.0413 -0.9332
 1935TIP3   OH227295   1.654   5.619  10.119  0.4839 -0.2786  0.1530
 1935TIP3    H127296   1.733   5.568  10.103 -0.3233 -1.1727 -1.0432
 1935TIP3    H227297   1.654   5.685  10.050 -0.0215 -0.5278 -0.0872
 1936TIP3   OH227298   2.373   4.978  10.954  0.8861  0.4265  0.5152
 1936TIP3    H127299   2.385   5.052  11.014 -1.6583  0.2467  1.3328
 1936TIP3    H227300   2.379   4.901  11.011 -0.2628  0.1931  0.3282
 1937TIP3   OH227301   6.603   3.685  10.513 -0.2536  0.8794  0.1380
 1937TIP3    H127302   6.689   3.728  10.512 -1.7689  4.1188 -0.0658
 1937TIP3    H227303   6.586   3.665  10.605  0.3587  1.0364  0.2832
 1938TIP3   OH227304   2.186   5.135  10.264  0.0567 -0.2717 -0.0628
 1938TIP3    H127305   2.207   5.224  10.237  0.4457 -0.0955  0.7869
 1938TIP3    H227306   2.130   5.101  10.195  0.7836  0.2607 -0.9232
 1939TIP3   OH227307   6.252   4.238  11.778  0.3206 -0.3246 -0.1149
 1939TIP3    H127308   6.288   4.150  11.788  0.0855 -0.3558  0.4742
 1939TIP3    H227309   6.165   4.223  11.740 -1.1976 -0.6135  3.2338
 1940TIP3   OH227310   1.462   6.490   9.902 -0.0618  0.2866  0.4165
 1940TIP3    H127311   1.447   6.442   9.984  0.2310  1.4736  1.1862
 1940TIP3    H227312   1.383   6.544   9.892 -0.0120  0.2804  0.0040
 1941TIP3   OH227313   6.586   0.279  13.029  0.1539 -0.4316 -0.0830
 1941TIP3    H127314   6.541   0.217  12.972 -0.9680 -0.2171  0.5563
 1941TIP3    H227315   6.650   0.226  13.077  0.7544 -0.6953 -1.1753
 1942TIP3   OH227316   2.329   7.045  12.821 -0.4799 -0.0778  0.4562
 1942TIP3    H127317   2.371   6.968  12.783  0.5882  0.5994  0.2445
 1942TIP3    H227318   2.312   7.021  12.912  2.2464  0.3480  1.1190
 1943TIP3   OH227319   5.111   3.961  10.317  0.8447  0.4544  0.2383
 1943TIP3    H127320   5.016   3.973  10.311  0.6073 -0.8422  1.1232
 1943TIP3    H227321   5.148   4.030  10.262 -0.6405  0.4051 -0.8428
 1944TIP3   OH227322   1.465   5.871  10.168  0.1879  0.0976  0.7943
 1944TIP3    H127323   1.432   5.827  10.090  0.8092 -1.8012  1.5882
 1944TIP3    H227324   1.480   5.962  10.139  1.8471 -0.9027 -1.7359
 1945TIP3   OH227325   0.259   2.483  10.661 -0.1851 -0.1275 -0.9191
 1945TIP3    H127326   0.183   2.494  10.718  0.9543  0.0771  0.6066
 1945TIP3    H227327   0.283   2.573  10.637 -1.3887 -0.2626 -2.7538
 1946TIP3   OH227328   3.439   6.404  11.227  0.5343 -0.2891 -0.0407
 1946TIP3    H127329   3.516   6.353  11.253  0.5128 -0.0620  0.4797
 1946TIP3    H227330   3.400   6.354  11.156  1.2301 -0.3503 -0.3823
 1947TIP3   OH227331   2.020   5.018  10.962  0.4084 -0.0334 -0.0068
 1947TIP3    H127332   1.957   4.946  10.967 -0.2409  0.4584 -0.8934
 1947TIP3    H227333   1.966   5.097  10.965  0.9551  0.3868 -1.0178
 1948TIP3   OH227334   0.726   4.214  11.387 -0.1592 -0.0688 -0.1134
 1948TIP3    H127335   0.723   4.118  11.394  2.3183 -0.2402 -0.7244
 1948TIP3    H227336   0.819   4.235  11.397 -0.7413  2.3246  0.4743
 1949TIP3   OH227337   2.207   4.861  11.353 -0.0747 -0.0580 -0.3016
 1949TIP3    H127338   2.126   4.837  11.309 -0.3896 -1.8360  1.1848
 1949TIP3    H227339   2.265   4.891  11.282 -1.0756 -1.4013 -1.7276
 1950TIP3   OH227340   6.367   6.688  11.726 -0.2925  0.7265 -0.5660
 1950TIP3    H127341   6.305   6.759  11.711  1.5183  2.8003  1.3984
 1950TIP3    H227342   6.430   6.695  11.655 -1.0473  0.0164 -1.3106
 1951TIP3   OH227343   1.988   4.608   9.776 -0.3081  0.3414  0.2682
 1951TIP3    H127344   1.923   4.641   9.838  0.6881  0.5423  1.2075
 1951TIP3    H227345   2.032   4.537   9.822  0.4259  0.4761 -0.2182
 1952TIP3   OH227346   3.809   3.964  12.441  1.1899 -0.3225 -0.1845
 1952TIP3    H127347   3.756   3.887  12.464  1.1646  0.0555  1.0829
 1952TIP3    H227348   3.863   3.935  12.368  1.2414 -1.5777  0.3328
 1953TIP3   OH227349   0.563   0.969  14.155  0.4792  0.3321 -0.3597
 1953TIP3    H127350   0.611   0.921  14.087  1.7236  1.2301 -0.1346
 1953TIP3    H227351   0.631   0.998  14.216 -0.5922 -0.2242  1.1297
 1954TIP3   OH227352   4.934   4.635  10.157  0.1555 -0.0878 -0.2149
 1954TIP3    H127353   4.932   4.645  10.062 -0.5519  0.5108 -0.1372
 1954TIP3    H227354   4.854   4.587  10.178  0.1579  0.0506  0.1185
 1955TIP3   OH227355   3.116   0.698   9.878 -0.3813  0.0063  0.1808
 1955TIP3    H127356   3.175   0.674   9.950  0.4418  1.0068 -0.1350
 1955TIP3    H227357   3.161   0.667   9.800 -1.7269 -1.9326  0.1509
 1956TIP3   OH227358   1.616   1.611  11.706 -0.6814 -0.3965 -0.0713
 1956TIP3    H127359   1.528   1.582  11.732 -1.2508  1.6822  0.4037
 1956TIP3    H227360   1.654   1.643  11.788 -0.9380  2.3259 -0.9854
 1957TIP3   OH227361   3.393   5.441  12.518 -0.3655  0.2749  0.1791
 1957TIP3    H127362   3.468   5.463  12.463 -0.2619 -0.6606 -0.0693
 1957TIP3    H227363   3.408   5.350  12.544 -1.3079  0.1395  0.2814
 1958TIP3   OH227364   3.371   4.808  12.528  0.2734 -0.1916  0.2997
 1958TIP3    H127365   3.380   4.737  12.464 -2.7277  0.7381 -1.2413
 1958TIP3    H227366   3.434   4.874  12.499 -0.7912  0.0621 -1.4940
 1959TIP3   OH227367   1.935   3.605  14.676 -0.1204  0.1226  0.1642
 1959TIP3    H127368   2.012   3.549  14.680 -0.7379 -0.8612 -1.1921
 1959TIP3    H227369   1.954   3.678  14.735  1.2822 -0.7940  0.8529
 1960TIP3   OH227370   3.720   2.987  10.297  0.1379 -0.3529  0.1658
 1960TIP3    H127371   3.691   2.922  10.234  1.8186 -0.6580 -0.3303
 1960TIP3    H227372   3.757   3.058  10.243  0.6715 -0.1661  0.7719
 1961TIP3   OH227373   3.284   5.987  14.118  0.1274  0.2828  0.3303
 1961TIP3    H127374   3.237   5.982  14.201  0.0409  0.3391  0.2852
 1961TIP3    H227375   3.360   5.930  14.130 -1.1001 -1.5688 -0.3606
 1962TIP3   OH227376   2.746   0.565  10.248  0.4859  0.0401  0.1778
 1962TIP3    H127377   2.805   0.577  10.173 -0.6197  0.6407 -0.6186
 1962TIP3    H227378   2.668   0.524  10.210 -0.5986  1.5164  0.7728
 1963TIP3   OH227379   6.629   3.346  10.472 -0.3375 -0.7336  0.0465
 1963TIP3    H127380   6.698   3.279  10.467  0.4243  0.0674 -0.2910
 1963TIP3    H227381   6.672   3.427  10.443 -1.3091 -0.1406  0.2462
 1964TIP3   OH227382   7.076   1.026  11.002  0.7245 -0.1220  0.7796
 1964TIP3    H127383   7.062   0.937  11.033  0.9001 -0.4195 -0.0009
 1964TIP3    H227384   7.098   1.075  11.082  0.6300 -0.7702  1.2100
 1965TIP3   OH227385   1.362   4.201   9.895  0.1908 -0.2820  0.1526
 1965TIP3    H127386   1.368   4.106   9.901  0.9138 -0.1534  1.5841
 1965TIP3    H227387   1.426   4.225   9.828  2.5840 -0.5055  2.3047
 1966TIP3   OH227388   4.652   4.126  15.118  0.2868  0.4021 -0.0150
 1966TIP3    H127389   4.666   4.079  15.035  0.6870 -1.0526  0.8691
 1966TIP3    H227390   4.560   4.109  15.140  0.8702 -1.3614  1.1442
 1967TIP3   OH227391   2.119   6.868  10.010  0.0193 -0.5840 -0.1850
 1967TIP3    H127392   2.088   6.840   9.924  0.1439 -1.1818 -0.0368
 1967TIP3    H227393   2.112   6.790  10.065  0.7881 -0.4385  0.1258
 1968TIP3   OH227394   2.360   1.901   0.877  0.1809  0.2985  0.5606
 1968TIP3    H127395   2.324   1.873   0.962  0.3119  0.2941  0.6150
 1968TIP3    H227396   2.401   1.986   0.896  1.2209 -0.2480  0.7494
 1969TIP3   OH227397   6.305   4.572  10.448  0.0536 -0.0757  0.4088
 1969TIP3    H127398   6.267   4.660  10.444  1.2442  0.4582  0.5714
 1969TIP3    H227399   6.281   4.539  10.535  0.0639  0.2973  0.5529
 1970TIP3   OH227400   4.203   6.179  11.189 -0.7840  0.4683 -0.2140
 1970TIP3    H127401   4.116   6.143  11.169 -0.0014 -1.5557 -0.0803
 1970TIP3    H227402   4.226   6.229  11.110 -0.6742 -1.7312 -1.6280
 1971TIP3   OH227403   1.414   1.694  10.798 -0.1740 -0.5670 -0.6572
 1971TIP3    H127404   1.426   1.649  10.714 -0.2121  1.3401 -1.7317
 1971TIP3    H227405   1.495   1.676  10.846  0.4143 -0.6135 -1.6361
 1972TIP3   OH227406   2.195   2.287  10.513  0.1037 -0.0892 -0.0140
 1972TIP3    H127407   2.146   2.346  10.570  0.4565 -0.7451  0.9772
 1972TIP3    H227408   2.272   2.339  10.486 -1.3601  1.1146 -1.9782
 1973TIP3   OH227409   1.688   2.009  12.289 -0.1628 -0.0374  0.0406
 1973TIP3    H127410   1.778   1.986  12.265 -0.3987 -1.6107  0.6005
 1973TIP3    H227411   1.686   2.004  12.384 -0.5887  0.9708  0.0855
 1974TIP3   OH227412   2.283   4.386  13.576  0.3394  0.0368 -0.2567
 1974TIP3    H127413   2.258   4.447  13.506  0.6477  2.3386  1.5810
 1974TIP3    H227414   2.257   4.300  13.543 -1.1214  1.2775 -2.4663
 1975TIP3   OH227415   1.932   6.229  11.286  0.2896 -0.0111 -0.2505
 1975TIP3    H127416   1.970   6.266  11.206 -2.0967 -0.8366 -1.8103
 1975TIP3    H227417   1.934   6.135  11.272 -0.7702 -0.1255  0.3555
 1976TIP3   OH227418   0.809   5.474   9.879  0.0908 -0.5810  0.1376
 1976TIP3    H127419   0.798   5.483   9.784 -0.4020 -3.2669 -0.1144
 1976TIP3    H227420   0.882   5.531   9.901  1.5847 -1.5325 -2.2088
 1977TIP3   OH227421   7.014   4.157  10.357  0.5339  0.3559  0.0551
 1977TIP3    H127422   6.953   4.093  10.394 -1.1781  1.6449 -0.4785
 1977TIP3    H227423   7.070   4.180  10.431  0.9449 -1.4681  0.3489
 1978TIP3   OH227424   0.392   5.547   9.923  0.2677 -0.1665  0.0697
 1978TIP3    H127425   0.410   5.453   9.928 -0.1332 -0.2868 -0.6256
 1978TIP3    H227426   0.374   5.563   9.830  0.6416  0.6557  0.1333
 1979TIP3   OH227427   1.808   1.795  14.726  0.1621 -0.0851 -0.0794
 1979TIP3    H127428   1.871   1.863  14.702 -0.8650  1.0846  0.5213
 1979TIP3    H227429   1.774   1.763  14.642  1.0529 -0.2517 -0.3808
 1980TIP3   OH227430   2.470   3.417  10.524 -0.0030  0.6206 -0.1195
 1980TIP3    H127431   2.540   3.362  10.558 -0.9485 -0.9986 -0.7339
 1980TIP3    H227432   2.435   3.462  10.602  0.9989  0.6267  0.3352
 1981TIP3   OH227433   5.962   1.707   0.902  0.5805 -0.1646 -0.5650
 1981TIP3    H127434   5.980   1.743   0.815 -0.1688 -2.0885 -1.5413
 1981TIP3    H227435   6.039   1.655   0.924 -0.4511 -2.0446 -1.3508
 1982TIP3   OH227436   4.911   2.813  14.294 -0.5188  0.1815 -0.1144
 1982TIP3    H127437   4.927   2.825  14.387 -1.0698  1.7428 -0.2097
 1982TIP3    H227438   4.929   2.720  14.278 -0.2777 -0.0569  1.5079
 1983TIP3   OH227439   0.841   3.842  14.612  0.0022  0.1447 -0.2361
 1983TIP3    H127440   0.836   3.930  14.576  0.1752  0.8861  1.5204
 1983TIP3    H227441   0.764   3.797  14.577 -0.6109  1.2824 -0.3546
 1984TIP3   OH227442   6.806   6.437  11.592  0.2048  0.0424 -0.2481
 1984TIP3    H127443   6.815   6.526  11.557 -0.8412  1.3299  2.5489
 1984TIP3    H227444   6.896   6.410  11.612  0.3544  1.5404  1.2732
 1985TIP3   OH227445   1.635   1.912  11.662 -0.6586 -0.1690  0.4729
 1985TIP3    H127446   1.608   1.893  11.572 -1.1115  1.3037  0.3018
 1985TIP3    H227447   1.670   1.828  11.694 -2.0544 -1.1406 -0.4983
 1986TIP3   OH227448   0.510   5.023  11.133 -0.4623  0.6411 -0.0854
 1986TIP3    H127449   0.440   5.030  11.198  1.0386  1.8910  1.4362
 1986TIP3    H227450   0.467   4.986  11.056 -2.4853  0.0385  1.2837
 1987TIP3   OH227451   2.727   5.368  11.129 -0.1562  0.0469 -0.5070
 1987TIP3    H127452   2.792   5.347  11.196  0.7921  1.2832 -1.0251
 1987TIP3    H227453   2.768   5.340  11.047 -0.8110 -0.3361 -0.7077
 1988TIP3   OH227454   6.704   3.822  11.844  0.4210  0.0614  0.1022
 1988TIP3    H127455   6.667   3.745  11.801 -1.0322  0.6714  0.2064
 1988TIP3    H227456   6.793   3.829  11.810  1.0831 -2.4871  1.1743
 1989TIP3   OH227457   0.963   5.474  11.734  0.3902 -0.0811  0.0101
 1989TIP3    H127458   0.959   5.379  11.720  0.6422 -0.2960  1.3926
 1989TIP3    H227459   0.970   5.485  11.829  0.6012  1.3165 -0.1518
 1990TIP3   OH227460   0.576   0.502  11.025  0.1894  0.2329  0.4536
 1990TIP3    H127461   0.639   0.554  11.075  1.2556 -2.8715  2.5100
 1990TIP3    H227462   0.504   0.487  11.087  0.4126 -1.6154  0.3068
 1991TIP3   OH227463   4.204   1.210  14.310  0.3425  0.1356 -0.5077
 1991TIP3    H127464   4.246   1.129  14.339  0.0687  0.0046 -0.4747
 1991TIP3    H227465   4.130   1.180  14.257  0.3263  0.3671 -0.6143
 1992TIP3   OH227466   2.164   4.528  11.233  0.7282  0.3723 -0.2319
 1992TIP3    H127467   2.095   4.571  11.182 -0.6758 -1.5701 -0.0533
 1992TIP3    H227468   2.116   4.477  11.298  2.3671 -0.6609  0.1829
 1993TIP3   OH227469   2.114   4.497  10.435  0.3195  0.6906  0.1712
 1993TIP3    H127470   2.021   4.517  10.429  0.3635  1.0605  0.7507
 1993TIP3    H227471   2.119   4.402  10.425  0.0200  0.8292 -1.5043
 1994TIP3   OH227472   2.245   6.124  12.830  0.2219 -0.0236 -0.2531
 1994TIP3    H127473   2.334   6.132  12.796  0.1971 -0.0204 -0.3175
 1994TIP3    H227474   2.219   6.034  12.809 -0.4229  0.5112 -1.7763
 1995TIP3   OH227475   2.336   6.521  15.286  0.5476 -0.5624  0.4906
 1995TIP3    H127476   2.283   6.600  15.290  0.2116 -0.7162 -0.6803
 1995TIP3    H227477   2.306   6.468  15.360 -1.1770 -0.7808 -0.3359
 1996TIP3   OH227478   0.583   3.961   9.860  0.0562 -0.2084 -0.5264
 1996TIP3    H127479   0.567   3.867   9.845  1.0740 -0.8407  2.0922
 1996TIP3    H227480   0.618   3.993   9.777  1.1893 -2.5030 -0.9809
 1997TIP3   OH227481   3.703   2.017  11.486 -0.3003  0.3467  0.3630
 1997TIP3    H127482   3.709   2.062  11.571  0.1432 -0.3971  0.7320
 1997TIP3    H227483   3.749   2.075  11.425 -0.1570  0.6328  0.7370
 1998TIP3   OH227484   3.127   4.092  11.852  0.1215 -0.0175 -0.2044
 1998TIP3    H127485   3.150   4.179  11.820 -0.9987  0.5472  0.5096
 1998TIP3    H227486   3.056   4.063  11.796  0.7685 -0.6614 -0.7098
 1999TIP3   OH227487   4.106   0.498  10.495 -0.9622 -0.3326  0.1027
 1999TIP3    H127488   4.052   0.508  10.574 -0.6277 -0.0725  0.2959
 1999TIP3    H227489   4.181   0.555  10.509 -1.9984  1.4475 -1.3748
 2000TIP3   OH227490   2.077   5.988  11.113  0.2114  0.4568 -0.2904
 2000TIP3    H127491   2.037   5.962  11.196  1.7179 -1.9555 -0.2758
 2000TIP3    H227492   2.172   5.986  11.130  0.4842  2.1946 -1.4316
 2001TIP3   OH227493   4.651   4.575   9.771  0.4024  0.1503  0.0226
 2001TIP3    H127494   4.681   4.622   9.693 -0.0326  0.3783 -0.0151
 2001TIP3    H227495   4.640   4.485   9.742  0.2039  0.2419 -0.1926
 2002TIP3   OH227496   4.553   3.808  10.761 -0.0916  0.6060 -0.4505
 2002TIP3    H127497   4.535   3.714  10.755 -0.3068  0.6854 -1.1271
 2002TIP3    H227498   4.474   3.844  10.801  0.0598  0.4773 -0.0350
 2003TIP3   OH227499   6.598   3.591  11.702 -0.3806  1.0916  0.5369
 2003TIP3    H127500   6.648   3.536  11.642  1.9215  3.3610  0.2563
 2003TIP3    H227501   6.535   3.532  11.743  0.5542 -1.2614 -1.3191
 2004TIP3   OH227502   4.238   0.973  15.362 -0.0173  0.0865 -0.2134
 2004TIP3    H127503   4.205   1.020  15.439  3.1451  1.3902  0.4460
 2004TIP3    H227504   4.240   1.039  15.293  3.1739  0.7018  0.3610
 2005TIP3   OH227505   4.803   6.401   9.973  0.1572  0.6245 -0.0328
 2005TIP3    H127506   4.792   6.414   9.879 -0.7196  2.2393  0.2686
 2005TIP3    H227507   4.881   6.346   9.981 -0.6375 -0.8073 -1.7506
 2006TIP3   OH227508   7.088   5.886  11.316  0.8817  0.2697 -0.1809
 2006TIP3    H127509   7.097   5.831  11.394  1.7751  0.6256 -0.0266
 2006TIP3    H227510   7.052   5.968  11.348 -1.1616 -0.4625 -0.5188
 2007TIP3   OH227511   2.968   4.435  13.894  0.3936  1.1362 -0.5152
 2007TIP3    H127512   2.932   4.522  13.877 -0.5492  0.7494 -0.4793
 2007TIP3    H227513   2.911   4.375  13.847  0.0633  0.3889  0.8117
 2008TIP3   OH227514   5.186   3.816  11.186 -0.7264  0.3433 -0.5054
 2008TIP3    H127515   5.197   3.861  11.103  0.3179  0.0350 -0.5365
 2008TIP3    H227516   5.269   3.772  11.201 -1.4629 -0.9549 -0.1077
 2009TIP3   OH227517   2.439   4.276  11.196 -0.5920 -0.7490  0.1928
 2009TIP3    H127518   2.472   4.358  11.235 -1.2190 -0.3294 -0.1496
 2009TIP3    H227519   2.358   4.258  11.244 -0.4013 -1.2210  0.3329
 2010TIP3   OH227520   4.599   6.469  11.202 -0.3191 -0.0883 -0.0441
 2010TIP3    H127521   4.690   6.474  11.232 -0.4181 -3.4707  1.0842
 2010TIP3    H227522   4.602   6.494  11.110  1.7130 -0.0034  0.0235
 2011TIP3   OH227523   1.011   3.750  11.925  0.1816  0.2063 -0.3733
 2011TIP3    H127524   0.988   3.840  11.904  0.2840  0.5121  0.7714
 2011TIP3    H227525   0.992   3.700  11.845 -0.6751  1.0995 -0.7310
 2012TIP3   OH227526   3.894   3.056   9.926 -0.2648 -0.1941 -0.0970
 2012TIP3    H127527   3.825   3.122   9.918 -0.6704 -0.5110  0.6704
 2012TIP3    H227528   3.972   3.106   9.950 -0.4569  0.0604  0.0022
 2013TIP3   OH227529   3.212   6.682  12.128 -0.2977  0.2775  0.1825
 2013TIP3    H127530   3.162   6.751  12.171 -2.7180  0.7524 -3.1767
 2013TIP3    H227531   3.292   6.725  12.098 -0.0577  0.6957  1.4077
 2014TIP3   OH227532   6.492   0.842  13.475 -0.5416 -0.3391 -0.1687
 2014TIP3    H127533   6.445   0.897  13.538  0.1400 -1.7174  1.5708
 2014TIP3    H227534   6.487   0.754  13.511  0.3537 -1.0651 -1.7700
 2015TIP3   OH227535   3.552   4.457  15.591  0.4098  0.1841 -0.3618
 2015TIP3    H127536   3.462   4.461  15.559  0.3625 -2.2165 -0.6101
 2015TIP3    H227537   3.603   4.504  15.525 -0.3506 -0.5179 -1.4683
 2016TIP3   OH227538   5.775   2.763  12.782  0.0584 -0.2809 -0.7338
 2016TIP3    H127539   5.714   2.700  12.745 -1.0393  1.5349 -2.0822
 2016TIP3    H227540   5.850   2.762  12.723 -0.1281 -0.0263 -0.9732
 2017TIP3   OH227541   1.205   0.238  11.547  0.7073 -0.3079 -0.2713
 2017TIP3    H127542   1.113   0.226  11.525  0.1503 -1.3804  2.5054
 2017TIP3    H227543   1.218   0.333  11.545 -0.1889 -0.1954 -1.5895
 2018TIP3   OH227544   3.872   0.017   9.881  0.0947  0.0962  0.2619
 2018TIP3    H127545   3.861   0.031   9.975  0.1916 -0.2800  0.3311
 2018TIP3    H227546   3.965   0.028   9.865  0.0734  0.1921  0.2040
 2019TIP3   OH227547   5.709   3.310  12.262 -0.2389 -0.4068 -0.2116
 2019TIP3    H127548   5.752   3.225  12.269  1.2905  0.2500 -1.2149
 2019TIP3    H227549   5.733   3.356  12.343 -0.7059 -0.7735  0.1336
 2020TIP3   OH227550   1.384   0.943  12.068  0.1602 -0.0741 -0.4865
 2020TIP3    H127551   1.312   0.881  12.081  1.4484 -1.1941  1.4450
 2020TIP3    H227552   1.435   0.905  11.996  0.2837 -0.6421 -0.1021
 2021TIP3   OH227553   3.134   5.058  13.360 -0.0626  0.1610  0.0456
 2021TIP3    H127554   3.093   4.978  13.327 -0.2426  0.6133 -0.8596
 2021TIP3    H227555   3.117   5.058  13.454  1.1555 -1.5680  0.2832
 2022TIP3   OH227556   4.193   6.313  10.347 -0.5272 -0.2895 -0.0724
 2022TIP3    H127557   4.188   6.352  10.260 -0.3412 -1.1893 -0.4895
 2022TIP3    H227558   4.186   6.218  10.332 -0.6212 -0.4441  0.8962
 2023TIP3   OH227559   0.441   5.263  10.949 -0.2442 -0.0779 -0.1967
 2023TIP3    H127560   0.391   5.202  10.894  0.4289 -1.7857  1.0525
 2023TIP3    H227561   0.486   5.207  11.012  2.1201  1.5303 -0.3919
 2024TIP3   OH227562   6.217   1.296  11.574 -0.2065  0.0719 -0.1225
 2024TIP3    H127563   6.198   1.296  11.481 -0.3736 -0.1453 -0.0881
 2024TIP3    H227564   6.273   1.219  11.587  0.6077  0.6487 -0.2062
 2025TIP3   OH227565   4.107   0.253  10.368 -0.2540 -0.0168 -0.4295
 2025TIP3    H127566   4.088   0.266  10.275 -0.8307  0.9705 -0.1797
 2025TIP3    H227567   4.096   0.340  10.407  0.5580 -0.3031  0.4639
 2026TIP3   OH227568   4.444   3.804  11.320 -0.8167 -0.2653  0.2706
 2026TIP3    H127569   4.498   3.803  11.399 -1.9449 -0.6397  1.0596
 2026TIP3    H227570   4.506   3.813  11.248  0.1618  1.0901  1.2509
 2027TIP3   OH227571   3.833   5.642  14.866 -0.2990  0.0202 -0.0929
 2027TIP3    H127572   3.866   5.661  14.954 -1.2913  2.7570 -0.2857
 2027TIP3    H227573   3.841   5.725  14.819 -1.8891 -0.8321 -1.9244
 2028TIP3   OH227574   6.886   2.571  13.667 -0.5243  0.1767  0.0494
 2028TIP3    H127575   6.958   2.582  13.604 -0.0521 -3.6913 -0.2025
 2028TIP3    H227576   6.815   2.624  13.631  1.1369  1.4774 -1.4220
 2029TIP3   OH227577   2.961   5.679   9.812  0.1075 -0.3720 -0.1309
 2029TIP3    H127578   3.043   5.629   9.807  0.2919  0.1365 -2.9275
 2029TIP3    H227579   2.893   5.616   9.787  0.1530  0.3385 -2.0670
 2030TIP3   OH227580   1.909   1.255  11.167  0.0339 -0.5125  0.3275
 2030TIP3    H127581   1.841   1.249  11.233  1.8728 -2.1177  2.1155
 2030TIP3    H227582   1.897   1.177  11.112 -0.2356 -0.2225 -0.0313
 2031TIP3   OH227583   0.600   5.247  12.778 -0.1338 -0.0769 -0.0932
 2031TIP3    H127584   0.636   5.333  12.756 -2.6740  0.8808 -0.7387
 2031TIP3    H227585   0.539   5.228  12.706 -0.7000 -1.7233  0.8047
 2032TIP3   OH227586   7.004   3.655   9.896  0.0995 -0.3702  0.2319
 2032TIP3    H127587   6.977   3.583   9.953 -2.5884  0.3616 -0.0447
 2032TIP3    H227588   7.004   3.618   9.808 -1.0888 -0.1171  0.1139
 2033TIP3   OH227589   2.095   5.666  15.427  0.1110  0.3715  0.4738
 2033TIP3    H127590   2.086   5.760  15.411 -0.5075  0.6256  2.1947
 2033TIP3    H227591   2.039   5.625  15.361 -0.0469  1.2393  0.0595
 2034TIP3   OH227592   2.880   0.646  10.016  0.5875  0.1306  0.0394
 2034TIP3    H127593   2.841   0.726   9.981  1.4675  1.2897  1.6136
 2034TIP3    H227594   2.969   0.645   9.979  0.5684 -0.1218  0.0033
 2035TIP3   OH227595   3.383   0.100  14.078  0.1688  0.7916  0.5854
 2035TIP3    H127596   3.322   0.034  14.047  0.1647  0.1874  1.8405
 2035TIP3    H227597   3.353   0.122  14.166  2.2822 -0.1846  1.5946
 2036TIP3   OH227598   0.662   3.433  10.654  0.5348  0.2695 -0.0607
 2036TIP3    H127599   0.599   3.384  10.602  1.0640 -0.1523 -0.3017
 2036TIP3    H227600   0.741   3.438  10.600  1.2137 -0.4879  0.8344
 2037TIP3   OH227601   1.637   0.913  10.761  0.1887  0.5224 -0.3250
 2037TIP3    H127602   1.677   0.952  10.682  1.4282  0.4852  0.2701
 2037TIP3    H227603   1.702   0.851  10.793 -0.2905  0.5597  0.7528
 2038TIP3   OH227604   1.801   5.798   9.772  0.0666  0.5571  0.2578
 2038TIP3    H127605   1.870   5.779   9.708  0.1592 -0.3748  0.6234
 2038TIP3    H227606   1.817   5.736   9.844 -0.3855  1.1959  0.9177
 2039TIP3   OH227607   0.732   5.096  10.734 -0.2227 -0.0635  0.3120
 2039TIP3    H127608   0.760   5.141  10.814  0.6682  0.5156 -0.3206
 2039TIP3    H227609   0.674   5.026  10.765  0.9048 -0.4722  1.5549
 2040TIP3   OH227610   4.476   5.186  12.540 -0.0609 -0.2469 -0.0814
 2040TIP3    H127611   4.534   5.163  12.612 -0.4049 -1.7473 -0.2805
 2040TIP3    H227612   4.427   5.106  12.521 -1.0526  0.5518 -0.9798
 2041TIP3   OH227613   3.020   0.788  12.948 -0.1348 -0.1554 -0.2094
 2041TIP3    H127614   3.048   0.780  13.039 -2.4243 -0.4474  0.4876
 2041TIP3    H227615   3.031   0.881  12.927 -2.8257  0.5681  1.4582
 2042TIP3   OH227616   3.612   3.928  11.123 -0.0941 -0.0070  0.2214
 2042TIP3    H127617   3.563   3.986  11.066 -0.9173 -0.7515  0.1710
 2042TIP3    H227618   3.671   3.987  11.172  1.2413  0.5502 -1.9817
 2043TIP3   OH227619   5.515   3.995  10.628  0.2882 -0.0779 -0.1870
 2043TIP3    H127620   5.547   4.065  10.685 -0.3035 -0.4512  0.6038
 2043TIP3    H227621   5.445   3.954  10.677  0.0110 -0.6399 -1.0392
 2044TIP3   OH227622   1.211   4.582  10.292 -0.3347 -0.6173 -0.4072
 2044TIP3    H127623   1.239   4.648  10.230 -4.0092  0.9629 -0.5235
 2044TIP3    H227624   1.283   4.519  10.295  1.7234  1.5144 -2.9674
 2045TIP3   OH227625   6.222   4.982  10.742  0.5421 -0.2180  0.1827
 2045TIP3    H127626   6.191   5.065  10.780 -0.9148 -0.4101 -0.5415
 2045TIP3    H227627   6.231   4.924  10.817 -1.9268 -0.4714  0.3220
 2046TIP3   OH227628   4.585   1.306  10.920  0.5681 -0.4137  0.7204
 2046TIP3    H127629   4.544   1.276  11.000  1.5692 -1.9940  0.6448
 2046TIP3    H227630   4.677   1.283  10.929  0.7567 -0.3114 -0.7314
 2047TIP3   OH227631   4.575   2.412   1.639  0.2595 -0.1968 -0.2874
 2047TIP3    H127632   4.558   2.355   1.714 -0.5229 -1.0093 -1.0644
 2047TIP3    H227633   4.635   2.362   1.583 -0.4425 -0.2712 -0.9831
 2048TIP3   OH227634   5.985   2.882  10.622 -0.4986  0.0922 -0.2885
 2048TIP3    H127635   5.901   2.851  10.654 -0.4778 -1.7949 -1.9648
 2048TIP3    H227636   6.033   2.802  10.598  3.0131  0.8850  3.5028
 2049TIP3   OH227637   3.819   4.755   9.926  0.1578  0.0345 -0.0139
 2049TIP3    H127638   3.896   4.743   9.871 -0.1327  1.6389 -0.8214
 2049TIP3    H227639   3.745   4.736   9.869 -0.1696  2.3482 -0.4223
 2050TIP3   OH227640   2.962   5.604  11.966  0.4143  0.7135  0.0606
 2050TIP3    H127641   2.926   5.688  11.937  0.3032  0.9050  0.7286
 2050TIP3    H227642   2.957   5.608  12.062 -0.1218 -0.2904  0.0843
 2051TIP3   OH227643   1.135   0.150  11.246 -0.3364 -0.6569  0.4632
 2051TIP3    H127644   1.227   0.176  11.247 -0.3702 -0.4698 -0.5592
 2051TIP3    H227645   1.101   0.186  11.164 -0.9806 -1.9047  0.1787
 2052TIP3   OH227646   6.691   4.503  10.930 -0.4270  0.7453 -0.3481
 2052TIP3    H127647   6.705   4.408  10.924 -1.8277  0.2230  3.1865
 2052TIP3    H227648   6.768   4.541  10.888  3.0829 -2.0113  3.1631
 2053TIP3   OH227649   2.856   1.613  12.752 -0.0778  0.4799 -0.2496
 2053TIP3    H127650   2.918   1.558  12.706 -0.0332  0.1954  0.1445
 2053TIP3    H227651   2.906   1.691  12.776 -0.4518  1.2175 -1.8350
 2054TIP3   OH227652   7.022   1.867  14.290  0.7148  0.3630  0.0352
 2054TIP3    H127653   6.976   1.862  14.374  0.2843 -0.4716 -0.2451
 2054TIP3    H227654   6.990   1.949  14.250  0.9658  0.7897  0.7035
 2055TIP3   OH227655   5.455   6.088  11.045 -0.5814  0.4400  0.1615
 2055TIP3    H127656   5.494   6.014  11.092  0.6007  1.5678  1.0016
 2055TIP3    H227657   5.383   6.049  10.995  0.3062 -1.3442  0.2210
 2056TIP3   OH227658   0.550   3.751  11.622  0.2370  0.0600 -0.1313
 2056TIP3    H127659   0.568   3.716  11.534  1.8905 -0.4069  0.3579
 2056TIP3    H227660   0.516   3.676  11.671 -1.9192  0.6381 -0.7151
 2057TIP3   OH227661   0.659   3.439   9.753 -0.5237  0.3065 -0.6962
 2057TIP3    H127662   0.609   3.386   9.814  0.7739 -1.6803 -1.3147
 2057TIP3    H227663   0.750   3.413   9.767 -0.0139  1.3417 -1.9928
 2058TIP3   OH227664   6.302   2.237  14.533  0.3774 -0.1550  1.0149
 2058TIP3    H127665   6.286   2.201  14.620  0.4276  0.4251  1.2714
 2058TIP3    H227666   6.393   2.267  14.536  0.2747  0.1796  0.8827
 2059TIP3   OH227667   2.068   5.718  10.124 -0.8123 -0.2335 -0.2548
 2059TIP3    H127668   2.001   5.671  10.074 -1.3871 -0.2706  0.5340
 2059TIP3    H227669   2.130   5.749  10.058 -0.7120 -1.6429 -0.8439
 2060TIP3   OH227670   6.881   6.478  12.103  0.5487  0.2342  0.3053
 2060TIP3    H127671   6.844   6.441  12.183  0.4206  0.7755  0.4986
 2060TIP3    H227672   6.822   6.450  12.033  0.2372  0.4112  0.5010
 2061TIP3   OH227673   3.608   4.742   9.713  0.3963 -0.1592 -0.2142
 2061TIP3    H127674   3.548   4.707   9.779  1.0624 -1.9561 -0.5291
 2061TIP3    H227675   3.558   4.809   9.667 -0.3250  0.5667  1.6054
 2062TIP3   OH227676   3.083   4.330  14.153 -0.5703  0.0236 -0.0167
 2062TIP3    H127677   3.010   4.392  14.157  0.3318  1.0083  3.7493
 2062TIP3    H227678   3.151   4.377  14.105 -1.0579  0.6248 -0.1385
 2063TIP3   OH227679   4.286   2.730   0.164  0.0684 -0.6208 -0.2568
 2063TIP3    H127680   4.191   2.728   0.180  0.1206  0.9006  0.3303
 2063TIP3    H227681   4.295   2.775   0.080  0.2335 -1.6174 -0.7859
 2064TIP3   OH227682   4.834   4.771  10.567  0.2917 -0.1714  0.0528
 2064TIP3    H127683   4.807   4.697  10.513  0.5484 -0.1625 -0.0912
 2064TIP3    H227684   4.900   4.736  10.626 -1.0550 -0.5258  1.3967
 2065TIP3   OH227685   7.086   3.964  13.606 -0.8009  0.5710  0.3322
 2065TIP3    H127686   7.121   4.033  13.663  0.6628 -0.1493  0.3334
 2065TIP3    H227687   7.105   3.995  13.517  1.3392 -0.5442  0.3582
 2066TIP3   OH227688   2.390   4.657  10.814  0.0428  0.2286 -0.4797
 2066TIP3    H127689   2.406   4.610  10.732 -0.7412  1.1813 -1.1935
 2066TIP3    H227690   2.420   4.597  10.883  1.1447 -0.3841 -1.4800
 2067TIP3   OH227691   5.238   2.870  10.654 -0.2688  0.5273 -0.4120
 2067TIP3    H127692   5.305   2.883  10.587  0.4805  2.2910  0.6557
 2067TIP3    H227693   5.193   2.790  10.627  3.6856 -1.9907  0.0037
 2068TIP3   OH227694   3.184   6.082  11.099 -0.4737  0.2473  0.4209
 2068TIP3    H127695   3.148   6.169  11.115  0.2265  1.6472 -4.7613
 2068TIP3    H227696   3.139   6.052  11.020  0.9703 -3.1877  0.8113
 2069TIP3   OH227697   2.577   4.057  13.471 -0.0092  0.1309 -0.0893
 2069TIP3    H127698   2.664   4.026  13.495 -0.1152  0.5246  0.8453
 2069TIP3    H227699   2.577   4.059  13.375  0.9435 -0.0523 -0.0931
 2070TIP3   OH227700   3.401   6.279  13.206 -0.0183  0.0565  0.5398
 2070TIP3    H127701   3.407   6.251  13.297  1.0520  0.0972  0.4858
 2070TIP3    H227702   3.318   6.243  13.175  0.1211 -0.8604  1.2265
 2071TIP3   OH227703   2.828   4.843  12.338 -0.1242 -0.2752  0.2680
 2071TIP3    H127704   2.904   4.814  12.388  0.2210  0.4544  0.1807
 2071TIP3    H227705   2.865   4.894  12.266 -0.7297  0.6711  0.6200
 2072TIP3   OH227706   5.137   3.226  10.782  0.1435  0.3211 -0.4682
 2072TIP3    H127707   5.131   3.244  10.875 -1.8866 -1.3246 -0.2435
 2072TIP3    H227708   5.155   3.311  10.742  1.1408  1.0289  1.4016
 2073TIP3   OH227709   4.143   6.488  11.527  0.0791 -0.2326  0.1108
 2073TIP3    H127710   4.081   6.556  11.502 -0.7505 -1.3145 -0.8259
 2073TIP3    H227711   4.128   6.473  11.620 -1.6038 -1.0234 -0.2782
 2074TIP3   OH227712   1.023   5.553  14.469  0.3667  0.3215  0.5066
 2074TIP3    H127713   1.078   5.490  14.423  0.0823  0.0951  0.4819
 2074TIP3    H227714   1.048   5.638  14.432 -0.7879  0.0249 -1.0139
 2075TIP3   OH227715   5.417   2.381   9.959 -0.2893 -0.0110 -0.2207
 2075TIP3    H127716   5.340   2.332   9.991 -0.2806 -0.4114 -0.8092
 2075TIP3    H227717   5.399   2.396   9.867  0.2419  0.0870 -0.3085
 2076TIP3   OH227718   2.275   6.120  10.933 -0.9333  0.3141 -0.2648
 2076TIP3    H127719   2.321   6.056  10.879  1.2762 -0.3186  2.2577
 2076TIP3    H227720   2.209   6.070  10.980  0.4368 -0.0354  1.3052
 2077TIP3   OH227721   1.906   2.099  11.821  0.2647 -0.4321  0.2606
 2077TIP3    H127722   1.834   2.061  11.871  0.4166 -1.9287 -0.6122
 2077TIP3    H227723   1.863   2.156  11.757 -0.0583 -0.2137  0.6753
 2078TIP3   OH227724   4.827   3.778  11.487 -0.4396 -0.1148  0.2678
 2078TIP3    H127725   4.845   3.872  11.489 -0.2962 -0.1604  2.0777
 2078TIP3    H227726   4.745   3.768  11.535 -0.2627 -0.9610  0.4108
 2079TIP3   OH227727   0.474   6.679  11.018 -0.3852 -0.2947 -0.7046
 2079TIP3    H127728   0.474   6.584  11.005  1.8563 -0.2998 -0.9135
 2079TIP3    H227729   0.506   6.690  11.107  1.2752  0.3149 -1.3644
 2080TIP3   OH227730   2.060   4.655  10.971 -0.1766 -0.0606 -0.6128
 2080TIP3    H127731   2.144   4.691  10.998 -0.3598 -0.1297  0.0522
 2080TIP3    H227732   1.995   4.715  11.007 -0.3720  0.9550 -2.5597
 2081TIP3   OH227733   5.068   3.646   9.898 -0.2764  0.0244 -0.0295
 2081TIP3    H127734   5.085   3.690   9.814  1.1939 -0.9653 -0.2587
 2081TIP3    H227735   4.976   3.667   9.917 -0.2564  1.3164 -1.2526
 2082TIP3   OH227736   5.399   0.200  10.692 -0.2658  0.6441  1.1690
 2082TIP3    H127737   5.315   0.237  10.663 -0.3250  0.3080  0.9061
 2082TIP3    H227738   5.398   0.110  10.660  0.6154  0.9271  0.2949
 2083TIP3   OH227739   2.640   4.239  10.614 -0.4377 -0.3494 -0.1772
 2083TIP3    H127740   2.614   4.167  10.672 -2.2091  0.1057 -0.3843
 2083TIP3    H227741   2.572   4.241  10.546  0.8879 -0.0014 -1.5123
 2084TIP3   OH227742   1.130   5.325  12.466 -0.5223  0.5775  0.3168
 2084TIP3    H127743   1.054   5.377  12.493  0.4039  2.3280 -0.3405
 2084TIP3    H227744   1.125   5.322  12.371 -0.4568 -0.3716  0.3441
 2085TIP3   OH227745   3.304   4.986  10.284 -0.0822 -0.4545  0.7456
 2085TIP3    H127746   3.372   4.924  10.258 -0.7555 -1.1008  0.4753
 2085TIP3    H227747   3.222   4.944  10.256 -0.4641  1.1488 -0.5770
 2086TIP3   OH227748   0.352   2.522  13.871 -0.3321 -0.3355  0.0767
 2086TIP3    H127749   0.282   2.467  13.835 -2.3422  0.5431  2.5271
 2086TIP3    H227750   0.351   2.601  13.816 -1.3613 -0.2896  0.1515
 2087TIP3   OH227751   4.519   2.314  13.473 -0.2263 -0.6559  0.2201
 2087TIP3    H127752   4.506   2.408  13.460 -0.6086 -0.7792 -0.3114
 2087TIP3    H227753   4.562   2.307  13.558 -2.0158 -0.1120  1.2039
 2088TIP3   OH227754   0.711   0.662  11.756 -0.3225  0.5277  0.3763
 2088TIP3    H127755   0.760   0.673  11.675  0.5206  1.7719  1.0442
 2088TIP3    H227756   0.723   0.569  11.778 -0.3255  0.2470 -0.7665
 2089TIP3   OH227757   5.196   3.728  11.515 -0.2059  0.1049  0.4569
 2089TIP3    H127758   5.274   3.766  11.473  0.2781  0.2016  1.4387
 2089TIP3    H227759   5.137   3.803  11.527 -0.6451 -0.0410 -0.6830
 2090TIP3   OH227760   3.871   4.839  11.504 -0.3180  0.0668 -0.1950
 2090TIP3    H127761   3.837   4.927  11.521 -0.8440 -0.0312 -0.7087
 2090TIP3    H227762   3.899   4.842  11.413 -0.5025 -0.3471 -0.2658
 2091TIP3   OH227763   2.611   1.288   9.824  0.3266 -0.5812  0.0472
 2091TIP3    H127764   2.666   1.214   9.799 -0.8489 -1.4489 -0.0183
 2091TIP3    H227765   2.620   1.350   9.751  1.9252 -0.2956  0.4638
 2092TIP3   OH227766   0.727   1.911  11.692  0.0783 -0.2571  0.5707
 2092TIP3    H127767   0.681   1.986  11.653  2.4901  1.2340  0.4516
 2092TIP3    H227768   0.720   1.842  11.626 -2.2832 -0.2045  0.7233
 2093TIP3   OH227769   2.118   3.625  11.840 -0.0944  0.3496 -0.0042
 2093TIP3    H127770   2.174   3.689  11.885  0.4586  0.0243 -0.2224
 2093TIP3    H227771   2.150   3.624  11.750 -0.6153  0.3409 -0.1877
 2094TIP3   OH227772   5.508   5.129  14.106 -0.1382 -0.3048 -0.4846
 2094TIP3    H127773   5.416   5.104  14.093  0.2854 -1.0107 -2.3413
 2094TIP3    H227774   5.545   5.058  14.158 -1.1073  0.9795  2.0420
 2095TIP3   OH227775   1.141   6.360  10.461 -0.7030 -0.1646 -0.2041
 2095TIP3    H127776   1.224   6.396  10.493 -0.7755  0.3723 -0.6105
 2095TIP3    H227777   1.076   6.387  10.526 -0.2635 -2.2497  1.1593
 2096TIP3   OH227778   2.990   4.943  11.828 -0.2731  0.4602  0.3164
 2096TIP3    H127779   3.045   5.016  11.799  0.3464 -0.1108  0.0449
 2096TIP3    H227780   3.040   4.865  11.806 -1.5202 -0.0967 -0.6250
 2097TIP3   OH227781   6.584   6.268  11.561 -0.9331 -0.4011  0.0600
 2097TIP3    H127782   6.514   6.262  11.627 -1.1873  2.6736  0.1327
 2097TIP3    H227783   6.636   6.343  11.588  0.9226 -1.1219 -1.4356
 2098TIP3   OH227784   4.421   2.366  10.135 -0.5040 -0.0256  0.0771
 2098TIP3    H127785   4.405   2.460  10.139  0.7117  0.1557  1.1828
 2098TIP3    H227786   4.462   2.352  10.050  1.3308  0.7844  0.8136
 2099TIP3   OH227787   3.095   5.788  11.545  0.7127 -0.3356 -1.0297
 2099TIP3    H127788   3.127   5.698  11.546  0.7766 -0.3270  1.7379
 2099TIP3    H227789   3.161   5.836  11.495  3.1462 -1.0328  1.3375
 2100TIP3   OH227790   5.143   4.398   9.682 -0.0929 -0.1303 -0.0319
 2100TIP3    H127791   5.062   4.369   9.639 -0.0500 -1.2739  0.6390
 2100TIP3    H227792   5.188   4.451   9.615 -0.7370 -0.6433 -0.8845
 2101TIP3   OH227793   6.257   4.757  10.901  0.1282  0.5615 -0.5335
 2101TIP3    H127794   6.255   4.672  10.946  1.2564  1.1126  0.5727
 2101TIP3    H227795   6.350   4.774  10.886 -0.1914  0.6218 -2.6748
 2102TIP3   OH227796   3.538   6.760   9.973 -0.5012 -0.3692 -0.3174
 2102TIP3    H127797   3.463   6.715  10.011 -1.5137  1.2661 -0.3418
 2102TIP3    H227798   3.516   6.852   9.978  0.9861  0.0709 -1.4509
 2103TIP3   OH227799   0.653   5.999  14.032 -0.1650  0.0593 -0.2929
 2103TIP3    H127800   0.695   5.916  14.058 -0.8287 -0.2344 -0.1497
 2103TIP3    H227801   0.712   6.066  14.066 -0.1986 -0.3434  0.5965
 2104TIP3   OH227802   2.747   4.347  10.857 -0.0028  0.0370  0.3231
 2104TIP3    H127803   2.699   4.324  10.777 -0.6713  0.7446  0.5188
 2104TIP3    H227804   2.816   4.281  10.863 -0.1375 -0.1994 -0.6773
 2105TIP3   OH227805   2.210   7.149  11.134 -0.2551 -0.2678 -0.1586
 2105TIP3    H127806   2.263   7.179  11.208  0.8383 -2.3251 -0.0822
 2105TIP3    H227807   2.138   7.101  11.174 -1.1601  0.9020 -0.3465
 2106TIP3   OH227808   6.368   6.597  12.795 -0.0428 -0.0552  0.0385
 2106TIP3    H127809   6.395   6.654  12.723 -2.4143  0.0239 -0.8384
 2106TIP3    H227810   6.284   6.633  12.823  1.2795  0.4734  3.5204
 2107TIP3   OH227811   5.939   4.611  10.928 -0.3180 -1.1435  0.2951
 2107TIP3    H127812   5.987   4.677  10.978 -2.3621  1.0173 -0.4957
 2107TIP3    H227813   5.871   4.580  10.987 -0.8787 -0.7435 -0.1283
 2108TIP3   OH227814   3.777   4.700  10.174  0.3473  0.1015 -0.3606
 2108TIP3    H127815   3.805   4.609  10.175  0.2317  0.0583  1.1167
 2108TIP3    H227816   3.805   4.734  10.089  0.5400 -1.2599 -0.8504
 2109TIP3   OH227817   7.193   3.911  12.111  0.2791  0.5419  0.1708
 2109TIP3    H127818   7.286   3.892  12.122  0.5320  1.9539  0.5085
 2109TIP3    H227819   7.188   4.007  12.112 -0.7902  0.5784 -2.8114
 2110TIP3   OH227820   0.976   5.039   9.617 -0.5170 -0.2740  0.0239
 2110TIP3    H127821   0.907   4.983   9.651  0.0839  0.0159  1.8096
 2110TIP3    H227822   0.932   5.119   9.589 -1.1480 -0.9001 -0.7555
 2111TIP3   OH227823   4.179   4.713  10.881  0.1032  0.6605  0.1660
 2111TIP3    H127824   4.225   4.729  10.799 -0.4726  1.3387 -0.0310
 2111TIP3    H227825   4.098   4.667  10.855  0.5984 -0.4312  0.4977
 2112TIP3   OH227826   6.635   6.652   9.948 -0.2504 -0.5800 -0.2539
 2112TIP3    H127827   6.696   6.725   9.939  1.6205 -2.1301 -0.4950
 2112TIP3    H227828   6.687   6.581   9.986 -2.2941 -1.4777  0.9976
 2113TIP3   OH227829   5.579   1.695  14.130 -0.0799 -0.2766 -0.3083
 2113TIP3    H127830   5.598   1.730  14.043 -0.0633 -0.4145 -0.3599
 2113TIP3    H227831   5.539   1.769  14.177 -0.7567 -0.4081 -0.6614
 2114TIP3   OH227832   2.315   3.851   9.756 -0.1712 -0.0847 -0.3980
 2114TIP3    H127833   2.232   3.844   9.709  0.5115  0.0044 -1.6409
 2114TIP3    H227834   2.361   3.770   9.735  1.0724  0.9403 -1.7330
 2115TIP3   OH227835   2.805   1.310  11.540  0.0557  0.1694 -0.1784
 2115TIP3    H127836   2.790   1.343  11.451  1.6336  1.1659 -0.1014
 2115TIP3    H227837   2.774   1.380  11.597 -2.1551 -1.0074  0.0967
 2116TIP3   OH227838   2.028   2.534  10.225  0.1608 -0.2131  0.2551
 2116TIP3    H127839   2.000   2.499  10.140  1.1093 -0.1823 -0.0845
 2116TIP3    H227840   1.947   2.547  10.274 -0.5231  1.1764 -1.1866
 2117TIP3   OH227841   2.644   2.716  12.749 -0.4369 -0.6678 -0.5710
 2117TIP3    H127842   2.664   2.659  12.675  1.7081  0.6526 -1.0213
 2117TIP3    H227843   2.690   2.797  12.731 -1.1986  0.2469  1.4390
 2118TIP3   OH227844   3.458   5.030  11.885  0.7609 -0.5620  0.4905
 2118TIP3    H127845   3.440   4.950  11.934  0.6170 -0.9137 -0.1358
 2118TIP3    H227846   3.523   5.005  11.820 -0.1170 -0.4488 -0.4548
 2119TIP3   OH227847   0.799   6.278  11.087 -0.0570  0.0764  1.0414
 2119TIP3    H127848   0.734   6.326  11.139  0.5740  0.3944  1.5365
 2119TIP3    H227849   0.821   6.202  11.142  1.8383  1.2803  1.9728
 2120TIP3   OH227850   2.295   6.933  10.861  0.3963  0.0650 -0.1833
 2120TIP3    H127851   2.200   6.933  10.857  0.4501 -0.7287 -2.1034
 2120TIP3    H227852   2.317   7.013  10.908 -1.2113  0.1913  0.3800
 2121TIP3   OH227853   1.872   6.336  11.945 -0.0414  0.2052 -1.0062
 2121TIP3    H127854   1.918   6.281  11.882  0.5693  0.9244 -1.1971
 2121TIP3    H227855   1.927   6.333  12.024  0.2370  0.9026 -1.1685
 2122TIP3   OH227856   2.345   2.273  12.646  0.4219 -0.1670 -0.4699
 2122TIP3    H127857   2.323   2.220  12.723  0.9556  0.3921  0.0724
 2122TIP3    H227858   2.412   2.334  12.677 -0.4877  1.1089 -0.9733
 2123TIP3   OH227859   5.260   3.188  10.476 -0.1181 -0.2450  0.3796
 2123TIP3    H127860   5.328   3.147  10.423 -0.9100 -1.8458  0.5872
 2123TIP3    H227861   5.308   3.235  10.545  0.8674  1.0521 -1.1565
 2124TIP3   OH227862   2.020   2.226  11.484  0.0551  0.2172  0.0426
 2124TIP3    H127863   1.960   2.291  11.447  1.1079  1.4573  0.4759
 2124TIP3    H227864   2.079   2.276  11.540  2.5807 -0.7032 -1.6808
 2125TIP3   OH227865   3.815   4.230  14.334 -0.5441  0.6638 -0.1118
 2125TIP3    H127866   3.809   4.186  14.249  2.8499  0.7306 -0.4539
 2125TIP3    H227867   3.804   4.160  14.398 -0.8202  0.2345 -0.6202
 2126TIP3   OH227868   2.580   3.894  10.098 -0.2797  0.2469  0.4474
 2126TIP3    H127869   2.628   3.960  10.149 -1.6050 -0.6727  2.9772
 2126TIP3    H227870   2.488   3.912  10.117 -0.7142 -1.1840 -0.3048
 2127TIP3   OH227871   1.104   3.396  13.617 -1.0559  0.2780 -0.0708
 2127TIP3    H127872   1.065   3.461  13.676 -0.5723 -0.0204  0.5798
 2127TIP3    H227873   1.050   3.400  13.538 -0.3549  2.2739 -0.4751
 2128TIP3   OH227874   0.570   3.991  11.335  0.4150 -0.6846  0.0740
 2128TIP3    H127875   0.539   3.905  11.309  2.4173 -1.9099  1.6118
 2128TIP3    H227876   0.513   4.017  11.407 -1.3474  0.1281 -1.5491
 2129TIP3   OH227877   3.747   5.459  10.569  0.6026 -0.3619 -0.1603
 2129TIP3    H127878   3.715   5.402  10.640 -0.0440 -0.9193 -0.8819
 2129TIP3    H227879   3.667   5.492  10.528  0.9800  0.4639 -0.2343
 2130TIP3   OH227880   3.444   1.902  11.539 -0.2820 -0.3097 -0.0440
 2130TIP3    H127881   3.517   1.952  11.504 -0.6353 -0.1073 -0.5016
 2130TIP3    H227882   3.460   1.898  11.633 -0.4108  0.9263  0.0381
 2131TIP3   OH227883   5.275   2.904  12.927 -0.2250  0.3142  0.1660
 2131TIP3    H127884   5.355   2.917  12.977 -0.0768 -0.2205  0.0621
 2131TIP3    H227885   5.205   2.934  12.986  0.2843  3.9606 -0.9401
 2132TIP3   OH227886   4.705   1.504  11.857  1.0005  0.6127 -0.0228
 2132TIP3    H127887   4.732   1.439  11.922 -0.8365 -0.1581 -0.0045
 2132TIP3    H227888   4.696   1.455  11.776 -1.3016  0.6215  0.1903
 2133TIP3   OH227889   0.433   4.662   9.682 -0.5199  0.2026 -0.3211
 2133TIP3    H127890   0.489   4.719   9.735 -0.1692 -1.4470  1.1059
 2133TIP3    H227891   0.489   4.634   9.609  0.1009 -0.3631  0.3709
 2134TIP3   OH227892   4.937   0.327  11.046 -0.0236  0.4092  0.0581
 2134TIP3    H127893   5.021   0.368  11.065  0.3755  0.0703 -0.9295
 2134TIP3    H227894   4.941   0.242  11.090  0.8907 -0.3676 -1.4766
 2135TIP3   OH227895   2.303   3.939  10.855  0.2014  0.1731  0.1108
 2135TIP3    H127896   2.344   3.859  10.887  0.4807  0.2221 -0.1291
 2135TIP3    H227897   2.327   3.944  10.763  1.4472  1.3255  0.4868
 2136TIP3   OH227898   2.661   2.722  11.874 -0.2072  0.3922  0.2093
 2136TIP3    H127899   2.739   2.695  11.827  0.1733 -0.0242  1.0716
 2136TIP3    H227900   2.602   2.754  11.806  0.8038  0.9398 -0.4147
 2137TIP3   OH227901   6.171   7.122  12.186 -0.3193  0.5217  0.1232
 2137TIP3    H127902   6.147   7.046  12.240 -0.4817 -0.0909 -0.8117
 2137TIP3    H227903   6.124   7.109  12.104  1.2183  0.6002 -0.7821
 2138TIP3   OH227904   0.971   0.516  12.364  0.0741 -0.0900  0.1564
 2138TIP3    H127905   0.899   0.546  12.419 -1.1471 -1.7765 -0.4989
 2138TIP3    H227906   1.050   0.552  12.406 -0.8448 -1.0308  2.8032
 2139TIP3   OH227907   6.358   5.243  13.117  0.6022  0.1246  0.0713
 2139TIP3    H127908   6.324   5.298  13.046 -1.1169  0.7007  1.3280
 2139TIP3    H227909   6.408   5.175  13.071  0.1070  0.8847 -1.6638
 2140TIP3   OH227910   0.328   3.304  10.599 -0.0744  0.2180 -0.0074
 2140TIP3    H127911   0.255   3.334  10.544 -0.5467  0.5608  0.7949
 2140TIP3    H227912   0.403   3.303  10.540 -1.2504 -2.7759 -1.5276
 2141TIP3   OH227913   2.260   5.210  13.539 -0.6294  0.0817 -0.7683
 2141TIP3    H127914   2.341   5.232  13.585  0.1081 -1.7806 -1.1160
 2141TIP3    H227915   2.227   5.294  13.507 -0.2231  1.2006  1.6203
 2142TIP3   OH227916   2.524   0.873  13.734 -0.2888  0.1316  0.1828
 2142TIP3    H127917   2.498   0.828  13.654  0.1520  0.7198 -0.2930
 2142TIP3    H227918   2.600   0.824  13.766  0.2158  0.5616 -0.3567
 2143TIP3   OH227919   6.953   3.413  13.200 -0.0615  0.5075  0.0828
 2143TIP3    H127920   7.019   3.364  13.151 -0.2804 -1.3230  1.5847
 2143TIP3    H227921   6.986   3.503  13.201  1.5719 -0.0662 -0.5786
 2144TIP3   OH227922   0.270   0.689  12.723  0.5130 -0.7737 -0.0358
 2144TIP3    H127923   0.234   0.611  12.681 -2.6752 -0.2757  1.6698
 2144TIP3    H227924   0.301   0.742  12.650  1.5898 -3.0313 -1.2970
 2145TIP3   OH227925   3.098   6.213  11.601  0.4142  0.6353  0.2513
 2145TIP3    H127926   3.071   6.291  11.651  1.6686  0.6724  0.8790
 2145TIP3    H227927   3.188   6.230  11.576  0.2189  0.0182 -0.8916
 2146TIP3   OH227928   1.939   5.395  12.721  0.5059  0.6916 -0.2387
 2146TIP3    H127929   1.908   5.316  12.675  0.1091  0.6405  0.1167
 2146TIP3    H227930   1.879   5.405  12.794  0.7329  1.1640 -0.1177
 2147TIP3   OH227931   2.890   3.347  12.511  0.1548  0.0644  1.1330
 2147TIP3    H127932   2.869   3.351  12.605 -1.7563 -0.9694  0.7751
 2147TIP3    H227933   2.819   3.295  12.473  0.5563  1.0160 -0.9965
 2148TIP3   OH227934   1.048   6.670  10.542  0.0772  1.0908 -0.0305
 2148TIP3    H127935   1.006   6.685  10.457  1.6644  0.4325 -0.9379
 2148TIP3    H227936   1.111   6.742  10.550  0.0263  1.0731  0.5392
 2149TIP3   OH227937   3.436   3.928  11.610 -0.1844 -0.2729 -0.1336
 2149TIP3    H127938   3.409   3.854  11.665  0.6575 -0.8373 -0.4691
 2149TIP3    H227939   3.530   3.914  11.596 -0.0764  0.7090 -0.4359
 2150TIP3   OH227940   1.049   5.543  12.005 -0.3611 -0.2557 -0.2791
 2150TIP3    H127941   1.125   5.548  12.062 -0.4032  2.6561 -0.3875
 2150TIP3    H227942   0.974   5.541  12.065 -0.2374 -3.3657 -0.1665
 2151TIP3   OH227943   3.898   5.487  11.287  0.3457 -0.2859 -0.4233
 2151TIP3    H127944   3.975   5.440  11.254 -1.0790 -2.2472 -1.0717
 2151TIP3    H227945   3.837   5.417  11.314 -1.1025  1.2260  0.3034
 2152TIP3   OH227946   5.207   3.176  12.018 -0.0185 -0.2104 -0.8950
 2152TIP3    H127947   5.241   3.257  11.980 -1.2129 -0.0158 -1.5880
 2152TIP3    H227948   5.201   3.195  12.112  2.2761 -0.4527 -0.6892
 2153TIP3   OH227949   0.938   4.661   1.026 -0.3170 -0.6365  0.0563
 2153TIP3    H127950   1.009   4.651   1.088  0.6774 -1.2407 -1.1519
 2153TIP3    H227951   0.926   4.573   0.989 -0.3267 -0.1219 -1.1906
 2154TIP3   OH227952   5.863   2.714  10.951  0.3750  0.1308  0.0871
 2154TIP3    H127953   5.872   2.790  11.008  0.8796 -0.5489  0.9209
 2154TIP3    H227954   5.868   2.750  10.862 -0.1868  1.1625  0.4653
 2155TIP3   OH227955   5.803   0.638  13.646 -0.1951 -0.2768 -0.1046
 2155TIP3    H127956   5.881   0.665  13.693  0.4218 -2.9309  0.4994
 2155TIP3    H227957   5.745   0.601  13.713  0.5888 -3.8523 -1.2671
 2156TIP3   OH227958   4.141   4.310  10.916 -0.2160 -0.1558  0.4263
 2156TIP3    H127959   4.225   4.331  10.876  0.7733  0.7325  2.9085
 2156TIP3    H227960   4.133   4.215  10.906 -0.0657  0.0570 -1.9413
 2157TIP3   OH227961   2.626   4.055  14.439 -0.5274  0.5361 -0.6985
 2157TIP3    H127962   2.651   4.018  14.523  0.1014  0.4132 -0.9375
 2157TIP3    H227963   2.692   4.023  14.377 -1.1557  0.3796 -1.2991
 2158TIP3   OH227964   2.661   2.990  13.471  0.0465 -0.5889 -0.0416
 2158TIP3    H127965   2.632   2.917  13.416  1.3957 -0.4267 -0.9916
 2158TIP3    H227966   2.742   3.021  13.430  0.1654  0.6387  1.0686
 2159TIP3   OH227967   3.943   6.275  10.882 -0.1373  0.0329 -0.0837
 2159TIP3    H127968   3.941   6.221  10.962  0.9284 -0.6400 -0.4965
 2159TIP3    H227969   3.919   6.215  10.812 -1.0322  0.6158 -0.2851
 2160TIP3   OH227970   1.677   4.342  10.106  0.2678  0.1116  0.1588
 2160TIP3    H127971   1.598   4.394  10.118 -0.3681 -1.0206  0.9792
 2160TIP3    H227972   1.691   4.340  10.011 -1.1826 -0.3946 -0.0592
 2161TIP3   OH227973   2.471   3.401  10.083 -0.2505 -0.3161 -0.1025
 2161TIP3    H127974   2.533   3.381  10.012  0.3734  0.9408  0.0719
 2161TIP3    H227975   2.390   3.356  10.057 -0.1650  0.4830 -1.8528
 2162TIP3   OH227976   6.360   5.864  10.366  0.2803 -0.5281  0.2818
 2162TIP3    H127977   6.300   5.931  10.332  1.7134 -0.0907 -1.5024
 2162TIP3    H227978   6.425   5.914  10.416  0.0838 -0.8397  0.8572
 2163TIP3   OH227979   3.413   5.414  12.867  0.3082 -0.2332 -0.6782
 2163TIP3    H127980   3.385   5.332  12.908  1.0000  0.8300  1.9740
 2163TIP3    H227981   3.481   5.388  12.805 -1.4784 -1.9853 -1.9689
 2164TIP3   OH227982   4.905   4.711  12.067  0.3638 -0.1659  0.5110
 2164TIP3    H127983   4.988   4.707  12.115  1.2465  0.1476 -0.9508
 2164TIP3    H227984   4.906   4.797  12.024 -0.1282 -0.6753 -0.5378
 2165TIP3   OH227985   2.571   0.068  11.051 -0.2722  0.2581 -0.1939
 2165TIP3    H127986   2.610   0.145  11.011  0.7986  0.9032  1.9999
 2165TIP3    H227987   2.564   0.005  10.980  1.4816  1.3871 -1.4113
 2166TIP3   OH227988   1.710   2.865  10.901 -0.1806 -0.2513  0.0627
 2166TIP3    H127989   1.806   2.865  10.893 -0.2512  0.1902 -0.8648
 2166TIP3    H227990   1.688   2.955  10.924 -0.4764  0.0220 -1.2333
 2167TIP3   OH227991   5.015   5.532  10.072  0.1103 -0.4381  0.3699
 2167TIP3    H127992   5.094   5.489  10.106 -0.2078 -0.8664  0.5666
 2167TIP3    H227993   5.049   5.605  10.020  0.6591 -0.9734 -0.0401
 2168TIP3   OH227994   2.764   6.677  11.770 -0.1991 -0.0024  0.1413
 2168TIP3    H127995   2.842   6.731  11.782  0.3391 -1.0795  1.7047
 2168TIP3    H227996   2.691   6.732  11.796  0.4559 -0.4057  2.9718
 2169TIP3   OH227997   5.259   2.181  10.573  0.8346 -0.3478 -0.0355
 2169TIP3    H127998   5.245   2.087  10.586  0.7918 -0.4844 -1.0348
 2169TIP3    H227999   5.198   2.223  10.635  0.7513 -0.9695  0.3118
 2170TIP3   OH228000   3.532   3.831  14.678 -0.1740  0.4966 -0.2868
 2170TIP3    H128001   3.605   3.793  14.628  0.4176 -1.3111  1.8566
 2170TIP3    H228002   3.567   3.843  14.766 -1.5800  2.4502  0.0374
 2171TIP3   OH228003   1.101   6.899  11.828  0.7521 -0.6048 -0.1807
 2171TIP3    H128004   1.141   6.837  11.890  2.6950  1.1227  0.3437
 2171TIP3    H228005   1.073   6.972  11.883  1.3738  0.3905 -1.1751
 2172TIP3   OH228006   7.146   7.108  13.429  0.0609  0.0675  0.5175
 2172TIP3    H128007   7.214   7.143  13.372 -1.0506 -1.9197 -2.1173
 2172TIP3    H228008   7.077   7.079  13.370 -1.3469 -1.6626  2.8972
 2173TIP3   OH228009   4.813   3.352  10.545 -0.0384 -0.3968 -0.3396
 2173TIP3    H128010   4.846   3.410  10.614  0.5577 -0.6381 -0.4141
 2173TIP3    H228011   4.724   3.331  10.571 -0.4611  1.0382 -0.6170
 2174TIP3   OH228012   4.783   2.821  11.501 -0.4416 -0.3323 -0.5798
 2174TIP3    H128013   4.726   2.795  11.573  1.2778 -1.3693  0.4617
 2174TIP3    H228014   4.838   2.890  11.538  1.5255 -1.9659 -0.3888
 2175TIP3   OH228015   3.264   4.284  10.252 -0.0937 -0.2072 -0.1363
 2175TIP3    H128016   3.245   4.321  10.166  0.1236  1.6192  0.5613
 2175TIP3    H228017   3.300   4.197  10.235  2.1726  1.0582 -2.0010
 2176TIP3   OH228018   3.077   1.553  10.858  0.4810 -0.6172  0.1827
 2176TIP3    H128019   3.141   1.623  10.868 -0.6858  0.4305  0.5180
 2176TIP3    H228020   3.127   1.473  10.867  1.7361  0.1879  0.4822
 2177TIP3   OH228021   3.754   2.859  12.138 -0.3890 -0.1843  0.3356
 2177TIP3    H128022   3.714   2.861  12.225  0.7937 -0.9900  0.9249
 2177TIP3    H228023   3.706   2.791  12.091 -1.1195  0.3438  0.3182
 2178TIP3   OH228024   0.562   0.546  12.346 -0.2636  0.4596  0.4857
 2178TIP3    H128025   0.592   0.619  12.400 -0.7024 -0.6339  2.2728
 2178TIP3    H228026   0.469   0.564  12.330  0.0631  1.1994 -0.6181
 2179TIP3   OH228027   2.854   4.317  15.347 -1.2726  0.1779  0.0578
 2179TIP3    H128028   2.907   4.244  15.315 -0.2499  0.9044  0.0896
 2179TIP3    H228029   2.765   4.296  15.317 -1.0641 -1.2558  0.3728
 2180TIP3   OH228030   6.686   2.019  11.761 -0.4966 -0.9080 -0.6020
 2180TIP3    H128031   6.760   1.998  11.705  0.0131  0.0606 -0.3107
 2180TIP3    H228032   6.654   2.103  11.727 -0.1719 -0.3008  0.5632
 2181TIP3   OH228033   3.306   3.572  12.804  0.4268 -0.1923 -0.0624
 2181TIP3    H128034   3.299   3.491  12.754  1.0570  0.2055 -0.8023
 2181TIP3    H228035   3.217   3.609  12.802  0.6864  0.3956 -1.8750
 2182TIP3   OH228036   2.830   2.331   9.808  0.4622 -0.0451 -0.0870
 2182TIP3    H128037   2.883   2.253   9.825  1.2745  0.3878 -0.5728
 2182TIP3    H228038   2.890   2.404   9.824 -0.7373  0.5389  1.9763
 2183TIP3   OH228039   5.738   7.090  12.427  0.3038  0.2724 -0.2189
 2183TIP3    H128040   5.782   7.063  12.507 -0.0795 -0.6173 -0.3120
 2183TIP3    H228041   5.734   7.011  12.373 -2.0562  0.1773  0.0795
 2184TIP3   OH228042   3.522   3.859  10.523 -0.4871 -0.0779 -0.1291
 2184TIP3    H128043   3.535   3.953  10.536 -1.7496 -0.0446  1.0156
 2184TIP3    H228044   3.452   3.854  10.457 -0.1370 -0.2242 -0.4919
 2185TIP3   OH228045   4.403   4.244   9.846  0.0145 -0.2248 -0.1993
 2185TIP3    H128046   4.332   4.302   9.820 -1.0393 -0.6552  1.6411
 2185TIP3    H228047   4.449   4.292   9.915  0.7491 -0.4796 -0.5082
 2186TIP3   OH228048   2.025   3.851  10.879 -0.4148  0.1372  0.0029
 2186TIP3    H128049   2.113   3.875  10.850 -0.5119 -0.6938 -0.9918
 2186TIP3    H228050   1.969   3.920  10.844 -0.0030  1.4420  1.8257
 2187TIP3   OH228051   0.513   5.330  14.179 -0.0042  0.0671  0.5515
 2187TIP3    H128052   0.530   5.368  14.265  4.9000  0.8147 -0.6148
 2187TIP3    H228053   0.528   5.236  14.190 -0.7769 -0.0347  0.7932
 2188TIP3   OH228054   3.562   0.863  11.978 -0.6898 -0.2813  0.0649
 2188TIP3    H128055   3.560   0.919  12.056  1.0578  0.0366 -0.1085
 2188TIP3    H228056   3.522   0.917  11.909 -2.0353 -0.4822  0.6751
 2189TIP3   OH228057   4.166   3.203  12.004  0.2749  0.1619 -0.3642
 2189TIP3    H128058   4.161   3.108  11.999 -1.2510  0.1431  1.1738
 2189TIP3    H228059   4.256   3.221  12.034  0.6327 -0.7684 -0.8764
 2190TIP3   OH228060   2.321   6.155  13.907 -0.3427  0.2330  0.2270
 2190TIP3    H128061   2.326   6.123  13.817 -0.3328 -0.0426  0.3246
 2190TIP3    H228062   2.232   6.134  13.935  0.1896 -1.2292  0.8624
 2191TIP3   OH228063   1.868   3.651  13.742  0.5835  0.4237  0.2169
 2191TIP3    H128064   1.854   3.743  13.719 -1.0371  0.4281  1.1803
 2191TIP3    H228065   1.918   3.616  13.668 -1.4545  1.3220 -1.6722
 2192TIP3   OH228066   6.606   1.643  14.709  0.6006  0.3633  0.2105
 2192TIP3    H128067   6.550   1.566  14.717  0.8464  0.3259  1.6424
 2192TIP3    H228068   6.561   1.711  14.759  0.9170  0.8542 -0.1647
 2193TIP3   OH228069   2.719   3.204  11.270 -0.0092  0.0051  0.0006
 2193TIP3    H128070   2.654   3.172  11.208  0.8309 -2.4178  0.3357
 2193TIP3    H228071   2.711   3.300  11.265 -1.0479 -0.1688 -2.6426
 2194TIP3   OH228072   4.831   5.194  11.974  0.2054  0.8774 -0.2510
 2194TIP3    H128073   4.744   5.231  11.957 -0.4551  0.0061  1.1023
 2194TIP3    H228074   4.883   5.267  12.007 -0.0241  1.4010 -1.0492
 2195TIP3   OH228075   4.257   5.706  11.160 -0.1864  0.7831 -0.3108
 2195TIP3    H128076   4.172   5.682  11.196 -0.1801  1.4455  0.1627
 2195TIP3    H228077   4.294   5.767  11.224  1.3689 -0.7727  0.3132
 2196TIP3   OH228078   6.367   2.209  13.317 -0.2788 -0.1022 -0.3011
 2196TIP3    H128079   6.380   2.159  13.397  0.5036  1.6006  0.6723
 2196TIP3    H228080   6.431   2.173  13.255 -0.3672 -0.9131  0.0715
 2197TIP3   OH228081   1.457   6.094  10.582 -0.2907  0.3866  0.1115
 2197TIP3    H128082   1.462   6.184  10.613 -0.2544  0.0501  1.0974
 2197TIP3    H228083   1.463   6.101  10.487  0.2265  1.3857  0.2126
 2198TIP3   OH228084   1.337   3.809   0.115 -0.0049 -0.3445 -0.1288
 2198TIP3    H128085   1.341   3.787   0.022  0.8287  0.9997 -0.4300
 2198TIP3    H228086   1.295   3.734   0.156 -0.5648 -0.8635 -1.6213
 2199TIP3   OH228087   1.871   6.718  11.335  0.4752  0.3755 -0.2322
 2199TIP3    H128088   1.849   6.627  11.357  0.1194  0.4037 -0.4679
 2199TIP3    H228089   1.967   6.719  11.332  0.4859  0.0478 -0.0655
 2200TIP3   OH228090   4.572   3.598   0.704  0.1681  0.5267  0.1815
 2200TIP3    H128091   4.564   3.532   0.635 -0.1723 -1.6416  2.2371
 2200TIP3    H228092   4.642   3.656   0.672  0.3195 -0.6673 -1.7871
 2201TIP3   OH228093   3.130   5.985  11.757 -0.5397 -0.5755 -0.2056
 2201TIP3    H128094   3.130   6.057  11.693 -0.9423  0.2888  0.7500
 2201TIP3    H228095   3.111   5.907  11.705 -1.4018  0.1866 -1.0633
 2202TIP3   OH228096   1.537   4.144  10.618 -0.2901  0.3291  0.0038
 2202TIP3    H128097   1.514   4.120  10.528 -0.3601  0.0809  0.0882
 2202TIP3    H228098   1.453   4.168  10.658 -0.0500  2.0906 -0.4889
 2203TIP3   OH228099   3.589   3.486  11.297  0.5805 -0.5807  0.3681
 2203TIP3    H128100   3.578   3.540  11.375 -0.1811  0.9756 -0.7845
 2203TIP3    H228101   3.657   3.530  11.246  2.2702 -2.4845  0.8715
 2204TIP3   OH228102   6.330   4.477   9.798  1.0769 -0.2712 -0.1922
 2204TIP3    H128103   6.361   4.386   9.801  0.5059 -0.4722 -0.4612
 2204TIP3    H228104   6.332   4.500   9.705  1.2684  0.0078 -0.1187
 2205TIP3   OH228105   1.619   2.022   9.658 -0.1608  0.4590 -0.6643
 2205TIP3    H128106   1.640   1.930   9.650 -0.7488  0.1200  1.3709
 2205TIP3    H228107   1.563   2.041   9.582  0.1064 -0.8082 -1.1801
 2206TIP3   OH228108   0.549   2.802  10.805 -0.0719  0.3547  0.1131
 2206TIP3    H128109   0.516   2.726  10.853  1.0257 -0.7599 -0.8617
 2206TIP3    H228110   0.511   2.793  10.718  0.2508  0.7975 -0.0716
 2207TIP3   OH228111   3.453   4.555  12.293  0.9288  0.0301  0.1050
 2207TIP3    H128112   3.473   4.528  12.203  1.4580  1.0232 -0.0828
 2207TIP3    H228113   3.390   4.490  12.324  0.2849  0.0113 -1.1876
 2208TIP3   OH228114   1.334   6.684  14.104  0.3214 -0.5487  0.7703
 2208TIP3    H128115   1.257   6.662  14.052  1.6966 -0.5920 -1.3352
 2208TIP3    H228116   1.389   6.605  14.100  1.3722  0.1772  0.5378
 2209TIP3   OH228117   3.478   1.892  13.880  0.5157 -0.0470 -0.1904
 2209TIP3    H128118   3.410   1.859  13.821  0.4124  1.5895 -1.0051
 2209TIP3    H228119   3.548   1.826  13.873  0.8342  0.4883 -2.7923
 2210TIP3   OH228120   6.724   0.825  11.113 -0.2908  0.2880 -0.3034
 2210TIP3    H128121   6.658   0.886  11.145 -1.7900 -1.3375 -0.2218
 2210TIP3    H228122   6.755   0.780  11.192  1.3506  1.4429 -0.2688
 2211TIP3   OH228123   1.705   5.187  11.148  0.2270 -0.7594 -0.1198
 2211TIP3    H128124   1.774   5.219  11.091 -0.4471 -1.3909 -1.3262
 2211TIP3    H228125   1.740   5.195  11.236  1.4146 -0.0699 -0.6491
 2212TIP3   OH228126   3.284   0.829  10.849 -0.8985 -0.2011  0.3459
 2212TIP3    H128127   3.330   0.812  10.931 -1.1037  1.2175  0.7751
 2212TIP3    H228128   3.198   0.790  10.861 -0.0728 -2.2126 -0.1755
 2213TIP3   OH228129   5.653   3.411  10.574 -0.4709  0.1655  0.2376
 2213TIP3    H128130   5.678   3.322  10.548 -1.0030 -0.0506  0.4686
 2213TIP3    H228131   5.636   3.405  10.668 -1.1694  0.3629  0.1233
 2214TIP3   OH228132   0.571   1.945  10.966 -0.5695  0.0305  0.2346
 2214TIP3    H128133   0.488   1.943  10.917 -0.2098  0.7870 -0.4186
 2214TIP3    H228134   0.626   1.880  10.922 -0.4365  0.3208 -0.0339
 2215TIP3   OH228135   3.045   4.426  10.370 -1.0518 -0.4021  0.0509
 2215TIP3    H128136   3.120   4.384  10.329 -0.8705  0.0041 -0.0401
 2215TIP3    H228137   3.070   4.436  10.462 -0.5266  0.7639 -0.2061
 2216TIP3   OH228138   5.251   4.019  10.997 -0.5102 -0.5424 -0.2360
 2216TIP3    H128139   5.211   3.987  10.916 -0.8703  0.8040 -0.6059
 2216TIP3    H228140   5.345   4.004  10.984 -0.7168 -2.0253 -0.1238
 2217TIP3   OH228141   3.640   4.728  11.611  0.1839 -0.0996 -0.0482
 2217TIP3    H128142   3.597   4.649  11.579 -0.6028  0.1828  0.2786
 2217TIP3    H228143   3.723   4.731  11.565  0.0005 -0.8490 -0.4365
 2218TIP3   OH228144   6.285   5.063  11.731  0.4545 -0.2806  0.0768
 2218TIP3    H128145   6.262   4.983  11.778 -1.6858  0.6635  0.6715
 2218TIP3    H228146   6.206   5.116  11.733  0.8783  0.5857 -2.9526
 2219TIP3   OH228147   1.002   5.725  10.911  0.1079 -0.8742  0.1071
 2219TIP3    H128148   1.092   5.693  10.913  0.3599 -0.1397  1.2667
 2219TIP3    H228149   1.009   5.816  10.882  0.0630  0.1156  3.0518
 2220TIP3   OH228150   7.106   5.279  11.004 -0.0298  0.2510 -0.1511
 2220TIP3    H128151   7.136   5.191  10.981  0.9945  0.2425  1.1531
 2220TIP3    H228152   7.017   5.265  11.039  0.2041 -0.2974  0.2387
 2221TIP3   OH228153   5.781   4.533  13.219 -0.1799  0.4936 -0.1251
 2221TIP3    H128154   5.694   4.493  13.221 -0.4382  1.0503 -0.2152
 2221TIP3    H228155   5.780   4.597  13.290  1.3848 -2.0269  2.2864
 2222TIP3   OH228156   6.269   3.945  10.526  0.0735 -0.1577  0.4589
 2222TIP3    H128157   6.310   3.873  10.574 -0.9995 -1.5144 -0.6178
 2222TIP3    H228158   6.230   4.000  10.593  0.2061 -1.0284  1.2562
 2223TIP3   OH228159   4.507   2.021   9.676  0.2922  0.1048  0.4310
 2223TIP3    H128160   4.463   1.941   9.704  0.7118 -0.2946 -0.0555
 2223TIP3    H228161   4.444   2.066   9.620 -0.4326  0.7526  1.7302
 2224TIP3   OH228162   5.104   1.192  10.022 -0.5858 -0.0402 -0.5204
 2224TIP3    H128163   5.162   1.263  10.050  0.1353 -0.7880 -0.0742
 2224TIP3    H228164   5.083   1.213   9.931  0.6070  0.1171 -0.7732
 2225TIP3   OH228165   4.979   4.331  10.121 -0.6473  0.2257 -0.2085
 2225TIP3    H128166   4.994   4.376  10.038 -0.9944 -0.2746 -0.5435
 2225TIP3    H228167   4.884   4.319  10.125 -0.7353  1.2167  0.7704
 2226TIP3   OH228168   3.820   3.750   9.390  0.6041 -0.1248  0.6992
 2226TIP3    H128169   3.869   3.698   9.326  0.0184 -1.1622  1.0802
 2226TIP3    H228170   3.808   3.692   9.465 -3.8042 -1.0623 -0.5410
 2227TIP3   OH228171   5.445   3.408   9.492  0.4924  0.3243  0.2059
 2227TIP3    H128172   5.511   3.339   9.485 -0.5674 -0.6559 -0.2301
 2227TIP3    H228173   5.479   3.478   9.437  1.0020 -0.3055 -0.3048
 2228TIP3   OH228174   6.710   6.975  12.220 -0.9775 -0.0376 -0.4053
 2228TIP3    H128175   6.631   7.026  12.205 -1.5081 -0.2755  1.4202
 2228TIP3    H228176   6.678   6.889  12.248 -0.0853 -0.6020 -1.0783
 2229TIP3   OH228177   2.928   1.485  13.713  0.1595 -0.0762  0.2253
 2229TIP3    H128178   2.849   1.470  13.764  0.8085 -0.0365  1.2595
 2229TIP3    H228179   2.947   1.578  13.725  0.7080 -0.2183  0.4892
 2230TIP3   OH228180   5.614   1.940  11.537  0.3575 -0.0890 -0.0838
 2230TIP3    H128181   5.705   1.948  11.564  0.1844 -1.2617  0.9190
 2230TIP3    H228182   5.564   1.943  11.619 -0.5814  1.4714 -0.6965
 2231TIP3   OH228183   4.655   4.981  10.514 -0.0582 -0.2482 -0.2407
 2231TIP3    H128184   4.715   5.053  10.497 -0.4547  0.2601  0.5144
 2231TIP3    H228185   4.711   4.905  10.526  0.4752  0.3664  1.1965
 2232TIP3   OH228186   5.825   5.130  10.469  0.0228 -0.0157  0.3552
 2232TIP3    H128187   5.871   5.170  10.395  0.3489 -0.1037  0.5050
 2232TIP3    H228188   5.800   5.203  10.525  0.3575  0.0048  0.4827
 2233TIP3   OH228189   1.326   3.578  10.355 -0.0333 -0.1161  0.0075
 2233TIP3    H128190   1.246   3.590  10.406 -1.0706 -2.3113 -1.0114
 2233TIP3    H228191   1.314   3.635  10.279 -0.7898 -0.6704 -0.2959
 2234TIP3   OH228192   4.679   1.453  10.290  0.2342  0.0649  0.0597
 2234TIP3    H128193   4.692   1.481  10.381 -1.4232  2.7215 -0.4448
 2234TIP3    H228194   4.605   1.393  10.293  1.1354 -1.0444  0.6235
 2235TIP3   OH228195   7.043   5.920  10.400 -0.3589 -0.0693  0.3927
 2235TIP3    H128196   7.089   5.961  10.473 -0.9158 -1.0091  1.2914
 2235TIP3    H228197   7.085   5.834  10.391  0.3659  0.4079 -1.0437
 2236TIP3   OH228198   2.140   0.868  11.730 -0.8338  0.2331  0.4125
 2236TIP3    H128199   2.053   0.900  11.705 -0.4687  1.7193  1.0305
 2236TIP3    H228200   2.192   0.873  11.650 -0.5594  1.9259  0.6948
 2237TIP3   OH228201   6.528   2.332  10.935  0.0087  0.3719  0.9084
 2237TIP3    H128202   6.566   2.304  11.018  2.6227 -1.0832 -0.7290
 2237TIP3    H228203   6.572   2.280  10.869 -0.0626  3.3892 -1.6551
 2238TIP3   OH228204   4.097   3.215  10.050  0.1964 -0.8363 -0.1122
 2238TIP3    H128205   4.168   3.186   9.992 -0.0099 -0.1098 -0.7314
 2238TIP3    H228206   4.067   3.297  10.012 -0.9974 -1.1500  0.1453
 2239TIP3   OH228207   4.445   5.334  10.433 -0.1368 -0.5646  0.3059
 2239TIP3    H128208   4.409   5.423  10.434 -0.1176 -0.5401 -0.8570
 2239TIP3    H228209   4.532   5.343  10.473  0.0173  0.0084 -0.1449
 2240TIP3   OH228210   6.305   5.838   9.807 -1.3978 -0.5410 -0.0016
 2240TIP3    H128211   6.217   5.850   9.771 -1.2544  0.0333 -0.1707
 2240TIP3    H228212   6.363   5.854   9.732 -1.1922 -2.4248 -0.2626
 2241TIP3   OH228213   0.720   1.323  13.099  0.1762  0.0726  0.0268
 2241TIP3    H128214   0.815   1.318  13.106  0.2339  0.4659 -0.4537
 2241TIP3    H228215   0.688   1.287  13.182  0.7531  0.6323  0.4973
 2242TIP3   OH228216   5.318   3.119  10.060  0.0674  0.1805  0.0117
 2242TIP3    H128217   5.380   3.102   9.989 -0.9235  2.0267 -1.3159
 2242TIP3    H228218   5.349   3.063  10.132  3.6331  1.5274 -0.3864
 2243TIP3   OH228219   5.913   3.371  11.091  0.0892 -0.2179 -0.2235
 2243TIP3    H128220   5.821   3.361  11.115  0.2719  1.2736  1.1891
 2243TIP3    H228221   5.911   3.413  11.005 -0.5572  1.1392  0.4423
 2244TIP3   OH228222   0.287   3.474  12.137  0.2520 -0.2882 -0.1308
 2244TIP3    H128223   0.265   3.488  12.045  1.6753 -1.2994 -0.6542
 2244TIP3    H228224   0.212   3.507  12.186  0.1895  1.8214 -1.5961
 2245TIP3   OH228225   4.996   4.599  10.739  0.6415  0.4101  0.5099
 2245TIP3    H128226   4.988   4.505  10.730 -1.0827  0.4640  1.2524
 2245TIP3    H228227   5.083   4.613  10.776  0.1846 -1.0163  2.1765
 2246TIP3   OH228228   3.134   6.073  10.820  0.1941  0.3852  0.4246
 2246TIP3    H128229   3.192   6.016  10.770 -0.9949 -1.0998  0.6952
 2246TIP3    H228230   3.054   6.077  10.768 -0.4525  0.1685  1.3907
 2247TIP3   OH228231   5.204   1.298   9.518 -0.3667 -0.0348 -0.6330
 2247TIP3    H128232   5.264   1.233   9.481 -0.2626  0.7751 -1.9122
 2247TIP3    H228233   5.130   1.301   9.457 -1.2839 -0.3659  0.4527
 2248TIP3   OH228234   5.170   0.888  10.590 -0.3182 -0.0396 -1.1922
 2248TIP3    H128235   5.227   0.812  10.591  2.3707  1.9261 -1.0155
 2248TIP3    H228236   5.201   0.942  10.518  1.1352  3.2686  1.7303
 2249TIP3   OH228237   2.520   3.978  11.812 -0.5256 -0.0648 -0.1120
 2249TIP3    H128238   2.450   4.016  11.760 -1.0844 -0.3912  0.3873
 2249TIP3    H228239   2.546   3.899  11.763 -1.7731 -0.9543  0.6124
 2250TIP3   OH228240   2.246   4.352  10.973 -0.2843  0.0869 -0.0765
 2250TIP3    H128241   2.339   4.371  10.968 -0.2205 -0.3936 -0.7708
 2250TIP3    H228242   2.217   4.395  11.054  0.6139 -0.1029  0.3554
 2251TIP3   OH228243   5.055   3.085  12.677 -0.2620  0.1058  0.0166
 2251TIP3    H128244   5.074   3.127  12.761 -0.2638 -1.9780  1.0723
 2251TIP3    H228245   5.055   2.991  12.695 -0.3679 -0.3837 -2.2933
 2252TIP3   OH228246   7.082   2.688  11.781 -0.1588  0.0187 -0.4504
 2252TIP3    H128247   7.173   2.705  11.805  0.0513 -0.1152 -1.1301
 2252TIP3    H228248   7.061   2.757  11.717 -1.4964  1.9044  1.9256
 2253TIP3   OH228249   3.508   5.305  11.972 -0.2282 -0.1858 -0.6319
 2253TIP3    H128250   3.473   5.217  11.953  0.8798 -0.5584 -1.0047
 2253TIP3    H228251   3.434   5.353  12.010 -0.6257 -1.5351  0.3429
 2254TIP3   OH228252   4.355   4.602   9.633  0.0263 -0.7051  0.0293
 2254TIP3    H128253   4.384   4.513   9.656 -0.0332 -0.7345 -0.0095
 2254TIP3    H228254   4.269   4.590   9.593 -1.1143 -0.4195  2.3003
 2255TIP3   OH228255   5.840   5.398   9.855  0.0726  0.0698  0.4110
 2255TIP3    H128256   5.877   5.323   9.901  0.5334  0.6167  0.9488
 2255TIP3    H228257   5.745   5.386   9.860  0.1233  0.0516  1.3794
 2256TIP3   OH228258   3.042   1.262  11.037  0.0644  0.3345  0.0820
 2256TIP3    H128259   2.947   1.264  11.029  0.0427 -1.4837 -0.3733
 2256TIP3    H228260   3.070   1.201  10.969  1.5951  1.2275 -0.0959
 2257TIP3   OH228261   6.366   0.276  14.302  0.4918  0.7142 -0.4240
 2257TIP3    H128262   6.445   0.268  14.249  0.6104  0.0712 -0.1496
 2257TIP3    H228263   6.388   0.341  14.368  0.6908  0.7468 -0.5210
 2258TIP3   OH228264   3.664   6.294  10.727 -0.1984  0.2066  0.1945
 2258TIP3    H128265   3.736   6.355  10.713  0.7884 -0.9060  0.3461
 2258TIP3    H228266   3.663   6.239  10.649  0.2686 -0.9298  0.9728
 2259TIP3   OH228267   4.825   4.651  11.075  0.0499 -0.0747 -0.0612
 2259TIP3    H128268   4.832   4.555  11.075 -0.8400 -0.1793  1.9621
 2259TIP3    H228269   4.771   4.672  10.999 -1.3382 -1.3429  0.5394
 2260TIP3   OH228270   3.648   5.141  12.172  0.2482  0.1485  0.0430
 2260TIP3    H128271   3.649   5.234  12.150  1.7751  0.5984  1.8573
 2260TIP3    H228272   3.632   5.096  12.089  2.0016  1.9408 -1.3011
 2261TIP3   OH228273   3.861   5.288   9.419  0.5865 -0.0520 -0.6668
 2261TIP3    H128274   3.889   5.280   9.510  1.1016  0.0470 -0.8127
 2261TIP3    H228275   3.943   5.294   9.370  0.2991  2.3485 -0.9205
 2262TIP3   OH228276   5.846   5.599  10.708  0.2798 -0.3363  0.6731
 2262TIP3    H128277   5.808   5.556  10.785  1.6229 -1.5951  0.6529
 2262TIP3    H228278   5.782   5.667  10.685 -2.8181 -3.4457 -0.3837
 2263TIP3   OH228279   5.749   5.127  10.753  0.1702  0.1235 -0.1970
 2263TIP3    H128280   5.779   5.037  10.768 -1.6972 -0.5168 -0.1711
 2263TIP3    H228281   5.787   5.178  10.825  0.1857 -0.8816  0.5161
 2264TIP3   OH228282   1.746   3.569  12.392  0.4617  1.0320 -0.0374
 2264TIP3    H128283   1.752   3.624  12.313 -0.5176 -0.3798 -1.1331
 2264TIP3    H228284   1.824   3.591  12.443  1.0845  2.0128 -1.3804
 2265TIP3   OH228285   5.857   2.491  15.202  0.1999 -0.2307  0.2835
 2265TIP3    H128286   5.778   2.439  15.215  0.4345 -0.2140  1.8672
 2265TIP3    H228287   5.824   2.579  15.185 -0.1429 -0.2873  0.6281
 2266TIP3   OH228288   0.883   3.135  12.417  0.4826  0.3436 -0.2856
 2266TIP3    H128289   0.858   3.042  12.415 -2.2042  1.0236 -1.0562
 2266TIP3    H228290   0.842   3.169  12.496  0.1673  1.1937 -0.8078
 2267TIP3   OH228291   3.266   1.362  13.214  0.0420  0.0623 -0.1006
 2267TIP3    H128292   3.330   1.389  13.279  0.9240 -2.5667  0.1912
 2267TIP3    H228293   3.182   1.388  13.251  0.7814  1.8146  0.4071
 2268TIP3   OH228294   5.693   3.664  10.899  0.3785  0.3921 -0.4220
 2268TIP3    H128295   5.621   3.661  10.836  0.3041 -2.0961 -0.2458
 2268TIP3    H228296   5.653   3.699  10.979  0.0210  1.6616 -1.1470
 2269TIP3   OH228297   0.522   2.031  11.565 -0.1919  0.2142  0.2004
 2269TIP3    H128298   0.470   1.970  11.617  1.0873  0.1114  1.4010
 2269TIP3    H228299   0.482   2.117  11.581  0.9134  0.3662  2.3615
 2270TIP3   OH228300   5.978   3.923  12.452 -0.3908 -0.3606  0.0472
 2270TIP3    H128301   5.932   3.893  12.374 -1.8890 -1.6343  1.3608
 2270TIP3    H228302   5.909   3.933  12.518  1.1348 -2.0493  1.9920
 2271TIP3   OH228303   0.101   5.305  12.192  0.5105  0.5523  0.0487
 2271TIP3    H128304   0.123   5.237  12.128 -1.2826 -1.1191  1.1457
 2271TIP3    H228305   0.019   5.342  12.159 -1.3035 -1.4470  2.1889
 2272TIP3   OH228306   6.563   3.251  10.179 -0.3846 -0.0479 -0.3644
 2272TIP3    H128307   6.483   3.292  10.144 -0.3936 -0.2595 -0.5956
 2272TIP3    H228308   6.616   3.325  10.209 -0.0035  0.2042 -1.6148
 2273TIP3   OH228309   6.618   7.128  11.390  0.0328  0.3750 -0.5185
 2273TIP3    H128310   6.575   7.207  11.423  1.7679  0.2849  2.0978
 2273TIP3    H228311   6.705   7.157  11.362  0.9271 -0.6623  1.0681
 2274TIP3   OH228312   5.792   6.261  13.123 -0.1824  0.2805 -0.5622
 2274TIP3    H128313   5.823   6.337  13.172 -0.3730  0.3154 -0.4971
 2274TIP3    H228314   5.717   6.294  13.073 -0.9078 -0.1101  0.2501
 2275TIP3   OH228315   2.982   6.400  10.670 -0.1684  0.4487  0.5213
 2275TIP3    H128316   2.935   6.317  10.682  0.0449 -0.0714 -1.9623
 2275TIP3    H228317   2.920   6.457  10.624  0.0938  1.2716  1.1776
 2276TIP3   OH228318   3.881   3.876  11.800 -0.5289  0.7385  0.1207
 2276TIP3    H128319   3.957   3.827  11.769 -0.8155 -0.5472  1.3986
 2276TIP3    H228320   3.851   3.925  11.724  1.5595  1.2378 -0.4056
 2277TIP3   OH228321   0.889   6.977  12.212  0.1675  0.3518 -0.5883
 2277TIP3    H128322   0.978   7.006  12.194  0.5147  0.0747  0.6240
 2277TIP3    H228323   0.873   7.005  12.302 -0.7602 -0.1210 -0.6042
 2278TIP3   OH228324   3.811   5.022   9.663 -0.5810 -0.0993  0.8291
 2278TIP3    H128325   3.802   5.098   9.722 -1.4129  0.0484  0.5177
 2278TIP3    H228326   3.722   5.003   9.636 -0.3155 -0.8920  0.5162
 2279TIP3   OH228327   6.972   6.867  10.426 -0.7011 -0.0243 -0.6559
 2279TIP3    H128328   6.960   6.831  10.338 -1.6254  1.1719 -1.0430
 2279TIP3    H228329   7.051   6.921  10.420  0.5767 -1.7797 -0.1249
 2280TIP3   OH228330   6.395   6.913  10.533 -0.0823 -0.5681 -0.2529
 2280TIP3    H128331   6.335   6.969  10.581 -1.5545 -0.2590 -2.3515
 2280TIP3    H228332   6.362   6.824  10.548  1.2458 -0.7571  1.6995
 2281TIP3   OH228333   3.599   3.732  10.761 -0.0001 -0.2339 -0.3920
 2281TIP3    H128334   3.566   3.784  10.688  0.0339  1.4308  0.7493
 2281TIP3    H228335   3.674   3.684  10.725 -0.5026 -0.0949 -1.6523
 2282TIP3   OH228336   3.390   0.177  10.273  0.4902  0.2315 -0.0728
 2282TIP3    H128337   3.406   0.219  10.358  0.6812  0.5110 -0.2489
 2282TIP3    H228338   3.403   0.246  10.209  1.4415 -0.2552 -0.4015
 2283TIP3   OH228339   2.604   3.661   9.961 -0.4081  0.0481  0.1110
 2283TIP3    H128340   2.562   3.738  10.000 -1.0224  0.4572 -1.3139
 2283TIP3    H228341   2.551   3.642   9.883  1.7616  0.3306 -1.4980
 2284TIP3   OH228342   2.905   3.411  10.457 -0.3688  0.2728 -0.1892
 2284TIP3    H128343   2.988   3.430  10.414 -0.1724  0.6113  0.3274
 2284TIP3    H228344   2.926   3.411  10.551 -0.4933 -1.9652 -0.1555
 2285TIP3   OH228345   1.384   0.993  13.244  0.6597  0.3044 -0.4280
 2285TIP3    H128346   1.430   1.070  13.211 -0.2669  1.6434  1.3335
 2285TIP3    H228347   1.306   1.029  13.287 -1.4696 -1.8224 -2.3947
 2286TIP3   OH228348   3.993   2.117  10.669  0.2566  0.5338 -0.0729
 2286TIP3    H128349   4.025   2.118  10.759  0.6332  2.1066 -0.2106
 2286TIP3    H228350   3.911   2.166  10.672  0.0913  0.2887 -0.5171
 2287TIP3   OH228351   4.175   5.296  10.507 -0.3500  0.1008  0.0803
 2287TIP3    H128352   4.259   5.329  10.473 -0.5104 -1.1562 -1.6155
 2287TIP3    H228353   4.183   5.201  10.501 -1.9457 -0.0221 -0.1972
 2288TIP3   OH228354   2.843   5.859  11.902  0.1693  0.2070 -0.0470
 2288TIP3    H128355   2.833   5.840  11.808 -2.0145 -2.5309  0.6794
 2288TIP3    H228356   2.791   5.938  11.916  0.8821  0.8999 -1.2221
 2289TIP3   OH228357   2.049   0.756  14.804  1.0399 -0.3282  0.1182
 2289TIP3    H128358   2.061   0.661  14.792 -0.3972 -0.3931 -0.8681
 2289TIP3    H228359   2.135   0.793  14.783  1.6989 -1.4248  0.7818
 2290TIP3   OH228360   6.489   5.732   9.973 -0.8041  0.3537 -0.6312
 2290TIP3    H128361   6.416   5.755   9.915 -2.5204  0.2191  1.4271
 2290TIP3    H228362   6.510   5.813  10.019 -0.9467 -0.0538  0.1670
 2291TIP3   OH228363   2.888   0.165  10.644  0.0442 -0.0802  1.0412
 2291TIP3    H128364   2.944   0.089  10.627  0.7187  0.4842  0.7158
 2291TIP3    H228365   2.906   0.188  10.735  0.0419 -0.1446  1.0582
 2292TIP3   OH228366   0.786   4.032  10.506 -0.7137 -0.2365 -0.1827
 2292TIP3    H128367   0.764   4.115  10.463 -0.5801  0.0313  0.2543
 2292TIP3    H228368   0.773   4.050  10.599 -2.0555 -1.1425 -0.1978
 2293TIP3   OH228369   5.201   5.762  10.717 -0.2076 -0.3844  0.4275
 2293TIP3    H128370   5.131   5.822  10.692  0.3793  0.3594  0.5317
 2293TIP3    H228371   5.226   5.790  10.805 -1.2918 -2.0738  1.3122
 2294TIP3   OH228372   5.068   5.033  10.636  0.3032  0.2159  0.1191
 2294TIP3    H128373   4.973   5.034  10.646  0.2360 -2.7642  0.4204
 2294TIP3    H228374   5.099   4.981  10.710  1.7645 -2.2085 -2.0817
 2295TIP3   OH228375   5.794   6.933  10.572  0.1823  0.0312  0.3573
 2295TIP3    H128376   5.853   6.967  10.504 -1.5836  0.3416 -1.0731
 2295TIP3    H228377   5.737   7.008  10.593 -2.6921 -1.4890 -1.6480
 2296TIP3   OH228378   4.510   6.539  11.628  0.0036 -0.2346  0.3599
 2296TIP3    H128379   4.457   6.602  11.677 -1.6402 -0.7200 -0.7465
 2296TIP3    H228380   4.540   6.587  11.551 -1.0580 -0.7257 -0.3670
 2297TIP3   OH228381   3.905   1.951  10.015  0.4562 -0.2084  0.0749
 2297TIP3    H128382   3.947   2.037  10.014 -0.7713  0.4058 -2.2247
 2297TIP3    H228383   3.880   1.935   9.923 -1.8283 -1.7694  0.9123
 2298TIP3   OH228384   5.126   0.312  11.303  0.1468  0.0583  0.1124
 2298TIP3    H128385   5.188   0.271  11.243  1.3109  1.4800  0.3506
 2298TIP3    H228386   5.125   0.254  11.380  3.8209  1.8075  1.5897
 2299TIP3   OH228387   4.431   4.667  12.913  0.5484  0.6369  0.6198
 2299TIP3    H128388   4.496   4.620  12.966  0.4932 -0.8989 -0.6354
 2299TIP3    H228389   4.384   4.721  12.975  0.4170 -1.2151  2.1725
 2300TIP3   OH228390   4.433   6.723  11.980 -0.1252  0.2686  0.2541
 2300TIP3    H128391   4.504   6.769  11.935 -0.4631  0.1562 -0.3974
 2300TIP3    H228392   4.354   6.773  11.958 -0.1887  0.6429  1.3307
 2301TIP3   OH228393   2.646   4.837  12.970  0.1328  0.1512 -0.5515
 2301TIP3    H128394   2.585   4.896  12.926  0.2618  0.7878  0.1161
 2301TIP3    H228395   2.594   4.760  12.993 -0.2295  0.3603 -0.6798
 2302TIP3   OH228396   3.784   2.690  11.494 -0.1996 -0.0140  0.1197
 2302TIP3    H128397   3.858   2.711  11.550 -0.7582 -0.7389  1.1464
 2302TIP3    H228398   3.744   2.775  11.475  0.8018  0.3705 -0.3310
 2303TIP3   OH228399   0.991   5.784  13.113 -0.2619  0.1603  0.3417
 2303TIP3    H128400   0.941   5.769  13.193 -0.3927 -2.3522 -0.1624
 2303TIP3    H228401   1.059   5.846  13.137 -0.2638 -0.6201  2.3992
 2304TIP3   OH228402   4.279   5.452  13.128  0.1025  0.3562 -0.1113
 2304TIP3    H128403   4.340   5.382  13.106  0.6195  0.9991 -0.7560
 2304TIP3    H228404   4.210   5.409  13.179 -0.8009 -1.0655 -2.4509
 2305TIP3   OH228405   5.520   4.680  10.104  0.1315 -0.4540 -0.0481
 2305TIP3    H128406   5.500   4.734  10.180 -0.8791 -1.4254  0.3890
 2305TIP3    H228407   5.589   4.728  10.058  0.0666  0.6199  0.9506
 2306TIP3   OH228408   4.463   5.757   9.929  0.9692 -0.0307  0.3982
 2306TIP3    H128409   4.450   5.819   9.857 -0.6998  0.0438  0.7402
 2306TIP3    H228410   4.463   5.671   9.887  1.9414  0.1151  0.0860
 2307TIP3   OH228411   2.026   6.370  11.067  0.0331  0.3883 -1.0201
 2307TIP3    H128412   2.058   6.454  11.034  0.5571  0.6959  0.2571
 2307TIP3    H228413   2.097   6.309  11.049 -1.2371 -0.2994 -4.0305
 2308TIP3   OH228414   3.915   4.011   9.909 -0.0356 -0.4263  0.3292
 2308TIP3    H128415   4.010   4.010   9.921 -0.3783 -1.6211  3.5498
 2308TIP3    H228416   3.900   3.951   9.836  1.6088 -1.3446  0.7009
 2309TIP3   OH228417   4.378   4.476  12.263 -0.3757 -0.1739 -0.1988
 2309TIP3    H128418   4.470   4.500  12.274 -0.9640  1.2967  1.7975
 2309TIP3    H228419   4.380   4.384  12.239  1.5738 -0.6174  1.5160
 2310TIP3   OH228420   2.885   7.062  11.922  0.1719 -0.3144 -0.1921
 2310TIP3    H128421   2.922   7.150  11.922 -0.4994 -0.0230 -0.7118
 2310TIP3    H228422   2.790   7.077  11.926 -0.0423 -0.9573 -2.6153
 2311TIP3   OH228423   5.524   2.383  14.319 -0.6275  0.3151  0.2085
 2311TIP3    H128424   5.564   2.469  14.335 -0.1013  0.0182  0.5078
 2311TIP3    H228425   5.505   2.349  14.406  0.0982 -0.3046  0.1274
 2312TIP3   OH228426   4.817   3.314  15.189  0.0309  0.0122 -0.0110
 2312TIP3    H128427   4.755   3.269  15.246  0.0671  0.7642  0.6261
 2312TIP3    H228428   4.763   3.344  15.115  0.0718 -1.3623 -0.6217
 2313TIP3   OH228429   2.231   2.448   9.887 -0.1855 -0.4441 -0.4760
 2313TIP3    H128430   2.140   2.445   9.918  0.2815 -0.0818  0.9852
 2313TIP3    H228431   2.238   2.529   9.837 -0.3133  0.2049  0.5565
 2314TIP3   OH228432   2.728   1.069  10.538  0.3513 -0.6529  0.3738
 2314TIP3    H128433   2.740   0.983  10.497  1.7071 -0.8207  1.0704
 2314TIP3    H228434   2.661   1.112  10.486  1.6578 -1.0652 -1.6892
 2315TIP3   OH228435   0.055   4.452  11.640 -0.0369 -0.1814 -0.0426
 2315TIP3    H128436  -0.027   4.456  11.592  0.1468  1.0891 -0.2602
 2315TIP3    H228437   0.030   4.450  11.732 -0.3329 -0.6827 -0.1343
 2316TIP3   OH228438   3.678   3.628  10.435 -0.0036 -0.0502 -0.0141
 2316TIP3    H128439   3.615   3.692  10.468  0.5407  2.8111 -4.1202
 2316TIP3    H228440   3.632   3.586  10.362  1.9929  0.4834 -1.6184
 2317TIP3   OH228441   0.003   2.072  10.407 -0.2665 -0.2578  0.0543
 2317TIP3    H128442  -0.079   2.024  10.412 -0.0680 -0.6335 -0.2379
 2317TIP3    H228443  -0.021   2.162  10.428 -0.8035 -0.3136 -0.2958
 2318TIP3   OH228444   6.097   3.321  11.520  0.1903  0.7331  0.2172
 2318TIP3    H128445   6.032   3.262  11.558 -1.1715  1.0498 -1.5893
 2318TIP3    H228446   6.046   3.394  11.485  1.3932  0.3649 -2.3711
 2319TIP3   OH228447   5.112   2.546  12.298  0.4801  0.7662  0.8039
 2319TIP3    H128448   5.105   2.629  12.252  0.8300  0.6279  0.5018
 2319TIP3    H228449   5.201   2.515  12.279 -0.2384 -0.5313 -0.5374
 2320TIP3   OH228450   1.286   2.965   9.978  0.0834  0.1415 -0.0582
 2320TIP3    H128451   1.354   3.032   9.982  0.4886 -0.2291 -0.6670
 2320TIP3    H228452   1.212   3.009   9.935  0.8798 -0.2335 -1.8774
 2321TIP3   OH228453   0.474   0.984  13.271  0.4314 -0.2160 -0.1668
 2321TIP3    H128454   0.545   0.968  13.208  0.3704 -0.8611 -0.0825
 2321TIP3    H228455   0.519   1.003  13.353  0.5138  1.1965 -0.5387
 2322TIP3   OH228456   4.807   6.667  10.467  0.0283  0.1044  0.1462
 2322TIP3    H128457   4.712   6.675  10.458 -0.1075  0.9962  2.1589
 2322TIP3    H228458   4.819   6.587  10.518  0.4191 -0.4651 -0.8164
 2323TIP3   OH228459   6.162   5.988  11.758  0.0979  0.1085  0.2811
 2323TIP3    H128460   6.117   5.919  11.807  1.8599 -0.2524  1.4340
 2323TIP3    H228461   6.151   6.067  11.811 -0.3395  0.3122 -0.1126
 2324TIP3   OH228462   2.849   6.563  10.340 -0.2099  0.0977 -0.1744
 2324TIP3    H128463   2.935   6.525  10.323 -1.1642 -1.8117 -0.8625
 2324TIP3    H228464   2.840   6.561  10.435  0.5495  0.3971 -0.0942
 2325TIP3   OH228465   3.904   1.326  10.968  0.8929  0.2557  0.1896
 2325TIP3    H128466   3.824   1.323  11.021  0.1015 -0.7143 -1.0362
 2325TIP3    H228467   3.896   1.408  10.918  1.3925  0.9118  1.1730
 2326TIP3   OH228468   6.573   4.772  10.610  0.2271  0.3304  0.4593
 2326TIP3    H128469   6.624   4.718  10.550  0.5573  0.5371  0.5560
 2326TIP3    H228470   6.498   4.800  10.558 -1.1828 -2.1239  1.0735
 2327TIP3   OH228471   1.221   3.369   9.941 -0.1759 -0.6086  0.0745
 2327TIP3    H128472   1.299   3.326   9.975 -0.7110 -0.5272  1.4361
 2327TIP3    H228473   1.169   3.297   9.904  1.2170 -0.4691 -2.2097
 2328TIP3   OH228474   4.021   3.271  10.310 -0.4128 -0.3629  0.3512
 2328TIP3    H128475   4.115   3.269  10.329 -0.5933  1.1903  1.5134
 2328TIP3    H228476   4.015   3.253  10.216  1.2157  1.9845 -0.2355
 2329TIP3   OH228477   6.863   5.866  14.920 -0.6056  0.3522 -0.7442
 2329TIP3    H128478   6.940   5.918  14.896 -0.0087  0.3101  0.9965
 2329TIP3    H228479   6.810   5.925  14.973 -0.7062 -0.3002 -0.1089
 2330TIP3   OH228480   3.049   5.568  13.657 -0.6285  0.4298  0.7342
 2330TIP3    H128481   3.067   5.478  13.628 -0.4398  0.1504  1.6996
 2330TIP3    H228482   3.121   5.620  13.620 -0.5950  0.1443  0.3927
 2331TIP3   OH228483   0.143   1.529  11.805 -0.3570 -0.2242 -0.7906
 2331TIP3    H128484   0.084   1.522  11.879  0.6371  0.6088  0.0912
 2331TIP3    H228485   0.097   1.586  11.743 -1.1498 -0.8557 -0.7922
 2332TIP3   OH228486   4.029   1.840  11.582 -0.1531 -0.3826  0.1384
 2332TIP3    H128487   3.972   1.887  11.642 -0.1066 -0.1221 -0.0211
 2332TIP3    H228488   4.117   1.872  11.603 -0.0225 -1.0848  0.6602
 2333TIP3   OH228489   4.279   7.063  12.966 -0.8707  0.0734  0.8478
 2333TIP3    H128490   4.291   7.084  12.874 -1.2212 -0.0824  0.7649
 2333TIP3    H228491   4.348   7.112  13.011 -0.7079  0.1598  0.5077
 2334TIP3   OH228492   6.764   6.098   9.957  0.0758 -0.1942 -0.0155
 2334TIP3    H128493   6.741   6.048   9.878 -2.0921  2.4776 -1.1592
 2334TIP3    H228494   6.843   6.146   9.932 -1.9944  2.5690 -1.5102
 2335TIP3   OH228495   2.442   2.402  10.443  0.1128 -0.1436  0.1662
 2335TIP3    H128496   2.480   2.398  10.356  0.3328 -0.5059  0.2782
 2335TIP3    H228497   2.498   2.347  10.497  0.6543  0.9889  0.7862
 2336TIP3   OH228498   3.786   5.262  11.518 -0.2827  0.2885  0.0402
 2336TIP3    H128499   3.710   5.275  11.574 -0.5930 -1.5519  0.1040
 2336TIP3    H228500   3.755   5.202  11.450  0.0810  2.4666 -2.1225
 2337TIP3   OH228501   6.807   1.657  11.632  0.7883 -0.0381  0.4374
 2337TIP3    H128502   6.860   1.711  11.690 -1.2976  2.9049 -0.2992
 2337TIP3    H228503   6.724   1.645  11.678 -0.2126  0.7760 -1.0991
 2338TIP3   OH228504   5.332   1.577   9.991  0.0753 -0.7337 -0.5605
 2338TIP3    H128505   5.379   1.513   9.938 -0.1054 -1.1436 -0.2279
 2338TIP3    H228506   5.281   1.628   9.927  0.7778 -0.4401 -0.8917
 2339TIP3   OH228507   5.355   4.969   9.964  0.0216 -0.0825  0.4108
 2339TIP3    H128508   5.413   5.027   9.914 -0.3558 -0.9708 -1.1063
 2339TIP3    H228509   5.285   5.026   9.995 -1.4655 -0.0043 -2.8124
 2340TIP3   OH228510   3.001   6.170  12.530  0.5903  0.7292  0.3148
 2340TIP3    H128511   2.930   6.150  12.470 -0.2043  3.7891  0.1060
 2340TIP3    H228512   3.051   6.239  12.486  2.0462  0.5772  1.6718
 2341TIP3   OH228513   4.682   3.512  11.235  0.2409 -0.0813 -0.5128
 2341TIP3    H128514   4.681   3.606  11.218  0.1324 -0.2497 -1.4865
 2341TIP3    H228515   4.590   3.488  11.247  0.2632 -0.0731 -0.3256
 2342TIP3   OH228516   5.132   3.865  12.160 -0.4386 -0.2165  0.4189
 2342TIP3    H128517   5.103   3.956  12.165  0.1876 -0.0299  0.6716
 2342TIP3    H228518   5.116   3.840  12.068  1.1493  0.7380 -0.1220
 2343TIP3   OH228519   0.952   3.771  10.693  0.4926  0.5657 -0.1559
 2343TIP3    H128520   0.857   3.756  10.691  0.6066 -0.9617  2.8069
 2343TIP3    H228521   0.961   3.866  10.690 -1.2533  0.8119  1.0939
 2344TIP3   OH228522   1.167   4.580  10.898 -0.1176 -0.7999 -0.0030
 2344TIP3    H128523   1.137   4.489  10.887 -1.0009 -0.6184  0.7849
 2344TIP3    H228524   1.136   4.604  10.985 -2.7017  1.3110 -1.4264
 2345TIP3   OH228525   6.537   3.596  10.791 -0.2736  0.1278 -0.0634
 2345TIP3    H128526   6.535   3.583  10.886  2.6833 -0.0739  0.0336
 2345TIP3    H228527   6.516   3.510  10.755  1.0319 -0.4131  0.4422
 2346TIP3   OH228528   6.535   3.606  13.223  0.3150 -0.8619  0.4738
 2346TIP3    H128529   6.565   3.637  13.137 -0.0914 -0.0858  0.6081
 2346TIP3    H228530   6.485   3.527  13.204  3.0146 -2.5921  0.3028
 2347TIP3   OH228531   6.940   1.987  11.534 -0.1743  0.6656  0.5065
 2347TIP3    H128532   6.915   2.071  11.574  2.4005  1.4275  0.5954
 2347TIP3    H228533   7.035   1.984  11.541 -0.0182 -1.1886 -1.6419
 2348TIP3   OH228534   4.711   2.732  10.585 -0.3840  0.4225 -0.4184
 2348TIP3    H128535   4.778   2.730  10.653  1.0566 -1.4743 -1.8523
 2348TIP3    H228536   4.641   2.675  10.617  0.5786 -0.9868 -0.8111
 2349TIP3   OH228537   4.931   5.102  10.239 -0.0814 -0.0184 -0.3377
 2349TIP3    H128538   4.932   5.012  10.273 -1.3068  0.6376  1.5340
 2349TIP3    H228539   5.013   5.110  10.190  1.0785 -1.4886  1.2897
 2350TIP3   OH228540   0.141   5.699  14.769 -0.1964  0.9345 -0.0190
 2350TIP3    H128541   0.194   5.703  14.848  0.2367  0.4403 -0.2884
 2350TIP3    H228542   0.059   5.659  14.797  0.8141 -1.3919 -0.2908
 2351TIP3   OH228543   2.740   4.061  10.235 -0.0406  0.1604  0.4957
 2351TIP3    H128544   2.796   4.132  10.204 -1.0362 -0.5264 -3.0401
 2351TIP3    H228545   2.668   4.105  10.280  0.2972  1.3162 -0.0777
 2352TIP3   OH228546   3.841   6.467  10.590  0.0816  0.6241 -0.3643
 2352TIP3    H128547   3.853   6.560  10.574 -1.4899  1.0697  0.8813
 2352TIP3    H228548   3.927   6.436  10.618  0.9396  1.3938 -2.1161
 2353TIP3   OH228549   5.857   4.450  11.302 -0.1530 -0.1412 -0.4317
 2353TIP3    H128550   5.801   4.435  11.378 -2.0723  1.4307 -1.4930
 2353TIP3    H228551   5.895   4.537  11.316  0.5013 -0.3863 -0.6533
 2354TIP3   OH228552   4.676   6.148  11.137  0.1620  0.0557 -0.3651
 2354TIP3    H128553   4.733   6.201  11.194 -3.5498  3.1076  0.7074
 2354TIP3    H228554   4.603   6.123  11.193 -0.8949 -1.5560 -2.4176
 2355TIP3   OH228555   4.572   6.869  11.797 -0.4066  0.1595 -0.2897
 2355TIP3    H128556   4.612   6.898  11.715  1.1433  0.7460  0.6411
 2355TIP3    H228557   4.484   6.906  11.796 -0.0907  0.8942 -1.2924
 2356TIP3   OH228558   0.296   5.358  12.367  0.5606  0.3054  0.1061
 2356TIP3    H128559   0.239   5.327  12.296 -0.6593 -0.4154  1.3755
 2356TIP3    H228560   0.250   5.434  12.403  0.1557 -0.5440  1.4284
 2357TIP3   OH228561   5.240   4.569   9.471 -0.1035  0.2294 -0.5409
 2357TIP3    H128562   5.255   4.588   9.378 -0.2281  0.9394 -0.4225
 2357TIP3    H228563   5.165   4.623   9.494 -1.6774 -1.8638 -0.6507
 2358TIP3   OH228564   6.453   3.467   9.940  0.1694 -0.3664  0.0845
 2358TIP3    H128565   6.365   3.483   9.973  0.0696 -1.3157  0.3080
 2358TIP3    H228566   6.506   3.535   9.980 -0.0928 -1.0558  1.6509
 2359TIP3   OH228567   5.842   6.130  11.684 -0.2982 -0.0928  0.3411
 2359TIP3    H128568   5.934   6.155  11.676  0.1204 -2.1267 -1.6865
 2359TIP3    H228569   5.794   6.210  11.667  1.0742  0.4922 -0.9294
 2360TIP3   OH228570   4.227   6.300  10.931 -0.0227 -0.2273 -0.4782
 2360TIP3    H128571   4.144   6.292  10.885  0.5391  1.0200 -1.7753
 2360TIP3    H228572   4.234   6.394  10.951  0.2289 -0.5987  1.2394
 2361TIP3   OH228573   4.302   1.638  13.344 -0.3661 -0.1341  0.3471
 2361TIP3    H128574   4.380   1.694  13.348 -2.0207  2.1879  1.3022
 2361TIP3    H228575   4.300   1.594  13.429 -0.6064  0.5741  0.7191
 2362TIP3   OH228576   4.857   3.403  10.842  0.1822 -0.0949 -0.6681
 2362TIP3    H128577   4.921   3.408  10.913 -0.5667  1.5942 -0.0807
 2362TIP3    H228578   4.816   3.317  10.852  0.1215  0.1124  0.9287
 2363TIP3   OH228579   5.514   1.423   9.828  0.0213  0.2932  1.0599
 2363TIP3    H128580   5.571   1.498   9.813 -0.9330  1.1468  1.6124
 2363TIP3    H228581   5.535   1.362   9.758 -1.5619  2.5124 -1.4079
 2364TIP3   OH228582   1.643   0.454  12.494  0.2807  0.7514 -0.2066
 2364TIP3    H128583   1.591   0.388  12.539  0.0918  1.7432  1.0716
 2364TIP3    H228584   1.674   0.411  12.415  1.3614 -1.3445  1.3038
 2365TIP3   OH228585   4.424   4.143  10.863 -0.3189 -0.0064 -0.4648
 2365TIP3    H128586   4.395   4.159  10.952 -2.7961  1.9351 -1.5691
 2365TIP3    H228587   4.394   4.054  10.844 -3.5983  1.1289 -0.7820
 2366TIP3   OH228588   3.897   0.738  11.551  0.8308 -0.0103 -0.3473
 2366TIP3    H128589   3.843   0.765  11.625  2.0238  0.7133  0.2795
 2366TIP3    H228590   3.986   0.741  11.585  1.3999  0.5244 -1.8787
 2367TIP3   OH228591   5.701   1.491  10.806  0.9209  0.0980 -0.5212
 2367TIP3    H128592   5.757   1.457  10.737  0.3166 -3.8060  0.8162
 2367TIP3    H228593   5.744   1.464  10.887 -1.1048  0.0222  0.5514
 2368TIP3   OH228594   4.705   2.406  10.895  0.1753 -0.3064 -0.2396
 2368TIP3    H128595   4.700   2.419  10.990  3.2466 -1.7048  0.1634
 2368TIP3    H228596   4.721   2.312  10.885  3.1630  0.3600 -2.0025
 2369TIP3   OH228597   0.272   5.484  11.654 -0.0468 -0.5828  0.0843
 2369TIP3    H128598   0.274   5.566  11.605 -0.8219 -0.8225 -0.3505
 2369TIP3    H228599   0.338   5.495  11.722 -0.7205  0.7237  0.5396
 2370TIP3   OH228600   4.114   1.775  10.572 -0.1821 -0.4474  0.4009
 2370TIP3    H128601   4.189   1.819  10.533  0.1217 -0.4095  1.0218
 2370TIP3    H228602   4.038   1.816  10.531  0.1282 -0.3080 -0.0408
 2371TIP3   OH228603   2.007   4.985  10.105 -0.0078  0.6901 -0.2431
 2371TIP3    H128604   2.044   4.896  10.101 -0.8686  0.3509 -0.7530
 2371TIP3    H228605   2.001   5.012  10.014  0.8381  1.5327 -0.0592
 2372TIP3   OH228606   5.205   4.860  10.855 -0.2576  0.6049  0.0294
 2372TIP3    H128607   5.241   4.773  10.841  0.3377  0.8991 -0.2978
 2372TIP3    H228608   5.173   4.859  10.945  0.8326  0.4192  0.4212
 2373TIP3   OH228609   4.200   1.520  10.461 -0.5250  0.2220 -0.3712
 2373TIP3    H128610   4.291   1.548  10.458 -1.0554  1.9415 -0.9979
 2373TIP3    H228611   4.152   1.598  10.491 -1.7846 -0.6746 -0.0204
 2374TIP3   OH228612   3.697   3.781  12.842  0.3027  0.0914 -0.5172
 2374TIP3    H128613   3.709   3.764  12.748  0.0795 -1.6059 -0.2542
 2374TIP3    H228614   3.605   3.762  12.858  0.2418  0.7910 -0.0387
 2375TIP3   OH228615   5.037   0.283  12.185 -0.6702  0.3281 -0.1232
 2375TIP3    H128616   5.117   0.293  12.237  0.4434  1.4588 -1.9629
 2375TIP3    H228617   4.984   0.360  12.208  0.2114  1.3069 -1.2679
 2376TIP3   OH228618   5.296   3.268  12.256 -0.6410  0.6147 -0.3204
 2376TIP3    H128619   5.221   3.290  12.311 -0.3106  2.1356 -0.4683
 2376TIP3    H228620   5.340   3.198  12.304  0.1033  2.4600  1.7731
 2377TIP3   OH228621   6.032   2.508  10.122  0.2781  0.0605 -0.3026
 2377TIP3    H128622   6.007   2.429  10.074 -0.2350  0.4767 -0.7238
 2377TIP3    H228623   5.977   2.508  10.200 -0.3100  0.4422 -0.7202
 2378TIP3   OH228624   2.288   5.906  13.196  1.0383 -0.6293  0.6994
 2378TIP3    H128625   2.260   5.896  13.105  3.0422 -1.8444  0.1829
 2378TIP3    H228626   2.285   5.818  13.233 -0.8943  0.0244  2.1792
 2379TIP3   OH228627   0.344   1.825  14.117  0.1124 -0.0883  1.1957
 2379TIP3    H128628   0.362   1.825  14.211 -0.5076  1.4148  1.3262
 2379TIP3    H228629   0.325   1.733  14.096  0.2992 -0.4393  2.5207
 2380TIP3   OH228630   5.163   3.822  11.876 -0.2555 -0.0602  0.4130
 2380TIP3    H128631   5.075   3.795  11.847 -0.4047  1.2575 -0.4512
 2380TIP3    H228632   5.211   3.740  11.886 -1.3984 -0.7706  0.2777
 2381TIP3   OH228633   6.079   3.114   9.954 -0.1536  0.1355  0.4984
 2381TIP3    H128634   6.158   3.074   9.991 -1.1889 -1.6119  0.9139
 2381TIP3    H228635   6.093   3.111   9.859  0.2827 -0.1649  0.5698
 2382TIP3   OH228636   4.833   5.681  11.222  0.2777  0.1526  0.0601
 2382TIP3    H128637   4.926   5.661  11.233  0.3716  0.0051 -0.9209
 2382TIP3    H228638   4.833   5.770  11.185  0.0355  0.0899 -0.0858
 2383TIP3   OH228639   0.278   3.750  11.093  0.0482  0.1501  0.2707
 2383TIP3    H128640   0.253   3.830  11.141  0.5812  0.7327 -0.4090
 2383TIP3    H228641   0.277   3.776  11.001 -1.9306 -1.2410 -0.1305
 2384TIP3   OH228642   6.409   4.020  11.818 -0.3624  0.3615 -0.0709
 2384TIP3    H128643   6.452   3.946  11.862 -0.7432  0.3771  0.3314
 2384TIP3    H228644   6.470   4.093  11.828  0.4485 -0.1506 -1.3148
 2385TIP3   OH228645   6.216   1.763  10.560 -0.3783  0.4297 -0.4553
 2385TIP3    H128646   6.182   1.675  10.577 -3.3455  1.0168 -3.0841
 2385TIP3    H228647   6.165   1.819  10.618  0.5160  0.6093  0.1677
 2386TIP3   OH228648   5.017   4.225  10.882 -0.8179  0.0661 -0.0319
 2386TIP3    H128649   5.098   4.268  10.907 -0.8249  1.1087 -1.7444
 2386TIP3    H228650   5.035   4.131  10.891  1.0131  0.2470 -1.7160
 2387TIP3   OH228651   5.192   4.199   9.881  0.1360  0.1576  0.4450
 2387TIP3    H128652   5.263   4.156   9.835  1.6815  3.2701 -0.2160
 2387TIP3    H228653   5.156   4.261   9.817 -1.7846  0.1472  1.4663
 2388TIP3   OH228654   5.219   3.992  10.699 -0.0688 -0.7057  0.0681
 2388TIP3    H128655   5.217   4.069  10.642  0.4197 -0.0749  0.9007
 2388TIP3    H228656   5.174   3.924  10.648 -0.0393 -0.0278 -0.8854
 2389TIP3   OH228657   7.123   4.137  10.642  0.1975  0.1860  0.2527
 2389TIP3    H128658   7.032   4.154  10.666 -0.2517 -0.2551 -1.1244
 2389TIP3    H228659   7.167   4.222  10.653 -0.6493  0.7045 -0.3436
 2390TIP3   OH228660   6.332   6.821  12.299  0.2523  0.1715 -0.1438
 2390TIP3    H128661   6.340   6.913  12.326  0.4591  0.5422 -1.4170
 2390TIP3    H228662   6.262   6.822  12.234 -0.9913 -0.8738  1.1375
 2391TIP3   OH228663   1.566   3.240  11.637  0.1002 -0.3810 -0.0410
 2391TIP3    H128664   1.651   3.212  11.671 -0.4048 -1.0176  0.7402
 2391TIP3    H228665   1.544   3.175  11.570 -0.4559 -1.0810  0.8184
 2392TIP3   OH228666   3.385   2.926  10.569  0.0971 -0.4277 -0.0475
 2392TIP3    H128667   3.392   2.834  10.596 -1.0268 -0.2062  1.0438
 2392TIP3    H228668   3.352   2.922  10.479 -0.5512 -1.0852  0.2169
 2393TIP3   OH228669   3.883   4.699  10.856  0.6516  0.2204 -0.0795
 2393TIP3    H128670   3.868   4.789  10.829  1.4544 -0.1374 -1.7620
 2393TIP3    H228671   3.827   4.647  10.798  1.0196 -0.4304  0.1440
 2394TIP3   OH228672   5.557   4.782   9.829  0.2188 -0.6683 -0.0321
 2394TIP3    H128673   5.539   4.759   9.738 -0.7818 -1.2667  0.2980
 2394TIP3    H228674   5.628   4.846   9.825  1.5203 -2.1528 -1.1208
 2395TIP3   OH228675   5.850   6.522  12.869  0.0626 -0.2841 -0.1707
 2395TIP3    H128676   5.764   6.513  12.911  0.4586  0.5421  0.8490
 2395TIP3    H228677   5.865   6.438  12.826 -1.4796 -0.2592 -0.7710
 2396TIP3   OH228678   2.929   2.158  13.079  0.1332  0.5810  0.3725
 2396TIP3    H128679   3.019   2.190  13.069  1.0091 -1.9343 -0.2189
 2396TIP3    H228680   2.935   2.091  13.148 -1.5069  1.1616  1.1044
 2397TIP3   OH228681   3.691   5.044  11.315  0.6490  0.3019 -0.2486
 2397TIP3    H128682   3.766   4.990  11.290 -0.1121 -0.5144 -0.7963
 2397TIP3    H228683   3.619   4.982  11.326 -0.0783  1.1310 -0.2438
 2398TIP3   OH228684   2.555   2.658  11.457  0.3920  0.5646  0.4439
 2398TIP3    H128685   2.606   2.604  11.518 -0.3989  0.6178  1.1549
 2398TIP3    H228686   2.622   2.700  11.402  1.0868  0.0733  0.8971
 2399TIP3   OH228687   6.665   5.505  10.024 -0.3325  0.0140  0.7218
 2399TIP3    H128688   6.729   5.559  10.070  1.5890  0.2863 -2.1257
 2399TIP3    H228689   6.607   5.569   9.983 -0.5165 -0.1691  0.7006
 2400TIP3   OH228690   7.064   4.456  10.018  0.1311 -0.2673  0.4222
 2400TIP3    H128691   6.993   4.405   9.980 -0.6667  0.3493  1.0849
 2400TIP3    H228692   7.022   4.533  10.055  1.0160 -0.3498  1.6331
 2401TIP3   OH228693   7.110   4.259   1.483 -0.4453 -0.3736 -0.0647
 2401TIP3    H128694   7.138   4.349   1.499  0.4413 -0.4236 -1.2559
 2401TIP3    H228695   7.022   4.267   1.445 -0.4744 -0.0333  0.0771
 2402TIP3   OH228696   6.225   5.534  12.608 -0.0981 -0.0252  0.3144
 2402TIP3    H128697   6.317   5.522  12.588  0.0074  1.1573  0.0688
 2402TIP3    H228698   6.213   5.629  12.610 -0.8454 -0.1411  2.4561
 2403TIP3   OH228699   3.212   4.512  13.967  0.2899  0.5493 -0.1961
 2403TIP3    H128700   3.261   4.556  13.898 -1.6368 -0.1257 -2.0171
 2403TIP3    H228701   3.134   4.478  13.924  0.0358 -1.6335  1.9023
 2404TIP3   OH228702   6.017   4.328  10.962  0.1574  0.1297  0.3098
 2404TIP3    H128703   5.999   4.418  10.935  1.4996 -0.3726 -2.4981
 2404TIP3    H228704   5.931   4.284  10.958 -0.2478  0.9297  0.1852
 2405TIP3   OH228705   1.046   3.863  14.799  0.4927  0.1095  0.0824
 2405TIP3    H128706   0.967   3.871  14.746 -1.1724  0.1739  2.4791
 2405TIP3    H228707   1.100   3.800  14.752 -0.2944  1.1938 -2.3817
 2406TIP3   OH228708   5.398   4.904  11.158  0.8508 -0.9273  0.4896
 2406TIP3    H128709   5.421   4.907  11.251 -0.0472 -0.6123  0.7049
 2406TIP3    H228710   5.349   4.823  11.148  0.9079 -0.9376  0.2981
 2407TIP3   OH228711   6.841   4.336   9.908  0.5703 -0.5237 -0.3428
 2407TIP3    H128712   6.802   4.422   9.893  2.5269  0.5486  0.4876
 2407TIP3    H228713   6.809   4.308   9.993 -0.4204 -0.8323 -0.8094
 2408TIP3   OH228714   6.584   3.508  12.741  0.2429  0.0872  0.2740
 2408TIP3    H128715   6.679   3.505  12.752  0.0248  0.2643  2.3872
 2408TIP3    H228716   6.556   3.417  12.749  0.2938 -0.0397 -0.9673
 2409TIP3   OH228717   5.829   5.635  12.847  0.0355 -0.5345  0.2749
 2409TIP3    H128718   5.823   5.642  12.943 -1.0245 -0.7300  0.2255
 2409TIP3    H228719   5.741   5.612  12.819  0.9361 -3.1916 -0.5233
 2410TIP3   OH228720   6.467   2.604  10.978 -0.3716 -0.3571  0.0498
 2410TIP3    H128721   6.378   2.583  10.950 -0.7874  0.7863  0.4730
 2410TIP3    H228722   6.510   2.519  10.987 -0.5084 -0.8002 -3.0087
 2411TIP3   OH228723   6.015   2.941  10.273  0.2288 -0.6861 -0.2335
 2411TIP3    H128724   6.083   3.009  10.279  0.7855 -1.2552  0.0599
 2411TIP3    H228725   6.020   2.895  10.358 -0.8404 -0.4344 -0.0400
 2412TIP3   OH228726   6.441   3.806   9.782  0.0654  0.6204 -0.1837
 2412TIP3    H128727   6.520   3.858   9.771  1.7717 -2.0240 -0.9620
 2412TIP3    H228728   6.473   3.719   9.808 -2.6709 -0.0503  1.1371
 2413TIP3   OH228729   1.228   3.816  12.627 -0.5852  0.3519 -0.5996
 2413TIP3    H128730   1.150   3.765  12.651 -0.4418  0.2263 -0.3949
 2413TIP3    H228731   1.262   3.848  12.711  1.0140 -1.6824 -0.4531
 2414TIP3   OH228732   1.828   2.052  10.513  0.2291 -0.4410 -0.2427
 2414TIP3    H128733   1.772   1.986  10.472 -1.4511  0.8521 -0.1212
 2414TIP3    H228734   1.867   2.099  10.440 -0.3446 -0.1394 -0.3652
 2415TIP3   OH228735   5.615   4.603   9.598 -0.1045 -0.0229  0.1284
 2415TIP3    H128736   5.625   4.539   9.668 -0.0456  0.9163  0.9819
 2415TIP3    H228737   5.702   4.607   9.557 -0.2014 -0.7401 -0.1679
 2416TIP3   OH228738   0.073   5.075  10.889  0.2582  0.1997  0.3516
 2416TIP3    H128739   0.105   5.095  10.801 -0.0841 -0.4248  0.0771
 2416TIP3    H228740   0.123   5.131  10.947 -0.3511  1.4904 -0.3498
 2417TIP3   OH228741   5.689   6.479  10.769  0.1242 -0.0241  0.1875
 2417TIP3    H128742   5.657   6.555  10.721  1.0708  0.1785 -0.1413
 2417TIP3    H228743   5.690   6.408  10.704  0.6304  0.0480  0.1140
 2418TIP3   OH228744   5.276   3.345   9.705  0.3089 -0.0010  0.2477
 2418TIP3    H128745   5.345   3.351   9.639  0.4450 -2.9058  0.0836
 2418TIP3    H228746   5.232   3.263   9.687 -1.2960  0.3952  2.2156
 2419TIP3   OH228747   5.213   2.736  12.528  0.3251  0.2634  0.5337
 2419TIP3    H128748   5.266   2.660  12.503 -2.2562 -1.3067 -0.3759
 2419TIP3    H228749   5.272   2.790  12.581  2.1552 -2.4742  1.3903
 2420TIP3   OH228750   4.624   5.637  10.940 -0.1271  0.6467  0.0467
 2420TIP3    H128751   4.663   5.673  11.019  2.2607 -0.6345 -0.4889
 2420TIP3    H228752   4.594   5.549  10.965  1.8918 -0.3073 -0.7650
 2421TIP3   OH228753   5.084   3.979  11.527  0.1973  0.6228 -0.6242
 2421TIP3    H128754   5.013   4.030  11.488  1.2643  0.4978 -2.7735
 2421TIP3    H228755   5.153   4.043  11.545 -0.3588  0.7226  1.3620
 2422TIP3   OH228756   5.735   6.151  10.317  0.7254  0.6236  0.4080
 2422TIP3    H128757   5.664   6.130  10.256  0.4007  2.1323  0.2493
 2422TIP3    H228758   5.812   6.107  10.281 -0.2860 -1.7228  1.0220
 2423TIP3   OH228759   4.752   0.147  10.651 -0.7822  0.0565 -0.5640
 2423TIP3    H128760   4.806   0.188  10.584 -0.5284  0.8736  0.1372
 2423TIP3    H228761   4.702   0.219  10.689  1.2688  0.0652  2.1937
 2424TIP3   OH228762   5.144   5.557  10.562  0.8090 -0.0588 -0.2679
 2424TIP3    H128763   5.234   5.546  10.532  0.4357 -2.4216 -0.6364
 2424TIP3    H228764   5.149   5.622  10.632  2.4700  1.4662 -1.7724
 2425TIP3   OH228765   6.051   5.614   9.863 -0.2236 -0.0320  0.6656
 2425TIP3    H128766   5.965   5.572   9.876 -0.9832  0.9278 -1.0668
 2425TIP3    H228767   6.073   5.595   9.772  1.4372 -0.2883  1.1136
 2426TIP3   OH228768   0.894   6.093  11.278  0.7890  0.5803  0.0845
 2426TIP3    H128769   0.968   6.042  11.248  0.6686 -1.5222  3.1134
 2426TIP3    H228770   0.827   6.029  11.300 -1.6076  2.3870 -1.6107
 2427TIP3   OH228771   0.156   3.621  11.952  0.2677  0.7931  0.0452
 2427TIP3    H128772   0.080   3.651  12.003 -2.7703 -0.8836 -3.2346
 2427TIP3    H228773   0.181   3.696  11.899  0.3135  1.0563  0.4333
 2428TIP3   OH228774   3.282   5.079  10.761 -0.0032  0.5935 -0.0219
 2428TIP3    H128775   3.255   5.039  10.679 -1.1413  1.3598 -0.0369
 2428TIP3    H228776   3.222   5.153  10.773 -0.2348  0.1397  1.7988
 2429TIP3   OH228777   3.161   4.557  13.596  0.4053  0.1919 -0.3964
 2429TIP3    H128778   3.087   4.588  13.649 -0.0229 -1.5243  0.0218
 2429TIP3    H228779   3.234   4.556  13.657  0.3014 -0.1010 -0.2735
 2430TIP3   OH228780   5.812   2.148  10.148 -0.7152  0.3325  0.5798
 2430TIP3    H128781   5.866   2.075  10.177 -2.1873 -1.1517 -0.2636
 2430TIP3    H228782   5.864   2.191  10.080 -0.5224 -0.9680 -0.1079
 2431TIP3   OH228783   3.635   6.495  14.250  0.0970 -0.2392 -0.1403
 2431TIP3    H128784   3.613   6.475  14.159 -1.4692 -3.7983  0.9210
 2431TIP3    H228785   3.551   6.510  14.293  0.6964 -0.2633  1.0833
 2432TIP3   OH228786   6.908   4.988   9.767 -0.5545  0.3877 -0.1076
 2432TIP3    H128787   6.999   4.962   9.757 -0.4882  0.5732  0.0096
 2432TIP3    H228788   6.873   4.926   9.832  0.0679  1.6803  1.5038
 2433TIP3   OH228789   2.339   1.142  10.226  0.2743 -0.0867  0.4139
 2433TIP3    H128790   2.300   1.203  10.164  0.9093  0.0345  0.1258
 2433TIP3    H228791   2.290   1.060  10.212  2.0941 -0.8256 -2.1186
 2434TIP3   OH228792   5.668   5.441  10.573 -0.4154 -0.4210 -0.8691
 2434TIP3    H128793   5.752   5.423  10.615 -0.8418 -0.5256 -0.0456
 2434TIP3    H228794   5.690   5.463  10.483  0.4780 -0.6472 -0.7076
 2435TIP3   OH228795   1.718   5.900  10.744  0.0055  0.3343  0.3009
 2435TIP3    H128796   1.733   5.926  10.835  0.0231 -2.2934  1.0958
 2435TIP3    H228797   1.804   5.872  10.713 -0.0239  1.1234 -0.4972
 2436TIP3   OH228798   5.934   3.372  13.141  0.8096 -0.3657 -0.3557
 2436TIP3    H128799   5.857   3.330  13.102  0.7930 -0.5164 -0.1614
 2436TIP3    H228800   5.938   3.458  13.099 -0.7698  0.5147  1.2481
 2437TIP3   OH228801   2.832   3.965  11.531  0.3915 -0.2441  0.5965
 2437TIP3    H128802   2.856   4.039  11.587 -1.5966  0.0697  1.0528
 2437TIP3    H228803   2.885   3.977  11.452  2.3289 -0.0267  1.8900
 2438TIP3   OH228804   2.219   4.835  10.701  0.5297 -0.1241 -0.2707
 2438TIP3    H128805   2.265   4.773  10.757  0.4181 -0.2598 -0.3315
 2438TIP3    H228806   2.130   4.801  10.695  0.0792  0.8146  0.8721
 2439TIP3   OH228807   3.574   4.355  13.885  0.3787 -0.1890  0.4118
 2439TIP3    H128808   3.660   4.324  13.858  0.8475  1.2496  0.2365
 2439TIP3    H228809   3.517   4.335  13.811  0.7750 -0.2016  0.1093
 2440TIP3   OH228810   6.722   2.858  12.653  0.4780  0.4629  0.2070
 2440TIP3    H128811   6.687   2.778  12.693 -1.1489  0.8294 -0.4716
 2440TIP3    H228812   6.774   2.826  12.579 -0.3206  0.0486 -0.1768
 2441TIP3   OH228813   6.100   5.335  10.548  0.1744  0.3526  0.4384
 2441TIP3    H128814   6.193   5.342  10.525  0.2822  1.2271  1.0919
 2441TIP3    H228815   6.054   5.337  10.464  0.9182 -3.9699 -0.1655
 2442TIP3   OH228816   6.536   3.341  11.315 -0.4948  0.6931 -0.2865
 2442TIP3    H128817   6.570   3.355  11.403 -1.3394  0.3916  0.0869
 2442TIP3    H228818   6.471   3.271  11.325 -1.0461  1.0957 -1.0420
 2443TIP3   OH228819   1.715   5.286  11.591  0.0197  0.2162  0.0894
 2443TIP3    H128820   1.664   5.210  11.618  1.9339 -1.0496  0.2476
 2443TIP3    H228821   1.757   5.259  11.509  1.7165  0.6008  0.8011
 2444TIP3   OH228822   5.933   3.945  11.557 -0.0283  0.1056 -0.7730
 2444TIP3    H128823   5.942   4.021  11.500  0.3831 -0.5766 -1.6236
 2444TIP3    H228824   6.005   3.888  11.533  0.5498  0.0935  0.8819
 2445TIP3   OH228825   5.792   2.153  10.444  0.1285 -0.5525  0.0890
 2445TIP3    H128826   5.831   2.117  10.364 -1.5930 -0.2460 -0.9125
 2445TIP3    H228827   5.795   2.248  10.431  0.8867 -0.4666  0.8937
 2446TIP3   OH228828   3.683   0.490  13.823 -0.1488  0.0920 -0.1317
 2446TIP3    H128829   3.733   0.572  13.820  0.2404 -0.1140  0.6257
 2446TIP3    H228830   3.727   0.432  13.761  0.4176 -0.0109  0.3620
 2447TIP3   OH228831   3.106   5.034   9.912  0.1576 -1.0472  0.4715
 2447TIP3    H128832   3.060   4.981   9.847  1.4651 -1.3257 -0.2639
 2447TIP3    H228833   3.054   5.114   9.920 -0.5348 -1.4297 -0.2073
 2448TIP3   OH228834   6.653   7.161   9.764 -0.0050 -0.6662 -0.2367
 2448TIP3    H128835   6.734   7.123   9.798 -0.1316  0.4649  1.4411
 2448TIP3    H228836   6.679   7.246   9.729 -0.4950 -0.1314  0.6553
 2449TIP3   OH228837   6.911   5.529   9.639 -0.1805  0.0738  0.2191
 2449TIP3    H128838   6.979   5.562   9.579 -0.3057  0.0415  0.0584
 2449TIP3    H228839   6.930   5.436   9.648 -2.1116 -0.6472 -2.4145
 2450TIP3   OH228840   2.612   4.020  10.775 -0.7500  0.0990 -0.5339
 2450TIP3    H128841   2.670   3.945  10.787  1.4619  2.0203  1.5728
 2450TIP3    H228842   2.568   4.030  10.859  0.5274  2.3283 -0.0820
 2451TIP3   OH228843   1.528   4.797  11.401  0.1268 -0.4848  0.3001
 2451TIP3    H128844   1.442   4.788  11.360  0.4828 -0.8500 -0.3724
 2451TIP3    H228845   1.529   4.730  11.469  0.9508 -2.3985 -1.5551
 2452TIP3   OH228846   2.602   2.657  15.183  0.6620 -0.0112 -0.6479
 2452TIP3    H128847   2.649   2.654  15.266 -0.9386  0.5231  0.3121
 2452TIP3    H228848   2.515   2.690  15.206  0.3553  0.6437 -2.6187
 2453TIP3   OH228849   1.465   3.554   1.078 -0.4000 -0.2139  0.1953
 2453TIP3    H128850   1.428   3.505   1.151 -1.7493  2.6192  1.5264
 2453TIP3    H228851   1.544   3.595   1.115 -0.3760  0.1935 -0.3034
 2454TIP3   OH228852   1.215   1.222  11.675 -0.1067  0.3940 -0.1205
 2454TIP3    H128853   1.217   1.183  11.588 -0.3919 -1.5175  0.7103
 2454TIP3    H228854   1.140   1.281  11.673  0.0613  0.5771 -1.2500
 2455TIP3   OH228855   7.021   4.793  11.343 -0.8095  0.6000  0.2947
 2455TIP3    H128856   6.971   4.715  11.317 -1.1561  0.6136  0.9178
 2455TIP3    H228857   6.963   4.841  11.402 -0.3189  0.9607  0.4905
 2456TIP3   OH228858   5.687   5.498  10.912  0.1763 -0.1466 -0.4541
 2456TIP3    H128859   5.612   5.518  10.856  0.0734  2.5407  0.5979
 2456TIP3    H228860   5.650   5.486  11.000  0.6555 -1.6981 -0.4410
 2457TIP3   OH228861   5.045   1.058  10.259 -0.7889  0.5425 -0.3019
 2457TIP3    H128862   5.048   1.125  10.191 -0.4341 -0.1596 -0.9968
 2457TIP3    H228863   4.956   1.062  10.293 -0.1276  2.9110  1.2703
 2458TIP3   OH228864   4.722   2.998  10.641  0.1160  0.3880 -0.3030
 2458TIP3    H128865   4.697   2.915  10.601  1.1083 -0.8497  1.5435
 2458TIP3    H228866   4.816   3.005  10.624  0.5685 -0.1927  1.7830
 2459TIP3   OH228867   0.199   4.313   9.805 -0.3894  0.3358 -0.0516
 2459TIP3    H128868   0.269   4.378   9.803  0.0340 -0.0225  1.6451
 2459TIP3    H228869   0.236   4.236   9.762  0.4079  0.0352  1.1373
 2460TIP3   OH228870   3.293   7.033  12.094 -0.4750  0.1261 -0.3263
 2460TIP3    H128871   3.333   6.949  12.071  3.3144  1.1572  1.8830
 2460TIP3    H228872   3.329   7.095  12.030 -3.1658  0.1642 -1.8809
 2461TIP3   OH228873   7.039   4.481  11.456 -0.1621 -0.0255  0.7032
 2461TIP3    H128874   7.050   4.443  11.369 -0.9865 -0.5144  0.8136
 2461TIP3    H228875   6.957   4.529  11.453  1.2936  2.5659  0.2894
 2462TIP3   OH228876   4.476   4.714   9.943  0.2123  0.1067  0.6939
 2462TIP3    H128877   4.525   4.667   9.875  0.0221  0.9876 -0.0640
 2462TIP3    H228878   4.386   4.686   9.932  0.0615  0.7985  0.0932
 2463TIP3   OH228879   3.086   4.760  10.837 -0.3344 -0.4475  0.0786
 2463TIP3    H128880   3.004   4.713  10.848 -0.4533 -0.1837  0.3139
 2463TIP3    H228881   3.112   4.742  10.747 -1.0071  0.0461 -0.2156
 2464TIP3   OH228882   1.237   2.096   9.623  0.6084 -0.8937  0.3512
 2464TIP3    H128883   1.260   2.166   9.562  0.7765 -0.1822  1.2251
 2464TIP3    H228884   1.157   2.059   9.587 -0.0842  0.4659  0.4664
 2465TIP3   OH228885   6.325   6.567   9.327  0.7094 -0.3047 -0.2107
 2465TIP3    H128886   6.243   6.526   9.352  1.7571 -1.9983  0.5647
 2465TIP3    H228887   6.393   6.510   9.365  2.2234  1.4567 -0.1988
 2466TIP3   OH228888   1.050   7.049  10.793  0.0315  0.1558 -0.7246
 2466TIP3    H128889   0.996   7.092  10.859  0.0218 -2.8140  1.2873
 2466TIP3    H228890   1.000   7.057  10.712 -1.7247  0.6469  0.3878
 2467TIP3   OH228891   6.861   2.556  10.289 -0.4499  0.1726  0.3593
 2467TIP3    H128892   6.911   2.565  10.370  0.1303  0.6330 -0.0425
 2467TIP3    H228893   6.897   2.478  10.247  1.0643  1.4240 -0.7099
 2468TIP3   OH228894   6.969   3.629   0.238 -0.2033 -0.6177  0.0760
 2468TIP3    H128895   7.051   3.678   0.229 -1.1452  0.6952 -1.6375
 2468TIP3    H228896   6.908   3.692   0.276 -1.1715 -0.7272 -1.2736
 2469TIP3   OH228897   5.789   4.608   9.937 -0.1565  0.2139 -0.1397
 2469TIP3    H128898   5.813   4.667   9.866  1.3932  0.3951  0.5187
 2469TIP3    H228899   5.731   4.544   9.896  2.0048 -0.6636 -1.9573
 2470TIP3   OH228900   0.993   0.403  11.104  0.0993 -0.0253  0.3522
 2470TIP3    H128901   0.945   0.391  11.022 -1.2415  1.6558  0.8555
 2470TIP3    H228902   1.002   0.498  11.113  2.5728 -0.2803  0.8416
 2471TIP3   OH228903   6.246   2.961  10.675 -0.0220 -0.3280  0.1044
 2471TIP3    H128904   6.151   2.950  10.683  0.2265 -2.5068  0.3248
 2471TIP3    H228905   6.274   2.990  10.761 -0.2853 -1.2506  0.5008
 2472TIP3   OH228906   6.558   1.032   0.551 -0.2241 -0.3913  0.2711
 2472TIP3    H128907   6.520   0.950   0.518  1.1547 -1.5450  1.4830
 2472TIP3    H228908   6.482   1.084   0.578 -1.0468 -2.1404  1.4789
 2473TIP3   OH228909   6.060   3.152  12.171  0.6088  0.3605 -0.6285
 2473TIP3    H128910   6.106   3.170  12.253 -0.0514 -1.7143  0.2314
 2473TIP3    H228911   5.975   3.117  12.198 -1.5361  4.0050 -2.1726
 2474TIP3   OH228912   6.647   4.003  10.114 -0.0208  0.2056 -0.3947
 2474TIP3    H128913   6.686   3.923  10.078 -0.4580  0.1468 -0.7433
 2474TIP3    H228914   6.553   3.993  10.097 -0.0018  1.0869 -1.0034
 2475TIP3   OH228915   4.112   2.628   9.634  0.5875  0.3613  0.3903
 2475TIP3    H128916   4.028   2.668   9.659  0.0722 -0.9080  0.7437
 2475TIP3    H228917   4.177   2.675   9.685 -0.0265  0.6812  0.8860
 2476TIP3   OH228918   5.336   3.569   9.858 -0.4974  0.1658  0.0593
 2476TIP3    H128919   5.369   3.652   9.824  2.4510 -1.0800 -0.2956
 2476TIP3    H228920   5.265   3.545   9.798  0.2970  1.2269 -1.3248
 2477TIP3   OH228921   5.301   2.468   9.706  0.9231  0.6050  0.1623
 2477TIP3    H128922   5.307   2.562   9.687  0.3288  0.8274  1.0552
 2477TIP3    H228923   5.210   2.446   9.688  0.8833  0.3549  0.6567
 2478TIP3   OH228924   6.875   2.679  12.510  0.7226  0.3159  0.1484
 2478TIP3    H128925   6.963   2.640  12.517  0.0886 -0.8836  1.7040
 2478TIP3    H228926   6.815   2.604  12.515 -0.4546  1.2967  0.9962
 2479TIP3   OH228927   5.566   2.274  14.052  0.3017  0.7078  0.6131
 2479TIP3    H128928   5.656   2.244  14.060  0.5088  1.3754  0.8083
 2479TIP3    H228929   5.534   2.281  14.142 -0.5537 -1.3383  0.4904
 2480TIP3   OH228930   2.080   0.575  12.665  0.3872  0.1700 -0.2212
 2480TIP3    H128931   2.073   0.634  12.590  1.9647  1.6886  0.8003
 2480TIP3    H228932   2.163   0.529  12.652  1.1477  1.1637  1.1031
 2481TIP3   OH228933   0.059   0.658  13.952 -0.2548 -0.1581 -0.4737
 2481TIP3    H128934   0.034   0.596  13.884 -0.3859 -2.2896  1.4627
 2481TIP3    H228935   0.116   0.608  14.011 -0.0652  1.6604  0.9358
 2482TIP3   OH228936   1.789   1.670  13.389  0.8960  0.2129  0.5749
 2482TIP3    H128937   1.710   1.661  13.441 -1.2317 -3.3223 -2.9649
 2482TIP3    H228938   1.771   1.743  13.329  0.6866  0.0273  0.4111
 2483TIP3   OH228939   0.540   3.709  10.242 -0.2607  0.1300  0.4909
 2483TIP3    H128940   0.596   3.654  10.187  0.3863 -0.0073  1.2922
 2483TIP3    H228941   0.497   3.768  10.180  0.1652 -0.2930 -0.2130
 2484TIP3   OH228942   1.053   0.354  12.662  0.1102  0.5244 -0.0493
 2484TIP3    H128943   0.981   0.305  12.623 -0.2708  0.2773  0.9386
 2484TIP3    H228944   1.125   0.348  12.599 -0.4237 -0.0311 -0.6019
 2485TIP3   OH228945   7.017   6.212  10.596  0.1270  0.1850  0.1132
 2485TIP3    H128946   6.946   6.275  10.605  1.7094  1.5999  3.2370
 2485TIP3    H228947   7.009   6.154  10.672  2.0416  0.0933  0.2905
 2486TIP3   OH228948   0.437   0.040  10.730  0.2467 -0.3999 -0.0926
 2486TIP3    H128949   0.498   0.107  10.759  0.3225 -0.7917  0.6643
 2486TIP3    H228950   0.436  -0.024  10.801  0.3825 -1.3402 -0.9222
 2487TIP3   OH228951   4.259   6.495  12.193 -0.3520 -0.0057  0.3648
 2487TIP3    H128952   4.296   6.419  12.147 -2.3356 -1.6845  1.4595
 2487TIP3    H228953   4.280   6.570  12.137 -0.4193 -1.6770 -1.9541
 2488TIP3   OH228954   1.540   5.454  11.407  0.3284 -0.1191 -0.0687
 2488TIP3    H128955   1.582   5.409  11.480 -0.5646 -0.3028  0.3485
 2488TIP3    H228956   1.495   5.528  11.448 -1.3492 -1.0194 -0.2136
 2489TIP3   OH228957   3.990   6.500  12.015 -0.1515 -0.1352  0.4387
 2489TIP3    H128958   3.952   6.509  11.928 -0.1180 -1.0423  0.3270
 2489TIP3    H228959   4.085   6.498  12.000 -0.1370 -0.0531  0.5179
 2490TIP3   OH228960   0.722   3.901  12.014  0.1524 -0.1698  0.1846
 2490TIP3    H128961   0.634   3.875  12.040 -0.2185 -0.4876 -1.3601
 2490TIP3    H228962   0.761   3.936  12.094 -0.8425 -1.4417  1.2512
 2491TIP3   OH228963   3.048   5.196  12.039  0.2575  0.7700 -0.6957
 2491TIP3    H128964   2.995   5.115  12.035 -1.0713  1.6321 -0.9970
 2491TIP3    H228965   3.116   5.183  11.973 -0.3388  0.1519 -1.2057
 2492TIP3   OH228966   4.047   4.978  10.520 -0.5755 -0.0221 -0.0701
 2492TIP3    H128967   4.080   5.011  10.437  1.2189 -1.2851  0.1225
 2492TIP3    H228968   3.974   4.922  10.496  1.0114 -1.7527 -0.9432
 2493TIP3   OH228969   6.276   5.258   9.433 -0.4576 -0.0869  0.0951
 2493TIP3    H128970   6.289   5.353   9.443 -0.9877  0.0966 -0.8635
 2493TIP3    H228971   6.298   5.221   9.518 -0.3517  0.9151  0.5060
 2494TIP3   OH228972   5.377   4.905  12.215  0.1044 -0.0011  0.3302
 2494TIP3    H128973   5.444   4.925  12.149  0.6260  0.7513  1.0698
 2494TIP3    H228974   5.419   4.928  12.298 -0.8838 -0.0384  0.8424
 2495TIP3   OH228975   5.840   3.156  10.560 -0.5634 -0.0784  0.8559
 2495TIP3    H128976   5.902   3.083  10.556 -1.3739 -0.9281  2.8794
 2495TIP3    H228977   5.873   3.219  10.497  2.7044 -0.2611  2.2597
 2496TIP3   OH228978   6.276   1.680  13.002  0.4336 -0.1501 -0.1068
 2496TIP3    H128979   6.218   1.736  13.053  1.2539 -0.1332  0.8320
 2496TIP3    H228980   6.232   1.594  13.001 -0.3012  0.2289 -0.6394
 2497TIP3   OH228981   2.798   2.947  12.655 -0.4960 -0.5970 -0.4441
 2497TIP3    H128982   2.725   3.005  12.675 -0.2217  0.3136 -2.0618
 2497TIP3    H228983   2.828   2.974  12.569  2.0258 -0.6756  0.3653
 2498TIP3   OH228984   6.694   4.837  11.337  0.4225 -0.6266 -0.1186
 2498TIP3    H128985   6.599   4.837  11.352  0.4427 -0.8765  0.0181
 2498TIP3    H228986   6.703   4.828  11.242  0.3090 -0.9891 -0.0981
 2499TIP3   OH228987   4.858   1.613  11.505  0.1544 -0.6786 -0.0148
 2499TIP3    H128988   4.901   1.555  11.568  0.5317  0.6677  0.9720
 2499TIP3    H228989   4.824   1.553  11.438 -0.6788 -2.1613  1.6981
 2500TIP3   OH228990   6.314   4.632   9.565  0.0684 -0.1224 -0.0506
 2500TIP3    H128991   6.335   4.720   9.596  0.5136  0.0548 -0.8464
 2500TIP3    H228992   6.242   4.645   9.502 -0.4563 -0.4216  0.4761
 2501TIP3   OH228993   1.505   4.555  10.559  0.1733  0.3810 -0.0525
 2501TIP3    H128994   1.451   4.615  10.611 -0.4797 -2.3128  2.5223
 2501TIP3    H228995   1.443   4.497  10.516  0.8940 -1.7606  1.7044
 2502TIP3   OH228996   5.338   7.145  12.145 -0.1961 -0.0989  0.1042
 2502TIP3    H128997   5.343   7.149  12.240 -0.9116 -0.1348  0.1450
 2502TIP3    H228998   5.297   7.227  12.119 -1.6518 -0.8369 -0.0377
 2503TIP3   OH228999   1.312   2.801  11.630  0.7271  0.3315  1.3263
 2503TIP3    H129000   1.229   2.789  11.674 -0.2287 -0.0130 -0.5195
 2503TIP3    H229001   1.347   2.712  11.619 -0.8982  0.0264 -2.0372
 2504TIP3   OH229002   0.995   2.709   0.230  0.6060 -0.4757  0.1488
 2504TIP3    H129003   1.030   2.793   0.260 -1.7464  0.2944  0.8979
 2504TIP3    H229004   0.995   2.716   0.134  0.7177  0.2589  0.1996
 2505TIP3   OH229005   1.793   5.519   9.603  0.5258  0.1215  0.1263
 2505TIP3    H129006   1.773   5.607   9.572  0.3501 -0.2834 -0.9205
 2505TIP3    H229007   1.722   5.498   9.663  0.0222  0.3043 -0.4010
 2506TIP3   OH229008   5.716   0.672  10.893  0.0962 -0.5180  0.0783
 2506TIP3    H129009   5.693   0.619  10.816  0.4843 -0.7003  0.0860
 2506TIP3    H229010   5.809   0.690  10.882  0.0230 -0.0521  0.2117
 2507TIP3   OH229011   4.971   3.960  10.961  0.0717  0.2483 -0.2684
 2507TIP3    H129012   4.951   3.963  11.055  3.1777  1.9888  0.3912
 2507TIP3    H229013   4.952   3.870  10.936 -0.5061 -0.3341  2.1055
 2508TIP3   OH229014   1.312   2.671  11.119  0.3154  0.2028  0.4275
 2508TIP3    H129015   1.276   2.626  11.042 -0.1376  0.5805  0.4090
 2508TIP3    H229016   1.340   2.756  11.086  0.9917  0.0112  0.4990
 2509TIP3   OH229017   4.112   3.665  12.749 -0.2319  0.0801  0.5088
 2509TIP3    H129018   4.187   3.723  12.740  1.3509 -1.8561  1.0550
 2509TIP3    H229019   4.056   3.707  12.814  1.0140  0.8531  1.0805
 2510TIP3   OH229020   0.851   2.368  10.472  0.1238  0.2176  0.2126
 2510TIP3    H129021   0.844   2.396  10.563  2.5576 -0.6146  0.6716
 2510TIP3    H229022   0.834   2.274  10.474 -1.6721  0.4962 -0.4773
 2511TIP3   OH229023   5.686   3.949  12.869  0.1801 -0.1246  0.3156
 2511TIP3    H129024   5.725   3.905  12.945 -1.3051 -1.3701  0.3818
 2511TIP3    H229025   5.592   3.937  12.880 -0.2331  2.2883 -0.1750
 2512TIP3   OH229026   6.286   3.480  10.218 -0.1072  0.3782 -0.5375
 2512TIP3    H129027   6.317   3.563  10.253 -2.7876  0.9673  0.5796
 2512TIP3    H229028   6.232   3.504  10.142 -1.8098 -0.2292  0.4530
 2513TIP3   OH229029   2.082   1.867  11.698  0.0526 -0.2307 -0.2723
 2513TIP3    H129030   2.014   1.924  11.733  0.9477  1.1548 -0.7445
 2513TIP3    H229031   2.052   1.779  11.719 -1.6222  0.3781 -0.0131
 2514TIP3   OH229032   3.338   5.947  13.614  0.1076 -0.0655 -0.2864
 2514TIP3    H129033   3.374   5.872  13.662  0.6664 -0.4307 -1.2789
 2514TIP3    H229034   3.296   5.908  13.537 -2.0260  0.3859  0.5938
 2515TIP3   OH229035   6.496   3.760  12.607  0.4917  0.4942  0.0855
 2515TIP3    H129036   6.527   3.688  12.662  1.1695  0.5267 -0.2496
 2515TIP3    H229037   6.517   3.732  12.518 -1.2903  0.0913 -0.2233
 2516TIP3   OH229038   4.090   2.480  12.115 -0.1949  0.2967 -0.3339
 2516TIP3    H129039   4.079   2.530  12.195  0.9486 -1.1504  0.7450
 2516TIP3    H229040   4.108   2.546  12.047  0.5872  1.3882  0.9186
 2517TIP3   OH229041   0.457   4.679  10.496 -0.3121 -0.2816 -0.2474
 2517TIP3    H129042   0.425   4.615  10.560 -2.8785  0.0844 -1.1310
 2517TIP3    H229043   0.492   4.625  10.424  1.1743 -0.6770  0.7378
 2518TIP3   OH229044   5.668   6.755  11.422 -0.7969  0.2250 -0.2144
 2518TIP3    H129045   5.597   6.817  11.434 -1.4739 -0.1661 -2.0599
 2518TIP3    H229046   5.624   6.673  11.399  0.2329 -0.0549 -1.2215
 2519TIP3   OH229047   5.569   5.856  11.107  0.4439  0.2346  0.0150
 2519TIP3    H129048   5.532   5.769  11.118  1.1378 -0.0404  0.1910
 2519TIP3    H229049   5.650   5.855  11.158  1.4042  0.3764 -1.4636
 2520TIP3   OH229050   0.654   3.462  10.963 -0.1385 -0.0302  0.1096
 2520TIP3    H129051   0.745   3.451  10.934 -0.8379  0.2858 -2.3223
 2520TIP3    H229052   0.635   3.384  11.015  1.1579 -0.6561 -0.3383
 2521TIP3   OH229053   6.177   6.695  13.134  0.1937 -0.1280 -0.2421
 2521TIP3    H129054   6.145   6.726  13.049 -0.4484  2.8118  1.0098
 2521TIP3    H229055   6.272   6.710  13.131  0.3964 -1.4898 -1.0001
 2522TIP3   OH229056   0.621   6.461  12.531 -0.0315 -0.0296 -0.1601
 2522TIP3    H129057   0.686   6.472  12.600  0.7279  0.9455 -1.0124
 2522TIP3    H229058   0.668   6.481  12.450 -1.0641 -0.5760 -0.9102
 2523TIP3   OH229059   6.464   1.685  10.825  0.2593  0.0424 -0.2915
 2523TIP3    H129060   6.536   1.696  10.763  0.6273  0.0305  0.1295
 2523TIP3    H229061   6.421   1.604  10.799  0.8682 -0.3524 -0.0771
 2524TIP3   OH229062   4.919   2.317  10.597  1.4589  0.0669  0.3737
 2524TIP3    H129063   4.836   2.277  10.569 -0.0353  2.9224  0.5181
 2524TIP3    H229064   4.954   2.357  10.518  1.8319  0.3112  0.6618
 2525TIP3   OH229065   3.390   5.625  14.386 -0.0429  0.4432  0.6903
 2525TIP3    H129066   3.301   5.661  14.383  0.1431  0.8476 -0.1642
 2525TIP3    H229067   3.446   5.699  14.365  0.3167 -0.4141 -1.5163
 2526TIP3   OH229068   7.057   3.295  11.981 -0.5681  1.0138  0.3764
 2526TIP3    H129069   7.008   3.262  12.056  0.1075 -0.1089  0.3409
 2526TIP3    H229070   7.091   3.216  11.939 -2.3989  1.4915 -2.1372
 2527TIP3   OH229071   3.716   2.597  13.298  0.1334 -0.4254  0.4508
 2527TIP3    H129072   3.653   2.644  13.354  0.3927  0.2567  0.1701
 2527TIP3    H229073   3.765   2.665  13.254  0.5598 -0.9652  0.0804
 2528TIP3   OH229074   4.731   1.386  11.371 -0.2028 -0.6119  0.2800
 2528TIP3    H129075   4.693   1.302  11.345  0.1717 -1.2084  1.6718
 2528TIP3    H229076   4.777   1.416  11.292 -1.8788 -0.8151 -0.8126
 2529TIP3   OH229077   4.942   7.042  10.302 -0.4976  0.7821  0.6998
 2529TIP3    H129078   4.885   7.002  10.367 -1.6256  1.1324 -0.0529
 2529TIP3    H229079   4.994   6.969  10.267 -2.4867 -0.0398 -0.6123
 2530TIP3   OH229080   3.221   4.747  10.581  0.3761  0.0224 -0.2850
 2530TIP3    H129081   3.146   4.770  10.526 -0.6071 -0.3698  0.8958
 2530TIP3    H229082   3.227   4.652  10.576  1.6533  0.1443 -1.4798
 2531TIP3   OH229083   1.330   4.700  10.708  0.0067  0.3632  0.0326
 2531TIP3    H129084   1.271   4.659  10.772 -0.1754 -1.7454 -1.4613
 2531TIP3    H229085   1.377   4.766  10.759  0.5290 -1.9049  2.5814
 2532TIP3   OH229086   5.118   5.270  11.711  0.0588 -0.5808  0.3594
 2532TIP3    H129087   5.073   5.312  11.785 -0.3792  4.3448 -2.5210
 2532TIP3    H229088   5.208   5.259  11.741  0.2592  2.7835  1.1698
 2533TIP3   OH229089   5.522   3.123  10.988  0.3117 -0.0372  0.6071
 2533TIP3    H129090   5.547   3.031  10.997  1.4104  0.4799  3.4268
 2533TIP3    H229091   5.428   3.121  10.971  0.3217 -1.6728  0.6201
 2534TIP3   OH229092   6.629   4.239  11.666  0.0242 -0.1258  0.2902
 2534TIP3    H129093   6.699   4.304  11.660  0.0828 -0.2146  0.0051
 2534TIP3    H229094   6.654   4.183  11.739 -0.3130  0.5082  0.9023
 2535TIP3   OH229095   2.988   3.032  11.656  0.3760  0.0228 -0.0932
 2535TIP3    H129096   3.078   3.017  11.626  1.4946  1.6963  2.2732
 2535TIP3    H229097   2.983   2.984  11.739 -1.4816 -1.4572 -1.0293
 2536TIP3   OH229098   6.845   5.686  10.210  0.0402  0.2549  0.4950
 2536TIP3    H129099   6.807   5.755  10.265 -0.0275  0.6310 -0.0177
 2536TIP3    H229100   6.835   5.719  10.121  0.6799 -0.0886  0.2930
 2537TIP3   OH229101   6.742   5.476  13.209  0.5488 -0.7649 -0.0925
 2537TIP3    H129102   6.812   5.521  13.162  0.7821 -0.7565  0.2647
 2537TIP3    H229103   6.751   5.504  13.300  0.3615 -1.1143  0.0349
 2538TIP3   OH229104   5.445   4.795  13.020  0.1611 -0.2344 -0.6229
 2538TIP3    H129105   5.499   4.734  12.969 -0.6240  1.6388 -3.8012
 2538TIP3    H229106   5.383   4.832  12.957 -1.9921  0.9215  2.0581
 2539TIP3   OH229107   4.664   2.244  10.489 -0.8458 -0.0978  0.9523
 2539TIP3    H129108   4.627   2.237  10.578 -0.3679  0.6890  1.2158
 2539TIP3    H229109   4.598   2.293  10.440 -1.2477 -0.7910  0.7845
 2540TIP3   OH229110   0.673   2.715   9.323  0.1357  0.6487  0.0404
 2540TIP3    H129111   0.758   2.741   9.359  0.4324 -2.0287  1.3944
 2540TIP3    H229112   0.609   2.751   9.385  0.3359  1.6155 -0.3114
 2541TIP3   OH229113   5.928   3.272  10.339 -0.3564  0.0050 -0.5047
 2541TIP3    H129114   6.021   3.266  10.317 -0.4958  0.5609 -1.2586
 2541TIP3    H229115   5.883   3.249  10.258 -0.8775  0.3042 -0.3000
 2542TIP3   OH229116   5.917   4.336  11.707  0.0128 -0.2538 -0.6614
 2542TIP3    H129117   5.983   4.284  11.660 -0.1100  0.6717 -1.8576
 2542TIP3    H229118   5.956   4.422  11.717  0.2375 -0.5673  1.3915
 2543TIP3   OH229119   5.141   3.530  11.671  0.1931  0.0949 -0.0294
 2543TIP3    H129120   5.173   3.597  11.611 -0.8632  0.9775  0.3868
 2543TIP3    H229121   5.137   3.450  11.617 -2.8147  1.3285 -1.7909
 2544TIP3   OH229122   6.574   4.481  12.633  0.8776  0.3510  0.3971
 2544TIP3    H129123   6.533   4.443  12.711  1.1483 -2.2756 -0.6723
 2544TIP3    H229124   6.668   4.470  12.648  0.9788  1.0976  0.3147
 2545TIP3   OH229125   6.687   1.105  10.583  0.0612  0.1603  0.4545
 2545TIP3    H129126   6.704   1.046  10.510  2.0483  0.1692  0.8823
 2545TIP3    H229127   6.709   1.053  10.661 -0.1747  0.7761  0.9338
 2546TIP3   OH229128   5.275   2.492  10.318  0.7302  0.9528  0.2173
 2546TIP3    H129129   5.353   2.547  10.331  0.8155  1.0300 -0.6337
 2546TIP3    H229130   5.308   2.402  10.321  0.9302  0.9952 -0.6382
 2547TIP3   OH229131   0.126   3.391  10.455 -0.2006 -0.7842  0.1935
 2547TIP3    H129132   0.161   3.462  10.400  0.0217 -0.7582  0.3688
 2547TIP3    H229133   0.128   3.314  10.398 -0.3451 -0.6715  0.0342
 2548TIP3   OH229134   0.557   1.532  13.210  0.3133 -0.2347 -0.3802
 2548TIP3    H129135   0.604   1.482  13.143  0.5482 -2.1288  1.1494
 2548TIP3    H229136   0.627   1.569  13.265  0.0998 -2.3138  1.3676
 2549TIP3   OH229137   7.172   6.831  12.131 -0.2775  0.4491  0.1121
 2549TIP3    H129138   7.209   6.743  12.119  1.0159  1.0048 -0.0373
 2549TIP3    H229139   7.089   6.815  12.176  0.0021 -0.8470  0.2103
 2550TIP3   OH229140   4.596   6.760  12.819 -0.2027 -0.1018 -0.1623
 2550TIP3    H129141   4.501   6.764  12.814 -0.1471  0.0461 -1.3457
 2550TIP3    H229142   4.624   6.851  12.820 -0.0504 -0.1439 -0.4576
 2551TIP3   OH229143   4.791   7.146   0.506  0.3166 -0.1215  0.3670
 2551TIP3    H129144   4.783   7.160   0.601  0.9862  0.4144  0.3474
 2551TIP3    H229145   4.885   7.144   0.490  0.2077 -0.5959 -0.2392
 2552TIP3   OH229146   0.569   5.358  10.201  0.0461  0.5503  0.4537
 2552TIP3    H129147   0.655   5.364  10.160 -0.6203 -0.8684 -1.2137
 2552TIP3    H229148   0.508   5.352  10.127 -1.3923  0.4166  1.6342
 2553TIP3   OH229149   1.230   5.650  13.949  0.0704 -0.1885 -0.4955
 2553TIP3    H129150   1.258   5.730  13.994  0.5899 -0.8878  0.4473
 2553TIP3    H229151   1.274   5.654  13.864 -2.7216  2.2690 -1.9090
 2554TIP3   OH229152   4.337   5.045  11.538 -0.2904 -0.7810 -0.2684
 2554TIP3    H129153   4.354   4.951  11.536 -1.7480 -1.1097  1.3145
 2554TIP3    H229154   4.263   5.057  11.478 -1.2788 -0.9311  0.8997
 2555TIP3   OH229155   5.734   0.117   9.517  0.1792 -0.3804  0.3426
 2555TIP3    H129156   5.764   0.207   9.503 -0.4949  0.1688  2.1935
 2555TIP3    H229157   5.640   0.126   9.534 -0.0131 -1.5123 -0.0840
 2556TIP3   OH229158   0.785   2.561  13.776 -0.9571 -0.2808 -0.6803
 2556TIP3    H129159   0.759   2.499  13.844  0.8966 -0.1504  0.1735
 2556TIP3    H229160   0.776   2.647  13.817  0.7542 -0.2314 -0.3718
 2557TIP3   OH229161   5.794   1.793  10.151 -0.3065 -0.5102  0.7893
 2557TIP3    H129162   5.878   1.834  10.129 -0.9262 -0.1502 -0.9774
 2557TIP3    H229163   5.780   1.816  10.243  1.5633 -0.6431  1.1290
 2558TIP3   OH229164   0.874   6.320  13.202 -0.1726 -0.2739 -0.1665
 2558TIP3    H129165   0.946   6.362  13.156 -1.1530  1.0306 -0.5327
 2558TIP3    H229166   0.848   6.383  13.269 -0.8838 -0.7984  0.0575
 2559TIP3   OH229167   6.799   3.609  11.259 -0.3296 -0.2522 -0.3682
 2559TIP3    H129168   6.833   3.600  11.170 -2.1632 -2.8773 -0.8562
 2559TIP3    H229169   6.725   3.669  11.251 -1.1025 -1.2652 -0.7777
 2560TIP3   OH229170   7.102   3.020   9.571  0.5024  0.1502 -0.1705
 2560TIP3    H129171   7.007   3.030   9.578  0.5831  0.5241  0.4161
 2560TIP3    H229172   7.138   3.083   9.634  1.1481  0.3082 -0.6891
 2561TIP3   OH229173   3.152   3.043  12.367 -0.3894  0.0071  0.8969
 2561TIP3    H129174   3.082   3.021  12.428 -0.4660 -1.7929  0.1922
 2561TIP3    H229175   3.132   2.992  12.288  2.4583 -1.6359  1.1801
 2562TIP3   OH229176   2.702   4.713  10.579  0.7605  0.6159  0.4904
 2562TIP3    H129177   2.658   4.641  10.533  1.4293  0.3995  0.1788
 2562TIP3    H229178   2.630   4.764  10.618  0.1135  1.3041 -1.5194
 2563TIP3   OH229179   0.890   3.977   9.795  0.2253 -0.3272  0.0049
 2563TIP3    H129180   0.838   4.054   9.772 -0.1972 -0.6210 -0.0218
 2563TIP3    H229181   0.970   3.986   9.743  0.3454  0.2974  0.2967
 2564TIP3   OH229182   0.487   5.639  10.259 -0.1841 -0.5233 -0.1709
 2564TIP3    H129183   0.520   5.637  10.170 -0.2830  0.3242 -0.2262
 2564TIP3    H229184   0.502   5.550  10.292 -1.5667 -1.2632 -1.5360
 2565TIP3   OH229185   2.219   4.656  12.091  0.3479 -0.2661 -0.2260
 2565TIP3    H129186   2.159   4.582  12.103 -0.4261  0.4343  0.2509
 2565TIP3    H229187   2.258   4.641  12.005 -0.2133 -0.9511 -0.3659
 2566TIP3   OH229188   6.529   3.375   9.693 -0.5801 -0.0929 -0.5434
 2566TIP3    H129189   6.490   3.389   9.779  0.2063 -0.9604 -0.0375
 2566TIP3    H229190   6.606   3.432   9.692 -0.8647  0.2874 -0.8631
 2567TIP3   OH229191   1.033   5.123  10.991  0.9742  0.4216  0.0978
 2567TIP3    H129192   1.074   5.206  11.014  1.7687  0.0573  0.0397
 2567TIP3    H229193   1.105   5.070  10.957  0.1381  0.3788 -1.6664
 2568TIP3   OH229194   1.032   6.471  11.997  0.3664 -0.2662  0.3458
 2568TIP3    H129195   0.945   6.512  11.990  0.0359 -0.9665  0.3020
 2568TIP3    H229196   1.022   6.386  11.954  1.1359 -0.2654  0.1585
 2569TIP3   OH229197   0.846   0.851  11.229  0.6268 -0.1382  0.0009
 2569TIP3    H129198   0.894   0.931  11.206  0.4064 -0.0961 -0.3344
 2569TIP3    H229199   0.775   0.848  11.165  0.5366 -0.5153  0.1186
 2570TIP3   OH229200   5.706   5.977  11.877 -0.3382  0.2253  0.2656
 2570TIP3    H129201   5.677   5.899  11.829 -1.6196  0.7072  0.2361
 2570TIP3    H229202   5.749   6.032  11.811 -0.4822  0.0706  0.0430
 2571TIP3   OH229203   1.471   7.039  10.630  0.6933 -0.0239  0.0483
 2571TIP3    H129204   1.520   7.094  10.692  1.7622  1.2856 -1.9149
 2571TIP3    H229205   1.511   7.057  10.545 -0.7466 -1.8100 -1.0473
 2572TIP3   OH229206   6.837   3.743  10.287 -0.3258 -0.8685 -0.6199
 2572TIP3    H129207   6.824   3.822  10.339 -0.0460 -0.4921 -1.1112
 2572TIP3    H229208   6.920   3.707  10.319  0.5512  0.1056 -1.7220
 2573TIP3   OH229209   6.929   1.752  11.133  0.3724  0.0083  0.1574
 2573TIP3    H129210   6.854   1.765  11.192  0.8352 -0.4466  0.8568
 2573TIP3    H229211   6.967   1.668  11.160  0.8692  0.0202 -0.4829
 2574TIP3   OH229212   0.143   6.894  14.253  0.2437 -0.2457  0.5673
 2574TIP3    H129213   0.200   6.845  14.312 -1.0299 -0.3432  1.7478
 2574TIP3    H229214   0.076   6.933  14.310 -2.5447 -2.4392 -1.0608
 2575TIP3   OH229215   4.258   0.375  11.759 -0.0445  0.1962 -0.2102
 2575TIP3    H129216   4.216   0.453  11.720  2.2839  0.7042 -1.8480
 2575TIP3    H229217   4.225   0.302  11.706 -0.4512  0.3392 -0.1598
 2576TIP3   OH229218   0.890   0.428   9.725 -0.0946  0.4400 -0.2513
 2576TIP3    H129219   0.857   0.462   9.641  1.0205 -0.4951 -1.0907
 2576TIP3    H229220   0.978   0.465   9.732  0.9411 -1.7877 -0.9322
 2577TIP3   OH229221   0.518   3.764  10.525 -0.0119 -0.0757 -0.3528
 2577TIP3    H129222   0.432   3.737  10.556 -0.7915  2.6493 -0.0068
 2577TIP3    H229223   0.519   3.740  10.432 -0.8822 -0.6917 -0.2083
 2578TIP3   OH229224   3.281   3.906   9.628 -0.2034  0.2279  0.4799
 2578TIP3    H129225   3.240   3.978   9.580  0.0480 -0.9636 -1.5709
 2578TIP3    H229226   3.220   3.833   9.621  2.1016 -1.5684 -2.6069
 2579TIP3   OH229227   0.545   0.760  13.632 -0.1625  0.3075  0.2022
 2579TIP3    H129228   0.596   0.713  13.567 -0.0060  0.5583  0.1453
 2579TIP3    H229229   0.610   0.800  13.690 -0.3058 -0.9030  1.2161
 2580TIP3   OH229230   6.285   4.795  10.155 -0.8454  0.1394  0.0776
 2580TIP3    H129231   6.224   4.775  10.226 -1.3106  0.0992 -0.3259
 2580TIP3    H229232   6.345   4.720  10.153  0.0788  0.8303  1.3828
 2581TIP3   OH229233   4.551   1.772  13.265 -0.0827 -0.7147 -0.1664
 2581TIP3    H129234   4.647   1.773  13.269 -0.0345  0.7258 -1.0459
 2581TIP3    H229235   4.532   1.784  13.172 -1.1203  2.5452  0.4148
 2582TIP3   OH229236   0.222   2.490   0.348  0.2084 -0.1532 -0.0881
 2582TIP3    H129237   0.219   2.403   0.306  0.5839 -0.0567 -0.3152
 2582TIP3    H229238   0.311   2.498   0.381  0.3323  0.3714 -0.5468
 2583TIP3   OH229239   0.788   6.483  12.778  0.3731 -0.1012 -0.3814
 2583TIP3    H129240   0.814   6.575  12.778 -0.3788  0.1110 -0.2784
 2583TIP3    H229241   0.865   6.437  12.746  0.4843  0.6401 -1.2166
 2584TIP3   OH229242   5.370   7.086  10.142 -0.1527  0.0898  0.0533
 2584TIP3    H129243   5.405   7.038  10.067  0.3875  0.5487  0.0052
 2584TIP3    H229244   5.334   7.018  10.199 -1.4980 -0.1781 -1.0952
 2585TIP3   OH229245   0.300   0.488  13.024  0.4975  0.4991 -0.3751
 2585TIP3    H129246   0.311   0.582  13.015  0.7603  0.4742 -0.3167
 2585TIP3    H229247   0.216   0.469  12.981 -0.2670  0.9646  0.9091
 2586TIP3   OH229248   6.243   5.106  10.059 -0.3022 -0.2581  0.0741
 2586TIP3    H129249   6.251   5.193  10.020  0.9760 -0.3715  0.0733
 2586TIP3    H229250   6.236   5.121  10.153  2.5205 -0.2717  0.3099
 2587TIP3   OH229251   4.078   3.282  10.723  0.3547  0.1871 -0.2769
 2587TIP3    H129252   4.001   3.329  10.694 -0.0542  0.4392  1.1854
 2587TIP3    H229253   4.048   3.230  10.798  0.8610 -2.1447 -1.6216
 2588TIP3   OH229254   1.198   5.754  10.492 -0.1618  0.3072  0.0961
 2588TIP3    H129255   1.145   5.828  10.462  0.4046  0.4654 -0.5361
 2588TIP3    H229256   1.252   5.789  10.563  0.8640  0.7875 -0.8961
 2589TIP3   OH229257   1.409   5.810  12.610  0.6594  0.1014 -0.4766
 2589TIP3    H129258   1.367   5.730  12.578 -1.2975  0.4994  0.9816
 2589TIP3    H229259   1.445   5.785  12.696  3.0811 -0.1014 -1.4893
 2590TIP3   OH229260   3.221   5.147  11.846 -0.1973 -0.0685 -0.4450
 2590TIP3    H129261   3.299   5.092  11.854  1.3230  1.9672 -0.6855
 2590TIP3    H229262   3.231   5.190  11.761 -0.8463  1.2509  0.1225
 2591TIP3   OH229263   1.327   0.494  10.571  0.3389  0.8900 -0.1666
 2591TIP3    H129264   1.373   0.575  10.594 -0.6596  1.6398 -0.7832
 2591TIP3    H229265   1.246   0.498  10.620 -0.1402  0.7268 -0.9326
 2592TIP3   OH229266   0.327   3.109  10.797  0.1575  0.3692  0.1277
 2592TIP3    H129267   0.304   3.164  10.722  1.7925  2.1004  0.8465
 2592TIP3    H229268   0.415   3.077  10.777  1.1636  1.9246  1.8444
 2593TIP3   OH229269   6.546   6.318  10.986  0.2085 -0.5840  0.2388
 2593TIP3    H129270   6.556   6.353  11.075 -1.8122  0.2073  0.1802
 2593TIP3    H229271   6.593   6.380  10.931  4.0858 -2.6685  0.9947
 2594TIP3   OH229272   0.848   6.946  11.308  0.0249 -0.3149  0.7032
 2594TIP3    H129273   0.910   6.999  11.358 -0.7476 -0.7578  2.1478
 2594TIP3    H229274   0.857   6.858  11.344  0.1949 -0.8639 -0.6429
 2595TIP3   OH229275   4.132   5.705  10.696 -0.0961  0.0496  0.0856
 2595TIP3    H129276   4.058   5.650  10.722  0.3545 -0.9753 -0.7617
 2595TIP3    H229277   4.199   5.687  10.762  0.2319 -0.8117 -0.4791
 2596TIP3   OH229278   1.063   1.066  11.090  0.1673  0.1848  0.3370
 2596TIP3    H129279   1.143   1.111  11.063  0.9896 -1.6481 -0.4014
 2596TIP3    H229280   0.995   1.101  11.033  1.1432 -0.7959 -1.4943
 2597TIP3   OH229281   2.971   3.480  10.730 -0.2222  0.1447  0.1856
 2597TIP3    H129282   2.901   3.545  10.741  0.5111  1.2468 -1.5894
 2597TIP3    H229283   3.029   3.494  10.805 -1.2586  0.0130  1.0277
 2598TIP3   OH229284   1.706   5.005  12.894 -0.0347 -0.1599  0.2113
 2598TIP3    H129285   1.749   5.076  12.847  0.9869 -0.6740  0.3516
 2598TIP3    H229286   1.690   4.938  12.826  0.0770 -0.2849  0.3088
 2599TIP3   OH229287   2.993   0.609  10.571  0.4940  0.3243  0.1525
 2599TIP3    H129288   2.913   0.653  10.599  0.7344 -0.8507  2.8892
 2599TIP3    H229289   2.964   0.529  10.530  0.2423 -0.5088  1.9003
 2600TIP3   OH229290   0.830   6.301  11.454  0.1033  0.8723  0.2435
 2600TIP3    H129291   0.734   6.296  11.458  0.1535 -0.1361  0.1419
 2600TIP3    H229292   0.856   6.225  11.402  1.0747  0.1648  1.7376
 2601TIP3   OH229293   1.808   7.098  10.066  0.5269 -0.5733  0.4962
 2601TIP3    H129294   1.847   7.055  10.141  1.5193 -1.3925 -0.4762
 2601TIP3    H229295   1.816   7.035   9.994  1.3363  0.9262 -0.7662
 2602TIP3   OH229296   6.870   1.015  10.035  0.0736 -0.2883  0.0279
 2602TIP3    H129297   6.964   1.032  10.035  0.0670 -0.2104  1.6824
 2602TIP3    H229298   6.853   0.977   9.949  1.4421  0.6376 -0.6645
 2603TIP3   OH229299   1.268   2.508  11.355 -0.0259 -0.3088  0.7181
 2603TIP3    H129300   1.268   2.582  11.295 -0.8962 -0.2927  0.7376
 2603TIP3    H229301   1.328   2.534  11.425  1.7448 -0.7242 -0.6053
 2604TIP3   OH229302   2.480   2.340  10.137 -0.2926  0.0129  0.5974
 2604TIP3    H129303   2.401   2.381  10.104 -0.3976  0.6024  1.5307
 2604TIP3    H229304   2.466   2.246  10.128 -0.5811  0.1503 -0.3859
 2605TIP3   OH229305   2.162   6.505   9.626  0.3091 -0.2452  0.4818
 2605TIP3    H129306   2.131   6.466   9.544 -0.1977  3.3568 -1.1463
 2605TIP3    H229307   2.119   6.454   9.695 -4.3466  0.5935 -1.6075
 2606TIP3   OH229308   0.120   2.939  10.790 -0.1184 -0.1870 -0.0540
 2606TIP3    H129309   0.194   2.989  10.825  0.4961 -0.3156 -1.1566
 2606TIP3    H229310   0.151   2.905  10.706 -1.6929  0.4087 -0.8943
 2607TIP3   OH229311   2.493   4.499  11.845 -0.1091 -0.0877 -0.2321
 2607TIP3    H129312   2.458   4.575  11.799  0.6274  0.1164 -0.4593
 2607TIP3    H229313   2.569   4.532  11.893  0.2085 -0.6740 -0.3222
 2608TIP3   OH229314   1.068   0.551  10.089  0.0410 -0.1250  0.5622
 2608TIP3    H129315   1.153   0.551  10.045  0.3007 -0.6044  1.0565
 2608TIP3    H229316   1.065   0.636  10.134 -0.2714  0.4108 -0.4561
 2609TIP3   OH229317   4.894   0.304  11.650  0.0104  0.1083 -0.1935
 2609TIP3    H129318   4.803   0.287  11.675  0.3184  0.2690  1.0343
 2609TIP3    H229319   4.935   0.340  11.728  0.5781  2.1343 -1.3998
 2610TIP3   OH229320   0.244   5.610   9.666 -0.0905 -0.2418  0.1892
 2610TIP3    H129321   0.338   5.595   9.652  0.9502  3.3123  2.7774
 2610TIP3    H229322   0.232   5.703   9.651 -2.2707  0.2481  4.2643
 2611TIP3   OH229323   4.610   1.130  13.220  0.0563  0.2919 -1.0871
 2611TIP3    H129324   4.574   1.216  13.242  0.6581 -0.3384  2.5962
 2611TIP3    H229325   4.674   1.148  13.150 -0.0440  2.7814 -0.5791
 2612TIP3   OH229326   5.097   6.768  10.505  0.0228  0.1610 -0.6382
 2612TIP3    H129327   5.026   6.707  10.527 -1.2486  1.7551 -0.2416
 2612TIP3    H229328   5.173   6.712  10.489 -1.4882 -1.6280 -1.7271
 2613TIP3   OH229329   5.328   2.536  11.826  0.3092  0.1099 -0.1881
 2613TIP3    H129330   5.234   2.536  11.843  0.4510 -1.8438  0.6820
 2613TIP3    H229331   5.367   2.550  11.913  0.8213  1.9530 -0.6898
 2614TIP3   OH229332   4.625   5.940  14.045 -0.0656 -0.4576  0.0807
 2614TIP3    H129333   4.564   6.013  14.036  1.7329  0.9773 -0.9014
 2614TIP3    H229334   4.606   5.884  13.970 -0.4057 -0.1909 -0.0316
 2615TIP3   OH229335   0.513   0.999  12.812  0.1693  0.9284 -0.3325
 2615TIP3    H129336   0.443   1.021  12.872 -1.0381 -0.5778 -1.1570
 2615TIP3    H229337   0.490   1.042  12.730 -0.1313 -0.0768 -0.7856
 2616TIP3   OH229338   5.020   6.922  10.744  0.8185  0.4673  0.0556
 2616TIP3    H129339   4.938   6.960  10.712  0.4642  0.0950  0.5247
 2616TIP3    H229340   5.052   6.871  10.669  0.2236 -0.0243  0.1307
 2617TIP3   OH229341   1.977   6.993  11.581 -0.0004 -0.1125  0.0818
 2617TIP3    H129342   1.943   6.907  11.556  0.0206  0.2679 -1.3064
 2617TIP3    H229343   2.071   6.979  11.591 -0.1307 -0.4688  0.8459
 2618TIP3   OH229344   3.931   3.295   0.955  0.4197 -0.6194  0.3086
 2618TIP3    H129345   3.910   3.209   0.920  2.8017 -1.1577  0.1162
 2618TIP3    H229346   3.977   3.340   0.884  2.7831 -0.7101  1.7158
 2619TIP3   OH229347   1.684   4.904  10.740 -0.3317 -0.4783  0.0100
 2619TIP3    H129348   1.693   4.997  10.719  0.8364 -0.5123  0.3603
 2619TIP3    H229349   1.647   4.865  10.660 -3.1523  0.6769  0.6843
 2620TIP3   OH229350   1.500   3.635  11.920  0.3138  0.4610 -0.2509
 2620TIP3    H129351   1.429   3.653  11.981  0.9093 -0.7867  0.8422
 2620TIP3    H229352   1.560   3.710  11.929 -2.1035  2.8341 -3.1046
 2621TIP3   OH229353   6.434   1.885  14.233  0.5299 -0.3832  0.8461
 2621TIP3    H129354   6.359   1.830  14.259  1.2253 -1.0792  1.4088
 2621TIP3    H229355   6.461   1.850  14.148 -1.8408  1.9914 -0.9655
 2622TIP3   OH229356   1.239   1.740  11.818  0.6536 -0.4783 -0.2461
 2622TIP3    H129357   1.183   1.809  11.783 -1.7238 -1.0330  2.2638
 2622TIP3    H229358   1.225   1.666  11.758 -0.3845 -0.2365 -0.3074
 2623TIP3   OH229359   3.512   0.415  12.749 -0.1051  0.0743 -0.3261
 2623TIP3    H129360   3.499   0.494  12.802 -1.4281 -0.0124 -0.4894
 2623TIP3    H229361   3.603   0.391  12.763 -0.3242  0.3045  1.5773
 2624TIP3   OH229362   2.245   1.747  12.534  0.5981  0.0527  0.4768
 2624TIP3    H129363   2.337   1.768  12.551  0.3906  1.3029  0.0748
 2624TIP3    H229364   2.224   1.678  12.597  0.9819  1.8053  2.5816
 2625TIP3   OH229365   3.487   2.661  11.565 -0.1436 -0.5457  0.0550
 2625TIP3    H129366   3.504   2.581  11.615 -0.6391 -1.9740 -2.0257
 2625TIP3    H229367   3.572   2.685  11.529 -0.0472 -0.2838  0.4542
 2626TIP3   OH229368   5.813   5.114  11.098  0.6114  0.0815 -0.2143
 2626TIP3    H129369   5.792   5.160  11.179  1.7907  0.9877 -0.4013
 2626TIP3    H229370   5.799   5.021  11.118 -1.1175  0.4473  0.3777
 2627TIP3   OH229371   5.019   3.152  13.365 -0.4747  0.0356 -0.2823
 2627TIP3    H129372   4.924   3.144  13.375 -0.6677  1.7255 -0.5639
 2627TIP3    H229373   5.031   3.232  13.314  1.1186  0.0178  0.0275
 2628TIP3   OH229374   6.432   4.957  14.582 -0.3785  0.5743 -0.2365
 2628TIP3    H129375   6.437   4.990  14.672  0.3613  1.8923 -0.7445
 2628TIP3    H229376   6.518   4.978  14.544 -0.2413 -1.0751 -0.8816
 2629TIP3   OH229377   5.254   4.068  11.804  0.4935  1.0663 -0.6666
 2629TIP3    H129378   5.228   3.978  11.821 -1.7965  1.6415 -0.9946
 2629TIP3    H229379   5.232   4.115  11.884  1.2923  1.4315 -0.6522
 2630TIP3   OH229380   5.106   6.315  10.329  0.2034  0.4390  0.0488
 2630TIP3    H129381   5.116   6.222  10.349  1.5395  0.2849 -1.3210
 2630TIP3    H229382   5.011   6.329  10.331  0.0339 -0.7088  1.2747
 2631TIP3   OH229383   4.168   7.027  15.167  0.4806  0.7121 -0.5030
 2631TIP3    H129384   4.140   7.090  15.234  1.0534  1.5275 -1.0200
 2631TIP3    H229385   4.093   7.020  15.108 -0.1630 -0.2923  0.4233
 2632TIP3   OH229386   6.982   4.055  10.929  0.3058 -0.3260 -0.2267
 2632TIP3    H129387   7.067   4.096  10.947  0.5249  0.1947 -2.3383
 2632TIP3    H229388   7.004   3.971  10.889 -0.1799 -1.2381  1.3736
 2633TIP3   OH229389   1.849   6.212  11.637  0.1062  0.2451  0.2607
 2633TIP3    H129390   1.814   6.156  11.707  0.4934 -1.3551 -0.8090
 2633TIP3    H229391   1.912   6.157  11.592  0.9860  1.7840 -0.4003
 2634TIP3   OH229392   1.736   6.343  10.422  0.7490  0.2374 -0.5276
 2634TIP3    H129393   1.702   6.307  10.340  1.9196  0.3630 -1.0802
 2634TIP3    H229394   1.791   6.273  10.457  0.3569  0.2351  0.0840
 2635TIP3   OH229395   7.050   4.409  11.158  0.1617  0.1724  0.0347
 2635TIP3    H129396   7.117   4.346  11.133  1.3557  1.5023 -0.2073
 2635TIP3    H229397   6.967   4.363  11.144  1.0153 -2.3716  2.7180
 2636TIP3   OH229398   3.249   0.077  10.808  0.2545  0.5615 -0.4058
 2636TIP3    H129399   3.321   0.043  10.756  1.5528  0.6070  1.2963
 2636TIP3    H229400   3.292   0.131  10.875 -1.4147  1.2182  0.1613
 2637TIP3   OH229401   1.537   6.254   9.799 -0.3766  0.2148 -0.0669
 2637TIP3    H129402   1.511   6.342   9.825  0.8539  0.6002 -0.1639
 2637TIP3    H229403   1.632   6.253   9.807 -0.3973 -1.1672  0.1380
 2638TIP3   OH229404   5.142   5.960  12.289  0.4714  0.0897  0.3884
 2638TIP3    H129405   5.128   6.035  12.231  1.9089 -1.0880 -1.5039
 2638TIP3    H229406   5.055   5.921  12.299  0.1426  0.5284 -0.6798
 2639TIP3   OH229407   4.037   6.973  10.427  0.2331  0.2519  0.0074
 2639TIP3    H129408   4.052   7.066  10.412 -2.7871  0.9307  0.8455
 2639TIP3    H229409   4.105   6.948  10.490  2.1943  1.4296 -1.6002
 2640TIP3   OH229410   5.847   5.687  15.077 -0.0219 -0.4275 -0.8603
 2640TIP3    H129411   5.834   5.595  15.100 -1.3105  0.0555  0.4369
 2640TIP3    H229412   5.832   5.691  14.983 -3.0529 -1.0286 -0.4460
 2641TIP3   OH229413   2.931   6.796   9.950 -0.1359  0.0159 -0.0956
 2641TIP3    H129414   2.928   6.836  10.037 -0.5980  1.2854 -0.6964
 2641TIP3    H229415   3.009   6.740   9.953  0.9107  1.4805  0.5162
 2642TIP3   OH229416   0.619   3.311  13.127  0.6012 -0.6082  0.5028
 2642TIP3    H129417   0.632   3.400  13.159  2.9317 -0.8599  0.3591
 2642TIP3    H229418   0.707   3.278  13.111 -0.3003 -1.9871 -2.0846
 2643TIP3   OH229419   3.130   5.784  12.425  0.4190  0.2159 -0.1260
 2643TIP3    H129420   3.201   5.848  12.428 -0.5584  1.2397  2.6642
 2643TIP3    H229421   3.150   5.723  12.496 -1.8309  0.9419  1.1853
 2644TIP3   OH229422   4.491   7.167  13.078  0.4766 -0.1693  0.0013
 2644TIP3    H129423   4.466   7.214  13.158 -2.5641  0.4821 -1.2735
 2644TIP3    H229424   4.548   7.229  13.031 -0.7696  0.9195 -0.0861
 2645TIP3   OH229425   1.472   3.952   9.941 -0.4595 -0.1482  0.4049
 2645TIP3    H129426   1.561   3.975   9.967  0.1306  0.6500 -2.1462
 2645TIP3    H229427   1.476   3.858   9.922 -1.0544 -0.8891  3.6257
 2646TIP3   OH229428   1.743   1.041  11.970  0.1346  0.0854 -0.3414
 2646TIP3    H129429   1.801   0.965  11.971 -1.5988 -1.2853  3.2067
 2646TIP3    H229430   1.669   1.014  11.915 -2.0045 -2.1442  3.3953
 2647TIP3   OH229431   3.975   6.288  12.961  0.0177  0.4069  0.2102
 2647TIP3    H129432   3.967   6.226  13.034  0.6030 -0.8936 -0.8217
 2647TIP3    H229433   4.060   6.270  12.923  0.1447  1.7852 -0.1837
 2648TIP3   OH229434   2.396   5.767  10.107  0.1709 -0.1625  0.2571
 2648TIP3    H129435   2.443   5.840  10.148 -2.4238  1.1228  1.0524
 2648TIP3    H229436   2.364   5.803  10.024 -0.4238 -0.6417  0.2779
 2649TIP3   OH229437   7.085   2.875  11.542  1.0095 -0.2554  0.1552
 2649TIP3    H129438   7.170   2.905  11.576  1.0337  0.7294 -0.7296
 2649TIP3    H229439   7.051   2.951  11.494  0.2803 -1.1253 -0.7093
 2650TIP3   OH229440   1.551   0.737   9.983  0.0244  0.6231 -0.3070
 2650TIP3    H129441   1.610   0.713   9.912 -0.1215 -1.3404  0.2026
 2650TIP3    H229442   1.571   0.675  10.053 -3.4669 -0.9461 -0.5870
 2651TIP3   OH229443   5.081   7.198  10.119  0.3757 -0.0940  0.0001
 2651TIP3    H129444   5.049   7.116  10.158 -0.8206  0.4915  0.2692
 2651TIP3    H229445   5.023   7.265  10.153  1.9441  1.0161  0.5168
 2652TIP3   OH229446   3.522   4.071  10.778  0.1190  0.0848 -0.2790
 2652TIP3    H129447   3.615   4.095  10.774  0.0094  0.1960 -4.3077
 2652TIP3    H229448   3.479   4.132  10.718 -2.3061 -1.1373  0.1595
 2653TIP3   OH229449   5.072   1.645   0.170 -0.7548  0.3663  0.4728
 2653TIP3    H129450   5.080   1.604   0.256 -0.5486  1.0200  0.7729
 2653TIP3    H229451   5.072   1.573   0.108 -0.1221 -0.0690  0.9759
 2654TIP3   OH229452   6.784   0.276  11.261  0.3147 -0.1774 -0.0760
 2654TIP3    H129453   6.705   0.290  11.208 -0.1743 -1.1409  0.3881
 2654TIP3    H229454   6.817   0.191  11.233  0.6881 -0.1790  0.3610
 2655TIP3   OH229455   6.486   7.021  11.607  0.4812  0.1971  0.3458
 2655TIP3    H129456   6.395   7.051  11.605  0.2007 -0.6631 -1.5355
 2655TIP3    H229457   6.532   7.079  11.546  1.1580  0.4983  1.1342
 2656TIP3   OH229458   2.427   5.522  10.349 -0.1208  0.0056 -0.4415
 2656TIP3    H129459   2.510   5.550  10.310  0.3188  0.0895  0.5198
 2656TIP3    H229460   2.435   5.548  10.441 -0.4303 -1.7215  0.0787
 2657TIP3   OH229461   1.492   0.328  12.679 -0.4249 -0.1148 -0.1563
 2657TIP3    H129462   1.516   0.397  12.740 -0.5652 -0.4594  0.2932
 2657TIP3    H229463   1.536   0.250  12.712 -0.6429 -0.3418 -0.3952
 2658TIP3   OH229464   1.202   6.204  14.805 -0.0845 -0.1553  0.3283
 2658TIP3    H129465   1.169   6.140  14.743 -0.8858 -1.0166  1.6310
 2658TIP3    H229466   1.143   6.199  14.879  1.6773 -0.1624  1.7709
 2659TIP3   OH229467   6.664   6.055  11.917  0.3894  0.0222  0.4275
 2659TIP3    H129468   6.671   5.971  11.963  0.9325 -1.0718 -1.6058
 2659TIP3    H229469   6.577   6.054  11.878  0.2610  0.5812  0.6946
 2660TIP3   OH229470   1.954   0.284  12.758 -0.0310 -0.0464 -0.0642
 2660TIP3    H129471   1.981   0.303  12.848  0.7018  0.2465 -0.3385
 2660TIP3    H229472   1.914   0.365  12.727 -0.6088 -0.2590  0.1078
 2661TIP3   OH229473   3.001   5.528  12.303 -0.0392 -0.0684 -0.2583
 2661TIP3    H129474   2.951   5.464  12.253 -0.4948 -0.4603  0.6792
 2661TIP3    H229475   3.031   5.480  12.380 -0.2795  0.8054  0.3947
 2662TIP3   OH229476   6.473   3.183  14.618 -0.6989  0.4358 -0.0706
 2662TIP3    H129477   6.542   3.226  14.668 -3.5020  4.5271  0.5225
 2662TIP3    H229478   6.416   3.144  14.684  0.7654 -2.6230 -0.5398
 2663TIP3   OH229479   6.620   5.757  12.335  0.0461  0.1234  0.3034
 2663TIP3    H129480   6.550   5.702  12.301 -0.0547 -0.1278  0.9013
 2663TIP3    H229481   6.610   5.752  12.431  0.8797  0.0834  0.3950
 2664TIP3   OH229482   5.802   2.821  11.326 -0.2422 -0.3273 -0.0121
 2664TIP3    H129483   5.770   2.776  11.248 -0.6296  0.5220 -0.3571
 2664TIP3    H229484   5.831   2.751  11.385 -1.1220 -1.0336 -0.4078
 2665TIP3   OH229485   0.622   5.611  11.513  0.5525  0.4167  0.1105
 2665TIP3    H129486   0.628   5.516  11.508 -3.8349  0.0566  0.2546
 2665TIP3    H229487   0.668   5.634  11.594 -0.6489 -1.8399  1.4701
 2666TIP3   OH229488   0.434   6.601   9.650  0.2435  1.1283  0.5896
 2666TIP3    H129489   0.465   6.551   9.726 -1.1227 -0.8835 -0.1397
 2666TIP3    H229490   0.514   6.622   9.602  0.8274 -0.8760  0.6154
 2667TIP3   OH229491   0.258   0.127   9.993 -0.2987  0.2167 -0.0625
 2667TIP3    H129492   0.328   0.171   9.945  1.2378  1.1417  2.9049
 2667TIP3    H229493   0.223   0.194  10.052  1.2838 -2.0574  3.6967
 2668TIP3   OH229494   4.747   0.865  12.762  0.4572 -0.5322  0.5517
 2668TIP3    H129495   4.669   0.920  12.772  0.3962 -0.6213  0.5605
 2668TIP3    H229496   4.725   0.804  12.692  0.9324  0.1742 -0.2133
 2669TIP3   OH229497   2.525   0.580  11.103  0.2567 -0.3919 -0.1403
 2669TIP3    H129498   2.454   0.537  11.055 -0.2155 -1.5170  1.4987
 2669TIP3    H229499   2.602   0.528  11.082  0.0794 -0.7911  0.1802
 2670TIP3   OH229500   3.799   2.942  11.068  0.5035  0.4907  0.6577
 2670TIP3    H129501   3.824   2.850  11.073 -1.2207  0.0397  1.3869
 2670TIP3    H229502   3.722   2.943  11.012  0.6278  1.5203  0.4955
 2671TIP3   OH229503   0.746   0.815  14.359 -0.0006 -0.4610  0.7085
 2671TIP3    H129504   0.761   0.750  14.428 -0.8713 -0.8401  0.5488
 2671TIP3    H229505   0.757   0.766  14.277  0.2628 -0.1878  0.5775
 2672TIP3   OH229506   4.453   4.286  14.138  0.1150  0.0431  0.0522
 2672TIP3    H129507   4.359   4.296  14.145  0.0569 -0.9776  0.9730
 2672TIP3    H229508   4.465   4.209  14.082  0.3653 -0.7916  1.2355
 2673TIP3   OH229509   4.801   4.698  11.355 -0.1492  0.5342  0.1008
 2673TIP3    H129510   4.795   4.684  11.261 -1.3927  0.5442  0.1771
 2673TIP3    H229511   4.884   4.656  11.380 -0.6893 -1.0542 -0.7086
 2674TIP3   OH229512   0.815   5.859  10.022 -0.1637  0.2436  0.3756
 2674TIP3    H129513   0.763   5.861   9.942 -1.0829 -1.5671  0.9122
 2674TIP3    H229514   0.752   5.880  10.092  0.1990 -0.2288  0.8460
 2675TIP3   OH229515   0.542   0.461   9.762  0.1550  0.2281 -0.0880
 2675TIP3    H129516   0.546   0.487   9.670 -1.3758  0.2387 -0.1516
 2675TIP3    H229517   0.478   0.519   9.801  0.8826  0.3031  1.0309
 2676TIP3   OH229518   7.036   0.238  11.921  0.4050  0.4008 -0.3144
 2676TIP3    H129519   7.017   0.221  12.014 -0.2954 -1.3404 -0.7746
 2676TIP3    H229520   7.052   0.333  11.918 -0.9244  0.7155  1.3599
 2677TIP3   OH229521   2.899   2.298  14.411 -0.4896 -0.3173 -0.5615
 2677TIP3    H129522   2.942   2.322  14.328  0.2982 -1.4481 -0.4909
 2677TIP3    H229523   2.879   2.206  14.401 -0.9539 -0.3062  0.2765
 2678TIP3   OH229524   5.115   0.326  10.633 -0.2605  0.4446 -0.5627
 2678TIP3    H129525   5.060   0.248  10.628 -2.0306  1.6434 -0.1649
 2678TIP3    H229526   5.114   0.363  10.545  2.3500 -1.1248 -1.3092
 2679TIP3   OH229527   0.627   3.445  12.124 -0.5396  0.1572  0.2405
 2679TIP3    H129528   0.709   3.493  12.113 -0.9168  0.7805  0.1042
 2679TIP3    H229529   0.625   3.421  12.216  0.2123 -0.6159  0.0514
 2680TIP3   OH229530   5.090   1.751  11.058 -0.1825  1.2502 -0.1283
 2680TIP3    H129531   5.087   1.780  11.149 -2.1919  0.5147  0.0592
 2680TIP3    H229532   5.158   1.805  11.018 -0.7178  3.0466  1.3008
 2681TIP3   OH229533   3.426   6.051  11.959 -0.5338  0.2404  0.0623
 2681TIP3    H129534   3.406   6.064  12.052  0.2682  2.1620 -0.0044
 2681TIP3    H229535   3.379   6.121  11.915 -0.0377 -0.0139 -0.8756
 2682TIP3   OH229536   3.878   0.588  11.272 -0.3025 -0.6174  0.0880
 2682TIP3    H129537   3.900   0.672  11.311  0.0296 -1.0781  0.8997
 2682TIP3    H229538   3.959   0.537  11.275 -1.2719 -2.0854  2.5143
 2683TIP3   OH229539   0.289   3.555  10.295  0.3821 -0.2219  0.4211
 2683TIP3    H129540   0.363   3.615  10.292 -1.5636  2.2039 -0.0290
 2683TIP3    H229541   0.226   3.591  10.234 -0.4912 -3.2508 -0.5610
 2684TIP3   OH229542   2.083   0.056   0.229 -0.2294  0.7160 -0.8440
 2684TIP3    H129543   2.108   0.137   0.273  0.7007  0.1159 -0.2693
 2684TIP3    H229544   2.005   0.080   0.178  0.2591  2.0591 -0.9760
 2685TIP3   OH229545   6.088   6.184   9.793  0.0290  0.1995  0.6061
 2685TIP3    H129546   6.164   6.229   9.830  0.8766  0.3988 -1.3406
 2685TIP3    H229547   6.116   6.155   9.707 -2.1498  0.3880 -0.2043
 2686TIP3   OH229548   4.382   4.606  11.707  0.0713  0.0941 -0.0095
 2686TIP3    H129549   4.362   4.646  11.791 -1.3983 -0.1486 -0.2209
 2686TIP3    H229550   4.359   4.513  11.719 -0.3814  0.1056 -0.7364
 2687TIP3   OH229551   1.325   0.066  12.098  0.1821  0.5625 -0.2789
 2687TIP3    H129552   1.319   0.154  12.134  1.6582  1.3047 -1.7641
 2687TIP3    H229553   1.367   0.015  12.167  0.6881  1.3815  0.0294
 2688TIP3   OH229554   4.404   6.979  15.304  0.2188 -0.3790  0.1333
 2688TIP3    H129555   4.411   6.890  15.337 -0.9891  0.0600  1.6410
 2688TIP3    H229556   4.316   6.984  15.266  0.5805 -0.0531 -0.6889
 2689TIP3   OH229557   1.694   5.020   9.937  0.0805  0.0627 -0.1111
 2689TIP3    H129558   1.784   5.004   9.908  0.8737  3.1729  0.4093
 2689TIP3    H229559   1.644   5.029   9.856 -0.1271 -3.2211 -0.4093
 2690TIP3   OH229560   5.961   6.404  11.889  0.2947 -0.0746  0.4385
 2690TIP3    H129561   5.942   6.491  11.924 -1.3070  0.0177 -0.5919
 2690TIP3    H229562   5.899   6.347  11.933 -0.7969 -0.1755 -1.1823
 2691TIP3   OH229563   4.259   6.077  12.230  0.2609 -0.4846 -0.0927
 2691TIP3    H129564   4.236   5.984  12.238 -0.2345 -0.1291  2.9698
 2691TIP3    H229565   4.179   6.118  12.195  0.4481 -1.1484 -1.3608
 2692TIP3   OH229566   5.700   5.807  11.601  0.1798  0.6209  0.3084
 2692TIP3    H129567   5.750   5.756  11.666 -0.2173 -0.8767 -0.5254
 2692TIP3    H229568   5.767   5.849  11.548  0.5357  0.2445  0.4495
 2693TIP3   OH229569   6.465   7.120  13.541  0.1560 -0.7099 -0.2968
 2693TIP3    H129570   6.445   7.196  13.596 -2.6162 -1.3592 -0.3559
 2693TIP3    H229571   6.442   7.147  13.452  1.3387 -0.8550 -0.6563
 2694TIP3   OH229572   4.319   6.980  11.739 -0.5571  0.4738  0.3416
 2694TIP3    H129573   4.357   6.966  11.653 -2.0083  0.7374 -0.3608
 2694TIP3    H229574   4.263   6.904  11.754 -2.0336  1.4729  0.0723
 2695TIP3   OH229575   0.389   6.391  11.243  0.3033  0.1426  0.2818
 2695TIP3    H129576   0.406   6.390  11.149  0.6659 -0.1614  0.3517
 2695TIP3    H229577   0.364   6.301  11.265 -0.9722  0.4751  0.2590
 2696TIP3   OH229578   3.660   0.078  10.323  0.1894  0.2510  0.8662
 2696TIP3    H129579   3.565   0.069  10.327  0.2024 -0.4852 -0.1389
 2696TIP3    H229580   3.691   0.050  10.409 -0.2621 -3.0200  0.0165
 2697TIP3   OH229581   4.465   5.259  13.144 -0.0781  0.1952 -0.0707
 2697TIP3    H129582   4.464   5.250  13.240 -2.5644 -0.9475 -0.1696
 2697TIP3    H229583   4.427   5.177  13.112 -1.5237  1.5742 -1.9444
 2698TIP3   OH229584   3.409   2.969  14.947 -0.7837  0.1313  0.9425
 2698TIP3    H129585   3.398   2.875  14.963  0.1774 -0.2988 -0.8119
 2698TIP3    H229586   3.469   2.997  15.016  1.8129 -1.3212 -0.6433
 2699TIP3   OH229587   1.394   2.776   9.787  0.2349 -0.3735  0.2077
 2699TIP3    H129588   1.347   2.814   9.861 -0.8450  1.9778 -1.6157
 2699TIP3    H229589   1.394   2.845   9.721  1.7729 -2.1770 -1.7361
 2700TIP3   OH229590   0.207   4.001  11.164  0.1775 -0.2758  0.6537
 2700TIP3    H129591   0.129   4.007  11.108  0.8220  0.1981 -0.1972
 2700TIP3    H229592   0.255   4.081  11.147  1.8404 -1.4552 -0.3112
 2701TIP3   OH229593   0.489   6.183  10.584 -0.4204 -0.6369 -0.1126
 2701TIP3    H129594   0.519   6.224  10.665 -1.5212  1.8219 -0.8989
 2701TIP3    H229595   0.434   6.111  10.612 -0.7063  0.1374  1.3393
 2702TIP3   OH229596   5.844   6.676  12.104 -0.3228  0.1659 -0.7118
 2702TIP3    H129597   5.792   6.596  12.094  0.1496 -0.1630 -0.5608
 2702TIP3    H229598   5.923   6.659  12.053  0.0351  0.3097 -0.2031
 2703TIP3   OH229599   1.107   4.806  11.392 -0.1163  0.4166 -0.0279
 2703TIP3    H129600   1.111   4.767  11.480  0.7274 -1.3469 -0.8327
 2703TIP3    H229601   1.014   4.829  11.381 -0.8088 -2.1224  0.1654
 2704TIP3   OH229602   5.376   1.325  14.700 -0.2082  0.5463  0.4889
 2704TIP3    H129603   5.330   1.242  14.694  3.3144 -1.5101  0.4759
 2704TIP3    H229604   5.356   1.358  14.787 -0.9995 -0.6827  0.7746
 2705TIP3   OH229605   0.480   5.246  10.569 -0.1172  0.1167 -0.2937
 2705TIP3    H129606   0.562   5.209  10.602 -0.1850  0.3757  0.1646
 2705TIP3    H229607   0.470   5.207  10.482  0.6356  0.2947 -0.4673
 2706TIP3   OH229608   1.686   4.505  11.194  0.1199 -0.0083 -0.5731
 2706TIP3    H129609   1.633   4.530  11.118  0.4721  0.4658 -0.6605
 2706TIP3    H229610   1.631   4.525  11.270 -0.2325 -0.4814 -0.6969
 2707TIP3   OH229611   1.423   6.668  11.893 -0.1724 -0.3597  1.1624
 2707TIP3    H129612   1.477   6.715  11.956  0.1687 -0.3427  0.8600
 2707TIP3    H229613   1.334   6.672  11.929 -0.4682  2.0657  0.2507
 2708TIP3   OH229614   0.322   1.018  14.896 -0.0764 -0.0887  0.2959
 2708TIP3    H129615   0.316   1.029  14.801  0.4780  1.5662  0.4331
 2708TIP3    H229616   0.231   1.011  14.925 -0.2766  0.1455 -0.2646
 2709TIP3   OH229617   0.824   3.342  10.422  0.1280  0.2736  0.3041
 2709TIP3    H129618   0.766   3.380  10.355  1.0944  0.4602 -0.4363
 2709TIP3    H229619   0.841   3.253  10.391  0.3356  0.2616  0.4579
 2710TIP3   OH229620   1.095   3.606  10.506  0.6094  0.3331 -0.2458
 2710TIP3    H129621   1.010   3.638  10.477 -0.1752 -1.4279  0.0323
 2710TIP3    H229622   1.081   3.580  10.597  1.3797 -0.1695 -0.2648
 2711TIP3   OH229623   6.083   0.203  10.514 -0.0707  0.0270 -0.9480
 2711TIP3    H129624   6.051   0.125  10.469  1.7215  1.1758 -4.4162
 2711TIP3    H229625   6.154   0.171  10.569  1.5599 -0.6661 -3.3775
 2712TIP3   OH229626   3.739   4.947  10.705  0.1878  0.1973  0.6698
 2712TIP3    H129627   3.665   4.947  10.766 -1.4760 -0.5139 -1.2636
 2712TIP3    H229628   3.720   4.874  10.645  3.5541 -1.3690  1.3707
 2713TIP3   OH229629   0.058   4.648  12.050 -0.0790  0.2614  0.8046
 2713TIP3    H129630   0.078   4.679  11.961  0.7524 -0.0563  0.8788
 2713TIP3    H229631  -0.037   4.648  12.054 -0.1143  0.8299  0.1016
 2714TIP3   OH229632   6.273   1.146  10.190 -0.7782  0.0304  0.2300
 2714TIP3    H129633   6.321   1.082  10.137  0.1481  0.3587  0.6721
 2714TIP3    H229634   6.187   1.151  10.148  0.2815  1.0501 -1.8774
 2715TIP3   OH229635   1.660   0.296  11.502 -0.1371  0.0762  0.0871
 2715TIP3    H129636   1.580   0.245  11.511 -0.0555  0.0119  0.4407
 2715TIP3    H229637   1.724   0.252  11.558 -0.4520  1.3643  1.4901
 2716TIP3   OH229638   6.129   3.933  12.779 -0.2521  0.1455 -0.5877
 2716TIP3    H129639   6.103   4.007  12.833 -1.9179 -1.1752  0.4763
 2716TIP3    H229640   6.047   3.889  12.757  0.6986 -1.3329 -1.2517
 2717TIP3   OH229641   6.303   6.395  10.446 -0.2430 -0.3736 -0.5552
 2717TIP3    H129642   6.257   6.430  10.523 -0.1254 -0.5279 -0.4121
 2717TIP3    H229643   6.324   6.472  10.393 -1.6542 -0.4018 -1.1759
 2718TIP3   OH229644   2.296   5.307  14.904 -0.1195 -0.1640 -0.1097
 2718TIP3    H129645   2.332   5.238  14.960  1.3889  0.2384 -0.5795
 2718TIP3    H229646   2.359   5.315  14.832 -1.3779  0.2226 -1.1881
 2719TIP3   OH229647   1.134   1.465  12.353 -0.2206  0.6077 -0.0273
 2719TIP3    H129648   1.217   1.421  12.340 -0.1624  0.3691  1.0890
 2719TIP3    H229649   1.115   1.455  12.447 -1.7522  0.2095 -0.3596
 2720TIP3   OH229650   0.296   6.776  12.215  0.6596 -0.5766  0.0106
 2720TIP3    H129651   0.312   6.723  12.293  1.5009 -1.2844 -0.6322
 2720TIP3    H229652   0.205   6.758  12.191  0.7150 -1.1628  0.2308
 2721TIP3   OH229653   2.391   5.121  10.653 -0.3537  0.4025 -0.2325
 2721TIP3    H129654   2.424   5.167  10.576 -0.5787  1.2901  0.1991
 2721TIP3    H229655   2.453   5.143  10.723  0.6915 -1.5980 -0.5065
 2722TIP3   OH229656   0.510   3.286   9.924 -0.5411  0.1530 -0.0588
 2722TIP3    H129657   0.433   3.268   9.869 -0.1311  1.5533 -1.1299
 2722TIP3    H229658   0.473   3.306  10.010 -1.3451  0.1027 -0.3852
 2723TIP3   OH229659   0.680   0.744  14.015  0.4558 -0.6697 -0.1234
 2723TIP3    H129660   0.604   0.693  13.989  0.6557 -0.2067 -1.6863
 2723TIP3    H229661   0.738   0.682  14.058 -0.3106 -1.2579  0.0670
 2724TIP3   OH229662   2.247   5.862  11.785 -0.0097  0.0100 -0.1700
 2724TIP3    H129663   2.227   5.799  11.854  3.0205  0.1930  0.9623
 2724TIP3    H229664   2.264   5.809  11.707 -2.0133 -0.2704 -0.4498
 2725TIP3   OH229665   1.612   6.745   9.486  0.0202  0.4217  0.0752
 2725TIP3    H129666   1.667   6.667   9.473  0.6611  1.0114 -0.7799
 2725TIP3    H229667   1.544   6.716   9.547 -0.2044 -1.0198 -0.8421
 2726TIP3   OH229668   3.736   0.758  11.070  0.3703 -0.7651 -0.1561
 2726TIP3    H129669   3.818   0.766  11.021  1.3885 -0.8588  1.5010
 2726TIP3    H229670   3.755   0.694  11.138 -1.0676 -0.7239  0.3035
 2727TIP3   OH229671   5.707   6.069  10.657  0.0093 -0.5411 -0.3650
 2727TIP3    H129672   5.633   6.010  10.675 -0.5876 -0.4693 -2.4597
 2727TIP3    H229673   5.674   6.156  10.680  1.5333 -1.0784  4.6508
 2728TIP3   OH229674   6.285   1.749  13.513 -0.3400  0.0713  0.8101
 2728TIP3    H129675   6.256   1.659  13.498  0.0715 -0.3964  2.7353
 2728TIP3    H229676   6.341   1.769  13.439 -1.1647 -0.9373 -0.0986
 2729TIP3   OH229677   7.080   5.370  13.168  0.2885  0.4053 -0.5595
 2729TIP3    H129678   7.048   5.283  13.145  2.1034  0.0783 -2.0187
 2729TIP3    H229679   7.039   5.390  13.252  0.2780 -2.1016  0.0614
 2730TIP3   OH229680   0.833   0.879  10.032 -0.2811 -0.0519 -0.3741
 2730TIP3    H129681   0.871   0.791  10.039 -1.8615 -0.7385 -0.1203
 2730TIP3    H229682   0.771   0.873   9.959 -1.3863  0.4749  0.5103
 2731TIP3   OH229683   1.799   5.975  11.017  0.7035  0.3611 -0.5305
 2731TIP3    H129684   1.821   5.890  11.055 -1.9881 -0.2000 -0.1816
 2731TIP3    H229685   1.883   6.022  11.016  1.9000 -1.6314  0.8825
 2732TIP3   OH229686   7.197   5.539  11.044 -0.3663 -0.1143 -0.6267
 2732TIP3    H129687   7.120   5.593  11.063 -0.4779 -0.7771  0.9166
 2732TIP3    H229688   7.165   5.449  11.045  0.6238 -0.4710  1.1731
 2733TIP3   OH229689   4.455   5.903  11.599 -0.3043 -0.1872 -0.0165
 2733TIP3    H129690   4.448   5.885  11.692  1.2530 -1.7079 -0.1683
 2733TIP3    H229691   4.533   5.856  11.571 -0.1720  1.0820 -1.8962
 2734TIP3   OH229692   4.237   1.429  13.834 -0.4448  0.1944 -0.0251
 2734TIP3    H129693   4.205   1.349  13.875 -0.1529 -1.4079 -2.8187
 2734TIP3    H229694   4.329   1.411  13.813 -0.2338  1.4361 -0.2248
 2735TIP3   OH229695   6.698   5.872  12.094 -0.2981  0.3559  0.1148
 2735TIP3    H129696   6.671   5.838  12.179  1.5243 -0.7938  0.2727
 2735TIP3    H229697   6.775   5.820  12.071 -1.1110  0.2587 -2.5130
 2736TIP3   OH229698   1.512   0.066  10.960  0.1095 -0.1067 -0.3509
 2736TIP3    H129699   1.543  -0.018  10.994 -0.0070 -0.0364 -0.0678
 2736TIP3    H229700   1.555   0.075  10.876  1.0778  0.1170  0.1614
 2737TIP3   OH229701   5.030   6.285  12.861  0.1641 -0.1316  0.7000
 2737TIP3    H129702   5.118   6.306  12.831  0.3088 -1.9000 -0.1970
 2737TIP3    H229703   4.997   6.223  12.796 -1.7718  0.5646  0.9920
 2738TIP3   OH229704   3.515   5.884   9.421 -0.4028  0.1206 -0.6327
 2738TIP3    H129705   3.524   5.955   9.358 -0.6589 -0.2540 -1.0921
 2738TIP3    H229706   3.451   5.824   9.382  0.6075 -0.9015 -0.7508
 2739TIP3   OH229707   5.906   6.066   9.640  0.2094  0.0156  0.4804
 2739TIP3    H129708   5.963   5.989   9.633  1.1734  0.7134  0.4526
 2739TIP3    H229709   5.943   6.117   9.712 -1.1507 -0.1272  1.3026
 2740TIP3   OH229710   6.536   4.852  10.874  0.5740  0.1892  0.1723
 2740TIP3    H129711   6.599   4.924  10.881  1.3969 -0.4668 -0.3505
 2740TIP3    H229712   6.538   4.828  10.781 -0.6220  0.3107  0.1113
 2741TIP3   OH229713   2.860   4.319  11.937 -0.0949 -0.4744 -0.0175
 2741TIP3    H129714   2.895   4.232  11.921  1.6719  0.6022 -2.3918
 2741TIP3    H229715   2.766   4.311  11.924  0.1164 -1.9323 -0.7154
 2742TIP3   OH229716   1.460   6.188  12.406  0.1746 -0.3883 -0.3998
 2742TIP3    H129717   1.523   6.119  12.429  0.3101 -0.0192  0.3550
 2742TIP3    H229718   1.513   6.267  12.395 -0.2000  0.0211  0.6899
 2743TIP3   OH229719   4.413   2.988  12.070 -0.4011  0.0875 -0.8842
 2743TIP3    H129720   4.425   2.956  12.160 -2.1991 -0.3785 -0.7844
 2743TIP3    H229721   4.446   2.917  12.015  0.7786  0.4083 -0.5998
 2744TIP3   OH229722   1.078   4.059  11.880  0.1864  0.2505 -0.2777
 2744TIP3    H129723   1.132   4.133  11.853  0.5362 -0.2965 -1.0783
 2744TIP3    H229724   1.103   3.988  11.822  1.1816 -1.0538  1.6929
 2745TIP3   OH229725   0.381   5.850  10.525  0.1664  0.3992  0.1491
 2745TIP3    H129726   0.429   5.787  10.578  0.4676  1.1611  0.7927
 2745TIP3    H229727   0.289   5.827  10.537  0.3161 -0.3418 -0.1594
 2746TIP3   OH229728   0.830   2.038  10.207 -0.7922 -0.7427 -0.7423
 2746TIP3    H129729   0.773   2.046  10.131 -0.1755  1.6783 -1.0119
 2746TIP3    H229730   0.916   2.067  10.176 -1.0175  2.3884  1.3549
 2747TIP3   OH229731   2.483   6.288  12.425  0.0286 -0.2252 -0.0241
 2747TIP3    H129732   2.528   6.329  12.351 -0.2114 -1.9476 -1.1503
 2747TIP3    H229733   2.517   6.199  12.428 -1.0393 -0.6154  1.0400
 2748TIP3   OH229734   2.190   6.738  11.719  0.5764  0.2598  0.1139
 2748TIP3    H129735   2.229   6.669  11.664 -0.4832 -0.5416  0.3566
 2748TIP3    H229736   2.218   6.820  11.678  0.0843 -0.3289 -1.4202
 2749TIP3   OH229737   4.874   0.345  13.900  0.1934  0.1666  0.4239
 2749TIP3    H129738   4.799   0.383  13.946 -0.7403 -1.7058  0.4970
 2749TIP3    H229739   4.845   0.336  13.810  0.4567 -0.2604  0.3805
 2750TIP3   OH229740   3.832   6.267  12.429  0.0401  0.5985  0.4629
 2750TIP3    H129741   3.802   6.197  12.487  1.3999  0.7789  1.3978
 2750TIP3    H229742   3.928   6.264  12.435  0.1012  2.7807  0.8070
 2751TIP3   OH229743   1.868   1.483  12.633  0.3681  0.1870  0.3724
 2751TIP3    H129744   1.893   1.448  12.718  1.7686  1.5593  0.5661
 2751TIP3    H229745   1.843   1.407  12.581 -0.4684 -0.6609  2.0042
 2752TIP3   OH229746   2.646   6.735  15.264  0.1511 -0.2007  0.1324
 2752TIP3    H129747   2.626   6.818  15.306 -0.8307 -1.3390  1.9628
 2752TIP3    H229748   2.639   6.753  15.170  0.9757  2.0229  0.4755
 2753TIP3   OH229749   2.183   3.441  12.487  0.5764  0.1173 -0.0823
 2753TIP3    H129750   2.106   3.473  12.534  1.3840 -0.8378  1.9237
 2753TIP3    H229751   2.165   3.461  12.395 -0.7667  2.5382  0.6803
 2754TIP3   OH229752   5.672   0.122  14.788  0.1875 -0.0859  0.3266
 2754TIP3    H129753   5.762   0.090  14.775  0.5743  0.1895  2.0725
 2754TIP3    H229754   5.649   0.091  14.876 -1.7720 -0.9082 -0.4506
 2755TIP3   OH229755   5.361   4.245  10.346  0.1479  0.2345  0.1950
 2755TIP3    H129756   5.398   4.323  10.304  0.5198  1.0324  1.9773
 2755TIP3    H229757   5.302   4.208  10.280 -0.3628  2.2626 -0.5218
 2756TIP3   OH229758   5.459   5.240  14.802  0.4868 -0.4282  0.3515
 2756TIP3    H129759   5.530   5.280  14.852 -0.4998  1.5292  0.2750
 2756TIP3    H229760   5.413   5.315  14.764  0.0031 -1.7975 -1.8024
 2757TIP3   OH229761   2.396   3.107  10.470  0.2798 -0.4142  0.2673
 2757TIP3    H129762   2.325   3.171  10.465 -0.1669 -0.9817 -0.7927
 2757TIP3    H229763   2.468   3.148  10.420 -0.5482 -1.4137 -1.8001
 2758TIP3   OH229764   3.367   4.340  11.864  0.1725  0.0701 -0.0496
 2758TIP3    H129765   3.296   4.344  11.800 -0.6554  0.9304  0.8989
 2758TIP3    H229766   3.351   4.260  11.913  1.6899 -1.4158 -1.8833
 2759TIP3   OH229767   0.547   3.063  13.002  0.3155  0.0618  0.1334
 2759TIP3    H129768   0.454   3.062  12.978  0.1593 -0.3840  0.7711
 2759TIP3    H229769   0.552   3.124  13.075  0.1502 -1.6909  1.6369
 2760TIP3   OH229770   4.414   2.664  11.441  0.0761  0.2899  0.0033
 2760TIP3    H129771   4.451   2.584  11.478 -0.9736 -1.1183 -1.9368
 2760TIP3    H229772   4.362   2.635  11.366 -1.8759  2.5883  0.3807
 2761TIP3   OH229773   4.651   6.716   9.522  0.9761  0.1908  0.0068
 2761TIP3    H129774   4.661   6.791   9.463 -2.8582  1.3387  0.6325
 2761TIP3    H229775   4.589   6.658   9.476 -1.2693  0.6176  2.4051
 2762TIP3   OH229776   3.386   7.131  10.623  0.3790  0.2468 -0.5016
 2762TIP3    H129777   3.324   7.059  10.612  0.3390  0.0952  0.6722
 2762TIP3    H229778   3.471   7.094  10.597  0.3313 -0.1715 -0.0521
 2763TIP3   OH229779   2.666   0.029  10.502 -0.6407 -0.2954 -0.3948
 2763TIP3    H129780   2.636   0.099  10.444  1.9590 -0.4443 -1.9850
 2763TIP3    H229781   2.737   0.068  10.552 -0.4816 -1.2391  0.1271
 2764TIP3   OH229782   3.406   0.957  11.153  0.4987  0.3767 -0.0234
 2764TIP3    H129783   3.320   0.975  11.191  1.5138  0.2088  2.4998
 2764TIP3    H229784   3.432   1.039  11.112 -2.5523 -0.6953 -4.4801
 2765TIP3   OH229785   0.354   5.682  12.140  0.2875 -0.4841  0.1580
 2765TIP3    H129786   0.314   5.710  12.058  1.2613  2.4430  0.5969
 2765TIP3    H229787   0.291   5.708  12.207  1.1018  0.5184  0.5598
 2766TIP3   OH229788   1.267   3.930  12.873 -0.2547  0.3729 -0.0437
 2766TIP3    H129789   1.274   3.844  12.915 -1.8784  0.7317  1.0308
 2766TIP3    H229790   1.318   3.988  12.930  1.4523  0.0091 -1.1678
 2767TIP3   OH229791   4.762   5.446  10.032  0.0161  0.1461 -0.1781
 2767TIP3    H129792   4.747   5.523   9.978  1.6935 -0.4197 -1.5210
 2767TIP3    H229793   4.850   5.459  10.069 -0.2876 -0.4262  0.7724
 2768TIP3   OH229794   2.499   1.978  10.175 -0.0609  0.4204 -1.0077
 2768TIP3    H129795   2.432   1.937  10.228  1.0291  0.8478  0.7325
 2768TIP3    H229796   2.452   2.017  10.101 -1.5873 -0.1072 -0.3173
 2769TIP3   OH229797   5.851   0.760  10.063  0.2395 -0.0836 -0.0907
 2769TIP3    H129798   5.786   0.818  10.104 -1.4464 -1.5281 -0.6719
 2769TIP3    H229799   5.877   0.700  10.133 -0.6697 -0.8728 -0.4240
 2770TIP3   OH229800   2.581   6.093  11.023 -0.2059 -0.2818 -0.0151
 2770TIP3    H129801   2.563   6.129  11.110  2.2426  0.3914  0.2683
 2770TIP3    H229802   2.530   6.012  11.019 -0.6700 -0.1072  1.8935
 2771TIP3   OH229803   2.668   5.064  13.143 -0.2745  0.1710  0.3171
 2771TIP3    H129804   2.577   5.081  13.167 -0.9827  1.1856 -2.8830
 2771TIP3    H229805   2.664   4.988  13.085  0.6777  1.4967 -1.5151
 2772TIP3   OH229806   2.461   6.713  10.866  0.7144  0.1404  0.1859
 2772TIP3    H129807   2.523   6.721  10.939  0.1434  0.2437  0.6548
 2772TIP3    H229808   2.433   6.803  10.848 -0.2504 -0.0471  0.7806
 2773TIP3   OH229809   3.208   5.940  10.102  0.1779  0.5645  0.2798
 2773TIP3    H129810   3.190   6.002  10.031  0.3233 -1.0369 -1.1807
 2773TIP3    H229811   3.295   5.967  10.135  0.5797  0.6697 -0.8420
 2774TIP3   OH229812   3.157   1.658  13.333  0.4909  0.7220  0.0226
 2774TIP3    H129813   3.246   1.641  13.301  0.0929  0.8224 -1.1314
 2774TIP3    H229814   3.154   1.753  13.344  0.0843  0.8553 -1.2361
 2775TIP3   OH229815   7.132   1.089  10.103  0.4501 -0.0241  0.1974
 2775TIP3    H129816   7.200   1.154  10.117 -0.3650  1.0425 -0.7028
 2775TIP3    H229817   7.149   1.022  10.169  2.3660  0.2206 -0.0095
 2776TIP3   OH229818   2.832   6.814  12.283 -0.2484 -0.1306 -0.1024
 2776TIP3    H129819   2.794   6.862  12.356  1.2288  0.6164  0.1861
 2776TIP3    H229820   2.904   6.869  12.253 -0.6642 -0.5590 -1.9551
 2777TIP3   OH229821   4.328   2.662   9.817 -0.1853  0.5259  0.2822
 2777TIP3    H129822   4.313   2.756   9.806 -3.0642  0.2227  1.1153
 2777TIP3    H229823   4.412   2.656   9.862 -1.2660  2.8782  2.7895
 2778TIP3   OH229824   1.185   5.572   9.592  0.3627  0.3818  0.4024
 2778TIP3    H129825   1.264   5.616   9.621  0.5377  0.7817 -0.6293
 2778TIP3    H229826   1.211   5.482   9.576 -0.2674 -0.4287  3.6615
 2779TIP3   OH229827   6.794   6.303  11.192 -0.5802  0.7649 -0.2222
 2779TIP3    H129828   6.814   6.281  11.101 -0.3206  0.5167 -0.1073
 2779TIP3    H229829   6.735   6.234  11.222 -0.5596  0.7719 -0.1633
 2780TIP3   OH229830   3.922   1.250  10.246  0.1181 -0.2135  0.3095
 2780TIP3    H129831   3.860   1.209  10.185  0.6181  0.9287 -0.9958
 2780TIP3    H229832   3.941   1.335  10.207  1.8998 -0.2350  1.1027
 2781TIP3   OH229833   1.408   5.279  10.479 -0.4549 -0.1087  0.0354
 2781TIP3    H129834   1.380   5.285  10.388  0.2468 -2.2411 -0.3396
 2781TIP3    H229835   1.502   5.292  10.476 -0.4820  0.2123  0.5065
 2782TIP3   OH229836   7.137   5.406  10.703 -0.0684  0.0984 -0.1519
 2782TIP3    H129837   7.232   5.415  10.709 -0.2037  1.0743  0.7166
 2782TIP3    H229838   7.107   5.408  10.794 -0.7695 -2.1725 -0.2946
 2783TIP3   OH229839   4.765   0.011  11.910  0.1126 -0.1741  0.0314
 2783TIP3    H129840   4.834   0.045  11.967  1.9189 -1.3847 -1.3557
 2783TIP3    H229841   4.686   0.016  11.962  0.4213  5.2425  0.2545
 2784TIP3   OH229842   4.300   1.928  11.766 -0.2485 -1.2049  0.0659
 2784TIP3    H129843   4.362   1.959  11.832 -1.5199  1.3194  0.1325
 2784TIP3    H229844   4.332   1.840  11.742  3.9722  0.4377 -0.7685
 2785TIP3   OH229845   3.831   3.344  11.508  0.0661 -0.1675  0.2180
 2785TIP3    H129846   3.905   3.313  11.560  0.4570  2.7139  1.5093
 2785TIP3    H229847   3.867   3.361  11.421  0.8114  0.6069  0.6675
 2786TIP3   OH229848   3.627   6.977  10.506 -0.1226  0.4279 -0.6022
 2786TIP3    H129849   3.658   6.889  10.483  0.8493  0.5049  0.4356
 2786TIP3    H229850   3.702   7.020  10.546 -0.7766  1.5348 -0.5492
 2787TIP3   OH229851   2.576   3.438  10.963  0.4233  0.1821 -0.9273
 2787TIP3    H129852   2.626   3.464  11.040  0.3168  0.3589 -0.9181
 2787TIP3    H229853   2.612   3.353  10.939 -0.2861 -0.3695 -0.0406
 2788TIP3   OH229854   2.180   1.853  12.855  0.2568 -0.0552  0.2061
 2788TIP3    H129855   2.151   1.781  12.800  0.6400 -2.3889  2.9309
 2788TIP3    H229856   2.274   1.840  12.866  0.9970  2.9056 -2.1011
 2789TIP3   OH229857   1.094   6.010  10.816 -0.3090 -0.1752 -0.2001
 2789TIP3    H129858   1.018   6.056  10.781  1.1195  3.7847  1.6542
 2789TIP3    H229859   1.124   6.064  10.889  2.1838 -3.5108  1.4079
 2790TIP3   OH229860   3.765   6.355  10.348 -0.4711 -1.2775 -0.3812
 2790TIP3    H129861   3.812   6.361  10.264 -2.9107  1.4125 -1.6039
 2790TIP3    H229862   3.824   6.396  10.411 -1.3311  2.7764 -2.0427
 2791TIP3   OH229863   6.305   6.852  11.975 -0.3484 -0.4050 -0.0796
 2791TIP3    H129864   6.287   6.943  11.949  0.1421 -0.8638 -2.1396
 2791TIP3    H229865   6.401   6.845  11.973 -0.4285 -1.3518 -1.3982
 2792TIP3   OH229866   0.238   3.909  10.362  0.3553  0.7473  0.1950
 2792TIP3    H129867   0.307   3.864  10.314 -0.2986  1.1505 -1.1361
 2792TIP3    H229868   0.179   3.943  10.295 -0.8009  0.9653  1.2848
 2793TIP3   OH229869   5.919   3.736  10.530  0.2443  0.0597  0.6592
 2793TIP3    H129870   5.915   3.641  10.539 -0.3793  0.0194 -0.0098
 2793TIP3    H229871   5.971   3.765  10.605 -2.2594 -0.5288  2.7132
 2794TIP3   OH229872   4.337   6.128  12.488 -0.4928  0.2345  0.0274
 2794TIP3    H129873   4.323   6.096  12.399  0.7859  1.7618 -0.7525
 2794TIP3    H229874   4.336   6.224  12.479  3.6901  0.4340  0.9282
 2795TIP3   OH229875   3.562   6.824  14.956  0.0378  0.6675  0.0427
 2795TIP3    H129876   3.521   6.886  14.896  0.7633  0.7330 -0.3949
 2795TIP3    H229877   3.643   6.798  14.912  1.2045  1.6710  1.5399
 2796TIP3   OH229878   3.501   5.474  10.859 -0.2858 -0.2408  0.6637
 2796TIP3    H129879   3.504   5.465  10.764 -0.5354  0.7113  0.5580
 2796TIP3    H229880   3.453   5.397  10.889 -0.3289 -0.4722  0.0077
 2797TIP3   OH229881   2.106   0.710  11.237  0.0655  0.5674  0.6266
 2797TIP3    H129882   2.152   0.677  11.160 -0.5489  1.5879 -0.1947
 2797TIP3    H229883   2.175   0.728  11.300  0.7625  1.6503 -0.4289
 2798TIP3   OH229884   2.249   7.101  10.059 -0.3949  0.1364 -0.6827
 2798TIP3    H129885   2.178   7.037  10.049 -2.4653  1.9597  1.6703
 2798TIP3    H229886   2.308   7.062  10.124 -1.5741  0.5063  0.6372
 2799TIP3   OH229887   1.888   1.008  12.970 -0.4580 -0.2544  0.6656
 2799TIP3    H129888   1.861   0.931  12.920 -1.4578 -0.9311  2.2076
 2799TIP3    H229889   1.978   1.025  12.941 -1.5412  0.3597 -2.5232
 2800TIP3   OH229890   2.191   1.689   9.978  0.0455 -0.2410 -0.7015
 2800TIP3    H129891   2.130   1.742  10.031  0.5390  0.9541 -1.3083
 2800TIP3    H229892   2.263   1.669  10.037  0.3559  0.6668 -0.7626
 2801TIP3   OH229893   5.008   7.148  13.874  0.5019 -0.2414  0.1059
 2801TIP3    H129894   4.918   7.118  13.869  0.2605  0.4206  0.4174
 2801TIP3    H229895   5.061   7.069  13.867 -0.1547 -0.9350  2.5396
 2802TIP3   OH229896   3.122   5.164  11.053  0.0911 -0.2895 -0.4830
 2802TIP3    H129897   3.115   5.070  11.040  1.0975 -0.2005 -1.7957
 2802TIP3    H229898   3.057   5.201  10.993  0.3084 -0.1159 -0.6139
 2803TIP3   OH229899   1.996   1.270  13.068 -0.1556  0.5009 -0.2226
 2803TIP3    H129900   2.090   1.283  13.079 -0.3538  0.3013  1.7853
 2803TIP3    H229901   1.983   1.176  13.081 -0.8151  0.7499  1.0057
 2804TIP3   OH229902   5.810   2.687  11.724  0.0293 -0.4845 -0.2899
 2804TIP3    H129903   5.903   2.688  11.743  0.0285  0.2117 -0.2981
 2804TIP3    H229904   5.785   2.780  11.720 -0.4710 -0.6513 -1.2367
 2805TIP3   OH229905   3.233   1.099  10.842  0.2387 -0.1359 -0.1511
 2805TIP3    H129906   3.298   1.080  10.909 -0.0473  0.0708  0.1844
 2805TIP3    H229907   3.228   1.018  10.790  0.8741 -0.1001 -0.2802
 2806TIP3   OH229908   0.609   5.898  10.863  0.3294 -0.2308  0.8539
 2806TIP3    H129909   0.555   5.849  10.801  0.1674  0.1376  0.6943
 2806TIP3    H229910   0.580   5.870  10.949  0.2357 -0.4113  0.7612
 2807TIP3   OH229911   3.085   4.901  10.158  0.6079  0.4289 -0.5261
 2807TIP3    H129912   3.134   4.956  10.097 -0.3427  1.1643 -0.6382
 2807TIP3    H229913   3.079   4.817  10.115 -0.5908  1.1190 -1.7336
 2808TIP3   OH229914   0.657   5.977  11.358  0.1865  0.2718 -0.0466
 2808TIP3    H129915   0.636   6.066  11.388  1.1245  0.2708  0.6389
 2808TIP3    H229916   0.637   5.921  11.433  0.0466 -0.0419 -0.3176
 2809TIP3   OH229917   2.554   0.376  10.154  0.1693 -0.2996 -0.7700
 2809TIP3    H129918   2.554   0.281  10.157 -2.4450 -0.3433 -0.6103
 2809TIP3    H229919   2.461   0.400  10.148  0.9013  2.1820 -3.1263
 2810TIP3   OH229920   1.619   6.923  11.089  0.3068 -0.5123  0.1078
 2810TIP3    H129921   1.638   6.849  11.147  1.5677 -0.9754 -0.8765
 2810TIP3    H229922   1.547   6.892  11.033  0.5282 -0.8281 -0.0028
 2811TIP3   OH229923   1.785   5.505  11.273 -0.2179  0.1112  0.4797
 2811TIP3    H129924   1.690   5.505  11.259 -0.2349  0.8927  0.5613
 2811TIP3    H229925   1.795   5.510  11.368 -0.0988 -0.6905  0.5052
 2812TIP3   OH229926   3.530   4.788  10.264  0.4233  0.0089 -0.8713
 2812TIP3    H129927   3.616   4.765  10.228  0.7808  0.7454 -0.4961
 2812TIP3    H229928   3.471   4.719  10.231  1.2198 -0.7042 -0.8300
 2813TIP3   OH229929   3.771   5.302  10.810  0.0317  0.1208  0.0461
 2813TIP3    H129930   3.781   5.212  10.780  0.8914  0.1798  0.1369
 2813TIP3    H229931   3.859   5.339  10.804  0.5701 -0.2951  3.9765
 2814TIP3   OH229932   0.407   6.936  11.556 -0.1419  0.0176  0.1358
 2814TIP3    H129933   0.494   6.927  11.595  0.3685  1.5905 -0.5646
 2814TIP3    H229934   0.347   6.938  11.630  0.5351  0.0588  0.6835
 2815TIP3   OH229935   6.760   1.155  11.629 -0.0540  0.2257 -0.4534
 2815TIP3    H129936   6.853   1.178  11.626  0.4930 -1.8614 -0.3412
 2815TIP3    H229937   6.715   1.238  11.639  1.9114  1.1142  1.3482
 2816TIP3   OH229938   3.287   6.772  11.011  0.1577  0.2296 -0.0929
 2816TIP3    H129939   3.239   6.854  11.002  0.5014  0.3171 -1.2826
 2816TIP3    H229940   3.345   6.770  10.935  0.5480 -0.8531  0.2203
 2817TIP3   OH229941   2.440   4.455  11.511  0.3697 -0.3396  0.3327
 2817TIP3    H129942   2.505   4.498  11.455  1.6585 -1.6376  0.8031
 2817TIP3    H229943   2.491   4.394  11.564 -0.8837  0.4720  2.5522
 2818TIP3   OH229944   0.705   1.146  10.624  0.0352 -0.1708  0.7976
 2818TIP3    H129945   0.770   1.207  10.661 -0.7310  0.7145  0.6912
 2818TIP3    H229946   0.640   1.202  10.583  0.3151 -1.1273 -0.9874
 2819TIP3   OH229947   2.604   1.762  11.648 -0.4462  0.1373  0.1837
 2819TIP3    H129948   2.616   1.793  11.559 -1.7844  2.4703  0.7897
 2819TIP3    H229949   2.509   1.764  11.662 -0.2587 -0.3367  1.6148
 2820TIP3   OH229950   3.379   0.831  13.470 -0.0268 -0.3193 -0.0402
 2820TIP3    H129951   3.382   0.921  13.504  0.1145  0.1706 -1.3095
 2820TIP3    H229952   3.469   0.799  13.480  0.9399  1.1570 -3.3886
 2821TIP3   OH229953   4.613   1.748  10.691  0.0917 -0.4295 -0.1133
 2821TIP3    H129954   4.617   1.755  10.787 -3.8736 -2.9367  0.3475
 2821TIP3    H229955   4.565   1.826  10.664 -1.3046 -1.1501  0.2509
 2822TIP3   OH229956   0.960   5.311  10.678  0.2995  0.3102  0.6762
 2822TIP3    H129957   0.930   5.375  10.743 -1.7751  0.9079 -0.8365
 2822TIP3    H229958   1.037   5.350  10.639 -0.5254  1.5711  0.2922
 2823TIP3   OH229959   3.547   0.485  10.063 -0.0632 -0.3986  0.3832
 2823TIP3    H129960   3.475   0.423  10.067  0.1288 -0.5706  1.2715
 2823TIP3    H229961   3.577   0.493  10.153  0.0657  0.8045  0.2423
 2824TIP3   OH229962   2.986   6.292  11.192  0.9030 -0.3573  0.4046
 2824TIP3    H129963   2.949   6.221  11.140 -0.1974  0.0247  0.6691
 2824TIP3    H229964   2.983   6.259  11.282  0.9185 -0.2036  0.4616
 2825TIP3   OH229965   6.651   4.725  11.091  0.5373 -0.3024 -0.1132
 2825TIP3    H129966   6.689   4.657  11.035 -0.8897 -1.9985  0.9456
 2825TIP3    H229967   6.580   4.762  11.039  0.1598 -0.8600  0.0061
 2826TIP3   OH229968   4.905   4.515   9.896  0.1625  0.4188 -0.7875
 2826TIP3    H129969   4.824   4.527   9.846 -1.0674  0.4754  1.1469
 2826TIP3    H229970   4.974   4.512   9.830 -1.2161  2.2183 -2.3764
 2827TIP3   OH229971   4.094   4.733  11.648  0.1548 -0.2439 -0.5645
 2827TIP3    H129972   4.142   4.687  11.579 -1.4068 -2.6505 -0.1001
 2827TIP3    H229973   4.042   4.798  11.602  0.6407 -0.4935 -1.4764
 2828TIP3   OH229974   3.597   5.091  10.402 -0.1351  0.4824 -0.3580
 2828TIP3    H129975   3.502   5.086  10.412 -0.0161  2.9098  3.0773
 2828TIP3    H229976   3.632   5.028  10.465  0.5118  2.0645  0.9165
 2829TIP3   OH229977   2.194   0.362  10.525  0.0010  0.3223  0.1273
 2829TIP3    H129978   2.106   0.351  10.561  0.5256 -0.7950  1.1339
 2829TIP3    H229979   2.181   0.376  10.432 -1.2616  0.4988  0.3275
 2830TIP3   OH229980   2.021   5.791   9.539  0.0043 -0.4972 -0.3855
 2830TIP3    H129981   2.105   5.810   9.581 -0.5775  0.6917  0.2625
 2830TIP3    H229982   2.003   5.869   9.486 -1.2391 -0.2601  0.3664
 2831TIP3   OH229983   1.461   4.435  12.344 -0.0973 -0.5229 -0.2935
 2831TIP3    H129984   1.480   4.468  12.256  1.8614 -0.0393  0.2794
 2831TIP3    H229985   1.501   4.500  12.403 -1.6854 -0.6508  0.9755
 2832TIP3   OH229986   6.866   5.253  11.100  0.5543  0.4862 -0.1554
 2832TIP3    H129987   6.846   5.306  11.023  0.0536  0.2401 -0.1960
 2832TIP3    H229988   6.821   5.298  11.172  1.3909  0.9675  0.0724
 2833TIP3   OH229989   2.296   0.418  10.084  0.2284 -0.4461 -0.9323
 2833TIP3    H129990   2.216   0.431  10.136 -0.1177  0.5837 -1.7050
 2833TIP3    H229991   2.265   0.374  10.005  0.3899  0.2114 -1.3588
 2834TIP3   OH229992   3.296   2.573  11.883 -0.2384 -0.0895 -0.3669
 2834TIP3    H129993   3.339   2.611  11.960  1.1863  0.4259 -1.3877
 2834TIP3    H229994   3.367   2.526  11.838 -0.8715  0.3180 -1.7982
 2835TIP3   OH229995   1.232   7.100  12.485  0.2102 -0.0462 -0.5756
 2835TIP3    H129996   1.253   7.095  12.392 -1.2025 -1.1853 -0.8621
 2835TIP3    H229997   1.136   7.098  12.487  0.2215  0.3990  0.8879
 2836TIP3   OH229998   0.385   2.859  10.210  0.3177  0.0030  0.0865
 2836TIP3    H129999   0.292   2.877  10.221  0.6556  0.5277  2.3427
 2836TIP3    H230000   0.397   2.851  10.115 -1.5283  2.6176 -0.4181
 2837TIP3   OH230001   6.351   6.649  10.639  0.5054  0.3630 -0.3164
 2837TIP3    H130002   6.322   6.586  10.706 -0.7876  0.5461 -0.7008
 2837TIP3    H230003   6.446   6.655  10.652  0.5117 -0.9595  0.3384
 2838TIP3   OH230004   0.366   4.924  10.660  0.0676  0.1957 -0.7253
 2838TIP3    H130005   0.409   4.881  10.587  0.6405 -2.1557  0.9470
 2838TIP3    H230006   0.281   4.952  10.625  0.4691 -0.5958 -2.3670
 2839TIP3   OH230007   6.977   6.687  13.343 -0.6067 -0.0786 -0.5394
 2839TIP3    H130008   6.933   6.728  13.268 -0.9331  0.0894 -0.2549
 2839TIP3    H230009   6.985   6.757  13.407 -0.1368 -0.1698 -0.4924
 2840TIP3   OH230010   3.969   1.847  10.857 -0.0533  0.2915  0.2104
 2840TIP3    H130011   3.926   1.924  10.895 -0.7861  0.4641 -0.9428
 2840TIP3    H230012   4.011   1.880  10.778  0.9311 -0.1944  0.5210
 2841TIP3   OH230013   2.814   5.406  10.303  0.1548 -0.0762  0.2197
 2841TIP3    H130014   2.850   5.347  10.237 -0.8006 -0.4780  0.0401
 2841TIP3    H230015   2.884   5.469  10.320  0.4935 -0.1030 -1.0211
 2842TIP3   OH230016   2.740   6.251  12.774 -0.0705 -0.4261  0.3433
 2842TIP3    H130017   2.751   6.341  12.742 -1.8729 -0.4607 -0.4590
 2842TIP3    H230018   2.829   6.219  12.788  0.6068  1.2633  0.0099
 2843TIP3   OH230019   6.404   1.704  11.430  0.0761 -0.4802  0.0847
 2843TIP3    H130020   6.328   1.672  11.383 -0.7638  0.2610  0.9182
 2843TIP3    H230021   6.369   1.740  11.512  1.2072  0.7204  0.0705
 2844TIP3   OH230022   6.109   6.314  10.145 -0.4263 -0.1132  0.7310
 2844TIP3    H130023   6.170   6.334  10.074  0.1744 -0.8414  1.0512
 2844TIP3    H230024   6.076   6.227  10.124  0.7732 -0.9023  2.0749
 2845TIP3   OH230025   7.138   7.143  13.877  0.6997 -0.1263 -0.4873
 2845TIP3    H130026   7.146   7.152  13.972  1.6913  0.9318 -0.6523
 2845TIP3    H230027   7.084   7.065  13.865  1.0718 -0.6305  0.9359
 2846TIP3   OH230028   3.188   3.811  13.852  0.8012 -0.2073  0.1511
 2846TIP3    H130029   3.129   3.868  13.804  0.5683 -0.1456  0.5064
 2846TIP3    H230030   3.165   3.824  13.944  0.8691 -0.7324  0.2453
 2847TIP3   OH230031   3.635   0.140  11.105 -0.3200  0.2570 -0.1657
 2847TIP3    H130032   3.682   0.148  11.187 -0.7273 -0.3333  0.1335
 2847TIP3    H230033   3.700   0.106  11.043 -0.1045  0.3741 -0.0021
 2848TIP3   OH230034   3.665   1.711  12.744 -0.2963  0.5344 -0.1655
 2848TIP3    H130035   3.700   1.747  12.663  1.6971  2.6854  1.5823
 2848TIP3    H230036   3.580   1.755  12.755  0.9174  2.7583  0.5721
 2849TIP3   OH230037   2.627   0.350  12.463  0.1240 -0.0729 -0.3905
 2849TIP3    H130038   2.597   0.439  12.481  0.3771  0.2608 -1.5474
 2849TIP3    H230039   2.645   0.312  12.549  0.2462  1.0787  0.0956
 2850TIP3   OH230040   3.615   6.499  12.184 -0.0916 -0.1943  0.1553
 2850TIP3    H130041   3.617   6.404  12.199 -3.4580 -0.2354  0.7863
 2850TIP3    H230042   3.597   6.537  12.270  1.1528  1.0256 -0.1127
 2851TIP3   OH230043   3.062   1.398  11.365  0.4467  0.1344 -0.1157
 2851TIP3    H130044   2.979   1.366  11.329  0.1943 -0.9955  1.4344
 2851TIP3    H230045   3.095   1.457  11.297 -0.8227 -0.6527 -1.4722
 2852TIP3   OH230046   6.907   3.947   9.877  0.0373 -0.4844 -0.0610
 2852TIP3    H130047   7.000   3.972   9.884 -0.6646  2.2907 -0.2207
 2852TIP3    H230048   6.908   3.851   9.884  3.3146 -0.8903 -3.9286
 2853TIP3   OH230049   7.175   4.613  12.653  0.1546 -0.5511 -0.7711
 2853TIP3    H130050   7.222   4.624  12.736 -0.6895  1.4583 -0.5097
 2853TIP3    H230051   7.230   4.555  12.601  2.0102  0.2967  0.1990
 2854TIP3   OH230052   2.959   1.271  13.527 -0.0100  0.2654 -0.2585
 2854TIP3    H130053   2.950   1.190  13.576  2.6495  0.9793  1.5514
 2854TIP3    H230054   2.952   1.340  13.593  2.6873  1.2782 -0.9242
 2855TIP3   OH230055   2.431   3.659  10.371 -0.1700 -0.4037 -0.5935
 2855TIP3    H130056   2.412   3.572  10.405  0.0498 -0.1409  0.2066
 2855TIP3    H230057   2.527   3.662  10.366 -0.1414  0.0674  0.1231
 2856TIP3   OH230058   1.657   0.033  10.708 -0.4913 -0.1114 -0.6394
 2856TIP3    H130059   1.745  -0.007  10.709  0.8692  2.8164  0.0028
 2856TIP3    H230060   1.669   0.115  10.660 -2.8672  0.3814 -0.4107
 2857TIP3   OH230061   3.231   6.657  13.628 -0.0545 -0.0442  0.0569
 2857TIP3    H130062   3.205   6.737  13.673  0.1253 -0.3038  0.6334
 2857TIP3    H230063   3.287   6.687  13.556 -1.4480  0.4731 -0.8362
 2858TIP3   OH230064   2.608   5.711  11.840 -0.1293  0.1329 -0.4119
 2858TIP3    H130065   2.555   5.695  11.918  1.3115 -1.4189  0.2961
 2858TIP3    H230066   2.684   5.758  11.872  0.1957 -0.0119 -0.9686
 2859TIP3   OH230067   5.743   1.168  10.131 -0.6033  0.3212 -0.5152
 2859TIP3    H130068   5.696   1.085  10.134  0.5996 -0.3502  3.3455
 2859TIP3    H230069   5.691   1.227  10.186  1.1000  0.6412  0.7933
 2860TIP3   OH230070   3.635   5.658  14.561  0.0996 -0.0421 -0.5254
 2860TIP3    H130071   3.581   5.590  14.520 -0.2125 -0.8915  1.2391
 2860TIP3    H230072   3.719   5.616  14.578  1.2585  1.1694 -2.9098
 2861TIP3   OH230073   1.521   5.722  12.335 -0.3937 -0.0321 -0.1814
 2861TIP3    H130074   1.502   5.751  12.425  2.8321  0.8322  0.2983
 2861TIP3    H230075   1.466   5.778  12.280  1.8431  3.5979  1.0251
 2862TIP3   OH230076   3.761   1.773  12.278 -0.0860 -0.7498 -0.3620
 2862TIP3    H130077   3.694   1.743  12.216  0.2107 -1.5730 -0.2860
 2862TIP3    H230078   3.754   1.714  12.352  1.0586 -1.1582 -0.5655
 2863TIP3   OH230079   5.711   7.116  11.548  0.3654 -0.0463 -0.0303
 2863TIP3    H130080   5.682   7.083  11.464  0.5869  0.1163 -0.1703
 2863TIP3    H230081   5.774   7.185  11.527  0.6187 -0.1827  0.2712
 2864TIP3   OH230082   3.170   6.824  10.686  0.4831 -0.6174 -0.2706
 2864TIP3    H130083   3.110   6.762  10.726  0.4247 -0.4280 -0.0692
 2864TIP3    H230084   3.136   6.835  10.597 -0.2521  0.1193  0.1008
 2865TIP3   OH230085   2.775   0.371  13.862  0.5064  0.0149 -0.0642
 2865TIP3    H130086   2.763   0.283  13.897  1.8014  0.1628  0.8075
 2865TIP3    H230087   2.774   0.428  13.940  0.9160  0.6270 -0.4998
 2866TIP3   OH230088   4.267   0.002  11.447  0.7576 -0.0916 -0.5784
 2866TIP3    H130089   4.212   0.063  11.496  0.8387  0.1715 -0.8161
 2866TIP3    H230090   4.241   0.013  11.356  1.3934  0.2221 -0.7232
 2867TIP3   OH230091   5.631   6.500  13.469 -0.2037  0.1677  0.3420
 2867TIP3    H130092   5.608   6.433  13.533 -2.1309  0.4890  0.0039
 2867TIP3    H230093   5.613   6.583  13.512 -2.7405  0.3665 -1.0354
 2868TIP3   OH230094   2.586   6.886  11.682  0.2727 -0.1328  0.0294
 2868TIP3    H130095   2.600   6.930  11.766 -1.5298 -1.9407  1.3197
 2868TIP3    H230096   2.509   6.930  11.645  1.6517  1.3347 -1.1939
 2869TIP3   OH230097   3.489   4.969   9.984  0.4290 -0.6364 -0.3363
 2869TIP3    H130098   3.478   4.890   9.932  0.9392 -1.1980  0.4086
 2869TIP3    H230099   3.448   5.038   9.932 -2.4128 -1.8465  0.1912
 2870TIP3   OH230100   3.825   1.244  13.105 -0.3667  0.1507 -0.2889
 2870TIP3    H130101   3.876   1.226  13.184  1.4639  2.0375 -1.0140
 2870TIP3    H230102   3.736   1.216  13.127  0.4335 -0.7675  1.8907
 2871TIP3   OH230103   0.834   7.087  10.052  0.1573  0.5154 -0.5715
 2871TIP3    H130104   0.881   7.109  10.132 -0.4543 -3.1525  0.8831
 2871TIP3    H230105   0.903   7.064   9.989  0.5004 -0.3430  0.1119
 2872TIP3   OH230106   4.249   3.697  11.094 -0.2796  0.1519 -0.4030
 2872TIP3    H130107   4.257   3.738  11.009 -1.5771  0.5439 -0.3565
 2872TIP3    H230108   4.201   3.761  11.148 -1.4088 -0.9585 -0.0361
 2873TIP3   OH230109   0.238   6.116  12.790 -0.2764  0.7832 -0.2675
 2873TIP3    H130110   0.174   6.050  12.818 -1.0169  0.8377 -1.7588
 2873TIP3    H230111   0.293   6.130  12.866 -1.3269 -0.1360  0.6840
 2874TIP3   OH230112   6.150   1.324  11.292 -0.5230 -0.2357 -0.3355
 2874TIP3    H130113   6.147   1.349  11.199 -0.5200  1.3989  0.0864
 2874TIP3    H230114   6.157   1.228  11.291  0.1470 -0.1846 -2.0310
 2875TIP3   OH230115   0.031   0.582  11.212  0.0483 -0.0218  0.1091
 2875TIP3    H130116   0.028   0.581  11.307  0.1094 -0.4645  0.1073
 2875TIP3    H230117   0.061   0.494  11.187 -2.3790 -0.7611 -0.3936
 2876TIP3   OH230118   1.577   5.508   9.773 -0.2643 -0.4239  0.3594
 2876TIP3    H130119   1.608   5.516   9.864 -1.3717 -1.2555  0.8178
 2876TIP3    H230120   1.484   5.526   9.778 -0.7951 -2.8296 -0.2351
 2877TIP3   OH230121   0.264   2.608  11.052 -0.1696  0.0221 -0.7393
 2877TIP3    H130122   0.269   2.557  11.132  0.5802  2.1354  0.6012
 2877TIP3    H230123   0.170   2.615  11.034 -0.2832 -2.0095 -1.1173
 2878TIP3   OH230124   2.926   4.138  14.289 -0.2918 -0.7328 -0.0210
 2878TIP3    H130125   2.915   4.182  14.374  1.1882 -2.5508  1.1541
 2878TIP3    H230126   2.989   4.193  14.242  0.3217 -0.7209  0.7948
 2879TIP3   OH230127   0.862   6.569  10.227 -0.2651 -0.0059 -0.0342
 2879TIP3    H130128   0.949   6.551  10.192  0.1937 -0.5015  1.3204
 2879TIP3    H230129   0.855   6.665  10.224  0.5793  0.0779  0.4480
 2880TIP3   OH230130   4.310   4.918  13.814 -0.2112 -0.0091 -0.0535
 2880TIP3    H130131   4.265   4.915  13.729 -1.0886 -1.8138  0.4517
 2880TIP3    H230132   4.261   4.983  13.864 -0.4411  0.1775 -0.5097
 2881TIP3   OH230133   3.023   6.649  10.819 -0.3496  0.0558  0.1119
 2881TIP3    H130134   3.038   6.555  10.804 -1.2931 -0.0083 -0.4645
 2881TIP3    H230135   2.931   6.654  10.846 -0.2313  0.7931  0.3907
 2882TIP3   OH230136   1.064   5.955  11.501  0.1647  0.8044 -0.1476
 2882TIP3    H130137   1.039   5.865  11.479 -0.3524  0.5533  1.3501
 2882TIP3    H230138   0.996   6.009  11.461 -2.6790  0.1628  3.4730
 2883TIP3   OH230139   6.814   0.669   1.082 -0.2714 -0.3738  0.2311
 2883TIP3    H130140   6.769   0.609   1.142 -1.5322  1.8723  1.5715
 2883TIP3    H230141   6.822   0.751   1.131  0.1277  1.0157 -2.0901
 2884TIP3   OH230142   2.411   6.321   9.819 -0.0797 -0.0077  0.5113
 2884TIP3    H130143   2.367   6.383   9.761 -0.2252  0.9182  1.5992
 2884TIP3    H230144   2.501   6.319   9.787  0.1546  1.4741  1.0308
 2885TIP3   OH230145   4.052   5.095   9.554  0.2029  0.2473 -0.1764
 2885TIP3    H130146   4.042   5.178   9.600 -0.5305 -0.3230  0.7165
 2885TIP3    H230147   3.967   5.052   9.564 -0.4126  0.6642 -3.2304
 2886TIP3   OH230148   1.286   5.771  11.021  0.0953 -0.0202 -0.5552
 2886TIP3    H130149   1.357   5.712  11.044 -0.1380 -0.6301 -1.3953
 2886TIP3    H230150   1.323   5.829  10.954 -0.4408 -0.9164 -1.6577
 2887TIP3   OH230151   1.213   6.547  11.354  0.4545 -0.0913 -0.2948
 2887TIP3    H130152   1.302   6.537  11.320  0.1955  0.9945 -1.3372
 2887TIP3    H230153   1.179   6.625  11.309 -1.7551 -1.7004 -1.5188
 2888TIP3   OH230154   3.028   5.164   9.566  0.0011  0.5785 -0.2278
 2888TIP3    H130155   3.022   5.192   9.475 -1.7500  1.1562  0.0460
 2888TIP3    H230156   3.089   5.227   9.606  0.9488  0.1850 -1.0302
 2889TIP3   OH230157   5.154   4.706  15.519  0.3354  0.1295  0.0690
 2889TIP3    H130158   5.133   4.680  15.430  0.4644 -1.0721  0.3718
 2889TIP3    H230159   5.230   4.763  15.511  1.0811 -0.9324 -0.5059
 2890TIP3   OH230160   1.860   2.724  11.126  0.4275  0.2096  0.0275
 2890TIP3    H130161   1.797   2.783  11.085  0.2272  0.4701  0.6892
 2890TIP3    H230162   1.886   2.770  11.206  1.3251  0.0225 -0.1520
 2891TIP3   OH230163   1.827   4.837  10.974 -0.1545  0.3258 -0.7226
 2891TIP3    H130164   1.792   4.855  10.887 -0.2426 -1.0325 -0.9697
 2891TIP3    H230165   1.751   4.848  11.032 -0.0383  1.4840 -0.7725
 2892TIP3   OH230166   5.034   5.530  10.975 -0.8777  0.4901  1.0131
 2892TIP3    H130167   5.009   5.469  11.045  0.2439 -0.1560  0.8585
 2892TIP3    H230168   5.078   5.475  10.911 -0.5426  1.3491  0.5068
 2893TIP3   OH230169   0.681   0.520  10.155  0.1077  0.0277  0.2817
 2893TIP3    H130170   0.760   0.505  10.207  0.6083 -2.5865 -1.1848
 2893TIP3    H230171   0.713   0.529  10.065 -1.1453  0.4636 -0.1307
 2894TIP3   OH230172   5.741   4.761  11.239 -0.7938 -0.6652  0.1062
 2894TIP3    H130173   5.829   4.775  11.275 -1.9687 -1.0476  3.3169
 2894TIP3    H230174   5.748   4.679  11.190  0.6873 -0.6166  0.2072
 2895TIP3   OH230175   3.989   5.482  13.114  0.1651 -0.0555 -0.5049
 2895TIP3    H130176   4.019   5.443  13.196 -0.8427 -0.9650 -0.5534
 2895TIP3    H230177   4.003   5.576  13.125 -1.4877  0.0044  1.3881
 2896TIP3   OH230178   0.427   3.583  12.373 -0.3119 -0.0334  0.1018
 2896TIP3    H130179   0.459   3.493  12.376  0.1607  0.1224 -0.1517
 2896TIP3    H230180   0.411   3.600  12.280 -1.9823 -0.3937  0.2999
 2897TIP3   OH230181   4.083   3.422  13.534  0.2257  0.8590 -0.2404
 2897TIP3    H130182   4.076   3.455  13.444 -0.3087 -1.0397 -0.9083
 2897TIP3    H230183   3.996   3.435  13.572  0.1334  0.6056 -0.3667
 2898TIP3   OH230184   3.430   5.855   9.718 -0.3598  0.1720  0.4750
 2898TIP3    H130185   3.460   5.861   9.627  0.0519 -0.1677  0.5857
 2898TIP3    H230186   3.334   5.850   9.711 -0.2888 -0.5926  0.0264
 2899TIP3   OH230187   4.665   0.394  12.556  0.1191  0.1105 -0.0856
 2899TIP3    H130188   4.572   0.408  12.572  0.0777  1.0688 -1.1523
 2899TIP3    H230189   4.679   0.302  12.578 -0.6016  0.5403  2.2950
 2900TIP3   OH230190   4.211   7.176  11.949  0.2681  0.3638  0.0202
 2900TIP3    H130191   4.116   7.182  11.951  0.2886  2.1568 -2.0881
 2900TIP3    H230192   4.229   7.120  11.873  0.8954  0.7761 -0.1427
 2901TIP3   OH230193   4.621   6.577  10.933 -0.4881  0.4207 -0.2286
 2901TIP3    H130194   4.624   6.564  10.839 -0.2346  0.7990 -0.2748
 2901TIP3    H230195   4.645   6.669  10.945  1.6427 -0.1883  0.3407
 2902TIP3   OH230196   5.293   5.339  11.029  0.2877  0.3782 -0.5616
 2902TIP3    H130197   5.329   5.252  11.043  0.1611  0.3754 -0.2630
 2902TIP3    H230198   5.256   5.335  10.940  4.4354  1.5432 -2.4610
 2903TIP3   OH230199   5.164   4.777  11.917  0.3692 -0.2187  0.1469
 2903TIP3    H130200   5.115   4.850  11.955  0.4165 -0.2063  0.1829
 2903TIP3    H230201   5.216   4.742  11.989  1.2802  0.4864 -0.1606
 2904TIP3   OH230202   6.862   3.180  10.236  0.1381 -0.1445  0.0779
 2904TIP3    H130203   6.871   3.222  10.321 -0.8111 -0.1693  0.1932
 2904TIP3    H230204   6.781   3.129  10.243  0.8719 -1.3845 -0.3143
 2905TIP3   OH230205   4.347   4.721  13.590  0.3678 -0.0020  0.3575
 2905TIP3    H130206   4.285   4.649  13.593 -0.5333  0.8058  1.3466
 2905TIP3    H230207   4.383   4.727  13.678  0.1378  1.0118  0.3951
 2906TIP3   OH230208   5.501   4.092  11.155  0.4302  0.3621  0.0611
 2906TIP3    H130209   5.507   4.137  11.071 -1.4071 -3.3541 -2.2079
 2906TIP3    H230210   5.423   4.129  11.197  1.5349  2.4631  0.3091
 2907TIP3   OH230211   6.730   5.197   9.722 -0.0897  0.0888  0.3992
 2907TIP3    H130212   6.808   5.142   9.724  1.5283  2.1810 -2.1313
 2907TIP3    H230213   6.664   5.142   9.679  1.3099 -0.1788 -1.5022
 2908TIP3   OH230214   4.452   0.268  10.503 -0.1744 -0.6574  0.5392
 2908TIP3    H130215   4.502   0.258  10.422 -1.1223 -0.3365 -0.0844
 2908TIP3    H230216   4.477   0.355  10.535  1.7865 -1.5876  1.7019
 2909TIP3   OH230217   4.848   6.446   9.712  0.4616  0.3307  1.0888
 2909TIP3    H130218   4.941   6.423   9.713  0.0878 -1.3352 -0.6276
 2909TIP3    H230219   4.837   6.500   9.633  0.1962  1.5951  1.9660
 2910TIP3   OH230220   3.164   0.400   9.869  0.0827 -0.6292 -0.3117
 2910TIP3    H130221   3.226   0.353   9.924  1.8966 -0.3594 -2.0567
 2910TIP3    H230222   3.081   0.396   9.916  1.7218  0.2019  2.7677
 2911TIP3   OH230223   4.349   0.879  12.933  0.6897  0.0564 -0.3563
 2911TIP3    H130224   4.419   0.840  12.985  0.1907 -1.1576 -0.5858
 2911TIP3    H230225   4.395   0.929  12.865  1.3640 -1.9739 -1.4309
 2912TIP3   OH230226   3.711   2.632  11.973 -0.6628 -0.0310 -0.4319
 2912TIP3    H130227   3.743   2.549  12.011 -0.6288  1.1726  2.2588
 2912TIP3    H230228   3.619   2.616  11.954  0.0877 -1.7021 -2.9875
 2913TIP3   OH230229   5.073   2.152  12.517  0.0942 -0.4731 -0.2709
 2913TIP3    H130230   5.023   2.126  12.595 -0.7038  1.5663 -0.0517
 2913TIP3    H230231   5.006   2.181  12.455  0.8373 -0.3848 -1.0271
 2914TIP3   OH230232   5.967   4.181  14.281 -0.3929  0.5174  0.5113
 2914TIP3    H130233   5.879   4.147  14.295 -1.0193  2.3779  1.2791
 2914TIP3    H230234   6.006   4.181  14.369  0.0456  0.6019  0.3184
 2915TIP3   OH230235   6.605   6.725  12.244  0.4084  0.2691 -0.1283
 2915TIP3    H130236   6.519   6.766  12.251  0.9222  1.6301 -1.4940
 2915TIP3    H230237   6.598   6.666  12.169 -0.3030 -2.1222  1.7788
 2916TIP3   OH230238   6.792   6.835  11.978  0.2079 -0.3664  0.1004
 2916TIP3    H130239   6.802   6.781  12.056 -1.7711 -0.4227  0.3242
 2916TIP3    H230240   6.698   6.844  11.966  0.4965  0.7761 -1.5038
 2917TIP3   OH230241   4.393   6.105  11.982  0.1626  0.1276  0.1389
 2917TIP3    H130242   4.377   6.198  11.969  2.0633  0.9152  3.0872
 2917TIP3    H230243   4.337   6.081  12.056  1.4751 -0.4749  0.9606
 2918TIP3   OH230244   6.550   0.294   9.922  0.0795 -0.1889 -0.0300
 2918TIP3    H130245   6.494   0.354   9.873  0.9374 -0.1520 -0.9721
 2918TIP3    H230246   6.616   0.266   9.859  0.4485 -1.1217  0.7627
 2919TIP3   OH230247   4.377   3.473  11.191  0.4739 -0.4583  0.3683
 2919TIP3    H130248   4.350   3.538  11.127  1.7918 -0.3210 -0.0500
 2919TIP3    H230249   4.349   3.510  11.275  2.2354  1.1937  0.2495
 2920TIP3   OH230250   0.416   3.772  11.356  0.0668 -0.5240  0.3610
 2920TIP3    H130251   0.353   3.756  11.286  0.2205 -1.5250  0.4435
 2920TIP3    H230252   0.460   3.688  11.368  0.1775 -0.3086  1.5134
 2921TIP3   OH230253   4.275   5.601  10.903  0.6258 -0.1829  0.4934
 2921TIP3    H130254   4.371   5.604  10.909  0.5778 -0.2536  1.3174
 2921TIP3    H230255   4.245   5.612  10.993 -0.0741 -2.9607  0.6485
 2922TIP3   OH230256   3.210   6.121   9.873  0.3232  0.3122  1.0924
 2922TIP3    H130257   3.193   6.210   9.842 -0.1409  0.2875  1.2718
 2922TIP3    H230258   3.177   6.064   9.804 -1.1902  0.2495  1.8636
 2923TIP3   OH230259   6.777   4.838  11.965 -0.3702 -0.8577 -0.2217
 2923TIP3    H130260   6.825   4.921  11.968 -1.3949 -0.1262 -2.9207
 2923TIP3    H230261   6.833   4.779  11.915 -1.5981 -0.4130 -2.1840
 2924TIP3   OH230262   6.591   0.597  10.634 -0.2758  0.3059  0.3436
 2924TIP3    H130263   6.555   0.685  10.645 -1.1982  0.2334 -1.8985
 2924TIP3    H230264   6.635   0.579  10.717  0.2787  3.0454  0.6961
 2925TIP3   OH230265   2.673   6.055  11.967  0.1190  0.0208  0.6505
 2925TIP3    H130266   2.633   6.064  11.881 -0.2351 -0.4523  0.7615
 2925TIP3    H230267   2.600   6.034  12.025  0.5834 -1.2778  0.7777
 2926TIP3   OH230268   4.093   4.210  10.165  0.0592 -0.2587 -0.3794
 2926TIP3    H130269   4.098   4.288  10.111  2.1388 -0.1312 -0.0449
 2926TIP3    H230270   4.002   4.179  10.156  0.4746 -0.5159 -4.2809
 2927TIP3   OH230271   3.587   5.690  12.992 -0.6751 -0.1851 -0.5511
 2927TIP3    H130272   3.616   5.777  13.021 -3.5725  0.7079 -0.1121
 2927TIP3    H230273   3.553   5.705  12.903 -2.3935 -0.5503  0.0117
 2928TIP3   OH230274   5.601   5.755   0.563  0.8424  0.3015 -0.2294
 2928TIP3    H130275   5.531   5.713   0.612  0.3945 -0.7114 -1.6951
 2928TIP3    H230276   5.566   5.840   0.539  1.3764  1.1391  1.9003
 2929TIP3   OH230277   1.281   0.454  11.902  0.1846  0.3898  0.0013
 2929TIP3    H130278   1.188   0.430  11.898 -0.0723  1.3178  0.3166
 2929TIP3    H230279   1.315   0.405  11.977 -0.0280 -0.0096 -0.1606
 2930TIP3   OH230280   2.351   6.857  10.573 -0.1279  0.2149 -0.3695
 2930TIP3    H130281   2.329   6.905  10.653 -1.1776 -0.6455 -0.1168
 2930TIP3    H230282   2.445   6.870  10.562  0.0832  0.1309  1.1527
 2931TIP3   OH230283   4.041   5.813  10.477  0.2195  0.2918 -0.2875
 2931TIP3    H130284   4.097   5.772  10.411  1.1835  0.8315  0.1820
 2931TIP3    H230285   4.069   5.774  10.559 -2.5960 -2.1480 -0.4142
 2932TIP3   OH230286   3.975   5.359  14.783 -0.0214  0.0182  0.3118
 2932TIP3    H130287   3.985   5.268  14.756 -1.7590  0.0171 -0.4215
 2932TIP3    H230288   3.911   5.356  14.854 -2.3407  0.9173 -1.6578
 2933TIP3   OH230289   3.064   3.849  10.438  0.3484 -0.4496 -0.1437
 2933TIP3    H130290   3.135   3.803  10.483 -0.9363 -2.2030  0.1617
 2933TIP3    H230291   2.986   3.795  10.456 -0.8022  0.7127 -1.5743
 2934TIP3   OH230292   4.260   4.836  10.637 -1.1055 -0.2839 -0.4924
 2934TIP3    H130293   4.198   4.899  10.600  0.2892  1.0660 -0.6015
 2934TIP3    H230294   4.343   4.884  10.641  0.1314 -2.3022 -1.1266
 2935TIP3   OH230295   0.759   6.381   9.984  0.3155  0.2599  0.1617
 2935TIP3    H130296   0.819   6.307   9.973 -0.9801 -1.0530  1.6468
 2935TIP3    H230297   0.815   6.451  10.019  1.4135 -0.2294 -0.5743
 2936TIP3   OH230298   6.033   6.117  13.066 -0.5861  0.3976  0.0680
 2936TIP3    H130299   5.945   6.153  13.071 -0.0622  1.5235  1.5620
 2936TIP3    H230300   6.047   6.076  13.152 -0.3067 -1.3670 -0.7827
 2937TIP3   OH230301   3.615   6.119  10.423  0.1206  0.0404 -0.3209
 2937TIP3    H130302   3.658   6.204  10.410 -0.7937  0.7095  0.8510
 2937TIP3    H230303   3.550   6.114  10.354  0.0153  0.4090 -0.2495
 2938TIP3   OH230304   0.284   2.294  13.680  0.4509 -0.5931 -0.2484
 2938TIP3    H130305   0.345   2.279  13.753 -0.8453 -1.3476  0.7132
 2938TIP3    H230306   0.216   2.227  13.692  0.0074 -0.4633 -1.9266
 2939TIP3   OH230307   0.424   6.641  13.956 -0.0232 -0.3783 -0.4584
 2939TIP3    H130308   0.493   6.673  13.898 -2.6357  0.9532 -2.9847
 2939TIP3    H230309   0.426   6.699  14.032 -0.7861  2.0630 -2.2537
 2940TIP3   OH230310   5.635   3.576   9.928 -0.3021  0.6747  0.2906
 2940TIP3    H130311   5.576   3.645   9.898 -0.5306  0.6538  0.6896
 2940TIP3    H230312   5.584   3.496   9.920  0.2019  0.4526 -0.8554
 2941TIP3   OH230313   1.628   0.781  12.899 -0.4287 -0.0436  0.2415
 2941TIP3    H130314   1.700   0.814  12.846 -0.9002  0.2587 -0.2214
 2941TIP3    H230315   1.568   0.855  12.908 -1.0162 -0.4870  0.0390
 2942TIP3   OH230316   4.260   6.598   9.736 -0.7207  0.0515 -0.0977
 2942TIP3    H130317   4.166   6.588   9.754 -0.5003 -0.7313  0.6555
 2942TIP3    H230318   4.263   6.646   9.653 -1.7618  3.5219  1.7621
 2943TIP3   OH230319   2.278   0.026  11.384  0.2772 -0.2949 -0.0093
 2943TIP3    H130320   2.304  -0.061  11.414 -0.5322 -0.8607 -0.9211
 2943TIP3    H230321   2.231   0.064  11.458 -1.2036 -1.4507 -0.3440
 2944TIP3   OH230322   3.189   5.936  12.145 -0.6472 -0.3321  0.2184
 2944TIP3    H130323   3.163   6.017  12.100 -0.7206 -0.2980  0.3208
 2944TIP3    H230324   3.242   5.966  12.219 -0.6081 -0.3825  0.2102
 2945TIP3   OH230325   5.544   4.867  11.400  0.1623 -0.0182 -1.3256
 2945TIP3    H130326   5.601   4.825  11.336 -0.7984 -2.5000 -0.6163
 2945TIP3    H230327   5.598   4.881  11.477  0.7826  1.1153 -1.9537
 2946TIP3   OH230328   6.740   0.255  11.544 -0.2562  0.2555 -0.0409
 2946TIP3    H130329   6.826   0.233  11.578 -0.5615  0.5144  0.9052
 2946TIP3    H230330   6.756   0.277  11.452  0.5630 -0.4716 -0.0797
 2947TIP3   OH230331   4.729   5.655   9.860 -0.3431 -0.1311 -0.5325
 2947TIP3    H130332   4.770   5.740   9.848  1.0434 -0.6552  0.3566
 2947TIP3    H230333   4.720   5.619   9.772 -3.0790  1.8932 -1.1256
 2948TIP3   OH230334   3.021   3.714  10.931  0.4169 -0.7618 -0.2647
 2948TIP3    H130335   3.055   3.626  10.941  0.2173 -0.8468 -0.3292
 2948TIP3    H230336   3.080   3.769  10.982 -0.6433 -1.1877  1.4708
 2949TIP3   OH230337   6.451   4.891  12.339  0.2755 -0.2156 -0.0651
 2949TIP3    H130338   6.530   4.846  12.308  0.5952 -0.0604  0.5119
 2949TIP3    H230339   6.473   4.918  12.428 -0.9752 -1.5016  0.6587
 2950TIP3   OH230340   6.265   5.180  10.320  0.0812  0.1132  0.2227
 2950TIP3    H130341   6.318   5.226  10.386 -1.2699  0.7124  0.9201
 2950TIP3    H230342   6.210   5.121  10.371  0.8252 -1.2773 -0.5769
 2951TIP3   OH230343   1.567   4.527  11.471 -0.4118 -0.4591 -0.7173
 2951TIP3    H130344   1.595   4.542  11.561  0.6986 -0.1986 -1.0875
 2951TIP3    H230345   1.477   4.494  11.478  0.1444 -1.7900  0.5575
 2952TIP3   OH230346   1.903   4.133  11.224  0.1208 -0.4239  0.5367
 2952TIP3    H130347   1.931   4.225  11.221  0.7439 -0.5570  2.1157
 2952TIP3    H230348   1.973   4.086  11.178 -2.0793  0.2877 -3.8043
 2953TIP3   OH230349   5.052   6.251  10.019 -0.6920 -0.5716 -0.7484
 2953TIP3    H130350   5.066   6.250  10.114 -4.0303  0.1411 -0.1734
 2953TIP3    H230351   5.062   6.160   9.992  0.3938 -0.7653  0.2818
 2954TIP3   OH230352   1.238   4.218  11.715 -0.3783 -0.5652  0.2160
 2954TIP3    H130353   1.185   4.296  11.698 -0.4716 -1.0582 -1.8798
 2954TIP3    H230354   1.327   4.250  11.727 -0.3217 -0.1571 -1.1879
 2955TIP3   OH230355   4.666   3.360  12.982  0.1491  0.0490 -0.0971
 2955TIP3    H130356   4.743   3.407  12.950 -0.5992  1.4432  0.0815
 2955TIP3    H230357   4.610   3.352  12.905  0.0854 -0.1645 -0.0279
 2956TIP3   OH230358   4.100   1.999  11.168  0.0733  0.1002  0.1094
 2956TIP3    H130359   4.074   1.909  11.150  1.3293 -0.3102  0.2524
 2956TIP3    H230360   4.163   1.992  11.240  0.3850  1.0638 -0.0535
 2957TIP3   OH230361   5.280   4.472  11.900 -0.1230  0.5556 -0.0504
 2957TIP3    H130362   5.184   4.482  11.904 -0.2070 -0.2845  0.1910
 2957TIP3    H230363   5.314   4.557  11.928 -0.7957  0.1302  2.1206
 2958TIP3   OH230364   0.681   6.814  12.236 -0.0935  0.0846  0.3136
 2958TIP3    H130365   0.614   6.881  12.230 -0.4907 -0.0918  2.4717
 2958TIP3    H230366   0.764   6.862  12.239 -0.1958  0.3510 -0.9782
 2959TIP3   OH230367   2.012   2.347  11.953 -0.0388  0.2135 -0.4225
 2959TIP3    H130368   2.088   2.289  11.941 -0.6788 -0.3028 -2.1314
 2959TIP3    H230369   1.939   2.300  11.912 -1.1806  0.9354  0.7515
 2960TIP3   OH230370   5.526   0.014  10.354 -0.2521 -0.6123 -0.1583
 2960TIP3    H130371   5.467  -0.044  10.306 -0.8232 -0.1423 -0.0293
 2960TIP3    H230372   5.563   0.071  10.287 -0.6236 -0.3238 -0.1198
 2961TIP3   OH230373   0.704   0.731  11.459  0.2737  0.0301 -0.1063
 2961TIP3    H130374   0.638   0.790  11.495  0.6140  0.3800 -0.0555
 2961TIP3    H230375   0.654   0.654  11.432  0.0110 -0.2578  1.1453
 2962TIP3   OH230376   5.896   5.560  11.485 -0.6650 -0.2095  0.1567
 2962TIP3    H130377   5.929   5.623  11.421  0.9947  0.2909  1.4590
 2962TIP3    H230378   5.916   5.601  11.570 -3.1819 -0.6675  0.9904
 2963TIP3   OH230379   0.092   4.341  10.107  0.1087  0.4294  0.4502
 2963TIP3    H130380   0.125   4.313  10.022 -0.6547  0.2272  0.2174
 2963TIP3    H230381   0.009   4.386  10.088  0.5913  1.5517  0.9627
 2964TIP3   OH230382   4.043   3.365  11.318  0.0981 -0.2136 -0.1054
 2964TIP3    H130383   4.002   3.289  11.277  0.7990 -1.7650  2.0101
 2964TIP3    H230384   4.129   3.333  11.347  0.7437  1.6118  0.0644
 2965TIP3   OH230385   6.821   4.870  13.167  0.2846  0.3155 -0.1246
 2965TIP3    H130386   6.752   4.805  13.180 -0.1606  1.0040  0.9865
 2965TIP3    H230387   6.775   4.953  13.158  0.9554  0.7750  0.6117
 2966TIP3   OH230388   0.753   5.787  10.321 -0.8287  0.0786 -0.1062
 2966TIP3    H130389   0.729   5.753  10.408  0.4317  0.7807  0.5376
 2966TIP3    H230390   0.710   5.728  10.260 -2.3793  0.0254  0.9979
 2967TIP3   OH230391   1.669   6.477  10.636 -0.1029 -0.1583 -0.0950
 2967TIP3    H130392   1.702   6.443  10.553  1.0950 -0.3781  0.4535
 2967TIP3    H230393   1.733   6.544  10.661 -1.2687  0.9849 -0.0962
 2968TIP3   OH230394   6.680   4.094   9.809  0.0832  0.6528 -0.3307
 2968TIP3    H130395   6.721   4.178   9.827  2.3036 -0.1952 -1.3230
 2968TIP3    H230396   6.735   4.030   9.854 -0.0736 -0.5096 -1.7568
 2969TIP3   OH230397   5.787   4.105  13.980 -0.2128 -0.1113  0.6043
 2969TIP3    H130398   5.730   4.125  14.054 -0.6552 -0.5557  0.3857
 2969TIP3    H230399   5.816   4.015  13.995 -0.6967 -0.3737 -0.0083
 2970TIP3   OH230400   3.685   0.380  11.321  0.0238  0.2983  0.8930
 2970TIP3    H130401   3.767   0.405  11.280  1.4359 -1.6560  2.4400
 2970TIP3    H230402   3.663   0.453  11.379  1.7326 -0.0407  1.9844
 2971TIP3   OH230403   0.996   0.876  13.921 -0.6629  0.5985  0.2908
 2971TIP3    H130404   0.969   0.941  13.986  0.3245  1.3405 -0.0166
 2971TIP3    H230405   1.089   0.894  13.907 -0.4865 -0.5961 -0.1402
 2972TIP3   OH230406   3.752   1.042  13.953 -0.2117  0.4989 -0.2829
 2972TIP3    H130407   3.822   1.035  13.888 -0.0472 -1.8773  0.0958
 2972TIP3    H230408   3.761   1.130  13.988  1.2208  0.9814 -1.7687
 2973TIP3   OH230409   3.337   5.130   9.809 -0.6578  0.2478 -0.0528
 2973TIP3    H130410   3.256   5.092   9.842 -0.4728 -0.0087  0.1024
 2973TIP3    H230411   3.308   5.206   9.758 -1.0647 -0.4032 -0.8019
 2974TIP3   OH230412   4.635   6.925   9.365 -0.7567 -0.3441  0.2668
 2974TIP3    H130413   4.614   7.008   9.407  1.0868 -0.6606  1.8498
 2974TIP3    H230414   4.709   6.945   9.307 -1.0540 -0.6521 -0.2264
 2975TIP3   OH230415   2.909   6.245  10.263 -0.0563 -0.6441  0.3422
 2975TIP3    H130416   2.820   6.239  10.298 -0.5403 -1.1359 -0.9032
 2975TIP3    H230417   2.922   6.161  10.218  0.7585 -0.2820 -0.1114
 2976TIP3   OH230418   0.269   5.604  10.996 -0.0342  0.4053 -0.0552
 2976TIP3    H130419   0.326   5.609  11.073 -0.6793  3.4879  0.2643
 2976TIP3    H230420   0.183   5.584  11.033  0.1872 -0.9705 -0.2550
 2977TIP3   OH230421   2.755   6.586  11.322 -0.1488 -0.3416  0.3772
 2977TIP3    H130422   2.839   6.566  11.362 -0.9959 -0.2817  2.2385
 2977TIP3    H230423   2.708   6.637  11.388 -1.2273  0.5531 -1.0553
 2978TIP3   OH230424   6.894   6.728  10.634 -0.4252 -0.0739 -0.5028
 2978TIP3    H130425   6.959   6.657  10.637 -1.0052 -0.6096 -0.6023
 2978TIP3    H230426   6.934   6.794  10.576  0.8344  0.4042  0.8749
 2979TIP3   OH230427   6.422   3.410  13.075  0.3291 -0.0112 -0.1513
 2979TIP3    H130428   6.401   3.371  12.990 -2.1360 -1.1783  0.9537
 2979TIP3    H230429   6.512   3.382  13.092 -0.5165 -3.1587 -0.5424
 2980TIP3   OH230430   3.482   1.312  10.487  0.0531  0.0240 -0.3943
 2980TIP3    H130431   3.528   1.396  10.480  2.7263 -1.5694 -2.5402
 2980TIP3    H230432   3.413   1.317  10.421 -0.6332  1.0262  0.3839
 2981TIP3   OH230433   4.760   1.888  10.196  0.8420 -0.4461 -0.2739
 2981TIP3    H130434   4.712   1.957  10.150 -0.4207 -0.0593  1.5602
 2981TIP3    H230435   4.692   1.831  10.232  1.8702 -2.6463 -1.7181
 2982TIP3   OH230436   2.168   5.897  10.533  0.1360  0.3616  0.0538
 2982TIP3    H130437   2.191   5.821  10.480  0.0531  1.9806 -2.4114
 2982TIP3    H230438   2.148   5.862  10.620  0.4035 -2.3593 -0.9597
 2983TIP3   OH230439   4.461   5.482   9.839 -0.3386 -0.2142 -0.2803
 2983TIP3    H130440   4.374   5.461   9.805 -0.1459 -2.3720  0.5195
 2983TIP3    H230441   4.521   5.452   9.771 -0.1866  1.6286 -1.0096
 2984TIP3   OH230442   5.481   0.392  12.595  0.3943 -0.3547 -0.8323
 2984TIP3    H130443   5.479   0.438  12.511  1.0867  0.0511 -0.6272
 2984TIP3    H230444   5.469   0.299  12.572 -1.8798 -0.0063 -1.1787
 2985TIP3   OH230445   5.257   6.769  10.958  0.2387  0.0138  0.0168
 2985TIP3    H130446   5.197   6.743  10.889  0.0001  0.1932  0.1560
 2985TIP3    H230447   5.201   6.796  11.030  0.4188  2.7999 -0.8148
 2986TIP3   OH230448   4.950   0.621   9.344 -0.1734 -0.1080 -0.1024
 2986TIP3    H130449   4.941   0.531   9.313  0.1695 -0.2364  0.1648
 2986TIP3    H230450   4.891   0.627   9.419  0.2393 -0.2842  0.2417
 2987TIP3   OH230451   1.603   3.405  11.143  0.2185  0.0941 -0.1615
 2987TIP3    H130452   1.508   3.394  11.140  0.2636 -0.1223 -0.7745
 2987TIP3    H230453   1.634   3.377  11.057  0.7249  1.2665 -0.3723
 2988TIP3   OH230454   2.669   2.854  10.363 -0.3246  0.1996 -0.7746
 2988TIP3    H130455   2.608   2.782  10.377  1.6547 -1.5961 -1.0663
 2988TIP3    H230456   2.749   2.827  10.408  0.2065  2.6197 -0.1524
 2989TIP3   OH230457   4.594   5.396  10.658  0.2414  0.1572 -0.0003
 2989TIP3    H130458   4.581   5.362  10.747  1.9558  0.8467  0.5361
 2989TIP3    H230459   4.551   5.482  10.658 -0.1265 -0.0267  0.0308
 2990TIP3   OH230460   6.338   5.728  10.673 -0.2879 -0.2168  0.0241
 2990TIP3    H130461   6.278   5.797  10.703  2.7118  2.7090 -0.4632
 2990TIP3    H230462   6.387   5.768  10.602  2.7490 -2.3096  0.8558
 2991TIP3   OH230463   6.369   0.036  15.022 -0.5343 -0.2244  0.1415
 2991TIP3    H130464   6.298   0.100  15.021 -2.2057 -2.0810 -1.1145
 2991TIP3    H230465   6.375   0.009  15.114 -1.2138  0.1688  0.3044
 2992TIP3   OH230466   0.622   5.331  12.352  0.1349 -0.0456  0.4795
 2992TIP3    H130467   0.647   5.239  12.353  0.8751  0.1324  3.1219
 2992TIP3    H230468   0.528   5.331  12.366  0.1746 -0.3947  0.7348
 2993TIP3   OH230469   5.296   1.255  11.457  0.7408 -0.9647 -0.4885
 2993TIP3    H130470   5.321   1.298  11.375  1.9859 -0.1590  0.2882
 2993TIP3    H230471   5.250   1.176  11.430  1.2831 -0.7952 -1.9632
 2994TIP3   OH230472   6.104   5.751  11.929 -0.6216 -0.2205 -0.1467
 2994TIP3    H130473   6.072   5.716  12.012 -0.2389  0.6506  0.3741
 2994TIP3    H230474   6.193   5.780  11.947 -1.0542  1.3672 -0.4566
 2995TIP3   OH230475   1.345   0.006  11.821  0.1474  0.5036  0.2936
 2995TIP3    H130476   1.390  -0.078  11.821  0.7404  0.7664 -2.1522
 2995TIP3    H230477   1.347   0.035  11.912  0.9292 -1.5820  0.9784
 2996TIP3   OH230478   2.125   3.944  10.514  0.4193  0.2209  0.2029
 2996TIP3    H130479   2.093   3.885  10.446 -0.6588 -0.6759  1.4364
 2996TIP3    H230480   2.206   3.903  10.545  0.7560  0.4754 -0.3486
 2997TIP3   OH230481   7.140   1.648  12.023  0.3734 -0.7099  0.2261
 2997TIP3    H130482   7.219   1.670  12.072  0.5202 -0.0146 -0.3194
 2997TIP3    H230483   7.089   1.593  12.083  1.5122 -1.6118  0.3809
 2998TIP3   OH230484   5.570   2.105  11.216  0.6469 -0.3574  0.5154
 2998TIP3    H130485   5.618   2.173  11.169 -0.5319  0.7722  0.9148
 2998TIP3    H230486   5.595   2.117  11.307  1.9745 -1.7492  0.3433
 2999TIP3   OH230487   1.235   4.638  11.720 -0.1399 -0.6548  0.3482
 2999TIP3    H130488   1.205   4.584  11.792 -0.2850  0.0922  0.8568
 2999TIP3    H230489   1.173   4.711  11.716 -0.8832 -1.3491 -1.3534
 3000TIP3   OH230490   6.446   0.418  10.788 -0.1364  0.1925 -0.8775
 3000TIP3    H130491   6.471   0.455  10.703 -2.1749 -1.1180 -2.0938
 3000TIP3    H230492   6.361   0.456  10.807 -0.6326 -1.1017 -0.4378
 3001TIP3   OH230493   5.497   5.156  11.025  0.2016  0.1738 -0.0388
 3001TIP3    H130494   5.549   5.186  11.099  2.2417 -0.4674 -1.1803
 3001TIP3    H230495   5.493   5.061  11.035 -0.1667  0.1558 -0.3379
 3002TIP3   OH230496   5.956   5.286  11.473  0.3626  0.0911 -0.5541
 3002TIP3    H130497   5.917   5.373  11.459 -1.2510 -0.5013  0.1853
 3002TIP3    H230498   6.040   5.291  11.427 -0.3539  1.5597 -1.7922
 3003TIP3   OH230499   0.868   3.131  13.445 -0.5228 -0.6259  0.2518
 3003TIP3    H130500   0.836   3.154  13.532 -0.4496  0.5983 -0.0386
 3003TIP3    H230501   0.886   3.215  13.403  3.6526 -1.2559  0.5943
 3004TIP3   OH230502   4.786   6.616  12.996 -0.2321  0.4217 -0.1969
 3004TIP3    H130503   4.843   6.692  12.988 -0.7297  0.8428  0.2788
 3004TIP3    H230504   4.715   6.633  12.935 -1.3624  1.2507  1.3334
 3005TIP3   OH230505   5.391   2.214  13.145  0.4723  0.1342  0.5711
 3005TIP3    H130506   5.441   2.136  13.168  0.4443 -0.4612 -1.3014
 3005TIP3    H230507   5.443   2.257  13.077 -0.4668  0.7053  0.2066
 3006TIP3   OH230508   6.513   5.406  15.422 -0.4482 -0.1483  0.5065
 3006TIP3    H130509   6.544   5.379  15.508 -0.4351 -1.7489  0.0129
 3006TIP3    H230510   6.434   5.458  15.440 -1.2675 -1.6859  1.4028
 3007TIP3   OH230511   5.136   6.824  14.344  0.1770 -0.0575 -0.5052
 3007TIP3    H130512   5.057   6.876  14.333  0.2894  0.2453  0.0781
 3007TIP3    H230513   5.142   6.808  14.438  0.3381 -0.8243 -0.6378
 3008TIP3   OH230514   6.639   3.551  14.559  0.5884 -0.3663 -0.0007
 3008TIP3    H130515   6.698   3.525  14.488  0.6711 -0.8473  0.2391
 3008TIP3    H230516   6.581   3.476  14.570 -0.0509  0.0982 -0.2193
 3009TIP3   OH230517   4.786   6.003  11.618 -0.0084 -0.5073  0.3083
 3009TIP3    H130518   4.757   5.917  11.589  0.4886 -0.4735 -0.3072
 3009TIP3    H230519   4.739   6.064  11.561 -0.8135 -0.3503  1.1460
 3010TIP3   OH230520   1.625   7.126  10.418 -0.0405  0.5476  0.0225
 3010TIP3    H130521   1.643   7.209  10.463  1.9598  0.5822 -0.7908
 3010TIP3    H230522   1.593   7.153  10.332 -1.7754  0.4689  0.6277
 3011TIP3   OH230523   5.486   1.991  11.788  0.0037 -0.1366 -0.2611
 3011TIP3    H130524   5.431   1.932  11.840 -0.8549 -1.5398 -2.6872
 3011TIP3    H230525   5.440   2.075  11.790 -1.0293 -0.6876 -0.3154
 3012TIP3   OH230526   5.673   1.643  11.765 -0.5236  0.5799 -0.6309
 3012TIP3    H130527   5.746   1.582  11.762 -1.2847 -0.4358  1.0774
 3012TIP3    H230528   5.713   1.727  11.786 -0.0314 -0.3416  2.2716
 3013TIP3   OH230529   2.001   6.653  11.892 -0.0287 -0.3703  0.5300
 3013TIP3    H130530   1.937   6.610  11.835 -0.4849 -0.8749  1.4345
 3013TIP3    H230531   2.060   6.697  11.830 -0.6307 -0.7530 -0.3399
 3014TIP3   OH230532   4.804   3.677  10.911 -1.0366 -0.4284  0.0163
 3014TIP3    H130533   4.735   3.724  10.863 -0.2901  0.7486  0.0995
 3014TIP3    H230534   4.795   3.586  10.881 -1.5782  0.0114 -1.2060
 3015TIP3   OH230535   6.128   5.226  10.809 -0.9082  0.1650  0.0112
 3015TIP3    H130536   6.042   5.233  10.852 -0.9943 -1.1496  0.0851
 3015TIP3    H230537   6.112   5.257  10.720 -1.8140 -1.4297 -0.4033
 3016TIP3   OH230538   0.860   6.526  10.696  0.4019  0.1917 -0.4888
 3016TIP3    H130539   0.889   6.584  10.626 -0.0672  0.2409 -0.6390
 3016TIP3    H230540   0.829   6.585  10.765  1.8905  0.1732  0.2095
 3017TIP3   OH230541   5.122   6.584  10.249 -0.8469  0.1803  0.4701
 3017TIP3    H130542   5.133   6.560  10.157 -0.7168 -0.3578  0.6282
 3017TIP3    H230543   5.181   6.526  10.296 -0.0166  1.2512  0.7862
 3018TIP3   OH230544   4.357   6.105  10.006  0.2766  0.5152 -0.0036
 3018TIP3    H130545   4.365   6.079   9.914 -0.6788  1.8211 -0.4662
 3018TIP3    H230546   4.264   6.126  10.017  0.3844  0.3388  1.2628
 3019TIP3   OH230547   5.178   5.366  10.782  0.1263  0.2022  0.0442
 3019TIP3    H130548   5.265   5.328  10.772  0.5993  1.2249  0.1453
 3019TIP3    H230549   5.164   5.414  10.701  0.0401  0.7867  0.4034
 3020TIP3   OH230550   6.369   6.380  10.765  0.4543  0.2157  0.0721
 3020TIP3    H130551   6.354   6.376  10.859  1.3350  1.3227  0.2760
 3020TIP3    H230552   6.296   6.332  10.726 -0.4196  0.5674  1.2725
 3021TIP3   OH230553   4.587   6.618  12.190  0.5019  0.2018 -0.0709
 3021TIP3    H130554   4.621   6.561  12.121 -3.0210 -2.8187  0.5346
 3021TIP3    H230555   4.530   6.680  12.145  0.3759  0.0116 -0.1697
 3022TIP3   OH230556   6.285   5.961   9.471  0.7249 -0.7741  0.4955
 3022TIP3    H130557   6.366   5.938   9.516 -0.2502  0.5444  3.0557
 3022TIP3    H230558   6.235   5.880   9.469  0.0105 -0.4864  3.5892
 3023TIP3   OH230559   2.961   4.943   9.707 -0.6642 -0.1818  0.1756
 3023TIP3    H130560   2.985   5.019   9.655 -1.2251 -0.0503  0.0984
 3023TIP3    H230561   2.979   4.868   9.650 -0.9580 -0.0550 -0.0899
 3024TIP3   OH230562   5.941   0.594  12.162  0.0307  0.9515  0.0764
 3024TIP3    H130563   6.021   0.640  12.136  0.6901  0.2221  0.7812
 3024TIP3    H230564   5.972   0.518  12.211 -1.0955  0.5630  0.2007
 3025TIP3   OH230565   4.065   4.829  14.946  0.3504  0.7543 -0.0582
 3025TIP3    H130566   4.109   4.833  15.032  1.4147 -1.8197 -0.4198
 3025TIP3    H230567   4.136   4.825  14.883 -0.4286  1.3537 -0.9817
 3026TIP3   OH230568   4.450   0.230  12.277 -0.1968 -0.1230  0.0408
 3026TIP3    H130569   4.368   0.240  12.229  0.1438  0.3457 -0.4637
 3026TIP3    H230570   4.488   0.318  12.278  0.7603 -0.5114 -0.5937
 3027TIP3   OH230571   5.300   6.308  11.095 -0.4723  0.4844 -0.1400
 3027TIP3    H130572   5.337   6.226  11.127 -1.8762  0.6842  2.1317
 3027TIP3    H230573   5.348   6.327  11.015  0.6226 -1.9844 -0.1009
 3028TIP3   OH230574   4.079   0.797  12.414  0.7170  0.5270 -0.1620
 3028TIP3    H130575   3.994   0.830  12.385  0.1753 -0.5067  0.2178
 3028TIP3    H230576   4.140   0.867  12.393 -0.2527  1.3501 -0.2909
 3029TIP3   OH230577   0.741   1.247  15.405  0.3109  0.2087  0.2540
 3029TIP3    H130578   0.804   1.283  15.467 -1.4483 -0.1122  2.2902
 3029TIP3    H230579   0.737   1.154  15.426 -0.7014  0.1952  0.0419
 3030TIP3   OH230580   6.589   6.376  10.208  0.7211 -0.4043  0.1606
 3030TIP3    H130581   6.555   6.327  10.283  2.8808 -1.1281  0.6884
 3030TIP3    H230582   6.540   6.342  10.133 -2.2747  1.1023  1.3145
 3031TIP3   OH230583   4.535   3.907  12.443 -0.4112  0.4401 -0.2281
 3031TIP3    H130584   4.495   3.865  12.366  1.6444 -1.5074 -0.3068
 3031TIP3    H230585   4.586   3.837  12.484  2.0152  2.5418  0.4717
 3032TIP3   OH230586   4.037   3.495  12.185 -0.0601 -0.5182 -0.2669
 3032TIP3    H130587   4.046   3.573  12.129 -0.1943 -0.8919 -0.8141
 3032TIP3    H230588   3.987   3.433  12.132 -0.0893 -0.9211  0.2273
 3033TIP3   OH230589   0.756   0.211   9.865 -0.3660  0.1633 -0.2588
 3033TIP3    H130590   0.780   0.275   9.797  1.5363 -0.5801 -0.3293
 3033TIP3    H230591   0.813   0.231   9.939 -0.2117 -1.0063 -0.0380
 3034TIP3   OH230592   3.945   2.391  11.095  0.1687 -0.4449  0.4292
 3034TIP3    H130593   3.947   2.412  11.002  0.1924 -2.0374  0.0557
 3034TIP3    H230594   4.030   2.349  11.112 -0.2350 -1.0689  0.9275
 3035TIP3   OH230595   5.831   5.288  12.315  0.6293 -0.1242 -0.8251
 3035TIP3    H130596   5.756   5.347  12.302  1.0004  0.3633 -0.7977
 3035TIP3    H230597   5.884   5.331  12.383  0.9132 -0.4829 -0.8148
 3036TIP3   OH230598   4.484   5.713  10.234 -0.2844  0.2471 -0.0914
 3036TIP3    H130599   4.425   5.641  10.256 -2.1963  1.3102 -1.5743
 3036TIP3    H230600   4.515   5.693  10.146  1.4077 -0.1842  0.5904
 3037TIP3   OH230601   6.971   3.419  10.023  0.5770  0.1234  0.4725
 3037TIP3    H130602   7.059   3.404   9.987 -0.0846 -1.6340 -0.5022
 3037TIP3    H230603   6.917   3.352   9.981 -1.8465  2.9917 -1.1864
 3038TIP3   OH230604   4.609   6.681  11.418  0.2352  0.3894 -0.7234
 3038TIP3    H130605   4.680   6.629  11.378  1.7306  1.8217  0.0124
 3038TIP3    H230606   4.652   6.761  11.448 -1.5456  0.9001  0.5474
 3039TIP3   OH230607   4.956   5.035   1.440  0.1143  0.1153  0.1779
 3039TIP3    H130608   4.987   5.027   1.350  1.6927 -1.0306  0.7965
 3039TIP3    H230609   5.036   5.039   1.492 -0.7901  0.7324  1.5375
 3040TIP3   OH230610   6.392   3.736  10.346  0.6336 -0.0604  0.2567
 3040TIP3    H130611   6.453   3.712  10.416  0.3641 -0.4415  0.3633
 3040TIP3    H230612   6.348   3.814  10.378  1.9103  0.9155 -0.3243
 3041TIP3   OH230613   1.080   4.687  11.146 -0.1103  0.3848  0.0219
 3041TIP3    H130614   1.078   4.684  11.241  0.4141  0.5212  0.0368
 3041TIP3    H230615   1.040   4.771  11.124  1.2162  1.0712  0.1794
 3042TIP3   OH230616   6.752   6.813  11.147 -0.2743  1.3214 -0.0044
 3042TIP3    H130617   6.764   6.752  11.075  0.1510  0.3168  0.9032
 3042TIP3    H230618   6.838   6.852  11.161 -0.5671  2.2425 -0.6573
 3043TIP3   OH230619   3.836   6.055  14.025  0.1899 -0.1773 -0.3837
 3043TIP3    H130620   3.806   6.121  13.962  0.1326  0.2940  0.1324
 3043TIP3    H230621   3.925   6.082  14.047 -0.9128  1.5431  2.2048
 3044TIP3   OH230622   5.035   6.985  11.646 -0.0413 -0.5092 -0.0617
 3044TIP3    H130623   5.096   7.005  11.717  0.6930  1.1679 -1.1224
 3044TIP3    H230624   4.966   7.051  11.656 -0.1530 -0.5401 -0.6358
 3045TIP3   OH230625   0.646   5.601  10.048  0.8147 -0.1622  0.2683
 3045TIP3    H130626   0.706   5.568   9.981  0.6746 -1.2363  0.6705
 3045TIP3    H230627   0.561   5.605  10.003  0.8661 -0.1752  0.1678
 3046TIP3   OH230628   2.789   2.063  12.839  0.1703 -0.2907 -0.0892
 3046TIP3    H130629   2.839   2.112  12.904  1.5123 -1.3497 -0.2853
 3046TIP3    H230630   2.779   1.976  12.878 -0.2366 -0.5200 -0.7027
 3047TIP3   OH230631   6.266   5.079  12.275 -0.3273  0.4911  0.4700
 3047TIP3    H130632   6.307   4.994  12.293 -2.3944 -0.4191  0.9404
 3047TIP3    H230633   6.221   5.102  12.356 -0.6808  1.5345 -0.0123
 3048TIP3   OH230634   0.582   6.460  13.517  0.1158  0.3080 -0.1443
 3048TIP3    H130635   0.512   6.417  13.468 -0.3275 -0.4110  1.1140
 3048TIP3    H230636   0.556   6.452  13.608  1.3802  0.8708  0.2698
 3049TIP3   OH230637   5.715   2.449  10.687  0.2371 -0.5659  0.0594
 3049TIP3    H130638   5.685   2.388  10.754  0.8602 -1.3417 -0.3674
 3049TIP3    H230639   5.640   2.457  10.627 -0.6890  0.9019  1.3659
 3050TIP3   OH230640   2.292   0.916  10.434  0.2461  0.3146  0.2613
 3050TIP3    H130641   2.382   0.899  10.409 -0.0013  0.6354 -0.8694
 3050TIP3    H230642   2.265   0.990  10.380 -0.6498  0.3041  0.6782
 3051TIP3   OH230643   3.434   4.166  11.502  0.1909  0.3892  0.9498
 3051TIP3    H130644   3.427   4.076  11.535 -0.3632 -0.1615 -0.6189
 3051TIP3    H230645   3.451   4.219  11.580 -1.4169 -0.8371  2.1660
 3052TIP3   OH230646   2.117   4.151  12.070  0.4844  0.5749  0.2633
 3052TIP3    H130647   2.184   4.216  12.045 -1.4778  1.9998 -1.4757
 3052TIP3    H230648   2.063   4.196  12.135  1.1607 -0.5639  1.6347
 3053TIP3   OH230649   5.397   6.186   9.905  0.2123  0.6343  0.3429
 3053TIP3    H130650   5.334   6.142   9.962 -2.2621  1.3881 -1.6879
 3053TIP3    H230651   5.439   6.116   9.856 -1.4484  0.2905 -0.6282
 3054TIP3   OH230652   3.295   3.342  11.688 -0.3063  0.5826 -0.2550
 3054TIP3    H130653   3.317   3.259  11.729  0.8235 -0.2230 -2.3976
 3054TIP3    H230654   3.301   3.407  11.758  1.8473 -0.6983  0.7808
 3055TIP3   OH230655   6.280   2.770  13.064 -0.9779 -0.1268 -0.2240
 3055TIP3    H130656   6.282   2.846  13.006  0.3264  0.9290  1.1703
 3055TIP3    H230657   6.332   2.703  13.019  1.3311  1.1954  0.4035
 3056TIP3   OH230658   2.818   3.816  13.510 -0.0287 -0.4880  0.1949
 3056TIP3    H130659   2.832   3.892  13.453  1.4465  1.0504  2.5367
 3056TIP3    H230660   2.884   3.753  13.483  0.8132  0.3212  0.3545
 3057TIP3   OH230661   5.127   6.163  11.431 -0.1302 -0.5039  0.3057
 3057TIP3    H130662   5.161   6.173  11.520 -0.5302 -1.7592  0.6128
 3057TIP3    H230663   5.095   6.073  11.428 -1.2620 -0.0722 -0.7215
 3058TIP3   OH230664   7.083   4.449  11.902 -0.3670 -0.3386  0.7482
 3058TIP3    H130665   7.049   4.481  11.985 -1.2655 -0.4391  0.4281
 3058TIP3    H230666   7.028   4.374  11.880  0.1226 -0.5675  0.2623
 3059TIP3   OH230667   4.174   5.230  10.047 -0.3639 -0.0395 -0.2819
 3059TIP3    H130668   4.190   5.291   9.975 -0.6703  1.6362  1.0204
 3059TIP3    H230669   4.079   5.234  10.061 -0.3752 -0.7736 -0.1613
 3060TIP3   OH230670   6.596   0.657  11.909 -0.1767  0.5794 -0.0753
 3060TIP3    H130671   6.666   0.706  11.868  0.4271  0.7096  1.0714
 3060TIP3    H230672   6.568   0.594  11.843  2.6069 -1.0487  0.1961
 3061TIP3   OH230673   6.125   7.164   9.773  0.1294 -0.2276 -0.0772
 3061TIP3    H130674   6.058   7.160   9.705 -0.5872 -0.2125  0.6149
 3061TIP3    H230675   6.106   7.245   9.821  2.4846  1.3541 -1.7284
 3062TIP3   OH230676   5.499   1.171  10.522 -0.9671  0.1189  0.2456
 3062TIP3    H130677   5.531   1.081  10.514  0.9402  0.8417 -0.4836
 3062TIP3    H230678   5.410   1.168  10.488 -0.4955 -1.2627 -0.8955
 3063TIP3   OH230679   6.232   4.452  10.194  0.2473  0.3266 -0.1946
 3063TIP3    H130680   6.218   4.511  10.268 -1.1577  0.0021 -0.1945
 3063TIP3    H230681   6.320   4.474  10.162  1.2423 -0.1670  2.1229
 3064TIP3   OH230682   4.421   0.029  10.389  0.1668  0.7404 -0.1941
 3064TIP3    H130683   4.387   0.102  10.440 -0.0216 -0.5477  1.5603
 3064TIP3    H230684   4.344  -0.020  10.361  0.3233  0.8486 -0.8325
 3065TIP3   OH230685   6.045   0.448  13.564 -0.3416  0.3064 -0.4704
 3065TIP3    H130686   6.102   0.379  13.595 -2.5396 -0.7331  1.3973
 3065TIP3    H230687   6.010   0.415  13.481 -2.3360 -1.4334  1.0050
 3066TIP3   OH230688   5.971   6.606  10.498  0.0041  0.3698  0.4838
 3066TIP3    H130689   5.942   6.515  10.498 -1.2742  0.7578  1.5089
 3066TIP3    H230690   5.957   6.636  10.408 -0.6653 -0.1208  0.4194
 3067TIP3   OH230691   2.461   1.391  10.983  0.9523  0.2226 -0.0256
 3067TIP3    H130692   2.450   1.424  11.072 -0.9120  0.6379 -0.3854
 3067TIP3    H230693   2.556   1.393  10.968  1.3045 -0.1922  2.0621
 3068TIP3   OH230694   4.852   5.944  11.155 -0.2982  0.0834 -0.2694
 3068TIP3    H130695   4.930   5.940  11.100 -0.2603 -0.7473 -0.1667
 3068TIP3    H230696   4.815   6.031  11.138 -2.2769 -1.4368 -4.3210
 3069TIP3   OH230697   0.118   5.334   9.627  0.1664 -0.9132  0.4377
 3069TIP3    H130698   0.158   5.421   9.629 -0.5683 -0.5881  1.6845
 3069TIP3    H230699   0.192   5.273   9.632  0.8008 -0.4047 -2.2412
 3070TIP3   OH230700   3.829   4.681  12.489 -0.1513 -0.0808  0.2578
 3070TIP3    H130701   3.817   4.596  12.533  1.9204 -0.6980 -0.3234
 3070TIP3    H230702   3.884   4.661  12.413  0.5915  1.8472  0.2756
 3071TIP3   OH230703   5.836   2.425  10.342 -0.4002 -0.5775  0.3084
 3071TIP3    H130704   5.880   2.440  10.425  0.9986 -2.2700 -0.1097
 3071TIP3    H230705   5.793   2.509  10.322  1.4291  0.6641  1.4267
 3072TIP3   OH230706   4.590   2.661  10.978 -0.0947 -0.4141 -0.6651
 3072TIP3    H130707   4.601   2.591  10.913 -1.6328 -2.6947  1.4353
 3072TIP3    H230708   4.617   2.621  11.061 -1.6321  1.2816  0.6777
 3073TIP3   OH230709   0.756   6.070  13.205 -0.2175  0.5453  0.7596
 3073TIP3    H130710   0.803   6.153  13.189 -1.3701  1.1341  0.3810
 3073TIP3    H230711   0.771   6.052  13.298  1.5868  0.1985  0.4270
 3074TIP3   OH230712   4.649   5.276  11.216 -0.2575 -0.0348 -0.6543
 3074TIP3    H130713   4.697   5.258  11.135 -0.4325  0.1166 -0.7920
 3074TIP3    H230714   4.709   5.249  11.285  0.5216  1.2846 -0.7895
 3075TIP3   OH230715   5.136   7.067  11.377  0.9210  0.0786 -0.2147
 3075TIP3    H130716   5.065   7.071  11.442  0.0076 -0.2268 -1.1698
 3075TIP3    H230717   5.216   7.081  11.427  0.2303 -0.2017  0.9781
 3076TIP3   OH230718   0.285   2.655  14.595 -0.0001  0.6922 -0.0613
 3076TIP3    H130719   0.238   2.590  14.647 -1.5011  0.0758 -2.1172
 3076TIP3    H230720   0.342   2.604  14.538  0.6907  1.3042  0.0757
 3077TIP3   OH230721   0.070   6.305   9.812  0.3567 -0.0525 -0.1917
 3077TIP3    H130722   0.106   6.217   9.822  1.0139  0.2640  0.2612
 3077TIP3    H230723   0.049   6.332   9.902  0.4177  0.3613 -0.3038
 3078TIP3   OH230724   5.288   4.333  10.810  0.2778  0.2410  0.1558
 3078TIP3    H130725   5.252   4.316  10.723 -0.5096  1.5390  0.2005
 3078TIP3    H230726   5.319   4.248  10.840  0.1778 -0.3045 -1.2222
 3079TIP3   OH230727   1.091   5.866  10.083  0.7936  0.0509  0.1754
 3079TIP3    H130728   1.004   5.881  10.044  0.7690 -1.2514 -0.3002
 3079TIP3    H230729   1.078   5.884  10.176  0.5672  2.0544 -0.2172
 3080TIP3   OH230730   6.050   6.697   9.746  0.5230 -0.0706 -0.0328
 3080TIP3    H130731   6.071   6.658   9.831  1.0201  0.1861 -0.0381
 3080TIP3    H230732   6.095   6.781   9.746  1.2212 -0.4432 -0.8934
 3081TIP3   OH230733   0.149   3.564  13.217 -0.9220  0.8710 -0.1811
 3081TIP3    H130734   0.117   3.647  13.253  1.8793  1.3407  1.3778
 3081TIP3    H230735   0.235   3.585  13.180  0.2720 -1.4687  1.0960
 3082TIP3   OH230736   4.879   6.602   9.505  0.3831 -0.1282 -0.7932
 3082TIP3    H130737   4.942   6.652   9.556 -0.1514 -1.1791  0.9575
 3082TIP3    H230738   4.800   6.656   9.503  0.5007  0.0414 -0.7604
 3083TIP3   OH230739   4.853   6.575  11.231 -0.3327 -0.1337 -0.7748
 3083TIP3    H130740   4.884   6.634  11.162  1.8337 -0.2886  0.0295
 3083TIP3    H230741   4.916   6.586  11.302 -3.2747  1.0580  1.7666
 3084TIP3   OH230742   6.947   5.445  11.380 -0.4074  0.5414  0.1363
 3084TIP3    H130743   6.988   5.461  11.295 -2.6466  0.5561 -0.9771
 3084TIP3    H230744   6.938   5.532  11.419 -0.4093  0.6358 -0.0771
 3085TIP3   OH230745   3.384   0.863  12.310  0.1462  0.2277 -0.0986
 3085TIP3    H130746   3.430   0.935  12.351  0.4560 -0.9721  1.7178
 3085TIP3    H230747   3.452   0.798  12.291 -0.3518 -0.2638 -0.2462
 3086TIP3   OH230748   5.413   3.249  11.643  0.0318 -0.5399  0.4157
 3086TIP3    H130749   5.463   3.312  11.694 -0.2108 -0.1889  0.2220
 3086TIP3    H230750   5.366   3.302  11.578 -0.0508 -0.9321  0.1496
 3087TIP3   OH230751   0.720   5.738  14.357 -0.3986  0.0572 -0.0413
 3087TIP3    H130752   0.727   5.689  14.439  2.1786  0.1029 -0.1993
 3087TIP3    H230753   0.644   5.794  14.369 -1.7080 -1.9451  1.2372
 3088TIP3   OH230754   4.064   4.047  10.811 -0.1220  0.2364 -0.2837
 3088TIP3    H130755   3.990   4.033  10.870 -1.5572  0.0121 -2.0783
 3088TIP3    H230756   4.025   4.047  10.724  1.8929  0.9797 -1.2157
 3089TIP3   OH230757   2.980   4.051  12.840  0.5807 -0.0580 -0.3745
 3089TIP3    H130758   2.978   3.982  12.773 -1.2302 -0.1052 -0.2877
 3089TIP3    H230759   3.034   4.014  12.910 -3.1389 -2.8836  1.1827
 3090TIP3   OH230760   2.747   1.574   9.805  0.0806  0.3565 -0.4320
 3090TIP3    H130761   2.747   1.548   9.713  1.5502 -0.4429 -0.2204
 3090TIP3    H230762   2.676   1.638   9.812  0.5218  1.0879 -2.3102
 3091TIP3   OH230763   5.900   2.391  12.531 -0.2372  0.2799  0.4171
 3091TIP3    H130764   5.828   2.358  12.478  0.5643  2.9264 -2.5188
 3091TIP3    H230765   5.961   2.318  12.539 -2.1157 -1.2537  0.8919
 3092TIP3   OH230766   3.405   3.828  12.881  0.5221 -0.3857  0.3439
 3092TIP3    H130767   3.363   3.743  12.892  3.6126 -1.8881  0.9310
 3092TIP3    H230768   3.355   3.870  12.810  0.8154 -3.8873 -2.0605
 3093TIP3   OH230769   5.850   5.170  10.044  0.4465 -0.0340 -0.3749
 3093TIP3    H130770   5.764   5.129  10.049  0.2400  0.4362 -0.0260
 3093TIP3    H230771   5.905   5.106   9.999  0.1168 -0.6724  0.1216
 3094TIP3   OH230772   5.614   4.439  12.011 -0.0725 -0.4776  0.2640
 3094TIP3    H130773   5.653   4.354  11.990  1.4329  0.3146 -0.2444
 3094TIP3    H230774   5.554   4.457  11.939 -0.5961 -1.2271  0.5138
 3095TIP3   OH230775   5.888   6.554   9.575 -0.3531 -0.1885  0.0954
 3095TIP3    H130776   5.820   6.513   9.627 -0.5229 -0.3176 -0.2235
 3095TIP3    H230777   5.948   6.592   9.639  0.1420 -1.4778  0.4177
 3096TIP3   OH230778   6.813   5.327  10.612  0.1170 -0.4506 -0.1000
 3096TIP3    H130779   6.754   5.402  10.613  2.6874  1.6460  0.2387
 3096TIP3    H230780   6.804   5.287  10.699 -1.6088 -0.8738 -0.4472
 3097TIP3   OH230781   3.388   2.278  11.254  0.1122 -0.3171 -0.2797
 3097TIP3    H130782   3.424   2.249  11.337 -0.3921  0.8882  0.3689
 3097TIP3    H230783   3.464   2.295  11.199  0.4977  0.5375  0.5068
 3098TIP3   OH230784   0.480   5.525  12.568 -0.0876  0.1186  0.9426
 3098TIP3    H130785   0.557   5.559  12.613  0.8214  0.0691 -0.5524
 3098TIP3    H230786   0.480   5.570  12.483 -1.3525 -0.3441  0.6799
 3099TIP3   OH230787   3.551   4.957  12.347  0.0287 -0.7644 -0.5035
 3099TIP3    H130788   3.586   4.876  12.309  0.0755 -0.0993 -1.9204
 3099TIP3    H230789   3.585   5.026  12.290 -0.5768  0.1989  0.2936
 3100TIP3   OH230790   0.662   5.900  11.849  0.0483  0.5816  0.4747
 3100TIP3    H130791   0.684   5.831  11.786 -0.7224  0.7987 -0.0392
 3100TIP3    H230792   0.746   5.928  11.885  0.2787 -1.5883  1.7033
 3101TIP3   OH230793   5.203   4.990  10.409  0.2047 -0.0192 -0.4574
 3101TIP3    H130794   5.154   5.034  10.478  0.1823 -0.2637 -0.3118
 3101TIP3    H230795   5.137   4.937  10.363  0.5159 -1.1871  0.4184
 3102TIP3   OH230796   7.199   0.065  11.177  0.2381 -0.1890 -0.1964
 3102TIP3    H130797   7.112   0.047  11.211  0.5049 -0.8264  0.1525
 3102TIP3    H230798   7.194   0.041  11.084 -0.5465  1.7440 -0.6958
 3103TIP3   OH230799   6.064   3.379  11.985  0.1329  1.0427  0.2888
 3103TIP3    H130800   6.067   3.315  12.056  1.3510  0.4777 -0.2613
 3103TIP3    H230801   6.114   3.453  12.018 -1.0373  1.6154  0.8137
 3104TIP3   OH230802   4.357   4.322  11.395  0.0385 -0.8085  0.2121
 3104TIP3    H130803   4.421   4.274  11.342  2.3443  0.7337  1.4627
 3104TIP3    H230804   4.342   4.266  11.471  1.8664 -0.1319  1.1234
 3105TIP3   OH230805   6.830   6.490  10.037 -0.2141  0.2725  0.3234
 3105TIP3    H130806   6.836   6.487  10.133  0.0932  0.8915  0.3257
 3105TIP3    H230807   6.862   6.405  10.008  2.2386  1.0513  0.6527
 3106TIP3   OH230808   6.807   4.461  11.645  0.5700 -0.8897 -0.1767
 3106TIP3    H130809   6.825   4.486  11.554 -1.6867  3.2553  0.3941
 3106TIP3    H230810   6.880   4.498  11.694  0.0723 -0.1985  0.0501
 3107TIP3   OH230811   6.989   4.072  12.640  0.8884  0.3319  0.3447
 3107TIP3    H130812   7.048   4.030  12.577  0.5837 -1.0616  0.9554
 3107TIP3    H230813   6.904   4.030  12.624  0.3560  1.4175  0.3223
 3108TIP3   OH230814   6.532   7.159  10.717  0.1223 -0.0711 -1.2120
 3108TIP3    H130815   6.609   7.128  10.766 -0.2542  1.5070  0.4558
 3108TIP3    H230816   6.533   7.109  10.636  2.1290 -1.0723 -0.6014
 3109TIP3   OH230817   1.979   1.700  10.822 -0.2672  0.3438  0.4086
 3109TIP3    H130818   2.026   1.683  10.904  1.9027 -1.2937 -1.1428
 3109TIP3    H230819   2.019   1.780  10.788  1.1931 -0.8392 -0.7203
 3110TIP3   OH230820   1.195   3.955  13.933 -0.6294  0.1514 -0.1986
 3110TIP3    H130821   1.262   4.013  13.896  0.8123 -0.8585  0.7827
 3110TIP3    H230822   1.162   4.002  14.010 -0.9416  0.5770 -0.5910
 3111TIP3   OH230823   6.775   7.074  13.593  0.0713 -0.2560  0.0801
 3111TIP3    H130824   6.766   7.145  13.530  0.0220 -0.3985 -0.0750
 3111TIP3    H230825   6.713   7.007  13.563  1.1920 -0.9869 -0.6419
 3112TIP3   OH230826   3.927   6.724  10.473 -0.5986  0.5197  0.3343
 3112TIP3    H130827   3.993   6.782  10.435  1.4369 -2.3461 -0.6700
 3112TIP3    H230828   3.853   6.729  10.412  0.0361  1.1188 -0.3985
 3113TIP3   OH230829   5.471   1.244  14.432 -0.2213 -0.9145  0.3450
 3113TIP3    H130830   5.438   1.289  14.510  0.6206 -0.4669  0.4386
 3113TIP3    H230831   5.463   1.308  14.362 -0.5606 -1.1707  0.1449
 3114TIP3   OH230832   2.576   5.900  11.542  0.0739  0.3023  0.0343
 3114TIP3    H130833   2.661   5.896  11.586  0.1104  0.2843 -0.0382
 3114TIP3    H230834   2.535   5.816  11.560 -0.2794  0.6291  0.7763
 3115TIP3   OH230835   5.136   6.181  12.023 -0.6746  0.4003 -0.4071
 3115TIP3    H130836   5.108   6.193  11.933  0.6039  0.0801 -0.8513
 3115TIP3    H230837   5.211   6.122  12.018 -0.6588  0.2851  0.8697
 3116TIP3   OH230838   2.424   5.597  12.594 -0.0593  0.2328 -0.0120
 3116TIP3    H130839   2.451   5.521  12.544  0.9831 -0.7293  1.9354
 3116TIP3    H230840   2.385   5.561  12.674  0.4850  1.7180  0.9639
 3117TIP3   OH230841   0.520   0.837  11.641 -0.4968 -0.3244  0.2489
 3117TIP3    H130842   0.553   0.777  11.708 -1.6541  1.3183  2.3759
 3117TIP3    H230843   0.451   0.788  11.596 -0.8172 -0.9044  1.3665
 3118TIP3   OH230844   0.219   1.991   9.957 -0.3515  0.6111 -0.5124
 3118TIP3    H130845   0.164   1.979   9.880  1.1218 -2.1229 -1.2288
 3118TIP3    H230846   0.273   2.067   9.938  0.5944 -0.5348 -2.6039
 3119TIP3   OH230847   1.814   6.158  10.630  0.1801 -0.1974  0.3674
 3119TIP3    H130848   1.752   6.113  10.573 -0.8243 -0.0792  1.3449
 3119TIP3    H230849   1.766   6.173  10.711  0.9099  1.4640  0.5304
 3120TIP3   OH230850   1.856   6.669  10.645 -0.1014 -0.3449 -0.4901
 3120TIP3    H130851   1.944   6.667  10.606  1.1806 -0.4267  2.2723
 3120TIP3    H230852   1.809   6.735  10.595  2.0810  0.8867 -0.9884
 3121TIP3   OH230853   5.338   4.460  11.570 -0.2095 -0.1523 -0.3790
 3121TIP3    H130854   5.308   4.541  11.612  0.0350 -0.3030  0.0925
 3121TIP3    H230855   5.431   4.455  11.594  0.0071 -0.0913 -1.1742
 3122TIP3   OH230856   2.472   7.175  10.704 -0.0667 -0.4285  0.1838
 3122TIP3    H130857   2.528   7.132  10.768  0.7345  1.2789  0.6697
 3122TIP3    H230858   2.533   7.207  10.637 -0.6802 -0.3513 -0.3378
 3123TIP3   OH230859   6.405   4.521  11.002  0.5144  0.0762 -0.4159
 3123TIP3    H130860   6.498   4.529  10.980  1.2308  2.2993  3.0101
 3123TIP3    H230861   6.400   4.444  11.059  0.3811  0.4868  0.1256
 3124TIP3   OH230862   6.190   1.035  11.291 -0.2330 -0.0283  0.2286
 3124TIP3    H130863   6.277   1.002  11.270 -0.7437 -2.1479  1.3254
 3124TIP3    H230864   6.134   1.002  11.220 -0.2103  1.0976 -0.3268
 3125TIP3   OH230865   2.772   6.584  14.090  0.6271  0.0382  0.0951
 3125TIP3    H130866   2.719   6.521  14.138  0.2000  0.6775  0.4656
 3125TIP3    H230867   2.844   6.604  14.149 -0.9901  2.3820  1.3389
 3126TIP3   OH230868   6.361   0.096   9.669 -0.3828  0.0633  0.4369
 3126TIP3    H130869   6.432   0.052   9.717 -0.4461  0.7122  1.1358
 3126TIP3    H230870   6.281   0.063   9.710 -0.4694 -0.2054  0.0512
 3127TIP3   OH230871   4.189   6.485  10.062 -0.6206 -0.0203  0.1023
 3127TIP3    H130872   4.274   6.528  10.066  0.4755 -2.1325  0.3739
 3127TIP3    H230873   4.192   6.435   9.980 -1.4355 -0.3832  0.2882
 3128TIP3   OH230874   5.364   7.133  10.616 -0.2103  0.0366  0.2240
 3128TIP3    H130875   5.342   7.102  10.529 -3.6316  0.7510  0.7800
 3128TIP3    H230876   5.391   7.055  10.664  2.1342 -0.2903 -1.5438
 3129TIP3   OH230877   3.934   1.523  10.136  0.2162  0.5052  0.1769
 3129TIP3    H130878   3.878   1.589  10.175  0.4767  0.6873  0.2446
 3129TIP3    H230879   3.879   1.479  10.071  0.1286  0.9641 -0.0549
 3130TIP3   OH230880   4.174   6.825  11.989  0.2837 -0.0982  0.2123
 3130TIP3    H130881   4.124   6.896  12.029  1.4834  1.0278 -0.2446
 3130TIP3    H230882   4.125   6.802  11.910  0.3588  0.8275 -0.1048
 3131TIP3   OH230883   5.376   4.502   9.818  0.3096  0.0473  0.2989
 3131TIP3    H130884   5.412   4.422   9.855 -1.0976  0.6386  3.0642
 3131TIP3    H230885   5.296   4.473   9.773 -0.6896  0.0036  2.0753
 3132TIP3   OH230886   4.994   6.674  15.256 -0.0422 -0.2460  0.6275
 3132TIP3    H130887   5.015   6.732  15.329  3.2113 -0.3255 -0.1944
 3132TIP3    H230888   4.948   6.731  15.193 -0.4715  0.4548  1.5720
 3133TIP3   OH230889   1.440   4.436  10.018 -0.1113 -0.5745 -0.3740
 3133TIP3    H130890   1.403   4.357   9.977 -0.4818  0.0170 -1.1893
 3133TIP3    H230891   1.441   4.501   9.948  1.4017 -0.2283 -0.0601
 3134TIP3   OH230892   4.276   6.794  10.879  0.0091 -0.0792 -0.3243
 3134TIP3    H130893   4.276   6.818  10.786 -1.7000  1.4269  0.0388
 3134TIP3    H230894   4.350   6.843  10.916  0.2145 -0.0685 -0.7444
 3135TIP3   OH230895   4.821   0.082  10.168 -0.1453 -0.3795  0.2244
 3135TIP3    H130896   4.735   0.049  10.144  0.8011 -2.2160 -0.7003
 3135TIP3    H230897   4.855   0.019  10.231 -0.0512  1.1112  1.7123
 3136TIP3   OH230898   5.217   5.397  10.205 -0.1488  0.1959  0.0482
 3136TIP3    H130899   5.280   5.465  10.228  2.3403 -1.4197 -1.7201
 3136TIP3    H230900   5.197   5.353  10.287  0.7283  0.9623  0.6815
 3137TIP3   OH230901   2.630   5.021  12.010  0.2457 -0.8199  0.4213
 3137TIP3    H130902   2.579   4.982  12.081  1.3296 -5.0136 -0.9225
 3137TIP3    H230903   2.721   5.013  12.039  0.5218  0.0746 -0.1945
 3138TIP3   OH230904   6.153   5.089  12.025  0.3529  0.0759  0.1614
 3138TIP3    H130905   6.129   5.000  12.050  0.7557 -0.7533 -2.2865
 3138TIP3    H230906   6.225   5.113  12.084  0.2610 -1.2221  0.8073
 3139TIP3   OH230907   4.711   4.098  10.240 -0.5009 -0.0155 -0.3112
 3139TIP3    H130908   4.775   4.136  10.301  0.4129 -0.1664 -1.1730
 3139TIP3    H230909   4.749   4.014  10.215 -1.5155 -0.5568 -0.0659
 3140TIP3   OH230910   3.185   3.040  14.675  0.4730  0.1397  0.3946
 3140TIP3    H130911   3.148   3.014  14.760 -1.1223  2.2844  0.4018
 3140TIP3    H230912   3.274   3.069  14.695  0.4748 -0.3958  1.1732
 3141TIP3   OH230913   5.036   4.997  11.699  0.1599  0.0854  0.0205
 3141TIP3    H130914   5.033   4.968  11.790 -1.9060  0.8011  0.2195
 3141TIP3    H230915   5.035   5.093  11.704 -0.0079  0.1294 -0.7398
 3142TIP3   OH230916   6.427   0.505   9.745 -0.4216 -0.7195 -0.4886
 3142TIP3    H130917   6.333   0.517   9.731 -0.4171  1.1210  0.8700
 3142TIP3    H230918   6.466   0.513   9.658 -1.1991  1.9896 -0.6184
 3143TIP3   OH230919   5.780   0.496  11.666 -0.3383  0.2963  0.5334
 3143TIP3    H130920   5.753   0.546  11.743  0.0852 -0.8894  1.4642
 3143TIP3    H230921   5.711   0.431  11.654  1.1929 -1.6694  1.9253
 3144TIP3   OH230922   1.151   1.097  10.272 -0.1358 -0.0195  0.0570
 3144TIP3    H130923   1.085   1.118  10.207  1.5504  0.7898 -1.4294
 3144TIP3    H230924   1.103   1.093  10.355 -2.0167  0.5588 -0.9843
 3145TIP3   OH230925   6.297   3.995  11.556 -0.2121 -0.7181  0.5166
 3145TIP3    H130926   6.220   3.946  11.585  0.5295 -2.0532  0.2558
 3145TIP3    H230927   6.367   3.969  11.616 -0.3976  1.9872  2.0062
 3146TIP3   OH230928   3.874   6.559  12.600  0.4606  0.3932  0.5234
 3146TIP3    H130929   3.940   6.517  12.544 -1.6713 -0.1422 -1.6949
 3146TIP3    H230930   3.847   6.490  12.660 -1.3015 -0.8490 -1.5694
 3147TIP3   OH230931   0.251   4.509  11.006  0.0756  0.0823 -0.4699
 3147TIP3    H130932   0.208   4.557  11.076  1.1422  0.0610  0.2043
 3147TIP3    H230933   0.203   4.534  10.927 -0.6458  0.6848  0.1538
 3148TIP3   OH230934   0.935   5.036  13.948 -0.0731  0.2248 -0.5217
 3148TIP3    H130935   0.934   5.087  13.867 -0.3592 -0.3741 -0.9036
 3148TIP3    H230936   0.844   5.036  13.978  0.0287  0.4208 -0.2232
 3149TIP3   OH230937   0.300   1.795  11.007 -0.3521 -0.1518 -0.4751
 3149TIP3    H130938   0.343   1.716  10.974 -1.3158 -1.4169  1.1887
 3149TIP3    H230939   0.361   1.831  11.071 -0.5174 -0.3301 -0.2158
 3150TIP3   OH230940   3.051   4.061  12.207 -0.4563  0.1811  0.0530
 3150TIP3    H130941   3.054   4.105  12.292 -0.0614  0.8765 -0.3282
 3150TIP3    H230942   3.129   4.091  12.161 -2.4173  2.5062 -1.9052
 3151TIP3   OH230943   5.995   5.210   9.385  0.2158  0.4547 -0.3705
 3151TIP3    H130944   5.996   5.118   9.409 -2.1655 -0.0670 -2.0892
 3151TIP3    H230945   6.087   5.234   9.377  0.8577 -1.6822  0.4240
 3152TIP3   OH230946   3.892   7.120  12.441  0.6442  0.4281 -0.1543
 3152TIP3    H130947   3.986   7.116  12.458  0.9823  0.7266 -1.9207
 3152TIP3    H230948   3.876   7.054  12.374 -0.3211  0.7504 -0.2554
 3153TIP3   OH230949   5.073   3.547  11.247  0.7757 -0.2874  0.4074
 3153TIP3    H130950   4.988   3.544  11.292 -0.1637  1.1968 -1.1983
 3153TIP3    H230951   5.101   3.638  11.255  1.7535 -0.5539  0.0476
 3154TIP3   OH230952   5.959   3.024  11.107  0.4950  0.7122  0.2820
 3154TIP3    H130953   5.935   3.095  11.167 -0.4439  2.1317 -1.7075
 3154TIP3    H230954   5.926   3.052  11.022  1.7396 -1.2877 -0.9168
 3155TIP3   OH230955   1.478   1.987  13.716  0.4629 -0.9374 -0.0938
 3155TIP3    H130956   1.394   1.960  13.678  0.0270  0.8986 -0.4578
 3155TIP3    H230957   1.501   1.915  13.775 -2.3180 -0.6273  1.4851
 3156TIP3   OH230958   5.254   4.128  11.250 -0.3622  0.4275  0.1276
 3156TIP3    H130959   5.163   4.123  11.281 -0.0962 -1.2487  0.6580
 3156TIP3    H230960   5.254   4.078  11.169 -0.2427  1.7813 -0.7339
 3157TIP3   OH230961   6.347   2.814  10.466  0.1385 -0.2844  0.8026
 3157TIP3    H130962   6.377   2.895  10.426 -0.7685 -0.8339 -1.0683
 3157TIP3    H230963   6.309   2.840  10.550 -1.8639  1.4796 -0.6128
 3158TIP3   OH230964   2.808   3.564  11.667  0.1533  0.3627  0.5493
 3158TIP3    H130965   2.827   3.484  11.618 -1.3783 -2.0419  3.6956
 3158TIP3    H230966   2.894   3.603  11.684  1.0335 -1.3897  0.2094
 3159TIP3   OH230967   0.335   1.153  12.096 -0.0549  0.2370  0.0544
 3159TIP3    H130968   0.348   1.196  12.011 -0.3850 -0.6482 -0.4559
 3159TIP3    H230969   0.277   1.212  12.144  1.1057  1.3475  0.1404
 3160TIP3   OH230970   5.060   6.848  10.182  0.1034 -0.6948 -0.1966
 3160TIP3    H130971   5.060   6.769  10.236  1.2704  0.2443  1.2191
 3160TIP3    H230972   5.133   6.837  10.122 -1.0331 -1.6213 -1.4520
 3161TIP3   OH230973   6.816   3.602  12.865 -0.3652 -0.5687 -0.2262
 3161TIP3    H130974   6.779   3.667  12.925 -1.1002 -0.9387 -0.2714
 3161TIP3    H230975   6.884   3.649  12.817 -0.8915  0.1735 -0.2586
 3162TIP3   OH230976   6.178   7.147  13.065  0.6256  0.6439  0.1751
 3162TIP3    H130977   6.089   7.183  13.064 -0.1437 -1.2224 -1.9338
 3162TIP3    H230978   6.223   7.194  12.994  0.4049 -0.5912 -0.7944
 3163TIP3   OH230979   4.849   4.040   9.620 -0.1558 -0.0684  0.0470
 3163TIP3    H130980   4.760   4.004   9.621  0.2167 -1.0495 -1.3919
 3163TIP3    H230981   4.884   4.018   9.707 -0.6648 -1.3292 -0.0537
 3164TIP3   OH230982   3.239   5.775  10.330  0.0710 -0.0392  0.2119
 3164TIP3    H130983   3.315   5.807  10.378  0.3618  0.0303 -0.2933
 3164TIP3    H230984   3.230   5.835  10.256  0.0641 -0.5643 -0.2218
 3165TIP3   OH230985   5.162   5.777  12.064  0.4916 -0.5655  1.0058
 3165TIP3    H130986   5.182   5.823  12.145 -0.0990 -0.3477  1.0313
 3165TIP3    H230987   5.173   5.684  12.084 -2.2768 -0.7133  2.1082
 3166TIP3   OH230988   0.845   4.772  10.550 -0.1171 -0.4268 -0.0514
 3166TIP3    H130989   0.894   4.755  10.631 -1.8458 -0.0977  1.1020
 3166TIP3    H230990   0.874   4.704  10.490 -0.4235 -2.0570  1.5759
 3167TIP3   OH230991   3.365   6.719  10.230 -0.1338 -0.9712 -0.2695
 3167TIP3    H130992   3.317   6.651  10.183  0.0802 -1.1687 -0.2004
 3167TIP3    H230993   3.428   6.672  10.284  1.4828 -0.6657 -1.8102
 3168TIP3   OH230994   4.356   2.251  12.333 -0.1797  0.1835 -0.4598
 3168TIP3    H130995   4.319   2.214  12.412  0.0802 -2.5388 -1.5633
 3168TIP3    H230996   4.399   2.332  12.361 -1.2518 -0.0527  1.9074
 3169TIP3   OH230997   0.585   5.199  13.099  0.3729 -0.2969  0.2891
 3169TIP3    H130998   0.550   5.117  13.135 -0.9886  0.2806  0.2905
 3169TIP3    H230999   0.509   5.257  13.093  0.8934  0.1806 -1.9634
 3170TIP3   OH231000   1.947   1.586  11.814  0.0149 -0.1765 -0.0985
 3170TIP3    H131001   1.869   1.610  11.864  1.0183  0.7330  1.0757
 3170TIP3    H231002   1.992   1.522  11.869 -0.2772 -1.2664 -1.1144
 3171TIP3   OH231003   5.968   6.055  10.193  0.5014  0.1718  0.3037
 3171TIP3    H131004   6.014   5.983  10.151 -3.2848 -1.1472 -1.8578
 3171TIP3    H231005   5.967   6.032  10.286 -0.1378 -2.3170 -0.2855
 3172TIP3   OH231006   6.226   4.232  13.765  0.2421 -0.0211  0.1396
 3172TIP3    H131007   6.179   4.201  13.842  0.9359 -0.6996  0.3054
 3172TIP3    H231008   6.284   4.301  13.798  0.4871 -0.2622  0.2178
 3173TIP3   OH231009   1.558   4.686  10.278 -0.1411  0.2718 -0.2058
 3173TIP3    H131010   1.494   4.745  10.239 -1.1979  0.7299  2.1134
 3173TIP3    H231011   1.642   4.731  10.267 -0.0085 -0.7383 -4.0439
 3174TIP3   OH231012   1.689   3.325  10.904 -0.2838 -0.5078  0.0473
 3174TIP3    H131013   1.783   3.322  10.885 -0.6449  0.4898 -2.1805
 3174TIP3    H231014   1.651   3.367  10.826 -2.4065  0.3755  1.5166
 3175TIP3   OH231015   1.161   0.789  10.492  0.4545  0.2597  0.2555
 3175TIP3    H131016   1.213   0.838  10.555 -0.0838 -0.5314  1.3268
 3175TIP3    H231017   1.113   0.725  10.544  0.1428 -0.5374 -0.9749
 3176TIP3   OH231018   1.277   3.127  11.021  0.4612  0.0485  0.1187
 3176TIP3    H131019   1.311   3.150  10.935  0.9380 -0.3715  0.1945
 3176TIP3    H231020   1.311   3.039  11.038 -0.0243 -0.0648  0.5274
 3177TIP3   OH231021   4.741   4.539  10.466 -0.1808 -0.1828  0.0729
 3177TIP3    H131022   4.814   4.483  10.493 -0.7180 -0.4447  1.0232
 3177TIP3    H231023   4.664   4.498  10.506 -0.9374 -0.2661 -1.4305
 3178TIP3   OH231024   5.359   0.621  11.301 -0.1476  0.5871  0.3361
 3178TIP3    H131025   5.382   0.591  11.213  0.3921  1.0919  0.3056
 3178TIP3    H231026   5.440   0.615  11.351 -0.8287 -1.2517  1.2473
 3179TIP3   OH231027   6.102   6.057  11.213 -0.6938 -0.1789 -0.3909
 3179TIP3    H131028   6.089   5.995  11.142 -0.9668 -1.2378  0.5744
 3179TIP3    H231029   6.185   6.031  11.253 -1.8173 -1.2594  1.3270
 3180TIP3   OH231030   0.219   0.605  13.398  0.0584 -0.1555  0.0613
 3180TIP3    H131031   0.265   0.609  13.482 -0.1247  0.2257  0.1421
 3180TIP3    H231032   0.229   0.692  13.360  1.1324 -0.6677 -0.8516
 3181TIP3   OH231033   0.201   0.159  10.684 -0.2405  0.1496 -0.1343
 3181TIP3    H131034   0.229   0.195  10.600 -1.2138 -2.6962 -1.7898
 3181TIP3    H231035   0.261   0.087  10.701 -0.9907 -0.2696  0.8237
 3182TIP3   OH231036   2.800   1.112   0.777 -0.8363 -0.1946 -0.3402
 3182TIP3    H131037   2.838   1.163   0.706 -1.5508  1.9286  0.7392
 3182TIP3    H231038   2.861   1.040   0.790  0.7460  0.9376 -1.2571
 3183TIP3   OH231039   6.763   1.815  11.383  0.0976  0.6275  0.0020
 3183TIP3    H131040   6.808   1.899  11.395 -0.0635  0.8198 -0.7215
 3183TIP3    H231041   6.793   1.761  11.456  1.8796  0.5903 -0.7430
 3184TIP3   OH231042   0.140   3.947  10.629  0.6359  0.3893 -0.2195
 3184TIP3    H131043   0.094   3.911  10.553  1.5008 -0.3652 -0.3995
 3184TIP3    H231044   0.095   4.030  10.648 -2.5698 -1.6118  1.3311
 3185TIP3   OH231045   3.360   3.859  10.838 -0.4267 -0.0373 -0.0377
 3185TIP3    H131046   3.321   3.861  10.925 -0.9632 -2.3181 -0.2012
 3185TIP3    H231047   3.423   3.931  10.838 -0.5998  0.1362  2.1389
 3186TIP3   OH231048   6.998   0.056  10.375  0.1101  0.3985  0.2615
 3186TIP3    H131049   6.910   0.018  10.367  0.0304  0.7745 -0.6555
 3186TIP3    H231050   7.009   0.107  10.295  2.0256 -1.4231 -0.6877
 3187TIP3   OH231051   1.696   6.650  13.046 -0.1309  0.0632 -0.3679
 3187TIP3    H131052   1.769   6.711  13.052 -1.6392  1.9008 -0.2083
 3187TIP3    H231053   1.645   6.681  12.971 -0.7914 -1.1401 -0.4325
 3188TIP3   OH231054   3.057   1.819  11.648  0.1881 -0.0601  0.4210
 3188TIP3    H131055   2.967   1.849  11.651  0.5094  0.8663  0.9792
 3188TIP3    H231056   3.099   1.875  11.582  0.7360  0.6022  1.3174
 3189TIP3   OH231057   4.038   6.237  11.809  0.3268  0.2290  0.4803
 3189TIP3    H131058   4.045   6.173  11.879 -1.0220  0.3604  0.7562
 3189TIP3    H231059   3.975   6.198  11.748 -1.4652  1.8040  1.2549
 3190TIP3   OH231060   7.144   0.761  10.694  0.1452  0.2292 -0.0018
 3190TIP3    H131061   7.102   0.774  10.610  1.7666  0.4572 -0.7989
 3190TIP3    H231062   7.167   0.849  10.724 -2.2075  0.3364  1.6555
 3191TIP3   OH231063   4.484   6.720  10.525 -0.1281  0.8121  0.4056
 3191TIP3    H131064   4.418   6.663  10.563  0.0579  0.9534  0.9548
 3191TIP3    H231065   4.465   6.721  10.432  0.4278 -0.8707  0.2650
 3192TIP3   OH231066   5.671   4.986  10.102 -0.0805 -0.4498 -0.8855
 3192TIP3    H131067   5.631   5.045  10.166 -1.6170 -1.5054 -0.8430
 3192TIP3    H231068   5.606   4.978  10.033  0.2577 -1.8171 -1.0557
 3193TIP3   OH231069   6.036   4.897  11.060  0.1562 -0.5774  0.0464
 3193TIP3    H131070   6.106   4.883  10.996 -0.0516  0.1053 -0.3377
 3193TIP3    H231071   6.046   4.989  11.086 -1.5091 -0.0393 -1.1213
 3194TIP3   OH231072   2.323   0.864  13.292 -0.6017  0.7061  0.3793
 3194TIP3    H131073   2.368   0.791  13.334 -1.7632  0.3585  1.0183
 3194TIP3    H231074   2.327   0.843  13.198 -0.4264  0.1085  0.5167
 3195TIP3   OH231075   1.706   1.717  11.937  0.0773  0.2991  0.3222
 3195TIP3    H131076   1.750   1.701  12.020 -2.2570 -1.0248  1.3485
 3195TIP3    H231077   1.615   1.733  11.961 -0.6671 -0.2900 -1.9776
 3196TIP3   OH231078   7.068   0.791  11.152 -0.0976 -0.3362 -0.7625
 3196TIP3    H131079   6.985   0.747  11.173 -0.4790  1.8553  2.8229
 3196TIP3    H231080   7.132   0.720  11.153 -1.1678 -1.3584  1.7304
 3197TIP3   OH231081   6.940   2.287  10.266 -0.4640  0.0203 -0.4416
 3197TIP3    H131082   7.026   2.327  10.278 -0.8633  0.7495  0.0040
 3197TIP3    H231083   6.913   2.262  10.354 -0.2107 -1.2543 -0.7137
 3198TIP3   OH231084   2.383   6.697  14.859  0.4744  0.5014  0.2499
 3198TIP3    H131085   2.415   6.729  14.774  0.0157 -0.7926 -0.4205
 3198TIP3    H231086   2.298   6.739  14.869  0.9650  1.4458  0.5484
 3199TIP3   OH231087   1.771   3.922  14.095 -0.0779  0.3393 -0.4686
 3199TIP3    H131088   1.683   3.951  14.117 -0.3567 -0.8859  0.0693
 3199TIP3    H231089   1.769   3.827  14.106  0.8788  0.1302 -1.9487
 3200TIP3   OH231090   0.932   1.013  14.909  0.4532  0.0910  0.1990
 3200TIP3    H131091   0.890   1.077  14.966 -0.0780  0.0887 -0.1840
 3200TIP3    H231092   1.018   1.050  14.891  0.8050 -0.1442  1.3881
 3201TIP3   OH231093   4.563   3.874   0.354  0.0713  0.1440  0.2550
 3201TIP3    H131094   4.637   3.909   0.404 -0.9097  2.0592  0.4482
 3201TIP3    H231095   4.546   3.941   0.287 -1.2828 -0.4150  0.0249
 3202TIP3   OH231096   2.432   5.583  14.791 -0.1940 -0.3190  0.1993
 3202TIP3    H131097   2.406   5.630  14.712  1.7445 -0.4215 -0.5254
 3202TIP3    H231098   2.362   5.601  14.854 -1.5731  0.0552 -1.4193
 3203TIP3   OH231099   0.870   0.485  13.128  0.2490  0.3513  0.3295
 3203TIP3    H131100   0.805   0.488  13.199  0.7482  2.6845  0.7097
 3203TIP3    H231101   0.953   0.473  13.173  0.3863  0.2051  0.0299
 3204TIP3   OH231102   1.547   2.225  10.586 -0.1660 -0.2584  0.3436
 3204TIP3    H131103   1.600   2.281  10.529  0.6081 -0.4541  0.8572
 3204TIP3    H231104   1.516   2.156  10.528 -1.3851  0.8635 -0.3590
 3205TIP3   OH231105   2.327   2.246  14.683 -0.1503  0.0826 -0.3271
 3205TIP3    H131106   2.378   2.322  14.710 -0.5972  0.7478 -1.3569
 3205TIP3    H231107   2.263   2.280  14.622 -2.5324 -0.5709  1.7306
 3206TIP3   OH231108   2.680   5.130  10.233 -0.0031  0.1552 -0.2791
 3206TIP3    H131109   2.747   5.153  10.297  1.4669 -0.5000 -1.5595
 3206TIP3    H231110   2.620   5.072  10.281  1.1640 -0.4399  0.4705
 3207TIP3   OH231111   1.207   4.600  12.405 -0.4279  0.2562  0.5771
 3207TIP3    H131112   1.291   4.625  12.443 -0.4664 -0.4824  1.1589
 3207TIP3    H231113   1.213   4.626  12.314  1.4531 -2.2183 -0.0450
 3208TIP3   OH231114   5.721   0.900  13.761 -0.3529  0.0914 -0.2554
 3208TIP3    H131115   5.732   0.922  13.668  0.3854 -1.4554 -0.5531
 3208TIP3    H231116   5.658   0.827  13.761 -0.8382  0.5035  0.5122
 3209TIP3   OH231117   4.808   5.299   0.245  0.4348 -0.1280  1.2215
 3209TIP3    H131118   4.769   5.348   0.317 -0.8216 -0.5241  0.8234
 3209TIP3    H231119   4.791   5.207   0.266  0.8755 -0.2910  0.8810
 3210TIP3   OH231120   0.538   6.717  11.312 -0.7205  0.3914 -0.6506
 3210TIP3    H131121   0.523   6.689  11.402 -0.4277 -0.1932 -0.7838
 3210TIP3    H231122   0.493   6.801  11.306  1.8440  1.9312  0.9176
 3211TIP3   OH231123   1.228   2.789  10.176  0.0824 -0.9310 -0.3961
 3211TIP3    H131124   1.248   2.849  10.104 -0.3978  0.0512  0.2766
 3211TIP3    H231125   1.133   2.800  10.190  0.2834 -0.6605  0.7833
 3212TIP3   OH231126   4.420   2.694  12.728 -0.5338 -0.0480 -0.0679
 3212TIP3    H131127   4.402   2.633  12.799 -1.1988 -0.2036 -0.3695
 3212TIP3    H231128   4.510   2.675  12.701 -0.0107  0.5215  1.2380
 3213TIP3   OH231129   1.904   1.834   1.608  0.6345 -0.1873 -0.4056
 3213TIP3    H131130   1.871   1.763   1.662  1.9714 -1.4827 -1.2481
 3213TIP3    H231131   1.886   1.807   1.518  0.5873  0.8379 -0.7208
 3214TIP3   OH231132   6.707   1.684   1.925 -0.2010 -0.0342 -0.1931
 3214TIP3    H131133   6.732   1.730   2.006 -1.4519 -0.2440  0.3184
 3214TIP3    H231134   6.621   1.720   1.902 -0.8333 -1.5341 -0.2287
 3215TIP3   OH231135   0.818   4.650  11.983  0.0088 -0.2255  0.4314
 3215TIP3    H131136   0.789   4.559  11.988 -2.3734  0.5568  1.5406
 3215TIP3    H231137   0.809   4.674  11.891 -1.1239 -0.5646  0.4551
 3216TIP3   OH231138   3.537   5.885  14.696 -0.4674 -0.4659 -0.2881
 3216TIP3    H131139   3.562   5.807  14.645  0.4150 -0.3256 -0.0645
 3216TIP3    H231140   3.441   5.878  14.703 -0.6054 -0.4652 -1.9974
 3217TIP3   OH231141   2.033   2.182  10.034  0.1800  0.0778 -0.0067
 3217TIP3    H131142   1.972   2.132   9.980 -0.5809 -1.2421  1.9944
 3217TIP3    H231143   2.023   2.273  10.004 -0.4502 -0.5624 -1.8161
 3218TIP3   OH231144   6.234   1.186  15.050  0.2500 -0.1226 -0.1178
 3218TIP3    H131145   6.289   1.182  15.128 -0.2648  0.9601  0.3244
 3218TIP3    H231146   6.145   1.175  15.084 -0.0083  0.7459 -0.4949
 3219TIP3   OH231147   5.411   2.126  15.517 -0.2997  0.1142  0.3885
 3219TIP3    H131148   5.467   2.067  15.568 -0.2625 -0.6623 -0.5401
 3219TIP3    H231149   5.321   2.100  15.540 -0.2828 -0.1775  0.1253
 3220TIP3   OH231150   6.446   6.654   9.750  0.1385 -0.6763  0.3718
 3220TIP3    H131151   6.383   6.721   9.779  0.0185 -1.6805  2.5416
 3220TIP3    H231152   6.508   6.647   9.823  0.2338 -2.8374  0.1006
 3221TIP3   OH231153   2.875   6.201  12.094 -0.0897  0.3996 -0.5553
 3221TIP3    H131154   2.954   6.195  12.041  0.1087 -1.7127 -0.0486
 3221TIP3    H231155   2.810   6.148  12.047 -0.0807 -1.0331  0.9887
 3222TIP3   OH231156   2.717   1.629  12.362 -0.1116  0.1779 -0.5271
 3222TIP3    H131157   2.696   1.541  12.329 -3.9374  1.2705 -1.1848
 3222TIP3    H231158   2.798   1.653  12.316  0.8409 -2.8197 -0.5682
 3223TIP3   OH231159   0.462   4.362  10.022 -0.0774  0.3801 -0.6301
 3223TIP3    H131160   0.452   4.270  10.046  1.9909  0.3714  0.2573
 3223TIP3    H231161   0.511   4.361   9.940  0.2773  0.6980 -0.4243
 3224TIP3   OH231162   1.904   0.502  14.393 -0.2571  0.0921 -0.0012
 3224TIP3    H131163   1.937   0.465  14.311 -0.3332  1.0452 -0.4760
 3224TIP3    H231164   1.969   0.566  14.419 -0.5373  0.2357  0.3588
 3225TIP3   OH231165   5.657   4.626  14.027  0.6481 -0.1282  0.0778
 3225TIP3    H131166   5.681   4.536  14.045  0.5572 -0.4018 -1.0984
 3225TIP3    H231167   5.690   4.642  13.938 -0.3019  0.6378 -0.1483
 3226TIP3   OH231168   0.314   5.027  12.455  0.0891 -0.3810  0.4471
 3226TIP3    H131169   0.350   4.940  12.474  0.6708 -0.5982 -1.5420
 3226TIP3    H231170   0.221   5.012  12.442  0.0385 -0.5607  1.0111
 3227TIP3   OH231171   5.707   0.125  11.908 -0.0253  0.1649 -0.8384
 3227TIP3    H131172   5.707   0.044  11.960  0.2848  1.2778  0.9285
 3227TIP3    H231173   5.740   0.192  11.968 -2.1741  2.0168 -1.6801
 3228TIP3   OH231174   1.616   0.721   9.725 -0.6356  0.0839 -0.0298
 3228TIP3    H131175   1.530   0.704   9.686  0.3927  0.0704 -2.3870
 3228TIP3    H231176   1.635   0.812   9.703  0.5064 -0.2921 -0.6686
 3229TIP3   OH231177   0.660   4.422  12.405  0.3512  0.2394  0.0139
 3229TIP3    H131178   0.755   4.427  12.395  0.2869 -1.4953 -1.8205
 3229TIP3    H231179   0.638   4.335  12.372 -1.8410  0.5041  0.7509
 3230TIP3   OH231180   6.108   2.472  12.754  0.2289  0.3506  0.2496
 3230TIP3    H131181   6.047   2.438  12.689  0.1085 -0.9734  1.0319
 3230TIP3    H231182   6.066   2.551  12.787 -0.5872  0.0102  0.0544
 3231TIP3   OH231183   5.046   0.744  13.885  0.1549 -0.3151  0.3823
 3231TIP3    H131184   5.106   0.738  13.959  0.3543  2.5269  0.5224
 3231TIP3    H231185   5.101   0.734  13.808  0.1406 -2.0003  0.5793
 3232TIP3   OH231186   6.096   6.285   3.192  0.2703 -0.1733 -0.0071
 3232TIP3    H131187   6.188   6.303   3.210  0.3059 -0.5464  0.1883
 3232TIP3    H231188   6.048   6.323   3.266  0.2584  0.1105 -0.1593
 3233TIP3   OH231189   5.715   2.509  14.867  0.1191 -0.5593  0.0074
 3233TIP3    H131190   5.792   2.456  14.853 -0.0037 -0.9198  0.6705
 3233TIP3    H231191   5.656   2.453  14.917  0.1562  0.3331  1.0657
 3234TIP3   OH231192   7.156   3.286   3.528  0.3250 -0.1472 -0.6410
 3234TIP3    H131193   7.202   3.204   3.543 -1.9305 -1.2958  0.1932
 3234TIP3    H231194   7.165   3.334   3.610 -0.5722 -0.6847 -0.2234
 3235TIP3   OH231195   2.472   6.764   0.679 -0.1692  0.2317  0.1415
 3235TIP3    H131196   2.485   6.684   0.629  0.7424  1.3085 -1.4003
 3235TIP3    H231197   2.526   6.753   0.757 -1.8503 -1.5940  1.0906
 3236TIP3   OH231198   0.411   2.947   0.941 -0.0095 -0.3714 -0.8673
 3236TIP3    H131199   0.374   3.028   0.906  0.0292  0.3548  0.7318
 3236TIP3    H231200   0.483   2.926   0.881  0.3364  1.0982 -0.9909
 3237TIP3   OH231201   1.935   0.631  11.528  0.4725  0.1989  0.0892
 3237TIP3    H131202   1.899   0.552  11.487  2.3296 -1.7059  2.0178
 3237TIP3    H231203   1.996   0.666  11.463 -1.3651  0.8620 -1.3214
 3238TIP3   OH231204   5.536   1.416  12.366 -0.0098  0.0104  0.2183
 3238TIP3    H131205   5.537   1.384  12.456  2.3033 -0.4977  0.0487
 3238TIP3    H231206   5.520   1.339  12.312 -3.0586  0.5703  0.2380
 3239TIP3   OH231207   2.971   6.826   1.368  0.2448  0.7878  0.1787
 3239TIP3    H131208   2.959   6.732   1.383 -0.2325  0.6711 -0.9288
 3239TIP3    H231209   2.933   6.867   1.446 -0.0500  0.0907  0.4072
 3240TIP3   OH231210   3.280   3.654  14.705  0.0365 -0.1402 -0.3555
 3240TIP3    H131211   3.272   3.739  14.749  1.0616 -0.9937  1.5420
 3240TIP3    H231212   3.348   3.667  14.640 -0.5347  0.7734 -0.7848
 3241TIP3   OH231213   1.525   4.754  14.961 -0.4358  0.2183 -0.0919
 3241TIP3    H131214   1.451   4.696  14.980  1.1273 -1.4042  1.2060
 3241TIP3    H231215   1.570   4.712  14.888  1.0890 -0.6037  1.2918
 3242TIP3   OH231216   1.186   1.199  13.061  0.4250 -0.7935 -0.1545
 3242TIP3    H131217   1.118   1.132  13.055 -2.2885  1.6411  1.8155
 3242TIP3    H231218   1.252   1.161  13.120 -1.8481 -1.1975  2.2323
 3243TIP3   OH231219   2.470   1.481  11.583  0.0004  0.3051 -0.5661
 3243TIP3    H131220   2.534   1.483  11.512 -0.1753 -3.0256 -0.8744
 3243TIP3    H231221   2.505   1.417  11.645 -3.1277 -1.8440 -0.8893
 3244TIP3   OH231222   6.131   6.578   0.404  0.0713 -0.0730 -0.1511
 3244TIP3    H131223   6.134   6.644   0.474 -0.9768  1.2487 -1.3109
 3244TIP3    H231224   6.221   6.547   0.397  0.4940  0.9147  0.7208
 3245TIP3   OH231225   1.546   7.039  11.347  0.1304  0.1313  0.8560
 3245TIP3    H131226   1.530   7.022  11.255 -2.2470  1.6385  0.9317
 3245TIP3    H231227   1.609   7.112  11.347  1.0296 -0.6311  0.4658
 3246TIP3   OH231228   6.276   0.747  13.126  0.0460  0.4249 -0.1996
 3246TIP3    H131229   6.184   0.772  13.118  0.0402  1.4162  2.3749
 3246TIP3    H231230   6.273   0.656  13.154 -0.2907  1.3255  2.9098
 3247TIP3   OH231231   6.538   2.932  13.047  0.2128  0.0882  0.2728
 3247TIP3    H131232   6.598   2.987  12.997  0.7775 -2.6217 -2.0947
 3247TIP3    H231233   6.451   2.968  13.028  0.7663  1.8757  1.0077
 3248TIP3   OH231234   3.855   6.681  13.822 -0.0706 -0.2426  0.2373
 3248TIP3    H131235   3.796   6.753  13.798 -0.7963 -0.2240  2.0177
 3248TIP3    H231236   3.936   6.725  13.847 -0.4896 -0.0431  1.2565
 3249TIP3   OH231237   0.584   0.564  14.470  0.0399  0.3034 -1.2703
 3249TIP3    H131238   0.538   0.535  14.391 -0.3613 -0.7505 -0.6496
 3249TIP3    H231239   0.675   0.543  14.454 -0.2283 -1.1691 -0.8861
 3250TIP3   OH231240   3.256   4.289   0.340  1.0109 -0.3673  0.2666
 3250TIP3    H131241   3.191   4.222   0.316 -0.2424  0.5313  1.0899
 3250TIP3    H231242   3.275   4.272   0.432  0.3345  0.6846  0.6093
 3251TIP3   OH231243   0.422   0.601  10.231 -0.0410 -0.4288 -0.4925
 3251TIP3    H131244   0.507   0.571  10.202 -0.1341 -0.3560 -0.8427
 3251TIP3    H231245   0.359   0.557  10.174 -0.1615  0.6186 -1.1800
 3252TIP3   OH231246   2.943   6.445  14.407 -0.4806 -0.4914 -0.1255
 3252TIP3    H131247   2.894   6.381  14.459  1.1602 -0.3061  1.6750
 3252TIP3    H231248   3.023   6.460  14.456 -0.3521  2.1454 -1.0630
 3253TIP3   OH231249   4.428   5.320   0.563 -0.3213 -0.4174 -0.3161
 3253TIP3    H131250   4.335   5.335   0.548 -0.2890  0.1434  0.0011
 3253TIP3    H231251   4.466   5.408   0.563 -0.1659 -0.4605  1.8891
 3254TIP3   OH231252   6.279   3.018  12.911 -0.3313 -0.0563 -0.0718
 3254TIP3    H131253   6.256   3.025  12.819 -0.7146 -0.2002  0.0118
 3254TIP3    H231254   6.200   3.044  12.958  0.3156  1.4378  0.2205
 3255TIP3   OH231255   1.864   1.878  13.965  0.0871  0.0304  0.2660
 3255TIP3    H131256   1.908   1.961  13.947 -1.2807  0.7237  0.0501
 3255TIP3    H231257   1.913   1.813  13.916  1.3217  0.6732  0.6407
 3256TIP3   OH231258   0.774   5.988  13.485 -0.1550 -0.4682 -0.5298
 3256TIP3    H131259   0.686   5.970  13.515 -0.0217 -0.6842 -0.2748
 3256TIP3    H231260   0.829   5.921  13.526  0.2865  0.3125  0.1594
 3257TIP3   OH231261   4.246   4.021   9.888  0.1707  0.2695  0.4977
 3257TIP3    H131262   4.240   3.969   9.808  0.7078  1.3569 -0.2557
 3257TIP3    H231263   4.309   4.090   9.867 -0.8158  1.4376  1.3716
 3258TIP3   OH231264   4.219   0.152  12.878  0.5258 -0.2990 -0.4784
 3258TIP3    H131265   4.211   0.100  12.958 -1.2177 -0.4249 -0.7349
 3258TIP3    H231266   4.138   0.138  12.831  0.9146  0.9743 -1.5755
 3259TIP3   OH231267   3.246   0.141  13.030  0.0081 -1.0600  0.3529
 3259TIP3    H131268   3.153   0.119  13.026 -0.0972 -0.4991 -0.2810
 3259TIP3    H231269   3.248   0.230  13.066  0.1490  0.0387 -2.3127
 3260TIP3   OH231270   0.007   0.333   0.052  0.0359  0.1364  0.2331
 3260TIP3    H131271   0.027   0.240   0.047 -0.5353  0.0240 -0.0288
 3260TIP3    H231272  -0.076   0.337   0.100  0.7469  0.6003  1.4241
 3261TIP3   OH231273   1.020   6.937  11.530 -0.1302 -0.5723  0.0140
 3261TIP3    H131274   1.041   6.932  11.623  0.1785 -1.1278 -0.0794
 3261TIP3    H231275   1.098   6.976  11.490 -1.0260  1.5002  0.2330
 3262TIP3   OH231276   2.643   6.621  12.231  0.1655  0.2677  0.3029
 3262TIP3    H131277   2.709   6.687  12.251  0.6795 -0.4771  1.1046
 3262TIP3    H231278   2.559   6.663  12.254  0.4290  0.9041  0.0987
 3263TIP3   OH231279   4.018   5.750  14.268 -0.6219 -0.2987 -0.0114
 3263TIP3    H131280   3.954   5.811  14.305 -0.3309  0.9235 -1.4917
 3263TIP3    H231281   4.088   5.746  14.334 -1.8474 -1.0643  1.2684
 3264TIP3   OH231282   6.938   2.585  14.804  0.4362 -0.0533  0.2480
 3264TIP3    H131283   6.990   2.626  14.872  0.5699 -0.6437  0.5078
 3264TIP3    H231284   6.910   2.501  14.842  2.2435 -1.3354 -1.1590
 3265TIP3   OH231285   3.141   0.722   0.863  0.3077 -0.3015  0.6725
 3265TIP3    H131286   3.071   0.673   0.906 -1.0047  0.7653 -0.2118
 3265TIP3    H231287   3.200   0.747   0.934 -0.5202 -0.7116  1.5177
 3266TIP3   OH231288   6.899   0.391  13.978 -0.4464  0.0500  1.0058
 3266TIP3    H131289   6.892   0.435  14.063 -0.3045  1.3783  0.3364
 3266TIP3    H231290   6.879   0.458  13.914  2.4397 -0.1383 -0.1713
 3267TIP3   OH231291   2.726   2.728  15.423 -0.0949 -0.1646  0.2864
 3267TIP3    H131292   2.711   2.821  15.402  0.9223  0.0289  0.4206
 3267TIP3    H231293   2.731   2.726  15.519 -0.7500 -0.4613  0.3186
 3268TIP3   OH231294   2.553   6.747  14.624 -0.2966 -0.1705 -0.0445
 3268TIP3    H131295   2.587   6.721  14.539 -1.4075  0.0014 -0.5471
 3268TIP3    H231296   2.606   6.698  14.687  0.4247 -0.4161 -0.8304
 3269TIP3   OH231297   1.293   1.283  15.528 -0.1080 -0.2351 -0.4320
 3269TIP3    H131298   1.385   1.296  15.549 -0.3777 -1.2942  1.5281
 3269TIP3    H231299   1.253   1.368  15.544  0.5551  0.2626 -1.4179
 3270TIP3   OH231300   6.127   3.951  14.408  0.3016 -0.3592 -0.6061
 3270TIP3    H131301   6.105   3.985  14.321 -1.3355 -0.6277 -0.3105
 3270TIP3    H231302   6.221   3.968  14.417  0.3116  0.4674 -2.0681
 3271TIP3   OH231303   5.886   5.535  15.360 -0.1847 -0.2003 -0.3359
 3271TIP3    H131304   5.949   5.522  15.289  0.0343  1.5417 -0.5026
 3271TIP3    H231305   5.886   5.630  15.374 -0.3514 -0.4862  1.8755
 3272TIP3   OH231306   4.203   4.018  12.160  0.3518  0.2557 -0.2240
 3272TIP3    H131307   4.135   4.072  12.200 -0.0634 -0.0791 -0.4740
 3272TIP3    H231308   4.159   3.973  12.088  1.1358  1.0128 -1.1970
 3273TIP3   OH231309   2.826   3.679  10.542  0.0092  0.1567  0.1875
 3273TIP3    H131310   2.792   3.727  10.468  0.2165 -1.2247 -0.8200
 3273TIP3    H231311   2.853   3.595  10.506  1.5478  0.0459  1.5347
 3274TIP3   OH231312   0.168   5.512  14.306 -0.2818  0.2604  0.0464
 3274TIP3    H131313   0.213   5.594  14.320 -1.5637  1.0600 -0.4183
 3274TIP3    H231314   0.191   5.487  14.216  0.2289  0.0308  0.2412
 3275TIP3   OH231315   2.391   4.396   2.077 -0.1324  0.3530  0.1037
 3275TIP3    H131316   2.464   4.367   2.022  0.3477  2.7449 -0.5579
 3275TIP3    H231317   2.418   4.373   2.166 -0.5567 -2.7900 -0.4980
 3276TIP3   OH231318   1.156   4.801  15.574 -0.2774 -0.1032  0.1147
 3276TIP3    H131319   1.090   4.850  15.623 -0.5664 -0.3947  0.0153
 3276TIP3    H231320   1.117   4.788  15.488  0.4211  0.8313 -0.3530
 3277TIP3   OH231321   5.887   2.816  13.259 -0.2623 -0.2827 -0.7205
 3277TIP3    H131322   5.794   2.798  13.273 -0.0446  0.4022  1.9502
 3277TIP3    H231323   5.895   2.911  13.272  1.1051 -0.6186  1.2115
 3278TIP3   OH231324   0.620   2.486  12.060 -0.4351 -0.2799 -0.3672
 3278TIP3    H131325   0.679   2.411  12.061  1.7296  1.3287 -2.3026
 3278TIP3    H231326   0.641   2.534  12.141  1.9888  1.0299 -1.7152
 3279TIP3   OH231327   0.649   3.211  12.788 -0.5663  0.4032 -0.2816
 3279TIP3    H131328   0.604   3.167  12.860 -0.4705 -0.6502 -0.8565
 3279TIP3    H231329   0.741   3.188  12.799 -0.5068  0.5134 -0.5320
 3280TIP3   OH231330   0.240   3.847  11.814 -0.4537 -0.1359 -0.3988
 3280TIP3    H131331   0.310   3.849  11.749  0.3714 -0.9689  0.4424
 3280TIP3    H231332   0.238   3.936  11.849  1.0006 -0.4027  0.4057
 3281TIP3   OH231333   5.636   5.423  11.530 -0.0493 -0.0895 -0.1287
 3281TIP3    H131334   5.561   5.478  11.506 -1.0329 -0.5700  1.6922
 3281TIP3    H231335   5.713   5.475  11.509 -0.9667  1.6881  0.8253
 3282TIP3   OH231336   0.307   1.468  12.549 -0.3821  0.4069 -0.1519
 3282TIP3    H131337   0.264   1.553  12.538 -0.1537  0.6228  0.5856
 3282TIP3    H231338   0.400   1.485  12.534 -0.3400  0.2796 -0.0440
 3283TIP3   OH231339   2.572   6.355  10.960  0.1106  0.3922 -0.0759
 3283TIP3    H131340   2.566   6.262  10.980  1.1282  0.0278 -1.4113
 3283TIP3    H231341   2.518   6.367  10.883  2.4799  0.2871 -1.8182
 3284TIP3   OH231342   3.471   4.150   0.001 -0.0411  0.0151 -0.0403
 3284TIP3    H131343   3.523   4.172   0.077 -1.0582 -2.4527  1.4374
 3284TIP3    H231344   3.381   4.173   0.025 -0.6009 -2.2519  0.1776
 3285TIP3   OH231345   1.958   1.115  11.799  0.4432 -0.3489 -0.0591
 3285TIP3    H131346   1.877   1.113  11.849 -0.4149  0.8721 -1.3579
 3285TIP3    H231347   2.028   1.112  11.864 -0.6494  0.2261  1.1388
 3286TIP3   OH231348   3.625   6.141  13.108  0.6512  0.0008  0.1302
 3286TIP3    H131349   3.549   6.189  13.139  0.8178  0.8582 -0.7760
 3286TIP3    H231350   3.685   6.140  13.183 -0.2253 -0.6344  0.8247
 3287TIP3   OH231351   0.288   2.946  14.434 -0.2786  0.4378  0.0804
 3287TIP3    H131352   0.269   2.861  14.394  0.2174  0.6155 -0.5376
 3287TIP3    H231353   0.281   2.930  14.528  1.7554 -0.7683  0.0517
 3288TIP3   OH231354   5.041   4.031  13.474  0.0935 -0.4835  0.1059
 3288TIP3    H131355   4.957   4.062  13.509  0.1838 -0.6749  0.4916
 3288TIP3    H231356   5.016   3.968  13.406 -0.0772 -1.0450  0.6774
 3289TIP3   OH231357   5.105   5.662  11.820 -0.9629  0.1317 -0.3617
 3289TIP3    H131358   5.196   5.663  11.790 -0.4692 -0.4577  1.0422
 3289TIP3    H231359   5.105   5.719  11.897 -1.3590 -1.3748  0.7794
 3290TIP3   OH231360   1.897   0.144  10.128 -0.6652 -0.0542 -0.8947
 3290TIP3    H131361   1.843   0.067  10.109 -0.7143 -0.0185 -0.9027
 3290TIP3    H231362   1.972   0.136  10.070 -0.9264  0.1721 -1.2698
 3291TIP3   OH231363   3.492   1.913   1.372  0.6389 -0.6011  0.6552
 3291TIP3    H131364   3.484   1.840   1.310  0.8736 -0.2796  0.2471
 3291TIP3    H231365   3.535   1.982   1.322  0.2815 -0.1270  0.9989
 3292TIP3   OH231366   2.486   2.155  12.964 -0.1163  0.2508  0.1355
 3292TIP3    H131367   2.549   2.222  12.937  0.7861 -1.0676 -1.0891
 3292TIP3    H231368   2.518   2.126  13.049  0.8474 -0.2832 -0.3981
 3293TIP3   OH231369   3.113   0.460  12.941 -0.7511 -0.0320  0.1688
 3293TIP3    H131370   3.136   0.527  12.877 -0.6506 -0.4573 -0.2427
 3293TIP3    H231371   3.050   0.404  12.896 -1.4473  0.2533  0.7794
 3294TIP3   OH231372   0.576   6.664  10.604 -0.1757 -0.3678 -0.2394
 3294TIP3    H131373   0.616   6.750  10.594 -0.3623 -0.2780 -0.2264
 3294TIP3    H231374   0.524   6.671  10.684  0.3766 -0.7145  0.1533
 3295TIP3   OH231375   4.738   5.556  12.263  0.0917  0.5771  0.3964
 3295TIP3    H131376   4.791   5.494  12.212  1.1917  0.6596  1.4088
 3295TIP3    H231377   4.732   5.634  12.208 -0.4795 -0.0759 -0.4754
 3296TIP3   OH231378   0.992   2.535  13.077  0.1209  0.4378  0.4873
 3296TIP3    H131379   1.013   2.486  12.998 -1.4962  1.4572 -0.5950
 3296TIP3    H231380   1.070   2.527  13.132  0.9782 -0.8879 -0.8916
 3297TIP3   OH231381   2.557   5.517  12.190  0.2514 -0.0542  0.2315
 3297TIP3    H131382   2.485   5.460  12.218 -0.0306 -0.5529 -1.4995
 3297TIP3    H231383   2.523   5.563  12.114  1.4655  0.3881 -0.0567
 3298TIP3   OH231384   2.320   2.165  15.418 -0.1639  0.1031  0.1863
 3298TIP3    H131385   2.326   2.086  15.364  1.1169  0.0587  0.3789
 3298TIP3    H231386   2.411   2.191  15.432 -0.5651  1.3517  0.5158
 3299TIP3   OH231387   1.395   6.691  10.518 -0.2119  0.0899 -0.4849
 3299TIP3    H131388   1.325   6.676  10.582  1.5879 -0.6879  1.3737
 3299TIP3    H231389   1.415   6.605  10.483  0.0965  0.2484 -0.7002
 3300TIP3   OH231390   4.405   5.204   0.794 -0.1377 -0.4314  0.3067
 3300TIP3    H131391   4.407   5.247   0.708 -0.4304  1.3061  1.1465
 3300TIP3    H231392   4.322   5.157   0.794  0.0319 -0.7457 -0.5085
 3301TIP3   OH231393   1.260   3.191  11.385  0.1869  0.1424  0.0874
 3301TIP3    H131394   1.215   3.230  11.459 -2.4333 -0.9566 -0.8587
 3301TIP3    H231395   1.308   3.264  11.345  0.9442  0.9127  2.3074
 3302TIP3   OH231396   5.006   4.333  15.286  0.0481 -0.0256 -0.2138
 3302TIP3    H131397   4.950   4.410  15.280  0.1894 -0.0975 -3.1836
 3302TIP3    H231398   4.947   4.261  15.307 -0.1153  0.8212  2.3567
 3303TIP3   OH231399   1.147   6.515  13.976 -0.5779  0.4477  0.4958
 3303TIP3    H131400   1.109   6.463  14.047  0.4360  0.6527  1.1901
 3303TIP3    H231401   1.227   6.468  13.952  0.6563  1.9812  1.5162
 3304TIP3   OH231402   5.884   2.720  12.134  0.9514  0.1516  0.3762
 3304TIP3    H131403   5.928   2.732  12.219  1.2518  1.2221  0.0787
 3304TIP3    H231404   5.877   2.808  12.098 -1.4662  0.0149  0.4084
 3305TIP3   OH231405   6.236   6.208   9.553  0.1479  0.2165 -0.3660
 3305TIP3    H131406   6.263   6.126   9.510 -0.7180  0.4514 -1.3869
 3305TIP3    H231407   6.169   6.244   9.494  0.1689  1.4035  0.3396
 3306TIP3   OH231408   4.714   1.276  11.638  0.1107 -0.5819  0.0938
 3306TIP3    H131409   4.709   1.348  11.575  2.1688 -0.3358  0.1774
 3306TIP3    H231410   4.750   1.203  11.588  0.6151 -0.7462  0.7015
 3307TIP3   OH231411   1.261   2.686  12.540  0.0772  0.2922  0.0041
 3307TIP3    H131412   1.351   2.681  12.573 -0.3776 -0.6776  1.1539
 3307TIP3    H231413   1.212   2.627  12.597 -0.8970 -0.8216 -1.9334
 3308TIP3   OH231414   1.154   3.265  12.652  0.5797 -0.0181 -0.4271
 3308TIP3    H131415   1.241   3.306  12.644  1.0075 -0.6677  0.7599
 3308TIP3    H231416   1.169   3.172  12.634  0.3168 -0.3030  0.7917
 3309TIP3   OH231417   3.481   4.150  13.426  0.2946  0.4854 -0.2039
 3309TIP3    H131418   3.528   4.196  13.357  0.6837  0.7889  0.2681
 3309TIP3    H231419   3.389   4.164  13.405  0.3980 -0.2199 -1.2014
 3310TIP3   OH231420   7.112   5.310   0.974  0.1461  0.0301 -0.3946
 3310TIP3    H131421   7.118   5.350   1.061  2.1887  1.6395 -1.2393
 3310TIP3    H231422   7.038   5.353   0.933 -1.2768 -1.2442  0.7790
 3311TIP3   OH231423   4.701   1.407  12.278 -0.0395 -0.4193 -0.9637
 3311TIP3    H131424   4.788   1.440  12.303  0.4392 -1.6703 -0.9423
 3311TIP3    H231425   4.714   1.313  12.264 -1.6066 -0.7937  0.0066
 3312TIP3   OH231426   1.223   5.082   2.133  0.0501 -0.4705  0.1428
 3312TIP3    H131427   1.131   5.107   2.145  0.1706 -0.4806  1.1312
 3312TIP3    H231428   1.229   4.995   2.174  0.5817 -0.3110  0.4021
 3313TIP3   OH231429   2.055   1.603   9.752 -0.2525  0.4879 -0.1629
 3313TIP3    H131430   2.101   1.599   9.836  0.6422 -1.7840 -0.7221
 3313TIP3    H231431   2.118   1.645   9.693 -0.2540  0.6204 -0.0694
 3314TIP3   OH231432   6.884   0.446  10.523  0.1130  0.2428 -0.4746
 3314TIP3    H131433   6.804   0.405  10.491  0.5053  0.1999 -1.4256
 3314TIP3    H231434   6.920   0.383  10.586 -1.3826  0.9449  1.0991
 3315TIP3   OH231435   3.051   4.068  10.264  0.0052 -0.2161  0.1458
 3315TIP3    H131436   3.068   4.148  10.312  0.3574  1.6434 -2.9735
 3315TIP3    H231437   3.033   4.003  10.332  0.2407  2.3400  2.7488
 3316TIP3   OH231438   6.018   3.062  13.811  0.0519  0.1550  0.1201
 3316TIP3    H131439   6.102   3.103  13.832 -0.5840  0.3637  2.3121
 3316TIP3    H231440   5.963   3.078  13.887 -1.4811 -1.3800 -0.6245
 3317TIP3   OH231441   7.046   2.002  11.129  0.2971  0.0090 -0.5307
 3317TIP3    H131442   7.019   1.911  11.121 -0.5172  0.2602 -0.6915
 3317TIP3    H231443   7.141   1.998  11.140  0.2878 -0.8472 -0.7183
 3318TIP3   OH231444   0.642   2.149  13.647  0.2405  0.3458  0.4425
 3318TIP3    H131445   0.600   2.160  13.732  2.0783 -1.0116  1.5841
 3318TIP3    H231446   0.661   2.055  13.643  2.4620  0.8107 -0.3240
 3319TIP3   OH231447   2.107   2.853  12.645 -0.3391 -0.2038 -0.1201
 3319TIP3    H131448   2.100   2.774  12.590 -0.8265  0.0679 -0.4512
 3319TIP3    H231449   2.077   2.924  12.589 -0.7144  0.0991  0.4592
 3320TIP3   OH231450   1.885   6.753  14.354  0.4538  0.5615  0.1144
 3320TIP3    H131451   1.795   6.722  14.349  1.0198 -1.2099  0.4983
 3320TIP3    H231452   1.908   6.746  14.447  1.1521  0.4697 -0.0585
 3321TIP3   OH231453   1.688   4.984  15.019 -0.5057  0.0476 -0.5813
 3321TIP3    H131454   1.711   5.031  14.938  1.1520  0.5385  0.1456
 3321TIP3    H231455   1.644   4.905  14.989  0.8150 -0.1833 -2.0162
 3322TIP3   OH231456   6.964   6.705  14.450 -0.0601 -0.0491  0.2425
 3322TIP3    H131457   6.985   6.713  14.543 -0.0962 -0.3470  0.2768
 3322TIP3    H231458   7.046   6.680  14.409 -0.1265 -0.2658  0.2428
 3323TIP3   OH231459   0.774   5.218  10.999  0.3948 -0.3997 -0.4356
 3323TIP3    H131460   0.850   5.163  11.020  0.0522 -0.7194 -0.0368
 3323TIP3    H231461   0.810   5.306  10.991  0.8274 -0.5675 -0.3437
 3324TIP3   OH231462   6.648   5.090   0.976  0.2179  0.4235 -0.4316
 3324TIP3    H131463   6.723   5.149   0.986  0.2695  0.2885  0.0047
 3324TIP3    H231464   6.582   5.143   0.931  0.0062  1.0638  0.5984
 3325TIP3   OH231465   6.359   6.566  10.214  0.0078 -0.2566  0.2757
 3325TIP3    H131466   6.429   6.631  10.203 -1.6629  1.3812 -1.0289
 3325TIP3    H231467   6.393   6.487  10.173  1.0262  0.5889 -0.5434
 3326TIP3   OH231468   0.653   2.634  14.965 -0.9966 -0.1950  0.4908
 3326TIP3    H131469   0.737   2.601  14.933 -0.6793  0.3212  0.7760
 3326TIP3    H231470   0.626   2.698  14.899  0.6132  2.3254  2.1766
 3327TIP3   OH231471   3.018   6.947  12.149  0.0735  0.0900  0.0411
 3327TIP3    H131472   2.973   6.981  12.071 -0.2883 -0.2693  0.0917
 3327TIP3    H231473   3.108   6.979  12.140 -0.5501  2.1144  0.7122
 3328TIP3   OH231474   5.792   0.049  10.868 -0.4969 -0.8140 -0.5543
 3328TIP3    H131475   5.740  -0.021  10.829 -1.4825 -0.9239  0.9500
 3328TIP3    H231476   5.766   0.128  10.819  0.5548 -1.4468 -2.1901
 3329TIP3   OH231477   6.117   0.692   1.195 -0.4318  0.7157  0.0992
 3329TIP3    H131478   6.201   0.723   1.228  0.9133 -3.9833  1.5181
 3329TIP3    H231479   6.137   0.651   1.111 -1.5949  0.8666 -0.2706
 3330TIP3   OH231480   2.282   2.454   0.467 -0.6133  0.9290 -0.5071
 3330TIP3    H131481   2.302   2.366   0.436 -0.0343  0.7339  0.3997
 3330TIP3    H231482   2.338   2.466   0.544 -2.0913  1.3659  0.5219
 3331TIP3   OH231483   6.032   3.571  14.411 -0.7212  0.2300 -0.2956
 3331TIP3    H131484   6.055   3.482  14.383  0.1762  0.3526  0.0356
 3331TIP3    H231485   6.113   3.621  14.399 -1.4363  1.1843 -1.2331
 3332TIP3   OH231486   2.117   1.534  14.019 -0.1675  0.1638  0.6277
 3332TIP3    H131487   2.176   1.602  14.052 -0.9666  1.2811 -0.1931
 3332TIP3    H231488   2.081   1.571  13.939 -0.6909 -1.2096  0.2122
 3333TIP3   OH231489   0.517   3.942  12.689  0.0801 -0.0825  0.2215
 3333TIP3    H131490   0.497   3.914  12.600 -0.5362  1.8352 -0.2716
 3333TIP3    H231491   0.439   3.919  12.740 -1.0942  2.0985 -0.5113
 3334TIP3   OH231492   1.011   2.731  14.570 -0.1675 -0.9177  0.8895
 3334TIP3    H131493   1.014   2.826  14.561 -0.5325 -0.9793  0.0329
 3334TIP3    H231494   1.103   2.704  14.561 -0.2640 -0.7905 -0.7816
 3335TIP3   OH231495   1.321   1.132  13.543  0.1725  0.2639  0.7527
 3335TIP3    H131496   1.398   1.179  13.512  0.3917  0.1637  1.1379
 3335TIP3    H231497   1.295   1.178  13.623  0.8724 -0.7504  1.5735
 3336TIP3   OH231498   4.083   2.216  13.775  0.3205  0.4836  0.0076
 3336TIP3    H131499   3.994   2.231  13.807  0.5881  0.4822  0.7645
 3336TIP3    H231500   4.074   2.211  13.679 -0.3565  1.3779  0.0249
 3337TIP3   OH231501   3.927   2.849  14.432  0.2025 -0.0526  0.0691
 3337TIP3    H131502   3.948   2.797  14.510  1.6295 -0.1697 -0.3810
 3337TIP3    H231503   3.843   2.816  14.403 -0.2082 -0.2176  1.3868
 3338TIP3   OH231504   0.209   3.525  11.242  0.3013 -0.2785 -0.9542
 3338TIP3    H131505   0.193   3.443  11.196  0.7198  0.0258 -1.6512
 3338TIP3    H231506   0.228   3.588  11.173  0.9917  0.1747 -0.3602
 3339TIP3   OH231507   3.335   1.884  13.093  0.1318 -0.3209 -0.0917
 3339TIP3    H131508   3.382   1.821  13.149  0.6016  0.7006  0.6752
 3339TIP3    H231509   3.286   1.938  13.154 -0.7957 -0.3621 -0.8006
 3340TIP3   OH231510   5.158   3.051  11.144 -0.0140  0.0679  0.3540
 3340TIP3    H131511   5.224   3.037  11.076  0.5547 -0.8382  1.0828
 3340TIP3    H231512   5.075   3.031  11.101  0.3388 -0.4218 -0.1072
 3341TIP3   OH231513   0.305   6.752  11.789 -0.0292  0.7467  0.4873
 3341TIP3    H131514   0.374   6.759  11.856 -1.3299 -0.2737  1.9786
 3341TIP3    H231515   0.251   6.830  11.801  0.4865  1.2284 -0.2657
 3342TIP3   OH231516   4.675   0.903  14.475  0.2713  0.0573  0.1783
 3342TIP3    H131517   4.608   0.854  14.522 -1.2972  1.6623 -0.3120
 3342TIP3    H231518   4.744   0.840  14.458 -0.9277 -1.5258  1.0947
 3343TIP3   OH231519   0.640   2.407   1.458 -0.1495  0.1266 -0.3603
 3343TIP3    H131520   0.620   2.444   1.543 -1.6623 -3.4602  0.9512
 3343TIP3    H231521   0.683   2.478   1.410 -3.4904  3.7561  1.6784
 3344TIP3   OH231522   2.858   5.994  15.181  0.4702 -0.1413 -0.4466
 3344TIP3    H131523   2.779   6.024  15.134  0.8900  2.8004  0.6071
 3344TIP3    H231524   2.828   5.920  15.234 -1.3671  0.3490 -0.7595
 3345TIP3   OH231525   2.010   4.003  14.017 -0.0685  0.2966 -0.4594
 3345TIP3    H131526   2.005   4.096  14.037  0.4819  0.0515  0.8356
 3345TIP3    H231527   1.923   3.969  14.037 -0.1647  0.4596 -0.5949
 3346TIP3   OH231528   2.102   1.264  12.708  0.1257 -0.0596  0.4119
 3346TIP3    H131529   2.125   1.200  12.640  1.0339 -0.6496  1.2633
 3346TIP3    H231530   2.160   1.243  12.781 -0.3898  0.9969  1.1301
 3347TIP3   OH231531   2.086   4.638  14.701  0.2339  0.1743  0.0833
 3347TIP3    H131532   2.124   4.558  14.737  0.0462 -0.3550 -0.8788
 3347TIP3    H231533   2.124   4.646  14.614  1.3565  1.9242  0.7244
 3348TIP3   OH231534   0.049   1.448  15.002 -0.1515  0.1907  0.3821
 3348TIP3    H131535  -0.015   1.385  15.037 -0.7782  0.2990 -0.5443
 3348TIP3    H231536   0.018   1.533  15.034 -1.5083  0.4470 -1.5129
 3349TIP3   OH231537   0.259   1.303  12.786 -0.7874 -0.1074 -0.2554
 3349TIP3    H131538   0.277   1.329  12.696  2.2021  1.4846  0.7362
 3349TIP3    H231539   0.298   1.216  12.795  0.1622  0.3298 -0.1143
 3350TIP3   OH231540   5.306   3.003   1.528  0.7347 -0.0374  0.2214
 3350TIP3    H131541   5.396   3.004   1.495  1.3741  0.2606  1.9378
 3350TIP3    H231542   5.284   3.095   1.542  0.1494 -0.1063 -0.2196
 3351TIP3   OH231543   0.196   5.717  11.511  0.0316  0.0945  0.0238
 3351TIP3    H131544   0.204   5.763  11.427 -0.6050  0.9992  0.4485
 3351TIP3    H231545   0.104   5.725  11.534  0.4307  0.9549  1.4202
 3352TIP3   OH231546   0.050   4.667  14.464 -0.5311 -0.4828  0.0858
 3352TIP3    H131547   0.019   4.681  14.374  0.4856 -0.6959 -0.3025
 3352TIP3    H231548   0.079   4.576  14.464  2.2681  0.3870 -0.2080
 3353TIP3   OH231549   1.357   4.378  12.681  0.4270  0.7610 -0.0197
 3353TIP3    H131550   1.387   4.312  12.619 -0.0740  0.3153  0.2081
 3353TIP3    H231551   1.268   4.350  12.705  0.4887  1.1098  0.6368
 3354TIP3   OH231552   0.935   1.911  12.806  0.3473 -0.1745 -0.3780
 3354TIP3    H131553   0.998   1.938  12.873  0.8198 -0.2857 -0.7726
 3354TIP3    H231554   0.986   1.855  12.747  0.8949  2.9137 -2.9478
 3355TIP3   OH231555   0.311   2.908  13.354  0.1733  0.5853 -0.6838
 3355TIP3    H131556   0.372   2.973  13.319  0.5518 -0.1198 -1.3583
 3355TIP3    H231557   0.337   2.826  13.312  0.7833 -0.3451  1.4067
 3356TIP3   OH231558   2.898   5.005  12.589  0.2841  0.2767  0.2112
 3356TIP3    H131559   2.940   5.006  12.503 -0.1278 -1.0741 -0.0180
 3356TIP3    H231560   2.971   5.006  12.651  0.5856  1.1433 -0.1480
 3357TIP3   OH231561   2.713   3.518  14.198 -0.5150  0.0942 -0.1749
 3357TIP3    H131562   2.762   3.440  14.223 -0.4489  0.3424  0.4977
 3357TIP3    H231563   2.700   3.510  14.104 -0.2589 -0.5837 -0.1532
 3358TIP3   OH231564   1.891   4.854  10.490  0.1887  0.4612  0.5378
 3358TIP3    H131565   1.915   4.826  10.578 -2.1492  1.3756  1.5022
 3358TIP3    H231566   1.855   4.776  10.448  3.0957 -0.4864 -0.3438
 3359TIP3   OH231567   3.267   0.710  12.786 -0.4313 -0.3750 -0.4425
 3359TIP3    H131568   3.358   0.739  12.784 -0.2967 -0.7589  0.0417
 3359TIP3    H231569   3.217   0.789  12.804 -0.3999  0.2790 -3.0691
 3360TIP3   OH231570   5.666   3.460  13.097  0.5558  0.7642  1.0340
 3360TIP3    H131571   5.637   3.370  13.113  1.2617  0.2571 -0.4445
 3360TIP3    H231572   5.745   3.469  13.151  2.0295 -0.4215 -0.8513
 3361TIP3   OH231573   3.278   5.473  14.091  0.5973 -0.0860  0.2031
 3361TIP3    H131574   3.251   5.382  14.087 -0.3775  0.1798  0.5081
 3361TIP3    H231575   3.368   5.471  14.123  1.5933 -1.1008 -2.5541
 3362TIP3   OH231576   1.336   6.165  11.207  0.1604 -0.5105 -0.1985
 3362TIP3    H131577   1.338   6.093  11.270  0.3430  0.5801  1.0744
 3362TIP3    H231578   1.423   6.164  11.167 -0.2479 -1.7606 -1.0934
 3363TIP3   OH231579   4.086   0.697  14.469  0.2996  0.0255 -0.7269
 3363TIP3    H131580   4.076   0.626  14.406  0.0453  1.4476 -2.3169
 3363TIP3    H231581   4.179   0.697  14.490  0.3086 -0.7453 -0.7449
 3364TIP3   OH231582   1.059   6.829  10.260  0.2042 -0.4775 -0.0615
 3364TIP3    H131583   1.138   6.775  10.261 -0.2685 -1.1722 -0.5450
 3364TIP3    H231584   1.088   6.912  10.299  1.1374 -0.7719 -0.0981
 3365TIP3   OH231585   3.713   4.235  14.629  0.5281  0.0514 -0.6373
 3365TIP3    H131586   3.660   4.172  14.581 -0.6057 -0.2926  1.0580
 3365TIP3    H231587   3.653   4.277  14.690  2.0611  0.1227  0.8586
 3366TIP3   OH231588   1.027   4.002  13.627  0.1970  0.2517  0.3932
 3366TIP3    H131589   1.089   4.046  13.685  0.6419  0.8132 -0.4848
 3366TIP3    H231590   1.009   4.066  13.558 -0.1413 -0.4821 -0.2131
 3367TIP3   OH231591   1.823   1.309  13.905 -0.0785 -0.2428  0.1298
 3367TIP3    H131592   1.774   1.391  13.900  0.9854  0.3314 -2.0017
 3367TIP3    H231593   1.773   1.248  13.851  0.8813  0.0162 -1.0952
 3368TIP3   OH231594   1.566   2.243  13.804  0.3773 -0.1269 -0.0007
 3368TIP3    H131595   1.487   2.273  13.849  1.0579  2.2324 -0.3442
 3368TIP3    H231596   1.538   2.163  13.758 -1.4656 -0.0288  0.8940
 3369TIP3   OH231597   2.033   6.404  10.278  0.6792 -0.0082  0.4421
 3369TIP3    H131598   1.975   6.333  10.252 -0.9390  0.8816  1.5133
 3369TIP3    H231599   2.029   6.404  10.374  1.7258  0.6700  0.4949
 3370TIP3   OH231600   2.149   2.292  13.690  0.3062 -0.1706  0.0251
 3370TIP3    H131601   2.150   2.224  13.622 -3.3282 -0.1966 -0.1085
 3370TIP3    H231602   2.203   2.362  13.654 -0.4882 -0.7025 -2.3595
 3371TIP3   OH231603   5.704   1.756  14.967 -0.1630 -0.0993  0.7924
 3371TIP3    H131604   5.667   1.694  14.904  3.5579  0.4632 -2.1049
 3371TIP3    H231605   5.748   1.702  15.032 -0.3935 -0.5880  0.5409
 3372TIP3   OH231606   4.113   3.838  13.894 -0.2571 -0.2860  0.3314
 3372TIP3    H131607   4.207   3.827  13.880 -0.6454 -1.8317 -1.3635
 3372TIP3    H231608   4.076   3.751  13.879 -1.9338  0.2417  1.2151
 3373TIP3   OH231609   3.298   0.974  14.046 -0.7804 -0.2923 -0.4623
 3373TIP3    H131610   3.292   0.899  14.104 -1.8331 -0.1847 -0.4285
 3373TIP3    H231611   3.326   0.938  13.962  0.7442 -0.4457  0.1003
 3374TIP3   OH231612   3.666   1.090  14.259  0.0045 -0.1530 -1.0072
 3374TIP3    H131613   3.689   1.031  14.188 -0.2878 -0.6690 -0.6711
 3374TIP3    H231614   3.579   1.062  14.288 -1.1115  1.8190 -2.3198
 3375TIP3   OH231615   3.638   6.779  13.498 -0.6506  0.0788 -0.2133
 3375TIP3    H131616   3.731   6.761  13.486 -0.8422 -0.7636 -0.4949
 3375TIP3    H231617   3.594   6.701  13.463 -1.4457  0.3208  0.2361
 3376TIP3   OH231618   1.420   1.111  12.492  0.1173 -0.3446  0.1106
 3376TIP3    H131619   1.471   1.191  12.485  0.2401 -0.5567 -1.8127
 3376TIP3    H231620   1.332   1.140  12.517  0.2902  0.3448 -0.0827
 3377TIP3   OH231621   1.135   0.466  13.207 -0.1076  0.0215  0.0056
 3377TIP3    H131622   1.188   0.509  13.275 -0.8775 -0.8999  1.2201
 3377TIP3    H231623   1.199   0.432  13.144  0.6222  0.8564  0.2936
 3378TIP3   OH231624   1.056   1.657   2.873  0.5441  0.0079  0.0886
 3378TIP3    H131625   1.113   1.684   2.802 -0.1945  1.6261  0.0951
 3378TIP3    H231626   0.969   1.650   2.833  0.2769  0.0975  0.6448
 3379TIP3   OH231627   0.888   6.149  10.240 -0.1258 -0.9090  0.0985
 3379TIP3    H131628   0.832   6.177  10.312 -0.1149 -0.7247  0.0327
 3379TIP3    H231629   0.882   6.053  10.241 -1.8189 -0.8402 -0.9987
 3380TIP3   OH231630   4.295   4.394  10.675 -0.4930  0.1991 -0.3500
 3380TIP3    H131631   4.357   4.387  10.603 -0.7260  1.0782 -0.6492
 3380TIP3    H231632   4.211   4.372  10.636 -0.7693  1.6104 -0.5961
 3381TIP3   OH231633   0.712   3.645  12.874  0.2497 -0.5029  0.9845
 3381TIP3    H131634   0.676   3.603  12.952 -1.9508  0.9182  0.7543
 3381TIP3    H231635   0.644   3.637  12.808  0.5160  1.7589  0.3808
 3382TIP3   OH231636   2.452   6.964   0.264  0.1851 -0.0342 -0.3090
 3382TIP3    H131637   2.389   7.031   0.239  0.4049  0.5142  0.5455
 3382TIP3    H231638   2.529   6.982   0.210 -0.0752 -0.1443 -0.7133
 3383TIP3   OH231639   1.606   6.576  12.711  0.2475  0.0563 -0.0370
 3383TIP3    H131640   1.562   6.494  12.691  0.7573 -0.1487 -0.3232
 3383TIP3    H231641   1.699   6.559  12.693  0.2598  0.9160 -0.8426
 3384TIP3   OH231642   2.904   5.460   0.059  0.3804  0.8901 -0.0284
 3384TIP3    H131643   2.946   5.459  -0.027 -0.1300 -2.1000 -0.3057
 3384TIP3    H231644   2.810   5.452   0.040  0.2278  0.6585  0.7851
 3385TIP3   OH231645   1.747   0.897  13.258  0.4038  0.3522  0.3063
 3385TIP3    H131646   1.801   0.823  13.284  2.2785  1.8167  0.6422
 3385TIP3    H231647   1.731   0.884  13.165  0.3014 -0.7241  0.4687
 3386TIP3   OH231648   6.798   4.082  12.138 -0.3881 -0.6401 -0.0582
 3386TIP3    H131649   6.782   4.168  12.178 -1.3298 -0.1764 -1.4025
 3386TIP3    H231650   6.764   4.020  12.202  1.2875 -0.0842  1.4140
 3387TIP3   OH231651   2.592   6.787  13.743 -0.5558 -0.3999 -0.3598
 3387TIP3    H131652   2.524   6.836  13.697 -0.9810  0.2293  0.9143
 3387TIP3    H231653   2.619   6.719  13.682 -1.5000  0.0859 -1.3183
 3388TIP3   OH231654   5.568   1.774   0.258 -0.0006 -0.3690  0.4178
 3388TIP3    H131655   5.605   1.692   0.290 -0.4245 -1.1967 -1.2230
 3388TIP3    H231656   5.475   1.756   0.245  0.2276 -0.1343 -1.5978
 3389TIP3   OH231657   1.282   1.187  11.945  0.6422 -0.2993  0.5754
 3389TIP3    H131658   1.330   1.114  11.983  1.0239 -1.2994 -1.7791
 3389TIP3    H231659   1.295   1.179  11.851 -1.8491  1.0176  0.0640
 3390TIP3   OH231660   1.515   3.323  13.758  0.4357  0.3952  0.1914
 3390TIP3    H131661   1.602   3.363  13.760  0.8977 -0.6390  1.4839
 3390TIP3    H231662   1.461   3.384  13.708  2.5492 -0.2109 -3.0194
 3391TIP3   OH231663   1.345   2.791  13.931  0.6990 -0.1410  0.1194
 3391TIP3    H131664   1.307   2.878  13.942 -2.4113 -1.5572  0.9825
 3391TIP3    H231665   1.374   2.789  13.839  2.9416  2.5490  0.6882
 3392TIP3   OH231666   4.696   2.166  13.033 -0.2253 -0.0390  0.3676
 3392TIP3    H131667   4.647   2.242  13.065 -0.0479  0.3302 -0.2416
 3392TIP3    H231668   4.630   2.110  12.992  0.4215  2.5669 -4.5750
 3393TIP3   OH231669   4.338   6.047  14.199  0.6989  0.5440 -0.0481
 3393TIP3    H131670   4.292   5.968  14.171  2.4700 -0.7453  0.5454
 3393TIP3    H231671   4.345   6.101  14.121 -1.0082  0.3618 -0.3358
 3394TIP3   OH231672   4.351   4.521  14.505  0.0391 -0.2320  0.0031
 3394TIP3    H131673   4.259   4.522  14.532 -0.8919 -2.3546 -2.7170
 3394TIP3    H231674   4.355   4.580  14.430  1.4821  1.8132  1.6502
 3395TIP3   OH231675   1.859   0.615  11.159 -0.1738 -0.1237 -0.2964
 3395TIP3    H131676   1.882   0.540  11.105 -0.0227 -0.0246 -0.3697
 3395TIP3    H231677   1.943   0.649  11.190 -0.3893 -2.0672  2.5824
 3396TIP3   OH231678   3.735   1.308  13.542 -0.0843  0.2852  0.3608
 3396TIP3    H131679   3.669   1.239  13.540  0.7480 -0.5171  0.2934
 3396TIP3    H231680   3.742   1.332  13.634 -0.0645 -0.0180  0.4375
 3397TIP3   OH231681   0.083   1.882   9.682  0.0812  0.4113 -0.0036
 3397TIP3    H131682   0.107   1.915   9.596  0.4345 -0.5019 -0.2661
 3397TIP3    H231683   0.138   1.804   9.694 -1.3902 -0.6224  0.1801
 3398TIP3   OH231684   2.998   6.811  11.828  0.2783 -0.4445 -0.3561
 3398TIP3    H131685   2.952   6.888  11.863 -0.9676 -1.0635 -0.5874
 3398TIP3    H231686   3.075   6.847  11.786 -0.6132  0.7579 -1.0141
 3399TIP3   OH231687   1.443   1.380  10.197  0.2613  0.5214  0.1945
 3399TIP3    H131688   1.436   1.383  10.102 -1.2548  0.4084  0.2988
 3399TIP3    H231689   1.412   1.466  10.227 -0.7088  0.0173  0.6642
 3400TIP3   OH231690   5.226   0.550  13.495  0.1738  0.0921  0.4338
 3400TIP3    H131691   5.259   0.485  13.433  1.8038  2.1299 -0.8689
 3400TIP3    H231692   5.131   0.548  13.483  0.0475 -3.2084  1.6082
 3401TIP3   OH231693   2.902   2.334  11.768 -0.4606  0.4294 -1.0166
 3401TIP3    H131694   2.922   2.373  11.853 -1.0386  1.1710 -1.2197
 3401TIP3    H231695   2.814   2.365  11.748 -0.7524 -0.6184 -1.3903
 3402TIP3   OH231696   1.219   6.089  13.711 -0.0131  0.3514 -0.5134
 3402TIP3    H131697   1.227   5.999  13.680  0.7030  0.5961 -1.0488
 3402TIP3    H231698   1.293   6.135  13.671 -0.6229  1.2757 -0.5928
 3403TIP3   OH231699   3.108   4.414  10.636 -0.1017 -0.0123  0.3899
 3403TIP3    H131700   3.130   4.440  10.726  1.4699  1.7421 -0.4616
 3403TIP3    H231701   3.059   4.332  10.646  0.2605  0.0256  2.8277
 3404TIP3   OH231702   0.815   4.380  11.987 -0.0187 -0.3114  0.4823
 3404TIP3    H131703   0.823   4.368  12.082  0.7390 -2.1399  0.2170
 3404TIP3    H231704   0.809   4.291  11.952 -0.6198  0.3505 -1.1678
 3405TIP3   OH231705   4.796   1.101  11.019 -0.0825  0.5438 -0.7013
 3405TIP3    H131706   4.875   1.103  10.965 -0.3816 -0.1345 -1.1722
 3405TIP3    H231707   4.819   1.042  11.092 -0.3319 -0.0763 -1.1222
 3406TIP3   OH231708   1.455   0.934  10.990 -0.1711 -0.3330 -0.2712
 3406TIP3    H131709   1.522   0.918  10.924  0.6832  2.4485 -0.1376
 3406TIP3    H231710   1.501   0.928  11.074 -0.7996 -1.6763 -0.0043
 3407TIP3   OH231711   6.301   2.413  10.128 -0.7641 -0.4192 -0.2748
 3407TIP3    H131712   6.216   2.450  10.149 -0.4381 -0.3626  0.9724
 3407TIP3    H231713   6.360   2.446  10.196  0.6350  0.9318 -2.0629
 3408TIP3   OH231714   3.959   5.777   2.236 -0.6277  0.2943  0.5398
 3408TIP3    H131715   3.964   5.695   2.186 -0.5127  0.0819  0.9039
 3408TIP3    H231716   3.865   5.792   2.247 -0.6586  0.4628  0.0585
 3409TIP3   OH231717   1.564   3.408  10.681 -0.6370 -0.4456  0.4692
 3409TIP3    H131718   1.539   3.335  10.624 -1.2020 -0.6683  0.9957
 3409TIP3    H231719   1.606   3.470  10.623 -0.0643 -1.2328  0.0262
 3410TIP3   OH231720   1.332   0.476  10.151  0.0105 -0.1149  0.5283
 3410TIP3    H131721   1.398   0.532  10.192  0.0592 -1.5170  2.3997
 3410TIP3    H231722   1.260   0.473  10.214 -0.5131 -1.1472 -0.1017
 3411TIP3   OH231723   1.758   5.930  15.157 -0.1057 -0.0188  0.4002
 3411TIP3    H131724   1.784   6.019  15.134  0.5143  0.0901  1.5070
 3411TIP3    H231725   1.816   5.905  15.229 -0.8252 -1.0077  0.6551
 3412TIP3   OH231726   6.964   6.971  12.864  0.0714 -0.2715  0.0690
 3412TIP3    H131727   7.029   6.949  12.931  0.7711  1.2802 -0.0884
 3412TIP3    H231728   6.991   7.056  12.831 -2.5876  0.8287  0.6466
 3413TIP3   OH231729   6.497   0.180  11.460  0.1473  0.0583 -0.5790
 3413TIP3    H131730   6.447   0.247  11.414 -1.6623 -0.7338  0.1839
 3413TIP3    H231731   6.571   0.227  11.499  0.1693  1.1888 -1.9622
 3414TIP3   OH231732   1.319   3.297  14.099  0.1966  0.1349 -0.4709
 3414TIP3    H131733   1.358   3.286  14.186 -0.4432 -0.2526 -0.2289
 3414TIP3    H231734   1.238   3.346  14.114 -1.2888 -2.2122 -0.4822
 3415TIP3   OH231735   4.248   2.922  14.879 -0.2750 -0.0062 -0.3521
 3415TIP3    H131736   4.161   2.897  14.910  0.7810 -0.3455  2.4966
 3415TIP3    H231737   4.268   3.003  14.927  1.8788 -1.1645  0.7629
 3416TIP3   OH231738   0.988   0.686  13.705  0.6644  0.7311  0.0455
 3416TIP3    H131739   1.004   0.741  13.782 -1.6991  1.2685  0.1894
 3416TIP3    H231740   0.971   0.599  13.741  2.0087  0.4366 -0.0284
 3417TIP3   OH231741   5.253   1.607  11.478 -0.0802 -0.7618 -0.2426
 3417TIP3    H131742   5.348   1.604  11.495  0.0656 -0.8908 -1.0623
 3417TIP3    H231743   5.225   1.516  11.488 -0.0535 -0.7830 -0.3612
 3418TIP3   OH231744   4.480   0.798  12.390  0.1738 -0.2149 -0.1355
 3418TIP3    H131745   4.401   0.761  12.351 -0.5254  0.3461  0.7524
 3418TIP3    H231746   4.461   0.891  12.399  1.0075 -0.0461 -0.0752
 3419TIP3   OH231747   5.164   3.701  12.908 -0.0742 -0.3986  0.2214
 3419TIP3    H131748   5.104   3.771  12.883  2.0296  1.2505 -0.2940
 3419TIP3    H231749   5.196   3.665  12.825 -0.4163 -1.3620  0.4929
 3420TIP3   OH231750   5.247   3.418  14.657  0.6010  0.1548 -0.1080
 3420TIP3    H131751   5.153   3.415  14.638 -0.1180  2.4927  2.7315
 3420TIP3    H231752   5.278   3.493  14.607  0.8290 -0.2234 -0.5322
 3421TIP3   OH231753   3.254   5.618  12.922  0.2304  0.0679  0.4818
 3421TIP3    H131754   3.175   5.574  12.954  1.1592 -2.1086 -0.0884
 3421TIP3    H231755   3.318   5.547  12.912  1.3145  1.3368 -1.9912
 3422TIP3   OH231756   5.700   2.741   1.332 -0.5972  0.2140 -0.4603
 3422TIP3    H131757   5.671   2.651   1.318  0.7123 -0.4217  0.7501
 3422TIP3    H231758   5.755   2.760   1.255  3.9296 -2.1410  1.9535
 3423TIP3   OH231759   1.129   4.866  14.927  0.1290 -0.2898  0.4720
 3423TIP3    H131760   1.189   4.819  14.868  0.3799  0.1211  0.4022
 3423TIP3    H231761   1.182   4.936  14.964 -0.8675  1.3948 -1.2107
 3424TIP3   OH231762   3.207   5.314  13.258  0.1373 -0.1760 -0.2334
 3424TIP3    H131763   3.166   5.232  13.286 -0.7012  0.3796  0.1760
 3424TIP3    H231764   3.278   5.327  13.321 -0.5100  0.0503  0.4633
 3425TIP3   OH231765   1.142   0.786  13.414 -0.6247  0.8701  0.6282
 3425TIP3    H131766   1.185   0.812  13.496  0.9997  1.8692 -0.5076
 3425TIP3    H231767   1.146   0.691  13.415  2.0247  0.9256  0.3874
 3426TIP3   OH231768   0.579   1.016  13.548  0.0805 -0.4033 -0.3659
 3426TIP3    H131769   0.519   0.952  13.585  1.0719 -0.6009  0.9152
 3426TIP3    H231770   0.593   1.080  13.618  0.1092  0.5261 -1.1999
 3427TIP3   OH231771   2.887   0.978  12.233  0.3039  0.2668 -0.5113
 3427TIP3    H131772   2.947   1.046  12.201 -0.4855  1.4650  0.5018
 3427TIP3    H231773   2.916   0.898  12.189  1.4445  1.1947 -1.4959
 3428TIP3   OH231774   3.894   6.755  13.412 -0.1621  0.0655 -0.0525
 3428TIP3    H131775   3.969   6.722  13.461 -1.4683  2.0491  3.4278
 3428TIP3    H231776   3.915   6.737  13.320  3.2729 -1.9149  1.0614
 3429TIP3   OH231777   3.133   2.351  10.048 -0.7518  0.2459 -0.1366
 3429TIP3    H131778   3.104   2.426   9.996  0.8247  1.3618  0.5501
 3429TIP3    H231779   3.159   2.286   9.983 -1.3524  0.6094 -0.7481
 3430TIP3   OH231780   4.666   2.349  15.091 -0.4302  0.4302 -0.2194
 3430TIP3    H131781   4.604   2.391  15.032  0.3108 -1.1309 -2.1557
 3430TIP3    H231782   4.651   2.255  15.078  0.1873  0.0606  1.6095
 3431TIP3   OH231783   3.804   2.937  10.736  0.3594  0.2979 -0.0732
 3431TIP3    H131784   3.877   2.970  10.682  0.1244  0.9726  0.0118
 3431TIP3    H231785   3.794   2.846  10.710  0.8158  0.3808 -0.5518
 3432TIP3   OH231786   3.515   6.632  11.528  0.6234 -0.2470  0.1312
 3432TIP3    H131787   3.555   6.678  11.601 -0.7632  0.0210  0.7349
 3432TIP3    H231788   3.487   6.548  11.564  2.3592 -1.2374 -0.7554
 3433TIP3   OH231789   1.311   1.465  11.977 -0.0587  0.3885  0.0664
 3433TIP3    H131790   1.388   1.472  12.033 -0.1633  1.9766  0.0213
 3433TIP3    H231791   1.290   1.371  11.978  2.9358 -0.3822 -1.4004
 3434TIP3   OH231792   2.820   5.392  12.166 -0.1963 -0.3965  0.0014
 3434TIP3    H131793   2.758   5.465  12.167 -1.3922 -1.4053  0.1848
 3434TIP3    H231794   2.776   5.321  12.213  0.8256 -1.3504 -0.4418
 3435TIP3   OH231795   1.326   6.951  11.484  0.1287 -0.2198  0.1522
 3435TIP3    H131796   1.270   6.989  11.416 -0.0533  1.0901  0.9947
 3435TIP3    H231797   1.415   6.974  11.458  0.1557 -0.8504 -0.3179
 3436TIP3   OH231798   3.466   2.239  12.120 -0.0214  0.0436  0.2814
 3436TIP3    H131799   3.453   2.146  12.102  0.2913 -0.2131  1.3267
 3436TIP3    H231800   3.490   2.278  12.036  2.5962 -1.3208  0.3408
 3437TIP3   OH231801   0.041   2.274  11.472 -0.8152 -0.1932 -0.0036
 3437TIP3    H131802   0.133   2.293  11.491 -0.9035  0.7425 -0.4556
 3437TIP3    H231803  -0.007   2.337  11.525 -1.2617 -1.9006  1.6560
 3438TIP3   OH231804   5.575   4.706  13.705 -1.0715 -0.6820 -0.1916
 3438TIP3    H131805   5.580   4.782  13.763 -1.2529 -1.7726  1.2773
 3438TIP3    H231806   5.496   4.720  13.654 -1.4293 -0.1806  0.4954
 3439TIP3   OH231807   6.976   7.047  12.263  0.0320 -0.4316  1.0667
 3439TIP3    H131808   6.881   7.043  12.272  0.1282  0.1058  2.5156
 3439TIP3    H231809   6.992   7.031  12.170 -1.4865 -0.2344  0.7531
 3440TIP3   OH231810   6.529   6.403   9.416  0.2628 -0.0757  0.4049
 3440TIP3    H131811   6.612   6.449   9.402 -0.3958  1.5637  1.6467
 3440TIP3    H231812   6.527   6.335   9.349  3.0819 -0.8135  0.9885
 3441TIP3   OH231813   1.179   2.782  12.954  0.2454  0.2934 -0.2036
 3441TIP3    H131814   1.166   2.784  13.049 -0.3911 -0.0722 -0.2755
 3441TIP3    H231815   1.249   2.719  12.940  1.0705  1.1362  0.0974
 3442TIP3   OH231816   6.639   0.206  12.620 -0.4137 -0.3066  0.4350
 3442TIP3    H131817   6.674   0.294  12.633  0.9403 -0.7064 -0.3580
 3442TIP3    H231818   6.560   0.203  12.674 -0.0953  1.1585  1.0074
 3443TIP3   OH231819   6.195   7.093  11.875  0.6465 -0.0196  0.3663
 3443TIP3    H131820   6.251   7.165  11.845 -1.0545  1.0987 -0.2761
 3443TIP3    H231821   6.185   7.037  11.798 -1.4407  1.3509 -0.4151
 3444TIP3   OH231822   4.135   6.644  13.225  0.2175  1.0298  1.0897
 3444TIP3    H131823   4.192   6.576  13.188 -4.7144 -1.7610 -1.9263
 3444TIP3    H231824   4.101   6.606  13.306 -0.9465  0.7383  0.4721
 3445TIP3   OH231825   2.309   3.831  14.592 -0.3945  0.3199  0.3258
 3445TIP3    H131826   2.385   3.879  14.559  0.3050  0.0234  1.4858
 3445TIP3    H231827   2.276   3.783  14.516  1.9144 -1.3169  0.3222
 3446TIP3   OH231828   1.694   4.202  13.201 -0.0483 -0.4068  0.4245
 3446TIP3    H131829   1.745   4.228  13.277 -0.5503 -1.1277  1.0202
 3446TIP3    H231830   1.608   4.241  13.215  0.4732  1.2194 -0.8173
 3447TIP3   OH231831   3.441   6.372   0.801 -0.0039 -0.3416  0.0277
 3447TIP3    H131832   3.526   6.328   0.793 -0.1550 -0.7574  0.6810
 3447TIP3    H231833   3.427   6.380   0.896  0.6236  2.2848 -0.0725
 3448TIP3   OH231834   1.664   1.426  10.358  0.0302 -0.7055  0.3557
 3448TIP3    H131835   1.590   1.386  10.312 -1.4663 -2.1833  3.9066
 3448TIP3    H231836   1.627   1.504  10.400  1.2538  0.3230 -0.4318
 3449TIP3   OH231837   5.225   0.772  13.670 -0.0545 -0.3991  0.3267
 3449TIP3    H131838   5.229   0.857  13.626 -0.1816 -1.0478 -0.9432
 3449TIP3    H231839   5.233   0.708  13.600 -0.3763 -1.4476  1.2385
 3450TIP3   OH231840   3.899   3.010  13.363 -0.1614  0.2907 -0.0749
 3450TIP3    H131841   3.816   3.035  13.402  0.8905  0.1665  2.3117
 3450TIP3    H231842   3.954   3.088  13.373  0.6664 -0.3326  0.2705
 3451TIP3   OH231843   5.993   1.529  14.348  0.3320 -0.1494 -0.0869
 3451TIP3    H131844   6.013   1.505  14.257 -0.1284 -0.2941 -0.1533
 3451TIP3    H231845   5.905   1.567  14.343  0.9586  1.3590  0.0471
 3452TIP3   OH231846   2.842   4.439   2.006 -0.8978 -0.0130  0.0125
 3452TIP3    H131847   2.753   4.434   1.971 -0.9246 -0.3234  0.1225
 3452TIP3    H231848   2.885   4.360   1.973 -0.6987  0.0771  0.0580
 3453TIP3   OH231849   2.402   6.484  10.726 -0.8916  0.2511 -0.1300
 3453TIP3    H131850   2.425   6.552  10.790 -0.2117 -0.5644  0.5072
 3453TIP3    H231851   2.449   6.509  10.647  2.2337 -1.3243  1.1231
 3454TIP3   OH231852   2.700   1.126  13.306 -0.6975  0.0942 -0.3331
 3454TIP3    H131853   2.791   1.098  13.318 -0.6562  0.3480 -0.0293
 3454TIP3    H231854   2.648   1.051  13.335 -0.5856  0.1010 -0.1090
 3455TIP3   OH231855   1.333   1.293   0.269  0.3918 -0.2039  0.7149
 3455TIP3    H131856   1.292   1.342   0.340  0.4304  0.5291  0.2383
 3455TIP3    H231857   1.335   1.354   0.195 -2.2577 -1.8422 -0.8027
 3456TIP3   OH231858   6.084   0.226  14.690  0.2258 -0.5040  0.4233
 3456TIP3    H131859   6.100   0.319  14.706 -0.0907 -0.1767 -1.1361
 3456TIP3    H231860   6.152   0.201  14.627 -0.9713 -0.8259 -0.7539
 3457TIP3   OH231861   5.239   0.245   0.076  0.0479 -0.3179  0.0199
 3457TIP3    H131862   5.181   0.320   0.090 -0.0397 -0.7453  2.0380
 3457TIP3    H231863   5.184   0.168   0.090  0.9901 -0.7262  1.7280
 3458TIP3   OH231864   4.341   2.762  11.048  0.3665  0.4026  0.0166
 3458TIP3    H131865   4.429   2.734  11.022  1.3701  2.7892  0.6853
 3458TIP3    H231866   4.300   2.684  11.085  2.1427 -0.7783 -0.4655
 3459TIP3   OH231867   3.126   3.410  12.418 -0.0354 -0.0695 -0.4462
 3459TIP3    H131868   3.150   3.331  12.369 -1.1093  0.8168 -2.4366
 3459TIP3    H231869   3.037   3.394  12.448  0.0286  0.0805 -0.1662
 3460TIP3   OH231870   2.561   4.103  12.315  0.2314  0.3578 -0.2677
 3460TIP3    H131871   2.499   4.174  12.330 -1.1548 -0.6195 -1.1635
 3460TIP3    H231872   2.633   4.143  12.266 -0.5506  1.1320 -0.8000
 3461TIP3   OH231873   5.497   4.260  15.235 -0.4639  0.1711  0.0527
 3461TIP3    H131874   5.571   4.199  15.230  0.9437  1.8045  0.3130
 3461TIP3    H231875   5.508   4.303  15.320 -1.8525  0.2721  0.1859
 3462TIP3   OH231876   1.791   2.132  14.062 -1.3313 -0.2092  0.1355
 3462TIP3    H131877   1.773   2.225  14.049  0.0195  0.0234 -0.1558
 3462TIP3    H231878   1.750   2.089  13.987 -0.8971  0.2862 -0.3907
 3463TIP3   OH231879   4.262   6.696  11.682 -0.1671 -0.4567 -0.1348
 3463TIP3    H131880   4.247   6.617  11.734 -1.4055  0.2391  0.6065
 3463TIP3    H231881   4.201   6.689  11.609  0.4776 -0.6956 -0.6508
 3464TIP3   OH231882   7.030   3.752  12.781  0.3555  0.2653  0.0442
 3464TIP3    H131883   7.112   3.769  12.734  1.2491 -0.0704  1.4325
 3464TIP3    H231884   7.051   3.770  12.872 -0.7676 -1.0770  0.5910
 3465TIP3   OH231885   0.574   6.167  10.828 -0.5097 -0.5018 -0.2160
 3465TIP3    H131886   0.666   6.193  10.840 -0.2902 -2.0281  1.5687
 3465TIP3    H231887   0.572   6.076  10.854 -2.5894 -0.4474 -0.1602
 3466TIP3   OH231888   4.173   4.682  11.382  0.2527  0.3991 -0.2098
 3466TIP3    H131889   4.173   4.728  11.298  0.1343  1.3590  0.3042
 3466TIP3    H231890   4.110   4.612  11.372  1.4199 -0.4962 -1.4628
 3467TIP3   OH231891   3.010   3.652  13.440 -0.1589  0.0308 -1.0927
 3467TIP3    H131892   3.000   3.577  13.381 -0.0963  0.9199 -2.2320
 3467TIP3    H231893   3.105   3.659  13.453 -0.2280 -0.8760  0.0590
 3468TIP3   OH231894   4.950   2.145  13.851  0.0378  0.0178  0.3661
 3468TIP3    H131895   4.877   2.087  13.871  1.9214 -2.3512  0.6044
 3468TIP3    H231896   4.921   2.232  13.879 -3.5840 -0.4147 -1.7176
 3469TIP3   OH231897   0.635   1.871  10.636  0.1414 -0.0038  0.3942
 3469TIP3    H131898   0.578   1.944  10.658 -1.4264 -1.3769  1.0237
 3469TIP3    H231899   0.643   1.874  10.541 -2.2620 -0.6812  0.1394
 3470TIP3   OH231900   5.953   6.338  13.407  0.0376  0.3939  0.5901
 3470TIP3    H131901   5.914   6.402  13.466  2.6511  0.3638  2.4186
 3470TIP3    H231902   5.915   6.254  13.434  0.1956  0.5602  1.3318
 3471TIP3   OH231903   5.697   1.475  12.069 -0.4909 -0.2418  0.4436
 3471TIP3    H131904   5.693   1.400  12.009 -0.4442 -1.0009  1.3794
 3471TIP3    H231905   5.773   1.525  12.040 -0.6144 -0.4594 -0.2814
 3472TIP3   OH231906   6.403   3.175   2.832 -0.1339 -0.4229  0.6923
 3472TIP3    H131907   6.486   3.147   2.792 -0.0959  0.8268 -0.1421
 3472TIP3    H231908   6.421   3.264   2.862 -1.3671  0.1034 -0.0928
 3473TIP3   OH231909   1.227   1.856  12.811  0.2519 -0.3648 -0.2537
 3473TIP3    H131910   1.297   1.896  12.759 -0.1648  1.1039  0.2971
 3473TIP3    H231911   1.205   1.775  12.763  1.8073 -0.4685 -0.8207
 3474TIP3   OH231912   1.508   5.615  10.972 -0.4948  0.1995  0.5786
 3474TIP3    H131913   1.598   5.630  10.941 -1.6120  1.1107 -2.4579
 3474TIP3    H231914   1.503   5.520  10.983  0.8435  0.1337  0.7498
 3475TIP3   OH231915   5.567   3.601   1.488  0.0773 -1.2735 -0.0142
 3475TIP3    H131916   5.509   3.650   1.546  1.4582 -0.6161  0.8255
 3475TIP3    H231917   5.563   3.511   1.521  0.7538 -0.9276  1.0316
 3476TIP3   OH231918   2.114   5.460  13.476 -0.4446 -0.1290  0.5773
 3476TIP3    H131919   2.163   5.500  13.548 -0.0852  1.1994 -0.3702
 3476TIP3    H231920   2.064   5.533  13.438 -0.4022 -0.7493 -0.6922
 3477TIP3   OH231921   1.614   6.139  12.859  0.2087 -0.2435  0.1585
 3477TIP3    H131922   1.618   6.225  12.902  1.0708 -0.3733  0.3645
 3477TIP3    H231923   1.575   6.081  12.924 -2.5229  0.4679 -0.8126
 3478TIP3   OH231924   2.652   2.661  13.917  0.6599 -0.0794 -0.4363
 3478TIP3    H131925   2.654   2.718  13.841  0.2325  0.0565 -0.3485
 3478TIP3    H231926   2.654   2.721  13.992  5.1495 -0.2804 -0.2483
 3479TIP3   OH231927   6.768   6.754  14.662 -0.0491 -0.5864 -0.0406
 3479TIP3    H131928   6.772   6.821  14.730  1.7096 -0.3540 -0.3293
 3479TIP3    H231929   6.761   6.671  14.709  0.3416 -0.3693  0.4045
 3480TIP3   OH231930   5.671   4.836  12.152 -0.1376 -0.2838 -0.5501
 3480TIP3    H131931   5.698   4.795  12.070  1.6225  2.0480 -1.1558
 3480TIP3    H231932   5.735   4.905  12.168 -1.9106  0.9761  1.4803
 3481TIP3   OH231933   6.552   5.704  11.375  0.0789  0.2357  0.5640
 3481TIP3    H131934   6.570   5.626  11.427 -1.0328 -1.3339 -1.3521
 3481TIP3    H231935   6.471   5.739  11.413 -0.0425 -0.1849  0.6931
 3482TIP3   OH231936   2.071   7.018   1.843 -0.0763 -0.0334  0.7719
 3482TIP3    H131937   2.137   6.987   1.780  0.4806  0.2610  1.2157
 3482TIP3    H231938   1.992   6.970   1.818  0.4534 -0.8558  0.6274
 3483TIP3   OH231939   6.788   0.131  10.125  0.3714  0.3138 -0.3765
 3483TIP3    H131940   6.875   0.155  10.093  0.1209  1.6719 -0.0749
 3483TIP3    H231941   6.789   0.035  10.130  2.3374  0.3929  1.0124
 3484TIP3   OH231942   2.311   5.424  12.067 -0.3082 -0.0106  0.5857
 3484TIP3    H131943   2.217   5.441  12.054 -0.4287  0.2044  1.6546
 3484TIP3    H231944   2.314   5.333  12.096  0.0915 -0.9963 -2.3742
 3485TIP3   OH231945   5.753   2.917  13.972  0.0667  0.2541 -0.6847
 3485TIP3    H131946   5.742   2.976  14.046  1.3762  0.4848 -0.6640
 3485TIP3    H231947   5.737   2.972  13.895  2.1588  0.8936 -0.7054
 3486TIP3   OH231948   3.758   2.256  12.674 -0.2674 -0.0939 -0.1179
 3486TIP3    H131949   3.799   2.200  12.608  1.2394  0.8418  0.0034
 3486TIP3    H231950   3.695   2.309  12.625 -1.5803 -1.7588 -0.2570
 3487TIP3   OH231951   3.219   6.309  14.206 -0.0973 -0.1050 -0.3666
 3487TIP3    H131952   3.177   6.278  14.286 -0.0630  1.5332  0.3101
 3487TIP3    H231953   3.232   6.403  14.220 -1.3676  0.4979 -2.8638
 3488TIP3   OH231954   4.445   2.850   0.461 -0.3823  0.0578 -0.3234
 3488TIP3    H131955   4.413   2.923   0.408 -0.8531  0.3924  0.4209
 3488TIP3    H231956   4.419   2.772   0.412 -2.4930  0.3144  0.3277
 3489TIP3   OH231957   3.760   6.799  12.837 -0.4010 -0.6962 -0.1128
 3489TIP3    H131958   3.754   6.728  12.901  0.3689 -0.8973 -0.2612
 3489TIP3    H231959   3.692   6.861  12.863 -0.8166 -1.3060  0.2472
 3490TIP3   OH231960   5.654   3.323  11.230 -0.1805 -0.0929  0.0672
 3490TIP3    H131961   5.562   3.346  11.213 -0.7577 -2.8996 -0.9345
 3490TIP3    H231962   5.649   3.237  11.273  1.9886 -0.3431 -0.1550
 3491TIP3   OH231963   3.713   5.599  13.367  0.1619 -0.0178 -0.6026
 3491TIP3    H131964   3.767   5.520  13.371 -1.8081 -1.3024  2.8846
 3491TIP3    H231965   3.634   5.570  13.321  0.0388  0.3175 -0.5990
 3492TIP3   OH231966   5.288   1.927   2.803  0.4154 -0.0698  0.0498
 3492TIP3    H131967   5.253   1.838   2.792  0.1465  0.0394  0.0276
 3492TIP3    H231968   5.236   1.981   2.743  0.3281  0.1677  0.3407
 3493TIP3   OH231969   3.126   4.340  11.729 -0.6058  0.0602 -0.0321
 3493TIP3    H131970   3.133   4.411  11.665 -2.7247 -0.3529 -0.7323
 3493TIP3    H231971   3.040   4.352  11.769  0.3682 -0.1387  2.2211
 3494TIP3   OH231972   1.204   2.730  10.576 -0.1629 -0.0188 -0.1905
 3494TIP3    H131973   1.122   2.699  10.538 -0.5287  0.2712  0.3576
 3494TIP3    H231974   1.193   2.825  10.582  0.4296  0.0803 -0.6239
 3495TIP3   OH231975   1.939   5.009   1.172  0.6624 -0.4491  0.3343
 3495TIP3    H131976   1.865   4.952   1.191  0.1986 -0.8832 -2.4595
 3495TIP3    H231977   2.014   4.950   1.167  1.1797 -0.0531  2.8343
 3496TIP3   OH231978   6.530   2.570   0.035  0.2188  0.7118 -0.2482
 3496TIP3    H131979   6.435   2.567   0.042  0.1644  0.5017 -1.1361
 3496TIP3    H231980   6.561   2.527   0.115 -0.4536 -3.1439 -1.9290
 3497TIP3   OH231981   3.501   1.183  11.009 -0.0010 -0.0666 -0.2507
 3497TIP3    H131982   3.518   1.223  10.924 -0.2690  0.0857 -0.2316
 3497TIP3    H231983   3.453   1.250  11.058  0.9108  0.1743  0.3210
 3498TIP3   OH231984   1.153   7.186  11.651  0.2850  0.2427  0.0923
 3498TIP3    H131985   1.206   7.249  11.602  0.9698  0.1332  0.6940
 3498TIP3    H231986   1.205   7.165  11.728 -0.1205 -0.7634  0.0941
 3499TIP3   OH231987   5.807   3.342  12.850 -0.1312  0.2280  0.5465
 3499TIP3    H131988   5.723   3.325  12.807  0.9688 -0.1500 -1.4914
 3499TIP3    H231989   5.792   3.422  12.901 -2.1970 -0.7549  1.5586
 3500TIP3   OH231990   6.027   5.598  10.917 -0.1319  0.3720  0.5470
 3500TIP3    H131991   5.986   5.624  10.835  1.6627 -0.6684 -0.7113
 3500TIP3    H231992   5.984   5.516  10.940 -1.1544  1.0393  1.0555
 3501TIP3   OH231993   3.608   1.452  14.827 -0.0151 -0.2937 -0.0711
 3501TIP3    H131994   3.656   1.455  14.744 -2.1765  0.0422 -1.3583
 3501TIP3    H231995   3.521   1.487  14.806 -1.3222 -2.2622  1.8275
 3502TIP3   OH231996   1.826   1.942  14.316 -0.3516 -0.3289  0.0019
 3502TIP3    H131997   1.844   1.984  14.232 -1.5219 -2.5296 -1.3909
 3502TIP3    H231998   1.828   2.014  14.379 -0.2182  1.4838 -1.9913
 3503TIP3   OH231999   6.935   4.670  10.183  0.8873  0.6089 -0.4002
 3503TIP3    H132000   6.956   4.687  10.275  0.5599  0.4722 -0.3001
 3503TIP3    H232001   6.889   4.749  10.155 -0.3763  0.0089 -0.0178
 3504TIP3   OH232002   1.349   4.163  12.276  0.1175 -0.0870  0.0853
 3504TIP3    H132003   1.345   4.257  12.257 -1.2732 -0.3728 -1.1189
 3504TIP3    H232004   1.360   4.122  12.190  0.8932 -1.0296  0.6234
 3505TIP3   OH232005   3.293   5.517  11.820 -0.6992  0.1210 -0.0055
 3505TIP3    H132006   3.273   5.609  11.837  1.4991  0.4187  1.2853
 3505TIP3    H232007   3.271   5.472  11.902 -0.1696 -0.1992 -0.0284
 3506TIP3   OH232008   4.409   0.402  12.657  0.1055 -0.4121  0.5470
 3506TIP3    H132009   4.360   0.481  12.633  1.2777  0.5973  1.4356
 3506TIP3    H232010   4.379   0.382  12.746  0.8308 -0.1365  0.8619
 3507TIP3   OH232011   4.104   0.218  14.560  0.5637 -0.1031 -0.4921
 3507TIP3    H132012   4.181   0.237  14.506 -0.1051 -0.1620 -1.4738
 3507TIP3    H232013   4.133   0.148  14.619  1.8594  1.2177  0.4868
 3508TIP3   OH232014   4.119   2.747  10.869 -0.2391 -0.0185  0.2503
 3508TIP3    H132015   4.137   2.769  10.778 -1.3498 -2.2838 -0.5752
 3508TIP3    H232016   4.201   2.764  10.915  0.2979  1.2644 -1.1512
 3509TIP3   OH232017   1.577   0.204  15.481 -0.6756 -0.1085  0.3477
 3509TIP3    H132018   1.605   0.151  15.556 -0.3192  1.6014  1.4418
 3509TIP3    H232019   1.643   0.188  15.414 -0.6781 -1.1973  0.5888
 3510TIP3   OH232020   5.390   4.938  11.860  0.4816 -0.5424 -0.1052
 3510TIP3    H132021   5.366   4.944  11.768 -0.6680 -0.8613  0.1716
 3510TIP3    H232022   5.365   4.849  11.886  3.5559 -1.5091 -0.2532
 3511TIP3   OH232023   1.130   5.821  12.433  0.0497  0.2027  0.4153
 3511TIP3    H132024   1.055   5.810  12.491 -1.4522 -1.0658 -1.6561
 3511TIP3    H232025   1.185   5.745  12.451  0.9042  1.1925  2.0216
 3512TIP3   OH232026   2.379   0.109  14.207 -0.0048  0.7185  0.0122
 3512TIP3    H132027   2.474   0.103  14.214  0.0037  0.5695 -0.2295
 3512TIP3    H232028   2.361   0.202  14.195  0.0287  0.8968  1.3052
 3513TIP3   OH232029   4.512   2.155  11.221 -0.3737  0.3189  0.1580
 3513TIP3    H132030   4.521   2.186  11.311  1.1237 -0.7623  0.4135
 3513TIP3    H232031   4.590   2.188  11.176 -0.7474  0.2429 -0.5586
 3514TIP3   OH232032   2.164   1.845  11.406  0.8458  0.0325 -0.0807
 3514TIP3    H132033   2.181   1.873  11.496  2.5536 -1.8794  0.2341
 3514TIP3    H232034   2.138   1.754  11.413  2.4340 -0.5776 -1.6247
 3515TIP3   OH232035   2.362   1.605  15.448  0.4762  0.1185  0.2890
 3515TIP3    H132036   2.276   1.565  15.437  0.2239  0.7104  0.0682
 3515TIP3    H232037   2.418   1.560  15.385 -0.6401  2.5483 -2.5773
 3516TIP3   OH232038   0.615   0.216  14.709 -0.2686 -0.0368  0.0299
 3516TIP3    H132039   0.555   0.290  14.718  0.4324  0.9665 -2.8735
 3516TIP3    H232040   0.694   0.244  14.754 -0.5746  0.3304  0.3419
 3517TIP3   OH232041   3.422   0.755  10.368 -0.6623 -0.6584  0.1435
 3517TIP3    H132042   3.370   0.726  10.443 -0.3397  1.1435  1.1025
 3517TIP3    H232043   3.415   0.851  10.370  0.4932 -0.5307 -1.2989
 3518TIP3   OH232044   3.950   0.183   2.467 -0.1107 -0.2103  0.2904
 3518TIP3    H132045   3.890   0.110   2.452 -0.9140  0.3614  0.7052
 3518TIP3    H232046   3.979   0.209   2.380 -0.4025 -0.5412  0.0951
 3519TIP3   OH232047   3.052   4.440  12.112 -0.0498 -0.2194  0.2123
 3519TIP3    H132048   3.069   4.534  12.111  1.1224 -0.4080  1.6409
 3519TIP3    H232049   2.986   4.427  12.043  1.1841  1.3728 -1.3196
 3520TIP3   OH232050   1.651   0.827  14.285 -0.2339 -0.0736  0.5528
 3520TIP3    H132051   1.566   0.812  14.244  0.1242 -0.7508  0.0468
 3520TIP3    H232052   1.683   0.739  14.306  1.1893  0.0561 -1.0104
 3521TIP3   OH232053   3.202   2.867  12.099 -0.4963  0.1777 -0.1614
 3521TIP3    H132054   3.147   2.794  12.127 -1.7628  1.1563 -0.0867
 3521TIP3    H232055   3.175   2.886  12.009  0.3437  0.0770 -0.4441
 3522TIP3   OH232056   3.601   6.893  11.379  0.3802  0.0523  0.7051
 3522TIP3    H132057   3.670   6.867  11.317 -0.3983 -2.0059  0.6651
 3522TIP3    H232058   3.589   6.817  11.435 -1.2915  0.6851  1.2403
 3523TIP3   OH232059   2.652   3.848  13.129 -0.9018 -0.2448 -0.1635
 3523TIP3    H132060   2.678   3.878  13.216 -2.0015 -1.3314  0.5523
 3523TIP3    H232061   2.687   3.914  13.070 -1.8941  1.5977  1.2445
 3524TIP3   OH232062   5.198   1.720  12.248  0.0636 -0.9068 -0.2134
 3524TIP3    H132063   5.133   1.756  12.187 -0.1842 -1.2973 -0.1815
 3524TIP3    H232064   5.197   1.781  12.322  1.0410  0.0807 -1.0099
 3525TIP3   OH232065   0.207   3.401  12.743 -0.7166 -0.3362  0.6153
 3525TIP3    H132066   0.258   3.334  12.787  0.4697  0.8334  1.0600
 3525TIP3    H232067   0.184   3.463  12.813 -3.0755 -1.0291  0.4958
 3526TIP3   OH232068   1.180   2.502  10.190  0.0410 -0.6571 -0.2314
 3526TIP3    H132069   1.184   2.473  10.281  3.8722 -1.4257 -0.5687
 3526TIP3    H232070   1.221   2.588  10.191  0.1152 -0.6796 -1.2255
 3527TIP3   OH232071   3.376   6.426   9.913  0.3446 -0.5119 -0.3199
 3527TIP3    H132072   3.468   6.440   9.892  0.3972 -0.1146  0.1852
 3527TIP3    H232073   3.348   6.359   9.851  1.1449 -1.1159 -0.0377
 3528TIP3   OH232074   1.412   0.634  13.891  0.5322 -0.7135  0.4825
 3528TIP3    H132075   1.411   0.593  13.805  1.1276 -0.8822  0.5551
 3528TIP3    H232076   1.497   0.676  13.898 -0.8310  2.3489 -0.4212
 3529TIP3   OH232077   7.003   6.268  11.699 -0.2224 -0.5229 -0.2777
 3529TIP3    H132078   7.090   6.296  11.727 -1.0282  1.4190  0.3654
 3529TIP3    H232079   6.960   6.238  11.779 -0.2848 -1.0616 -0.5152
 3530TIP3   OH232080   0.121   2.837  10.204  0.1070 -0.2203  0.3398
 3530TIP3    H132081   0.096   2.756  10.248  3.5540 -1.7203 -0.3049
 3530TIP3    H232082   0.103   2.906  10.268 -0.9832 -1.6703  1.6277
 3531TIP3   OH232083   2.667   1.443  13.717  0.1243  0.1027 -0.1328
 3531TIP3    H132084   2.588   1.428  13.768 -1.1330 -0.2564 -2.1554
 3531TIP3    H232085   2.694   1.356  13.687  0.1264  0.4597 -1.1629
 3532TIP3   OH232086   3.471   3.084  13.850 -0.0202 -0.3112 -0.4472
 3532TIP3    H132087   3.507   3.162  13.807 -1.0607 -0.1666 -1.0724
 3532TIP3    H232088   3.382   3.077  13.816 -0.4640 -0.8825  0.7912
 3533TIP3   OH232089   4.637   6.979  14.904 -0.0089  0.1360  0.0797
 3533TIP3    H132090   4.706   7.041  14.930  1.1122  0.2771 -3.0012
 3533TIP3    H232091   4.557   7.032  14.902  0.6272  1.0887 -0.7935
 3534TIP3   OH232092   2.299   6.443  12.168 -0.0495 -0.6776 -0.4199
 3534TIP3    H132093   2.316   6.467  12.077  0.2606  0.9565  0.0487
 3534TIP3    H232094   2.360   6.372  12.186 -0.8195 -1.7015 -1.7808
 3535TIP3   OH232095   1.123   5.807  14.259  0.2972 -0.2252  0.0499
 3535TIP3    H132096   1.183   5.732  14.255 -0.1393 -0.5152 -1.0385
 3535TIP3    H232097   1.149   5.862  14.185  0.1955  0.3876  0.4694
 3536TIP3   OH232098   4.339   2.961  12.388  0.1186 -0.2936  0.2270
 3536TIP3    H132099   4.274   3.012  12.339  1.2258  1.5015  0.6005
 3536TIP3    H232100   4.294   2.935  12.468 -0.6634 -0.4854 -0.2688
 3537TIP3   OH232101   0.727   3.580  13.428  0.0234  0.5771  0.4801
 3537TIP3    H132102   0.787   3.633  13.481  0.3818  0.2247  0.4298
 3537TIP3    H232103   0.670   3.537  13.492  1.8174 -1.5125  0.7295
 3538TIP3   OH232104   0.925   0.637  14.148  0.1989  0.2930  0.3478
 3538TIP3    H132105   0.979   0.682  14.083 -0.8058 -0.6712 -1.1942
 3538TIP3    H232106   0.984   0.621  14.221  1.1515  2.0881  0.0025
 3539TIP3   OH232107   0.083   7.066  12.135  0.1406 -0.0262 -0.3008
 3539TIP3    H132108   0.131   7.087  12.216 -0.0484  1.2067 -0.4951
 3539TIP3    H232109   0.045   6.980  12.152 -0.4495  0.5035  1.1908
 3540TIP3   OH232110   2.736   4.251  12.661  0.7429 -0.1477 -0.0752
 3540TIP3    H132111   2.732   4.322  12.597  1.1155  0.0593  0.1325
 3540TIP3    H232112   2.645   4.223  12.671  0.8914 -1.4453 -2.1084
 3541TIP3   OH232113   7.166   6.662  10.146 -0.0006 -0.0718 -0.2024
 3541TIP3    H132114   7.079   6.673  10.184  1.2159 -2.4830  3.5453
 3541TIP3    H232115   7.209   6.746  10.160 -0.5610 -0.0009  1.1975
 3542TIP3   OH232116   1.602   2.438   1.363 -0.1240  0.2856 -0.7541
 3542TIP3    H132117   1.631   2.354   1.400 -0.3026  0.6420  0.2229
 3542TIP3    H232118   1.574   2.489   1.440  0.3836  1.3917 -1.2968
 3543TIP3   OH232119   4.468   2.473  10.409  0.4232 -0.0192 -0.0520
 3543TIP3    H132120   4.448   2.432  10.325 -0.5281 -0.5003  0.4040
 3543TIP3    H232121   4.547   2.525  10.392  0.8845 -1.0019 -0.9546
 3544TIP3   OH232122   5.573   0.024   0.244  0.0825 -0.1082  0.3608
 3544TIP3    H132123   5.585  -0.070   0.260  1.8837  0.2827  1.4280
 3544TIP3    H232124   5.650   0.065   0.284 -1.7237  2.0068  1.7799
 3545TIP3   OH232125   3.442   6.801  12.317 -0.5134  0.0308 -0.2583
 3545TIP3    H132126   3.446   6.888  12.359  1.1659  0.3744 -1.0592
 3545TIP3    H232127   3.506   6.749  12.366 -0.9958 -0.5577 -0.2503
 3546TIP3   OH232128   4.968   0.019  12.110  0.0299  0.0710  0.3188
 3546TIP3    H132129   5.004  -0.039  12.176  2.0016  0.6211 -0.2214
 3546TIP3    H232130   4.980   0.107  12.147 -0.1969  0.2922 -0.1320
 3547TIP3   OH232131   4.446   6.742  14.889  0.0235 -0.1583  0.3238
 3547TIP3    H132132   4.350   6.740  14.891 -0.0732 -2.0419 -2.6945
 3547TIP3    H232133   4.467   6.827  14.850 -0.4147  0.1072  0.6573
 3548TIP3   OH232134   6.278   2.172  15.261 -0.6616 -0.7465  0.7440
 3548TIP3    H132135   6.265   2.229  15.337 -0.4914 -0.1753  0.3477
 3548TIP3    H232136   6.201   2.188  15.205 -0.9219 -1.3675  0.9191
 3549TIP3   OH232137   5.167   0.343  13.026  0.5131  0.0401  0.2078
 3549TIP3    H132138   5.215   0.266  12.996 -0.6390 -0.7163  0.2391
 3549TIP3    H232139   5.101   0.308  13.085 -1.4835  0.7648 -1.5024
 3550TIP3   OH232140   3.563   0.807  14.194  0.3126  0.0439 -0.0605
 3550TIP3    H132141   3.539   0.734  14.138 -2.1009  0.3036  0.6057
 3550TIP3    H232142   3.486   0.823  14.248  1.9089  1.0767  1.9742
 3551TIP3   OH232143   3.273   0.990  13.210  0.0342 -0.2397  0.0765
 3551TIP3    H132144   3.273   1.037  13.294 -0.1862  0.0464 -0.0819
 3551TIP3    H232145   3.277   1.059  13.144  0.4671 -0.4772 -0.1459
 3552TIP3   OH232146   0.597   3.577  11.395  0.4495 -0.1597  0.8635
 3552TIP3    H132147   0.614   3.604  11.305  0.1148 -0.4838  0.7037
 3552TIP3    H232148   0.678   3.533  11.422 -0.0746 -1.6278  0.1286
 3553TIP3   OH232149   5.007   5.669  12.645 -0.1942 -0.4413 -0.0644
 3553TIP3    H132150   4.939   5.728  12.677 -2.2782 -1.3685 -2.6016
 3553TIP3    H232151   5.062   5.653  12.721 -1.5496  2.0627  1.5144
 3554TIP3   OH232152   4.719   7.009  10.925 -0.2963  0.5668  0.2259
 3554TIP3    H132153   4.721   6.943  10.856  1.5008  1.0508 -0.2275
 3554TIP3    H232154   4.762   7.086  10.887  1.7166  0.4910  2.1675
 3555TIP3   OH232155   3.891   3.155   1.430 -0.0644  0.0420  0.2697
 3555TIP3    H132156   3.847   3.122   1.352  1.3812  2.2844 -1.5672
 3555TIP3    H232157   3.983   3.164   1.405  0.8318 -1.1412  2.9067
 3556TIP3   OH232158   3.462   4.046  13.990  0.1512 -0.0979 -0.1565
 3556TIP3    H132159   3.422   4.133  13.987 -0.2364 -0.2871 -0.7497
 3556TIP3    H232160   3.421   4.003  14.065  0.8999  0.4891  0.5989
 3557TIP3   OH232161   6.238   2.671  12.463  0.3585 -0.0890  0.4026
 3557TIP3    H132162   6.257   2.759  12.431  1.0190  0.0979  1.2877
 3557TIP3    H232163   6.308   2.653  12.527  0.4168 -1.3771 -0.0063
 3558TIP3   OH232164   2.937   1.755  11.196 -0.0182  0.2010  0.0098
 3558TIP3    H132165   2.906   1.710  11.117  0.1822 -0.9052  0.5388
 3558TIP3    H232166   2.997   1.692  11.236  0.3528  1.0014  0.7251
 3559TIP3   OH232167   1.683   2.536  15.048 -0.1256 -0.5106 -0.4958
 3559TIP3    H132168   1.715   2.608  15.104  1.1694 -0.3339 -1.4316
 3559TIP3    H232169   1.657   2.579  14.967 -0.8150 -0.9233 -0.4934
 3560TIP3   OH232170   5.568   4.949  13.847 -0.0683 -0.1288  0.5822
 3560TIP3    H132171   5.563   4.915  13.936 -2.2169  0.8525  0.8504
 3560TIP3    H232172   5.545   5.042  13.855  3.6911  1.0053 -0.4310
 3561TIP3   OH232173   3.246   4.841  13.212  0.0994 -0.2158 -0.0764
 3561TIP3    H132174   3.229   4.881  13.127 -1.6738  0.2981  0.4888
 3561TIP3    H232175   3.268   4.915  13.269  1.0693 -0.5340 -0.0169
 3562TIP3   OH232176   3.676   1.343  14.465  0.0802  0.3160  0.2797
 3562TIP3    H132177   3.641   1.397  14.394 -1.7865 -2.8119 -1.2868
 3562TIP3    H232178   3.598   1.307  14.508  1.2780 -0.9857  1.4041
 3563TIP3   OH232179   2.007   1.334   9.824 -0.0921  0.0823 -0.1558
 3563TIP3    H132180   2.013   1.423   9.790 -2.4059 -0.0644 -1.0612
 3563TIP3    H232181   1.983   1.281   9.749  0.8724 -1.2432  0.4651
 3564TIP3   OH232182   2.972   2.651  13.298  0.0043 -0.3540 -0.1084
 3564TIP3    H132183   3.063   2.672  13.317 -0.9665  2.7237  1.6163
 3564TIP3    H232184   2.960   2.562  13.333  1.9094 -0.1394  1.1692
 3565TIP3   OH232185   3.418   6.562  14.423  0.3140  0.2380  0.3224
 3565TIP3    H132186   3.379   6.622  14.486  0.1645  0.8108 -0.3062
 3565TIP3    H232187   3.367   6.575  14.343  1.9860  1.2335 -0.6048
 3566TIP3   OH232188   6.230   1.311   0.968 -0.6402 -0.4113  0.1225
 3566TIP3    H132189   6.197   1.395   0.936  1.2282 -0.1461 -1.1857
 3566TIP3    H232190   6.298   1.333   1.031 -0.6886 -0.9397  0.3648
 3567TIP3   OH232191   5.390   5.426   0.199 -0.9905  0.4851 -0.5979
 3567TIP3    H132192   5.396   5.512   0.158 -0.8291  0.3673 -0.8235
 3567TIP3    H232193   5.402   5.443   0.292 -0.1211  0.6083 -0.7247
 3568TIP3   OH232194   3.107   3.063   0.059  0.1179  0.1570 -0.0216
 3568TIP3    H132195   3.106   3.143   0.111  0.2703  1.1617 -1.5353
 3568TIP3    H232196   3.041   3.077  -0.009  1.9579  0.0841 -1.8671
 3569TIP3   OH232197   1.140   7.070  10.403 -0.6056  0.2450 -0.5098
 3569TIP3    H132198   1.216   7.087  10.348 -0.1412 -0.2232 -0.0227
 3569TIP3    H232199   1.175   7.024  10.479 -1.2668  0.6797  0.0732
 3570TIP3   OH232200   1.192   0.032   9.796  0.3039  0.2056  0.4986
 3570TIP3    H132201   1.165   0.100   9.735 -2.0485 -1.0801  0.0532
 3570TIP3    H232202   1.286   0.020   9.779  0.2974  1.8695 -0.8249
 3571TIP3   OH232203   1.080   4.024  15.428  0.9629  0.2170 -0.0663
 3571TIP3    H132204   1.119   4.031  15.515  0.3180  0.8310  0.1820
 3571TIP3    H232205   1.059   3.931  15.419 -1.2159  0.5084  1.4585
 3572TIP3   OH232206   3.938   3.045  10.518 -0.3544  0.2732 -0.3350
 3572TIP3    H132207   3.913   3.137  10.510 -2.6028 -0.4819 -3.0025
 3572TIP3    H232208   3.875   2.998  10.462  2.3510 -2.5998 -1.1331
 3573TIP3   OH232209   4.636   5.505  11.347  0.1947  0.0300  0.1403
 3573TIP3    H132210   4.626   5.416  11.314 -1.5507  0.0565  0.5191
 3573TIP3    H232211   4.709   5.542  11.297  1.1420 -1.7067  0.2157
 3574TIP3   OH232212   5.161   0.676  14.414 -0.1861 -0.3624  0.3498
 3574TIP3    H132213   5.162   0.756  14.362  0.2015  0.2800  1.3246
 3574TIP3    H232214   5.245   0.633  14.394  0.4551  0.4348  1.2616
 3575TIP3   OH232215   5.084   5.839  15.432  1.1260  0.0709  0.1824
 3575TIP3    H132216   5.063   5.807  15.519  0.5590  1.2922  0.5029
 3575TIP3    H232217   5.087   5.760  15.378  4.4386 -1.0227  1.8536
 3576TIP3   OH232218   3.797   0.877  14.682 -0.7845  0.1532  0.3267
 3576TIP3    H132219   3.869   0.837  14.730 -0.8290  0.0378  0.2989
 3576TIP3    H232220   3.739   0.912  14.750 -0.6327  0.3676  0.3436
 3577TIP3   OH232221   5.231   6.984  14.895 -0.2915  0.4559  0.4892
 3577TIP3    H132222   5.313   6.975  14.942  0.2704  1.0120 -0.3728
 3577TIP3    H232223   5.237   6.919  14.824 -0.4858  0.6835  0.2656
 3578TIP3   OH232224   3.331   6.327  10.250  0.5166 -0.1550  0.0524
 3578TIP3    H132225   3.360   6.242  10.217  0.0988 -0.7171  1.1097
 3578TIP3    H232226   3.402   6.387  10.230  1.5366 -1.0996  0.8133
 3579TIP3   OH232227   1.485   3.239  12.063  0.4021  0.2731 -0.9693
 3579TIP3    H132228   1.428   3.310  12.092  0.9701  0.0813  0.6318
 3579TIP3    H232229   1.438   3.159  12.085  1.4524  0.1112  0.7055
 3580TIP3   OH232230   3.594   7.164  11.830 -0.0521 -0.3635 -0.2101
 3580TIP3    H132231   3.544   7.226  11.777 -0.6944 -1.3720 -0.7887
 3580TIP3    H232232   3.578   7.191  11.921 -0.0546  0.5141 -0.4661
 3581TIP3   OH232233   1.885   5.560  11.806 -0.6998  0.2865  0.2539
 3581TIP3    H132234   1.823   5.514  11.749  0.7832 -0.4535 -0.8024
 3581TIP3    H232235   1.890   5.649  11.770  1.3678 -0.5944 -1.7510
 3582TIP3   OH232236   5.476   3.062  11.864 -0.1310 -0.1254  0.9459
 3582TIP3    H132237   5.428   3.136  11.899 -1.8114 -0.4682 -0.5764
 3582TIP3    H232238   5.485   3.082  11.771 -0.6288 -1.8387  0.5180
 3583TIP3   OH232239   3.684   5.428  14.804  0.0808 -0.0142  0.2464
 3583TIP3    H132240   3.617   5.456  14.741 -1.3678 -0.6695  1.4596
 3583TIP3    H232241   3.732   5.507  14.825 -0.1212  0.4101 -0.8863
 3584TIP3   OH232242   4.414   2.266  14.383  0.3179 -1.1608  0.1548
 3584TIP3    H132243   4.466   2.274  14.463 -0.6045 -0.9593  0.7423
 3584TIP3    H232244   4.360   2.188  14.397 -1.3559  0.0507  0.6296
 3585TIP3   OH232245   4.665   4.678  13.139  0.3116  0.2693  0.6372
 3585TIP3    H132246   4.700   4.620  13.206 -1.6750 -1.1624  0.4699
 3585TIP3    H232247   4.697   4.643  13.057 -1.0586 -0.7497  0.5203
 3586TIP3   OH232248   2.703   0.291  11.448  0.0792 -0.1106 -0.6595
 3586TIP3    H132249   2.615   0.329  11.450 -0.0766 -0.2642 -2.9735
 3586TIP3    H232250   2.733   0.293  11.539 -3.9628 -3.9576  0.9295
 3587TIP3   OH232251   0.920   5.460  13.261  0.7617  0.2553  0.2850
 3587TIP3    H132252   0.871   5.382  13.237  1.3281  0.1661 -0.6456
 3587TIP3    H232253   1.010   5.429  13.274  0.6196  0.4470  1.7810
 3588TIP3   OH232254   1.651   1.901  10.349 -0.3034  0.3077  0.5537
 3588TIP3    H132255   1.687   1.872  10.265 -0.2775  1.2241  0.2443
 3588TIP3    H232256   1.563   1.864  10.352  0.7227 -2.1862  1.4350
 3589TIP3   OH232257   6.778   5.870   1.404 -0.2347  0.6532 -0.1773
 3589TIP3    H132258   6.745   5.830   1.485  0.2425  0.3669 -0.1200
 3589TIP3    H232259   6.737   5.820   1.334  0.0412  0.3244 -0.1062
 3590TIP3   OH232260   0.627   5.321   0.967  0.1392 -0.1185 -0.3328
 3590TIP3    H132261   0.579   5.241   0.987  1.9085 -1.2570 -0.5529
 3590TIP3    H232262   0.710   5.312   1.015 -0.3712  2.4252  1.1655
 3591TIP3   OH232263   2.683   2.396  13.535 -0.4374 -0.4634 -0.5279
 3591TIP3    H132264   2.709   2.488  13.524 -1.6522 -0.2131 -1.4857
 3591TIP3    H232265   2.678   2.384  13.630  0.2249  0.3248 -0.3862
 3592TIP3   OH232266   6.907   5.215  11.489  0.2924  0.3389 -0.4356
 3592TIP3    H132267   6.979   5.213  11.553  0.5218  1.4800 -0.6387
 3592TIP3    H232268   6.903   5.307  11.462 -3.1539  0.9044  1.7399
 3593TIP3   OH232269   4.603   4.963  12.264  0.6540  0.2561 -0.0433
 3593TIP3    H132270   4.617   4.980  12.357 -0.8006 -1.6957  0.5698
 3593TIP3    H232271   4.567   5.045  12.229  1.3075  1.0322  1.0771
 3594TIP3   OH232272   1.884   6.752  14.067  0.1775  0.3077 -0.5271
 3594TIP3    H132273   1.789   6.760  14.079 -0.0289 -1.8606 -0.4742
 3594TIP3    H232274   1.916   6.717  14.150  0.7662 -0.6346 -1.1336
 3595TIP3   OH232275   5.059   6.379  11.609  0.0104 -0.0196  0.5541
 3595TIP3    H132276   5.051   6.445  11.677  1.1951  1.1785 -0.4589
 3595TIP3    H232277   4.969   6.366  11.578 -0.4342 -0.0220  1.7991
 3596TIP3   OH232278   0.359   0.964  10.275 -0.3527  0.1107  0.3882
 3596TIP3    H132279   0.420   0.918  10.218  0.0468  0.4912  0.5069
 3596TIP3    H232280   0.319   0.896  10.328 -0.2220 -0.1675  0.1291
 3597TIP3   OH232281   0.103   4.738   1.281  0.1516 -0.0122 -0.3272
 3597TIP3    H132282   0.051   4.659   1.268  0.9725 -0.6874  0.4583
 3597TIP3    H232283   0.100   4.783   1.196 -1.0891 -0.4122 -0.4972
 3598TIP3   OH232284   0.682   1.355  11.361 -0.2097  0.7597  0.1860
 3598TIP3    H132285   0.744   1.345  11.433  0.7802 -3.4595 -1.1299
 3598TIP3    H232286   0.695   1.278  11.306 -3.5365  1.9842 -2.5645
 3599TIP3   OH232287   1.455   1.602  14.022  0.3262 -0.1872 -0.6372
 3599TIP3    H132288   1.453   1.683  13.971  2.2505  0.1051 -0.2881
 3599TIP3    H232289   1.391   1.616  14.093  0.9517  1.1878 -0.3419
 3600TIP3   OH232290   5.005   5.702  11.555 -0.6665 -0.5811  0.4339
 3600TIP3    H132291   5.067   5.706  11.628 -1.4163  0.0766  1.0531
 3600TIP3    H232292   5.007   5.610  11.527  0.3506 -0.6242  0.6431
 3601TIP3   OH232293   2.534   0.849   0.526  0.4068  0.7010  0.3399
 3601TIP3    H132294   2.588   0.922   0.496 -0.3212  0.6476 -1.1344
 3601TIP3    H232295   2.461   0.846   0.463 -0.8315  0.2135  1.7803
 3602TIP3   OH232296   3.352   4.937  14.842  0.5907 -0.8936  0.0034
 3602TIP3    H132297   3.360   4.842  14.831 -0.0432 -0.8957 -0.5137
 3602TIP3    H232298   3.396   4.973  14.765 -0.6823 -0.8145 -0.7023
 3603TIP3   OH232299   3.534   4.629   0.207 -0.1926  0.0909  0.4971
 3603TIP3    H132300   3.584   4.696   0.161  0.6415 -0.3497  0.7436
 3603TIP3    H232301   3.524   4.558   0.144  0.2668 -0.1877  0.7345
 3604TIP3   OH232302   5.981   3.453  13.779 -0.3968  0.4233  0.5753
 3604TIP3    H132303   6.047   3.390  13.750 -0.3243  0.2870  1.0322
 3604TIP3    H232304   5.908   3.400  13.809 -0.4897  0.5636  0.5983
 3605TIP3   OH232305   0.243   4.461  13.034 -0.2549 -0.3181  0.1601
 3605TIP3    H132306   0.243   4.548  13.073 -0.7075 -0.3591  0.2613
 3605TIP3    H232307   0.162   4.421  13.065 -1.5207  0.2966 -2.2342
 3606TIP3   OH232308   6.104   4.795  11.540  0.2576 -0.1287 -0.4051
 3606TIP3    H132309   6.119   4.714  11.491  0.5827  0.1233 -0.7219
 3606TIP3    H232310   6.111   4.768  11.632 -0.9892 -0.7232 -0.4788
 3607TIP3   OH232311   1.618   2.326  14.220  0.3381 -0.7392 -0.2318
 3607TIP3    H132312   1.669   2.378  14.158  0.0517  1.1031  1.0236
 3607TIP3    H232313   1.582   2.390  14.281 -1.8841 -2.2174  0.0558
 3608TIP3   OH232314   5.769   6.079  14.492 -0.3124 -0.4522  0.1284
 3608TIP3    H132315   5.680   6.107  14.514 -0.0755  1.1471 -0.9256
 3608TIP3    H232316   5.825   6.148  14.525  0.5135 -1.1872  0.2805
 3609TIP3   OH232317   1.088   0.374  13.753  0.2072  0.1285 -0.2605
 3609TIP3    H132318   1.024   0.371  13.682 -0.4787 -0.1677  0.3574
 3609TIP3    H232319   1.132   0.289  13.750 -0.2163 -0.1056  0.0180
 3610TIP3   OH232320   5.659   7.045  13.993  0.2084  0.2897  0.0428
 3610TIP3    H132321   5.692   6.957  14.011  0.6904  0.7719  1.6221
 3610TIP3    H232322   5.572   7.032  13.957 -0.1230 -0.7941  1.2246
 3611TIP3   OH232323   3.580   0.460  15.066 -0.0427 -0.1466  0.2508
 3611TIP3    H132324   3.663   0.441  15.111 -0.3284  0.9985  1.2996
 3611TIP3    H232325   3.588   0.552  15.039 -1.0107  0.0109  0.4668
 3612TIP3   OH232326   1.477   4.425  14.137  0.0307  0.1197 -0.2558
 3612TIP3    H132327   1.569   4.401  14.129 -0.0519 -0.0857 -0.6006
 3612TIP3    H232328   1.429   4.344  14.117 -0.2274  0.2700 -0.2438
 3613TIP3   OH232329   5.231   5.926  11.224  0.0188 -0.4929  0.7412
 3613TIP3    H132330   5.155   5.946  11.279 -0.8376 -2.6873  0.3982
 3613TIP3    H232331   5.303   5.918  11.286 -0.5973 -1.2112  1.3790
 3614TIP3   OH232332   5.234   4.849  12.832 -0.7065  0.0706 -0.2688
 3614TIP3    H132333   5.294   4.801  12.774 -1.3731  1.1180 -1.8385
 3614TIP3    H232334   5.153   4.798  12.830 -0.1027 -0.9972  1.3593
 3615TIP3   OH232335   2.626   4.581  12.738  0.1284  0.1626 -0.7610
 3615TIP3    H132336   2.611   4.672  12.713 -1.1565 -0.2615 -1.6206
 3615TIP3    H232337   2.662   4.540  12.660  1.9909  0.2318  0.0469
 3616TIP3   OH232338   6.451   1.450  14.094  0.2149  0.2610 -0.0867
 3616TIP3    H132339   6.535   1.496  14.085  0.7168 -0.8913 -1.4787
 3616TIP3    H232340   6.402   1.474  14.016  0.6485 -1.8492 -1.0624
 3617TIP3   OH232341   4.870   2.361   0.056 -0.0326  0.2730 -0.1600
 3617TIP3    H132342   4.924   2.287   0.030 -1.3983 -0.6584 -0.3910
 3617TIP3    H232343   4.901   2.434   0.001 -0.2393 -0.6912 -1.5767
 3618TIP3   OH232344   0.485   6.787  14.649 -0.7984  0.4323 -0.3896
 3618TIP3    H132345   0.490   6.739  14.731  0.6071  0.5723 -0.3826
 3618TIP3    H232346   0.522   6.873  14.668  1.3317 -0.1737 -1.6047
 3619TIP3   OH232347   6.375   1.186  14.812  0.5546 -0.2536 -0.5410
 3619TIP3    H132348   6.436   1.122  14.849 -0.3998 -1.5131 -1.1008
 3619TIP3    H232349   6.308   1.196  14.880  0.7486  0.2134 -0.4203
 3620TIP3   OH232350   4.527   1.035  11.707 -0.0718 -0.3435 -0.1080
 3620TIP3    H132351   4.475   1.076  11.637 -0.1453 -0.6182 -0.2136
 3620TIP3    H232352   4.575   1.108  11.747  1.0857 -0.3839 -1.3853
 3621TIP3   OH232353   3.017   3.741  13.063  0.2960  0.1889  0.4041
 3621TIP3    H132354   3.043   3.746  12.971  1.9502  1.6858  0.9085
 3621TIP3    H232355   2.964   3.662  13.069 -1.1037  0.8786 -2.1465
 3622TIP3   OH232356   2.210   5.048  14.993  0.6982  0.4110  0.0466
 3622TIP3    H132357   2.175   5.125  15.039 -0.3019  1.1794 -1.9419
 3622TIP3    H232358   2.150   4.977  15.015  0.5010  0.6581  0.3089
 3623TIP3   OH232359   5.942   6.377  15.355  0.0252 -0.1908 -0.3219
 3623TIP3    H132360   5.923   6.418  15.271 -0.5781 -1.0888 -0.6362
 3623TIP3    H232361   5.856   6.356  15.392  0.2286  1.8935  1.4005
 3624TIP3   OH232362   3.104   7.055  10.897 -0.1343 -0.2331  0.6651
 3624TIP3    H132363   3.158   7.129  10.873  0.7869 -1.0986  0.0336
 3624TIP3    H232364   3.121   6.989  10.830 -2.5172 -0.2691  0.0413
 3625TIP3   OH232365   2.414   7.158  14.757 -0.0570 -0.4011 -0.2306
 3625TIP3    H132366   2.397   7.213  14.680  0.3541 -1.8200 -1.3376
 3625TIP3    H232367   2.361   7.080  14.743  0.1653 -0.7511  0.8515
 3626TIP3   OH232368   4.960   3.499   1.545 -0.3845  0.5021 -0.1432
 3626TIP3    H132369   4.937   3.473   1.456 -1.9560  2.2095 -0.2608
 3626TIP3    H232370   5.025   3.568   1.534 -0.8995  1.0154  0.0166
 3627TIP3   OH232371   0.865   2.688  12.603 -0.0229 -0.3793 -0.1582
 3627TIP3    H132372   0.926   2.620  12.574 -0.5153 -0.1111 -1.8655
 3627TIP3    H232373   0.919   2.748  12.654  0.9380 -0.6890 -0.8021
 3628TIP3   OH232374   5.751   0.227  12.539  0.2207  0.0260 -0.1567
 3628TIP3    H132375   5.779   0.280  12.464  1.2867 -1.9827 -1.2110
 3628TIP3    H232376   5.750   0.289  12.613  0.0259  1.8297 -1.6333
 3629TIP3   OH232377   1.116   4.509   1.660  0.4103  0.1541 -0.7622
 3629TIP3    H132378   1.179   4.497   1.731 -0.1390 -0.5355 -0.3767
 3629TIP3    H232379   1.137   4.440   1.598  2.1663  1.9801 -2.2364
 3630TIP3   OH232380   4.318   0.752  10.987 -0.2352  0.0754 -0.1223
 3630TIP3    H132381   4.273   0.723  11.066  1.8295 -0.5848  0.8460
 3630TIP3    H232382   4.338   0.844  11.004  1.4839 -0.4428  0.7596
 3631TIP3   OH232383   2.726   1.508  11.693 -0.0282 -0.2252 -0.4907
 3631TIP3    H132384   2.672   1.586  11.687 -0.7914 -0.3294  3.3971
 3631TIP3    H232385   2.813   1.536  11.665 -0.7094  1.5147 -0.9052
 3632TIP3   OH232386   6.785   4.467  13.784 -0.2720 -0.5571 -0.4575
 3632TIP3    H132387   6.843   4.481  13.709  0.9813 -1.9334  0.2213
 3632TIP3    H232388   6.806   4.539  13.843 -2.5657  1.5910 -2.1617
 3633TIP3   OH232389   1.484   2.244   0.517  0.2471  0.1864  0.1967
 3633TIP3    H132390   1.516   2.154   0.510  0.4604  0.3177 -0.5751
 3633TIP3    H232391   1.428   2.255   0.440 -1.5351  0.0115  1.4499
 3634TIP3   OH232392   6.018   7.035  11.010 -0.5523 -0.3152  0.4819
 3634TIP3    H132393   6.067   6.953  11.007 -0.4929 -0.2599 -0.0393
 3634TIP3    H232394   5.930   7.012  10.980 -0.6277 -0.2599  0.6616
 3635TIP3   OH232395   1.895   6.670  10.915  0.5002 -0.4352 -0.3501
 3635TIP3    H132396   1.885   6.694  10.822  1.8153  1.0532 -0.1120
 3635TIP3    H232397   1.988   6.652  10.926  0.8188  2.0600  1.3085
 3636TIP3   OH232398   0.258   5.904  12.325  0.7549  0.6401 -0.2495
 3636TIP3    H132399   0.217   5.958  12.257 -1.7621  0.7837  1.2917
 3636TIP3    H232400   0.252   5.958  12.404  2.4361 -0.0589  0.3635
 3637TIP3   OH232401   2.255   0.308  12.878  0.9299  0.6724 -0.1780
 3637TIP3    H132402   2.208   0.373  12.930 -0.3875 -0.5525  0.2227
 3637TIP3    H232403   2.324   0.276  12.936 -0.9800 -1.2018  1.1411
 3638TIP3   OH232404   3.724   1.711  13.195 -1.0749  0.4944  0.4945
 3638TIP3    H132405   3.788   1.667  13.249 -1.8010  0.5934  1.4449
 3638TIP3    H232406   3.735   1.672  13.108  1.8219  2.1377  0.0794
 3639TIP3   OH232407   1.172   6.941  10.996  0.4595 -0.0569 -0.0067
 3639TIP3    H132408   1.152   6.964  10.905  0.3147  0.1600  0.0810
 3639TIP3    H232409   1.264   6.914  10.994 -0.0426 -1.8186 -0.5484
 3640TIP3   OH232410   4.882   6.080  12.424  0.6269  0.4554  0.4092
 3640TIP3    H132411   4.889   6.082  12.328  0.7770 -2.0605  0.3134
 3640TIP3    H232412   4.804   6.026  12.440  1.4551 -0.3681  1.7019
 3641TIP3   OH232413   5.766   0.784  12.378  0.1381 -0.2601  0.0113
 3641TIP3    H132414   5.671   0.777  12.371  0.0886  0.6786 -0.2566
 3641TIP3    H232415   5.787   0.869  12.339  1.0193 -0.1556  0.6995
 3642TIP3   OH232416   5.878   4.812  10.105 -0.1190 -0.0728 -0.0674
 3642TIP3    H132417   5.835   4.753  10.044 -0.1274 -0.0299 -0.1029
 3642TIP3    H232418   5.816   4.885  10.116 -0.2000 -0.1739  0.1393
 3643TIP3   OH232419   4.335   5.473  10.142 -0.2473 -0.4834  0.8263
 3643TIP3    H132420   4.299   5.386  10.124 -0.1035 -0.6436  1.3245
 3643TIP3    H232421   4.387   5.493  10.064  2.3919 -2.2335  2.0860
 3644TIP3   OH232422   0.656   5.769  12.712 -0.5205  0.4359 -0.3057
 3644TIP3    H132423   0.570   5.790  12.751 -0.5030 -0.2460  0.1078
 3644TIP3    H232424   0.719   5.813  12.770 -0.5468  0.2383 -0.1264
 3645TIP3   OH232425   7.072   0.113  12.336  0.3575  0.1997  0.4960
 3645TIP3    H132426   7.057   0.018  12.326  2.4129 -0.2471  1.4998
 3645TIP3    H232427   7.167   0.122  12.339  0.2101  2.4769 -0.9945
 3646TIP3   OH232428   4.546   1.122  11.180 -0.1109 -0.1848 -0.4529
 3646TIP3    H132429   4.585   1.095  11.097  0.5572  0.1686 -0.2596
 3646TIP3    H232430   4.601   1.081  11.247 -0.5069 -0.2765 -0.1846
 3647TIP3   OH232431   6.343   0.413  12.422  0.0906 -0.6341 -0.3156
 3647TIP3    H132432   6.335   0.336  12.366 -0.5312 -0.2853 -0.7091
 3647TIP3    H232433   6.378   0.380  12.504  2.2669 -0.9801 -1.3317
 3648TIP3   OH232434   3.069   1.178  11.580 -1.0854  0.1217 -0.0720
 3648TIP3    H132435   2.996   1.220  11.534  0.0657  1.3950 -0.7530
 3648TIP3    H232436   3.075   1.225  11.663 -1.6442 -0.6302  0.4101
 3649TIP3   OH232437   0.153   7.031  11.192 -0.5077 -0.2528  0.0808
 3649TIP3    H132438   0.154   7.024  11.288  0.1865  0.2743  0.1169
 3649TIP3    H232439   0.119   7.118  11.175 -1.3919 -0.6430 -0.1783
 3650TIP3   OH232440   5.300   1.352  13.165 -0.2566  0.2953 -0.4032
 3650TIP3    H132441   5.285   1.268  13.209 -1.8018 -0.1803 -1.8159
 3650TIP3    H232442   5.269   1.417  13.228 -1.9595 -0.3597 -0.5417
 3651TIP3   OH232443   1.616   0.324  11.124  0.4301  0.2870 -0.8153
 3651TIP3    H132444   1.598   0.284  11.039  2.3329 -0.7209 -0.7856
 3651TIP3    H232445   1.620   0.251  11.185  1.5302  0.7397 -0.3243
 3652TIP3   OH232446   4.269   0.004  10.952  0.2066 -0.4739  0.6372
 3652TIP3    H132447   4.331   0.070  10.920  1.0221 -0.4799  2.1443
 3652TIP3    H232448   4.321  -0.076  10.958 -0.5542 -1.0469 -0.3244
 3653TIP3   OH232449   1.221   3.204  11.680 -0.5611  0.6186 -0.3609
 3653TIP3    H132450   1.190   3.128  11.729 -0.3476  0.0352 -1.1147
 3653TIP3    H232451   1.312   3.214  11.706 -0.0960 -0.4192 -1.4987
 3654TIP3   OH232452   3.448   3.123  14.737 -0.0323  0.6819  0.4491
 3654TIP3    H132453   3.475   3.202  14.782 -1.5574  0.8620  1.0862
 3654TIP3    H232454   3.443   3.056  14.806  0.7107  0.1553  0.0070
 3655TIP3   OH232455   6.700   6.383  13.219  0.1203  0.1171  0.3927
 3655TIP3    H132456   6.680   6.448  13.151 -0.4493 -1.1495 -0.6640
 3655TIP3    H232457   6.706   6.300  13.172  0.1822 -0.7084  1.8348
 3656TIP3   OH232458   1.659   2.101  13.102 -0.6309 -0.3542 -0.1137
 3656TIP3    H132459   1.589   2.042  13.130 -1.1118  0.3291  0.1142
 3656TIP3    H232460   1.733   2.079  13.159  0.1795 -2.8206 -1.9864
 3657TIP3   OH232461   5.999   3.723  11.242  0.1955  0.0445  0.1010
 3657TIP3    H132462   5.956   3.808  11.253 -0.6495 -0.1399 -1.6450
 3657TIP3    H232463   6.036   3.725  11.153  0.7199 -1.1733  0.2715
 3658TIP3   OH232464   4.742   0.777  14.848 -0.1108  0.5798  0.1222
 3658TIP3    H132465   4.793   0.701  14.878  2.6689  2.3673  0.1593
 3658TIP3    H232466   4.725   0.828  14.927 -0.3831  0.9132 -0.1490
 3659TIP3   OH232467   2.932   5.818  12.164  0.0915 -0.2005  0.5618
 3659TIP3    H132468   2.877   5.853  12.094  0.3433 -1.7141 -0.4148
 3659TIP3    H232469   3.019   5.854  12.146  0.1435 -0.5361  0.1097
 3660TIP3   OH232470   1.707   6.843  10.492 -0.7826 -0.1951 -0.7835
 3660TIP3    H132471   1.623   6.818  10.530 -0.7984 -0.8939 -1.2606
 3660TIP3    H232472   1.709   6.938  10.500 -1.6460 -0.1633 -0.8131
 3661TIP3   OH232473   0.854   6.002  10.683 -0.2110 -0.0068 -0.0083
 3661TIP3    H132474   0.779   5.949  10.711 -0.1926  0.5365  1.1105
 3661TIP3    H232475   0.841   6.086  10.727  1.1969 -0.0001  0.4282
 3662TIP3   OH232476   4.895   1.566  11.225 -0.8047 -0.0768  0.0016
 3662TIP3    H132477   4.836   1.591  11.154 -1.8994  0.7745  1.1855
 3662TIP3    H232478   4.955   1.640  11.233  0.6342 -1.0609 -1.3851
 3663TIP3   OH232479   2.547   0.620  12.534 -0.2313  0.3388  0.0290
 3663TIP3    H132480   2.586   0.648  12.618  0.6970 -1.7875  0.3452
 3663TIP3    H232481   2.598   0.666  12.468 -1.3633  2.5104  0.6297
 3664TIP3   OH232482   0.608   7.176   9.936 -0.3172  0.1556  0.0743
 3664TIP3    H132483   0.649   7.258   9.907 -1.1386  0.1457 -1.1079
 3664TIP3    H232484   0.681   7.125   9.973  0.6135  0.4510 -1.3239
 3665TIP3   OH232485   0.555   4.128  11.092  0.8512 -0.2083 -0.7327
 3665TIP3    H132486   0.526   4.050  11.044 -0.8163 -0.5014  0.7027
 3665TIP3    H232487   0.568   4.097  11.181  2.8268  0.5822 -0.7254
 3666TIP3   OH232488   4.740   0.519  10.138  0.7069 -0.4300 -0.4466
 3666TIP3    H132489   4.739   0.423  10.134 -0.3877 -0.4142 -0.9536
 3666TIP3    H232490   4.776   0.546  10.053  0.1230 -0.3889 -0.6860
 3667TIP3   OH232491   4.696   3.106  13.431  0.1026  0.3055 -0.4127
 3667TIP3    H132492   4.635   3.107  13.504  0.1004  0.6789 -0.4190
 3667TIP3    H232493   4.736   3.019  13.434  1.0247  0.7594  0.7925
 3668TIP3   OH232494   2.004   2.082   0.075  0.0327  0.6312  0.2758
 3668TIP3    H132495   2.036   2.003   0.120  0.5406  1.5994  1.6304
 3668TIP3    H232496   1.938   2.119   0.134 -0.1316  1.2876 -0.3085
 3669TIP3   OH232497   5.083   0.025  10.517 -0.0072 -0.4549  0.6888
 3669TIP3    H132498   5.045  -0.035  10.453 -0.6760  1.0236 -0.3134
 3669TIP3    H232499   5.147  -0.029  10.565 -0.3355 -1.8668 -0.4230
 3670TIP3   OH232500   6.824   2.339  14.893 -0.4278  0.6506 -0.5155
 3670TIP3    H132501   6.869   2.255  14.882  1.0601  1.6507 -2.5424
 3670TIP3    H232502   6.759   2.323  14.961  0.2523 -1.9713 -0.4206
 3671TIP3   OH232503   3.044   6.684  12.424 -0.0728  0.0183 -0.0013
 3671TIP3    H132504   2.973   6.749  12.417 -0.7002 -0.6290  0.2508
 3671TIP3    H232505   3.041   6.636  12.341 -1.7050 -1.7857  1.0584
 3672TIP3   OH232506   3.507   0.491  10.364  0.1328 -0.0727  0.0647
 3672TIP3    H132507   3.602   0.495  10.372  0.2624 -0.1154 -1.3792
 3672TIP3    H232508   3.480   0.582  10.353 -0.1019  0.0450  1.5082
 3673TIP3   OH232509   4.142   2.823  10.044  0.0168  0.5773 -0.3599
 3673TIP3    H132510   4.174   2.877   9.971 -2.0519  2.1726 -0.1495
 3673TIP3    H232511   4.146   2.881  10.120 -0.5695 -0.1503  0.2329
 3674TIP3   OH232512   4.963   6.345  12.437 -0.4600  0.5343  0.7096
 3674TIP3    H132513   5.005   6.348  12.352  0.6784 -0.7745  1.2167
 3674TIP3    H232514   4.925   6.257  12.443 -1.0331  0.8150  1.3115
 3675TIP3   OH232515   1.461   2.970  12.742 -0.1542 -0.1784  0.0910
 3675TIP3    H132516   1.400   2.997  12.673  0.0971  1.6709  0.5646
 3675TIP3    H232517   1.475   2.877  12.726 -0.4476  0.1198 -2.0869
 3676TIP3   OH232518   1.699   5.923  12.293 -0.5826  0.3417 -0.1889
 3676TIP3    H132519   1.644   5.855  12.254 -0.1892 -0.4383  0.6252
 3676TIP3    H232520   1.675   5.924  12.385  0.3804  0.3829  0.0634
 3677TIP3   OH232521   3.351   0.348  12.524  0.1086  0.1382  0.0295
 3677TIP3    H132522   3.305   0.431  12.512  1.8279  1.0826 -0.2741
 3677TIP3    H232523   3.415   0.366  12.593  1.2913 -0.5651 -0.8570
 3678TIP3   OH232524   2.259   4.264  12.810  0.9751 -0.4186  0.0447
 3678TIP3    H132525   2.199   4.200  12.849 -1.3772  0.2694 -2.3575
 3678TIP3    H232526   2.222   4.349  12.834  2.3849  0.0589  0.5957
 3679TIP3   OH232527   4.965   5.051  14.261 -0.3158  0.6987 -0.0315
 3679TIP3    H132528   4.934   5.027  14.173 -1.4444 -0.0297  0.5469
 3679TIP3    H232529   5.017   4.976  14.289 -0.4710  0.6638  0.1634
 3680TIP3   OH232530   5.399   0.459  15.000 -0.0538  0.0766  0.1570
 3680TIP3    H132531   5.465   0.512  14.956 -0.9751  1.4822  0.4532
 3680TIP3    H232532   5.337   0.435  14.930 -2.1991  3.3499  0.8438
 3681TIP3   OH232533   4.160   7.139  12.459 -0.2804 -0.0465 -0.0832
 3681TIP3    H132534   4.215   7.215  12.481  0.3039 -0.2665 -0.7754
 3681TIP3    H232535   4.210   7.064  12.490 -1.2775 -0.0956  1.4368
 3682TIP3   OH232536   4.946   2.001  11.770 -0.2295  0.1359  0.1874
 3682TIP3    H132537   4.884   1.942  11.811  1.9113  0.2458  3.7854
 3682TIP3    H232538   5.020   1.945  11.745  0.2962  0.7447  0.3637
 3683TIP3   OH232539   0.962   6.053  14.652 -0.4167 -0.0736  0.6005
 3683TIP3    H132540   0.893   6.095  14.601 -1.1130 -0.7044  1.0236
 3683TIP3    H232541   0.986   5.976  14.601 -0.1346  0.0543  0.5363
 3684TIP3   OH232542   6.348   3.262  11.079 -0.1791  0.2788 -0.1080
 3684TIP3    H132543   6.286   3.335  11.084 -0.5085 -0.1039  1.9244
 3684TIP3    H232544   6.328   3.209  11.156  1.6738 -0.6724 -0.2635
 3685TIP3   OH232545   3.343   2.650  10.694  0.3005 -0.2942 -0.0928
 3685TIP3    H132546   3.398   2.575  10.673  0.7239  0.2441 -0.9541
 3685TIP3    H232547   3.282   2.657  10.620 -0.5309 -0.5129  0.5580
 3686TIP3   OH232548   3.034   6.459  12.792 -0.0685 -0.0133 -0.1780
 3686TIP3    H132549   2.994   6.416  12.868  0.7663 -2.1526 -0.9250
 3686TIP3    H232550   3.090   6.526  12.830  0.2347 -0.9631  1.1080
 3687TIP3   OH232551   2.832   5.511   1.708 -0.1034 -0.4522  0.9291
 3687TIP3    H132552   2.858   5.575   1.775  0.0188  0.4968 -0.0092
 3687TIP3    H232553   2.781   5.562   1.646  1.6419 -0.8276 -0.8572
 3688TIP3   OH232554   3.065   6.389  12.250  0.1588  0.4187  0.3675
 3688TIP3    H132555   3.158   6.369  12.237 -0.0955 -0.2086 -0.4744
 3688TIP3    H232556   3.026   6.382  12.163 -1.1984 -2.0467  1.1342
 3689TIP3   OH232557   7.192   5.694  10.387  0.0264  0.4312  0.5237
 3689TIP3    H132558   7.225   5.731  10.468  2.2344  0.2280 -0.2472
 3689TIP3    H232559   7.268   5.690  10.329 -1.4944  0.5727 -1.5626
 3690TIP3   OH232560   4.574   6.186  12.234  0.1147 -0.6279 -0.1806
 3690TIP3    H132561   4.531   6.253  12.182  1.8562  1.4422  0.9374
 3690TIP3    H232562   4.532   6.192  12.320 -0.5113 -1.7610 -0.4088
 3691TIP3   OH232563   5.183   4.814  13.393 -0.0598 -0.4432 -0.0958
 3691TIP3    H132564   5.150   4.732  13.356  0.8747 -2.6015  3.5947
 3691TIP3    H232565   5.104   4.862  13.420 -0.6985  0.7365 -3.7686
 3692TIP3   OH232566   2.855   1.261  12.438 -0.0116 -0.4368  0.0762
 3692TIP3    H132567   2.943   1.235  12.465  0.0306  0.8335  1.2479
 3692TIP3    H232568   2.799   1.188  12.465  0.2429  0.1651  2.3562
 3693TIP3   OH232569   3.944   6.010  13.118  0.1992  0.0424  0.4002
 3693TIP3    H132570   3.908   5.922  13.110 -1.4501  0.6245  1.2131
 3693TIP3    H232571   3.951   6.025  13.213 -0.8990  1.3235  0.2918
 3694TIP3   OH232572   2.141   4.837  13.659  0.4019  0.0880  0.1612
 3694TIP3    H132573   2.105   4.812  13.573 -2.7635  1.0895  1.1321
 3694TIP3    H232574   2.189   4.759  13.688 -0.0911 -0.9370 -1.6824
 3695TIP3   OH232575   4.403   0.590   1.015 -1.4270 -0.2270  0.0436
 3695TIP3    H132576   4.429   0.629   1.099 -1.1639 -1.1156  0.3750
 3695TIP3    H232577   4.486   0.564   0.975 -1.6336 -0.7728 -0.0202
 3696TIP3   OH232578   2.063   1.847   0.173 -0.5031 -0.0579  0.3228
 3696TIP3    H132579   2.145   1.834   0.125 -1.2803 -1.8416 -0.5334
 3696TIP3    H232580   2.019   1.762   0.171 -2.7586  1.0649  0.0799
 3697TIP3   OH232581   4.051   1.744  11.124 -0.0791  0.5039  0.9121
 3697TIP3    H132582   4.027   1.745  11.031 -0.4265  2.6499  1.0001
 3697TIP3    H232583   4.130   1.691  11.127 -2.0103 -2.5656 -0.0813
 3698TIP3   OH232584   6.351   0.738  14.215  0.0317  0.4747 -0.3694
 3698TIP3    H132585   6.363   0.832  14.225 -1.0830  0.6008 -0.1735
 3698TIP3    H232586   6.357   0.703  14.304  1.9931  0.1595 -0.5979
 3699TIP3   OH232587   6.724   5.853  11.687 -0.4992 -0.6126 -0.5141
 3699TIP3    H132588   6.655   5.836  11.751 -0.0626 -0.2644  0.0619
 3699TIP3    H232589   6.688   5.921  11.630  1.2396  3.5441  2.9900
 3700TIP3   OH232590   4.962   0.601  13.389  0.1017 -0.1094  0.8176
 3700TIP3    H132591   4.948   0.694  13.407  1.4796  0.4881 -0.9884
 3700TIP3    H232592   4.911   0.584  13.309  0.8469 -0.5703  0.4318
 3701TIP3   OH232593   3.335   4.973  14.237 -0.2710  0.4476 -0.3205
 3701TIP3    H132594   3.379   5.049  14.274 -1.1760  1.0867 -0.5363
 3701TIP3    H232595   3.242   4.996  14.238 -0.7525 -1.4044  1.3526
 3702TIP3   OH232596   1.727   6.894  11.475 -0.2359 -0.2995 -0.0098
 3702TIP3    H132597   1.782   6.840  11.418  1.7588 -1.0649  2.5560
 3702TIP3    H232598   1.653   6.919  11.419  1.2071 -1.6853 -2.6789
 3703TIP3   OH232599   4.738   1.617  14.015 -0.8043  0.0486  0.6803
 3703TIP3    H132600   4.650   1.579  14.018 -0.9022  0.2668  0.6228
 3703TIP3    H232601   4.757   1.642  14.105  0.1569 -2.1395  1.0996
 3704TIP3   OH232602   0.887   5.954  14.896  0.5889  0.2061  0.2740
 3704TIP3    H132603   0.806   6.002  14.916  0.8226 -0.2334  2.4410
 3704TIP3    H232604   0.918   5.992  14.813 -1.1186  1.3100  0.1194
 3705TIP3   OH232605   0.321   2.168  12.902  0.3323  0.1849 -0.3455
 3705TIP3    H132606   0.321   2.242  12.840 -0.1270 -0.4789 -1.1432
 3705TIP3    H232607   0.229   2.150  12.918  0.4533  0.6583  0.9137
 3706TIP3   OH232608   5.621   2.872   0.871  0.1029  0.5163 -0.0031
 3706TIP3    H132609   5.531   2.896   0.890  0.0802  0.8876 -0.5770
 3706TIP3    H232610   5.616   2.821   0.790  0.3653  0.2259  0.1626
 3707TIP3   OH232611   2.169   1.534  13.227 -0.1574  0.4958 -0.1191
 3707TIP3    H132612   2.110   1.579  13.167 -1.7970 -2.1955 -0.6353
 3707TIP3    H232613   2.126   1.449  13.243  1.5772  0.0793  2.7122
 3708TIP3   OH232614   0.175   2.278  11.863 -0.1561  0.5216 -0.2974
 3708TIP3    H132615   0.242   2.332  11.905  0.8371 -1.2817  0.4525
 3708TIP3    H232616   0.092   2.320  11.888  0.5269  0.8369  1.5448
 3709TIP3   OH232617   2.431   6.383  12.727  0.2023  0.1771 -0.5915
 3709TIP3    H132618   2.475   6.466  12.709 -1.6906  1.4796  0.5046
 3709TIP3    H232619   2.430   6.337  12.643  1.4313  1.1745 -1.1709
 3710TIP3   OH232620   3.989   2.747   0.153 -0.6125 -0.2541 -0.3638
 3710TIP3    H132621   3.959   2.820   0.098 -4.1835 -0.8911  0.6099
 3710TIP3    H232622   3.924   2.678   0.138  0.6445 -1.8781  1.5562
 3711TIP3   OH232623   3.331   6.411  10.616 -0.0704  0.0085 -0.2640
 3711TIP3    H132624   3.421   6.425  10.584  0.4780  2.8567  2.3525
 3711TIP3    H232625   3.278   6.471  10.563  0.1922  1.3787  0.9974
 3712TIP3   OH232626   2.493   4.497  14.041  0.0716 -0.0109 -0.6973
 3712TIP3    H132627   2.585   4.473  14.041  0.4818  1.5152 -1.2576
 3712TIP3    H232628   2.490   4.583  14.000 -1.4327  0.5825  0.6022
 3713TIP3   OH232629   5.539   2.858  10.738 -0.1049  0.2158  0.1427
 3713TIP3    H132630   5.510   2.841  10.648  2.6081  1.6921 -1.0524
 3713TIP3    H232631   5.476   2.921  10.772 -1.0569 -0.2292 -0.7650
 3714TIP3   OH232632   3.714   1.111   0.917 -0.0025 -0.3740  0.6522
 3714TIP3    H132633   3.699   1.093   1.010  0.9147  0.5452  0.9907
 3714TIP3    H232634   3.627   1.128   0.881 -0.2289  0.6112  1.6369
 3715TIP3   OH232635   2.730   6.600  12.944 -0.0640  0.2471 -0.2822
 3715TIP3    H132636   2.779   6.551  13.011 -0.1949  1.0569  0.4222
 3715TIP3    H232637   2.660   6.643  12.993  0.0151  1.0811 -0.8999
 3716TIP3   OH232638   5.680   6.438  12.071 -0.1034 -0.1454  0.0946
 3716TIP3    H132639   5.700   6.348  12.045  0.8303  0.2011 -0.4172
 3716TIP3    H232640   5.666   6.433  12.165 -0.3502 -0.8783  0.0215
 3717TIP3   OH232641   6.283   0.092  11.685  0.1226  0.0254  0.2916
 3717TIP3    H132642   6.362   0.145  11.670  0.2372 -0.0467  0.6367
 3717TIP3    H232643   6.267   0.050  11.601  0.6737 -0.2555  0.3253
 3718TIP3   OH232644   2.711   1.470  13.256  0.2535 -0.0174 -0.1195
 3718TIP3    H132645   2.774   1.398  13.260  0.3540  0.1525  1.9371
 3718TIP3    H232646   2.627   1.429  13.277  0.4541  0.5898  1.9994
 3719TIP3   OH232647   4.416   5.339  12.322  0.6147  0.1279  0.1096
 3719TIP3    H132648   4.418   5.284  12.400 -0.7701  0.3001  0.2765
 3719TIP3    H232649   4.431   5.278  12.250  0.2894 -0.2820  0.3845
 3720TIP3   OH232650   1.863   4.874  13.091  0.3059  0.0912 -0.1777
 3720TIP3    H132651   1.795   4.936  13.066  0.3277  0.3334  0.3424
 3720TIP3    H232652   1.945   4.921  13.074  0.4012 -0.9193 -2.6547
 3721TIP3   OH232653   5.676   6.983  13.491 -0.4413 -0.6088 -0.2378
 3721TIP3    H132654   5.763   6.950  13.516 -1.1732 -1.4710  1.2838
 3721TIP3    H232655   5.687   7.015  13.402  1.0476 -2.2289 -0.6682
 3722TIP3   OH232656   5.418   3.751   1.665  0.4751 -0.1857 -0.5613
 3722TIP3    H132657   5.330   3.721   1.687 -0.2465  1.1393 -1.5692
 3722TIP3    H232658   5.420   3.843   1.691  1.7386 -0.3325 -0.0707
 3723TIP3   OH232659   4.751   5.671  14.426 -0.0917 -0.1108  0.4240
 3723TIP3    H132660   4.712   5.660  14.513  1.2832  1.9339  1.3424
 3723TIP3    H232661   4.676   5.687  14.368 -0.9820 -1.0840  1.2900
 3724TIP3   OH232662   4.821   7.069  10.642  0.2384  0.3067  0.7903
 3724TIP3    H132663   4.816   7.163  10.660 -1.4633  0.6706 -1.3004
 3724TIP3    H232664   4.741   7.049  10.594  0.3173 -2.3456  1.6433
 3725TIP3   OH232665   2.661   3.802  11.656  0.0459  0.1842 -0.6436
 3725TIP3    H132666   2.692   3.713  11.641 -0.1487  0.0850 -0.4556
 3725TIP3    H232667   2.709   3.855  11.593  1.3092  0.1712  0.2770
 3726TIP3   OH232668   4.894   0.513  10.687 -0.1435 -0.2211  1.0738
 3726TIP3    H132669   4.878   0.509  10.593  1.4117  0.2417  0.7722
 3726TIP3    H232670   4.959   0.445  10.704 -0.4434 -0.3274  1.8174
 3727TIP3   OH232671   3.423   3.220  10.143  0.2288  0.4509 -0.2770
 3727TIP3    H132672   3.517   3.237  10.149  0.0212  1.5461 -0.0220
 3727TIP3    H232673   3.383   3.306  10.132 -0.8476  0.1437  1.0184
 3728TIP3   OH232674   4.565   3.438  12.689  0.4473 -0.2941 -0.2199
 3728TIP3    H132675   4.491   3.436  12.628  0.7472 -0.2751 -0.5834
 3728TIP3    H232676   4.631   3.492  12.646  0.5973 -0.1458  0.1939
 3729TIP3   OH232677   3.309   2.244  11.679  0.0562  0.4472 -0.2843
 3729TIP3    H132678   3.303   2.164  11.732  0.5710 -0.6243 -1.8173
 3729TIP3    H232679   3.392   2.284  11.704 -0.8562  1.2577  1.5143
 3730TIP3   OH232680   4.906   0.821  10.117 -0.0696  0.1333  0.0109
 3730TIP3    H132681   4.859   0.739  10.098 -2.0499  1.4116 -0.7116
 3730TIP3    H232682   4.900   0.871  10.036  1.7801  0.7160  0.2112
 3731TIP3   OH232683   2.900   4.184  14.553 -0.1477 -0.2068  0.1708
 3731TIP3    H132684   2.949   4.102  14.555  0.2823  0.0744  1.6467
 3731TIP3    H232685   2.947   4.242  14.613 -0.9589  0.8192 -0.1698
 3732TIP3   OH232686   7.196   3.273  11.072  0.6201  0.3187  0.0196
 3732TIP3    H132687   7.190   3.364  11.042  1.8759  0.5558  0.4504
 3732TIP3    H232688   7.289   3.251  11.061  0.0517 -1.4385 -1.5839
 3733TIP3   OH232689   3.389   3.656  12.569 -0.2511 -0.4302  0.3280
 3733TIP3    H132690   3.377   3.627  12.660  0.6729  0.4219  0.7288
 3733TIP3    H232691   3.313   3.621  12.523 -1.3789  0.1635  1.6806
 3734TIP3   OH232692   4.783   6.877  11.569 -0.7143  0.3778 -0.1123
 3734TIP3    H132693   4.868   6.867  11.526 -1.2838  1.0051 -1.4100
 3734TIP3    H232694   4.751   6.962  11.539 -1.5558  0.3897  0.8009
 3735TIP3   OH232695   5.247   6.546  11.849 -0.0940 -0.3412  0.6295
 3735TIP3    H132696   5.254   6.574  11.758 -0.2841  1.7763  1.2368
 3735TIP3    H232697   5.153   6.538  11.864 -0.0721 -0.4878  0.6871
 3736TIP3   OH232698   6.901   5.446   0.824  0.4584  0.5554 -0.2993
 3736TIP3    H132699   6.943   5.529   0.848  0.9434  0.1099  0.4205
 3736TIP3    H232700   6.835   5.431   0.892  0.8651 -0.0049 -0.0234
 3737TIP3   OH232701   1.934   0.426  11.793 -0.0202  0.4542 -0.9659
 3737TIP3    H132702   1.971   0.474  11.867  0.0952 -2.1550  0.7382
 3737TIP3    H232703   1.985   0.455  11.718  2.5502  0.1854  0.6271
 3738TIP3   OH232704   5.925   2.933  11.975 -0.0005 -0.4414  0.4068
 3738TIP3    H132705   5.954   2.992  12.045 -0.5274 -2.1218  2.0845
 3738TIP3    H232706   5.849   2.976  11.938 -0.5720 -0.1885  1.8296
 3739TIP3   OH232707   2.752   6.572  10.907  0.2818  0.0774  0.2034
 3739TIP3    H132708   2.699   6.496  10.932  0.4238  0.1009  0.5898
 3739TIP3    H232709   2.726   6.641  10.968  0.6072  0.1500  0.2608
 3740TIP3   OH232710   4.912   6.021  12.949 -0.1384  0.1063 -0.2569
 3740TIP3    H132711   4.930   5.939  12.995  0.8324  1.3517  1.6222
 3740TIP3    H232712   4.995   6.068  12.950 -1.2223  2.0636  0.6246
 3741TIP3   OH232713   0.462   6.684   0.728  0.5159 -0.3074  0.1380
 3741TIP3    H132714   0.445   6.611   0.668 -0.4318 -1.4256  1.7182
 3741TIP3    H232715   0.376   6.724   0.742  0.3463 -1.3585  2.3476
 3742TIP3   OH232716   2.875   0.369  11.944 -0.3757 -0.2665 -0.4300
 3742TIP3    H132717   2.871   0.409  12.031  2.2193  0.9198 -0.8121
 3742TIP3    H232718   2.834   0.434  11.886  1.4773  0.7504 -0.6521
 3743TIP3   OH232719   0.484   6.397  10.974  0.1201 -0.4630 -0.4792
 3743TIP3    H132720   0.432   6.415  10.896  0.7160  1.9525 -0.3494
 3743TIP3    H232721   0.545   6.328  10.947 -1.0659 -1.1258 -1.5230
 3744TIP3   OH232722   2.581   1.606  14.944  0.4565  0.4199  0.2170
 3744TIP3    H132723   2.667   1.644  14.928  0.1812  1.6523  1.5172
 3744TIP3    H232724   2.521   1.658  14.892  0.2976  0.6491  0.6243
 3745TIP3   OH232725   6.868   0.448  14.789  0.0826 -0.2440  0.4687
 3745TIP3    H132726   6.782   0.444  14.831 -0.4539 -0.4527 -0.6161
 3745TIP3    H232727   6.860   0.520  14.726  0.3393 -0.9923 -0.4227
 3746TIP3   OH232728   1.576   6.807  12.858 -0.4505  0.1494  0.5527
 3746TIP3    H132729   1.616   6.785  12.773  0.4039 -0.3826  1.0907
 3746TIP3    H232730   1.513   6.876  12.837 -0.9596 -0.6692 -0.6811
 3747TIP3   OH232731   4.177   2.436   9.903 -0.0053 -0.2647 -0.4536
 3747TIP3    H132732   4.117   2.498   9.944  0.7040  0.0791  0.0768
 3747TIP3    H232733   4.249   2.490   9.870  2.0840 -1.0668  2.6104
 3748TIP3   OH232734   3.479   0.956   0.237  0.0118 -0.0682  0.3499
 3748TIP3    H132735   3.492   0.870   0.197 -0.1918 -0.4899  1.1773
 3748TIP3    H232736   3.486   1.018   0.164  0.1824 -0.7830 -0.2453
 3749TIP3   OH232737   2.628   6.345  12.196 -0.0312 -0.0381 -0.2032
 3749TIP3    H132738   2.641   6.329  12.103 -0.1134 -0.6388 -0.1111
 3749TIP3    H232739   2.637   6.440  12.205  0.7417 -0.0559 -0.7005
 3750TIP3   OH232740   5.346   3.812  12.324  0.4061 -0.0366  0.1216
 3750TIP3    H132741   5.267   3.822  12.271  0.9151 -1.0621 -0.8668
 3750TIP3    H232742   5.332   3.731  12.373  0.8072 -0.1888 -0.0089
 3751TIP3   OH232743   1.968   4.905  11.939 -0.7818  0.2023 -0.7315
 3751TIP3    H132744   1.969   4.831  11.878 -0.0088 -0.5591  0.1842
 3751TIP3    H232745   1.944   4.866  12.024  0.5751  0.8339 -0.0415
 3752TIP3   OH232746   6.709   0.730  10.436  0.2747 -0.0306  0.4897
 3752TIP3    H132747   6.679   0.656  10.489 -1.2240 -0.1258 -0.4612
 3752TIP3    H232748   6.628   0.775  10.412  0.9608  0.1412 -1.5062
 3753TIP3   OH232749   1.437   1.908  12.655 -0.2865  0.7063 -0.1855
 3753TIP3    H132750   1.527   1.893  12.626 -0.4830  0.4226 -0.6606
 3753TIP3    H232751   1.410   1.987  12.608 -0.6417  0.1850 -0.8769
 3754TIP3   OH232752   3.580   2.430  10.822 -0.7276  0.1038  0.3161
 3754TIP3    H132753   3.525   2.392  10.754  1.3844 -2.8554  0.1400
 3754TIP3    H232754   3.670   2.412  10.793  0.2425  0.5850  2.8555
 3755TIP3   OH232755   1.585   1.851  13.500  0.1254  0.4445 -0.0475
 3755TIP3    H132756   1.561   1.871  13.590  0.9645  0.0292  0.2663
 3755TIP3    H232757   1.662   1.905  13.482  0.5278 -0.1800 -0.2083
 3756TIP3   OH232758   6.698   1.610  14.338 -0.2584 -0.0459  0.3614
 3756TIP3    H132759   6.616   1.650  14.367 -0.1372  0.1520  0.4275
 3756TIP3    H232760   6.704   1.634  14.246 -0.1735  0.1090  0.4064
 3757TIP3   OH232761   5.566   2.857  13.039 -0.4793  0.1411 -0.0065
 3757TIP3    H132762   5.644   2.876  12.986 -0.5505  1.4927  0.3635
 3757TIP3    H232763   5.551   2.763  13.025  3.5501 -1.1094  3.0854
 3758TIP3   OH232764   6.334   2.134  11.483 -0.0393 -0.1766 -0.0979
 3758TIP3    H132765   6.398   2.067  11.463 -1.2456 -0.9977 -1.2886
 3758TIP3    H232766   6.366   2.213  11.439 -0.2715 -0.7954 -1.4003
 3759TIP3   OH232767   1.469   1.882  11.078 -0.3627 -0.0726 -0.3115
 3759TIP3    H132768   1.548   1.892  11.025 -0.0890  0.1399  0.1347
 3759TIP3    H232769   1.448   1.788  11.073  0.3851 -0.2698  0.2341
 3760TIP3   OH232770   2.915   1.690  12.176 -0.1078 -0.2644 -0.0875
 3760TIP3    H132771   3.003   1.723  12.196 -0.0204  0.3085 -1.3762
 3760TIP3    H232772   2.931   1.602  12.140 -0.0035  0.0687 -0.8774
 3761TIP3   OH232773   3.007   6.966  10.486 -0.8261 -0.3481 -0.4620
 3761TIP3    H132774   3.026   7.008  10.569 -0.8138 -0.2180 -0.5306
 3761TIP3    H232775   3.049   7.022  10.420 -0.4248 -0.7081 -0.5185
 3762TIP3   OH232776   5.525   5.375   0.934 -0.1017  0.0939  0.0622
 3762TIP3    H132777   5.591   5.361   0.865  1.0244 -0.5338  1.2421
 3762TIP3    H232778   5.514   5.289   0.974 -1.0691  0.3657  0.3972
 3763TIP3   OH232779   3.274   6.923  11.764  0.4842  1.1321  0.3111
 3763TIP3    H132780   3.243   6.930  11.674  1.9311  1.4989 -0.1646
 3763TIP3    H232781   3.262   7.010  11.801  0.7424  1.2103  0.2054
 3764TIP3   OH232782   5.720   0.882  14.405 -0.0039 -0.4118  0.0040
 3764TIP3    H132783   5.760   0.834  14.478  0.7664 -1.3235 -1.0042
 3764TIP3    H232784   5.787   0.943  14.377 -0.1776 -0.3045 -0.1793
 3765TIP3   OH232785   2.491   2.984  15.135  0.5587  0.6955 -0.4073
 3765TIP3    H132786   2.527   2.902  15.102 -0.4034  0.0586  0.0990
 3765TIP3    H232787   2.401   2.986  15.101  0.5758  1.5379 -0.4229
 3766TIP3   OH232788   4.733   5.449  13.665 -0.0550 -0.2152  0.1459
 3766TIP3    H132789   4.787   5.375  13.637  0.3598 -0.7156  2.1385
 3766TIP3    H232790   4.748   5.454  13.760 -3.2812 -0.1737  0.7064
 3767TIP3   OH232791   4.587   4.390  12.499  0.2608 -0.6929 -0.2466
 3767TIP3    H132792   4.550   4.328  12.435 -0.7446  0.1605 -0.5097
 3767TIP3    H232793   4.560   4.355  12.584  0.5974 -1.1823 -0.3328
 3768TIP3   OH232794   4.528   2.401   9.875 -0.0515  0.2805 -0.2034
 3768TIP3    H132795   4.570   2.485   9.855  1.2855 -0.3291 -0.0270
 3768TIP3    H232796   4.519   2.358   9.790  3.4182 -1.2860  0.1443
 3769TIP3   OH232797   0.343   6.514   0.179 -0.1097 -0.0827 -0.1256
 3769TIP3    H132798   0.347   6.436   0.233  0.5118 -0.8418 -1.2333
 3769TIP3    H232799   0.352   6.587   0.240 -0.7313 -0.8817  0.9147
 3770TIP3   OH232800   3.336   1.422   9.975 -0.6359 -0.4729 -0.5090
 3770TIP3    H132801   3.425   1.391   9.992 -0.7673 -1.0675 -0.8946
 3770TIP3    H232802   3.322   1.406   9.881 -0.5285  1.2171 -0.8279
 3771TIP3   OH232803   5.996   1.849   9.673  0.3388  0.0644 -0.2870
 3771TIP3    H132804   6.086   1.814   9.676 -0.2453 -1.2887  2.7804
 3771TIP3    H232805   5.952   1.793   9.609  0.6229 -1.9788  1.2461
 3772TIP3   OH232806   1.394   1.643  10.239  0.5018  0.3995  0.2279
 3772TIP3    H132807   1.417   1.673  10.151  3.4671 -0.4027  0.6786
 3772TIP3    H232808   1.380   1.723  10.289 -0.5669  0.8637 -0.7955
 3773TIP3   OH232809   2.767   0.047  13.613 -0.1220  0.0216  0.1950
 3773TIP3    H132810   2.760   0.126  13.667 -1.6920 -0.6222  0.9732
 3773TIP3    H232811   2.834  -0.006  13.656  0.7131  0.7700 -0.1527
 3774TIP3   OH232812   3.270   3.237  10.999 -0.5600  0.2117 -0.9684
 3774TIP3    H132813   3.254   3.165  10.938 -0.7193 -1.3809  0.8899
 3774TIP3    H232814   3.356   3.271  10.974 -1.3400  0.7090 -3.1309
 3775TIP3   OH232815   4.587   7.061  11.469  0.4532 -0.3907  0.6483
 3775TIP3    H132816   4.521   6.993  11.458 -1.1569  1.3014 -0.3733
 3775TIP3    H232817   4.581   7.114  11.390  1.3004  1.2683  1.6616
 3776TIP3   OH232818   6.736   5.724  11.165 -0.2370  0.1402  0.2801
 3776TIP3    H132819   6.688   5.759  11.240 -0.8236  0.1159 -0.0876
 3776TIP3    H232820   6.723   5.629  11.170 -0.5790  0.1677 -0.0608
 3777TIP3   OH232821   1.330   6.325  10.081 -0.3067  0.3295 -0.5685
 3777TIP3    H132822   1.247   6.353  10.119 -0.4530 -2.1551  1.1383
 3777TIP3    H232823   1.307   6.252  10.023  0.5873  0.0164 -0.5564
 3778TIP3   OH232824   3.839   2.421  13.587  0.3193  0.0243 -0.1686
 3778TIP3    H132825   3.799   2.421  13.674  0.2475  0.7051 -0.1990
 3778TIP3    H232826   3.871   2.332  13.575  0.9983  0.1219  0.8634
 3779TIP3   OH232827   3.444   2.225  13.163 -0.4750 -0.3858 -0.1535
 3779TIP3    H132828   3.527   2.241  13.117 -0.6423  1.7166  0.2501
 3779TIP3    H232829   3.465   2.156  13.226  0.7003 -0.6024 -0.7632
 3780TIP3   OH232830   4.052   2.229  11.722  0.1496  0.3278 -0.4529
 3780TIP3    H132831   3.983   2.279  11.679 -0.2055 -0.5107 -0.8720
 3780TIP3    H232832   4.121   2.220  11.655  0.7532  1.3245  0.0236
 3781TIP3   OH232833   3.699   2.457   0.412 -0.1775  0.0132 -0.1794
 3781TIP3    H132834   3.637   2.497   0.472 -1.3008 -1.7906 -0.0991
 3781TIP3    H232835   3.651   2.448   0.330  0.3880 -0.2569 -0.4880
 3782TIP3   OH232836   3.944   0.164  11.860 -0.5345  0.1094  0.1149
 3782TIP3    H132837   3.915   0.254  11.875  1.5648  0.6531  1.0107
 3782TIP3    H232838   3.919   0.117  11.940  1.3374  0.6642  1.0482
 3783TIP3   OH232839   6.563   6.014  11.459  0.1607 -0.2817  0.0847
 3783TIP3    H132840   6.553   6.101  11.496 -1.0312  0.0234 -0.9197
 3783TIP3    H232841   6.525   5.955  11.524  0.5909 -0.0141  0.5773
 3784TIP3   OH232842   0.503   1.529  12.172 -0.1927  0.4908  0.3050
 3784TIP3    H132843   0.462   1.599  12.222  0.2314  1.4944 -0.7194
 3784TIP3    H232844   0.464   1.535  12.085  0.0943 -0.3190  0.1179
 3785TIP3   OH232845   3.765   1.736  10.593 -0.2132 -0.0055  1.3352
 3785TIP3    H132846   3.674   1.706  10.600 -0.0654 -0.2762  2.2156
 3785TIP3    H232847   3.802   1.687  10.520 -1.1120  0.9821  0.1817
 3786TIP3   OH232848   1.810   4.615   9.992 -0.1200 -0.0686 -0.2337
 3786TIP3    H132849   1.860   4.534   9.988  2.5478  1.5469 -1.4031
 3786TIP3    H232850   1.823   4.647  10.081 -0.8455 -0.7331  0.1091
 3787TIP3   OH232851   6.203   2.014  11.962  0.0423 -0.0926 -0.2677
 3787TIP3    H132852   6.207   1.940  11.901 -1.2844 -0.4160  0.0153
 3787TIP3    H232853   6.173   2.087  11.908  0.4448  0.0087 -0.3504
 3788TIP3   OH232854   5.822   7.172  14.229 -0.2701 -0.3402  0.2343
 3788TIP3    H132855   5.853   7.116  14.301 -0.0636 -1.7482 -0.9266
 3788TIP3    H232856   5.760   7.117  14.181  0.6353  0.1186 -1.4715
 3789TIP3   OH232857   3.979   3.704  12.512 -0.6969  0.1123 -0.0268
 3789TIP3    H132858   4.028   3.677  12.590 -1.4159 -0.2820  0.2943
 3789TIP3    H232859   3.903   3.646  12.511  0.4657 -1.4317 -2.3056
 3790TIP3   OH232860   0.777   2.422  11.773  0.2196 -0.4838 -0.2976
 3790TIP3    H132861   0.755   2.350  11.832  0.7501 -0.1362  0.3307
 3790TIP3    H232862   0.801   2.494  11.832 -0.3976  0.2327 -0.9148
 3791TIP3   OH232863   2.480   2.551  10.726  0.1651  0.2554 -0.0326
 3791TIP3    H132864   2.428   2.472  10.739  0.7490 -0.5571 -2.5113
 3791TIP3    H232865   2.457   2.607  10.801 -1.2501 -1.6967  1.0273
 3792TIP3   OH232866   0.342   0.064  12.903  0.2055 -0.2751  0.1761
 3792TIP3    H132867   0.304   0.058  12.991  1.3478  0.5454  0.7457
 3792TIP3    H232868   0.283   0.013  12.847 -0.7259 -0.5056  1.3546
 3793TIP3   OH232869   2.895   3.552  11.334 -0.1553 -0.2114 -0.2418
 3793TIP3    H132870   2.939   3.588  11.412 -0.4170  0.5286 -0.4335
 3793TIP3    H232871   2.956   3.487  11.300 -0.0591 -0.5837  0.6157
 3794TIP3   OH232872   2.987   2.903  13.739  0.2701 -0.1145  0.0266
 3794TIP3    H132873   3.020   2.853  13.814 -0.3575  0.0006  0.3865
 3794TIP3    H232874   3.060   2.904  13.677  0.9549  0.1535  0.8145
 3795TIP3   OH232875   6.925   1.383  13.172 -0.0442  0.3222 -0.1021
 3795TIP3    H132876   6.998   1.333  13.209  0.8040  1.5990 -0.0264
 3795TIP3    H232877   6.964   1.438  13.105 -0.7981  1.6196  0.5046
 3796TIP3   OH232878   1.424   5.731  13.328 -0.0394  0.0491  0.2033
 3796TIP3    H132879   1.444   5.774  13.245 -1.2123 -0.1307 -0.1754
 3796TIP3    H232880   1.336   5.761  13.350  0.3586  0.3097  1.5293
 3797TIP3   OH232881   2.568   6.706  11.470  0.0222  0.1770  0.4884
 3797TIP3    H132882   2.598   6.737  11.555  0.5248 -0.9306  0.7329
 3797TIP3    H232883   2.477   6.679  11.485  0.3301 -0.6761  0.8532
 3798TIP3   OH232884   2.882   0.386   9.906  0.5977  0.3686  0.0257
 3798TIP3    H132885   2.845   0.464   9.947 -0.1159  1.0280 -1.8590
 3798TIP3    H232886   2.882   0.320   9.976  0.0397  1.6721  1.2710
 3799TIP3   OH232887   0.311   4.905  14.110 -0.1546  0.5381  0.4116
 3799TIP3    H132888   0.225   4.941  14.130  0.0588  0.2338  1.9273
 3799TIP3    H232889   0.334   4.944  14.025 -1.8925  0.3873 -0.1464
 3800TIP3   OH232890   0.191   6.023  13.410  0.5191  0.2159 -0.5669
 3800TIP3    H132891   0.128   6.075  13.360  0.1749  1.5905  1.2389
 3800TIP3    H232892   0.246   5.981  13.343 -1.4187  0.1070 -2.1278
 3801TIP3   OH232893   6.062   5.477   1.076 -0.2556  0.7464 -0.5146
 3801TIP3    H132894   6.067   5.458   1.170 -0.5584  3.1192 -0.0017
 3801TIP3    H232895   5.971   5.456   1.053 -0.7114  1.9863  0.1378
 3802TIP3   OH232896   5.669   1.703  13.851 -0.2907  0.0274  0.3909
 3802TIP3    H132897   5.591   1.648  13.842 -0.5755  0.5640 -0.3966
 3802TIP3    H232898   5.646   1.786  13.811  1.1054 -0.2282 -1.0063
 3803TIP3   OH232899   2.862   0.686  11.098  0.4854  0.0197  0.0121
 3803TIP3    H132900   2.784   0.738  11.080  0.7228 -0.8377 -3.9040
 3803TIP3    H232901   2.828   0.606  11.138 -0.3419  0.9078  1.1181
 3804TIP3   OH232902   0.970   0.066  12.215  0.0653  0.3196  0.1059
 3804TIP3    H132903   0.941   0.155  12.196 -0.0893  0.2898  0.1977
 3804TIP3    H232904   1.043   0.077  12.276 -0.4477  0.3575  0.7218
 3805TIP3   OH232905   1.715   0.583  11.814  0.0411 -0.0416  0.1042
 3805TIP3    H132906   1.788   0.521  11.819 -1.0358 -1.2024  1.8788
 3805TIP3    H232907   1.691   0.584  11.722  1.5918 -0.4653 -0.3245
 3806TIP3   OH232908   7.130   6.446  11.950  0.1256  0.1966  0.4481
 3806TIP3    H132909   7.165   6.495  12.024  0.3071 -1.8469  1.7582
 3806TIP3    H232910   7.041   6.422  11.978 -0.3290  0.6464 -0.5955
 3807TIP3   OH232911   5.739   6.794  12.705  0.6737 -0.0737  0.0837
 3807TIP3    H132912   5.741   6.857  12.778 -0.1741 -0.4458  0.4308
 3807TIP3    H232913   5.676   6.832  12.643  1.2626  0.1540 -0.3822
 3808TIP3   OH232914   3.571   1.643  13.491 -0.1421 -0.9345 -0.4564
 3808TIP3    H132915   3.583   1.723  13.542 -0.3329 -2.0431  1.3409
 3808TIP3    H232916   3.659   1.608  13.479 -0.2148 -1.3982  0.3134
 3809TIP3   OH232917   4.706   4.511  15.455 -0.2964 -0.7273 -0.1600
 3809TIP3    H132918   4.631   4.512  15.515  0.3329 -1.9175  0.6687
 3809TIP3    H232919   4.712   4.420  15.427 -0.5879 -0.1846 -2.0618
 3810TIP3   OH232920   3.554   6.535  13.302 -0.0959  0.1035  0.2295
 3810TIP3    H132921   3.511   6.459  13.264  1.4598 -0.7980  0.2530
 3810TIP3    H232922   3.647   6.519  13.290  0.2259  2.6877 -1.0554
 3811TIP3   OH232923   5.272   6.638  12.383  0.0244  0.0620  0.7940
 3811TIP3    H132924   5.267   6.557  12.332 -1.3791  0.5597  0.1250
 3811TIP3    H232925   5.192   6.637  12.436 -1.3025  2.2454 -1.0954
 3812TIP3   OH232926   0.355   4.365  14.423  0.1987  0.2492  0.4327
 3812TIP3    H132927   0.357   4.400  14.512 -0.0422  1.8327 -0.1622
 3812TIP3    H232928   0.266   4.385  14.392  0.2861 -0.2816 -0.1659
 3813TIP3   OH232929   3.722   0.885  12.630 -0.4492  0.1299 -0.1508
 3813TIP3    H132930   3.683   0.923  12.551 -3.4081 -0.1733  1.0933
 3813TIP3    H232931   3.777   0.813  12.597 -1.4741  0.1397 -1.9529
 3814TIP3   OH232932   2.439   0.252  10.513 -0.0664  0.4514  0.4187
 3814TIP3    H132933   2.348   0.264  10.541 -0.1569  0.3100  0.1867
 3814TIP3    H232934   2.432   0.219  10.423  0.2533  3.5343 -0.7804
 3815TIP3   OH232935   4.769   2.192  11.111 -0.4937  0.3296  0.8289
 3815TIP3    H132936   4.857   2.165  11.135 -0.4181 -0.6981 -0.5482
 3815TIP3    H232937   4.766   2.185  11.016 -1.8175  1.1170  0.7906
 3816TIP3   OH232938   1.372   6.417  10.667 -0.3219 -0.4844 -0.0973
 3816TIP3    H132939   1.329   6.487  10.716 -1.7304 -1.5278  0.1600
 3816TIP3    H232940   1.464   6.444  10.664 -0.6290  0.7543  1.0936
 3817TIP3   OH232941   4.336   1.102   2.278 -0.3315  0.0038 -0.6743
 3817TIP3    H132942   4.324   1.024   2.223  0.6985  0.9222 -2.2314
 3817TIP3    H232943   4.247   1.129   2.300 -0.7076 -1.7622  0.1378
 3818TIP3   OH232944   4.002   5.605  12.572 -0.0439 -0.5287  0.2820
 3818TIP3    H132945   3.930   5.631  12.628  0.8512 -0.6643  1.5206
 3818TIP3    H232946   4.071   5.669  12.589  0.0913 -0.2986 -1.0111
 3819TIP3   OH232947   3.506   7.113  14.558  0.1982  0.3753 -0.4572
 3819TIP3    H132948   3.515   7.189  14.615  1.6472  0.0529 -0.2224
 3819TIP3    H232949   3.548   7.139  14.476  0.7822 -0.1823 -0.3451
 3820TIP3   OH232950   7.157   2.642  11.160  0.0582  0.9560 -0.3582
 3820TIP3    H132951   7.233   2.639  11.217  0.4494  0.2759 -0.9005
 3820TIP3    H232952   7.125   2.552  11.157 -1.0102  1.3075  0.1809
 3821TIP3   OH232953   5.993   3.418  13.419 -0.1133  0.0824  0.2392
 3821TIP3    H132954   5.987   3.334  13.464 -0.5926  0.7762  1.4975
 3821TIP3    H232955   6.002   3.395  13.326  0.2652 -1.3542  0.6144
 3822TIP3   OH232956   3.200   4.128  10.535  0.6669  0.2872  0.5806
 3822TIP3    H132957   3.181   4.034  10.547 -1.2077 -0.0290 -3.8035
 3822TIP3    H232958   3.114   4.169  10.532  1.4312  1.9245  0.8883
 3823TIP3   OH232959   2.506   2.093   9.879  0.1740  0.3616 -0.5452
 3823TIP3    H132960   2.492   2.161   9.813 -0.8377  2.5964  1.8754
 3823TIP3    H232961   2.427   2.039   9.875  0.3703  0.1379 -1.5231
 3824TIP3   OH232962   5.996   7.024  15.090  0.0331  0.1299  0.1725
 3824TIP3    H132963   6.056   7.045  15.019  0.2828  1.5110  0.7730
 3824TIP3    H232964   6.042   6.957  15.141  0.4784  0.1826 -0.1592
 3825TIP3   OH232965   1.716   1.605  13.822  0.0677 -0.1495  0.0702
 3825TIP3    H132966   1.808   1.608  13.798  0.1221 -3.3219 -0.2626
 3825TIP3    H232967   1.672   1.567  13.746 -1.7920  2.8354 -0.4412
 3826TIP3   OH232968   6.142   6.124  10.440 -0.1001 -0.5200 -0.0984
 3826TIP3    H132969   6.061   6.085  10.472  0.9554 -0.3070  2.9848
 3826TIP3    H232970   6.133   6.217  10.459  1.3823 -0.6759  1.5089
 3827TIP3   OH232971   3.345   3.879  10.334  0.1369  0.1251  0.0129
 3827TIP3    H132972   3.359   3.927  10.252  2.2878  0.2585  0.4184
 3827TIP3    H232973   3.251   3.883  10.349  0.0365  2.4550 -1.0259
 3828TIP3   OH232974   1.406   0.551  12.298 -0.6151  0.3421  0.2382
 3828TIP3    H132975   1.373   0.637  12.324 -1.0364 -0.0730  1.0976
 3828TIP3    H232976   1.472   0.570  12.231 -0.1022  1.3913  1.0210
 3829TIP3   OH232977   5.785   5.475  11.206  0.2277  0.1685  0.0695
 3829TIP3    H132978   5.770   5.562  11.243 -0.4693 -0.0706  0.3460
 3829TIP3    H232979   5.722   5.419  11.249 -2.9255  0.4842 -3.7987
 3830TIP3   OH232980   6.293   6.717  11.224  0.3424 -0.4373  0.0712
 3830TIP3    H132981   6.361   6.784  11.215  0.2383 -0.4256 -0.7103
 3830TIP3    H232982   6.297   6.668  11.142 -0.3359 -0.6812  0.1806
 3831TIP3   OH232983   4.990   5.749  13.566 -0.0726 -0.5630 -0.5306
 3831TIP3    H132984   5.037   5.779  13.489  1.8978 -1.4409  0.2870
 3831TIP3    H232985   4.979   5.655  13.553 -1.6324 -0.3691 -0.7150
 3832TIP3   OH232986   1.097   1.983  13.001  0.5341 -0.0195 -0.0877
 3832TIP3    H132987   1.162   2.020  13.061  0.6590  0.4041 -0.4737
 3832TIP3    H232988   1.148   1.924  12.945  0.2384 -1.1764  0.8743
 3833TIP3   OH232989   6.042   0.434  13.845 -0.2714  0.0227 -0.3921
 3833TIP3    H132990   6.079   0.516  13.878 -0.7430  0.3503 -0.6702
 3833TIP3    H232991   6.015   0.454  13.755 -2.7436  0.2979  0.3914
 3834TIP3   OH232992   0.983   5.813  12.183  0.0784 -0.8717  0.1880
 3834TIP3    H132993   0.931   5.733  12.193  0.7332 -1.2269  0.7796
 3834TIP3    H232994   1.009   5.836  12.273 -0.2751  0.1241  0.0454
 3835TIP3   OH232995   1.115   0.039  14.751 -0.1352 -0.0419 -0.4120
 3835TIP3    H132996   1.082   0.019  14.663 -0.5807 -2.3219  0.2404
 3835TIP3    H232997   1.210   0.040  14.742 -0.1249 -1.6992 -0.6662
 3836TIP3   OH232998   6.590   2.133   9.506 -0.1258 -0.1604  0.1372
 3836TIP3    H132999   6.550   2.209   9.464 -0.1563  0.5685  1.4602
 3836TIP3    H233000   6.572   2.061   9.447 -2.3757  0.3764  0.1241
 3837TIP3   OH233001   0.604   1.444  14.584  0.4058 -0.2880 -0.1723
 3837TIP3    H133002   0.690   1.471  14.551  0.1937 -0.5367 -0.9286
 3837TIP3    H233003   0.555   1.525  14.592  0.6363 -0.1687  0.0563
 3838TIP3   OH233004   0.434   1.575  11.194  0.7987 -0.7553  0.1226
 3838TIP3    H133005   0.388   1.492  11.207 -2.2149  0.9555  0.6471
 3838TIP3    H233006   0.466   1.571  11.104 -2.1886 -1.1491 -0.9691
 3839TIP3   OH233007   2.327   3.421  11.739  0.7781  0.2232  0.2097
 3839TIP3    H133008   2.368   3.372  11.668  1.5270  0.8691  0.1911
 3839TIP3    H233009   2.354   3.375  11.818  1.4935  0.6159  0.1945
 3840TIP3   OH233010   2.771   6.279  13.760  0.0828  0.4921 -0.0764
 3840TIP3    H133011   2.781   6.251  13.668  1.5890 -1.1796  0.5601
 3840TIP3    H233012   2.676   6.285  13.772 -0.1529  0.3695 -1.6474
 3841TIP3   OH233013   4.737   2.409  13.630 -0.4600 -0.1921  0.3415
 3841TIP3    H133014   4.773   2.383  13.715 -0.1490 -0.2368  0.1981
 3841TIP3    H233015   4.811   2.401  13.569  0.6596  4.4412  0.9035
 3842TIP3   OH233016   4.960   0.337  15.606 -0.9384 -0.3366 -0.0249
 3842TIP3    H133017   4.869   0.350  15.579 -0.8142  0.8453  0.1315
 3842TIP3    H233018   4.958   0.255  15.656 -1.5159 -1.5180 -1.9031
 3843TIP3   OH233019   4.119   4.817  11.119 -0.1859  0.1583  0.3109
 3843TIP3    H133020   4.199   4.869  11.118  0.3067 -0.5942  0.3514
 3843TIP3    H233021   4.118   4.771  11.035 -0.5565  0.1398  0.3217
 3844TIP3   OH233022   5.067   4.258  14.107 -0.0510 -0.2910  0.3335
 3844TIP3    H133023   5.050   4.230  14.018 -0.9934  1.8256 -0.1927
 3844TIP3    H233024   5.025   4.193  14.162  0.3177 -1.4697 -0.7597
 3845TIP3   OH233025   5.972   0.101  14.913 -0.4427  1.0650 -0.4283
 3845TIP3    H133026   5.979   0.129  14.822  1.8484  1.3035 -0.2176
 3845TIP3    H233027   5.974   0.005  14.909  2.0261  1.0705 -0.5371
 3846TIP3   OH233028   0.222   5.114   0.799  0.0561  0.1271 -0.9161
 3846TIP3    H133029   0.315   5.125   0.816 -1.0057  2.9199  4.2421
 3846TIP3    H233030   0.204   5.023   0.822  0.7440  0.9005  3.2063
 3847TIP3   OH233031   6.014   6.972  13.192  0.5162 -0.0917 -0.1309
 3847TIP3    H133032   6.090   7.025  13.170  1.1424 -0.6241  0.6848
 3847TIP3    H233033   6.050   6.885  13.212 -0.3564 -0.4909 -0.2303
 3848TIP3   OH233034   0.178   1.529   2.226 -0.4002  0.2077 -0.1944
 3848TIP3    H133035   0.153   1.606   2.174  0.8118  0.7416  0.0036
 3848TIP3    H233036   0.096   1.499   2.266 -0.9796  1.0338 -0.7610
 3849TIP3   OH233037   5.194   4.418  14.756  0.3576  0.2558 -0.1752
 3849TIP3    H133038   5.183   4.330  14.792  2.3350 -0.2317 -0.6533
 3849TIP3    H233039   5.111   4.438  14.713 -0.8807 -0.4762  1.8044
 3850TIP3   OH233040   3.928   1.686  11.371 -0.3251  0.2782  0.0006
 3850TIP3    H133041   3.964   1.743  11.438 -1.4916  1.6750 -0.5206
 3850TIP3    H233042   3.964   1.719  11.289 -0.3786 -0.2437 -0.2412
 3851TIP3   OH233043   2.331   5.355   9.908  0.3733  0.4033 -0.1222
 3851TIP3    H133044   2.379   5.402   9.839  2.9024  0.1373  1.3790
 3851TIP3    H233045   2.263   5.307   9.862  2.6191 -0.5376 -2.5819
 3852TIP3   OH233046   3.237   3.802  11.087  0.0831 -0.4589  0.1719
 3852TIP3    H133047   3.284   3.719  11.074 -0.5167 -0.7130 -0.4272
 3852TIP3    H233048   3.255   3.826  11.178 -0.8638 -1.9840  0.7914
 3853TIP3   OH233049   6.382   2.457  10.612  0.3453 -0.2987  0.1354
 3853TIP3    H133050   6.472   2.486  10.596 -0.1269  0.2097 -1.7629
 3853TIP3    H233051   6.391   2.382  10.671  2.1056 -1.0690 -1.0826
 3854TIP3   OH233052   5.681   2.404  10.027 -0.3283  0.0765 -0.9365
 3854TIP3    H133053   5.588   2.388  10.015 -0.5968 -0.3013  1.4471
 3854TIP3    H233054   5.698   2.383  10.119  2.0502  0.3933 -1.2619
 3855TIP3   OH233055   4.702   6.739  13.985 -0.0065 -0.2489 -0.2348
 3855TIP3    H133056   4.705   6.695  14.070 -1.7651  0.7727  0.3570
 3855TIP3    H233057   4.682   6.669  13.923  1.3079 -1.0026  0.1501
 3856TIP3   OH233058   2.349   5.321  13.965  0.1612  0.1740  0.5147
 3856TIP3    H133059   2.396   5.401  13.990  1.3687 -0.7247  1.1365
 3856TIP3    H233060   2.411   5.272  13.911 -1.2635  0.5510 -1.5396
 3857TIP3   OH233061   0.085   7.161   9.840  0.0579 -0.0445  0.2339
 3857TIP3    H133062   0.005   7.199   9.878  0.6960  1.4413  0.1333
 3857TIP3    H233063   0.153   7.226   9.859  0.9953 -0.7321 -0.7609
 3858TIP3   OH233064   6.234   5.817  13.394 -0.0263  0.2795 -0.1389
 3858TIP3    H133065   6.308   5.777  13.441  1.0803  1.2943 -0.9814
 3858TIP3    H233066   6.204   5.748  13.335  1.3267  0.3949 -0.9845
 3859TIP3   OH233067   2.912   5.189  12.929 -0.8390  0.0660  0.3116
 3859TIP3    H133068   2.920   5.237  13.011  0.2591 -0.8315  0.7399
 3859TIP3    H233069   2.824   5.150  12.933 -0.9915  0.4538  0.8131
 3860TIP3   OH233070   1.412   6.638  13.806  0.6757 -0.2494 -0.1071
 3860TIP3    H133071   1.346   6.569  13.813  1.7520 -1.6564 -2.8485
 3860TIP3    H233072   1.494   6.595  13.827  1.1622  0.5650 -0.3185
 3861TIP3   OH233073   6.546   5.081  10.408  0.2080 -0.3829  0.1875
 3861TIP3    H133074   6.558   5.107  10.499  0.4481  0.4771 -0.0898
 3861TIP3    H233075   6.453   5.095  10.391  0.5728  1.4335 -0.3189
 3862TIP3   OH233076   0.019   0.726  12.830  0.3118  0.0163  0.2280
 3862TIP3    H133077  -0.029   0.809  12.830  0.4701  0.1454 -1.8251
 3862TIP3    H233078   0.110   0.750  12.847 -0.2676 -0.2151  4.0069
 3863TIP3   OH233079   3.438   5.848  13.320 -0.5092  0.2718 -0.1899
 3863TIP3    H133080   3.396   5.766  13.296  0.2520 -0.4803  0.9903
 3863TIP3    H233081   3.372   5.916  13.302 -1.2468 -0.6270 -0.8737
 3864TIP3   OH233082   0.156   0.862  11.243  0.6721  0.1686  0.5270
 3864TIP3    H133083   0.175   0.770  11.221 -0.0229  0.0272  0.5211
 3864TIP3    H233084   0.062   0.870  11.232  0.4502  0.3690  2.4306
 3865TIP3   OH233085   1.907   0.047  11.445 -0.4908  0.4168 -0.0050
 3865TIP3    H133086   1.936  -0.038  11.479 -0.2979  0.6071  0.3067
 3865TIP3    H233087   1.887   0.098  11.523 -2.6098 -0.0413 -0.2130
 3866TIP3   OH233088   1.413   0.422   9.612  0.3340  0.3316  0.0682
 3866TIP3    H133089   1.343   0.426   9.677  1.3611  0.5680  1.1912
 3866TIP3    H233090   1.425   0.328   9.595 -1.9372  0.3837 -2.0315
 3867TIP3   OH233091   0.595   2.772  12.252 -0.0611 -0.1866  0.2660
 3867TIP3    H133092   0.605   2.860  12.214  0.5031 -0.9287 -1.3303
 3867TIP3    H233093   0.661   2.768  12.320  0.9754  0.0646 -0.7134
 3868TIP3   OH233094   1.687   4.289  11.575 -0.0882  0.1881  0.0720
 3868TIP3    H133095   1.665   4.348  11.503  0.2607 -0.3274 -0.4706
 3868TIP3    H233096   1.696   4.203  11.533 -0.1206 -0.1591  0.7697
 3869TIP3   OH233097   0.205   2.509  14.881 -0.0663 -0.2543  0.3794
 3869TIP3    H133098   0.294   2.481  14.863 -0.9159 -2.6963 -0.1851
 3869TIP3    H233099   0.153   2.477  14.807 -1.2877  1.8826  0.2649
 3870TIP3   OH233100   3.683   2.703   3.063  0.0395 -0.2476  0.3543
 3870TIP3    H133101   3.729   2.778   3.101  0.2998 -0.4603  0.4583
 3870TIP3    H233102   3.612   2.685   3.123 -1.2092  1.1495 -0.6626
 3871TIP3   OH233103   4.352   0.660  12.169  0.3369 -0.1197  0.6655
 3871TIP3    H133104   4.322   0.615  12.090  0.4738  0.6651  0.1576
 3871TIP3    H233105   4.425   0.608  12.201 -0.4061 -1.0402  0.8826
 3872TIP3   OH233106   6.496   4.764   0.191  0.0251 -0.4965 -0.1469
 3872TIP3    H133107   6.445   4.835   0.231  0.9764 -0.0099  0.2224
 3872TIP3    H233108   6.465   4.760   0.101  2.3362  2.6911 -1.1570
 3873TIP3   OH233109   1.193   6.131  10.342  0.1751  0.1264  0.4551
 3873TIP3    H133110   1.163   6.206  10.394 -2.0786 -0.0273 -0.5650
 3873TIP3    H233111   1.115   6.078  10.329  1.3829 -1.4958 -0.3695
 3874TIP3   OH233112   6.557   1.529   1.006 -0.3126  0.5844  0.3863
 3874TIP3    H133113   6.628   1.539   0.944 -0.0904  0.0500  0.5562
 3874TIP3    H233114   6.597   1.488   1.083 -0.5228  1.4934  0.9886
 3875TIP3   OH233115   0.849   0.872  10.895  0.2542 -0.2243  0.3448
 3875TIP3    H133116   0.846   0.968  10.902 -0.2402 -0.2405  0.3230
 3875TIP3    H233117   0.943   0.852  10.890  0.3871  0.2165  0.9924
 3876TIP3   OH233118   0.440   1.269  10.734  0.3197 -0.1609  0.0257
 3876TIP3    H133119   0.376   1.237  10.798  0.0322 -0.9098 -0.6186
 3876TIP3    H233120   0.416   1.224  10.653  0.5142  0.9781 -0.6722
 3877TIP3   OH233121   0.167   5.776  13.065  0.6902 -0.1899  0.1992
 3877TIP3    H133122   0.200   5.706  13.122 -0.8625  1.0418  2.6808
 3877TIP3    H233123   0.157   5.734  12.980  1.3136 -2.5822  1.2578
 3878TIP3   OH233124   6.874   1.621  14.629  0.5387  0.5166 -0.4813
 3878TIP3    H133125   6.793   1.621  14.681  0.8701 -0.4367  0.0583
 3878TIP3    H233126   6.844   1.614  14.538 -0.0160  1.1351 -0.3485
 3879TIP3   OH233127   1.371   1.341  11.187 -0.0002 -0.0880 -0.0395
 3879TIP3    H133128   1.365   1.289  11.107  0.1584 -0.5572  0.2520
 3879TIP3    H233129   1.355   1.278  11.258  1.3942  0.0180  0.3819
 3880TIP3   OH233130   5.287   4.028  15.435  0.1526 -0.6259  0.5260
 3880TIP3    H133131   5.221   3.963  15.414  0.8705 -1.5648  1.1555
 3880TIP3    H233132   5.371   3.983  15.424  0.7712  0.9213 -1.5475
 3881TIP3   OH233133   6.097   6.592  11.045  0.4755 -0.3453 -0.6893
 3881TIP3    H133134   6.035   6.540  10.994 -1.3785  0.3494  0.7709
 3881TIP3    H233135   6.153   6.527  11.088  0.8893 -0.9750 -2.1514
 3882TIP3   OH233136   0.498   4.422   1.311  0.0360  0.2919  0.0808
 3882TIP3    H133137   0.583   4.398   1.275 -0.6001 -1.3454 -0.3965
 3882TIP3    H233138   0.486   4.363   1.385 -0.9332  0.0904 -0.2245
 3883TIP3   OH233139   1.084   3.914  10.996 -0.2571  0.3165 -0.3960
 3883TIP3    H133140   1.167   3.868  11.007 -0.7548 -0.4468  0.2052
 3883TIP3    H233141   1.106   3.992  10.945  1.2536  1.4663  1.9712
 3884TIP3   OH233142   0.678   0.396  10.595 -0.2914 -0.0539 -0.1328
 3884TIP3    H133143   0.602   0.356  10.637  0.1919  2.1852  2.9694
 3884TIP3    H233144   0.645   0.478  10.558  0.2849  0.2009 -0.0827
 3885TIP3   OH233145   3.387   0.493  14.692  0.0844 -0.0214  0.2622
 3885TIP3    H133146   3.459   0.556  14.680  0.2101 -0.0969  0.6013
 3885TIP3    H233147   3.398   0.429  14.622 -0.4579  0.7233 -0.5112
 3886TIP3   OH233148   2.119   6.823  11.378  0.6214 -0.1026 -0.0792
 3886TIP3    H133149   2.175   6.880  11.432  1.4772 -1.9479  1.0363
 3886TIP3    H233150   2.178   6.786  11.313  0.5146 -1.2472  0.4526
 3887TIP3   OH233151   4.762   4.330  12.117  0.6670 -0.2396 -0.1698
 3887TIP3    H133152   4.738   4.335  12.024 -0.6856  1.4740  0.2338
 3887TIP3    H233153   4.768   4.421  12.145  1.0888 -0.7368  1.4252
 3888TIP3   OH233154   0.220   0.395  10.867  0.5452  0.1400 -0.0108
 3888TIP3    H133155   0.185   0.308  10.851 -0.6030  0.7572 -0.9710
 3888TIP3    H233156   0.168   0.453  10.811 -0.1377  1.7140  2.1496
 3889TIP3   OH233157   3.684   6.083  12.584  0.0011 -0.4213 -0.1300
 3889TIP3    H133158   3.711   5.998  12.550 -1.4940 -0.6637 -0.7290
 3889TIP3    H233159   3.627   6.062  12.658 -1.0123  0.0477 -0.7738
 3890TIP3   OH233160   6.051   6.978   1.806  0.3223 -0.0135  0.7937
 3890TIP3    H133161   6.069   7.058   1.856  0.4476  0.4836 -0.0391
 3890TIP3    H233162   5.961   6.955   1.830 -0.0704  0.9452  0.2676
 3891TIP3   OH233163   5.999   0.378  12.333  0.0479 -0.4181 -0.3321
 3891TIP3    H133164   5.927   0.314  12.330 -1.2751  1.0650 -0.6627
 3891TIP3    H233165   6.075   0.329  12.299 -0.1458 -2.7769  2.4187
 3892TIP3   OH233166   0.636   2.232  12.333 -0.2980 -0.1038 -0.5196
 3892TIP3    H133167   0.627   2.178  12.255  1.8727  0.0155 -0.8829
 3892TIP3    H233168   0.546   2.251  12.360 -1.0945 -3.8178 -0.3942
 3893TIP3   OH233169   6.905   1.323  10.563 -0.3465 -0.5555 -1.0326
 3893TIP3    H133170   6.847   1.248  10.580 -0.9271  0.3103  1.0264
 3893TIP3    H233171   6.993   1.285  10.560 -0.4747 -1.1649  1.5128
 3894TIP3   OH233172   2.620   6.321  10.032  0.2344  0.2362 -0.0593
 3894TIP3    H133173   2.687   6.261  10.066 -0.8099 -0.6764  0.3976
 3894TIP3    H233174   2.608   6.293   9.941  1.0161  0.8963 -0.3762
 3895TIP3   OH233175   4.988   6.787  13.862  0.1582 -0.5959  0.1498
 3895TIP3    H133176   4.932   6.733  13.917 -1.4180 -1.0839 -1.8847
 3895TIP3    H233177   5.077   6.760  13.884 -0.4444 -0.9751  2.2278
 3896TIP3   OH233178   0.386   2.784  13.619  0.2767  0.2200  0.5347
 3896TIP3    H133179   0.461   2.730  13.594  0.1240  0.3388 -0.1966
 3896TIP3    H233180   0.384   2.854  13.554  0.3795  1.0213  1.3863
 3897TIP3   OH233181   0.970   4.590  13.642  0.7998 -0.5428  0.1674
 3897TIP3    H133182   1.006   4.528  13.579 -0.2574  1.5512 -2.5605
 3897TIP3    H233183   0.879   4.602  13.615  1.0137  2.2889  0.5578
 3898TIP3   OH233184   7.074   5.896  13.334 -0.3978 -0.5370  0.0233
 3898TIP3    H133185   7.002   5.927  13.388 -1.4631 -0.0620 -1.6197
 3898TIP3    H233186   7.151   5.902  13.390 -0.8772  3.2853  0.4158
 3899TIP3   OH233187   6.377   0.867  10.991 -0.1048 -0.3829  0.5090
 3899TIP3    H133188   6.406   0.939  11.048  2.1930 -0.9761  0.1369
 3899TIP3    H233189   6.398   0.897  10.903 -1.3321 -0.5241  0.1684
 3900TIP3   OH233190   6.859   5.680  11.520  0.4675 -0.0640  0.1307
 3900TIP3    H133191   6.810   5.762  11.529  0.4036 -0.1494  0.5983
 3900TIP3    H233192   6.792   5.612  11.531  0.5876 -0.1783  0.1492
 3901TIP3   OH233193   1.031   2.789  15.595  0.2062  0.4347 -0.0681
 3901TIP3    H133194   1.031   2.866  15.537  1.9111  0.1583 -0.4635
 3901TIP3    H233195   1.091   2.728  15.553 -1.5317 -1.3528 -0.0240
 3902TIP3   OH233196   3.811   0.165  14.476 -0.0432  0.3121  0.0566
 3902TIP3    H133197   3.759   0.118  14.540 -0.9829  1.1115 -0.0982
 3902TIP3    H233198   3.883   0.202  14.527 -0.7205  0.8514  0.6468
 3903TIP3   OH233199   4.626   0.247  11.760 -0.4678  0.2846  0.5017
 3903TIP3    H133200   4.573   0.229  11.682  0.9108 -1.4448 -0.0765
 3903TIP3    H233201   4.624   0.165  11.810 -1.5215  1.4409  2.4179
 3904TIP3   OH233202   4.501   1.026  10.760  0.1742 -0.6897  0.7715
 3904TIP3    H133203   4.552   0.953  10.723 -0.7554 -1.5886  1.2411
 3904TIP3    H233204   4.567   1.085  10.796  0.9434 -1.3102  0.4060
 3905TIP3   OH233205   5.956   2.456  10.588  0.2884 -0.2117  0.3312
 3905TIP3    H133206   5.874   2.427  10.628 -1.5203  2.0325 -1.5489
 3905TIP3    H233207   5.977   2.539  10.631 -0.8757  1.4596 -2.1547
 3906TIP3   OH233208   5.136   0.663  12.415  0.3576 -0.4965 -0.3525
 3906TIP3    H133209   5.202   0.604  12.379  0.7370 -0.7259  0.7067
 3906TIP3    H233210   5.057   0.610  12.421  0.1621 -0.3197 -1.2926
 3907TIP3   OH233211   1.781   6.860  13.623 -0.1166 -0.1173 -0.2318
 3907TIP3    H133212   1.853   6.814  13.666 -1.3318 -1.1733  0.7018
 3907TIP3    H233213   1.728   6.791  13.585  0.1432  0.7312 -2.2014
 3908TIP3   OH233214   1.457   0.533  12.880  0.4491 -0.4152  0.2003
 3908TIP3    H133215   1.514   0.609  12.895 -0.5375  0.5522 -0.8466
 3908TIP3    H233216   1.368   0.566  12.895 -0.0118 -1.2820 -0.5432
 3909TIP3   OH233217   1.612   6.402  12.375 -0.4829  0.2080  0.3719
 3909TIP3    H133218   1.686   6.459  12.393 -0.1755  0.0487 -0.3525
 3909TIP3    H233219   1.635   6.358  12.293  0.1791 -2.4666  1.9575
 3910TIP3   OH233220   0.366   1.049  13.037 -0.4506  0.1024  0.2399
 3910TIP3    H133221   0.294   1.112  13.051  0.1668  0.9901 -0.4894
 3910TIP3    H233222   0.399   1.031  13.125 -1.2295  0.0931  0.5371
 3911TIP3   OH233223   0.089   0.508  12.486  0.1383  0.5148  0.1465
 3911TIP3    H133224   0.002   0.531  12.453  0.8625  0.6521 -1.7475
 3911TIP3    H233225   0.073   0.448  12.558 -1.4656 -1.7131 -1.9937
 3912TIP3   OH233226   1.887   2.509  10.528  0.3217  0.1437  0.3023
 3912TIP3    H133227   1.819   2.536  10.590 -0.8143 -1.6903 -0.0899
 3912TIP3    H233228   1.844   2.513  10.442  1.3534  0.9776 -0.1929
 3913TIP3   OH233229   5.001   5.327  11.175 -0.0237  0.0928  0.1578
 3913TIP3    H133230   4.982   5.264  11.105 -1.5740 -0.2579  0.8877
 3913TIP3    H233231   4.955   5.293  11.252 -0.0434  1.5843  0.8252
 3914TIP3   OH233232   5.408   6.414  14.154 -0.3474 -0.0560  0.6169
 3914TIP3    H133233   5.373   6.387  14.069 -0.3672  3.9366 -0.7633
 3914TIP3    H233234   5.332   6.419  14.211 -0.8176  0.3287 -0.0362
 3915TIP3   OH233235   6.364   5.268  13.870 -0.4661 -0.1304  0.0639
 3915TIP3    H133236   6.353   5.225  13.955  0.0847 -0.2346  0.0814
 3915TIP3    H233237   6.390   5.357  13.891 -0.2404 -0.1814  0.0057
 3916TIP3   OH233238   5.407   2.153  10.988  0.1360  0.4621 -0.1515
 3916TIP3    H133239   5.410   2.099  11.067 -1.8572 -0.1610 -0.4668
 3916TIP3    H233240   5.343   2.221  11.008 -0.3208  0.3500 -1.1871
 3917TIP3   OH233241   6.464   0.006   9.949 -0.5493 -0.6512  0.0172
 3917TIP3    H133242   6.514   0.073   9.995 -0.8809 -1.1846  1.1501
 3917TIP3    H233243   6.521  -0.022   9.877  0.3534 -0.5199  0.6824
 3918TIP3   OH233244   1.061   6.771   0.146  0.6356 -0.0269 -0.1539
 3918TIP3    H133245   1.011   6.845   0.183 -0.9360 -0.4295 -1.4245
 3918TIP3    H233246   1.126   6.812   0.090  0.6605  0.4464  0.2097
 3919TIP3   OH233247   4.292   5.870  15.264  0.2390 -0.2177  0.0729
 3919TIP3    H133248   4.335   5.940  15.215  0.8603 -0.4017  0.3476
 3919TIP3    H233249   4.226   5.836  15.204 -0.0935  0.6265 -0.0487
 3920TIP3   OH233250   4.620   2.672   9.790 -0.0046 -0.8513  0.1139
 3920TIP3    H133251   4.671   2.606   9.743  0.5812 -0.3271  0.0119
 3920TIP3    H233252   4.681   2.744   9.804 -0.8665  0.0280 -0.5330
 3921TIP3   OH233253   0.064   0.102  12.951 -0.0839 -0.3995 -0.7979
 3921TIP3    H133254  -0.029   0.126  12.947 -0.6539 -2.4328 -0.2850
 3921TIP3    H233255   0.078   0.046  12.875  1.3984  2.0459 -2.3823
 3922TIP3   OH233256   0.833   0.957  11.496 -0.1200 -0.2230  0.2224
 3922TIP3    H133257   0.793   0.872  11.477 -0.1344 -0.3277  0.6985
 3922TIP3    H233258   0.773   1.021  11.458 -0.1429 -0.4252 -0.0821
 3923TIP3   OH233259   4.473   0.737  14.756 -0.0578  0.0378 -0.2039
 3923TIP3    H133260   4.421   0.737  14.836 -0.7226 -2.8090 -0.5739
 3923TIP3    H233261   4.564   0.732  14.787 -0.2815 -0.5033  0.3719
 3924TIP3   OH233262   5.460   2.616  12.939 -0.1408 -0.5441  0.3781
 3924TIP3    H133263   5.365   2.626  12.937 -0.0193  0.7804  0.7500
 3924TIP3    H233264   5.485   2.600  12.848 -0.2035  4.3773 -0.6283
 3925TIP3   OH233265   6.292   6.428  11.639  0.1697 -0.1072 -0.1432
 3925TIP3    H133266   6.362   6.393  11.583 -0.2133 -1.2125  0.0691
 3925TIP3    H233267   6.314   6.521  11.648 -0.3911  0.3696 -3.0741
 3926TIP3   OH233268   2.862   4.202  11.645 -0.1688 -0.1543 -0.6931
 3926TIP3    H133269   2.895   4.272  11.588  1.1497  2.3609  2.9854
 3926TIP3    H233270   2.776   4.233  11.673  0.2980 -0.1308  0.7292
 3927TIP3   OH233271   5.778   1.990   1.788  0.1861  0.3617  0.3364
 3927TIP3    H133272   5.799   2.083   1.797 -0.7111  0.4377  1.7232
 3927TIP3    H233273   5.818   1.950   1.865 -1.6422 -0.0149  1.1037
 3928TIP3   OH233274   2.714   2.573   0.463 -0.0010  0.0166 -0.2816
 3928TIP3    H133275   2.731   2.523   0.542 -3.1965  0.5696  0.8137
 3928TIP3    H233276   2.673   2.654   0.493 -2.5043 -0.3374 -2.5121
 3929TIP3   OH233277   2.433   5.952  13.519 -0.0299  0.5468 -0.6440
 3929TIP3    H133278   2.390   5.975  13.602 -1.3190 -1.7337 -0.6249
 3929TIP3    H233279   2.524   5.939  13.544  0.1782  2.6989 -0.1503
 3930TIP3   OH233280   0.728   6.927  14.592  0.5874  0.0513  0.4788
 3930TIP3    H133281   0.798   6.932  14.528 -2.0968 -2.0538 -2.8046
 3930TIP3    H233282   0.695   7.017  14.599 -0.6580 -0.0383 -3.0826
 3931TIP3   OH233283   7.138   1.189  10.582  0.1820  0.6687 -0.0714
 3931TIP3    H133284   7.164   1.097  10.583 -0.5939  0.4408 -0.2507
 3931TIP3    H233285   7.215   1.236  10.613  0.4997 -0.0634  0.2693
 3932TIP3   OH233286   3.288   1.915  11.861  0.5024 -0.0385  0.7784
 3932TIP3    H133287   3.241   1.836  11.835  0.5769 -0.3995  1.7617
 3932TIP3    H233288   3.221   1.984  11.856  1.0917  0.4013 -2.9202
 3933TIP3   OH233289   4.165   4.202  11.861  0.4604 -0.1509 -0.1398
 3933TIP3    H133290   4.073   4.228  11.861  0.3169 -0.6683  0.0517
 3933TIP3    H233291   4.201   4.242  11.940  0.9073  1.8645 -1.3315
 3934TIP3   OH233292   2.242   4.849  13.354  0.0020  0.0397  0.1412
 3934TIP3    H133293   2.152   4.877  13.372 -0.1768 -1.1565  1.1592
 3934TIP3    H233294   2.251   4.859  13.259 -0.6294  1.8371  0.2466
 3935TIP3   OH233295   6.842   6.396  10.913  0.5940 -0.5689  0.7795
 3935TIP3    H133296   6.847   6.484  10.950  1.1160 -0.6932  1.0012
 3935TIP3    H233297   6.933   6.367  10.906  0.5168 -0.4908 -0.7368
 3936TIP3   OH233298   5.988   1.145  13.702  0.1264 -0.5806 -0.2859
 3936TIP3    H133299   5.919   1.099  13.655  1.6397 -1.3804 -1.7720
 3936TIP3    H233300   6.043   1.183  13.634 -1.5063  4.1888  0.8923
 3937TIP3   OH233301   4.483   1.964  10.591 -0.4564  0.6298  0.0217
 3937TIP3    H133302   4.486   1.952  10.496  0.1056  0.2555  0.0794
 3937TIP3    H233303   4.476   2.058  10.604 -0.8396  0.6590 -0.3962
 3938TIP3   OH233304   1.376   4.683  11.180  0.0109 -0.1982 -0.6462
 3938TIP3    H133305   1.281   4.680  11.173  0.0270 -2.5453 -0.1422
 3938TIP3    H233306   1.400   4.769  11.144 -2.4298  1.2750  1.0487
 3939TIP3   OH233307   1.491   5.648  10.683 -0.1303 -0.0528  0.1363
 3939TIP3    H133308   1.484   5.653  10.779  0.3397  1.0616  0.1165
 3939TIP3    H233309   1.543   5.724  10.659  1.3711 -1.3483 -0.8352
 3940TIP3   OH233310   6.862   6.374   9.614  0.3323 -0.0615  0.4581
 3940TIP3    H133311   6.936   6.372   9.553  0.0795  1.7667  0.0320
 3940TIP3    H233312   6.785   6.385   9.557 -0.0946 -0.2896  0.9902
 3941TIP3   OH233313   5.382   0.244  11.539  0.2123  0.0286  0.2912
 3941TIP3    H133314   5.299   0.220  11.581 -0.6189  1.0231 -0.7519
 3941TIP3    H233315   5.449   0.204  11.594 -1.0452 -2.8817 -0.2229
 3942TIP3   OH233316   5.194   0.753  10.026  0.4808  0.1899 -0.0847
 3942TIP3    H133317   5.099   0.752  10.039  0.5760 -0.8486  0.5449
 3942TIP3    H233318   5.212   0.678   9.970  1.0697 -0.3459  0.8129
 3943TIP3   OH233319   0.219   0.773  12.040 -0.0571  0.0009 -0.6186
 3943TIP3    H133320   0.263   0.830  11.977 -1.9944  1.2997 -0.8614
 3943TIP3    H233321   0.213   0.826  12.119  0.4465 -0.8390 -0.0154
 3944TIP3   OH233322   5.485   1.835  13.699  0.0337 -0.3818  0.4010
 3944TIP3    H133323   5.400   1.821  13.740  1.0691  0.2031  2.8649
 3944TIP3    H233324   5.507   1.751  13.659 -1.8154 -0.4439 -0.5177
 3945TIP3   OH233325   1.205   0.566  10.876  0.0900 -0.4049 -0.1761
 3945TIP3    H133326   1.209   0.486  10.929  0.5934  0.4291  1.0683
 3945TIP3    H233327   1.282   0.616  10.903 -0.6040  0.8215 -0.4254
 3946TIP3   OH233328   6.686   2.973  14.587 -0.1438 -0.5426 -0.4589
 3946TIP3    H133329   6.763   2.922  14.562  0.7146  0.7867 -0.5280
 3946TIP3    H233330   6.692   3.054  14.537 -0.9056  0.1274  0.5027
 3947TIP3   OH233331   5.627   1.106   1.628 -0.3368 -0.3951  0.0277
 3947TIP3    H133332   5.668   1.072   1.549 -0.2827 -0.9202  0.2830
 3947TIP3    H233333   5.684   1.178   1.656 -1.2196  0.8513 -1.3154
 3948TIP3   OH233334   0.720   0.850   9.775 -0.3503  0.0667  0.4041
 3948TIP3    H133335   0.649   0.860   9.711  0.1436 -2.0325 -0.4840
 3948TIP3    H233336   0.797   0.830   9.722  0.5078  0.3767  1.5251
 3949TIP3   OH233337   0.744   2.752  13.401  0.1742  0.6338 -0.0999
 3949TIP3    H133338   0.829   2.720  13.431  0.9220  1.9368 -0.8009
 3949TIP3    H233339   0.746   2.740  13.306  0.0938  1.9033 -0.2601
 3950TIP3   OH233340   6.723   3.435  11.495  0.2443 -0.1458  0.3351
 3950TIP3    H133341   6.752   3.459  11.407 -0.1060  3.8072  1.2186
 3950TIP3    H233342   6.795   3.460  11.552  0.2283 -2.1536  1.2963
 3951TIP3   OH233343   6.038   2.006  10.174 -0.8508  1.0294  0.0317
 3951TIP3    H133344   6.111   1.969  10.224 -2.1684  1.3498  2.2887
 3951TIP3    H233345   6.073   2.018  10.086  1.5804  0.4604  0.8642
 3952TIP3   OH233346   0.196   6.075  12.542 -0.0412  0.2158  0.4061
 3952TIP3    H133347   0.266   6.124  12.497  0.9661 -0.9238  0.7188
 3952TIP3    H233348   0.188   6.118  12.627 -2.5427  2.9383 -1.0909
 3953TIP3   OH233349   4.969   2.605  11.053  0.2297 -0.3230  0.3745
 3953TIP3    H133350   4.992   2.673  11.117  1.2114  0.5912 -0.9240
 3953TIP3    H233351   4.929   2.536  11.105 -2.0671  1.8378  1.5611
 3954TIP3   OH233352   0.126   1.885  12.421 -0.3337 -0.1694 -0.4956
 3954TIP3    H133353   0.107   1.793  12.439  0.1283 -0.3921 -1.1410
 3954TIP3    H233354   0.125   1.892  12.326 -0.9882  0.6294 -0.4427
 3955TIP3   OH233355   6.563   6.597  11.978 -0.3648 -0.2083  0.7307
 3955TIP3    H133356   6.503   6.631  11.911  1.3576  2.1908  0.3574
 3955TIP3    H233357   6.616   6.531  11.932  1.2168  1.8503 -0.4726
 3956TIP3   OH233358   4.982   0.886   2.205  0.4689  0.4054  0.5500
 3956TIP3    H133359   4.956   0.941   2.132 -0.3028  0.5267  0.9172
 3956TIP3    H233360   5.078   0.892   2.206  0.5587 -0.4093 -1.0765
 3957TIP3   OH233361   3.586   2.174  12.367 -0.5263  0.8240 -0.0004
 3957TIP3    H133362   3.549   2.203  12.284 -2.2093 -0.9877  0.0814
 3957TIP3    H233363   3.602   2.255  12.416 -0.4195  1.8444 -1.7014
 3958TIP3   OH233364   0.333   1.691  11.532 -0.7635  0.0142 -0.1730
 3958TIP3    H133365   0.369   1.743  11.603 -0.8869 -1.0063  0.6462
 3958TIP3    H233366   0.404   1.632  11.506 -1.0603 -0.3480 -0.1737
 3959TIP3   OH233367   5.060   7.022  13.211  0.3855 -0.3568  0.2257
 3959TIP3    H133368   4.999   7.040  13.282  0.2463 -2.3161  0.6309
 3959TIP3    H233369   5.006   7.020  13.132  0.5471  1.8634  0.0388
 3960TIP3   OH233370   0.819   0.151  12.574  0.4068  0.3956  0.0789
 3960TIP3    H133371   0.777   0.182  12.655  1.3044  0.9545  0.3464
 3960TIP3    H233372   0.784   0.208  12.506 -0.0999  0.1419  0.1267
 3961TIP3   OH233373   4.775   5.881  13.495 -0.3966  0.1115 -0.1257
 3961TIP3    H133374   4.788   5.786  13.489 -2.3624 -0.1297 -1.1330
 3961TIP3    H233375   4.727   5.903  13.415 -1.3359  1.6999  0.8525
 3962TIP3   OH233376   4.083   5.153  11.799  0.3829 -0.2389  0.1833
 3962TIP3    H133377   4.008   5.182  11.851  0.1142 -1.6827  0.6501
 3962TIP3    H233378   4.090   5.059  11.818  0.1395 -0.8599 -2.5972
 3963TIP3   OH233379   1.537   1.039  12.901 -0.0402  0.0304  0.5536
 3963TIP3    H133380   1.564   1.125  12.934 -0.3367  0.7998 -1.1385
 3963TIP3    H233381   1.555   1.043  12.807 -1.6888 -1.1281  0.1659
 3964TIP3   OH233382   5.401   6.040  11.986 -0.3236  0.0795  0.1651
 3964TIP3    H133383   5.401   5.959  11.935  2.4532 -0.0850  0.3325
 3964TIP3    H233384   5.490   6.046  12.022 -0.9119  2.4494  1.3497
 3965TIP3   OH233385   1.245   6.902  14.287  0.0206  0.4055 -0.8615
 3965TIP3    H133386   1.307   6.973  14.303 -1.7122  2.1842 -1.8365
 3965TIP3    H233387   1.262   6.876  14.196 -0.5351  0.8073 -1.0864
 3966TIP3   OH233388   6.860   0.984  11.431 -0.2431 -0.2213 -0.3901
 3966TIP3    H133389   6.863   1.053  11.365  1.6068  0.8345  0.7461
 3966TIP3    H233390   6.818   1.026  11.507 -0.2986 -0.7453 -0.1298
 3967TIP3   OH233391   6.798   3.701  12.080  0.3024  0.2759 -0.4597
 3967TIP3    H133392   6.718   3.693  12.133  1.6578  0.7779  1.7319
 3967TIP3    H233393   6.779   3.774  12.020 -1.5194 -0.7510 -1.1688
 3968TIP3   OH233394   2.295   1.603  13.761  0.0168  1.1960  0.4825
 3968TIP3    H133395   2.283   1.594  13.667  0.5196  0.6777  0.4593
 3968TIP3    H233396   2.313   1.696  13.775  1.8657  0.9701 -0.1827
 3969TIP3   OH233397   1.785   1.841   0.725 -0.1911  0.0682  0.1463
 3969TIP3    H133398   1.770   1.749   0.707  0.1126 -0.2612  1.5974
 3969TIP3    H233399   1.880   1.851   0.722 -0.0831 -0.1566  2.3613
 3970TIP3   OH233400   5.084   1.976  14.068 -0.2913  0.4354  0.6932
 3970TIP3    H133401   5.165   2.003  14.027 -1.0090  0.8161 -0.5076
 3970TIP3    H233402   5.018   1.984  13.999 -1.1695 -0.8281  1.3567
 3971TIP3   OH233403   6.957   6.241   9.840  0.0236  0.2453  0.1664
 3971TIP3    H133404   6.934   6.280   9.756 -0.1099  1.0987  0.5900
 3971TIP3    H233405   7.035   6.189   9.822 -1.9630 -2.3171 -1.1912
 3972TIP3   OH233406   5.693   4.261   0.189  0.1892  0.4149 -0.0493
 3972TIP3    H133407   5.681   4.299   0.276 -1.8578 -1.1804  0.3803
 3972TIP3    H233408   5.751   4.186   0.203  1.0246  0.9877 -0.3178
 3973TIP3   OH233409   0.691   2.499  12.476  0.5072  0.5058 -0.5975
 3973TIP3    H133410   0.735   2.585  12.476  1.2398  0.1421 -0.1530
 3973TIP3    H233411   0.741   2.447  12.413  1.5089 -0.3000  0.8453
 3974TIP3   OH233412   3.029   3.999  13.123  0.3241  0.4182  0.0306
 3974TIP3    H133413   3.117   4.000  13.162  0.5702  1.6300 -0.5416
 3974TIP3    H233414   3.009   3.906  13.113  1.7232  0.1302 -0.2112
 3975TIP3   OH233415   6.628   1.787  15.314  0.0931 -0.4297  0.3082
 3975TIP3    H133416   6.581   1.750  15.389  0.2732  0.3602  0.8170
 3975TIP3    H233417   6.589   1.873  15.302 -1.0835 -1.1807 -1.5522
 3976TIP3   OH233418   3.385   2.082  10.132 -0.8395 -0.1534 -0.2477
 3976TIP3    H133419   3.342   2.108  10.050  0.1098 -0.2692 -0.7811
 3976TIP3    H233420   3.383   1.987  10.131 -0.2012 -0.1693 -0.4786
 3977TIP3   OH233421   7.197   3.103  14.697 -0.1833 -0.3911  0.1948
 3977TIP3    H133422   7.196   3.160  14.621 -0.1602  0.2658  0.6827
 3977TIP3    H233423   7.286   3.110  14.731 -0.3979 -0.1252  0.7005
 3978TIP3   OH233424   5.595   6.718  13.617  0.1204 -0.3214  0.7488
 3978TIP3    H133425   5.589   6.808  13.585  1.9038 -0.3996  0.1668
 3978TIP3    H233426   5.616   6.728  13.710 -0.4289 -0.1464  0.8602
 3979TIP3   OH233427   0.222   7.012  11.769 -0.2173 -0.2199 -1.1046
 3979TIP3    H133428   0.265   7.095  11.788 -0.5347 -0.3710  0.3167
 3979TIP3    H233429   0.130   7.027  11.790  0.2264 -1.8668  2.2619
 3980TIP3   OH233430   0.677   0.432  13.309 -1.0193 -0.5932  0.0546
 3980TIP3    H133431   0.587   0.456  13.330 -0.8744 -1.2502  1.5076
 3980TIP3    H233432   0.670   0.346  13.267 -1.1731 -0.0143 -1.1288
 3981TIP3   OH233433   5.209   2.512  12.756 -0.1742 -0.2642  0.4970
 3981TIP3    H133434   5.147   2.566  12.706 -0.5604 -0.0378  1.2078
 3981TIP3    H233435   5.290   2.514  12.704 -0.6396 -0.2215 -0.2294
 3982TIP3   OH233436   0.708   4.428  14.870 -1.2485  0.1391 -0.2072
 3982TIP3    H133437   0.735   4.491  14.937  0.6667 -0.7795 -0.0807
 3982TIP3    H233438   0.724   4.474  14.787 -2.2048  0.7199 -0.0792
 3983TIP3   OH233439   4.970   5.530  13.129  0.1913  1.1209 -0.0054
 3983TIP3    H133440   4.901   5.507  13.068 -0.9707  2.4143  0.8027
 3983TIP3    H233441   4.963   5.465  13.199  1.4153 -0.2586 -1.1316
 3984TIP3   OH233442   5.209   4.626  10.081  0.5725 -0.2813  0.9421
 3984TIP3    H133443   5.250   4.625  10.167  0.6417  3.1837  1.0458
 3984TIP3    H233444   5.118   4.602  10.097  0.3240  1.3912  2.1717
 3985TIP3   OH233445   5.715   3.965  14.747 -0.1412  0.0668 -0.0772
 3985TIP3    H133446   5.809   3.983  14.752 -0.1116  0.1990 -0.9821
 3985TIP3    H233447   5.698   3.953  14.653 -1.0136 -0.0222  0.0888
 3986TIP3   OH233448   6.323   0.945  14.634 -0.4429 -0.4715 -0.1809
 3986TIP3    H133449   6.288   1.013  14.693 -1.0625 -1.1978  0.3019
 3986TIP3    H233450   6.352   0.993  14.557  0.1548  0.4752  0.6145
 3987TIP3   OH233451   6.916   2.464  11.873  0.7129  0.0420 -0.2937
 3987TIP3    H133452   6.824   2.448  11.856  0.8856 -0.3130 -0.9093
 3987TIP3    H233453   6.939   2.539  11.819  0.9432 -0.2796 -0.6503
 3988TIP3   OH233454   0.795   2.743  10.926 -0.0853 -0.3598  0.2079
 3988TIP3    H133455   0.728   2.767  10.990 -0.5004  0.0967 -0.3833
 3988TIP3    H233456   0.768   2.788  10.845  1.4149  0.5510  0.1883
 3989TIP3   OH233457   6.633   0.951   0.813  0.1368  0.2842  0.7979
 3989TIP3    H133458   6.636   0.995   0.728  2.8761  3.6097  2.4819
 3989TIP3    H233459   6.539   0.947   0.834 -0.4300  1.7835 -1.2078
 3990TIP3   OH233460   1.042   2.836   0.780  0.1960 -0.0962 -0.1009
 3990TIP3    H133461   1.060   2.840   0.874  1.5429  1.1556 -0.3991
 3990TIP3    H233462   1.127   2.855   0.739 -0.2688 -1.1266 -1.5723
 3991TIP3   OH233463   1.594   1.835  13.910 -0.3077  0.8782  0.9310
 3991TIP3    H133464   1.625   1.752  13.874 -2.1783  1.0988 -1.2678
 3991TIP3    H233465   1.674   1.881  13.937  0.9164 -0.5083 -0.2689
 3992TIP3   OH233466   0.387   6.357  11.582  0.3539 -0.6785 -0.1596
 3992TIP3    H133467   0.424   6.437  11.545  2.2425 -1.2245  0.4511
 3992TIP3    H233468   0.325   6.387  11.648 -2.5689  0.2913 -3.2182
 3993TIP3   OH233469   2.683   7.061  10.864  0.1134  0.1589 -0.0258
 3993TIP3    H133470   2.735   7.046  10.943 -0.7820 -0.3908  0.4602
 3993TIP3    H233471   2.720   7.000  10.799  0.9150  0.6839 -0.0801
 3994TIP3   OH233472   4.656   5.945  10.675 -0.3162 -0.4707  0.0271
 3994TIP3    H133473   4.679   6.026  10.720 -0.0364 -0.5726  0.0714
 3994TIP3    H233474   4.634   5.973  10.586  1.6435 -0.5446 -0.5130
 3995TIP3   OH233475   4.355   0.383  12.926  0.1556 -0.1783  0.4899
 3995TIP3    H133476   4.288   0.315  12.934  0.3286 -0.2970  0.9162
 3995TIP3    H233477   4.395   0.389  13.013  2.1733 -1.6276 -0.3117
 3996TIP3   OH233478   3.718   6.782  10.292 -0.1699  0.3311 -0.3110
 3996TIP3    H133479   3.711   6.715  10.225  0.2160  0.2811 -0.3030
 3996TIP3    H233480   3.736   6.863  10.243 -2.4999  0.7904 -0.4721
 3997TIP3   OH233481   5.649   2.235  10.860 -0.1516 -0.1490 -0.1621
 3997TIP3    H133482   5.564   2.213  10.898  0.0861 -1.1627 -0.2084
 3997TIP3    H233483   5.712   2.217  10.929  0.1596 -0.7814 -0.6079
 3998TIP3   OH233484   3.139   6.503  11.130  0.9245 -0.2477  0.0565
 3998TIP3    H133485   3.084   6.436  11.170  1.7970 -1.9349 -1.5097
 3998TIP3    H233486   3.137   6.483  11.036  0.9003  2.1416 -0.4868
 3999TIP3   OH233487   0.562   6.084  12.109  0.0764  0.8218 -0.0742
 3999TIP3    H133488   0.644   6.049  12.076 -0.1393  0.3110 -0.0713
 3999TIP3    H233489   0.581   6.175  12.130  0.8150  0.5277  0.5501
 4000TIP3   OH233490   1.029   1.727  15.512 -0.4970  0.5206 -0.0787
 4000TIP3    H133491   1.020   1.821  15.523  0.3668  0.6385 -0.3095
 4000TIP3    H233492   1.086   1.717  15.435  0.4621 -0.1562  0.7022
 4001TIP3   OH233493   0.386   5.128  12.173 -0.3578  0.4189 -0.0144
 4001TIP3    H133494   0.430   5.044  12.166 -1.4966 -0.2099  0.2482
 4001TIP3    H233495   0.370   5.139  12.267 -1.4475  0.2830 -0.1825
 4002TIP3   OH233496   4.355   0.152  12.530  0.3392 -0.3540  0.2164
 4002TIP3    H133497   4.346   0.242  12.561  0.6361 -0.8666  1.8457
 4002TIP3    H233498   4.398   0.160  12.445  0.1942  1.0494  0.2626
 4003TIP3   OH233499   3.747   7.028  10.189  0.2445  0.1234  0.1370
 4003TIP3    H133500   3.751   7.121  10.212 -2.6794  0.6826 -1.2409
 4003TIP3    H233501   3.673   7.023  10.128  0.6852 -3.0438 -0.1925
 4004TIP3   OH233502   3.533   3.456   1.353 -0.1507 -0.0354 -0.8032
 4004TIP3    H133503   3.521   3.458   1.448  2.0187  2.3042 -0.5252
 4004TIP3    H233504   3.567   3.368   1.335  0.1618 -0.2347  0.6975
 4005TIP3   OH233505   7.123   2.508  11.539 -0.2292  0.5835 -0.2591
 4005TIP3    H133506   7.114   2.522  11.633 -2.1030 -1.6935 -0.0686
 4005TIP3    H233507   7.044   2.547  11.501  0.1137  0.7581 -0.7946
 4006TIP3   OH233508   1.445   0.295  10.804 -0.4286 -0.0785 -0.0204
 4006TIP3    H133509   1.423   0.213  10.848  1.9386 -0.3252  0.7940
 4006TIP3    H233510   1.390   0.360  10.845 -1.1361 -0.9876  0.4951
 4007TIP3   OH233511   4.489   5.316  11.655 -0.3735  0.4269 -0.0618
 4007TIP3    H133512   4.579   5.287  11.642 -1.0034 -0.9693 -1.4519
 4007TIP3    H233513   4.482   5.396  11.602  0.8413  2.2318  2.3633
 4008TIP3   OH233514   2.884   3.097  12.153  0.0323  0.8365  0.4379
 4008TIP3    H133515   2.931   3.163  12.102  0.3377 -0.7272 -1.3684
 4008TIP3    H233516   2.827   3.053  12.089 -0.5753 -0.2792  1.7176
 4009TIP3   OH233517   4.402   5.600  12.494  0.1080 -0.2324  0.1040
 4009TIP3    H133518   4.444   5.637  12.416 -0.8113 -1.3008 -0.9194
 4009TIP3    H233519   4.415   5.505  12.486 -1.4416 -0.4828  0.3790
 4010TIP3   OH233520   6.107   6.988  11.603 -0.1265 -0.1125 -0.3603
 4010TIP3    H133521   6.092   6.926  11.533  0.8304 -0.5647 -0.1700
 4010TIP3    H233522   6.131   7.070  11.559 -0.0358 -0.2530 -0.5672
 4011TIP3   OH233523   0.106   6.480  15.477  0.4832 -0.1523 -0.6456
 4011TIP3    H133524   0.150   6.396  15.490  0.3423 -0.2087 -0.5301
 4011TIP3    H233525   0.175   6.545  15.489  0.5951 -0.2534 -0.7481
 4012TIP3   OH233526   4.884   0.360  13.484  0.2480  0.3438  1.0016
 4012TIP3    H133527   4.815   0.361  13.550 -0.7420  1.7845 -0.0508
 4012TIP3    H233528   4.928   0.444  13.494  0.8967  0.0507  0.6598
 4013TIP3   OH233529   1.750   3.919  14.637 -0.2437  0.0736  0.2603
 4013TIP3    H133530   1.698   3.999  14.643 -0.3309 -0.0020  0.5687
 4013TIP3    H233531   1.831   3.940  14.685 -0.3789 -0.1090  0.5701
 4014TIP3   OH233532   0.355   1.515  10.665 -0.1643 -0.5572 -0.5700
 4014TIP3    H133533   0.392   1.546  10.583 -2.0197 -0.6200 -1.4305
 4014TIP3    H233534   0.403   1.434  10.683  0.2079 -0.5761 -1.6135
 4015TIP3   OH233535   1.745   4.407  12.860 -0.4640 -0.8232 -0.1980
 4015TIP3    H133536   1.775   4.424  12.949 -0.6909  0.7616 -0.4136
 4015TIP3    H233537   1.785   4.323  12.837  1.3638 -0.2111  0.6062
 4016TIP3   OH233538   4.479   4.282  13.794  0.5288 -0.4152  0.0305
 4016TIP3    H133539   4.563   4.325  13.812 -0.1301  0.5166  0.9793
 4016TIP3    H233540   4.468   4.219  13.867  0.9372 -1.3599 -0.7131
 4017TIP3   OH233541   0.486   0.532  11.640  0.4479 -0.4847  0.4120
 4017TIP3    H133542   0.452   0.520  11.729  1.0007 -2.0092  0.4258
 4017TIP3    H233543   0.578   0.555  11.653 -0.0803  1.7917  0.3069
 4018TIP3   OH233544   2.925   2.178  13.786  1.1887 -0.1242 -0.2744
 4018TIP3    H133545   3.014   2.213  13.773  0.4195  1.0402 -2.6470
 4018TIP3    H233546   2.919   2.104  13.727  0.8180 -0.6459  0.4150
 4019TIP3   OH233547   4.658   2.336  12.469  0.5042 -0.2811  0.0100
 4019TIP3    H133548   4.663   2.355  12.563  0.8788  0.5255 -0.1731
 4019TIP3    H233549   4.723   2.393  12.429 -0.5078  0.2710 -0.8730
 4020TIP3   OH233550   4.571   2.525  10.687  0.2208  0.1067 -0.0359
 4020TIP3    H133551   4.623   2.463  10.738  0.1994  0.3343  0.2641
 4020TIP3    H233552   4.494   2.475  10.660  0.0529  0.0928  0.4679
 4021TIP3   OH233553   0.176   4.299   1.102  0.0044  0.3578 -0.4550
 4021TIP3    H133554   0.204   4.256   1.022 -2.2033  0.8625 -1.5579
 4021TIP3    H233555   0.145   4.228   1.158  2.0091 -0.0451  0.1842
 4022TIP3   OH233556   3.117   0.586  13.399  0.7309  0.6268 -0.2128
 4022TIP3    H133557   3.211   0.604  13.393  1.1693 -1.3734  0.3772
 4022TIP3    H233558   3.101   0.578  13.493  0.7411 -2.8372 -0.4514
 4023TIP3   OH233559   6.272   1.081  12.531  0.0099  0.9508  0.1454
 4023TIP3    H133560   6.293   1.106  12.441 -0.0034 -0.8173 -0.3635
 4023TIP3    H233561   6.199   1.020  12.522  0.5272  0.1593  1.3081
 4024TIP3   OH233562   0.691   5.211   9.892 -0.3291 -0.5160 -0.0395
 4024TIP3    H133563   0.729   5.298   9.882 -0.7605 -0.3175  0.0643
 4024TIP3    H233564   0.597   5.225   9.893 -0.3636 -0.6026  3.3662
 4025TIP3   OH233565   1.885   5.346  13.559  0.4604 -0.3045  0.1067
 4025TIP3    H133566   1.859   5.276  13.619 -0.4463 -0.6665 -0.7080
 4025TIP3    H233567   1.981   5.341  13.558  0.3489 -2.7693 -1.4113
 4026TIP3   OH233568   6.531   6.858  14.526  0.0718 -0.2790 -0.1989
 4026TIP3    H133569   6.613   6.821  14.558  0.0467 -0.8028 -0.7129
 4026TIP3    H233570   6.533   6.841  14.432  0.3742  1.6835 -0.5568
 4027TIP3   OH233571   7.041   4.888  10.769  0.4242 -0.2307 -0.4615
 4027TIP3    H133572   7.019   4.950  10.699 -0.1102 -0.1086 -0.1898
 4027TIP3    H233573   7.104   4.934  10.824 -3.2696  1.8355  2.2936
 4028TIP3   OH233574   1.957   0.479  13.594 -0.5933  0.1365  0.5265
 4028TIP3    H133575   1.878   0.484  13.540 -0.4799 -1.9421  0.1030
 4028TIP3    H233576   1.996   0.394  13.571  1.3639  0.7982  1.2733
 4029TIP3   OH233577   0.254   4.511  13.317 -0.2139 -0.2098  0.1897
 4029TIP3    H133578   0.319   4.536  13.382  1.4921 -0.2519 -1.4398
 4029TIP3    H233579   0.192   4.583  13.316  1.1106  0.9596  0.1293
 4030TIP3   OH233580   6.743   2.912  11.037  0.0865 -0.3643  0.0681
 4030TIP3    H133581   6.792   2.956  11.107 -0.3114 -0.3836  0.3577
 4030TIP3    H233582   6.722   2.982  10.976 -1.1810 -0.0188  0.8923
 4031TIP3   OH233583   2.893   2.937  10.621 -0.2335  0.4735 -0.2817
 4031TIP3    H133584   2.957   2.878  10.580 -0.0586  1.5374 -1.5764
 4031TIP3    H233585   2.933   2.963  10.704 -0.6648 -1.8595  0.6967
 4032TIP3   OH233586   3.998   6.821  11.777  0.3431  0.5809  0.4184
 4032TIP3    H133587   3.951   6.904  11.774 -0.0502  0.3327 -0.3168
 4032TIP3    H233588   3.993   6.786  11.688  2.0401  0.6229  0.2815
 4033TIP3   OH233589   1.840   1.329  13.325 -0.2221  0.4429  0.0288
 4033TIP3    H133590   1.832   1.234  13.332  1.2941  0.1334 -2.1631
 4033TIP3    H233591   1.932   1.344  13.306 -0.3807  2.4012  0.7063
 4034TIP3   OH233592   6.776   0.494  13.752  0.5143  0.2426  0.1782
 4034TIP3    H133593   6.707   0.460  13.694  0.5270 -0.2561  0.4565
 4034TIP3    H233594   6.856   0.485  13.701  0.2142  1.9592 -0.6160
 4035TIP3   OH233595   2.743   0.758  11.566 -0.4054  0.2055  0.0998
 4035TIP3    H133596   2.728   0.840  11.518 -1.9252  0.3996  0.8502
 4035TIP3    H233597   2.816   0.716  11.521 -1.0558  0.9223 -1.6658
 4036TIP3   OH233598   5.858   1.989  11.624  0.4094 -0.1930  0.2421
 4036TIP3    H133599   5.888   2.068  11.579 -3.8105 -0.2140 -2.9279
 4036TIP3    H233600   5.931   1.927  11.616  2.5522  2.2873 -0.0139
 4037TIP3   OH233601   6.174   6.593  13.958  0.0973 -0.4502 -0.4059
 4037TIP3    H133602   6.135   6.536  13.892 -0.9437 -0.5036  0.2263
 4037TIP3    H233603   6.121   6.673  13.954  0.2280 -0.3357  0.1316
 4038TIP3   OH233604   4.778   4.179   0.326  0.0055  0.2283  0.8243
 4038TIP3    H133605   4.857   4.233   0.330 -0.6278  1.2345 -0.1452
 4038TIP3    H233606   4.752   4.181   0.234 -0.9160 -0.4356  1.0683
 4039TIP3   OH233607   6.177   1.984  12.444 -0.2788 -0.0354  0.0327
 4039TIP3    H133608   6.272   1.991  12.452 -0.2142 -0.9089  0.0884
 4039TIP3    H233609   6.146   2.074  12.451  0.5511  0.2702 -0.0876
 4040TIP3   OH233610   2.539   0.681  12.130  0.2704  1.0176  0.0764
 4040TIP3    H133611   2.593   0.675  12.051  1.1315 -1.0520  0.8037
 4040TIP3    H233612   2.509   0.592  12.146 -1.5375  1.7570  0.9859
 4041TIP3   OH233613   2.377   3.099  12.973  0.3779 -0.3042 -0.1402
 4041TIP3    H133614   2.361   3.193  12.969  3.8319  0.3475  0.1784
 4041TIP3    H233615   2.365   3.069  12.883 -0.4123  0.4951 -0.3063
 4042TIP3   OH233616   6.663   4.082  11.904 -0.0831  0.2911  0.2405
 4042TIP3    H133617   6.665   3.988  11.884 -0.0954  0.2556  0.4035
 4042TIP3    H233618   6.707   4.089  11.989 -0.5758  0.3631  0.4915
 4043TIP3   OH233619   5.171   1.151  14.807 -0.1862  0.6843  0.0281
 4043TIP3    H133620   5.111   1.148  14.733 -0.9525 -1.3336  0.7013
 4043TIP3    H233621   5.118   1.123  14.882  1.5920 -1.2691  0.6162
 4044TIP3   OH233622   1.580   0.921  11.798 -0.1023 -0.0729 -0.3403
 4044TIP3    H133623   1.509   0.901  11.737 -1.0624  0.9345  0.4233
 4044TIP3    H233624   1.652   0.865  11.770 -0.7313 -0.0831 -1.9939
 4045TIP3   OH233625   0.242   6.705  13.282  0.0817  0.6029 -0.8410
 4045TIP3    H133626   0.257   6.742  13.369  1.2272  0.6315 -1.0429
 4045TIP3    H233627   0.245   6.610  13.295  2.0784  0.6109 -1.1448
 4046TIP3   OH233628   3.025   6.802  13.117 -0.2469  0.0408 -0.0143
 4046TIP3    H133629   2.932   6.819  13.128  0.3348  2.2177  1.6646
 4046TIP3    H233630   3.045   6.834  13.029 -1.0853 -0.5978 -0.4501
 4047TIP3   OH233631   6.974   2.799  10.165 -0.2438 -0.1697  0.3030
 4047TIP3    H133632   6.959   2.839  10.251  0.9670  1.3922 -0.1844
 4047TIP3    H233633   6.972   2.705  10.182  0.3593  0.1211  2.1309
 4048TIP3   OH233634   1.392   5.045  10.004 -0.2302  0.4243 -0.6138
 4048TIP3    H133635   1.482   5.060  10.033 -0.3055 -2.4158  1.2426
 4048TIP3    H233636   1.392   5.075   9.913  3.1609 -1.4489 -1.3428
 4049TIP3   OH233637   6.678   6.992  14.224 -0.0550 -0.2225 -0.1051
 4049TIP3    H133638   6.721   7.002  14.309 -0.3499 -0.8053  0.1203
 4049TIP3    H233639   6.601   6.938  14.243 -0.7161  0.5607 -0.5549
 4050TIP3   OH233640   0.458   5.931  13.609 -0.3518  0.0617  0.4024
 4050TIP3    H133641   0.469   6.018  13.647  0.8130 -0.5146  1.4384
 4050TIP3    H233642   0.436   5.946  13.517  0.8016  1.4324  0.3461
 4051TIP3   OH233643   0.169   4.013  11.455 -0.1441 -0.1240  0.0164
 4051TIP3    H133644   0.214   4.000  11.372 -1.1687 -2.5278 -0.1769
 4051TIP3    H233645   0.221   3.964  11.519 -1.1869 -1.0193  0.1946
 4052TIP3   OH233646   5.178   1.751  12.783 -0.1055 -0.6812 -0.3117
 4052TIP3    H133647   5.241   1.695  12.736  1.2363 -0.0890  0.7462
 4052TIP3    H233648   5.093   1.716  12.759  0.6357 -1.6947 -1.5515
 4053TIP3   OH233649   6.803   0.871  12.075 -0.5611 -0.0541 -0.1457
 4053TIP3    H133650   6.829   0.963  12.063 -0.2229  0.0316  1.1305
 4053TIP3    H233651   6.710   0.870  12.057 -0.2720  0.2376 -1.7173
 4054TIP3   OH233652   6.421   1.945  10.819 -0.4283  0.6805 -0.4005
 4054TIP3    H133653   6.335   1.970  10.853  0.2562  2.1987  0.3072
 4054TIP3    H233654   6.431   1.854  10.845 -0.8584  1.1671  1.6086
 4055TIP3   OH233655   1.320   5.909  12.245 -0.7835  0.4416 -0.3006
 4055TIP3    H133656   1.250   5.873  12.299  0.3187  1.2366  1.7281
 4055TIP3    H233657   1.296   6.001  12.232 -0.9571  0.2958 -1.0342
 4056TIP3   OH233658   0.659   1.369  10.445  0.3579  0.3888 -0.2257
 4056TIP3    H133659   0.693   1.309  10.378  0.3989  1.6841 -1.3953
 4056TIP3    H233660   0.733   1.426  10.466  0.4431 -0.2412  1.1936
 4057TIP3   OH233661   1.189   5.175   0.201  0.0691 -0.1961  0.3326
 4057TIP3    H133662   1.231   5.165   0.115 -0.5302  0.4826 -0.0389
 4057TIP3    H233663   1.149   5.089   0.218  0.1086 -0.3022 -0.1081
 4058TIP3   OH233664   2.945   5.287   9.840 -0.2913 -0.1677  0.3649
 4058TIP3    H133665   2.869   5.280   9.781 -0.8218  1.8557  0.7589
 4058TIP3    H233666   3.010   5.335   9.789  0.5646 -1.4892  0.1973
 4059TIP3   OH233667   4.026   3.234  14.194  0.3563 -0.1807 -0.7436
 4059TIP3    H133668   4.033   3.220  14.099 -0.6981 -1.0777 -0.6961
 4059TIP3    H233669   3.953   3.294  14.204  0.4687 -0.0862 -0.4878
 4060TIP3   OH233670   5.888   5.701  11.758 -0.3777  0.3523  0.0640
 4060TIP3    H133671   5.838   5.653  11.823 -0.8541 -0.2302 -0.7203
 4060TIP3    H233672   5.972   5.719  11.800 -1.1481  1.1263  1.2985
 4061TIP3   OH233673   3.260   4.335   9.937  0.1956 -0.5807  0.4163
 4061TIP3    H133674   3.166   4.354   9.940  0.0908 -1.0240  0.0652
 4061TIP3    H233675   3.265   4.245   9.904  0.8260  0.1925 -1.6663
 4062TIP3   OH233676   5.306   3.432  10.232 -0.4064  0.0204  0.4272
 4062TIP3    H133677   5.345   3.357  10.187 -0.8012 -0.4447  0.8565
 4062TIP3    H233678   5.284   3.399  10.319  0.1578  0.8588  0.8918
 4063TIP3   OH233679   2.412   2.630  12.824 -0.6477  0.5684 -0.4072
 4063TIP3    H133680   2.431   2.544  12.788 -0.8783 -0.2492  1.3643
 4063TIP3    H233681   2.475   2.688  12.782  0.1072 -0.6187 -0.9432
 4064TIP3   OH233682   6.454   2.467  14.980 -0.2714  0.5533 -0.0942
 4064TIP3    H133683   6.376   2.492  15.030 -0.9215 -1.0047 -0.2962
 4064TIP3    H233684   6.488   2.390  15.026 -0.0988 -0.0648 -1.2340
 4065TIP3   OH233685   0.320   1.384  14.603 -0.1451 -0.0032  0.2519
 4065TIP3    H133686   0.260   1.345  14.666  0.4095 -1.1018  0.1117
 4065TIP3    H233687   0.390   1.319  14.593 -0.9794 -0.5245 -2.6221
 4066TIP3   OH233688   1.018   4.335  10.964 -0.2382  0.2825  0.1762
 4066TIP3    H133689   1.083   4.331  11.035 -0.2916 -1.2425  0.1576
 4066TIP3    H233690   0.934   4.337  11.009 -0.2438  0.4538  0.1604
 4067TIP3   OH233691   1.695   2.881  10.331 -0.6684 -0.0089  0.7981
 4067TIP3    H133692   1.610   2.923  10.322 -0.9173 -0.7519 -0.4134
 4067TIP3    H233693   1.695   2.812  10.265  1.7379  1.4110 -0.7638
 4068TIP3   OH233694   1.543   2.431  11.143 -0.0671 -0.7196  0.3511
 4068TIP3    H133695   1.457   2.437  11.102 -0.8940 -0.5866  2.0593
 4068TIP3    H233696   1.605   2.444  11.071 -1.4653 -1.1055 -0.9411
 4069TIP3   OH233697   2.227   4.436  10.154  0.1145  0.0439 -0.4105
 4069TIP3    H133698   2.273   4.486  10.222 -2.5361 -0.2957  1.6977
 4069TIP3    H233699   2.281   4.358  10.142  2.4525  1.7180 -1.2519
 4070TIP3   OH233700   2.761   1.177  11.028  0.2473  0.7046  0.6963
 4070TIP3    H133701   2.698   1.106  11.036 -0.1860  0.9103 -0.6868
 4070TIP3    H233702   2.754   1.205  10.936  2.1317  0.9254  0.5889
 4071TIP3   OH233703   2.047   0.586  11.995 -0.7018 -0.1064 -0.1765
 4071TIP3    H133704   2.100   0.666  11.988 -0.4766 -0.3277 -1.1012
 4071TIP3    H233705   2.097   0.528  12.052 -0.0866 -0.1951 -0.7982
 4072TIP3   OH233706   3.499   2.523  12.129  0.2181 -0.4388 -0.0945
 4072TIP3    H133707   3.460   2.436  12.126 -0.2296 -0.2660  0.6004
 4072TIP3    H233708   3.593   2.507  12.118  0.2160 -1.0752  0.7331
 4073TIP3   OH233709   2.641   0.837  11.038 -0.1319 -0.1340 -0.0318
 4073TIP3    H133710   2.595   0.886  10.970 -0.5353 -0.6120 -0.1140
 4073TIP3    H233711   2.578   0.769  11.064 -0.3727  0.6616  1.5270
 4074TIP3   OH233712   1.986   2.855  10.815 -0.1522 -0.2685  0.5040
 4074TIP3    H133713   2.031   2.875  10.733  1.6044  1.2999  1.7967
 4074TIP3    H233714   2.035   2.782  10.852 -1.6894 -1.7863 -0.3985
 4075TIP3   OH233715   0.969   5.264  12.715 -0.3274 -0.1101 -0.5162
 4075TIP3    H133716   0.971   5.351  12.754  0.3654 -0.4400  0.1847
 4075TIP3    H233717   0.950   5.279  12.622  0.8517  0.8495 -0.6055
 4076TIP3   OH233718   0.115   6.370  13.643  0.4067 -0.4257  0.4121
 4076TIP3    H133719   0.066   6.426  13.704  1.2323 -1.4196  1.9998
 4076TIP3    H233720   0.157   6.432  13.584 -1.8374  0.4916 -0.3009
 4077TIP3   OH233721   0.473   0.903   2.534  0.0534  0.0065  0.4581
 4077TIP3    H133722   0.432   0.945   2.610  1.5170  0.6325  0.9070
 4077TIP3    H233723   0.563   0.933   2.536  0.0897  0.0382 -1.5639
 4078TIP3   OH233724   6.308   3.794  11.982  1.2952  0.0313  0.4406
 4078TIP3    H133725   6.293   3.778  11.889  0.2680  1.2525  0.3835
 4078TIP3    H233726   6.277   3.883  11.996  0.2075 -0.6034  2.2322
 4079TIP3   OH233727   6.068   5.859   9.682 -0.5986  0.1881 -0.1425
 4079TIP3    H133728   6.100   5.825   9.599 -0.9435 -0.6549  0.0623
 4079TIP3    H233729   6.020   5.786   9.721 -0.0304  0.4145  1.0186
 4080TIP3   OH233730   1.824   3.025  13.428  0.4657  0.1576 -0.3715
 4080TIP3    H133731   1.795   2.974  13.353 -1.7118  0.9999 -0.1470
 4080TIP3    H233732   1.744   3.064  13.463  1.7561  1.7259  0.9371
 4081TIP3   OH233733   3.565   0.712  12.806  0.3483  0.0205 -0.4731
 4081TIP3    H133734   3.581   0.806  12.807  2.9205 -0.3941 -0.1460
 4081TIP3    H233735   3.648   0.673  12.778 -0.8139 -2.1377 -1.1021
 4082TIP3   OH233736   1.706   6.045  11.816  0.0647 -0.6409 -0.4279
 4082TIP3    H133737   1.623   6.079  11.785 -0.8222 -3.2489 -1.0767
 4082TIP3    H233738   1.706   6.062  11.910 -0.7363  0.3133 -0.6012
 4083TIP3   OH233739   4.948   0.992  13.128 -0.2243 -0.6926 -0.3692
 4083TIP3    H133740   5.032   1.022  13.162 -0.1572 -1.5023  0.1744
 4083TIP3    H233741   4.966   0.906  13.090  0.1627  1.0010 -4.3676
 4084TIP3   OH233742   7.075   5.697  12.947 -0.3839  0.4778 -0.0605
 4084TIP3    H133743   7.078   5.735  12.859  0.3366  0.9207  0.1521
 4084TIP3    H233744   7.160   5.654  12.957 -1.6530 -2.3429 -0.7880
 4085TIP3   OH233745   0.510   4.439  10.278 -0.0551 -0.4488  0.1525
 4085TIP3    H133746   0.486   4.437  10.185 -0.5050  1.9490  0.1750
 4085TIP3    H233747   0.586   4.381  10.285  0.1998 -0.3769 -1.7841
 4086TIP3   OH233748   0.382   2.263  12.491 -0.1095 -0.4641  0.0721
 4086TIP3    H133749   0.427   2.271  12.575 -0.1213 -0.8132  0.1109
 4086TIP3    H233750   0.353   2.172  12.487 -1.9179  0.0596  0.6042
 4087TIP3   OH233751   4.930   7.124  12.648  0.2470  0.2396  0.2751
 4087TIP3    H133752   4.913   7.218  12.646  0.1147  0.2018 -0.4342
 4087TIP3    H233753   5.000   7.110  12.585  2.4317  0.2836  2.6290
 4088TIP3   OH233754   0.006   4.641  11.192  0.2425  0.3689  0.6974
 4088TIP3    H133755  -0.034   4.692  11.262 -0.0257  1.0515  0.0503
 4088TIP3    H233756  -0.054   4.568  11.178  0.3714  0.1490  1.2771
 4089TIP3   OH233757   5.769   1.886  11.871 -0.2233  0.0894  0.2935
 4089TIP3    H133758   5.783   1.921  11.783  0.7547 -0.8232  0.0721
 4089TIP3    H233759   5.718   1.953  11.916 -0.8419  0.5028 -1.0142
 4090TIP3   OH233760   7.197   2.758  14.979 -1.1516 -0.0213  0.4533
 4090TIP3    H133761   7.253   2.690  14.942 -0.3516 -0.0474  1.6858
 4090TIP3    H233762   7.258   2.818  15.023 -1.9724  0.7222  0.5849
 4091TIP3   OH233763   1.563   4.659   9.650 -0.2491 -0.3925 -0.2777
 4091TIP3    H133764   1.628   4.698   9.591 -0.7311  0.1201 -0.4742
 4091TIP3    H233765   1.582   4.696   9.736  0.4066 -1.0805 -0.1227
 4092TIP3   OH233766   5.910   7.050  13.807 -0.5204  0.0332 -0.3436
 4092TIP3    H133767   5.978   6.982  13.797 -0.6243 -0.3009  1.1063
 4092TIP3    H233768   5.865   7.026  13.888 -0.4863  1.8937  0.2426
 4093TIP3   OH233769   1.317   2.311  13.895  0.0919  0.2756  0.0740
 4093TIP3    H133770   1.305   2.240  13.958 -0.7790 -1.0374 -1.5291
 4093TIP3    H233771   1.274   2.386  13.935 -0.5352 -0.5697  1.0090
 4094TIP3   OH233772   3.902   6.832  10.784 -0.4701  0.5106  0.1303
 4094TIP3    H133773   3.951   6.784  10.851  0.9651  0.9492 -0.5953
 4094TIP3    H233774   3.948   6.813  10.702 -0.8504  1.8121 -0.3914
 4095TIP3   OH233775   2.630   3.808   1.793 -0.6875  0.1966 -0.6030
 4095TIP3    H133776   2.568   3.826   1.864 -0.3516 -1.8896  0.2763
 4095TIP3    H233777   2.631   3.712   1.787  2.4357  0.1834 -0.6187
 4096TIP3   OH233778   0.538   6.770   1.006  0.6227 -0.1220 -0.5662
 4096TIP3    H133779   0.599   6.720   1.060 -2.5791 -1.9742  1.4924
 4096TIP3    H233780   0.512   6.710   0.936  0.8457  0.4977 -1.1836
 4097TIP3   OH233781   3.876   1.987  11.773 -0.2414 -0.6094 -0.1270
 4097TIP3    H133782   3.790   2.028  11.776  0.3145  0.4920  1.8178
 4097TIP3    H233783   3.937   2.059  11.790  1.2152 -0.9827 -3.4173
 4098TIP3   OH233784   1.947   5.755  12.488 -0.3674 -0.6015  0.3628
 4098TIP3    H133785   1.930   5.849  12.473 -1.6407 -0.3789  2.8840
 4098TIP3    H233786   1.978   5.723  12.404 -1.7137  1.7013 -1.0903
 4099TIP3   OH233787   0.044   1.017  12.081  0.4286  0.3306  0.3714
 4099TIP3    H133788   0.120   1.010  12.024  0.2156  0.5378  0.0570
 4099TIP3    H233789   0.028   1.111  12.088 -0.9226  0.2157 -1.0701
 4100TIP3   OH233790   3.391   6.805  11.991 -0.4294  0.5392  0.0529
 4100TIP3    H133791   3.481   6.819  11.963  0.2430 -0.6964  1.5806
 4100TIP3    H233792   3.339   6.822  11.912  1.3807 -2.2211 -1.7936
 4101TIP3   OH233793   3.403   0.463  11.105  0.0473 -0.0809 -1.0028
 4101TIP3    H133794   3.405   0.556  11.083  0.4804  0.2024  0.2020
 4101TIP3    H233795   3.475   0.451  11.167 -0.8560 -0.9452 -0.0979
 4102TIP3   OH233796   0.855   0.402  10.865 -0.1585 -0.1762  0.2454
 4102TIP3    H133797   0.794   0.334  10.837  0.7893  0.4272 -3.6162
 4102TIP3    H233798   0.819   0.483  10.829  2.2453  0.3404 -1.0941
 4103TIP3   OH233799   1.394   4.254  15.452  0.1845  0.5022  0.3343
 4103TIP3    H133800   1.352   4.326  15.404  0.4073  0.1590 -0.3939
 4103TIP3    H233801   1.450   4.212  15.386  2.0223  1.2292  1.3906
 4104TIP3   OH233802   3.364   2.587  10.282  0.3250  0.4222  0.5147
 4104TIP3    H133803   3.362   2.491  10.283  3.0265  0.3044 -0.0630
 4104TIP3    H233804   3.360   2.609  10.189 -0.1155  0.8555  0.6401
 4105TIP3   OH233805   2.637   5.138  10.839 -0.8495 -0.3094 -0.2883
 4105TIP3    H133806   2.626   5.183  10.923  0.4971 -0.8538  0.1867
 4105TIP3    H233807   2.657   5.047  10.863  1.4427 -0.0558 -1.1614
 4106TIP3   OH233808   4.763   6.179  10.751 -0.2345 -0.0431  0.1562
 4106TIP3    H133809   4.842   6.220  10.716  0.5351  0.3331  2.2453
 4106TIP3    H233810   4.704   6.252  10.770 -1.5880 -0.3858 -2.4529
 4107TIP3   OH233811   1.227   0.850  11.157 -0.1333  0.0481  0.0823
 4107TIP3    H133812   1.311   0.871  11.117  0.7693  0.9893  2.3363
 4107TIP3    H233813   1.172   0.926  11.138  0.6417  0.9990  1.4725
 4108TIP3   OH233814   0.673   6.856  11.682  0.0050 -0.5654 -0.7095
 4108TIP3    H133815   0.672   6.875  11.776 -3.5352 -1.7723 -0.4392
 4108TIP3    H233816   0.763   6.828  11.664  1.3539  1.9180  1.8171
 4109TIP3   OH233817   6.081   2.161  12.701  0.1028  0.0364  0.5880
 4109TIP3    H133818   6.123   2.140  12.784  0.0833 -0.1097  0.5627
 4109TIP3    H233819   6.015   2.092  12.689 -1.5834  1.4104  1.6344
 4110TIP3   OH233820   2.770   6.993  12.850 -0.4292 -0.3995 -0.3041
 4110TIP3    H133821   2.838   7.053  12.819  0.5373 -1.1520  0.2998
 4110TIP3    H233822   2.793   6.909  12.809 -2.6754 -0.0514 -2.4382
 4111TIP3   OH233823   1.078   0.795  10.226 -0.5148  0.7567 -0.1500
 4111TIP3    H133824   1.067   0.889  10.211  0.4911  0.8383 -0.3892
 4111TIP3    H233825   1.100   0.788  10.319 -1.3663  0.6832  0.0558
 4112TIP3   OH233826   0.584   0.350  12.123 -0.4006 -0.1359  0.7102
 4112TIP3    H133827   0.575   0.442  12.145  2.1242  1.0889 -2.9566
 4112TIP3    H233828   0.646   0.316  12.187 -0.2188  1.0445  1.1750
 4113TIP3   OH233829   3.773   2.620  12.928 -0.2671 -0.0699  0.6118
 4113TIP3    H133830   3.748   2.698  12.978 -3.1436 -0.9664  0.6875
 4113TIP3    H233831   3.741   2.637  12.840  3.6869  0.9750 -0.6956
 4114TIP3   OH233832   4.187   1.268   0.117  0.2692  0.4972 -0.1023
 4114TIP3    H133833   4.244   1.326   0.066  0.6202 -0.0322 -0.3189
 4114TIP3    H233834   4.126   1.327   0.161  0.0890  0.9799 -0.9749
 4115TIP3   OH233835   0.037   3.314  13.429  0.2814  0.2183  0.0929
 4115TIP3    H133836  -0.020   3.244  13.397  3.1240 -1.2068 -2.0492
 4115TIP3    H233837  -0.023   3.387  13.448 -2.3013 -1.4048 -1.5223
 4116TIP3   OH233838   6.676   5.439  11.205 -0.2800 -0.1302  0.0740
 4116TIP3    H133839   6.678   5.378  11.280  0.5751 -0.0950  0.0856
 4116TIP3    H233840   6.583   5.446  11.182 -0.8711  1.8552  2.7716
 4117TIP3   OH233841   0.950   4.017  11.608 -0.4896  0.0955 -0.6325
 4117TIP3    H133842   1.026   3.964  11.629  0.1870  1.9113  1.5997
 4117TIP3    H233843   0.875   3.961  11.629  0.2113 -0.1724  1.1631
 4118TIP3   OH233844   2.000   6.981  11.204  0.4774  0.4202  0.5446
 4118TIP3    H133845   2.024   6.911  11.264  2.8729  1.3770  0.7691
 4118TIP3    H233846   1.926   7.025  11.246  0.0933 -0.8803  1.2456
 4119TIP3   OH233847   7.086   4.246  12.868 -0.2647  0.6880  0.1839
 4119TIP3    H133848   7.067   4.192  12.792 -0.9758  1.5672 -0.2682
 4119TIP3    H233849   7.007   4.239  12.923  0.3380 -0.1411  0.9644
 4120TIP3   OH233850   2.216   6.757   9.683 -0.1439 -0.0573 -0.3707
 4120TIP3    H133851   2.134   6.806   9.694 -0.3650 -0.6207  0.5541
 4120TIP3    H233852   2.189   6.670   9.656  0.1036 -0.5115  0.8270
 4121TIP3   OH233853   0.862   6.181  14.047 -0.3912 -0.1733 -0.4015
 4121TIP3    H133854   0.936   6.178  14.107 -0.5811 -3.5212 -0.2173
 4121TIP3    H233855   0.861   6.271  14.014  2.9709  0.2712  0.5280
 4122TIP3   OH233856   5.856   3.757  11.921  0.5851  0.5260 -0.0602
 4122TIP3    H133857   5.866   3.849  11.896 -0.8366  0.3622 -1.2968
 4122TIP3    H233858   5.925   3.711  11.873 -0.5104  0.5728 -1.7236
 4123TIP3   OH233859   0.504   0.618   2.437  0.8315  0.3613  0.5622
 4123TIP3    H133860   0.518   0.693   2.495  0.2844 -0.5637  1.9130
 4123TIP3    H233861   0.468   0.656   2.357 -1.1093  1.3838  1.8944
 4124TIP3   OH233862   3.041   4.239  12.470  0.1631 -0.1017  0.0125
 4124TIP3    H133863   2.989   4.210  12.546 -1.1179  1.1651 -0.3640
 4124TIP3    H233864   3.121   4.274  12.509 -0.5108  0.6025  0.8083
 4125TIP3   OH233865   1.285   5.492   9.863  0.3950 -0.2326  0.7271
 4125TIP3    H133866   1.321   5.525   9.945  0.8557 -1.2856  0.9579
 4125TIP3    H233867   1.239   5.412   9.888  1.6281 -1.2591 -0.2201
 4126TIP3   OH233868   1.421   2.588  10.536  0.8607 -0.1174 -0.0043
 4126TIP3    H133869   1.459   2.575  10.624  0.8509  1.8329  0.2935
 4126TIP3    H233870   1.335   2.625  10.552  0.2459 -1.1472 -0.8193
 4127TIP3   OH233871   4.666   3.446  11.612 -0.1348  0.5325  0.2996
 4127TIP3    H133872   4.736   3.472  11.552 -0.8773  1.3971 -0.1952
 4127TIP3    H233873   4.683   3.353  11.629  0.5284  0.4730 -0.6313
 4128TIP3   OH233874   6.464   0.230  12.239  0.1996  0.8172 -0.0874
 4128TIP3    H133875   6.544   0.185  12.264  0.4189  0.2839 -1.6839
 4128TIP3    H233876   6.492   0.299  12.179 -0.3050  2.1065  1.1183
 4129TIP3   OH233877   1.591   3.610  10.489  0.3146  0.2994 -0.0099
 4129TIP3    H133878   1.654   3.670  10.449  0.4689  2.1238  2.8312
 4129TIP3    H233879   1.529   3.590  10.419  0.9244  2.8459 -1.3404
 4130TIP3   OH233880   0.462   0.625  11.920  0.2647  0.3324  0.0097
 4130TIP3    H133881   0.415   0.660  11.996  1.5458  1.1040  0.4513
 4130TIP3    H233882   0.552   0.656  11.931  0.7737 -0.7179 -1.0937
 4131TIP3   OH233883   5.544   2.354  12.967  0.5509  0.1746  0.2322
 4131TIP3    H133884   5.523   2.448  12.973  0.1661  0.1955 -1.2261
 4131TIP3    H233885   5.574   2.342  12.877 -1.4415 -1.5030 -0.2432
 4132TIP3   OH233886   6.639   0.936  12.694  0.6104 -0.2557  0.4332
 4132TIP3    H133887   6.606   0.847  12.707  0.1299 -0.1442 -0.0316
 4132TIP3    H233888   6.562   0.992  12.705 -0.0002 -0.1824 -3.6069
 4133TIP3   OH233889   0.717   2.924  14.552 -0.2301  0.3021 -0.3234
 4133TIP3    H133890   0.656   2.997  14.556 -1.1612 -0.4294 -0.8946
 4133TIP3    H233891   0.767   2.940  14.472  0.2695  0.8470  0.0913
 4134TIP3   OH233892   2.397   2.957  10.218  0.7188 -0.2224 -0.0125
 4134TIP3    H133893   2.349   2.883  10.256 -0.5006  1.3452  1.6103
 4134TIP3    H233894   2.428   3.006  10.294  2.2814  0.4619 -1.0765
 4135TIP3   OH233895   6.329   5.922  11.298  0.4195  0.5120  0.0195
 4135TIP3    H133896   6.375   5.893  11.219  1.6463 -0.2795  1.0039
 4135TIP3    H233897   6.391   5.979  11.343  0.2473 -0.1060  1.0696
 4136TIP3   OH233898   0.645   2.013  10.011  0.3464 -0.1782 -0.4672
 4136TIP3    H133899   0.685   1.960   9.942 -0.4820 -1.2916 -0.1022
 4136TIP3    H233900   0.560   2.039   9.975  0.9815  1.4168 -0.8785
 4137TIP3   OH233901   7.142   2.995  12.087  0.3337 -0.2535 -0.1913
 4137TIP3    H133902   7.216   3.010  12.146  0.8728  1.5390 -1.2743
 4137TIP3    H233903   7.068   3.036  12.132  0.7264  1.0349 -0.6800
 4138TIP3   OH233904   3.752   2.481  14.558 -0.1196  0.3023 -0.2558
 4138TIP3    H133905   3.733   2.513  14.469  1.3969  1.2313 -0.2725
 4138TIP3    H233906   3.819   2.541  14.590  2.2047 -2.3516  0.0603
 4139TIP3   OH233907   1.906   5.351  14.626  0.6532 -0.0567  0.5374
 4139TIP3    H133908   1.983   5.393  14.665 -0.3167  0.7695  1.5861
 4139TIP3    H233909   1.835   5.413  14.640  0.2686  0.3495 -2.6911
 4140TIP3   OH233910   2.205   6.202  13.213 -0.0832 -0.7221 -0.7753
 4140TIP3    H133911   2.144   6.249  13.270 -0.2986  0.9757 -2.3520
 4140TIP3    H233912   2.154   6.179  13.136  0.7478 -1.0814 -1.2231
 4141TIP3   OH233913   3.745   0.135  13.420  0.4684 -0.0064  0.0233
 4141TIP3    H133914   3.671   0.195  13.422  0.2407 -0.3076  1.9408
 4141TIP3    H233915   3.707   0.049  13.438  1.2176 -0.2148  0.6764
 4142TIP3   OH233916   0.184   1.669  11.276  0.4791  0.2726  0.3928
 4142TIP3    H133917   0.230   1.632  11.201 -1.0594  0.5883 -0.7436
 4142TIP3    H233918   0.252   1.683  11.342  2.7289  4.1406 -2.5173
 4143TIP3   OH233919   7.131   5.104  11.297 -0.0819  0.4754 -0.4568
 4143TIP3    H133920   7.043   5.129  11.323  0.1445  0.1080  0.7333
 4143TIP3    H233921   7.164   5.052  11.371  0.0742 -1.8836 -2.1252
 4144TIP3   OH233922   2.323   0.402  10.981 -0.2943 -0.5566 -0.3513
 4144TIP3    H133923   2.277   0.466  10.926 -1.4141 -0.1732  0.9912
 4144TIP3    H233924   2.267   0.394  11.059  0.6989 -1.9189  0.2269
 4145TIP3   OH233925   3.710   7.046  12.167 -0.9027 -0.4354  0.1130
 4145TIP3    H133926   3.677   7.126  12.208 -0.0031  0.1175 -0.2278
 4145TIP3    H233927   3.697   6.978  12.233  2.2786  0.7714  2.0973
 4146TIP3   OH233928   4.333   1.690  12.493  0.3099 -0.3307  0.0211
 4146TIP3    H133929   4.326   1.785  12.506 -1.1717 -0.1421 -1.9537
 4146TIP3    H233930   4.297   1.653  12.574 -0.9781  0.8025 -0.0052
 4147TIP3   OH233931   6.130   0.934  10.002 -0.3773 -0.0126 -0.0101
 4147TIP3    H133932   6.186   0.858   9.991 -2.0365 -1.3661  0.5943
 4147TIP3    H233933   6.124   0.973   9.915  2.0321  0.5567  0.0603
 4148TIP3   OH233934   3.530   3.302  12.439 -0.1284  0.0074 -0.3428
 4148TIP3    H133935   3.467   3.331  12.504 -1.3058  0.2949 -1.5710
 4148TIP3    H233936   3.566   3.221  12.474 -2.0445 -0.7860 -0.1215
 4149TIP3   OH233937   1.497   3.970  14.165 -0.5723 -0.0867 -0.3302
 4149TIP3    H133938   1.483   4.038  14.099  1.5785 -0.7399 -1.5188
 4149TIP3    H233939   1.461   3.890  14.125  0.1197 -0.3467 -0.4417
 4150TIP3   OH233940   5.604   0.290  11.005  0.5858 -0.1257 -0.0610
 4150TIP3    H133941   5.658   0.296  10.926 -1.1832  1.3661 -1.2039
 4150TIP3    H233942   5.619   0.373  11.050  1.6489 -1.0071  1.2302
 4151TIP3   OH233943   5.735   0.741  12.089 -0.2739  0.3604 -0.5886
 4151TIP3    H133944   5.781   0.822  12.066 -0.3270 -0.1494 -2.5937
 4151TIP3    H233945   5.801   0.688  12.134  0.3047  0.7585 -0.9533
 4152TIP3   OH233946   2.718   3.938  13.950 -0.5066 -0.0645  0.2070
 4152TIP3    H133947   2.739   3.896  14.034  1.4451 -0.3374 -0.4023
 4152TIP3    H233948   2.732   4.031  13.965  2.1946 -0.3165 -0.4484
 4153TIP3   OH233949   6.714   2.216  10.764 -0.0125 -0.2772  0.1913
 4153TIP3    H133950   6.783   2.152  10.779 -1.2973 -1.4760  1.1820
 4153TIP3    H233951   6.759   2.296  10.737  1.6478 -1.4697 -0.6265
 4154TIP3   OH233952   0.827   4.784  12.986  0.5017  0.3045  0.0664
 4154TIP3    H133953   0.893   4.847  12.958 -0.3429  0.6377 -1.2063
 4154TIP3    H233954   0.743   4.831  12.977  0.0750 -0.1579  1.5162
 4155TIP3   OH233955   1.417   0.735  14.185 -0.3211  0.4502 -0.0919
 4155TIP3    H133956   1.396   0.729  14.092 -1.6615  0.2165  0.2170
 4155TIP3    H233957   1.343   0.694  14.229  0.7697 -0.3693  1.0468
 4156TIP3   OH233958   1.258   0.992  13.896 -0.1502  0.4536 -0.4079
 4156TIP3    H133959   1.242   1.011  13.989  1.9823 -0.9863  0.2891
 4156TIP3    H233960   1.346   1.025  13.880 -0.8151  1.4432 -2.1771
 4157TIP3   OH233961   0.211   3.868  13.378  0.2971  0.0139 -0.0379
 4157TIP3    H133962   0.217   3.934  13.447 -0.0153 -0.5701  0.5549
 4157TIP3    H233963   0.129   3.887  13.334  1.0860  1.1563 -1.0581
 4158TIP3   OH233964   3.387   4.627  10.903 -0.0898  0.0880 -0.2871
 4158TIP3    H133965   3.444   4.564  10.861 -2.8207 -0.7777 -2.8794
 4158TIP3    H233966   3.303   4.582  10.910 -0.6898  1.5591  2.7924
 4159TIP3   OH233967   1.169   1.152  13.347  0.4653 -0.2204 -0.6109
 4159TIP3    H133968   1.099   1.090  13.368  0.5981  0.0302  0.6075
 4159TIP3    H233969   1.209   1.173  13.431  1.6326  0.0953 -1.2274
 4160TIP3   OH233970   0.017   3.338  13.116 -0.2772  0.2787 -0.1689
 4160TIP3    H133971  -0.014   3.263  13.166 -0.7445  0.5424 -0.0577
 4160TIP3    H233972   0.055   3.397  13.181 -0.7106  0.5345 -0.1448
 4161TIP3   OH233973   3.127   0.170  11.338  0.8814  0.2438  0.1540
 4161TIP3    H133974   3.221   0.180  11.349  0.8220 -0.0210  0.9402
 4161TIP3    H233975   3.104   0.232  11.269  1.7960 -0.4651 -0.8055
 4162TIP3   OH233976   2.440   2.494  13.879  0.2650 -0.0425 -0.4843
 4162TIP3    H133977   2.508   2.561  13.886 -0.8280  1.2446 -1.8035
 4162TIP3    H233978   2.489   2.412  13.874  1.6195  0.6190  1.3070
 4163TIP3   OH233979   0.058   1.585  13.265 -0.5931  0.2695  0.4736
 4163TIP3    H133980   0.082   1.622  13.350  0.2441  0.7706  0.0252
 4163TIP3    H233981   0.133   1.604  13.208 -0.7364 -0.9196 -0.1224
 4164TIP3   OH233982   1.754   5.512  10.830 -0.4727 -0.2141 -0.3822
 4164TIP3    H133983   1.794   5.572  10.766 -0.4165  0.3008  0.1355
 4164TIP3    H233984   1.811   5.516  10.906 -0.4717 -0.9355 -0.3483
 4165TIP3   OH233985   4.470   1.293  10.295 -0.1889  0.2720  0.4974
 4165TIP3    H133986   4.449   1.295  10.201  0.9882 -1.4753  0.1700
 4165TIP3    H233987   4.389   1.265  10.337 -0.5363  0.4034 -0.0765
 4166TIP3   OH233988   1.531   6.788   0.509 -0.0947 -0.3717 -0.3292
 4166TIP3    H133989   1.533   6.872   0.462 -1.2843  0.0910  0.4228
 4166TIP3    H233990   1.453   6.794   0.564  0.3649 -1.5849  0.4576
 4167TIP3   OH233991   1.927   6.392   0.020  0.0099 -0.1724 -0.0232
 4167TIP3    H133992   1.903   6.415  -0.070  0.0063 -1.0026 -0.2346
 4167TIP3    H233993   2.021   6.375   0.017 -0.0372 -0.4518  0.0767
 4168TIP3   OH233994   0.085   2.912   1.120  0.1105 -0.3895  0.1586
 4168TIP3    H133995   0.007   2.914   1.175  0.0625 -1.3459  0.1217
 4168TIP3    H233996   0.125   2.998   1.133 -1.3097  0.3700 -0.3462
 4169TIP3   OH233997   3.901   1.551  10.416 -0.1390 -0.4383 -0.3383
 4169TIP3    H133998   3.846   1.489  10.368  0.8678 -0.0301 -2.0670
 4169TIP3    H233999   3.981   1.558  10.363  0.5713  0.8238  0.8711
 4170TIP3   OH234000   5.363   4.980  11.573  0.2429 -0.5330 -0.6387
 4170TIP3    H134001   5.295   5.029  11.527  0.4241  1.4595  1.1316
 4170TIP3    H234002   5.430   4.964  11.507  0.0645  1.4226 -1.3173
 4171TIP3   OH234003   1.114   2.313  10.707 -0.3192 -0.1189  0.7907
 4171TIP3    H134004   1.020   2.330  10.698 -0.4984 -1.7751 -0.8452
 4171TIP3    H234005   1.120   2.218  10.716  1.0484  0.1820  3.2618
 4172TIP3   OH234006   3.406   1.696  11.383  0.3121 -0.2092 -0.5526
 4172TIP3    H134007   3.456   1.631  11.432 -1.9375 -0.7609  1.0802
 4172TIP3    H234008   3.405   1.774  11.439 -2.1348 -0.7931  0.2940
 4173TIP3   OH234009   5.927   6.165   9.392  0.5843  0.1549  0.2052
 4173TIP3    H134010   5.916   6.135   9.482 -1.2233  1.1486  0.3351
 4173TIP3    H234011   5.900   6.091   9.338 -0.0336  0.1729  0.4931
 4174TIP3   OH234012   3.865   2.802  13.179 -0.1377  0.2161 -0.4655
 4174TIP3    H134013   3.884   2.873  13.240  1.2000 -1.0097  0.5918
 4174TIP3    H234014   3.948   2.785  13.134 -0.7532  0.1331 -1.5980
 4175TIP3   OH234015   5.882   4.188  10.604  0.3349  0.3372 -0.1161
 4175TIP3    H134016   5.912   4.129  10.535  0.0652  0.9256 -0.7318
 4175TIP3    H234017   5.915   4.274  10.579  0.9864  0.4065  0.9379
 4176TIP3   OH234018   6.970   2.690  11.359 -0.2634  0.1893 -0.1768
 4176TIP3    H134019   7.003   2.750  11.426 -0.6970 -0.5587  0.7134
 4176TIP3    H234020   7.044   2.679  11.299  0.3017  0.4516  0.4595
 4177TIP3   OH234021   4.793   4.101  12.261  0.2543  0.4501  0.0466
 4177TIP3    H134022   4.820   4.160  12.190 -3.7629  1.5127 -0.7008
 4177TIP3    H234023   4.822   4.145  12.341 -0.0868  2.0225 -0.6726
 4178TIP3   OH234024   7.147   1.115  11.575 -0.4284 -1.1298  0.5656
 4178TIP3    H134025   7.215   1.068  11.623 -0.6294 -1.7442  0.2494
 4178TIP3    H234026   7.134   1.064  11.495 -2.3908 -1.8695  1.3488
 4179TIP3   OH234027   6.894   2.243  11.253  0.9548 -0.4267  0.1599
 4179TIP3    H134028   6.962   2.296  11.211  0.2569  0.2961 -0.0627
 4179TIP3    H234029   6.919   2.153  11.233  1.8362 -0.1680  0.0567
 4180TIP3   OH234030   3.234   6.071  14.875 -0.3638 -0.0114  0.0159
 4180TIP3    H134031   3.253   6.064  14.781  1.2009 -0.7866  0.3742
 4180TIP3    H234032   3.298   6.013  14.916 -0.6763  0.7635  1.6062
 4181TIP3   OH234033   6.434   2.198  13.035  0.1564  0.2577  0.7773
 4181TIP3    H134034   6.378   2.246  12.974  1.5162  0.7614 -0.1198
 4181TIP3    H234035   6.521   2.200  12.994 -0.0854 -4.5803 -0.1971
 4182TIP3   OH234036   0.916   2.374   0.724  0.2090 -0.1951 -0.3676
 4182TIP3    H134037   0.942   2.284   0.744 -0.8444 -0.0170  2.0941
 4182TIP3    H234038   0.865   2.367   0.644 -1.0267 -2.0063  0.5400
 4183TIP3   OH234039   2.744   2.793  11.123 -0.3589  0.7137 -0.1788
 4183TIP3    H134040   2.808   2.807  11.193  0.1791  2.0476 -0.8995
 4183TIP3    H234041   2.702   2.710  11.144 -1.2920  1.8056  2.5789
 4184TIP3   OH234042   2.058   1.964  12.521 -0.0276  0.4058  0.2680
 4184TIP3    H134043   2.003   1.904  12.571 -0.0717  0.3480  0.1480
 4184TIP3    H234044   2.147   1.929  12.531  0.0846  0.8809  1.0369
 4185TIP3   OH234045   2.653   1.755  10.906  0.3695 -0.0046 -0.1628
 4185TIP3    H134046   2.677   1.845  10.931 -4.3257  1.6348 -1.1156
 4185TIP3    H234047   2.672   1.751  10.813  2.8500 -0.8935  0.3287
 4186TIP3   OH234048   1.391   1.688  15.005  0.1971  0.4396  0.5182
 4186TIP3    H134049   1.394   1.637  15.086 -1.7851 -2.5676 -1.1573
 4186TIP3    H234050   1.297   1.703  14.990  0.4616  0.1463 -1.6373
 4187TIP3   OH234051   1.347   1.611  14.298  0.1530  0.2622 -0.0028
 4187TIP3    H134052   1.414   1.654  14.351  0.6943 -0.2715 -0.2476
 4187TIP3    H234053   1.378   1.522  14.288  0.5303  0.5899 -1.9980
 4188TIP3   OH234054   4.888   1.664   2.467 -0.2024  0.1213 -0.6893
 4188TIP3    H134055   4.809   1.654   2.414 -1.1112  0.9612  0.4752
 4188TIP3    H234056   4.960   1.648   2.406 -1.2751 -1.1227 -1.6535
 4189TIP3   OH234057   0.556   1.059  11.509  0.0758 -0.0681  0.2452
 4189TIP3    H134058   0.555   0.991  11.576 -1.7319 -1.3677 -1.0243
 4189TIP3    H234059   0.479   1.040  11.456 -1.0853  3.6376  0.4838
 4190TIP3   OH234060   2.450   0.690  13.513  0.0037 -0.1909  0.0842
 4190TIP3    H134061   2.519   0.634  13.549  0.3163  1.1258  1.6027
 4190TIP3    H234062   2.369   0.644  13.535  0.3535 -1.7051 -1.6362
 4191TIP3   OH234063   0.930   1.433  14.919 -0.7388 -0.0155  0.0890
 4191TIP3    H134064   0.858   1.497  14.918 -0.3602  0.4536  1.6109
 4191TIP3    H234065   0.910   1.377  14.994 -0.2749 -0.7752 -0.3596
 4192TIP3   OH234066   1.309   1.184  10.964  0.3178  0.0388  0.0884
 4192TIP3    H134067   1.366   1.243  10.916  1.4008 -0.5054  0.6864
 4192TIP3    H234068   1.353   1.099  10.960 -0.0047 -0.2012  1.2836
 4193TIP3   OH234069   6.356   1.095  11.645  0.1174 -0.4469 -0.1293
 4193TIP3    H134070   6.276   1.069  11.690  0.6386  1.4126  1.9650
 4193TIP3    H234071   6.426   1.051  11.693  0.4957 -0.6068 -0.8216
 4194TIP3   OH234072   1.097   3.447  12.852  0.3194 -0.1100 -0.0066
 4194TIP3    H134073   1.068   3.522  12.800  2.5363  0.3507 -0.6410
 4194TIP3    H234074   1.132   3.386  12.788 -2.2011 -2.0909  0.4218
 4195TIP3   OH234075   0.700   2.118  10.457  0.0087 -0.2265  0.1869
 4195TIP3    H134076   0.766   2.106  10.389 -0.1249 -1.2468  0.2307
 4195TIP3    H234077   0.617   2.094  10.414  0.1949 -3.1170  1.3406
 4196TIP3   OH234078   5.741   5.309  11.841  0.4835  0.1529  0.2167
 4196TIP3    H134079   5.729   5.326  11.747 -1.5420  1.6247  0.6992
 4196TIP3    H234080   5.702   5.223  11.855 -1.7495  1.1225  0.1694
 4197TIP3   OH234081   4.193   5.319  14.151  0.1823 -0.2832 -0.0442
 4197TIP3    H134082   4.284   5.340  14.170 -0.0867 -0.3099  1.3182
 4197TIP3    H234083   4.149   5.404  14.146 -0.2475 -0.3393  2.1095
 4198TIP3   OH234084   5.717   4.515  11.057  0.0460 -0.6512 -0.8571
 4198TIP3    H134085   5.702   4.461  11.135 -2.0448  0.9719 -0.0864
 4198TIP3    H234086   5.689   4.460  10.984 -0.6052 -1.1734 -0.2175
 4199TIP3   OH234087   6.429   5.100  14.105  0.4656 -0.1300 -0.3054
 4199TIP3    H134088   6.495   5.141  14.161  0.8852 -0.2036 -0.7490
 4199TIP3    H234089   6.472   5.023  14.068  0.0008 -0.4122 -0.2739
 4200TIP3   OH234090   3.086   2.763  11.113  0.3098 -0.7943  0.5930
 4200TIP3    H134091   2.996   2.787  11.090  0.2278 -1.8881 -0.2720
 4200TIP3    H234092   3.123   2.842  11.153  0.1433  0.8530 -2.4310
 4201TIP3   OH234093   0.539   5.650  13.954  0.2290 -0.5350  0.5146
 4201TIP3    H134094   0.462   5.705  13.973  0.5521 -0.0404  0.4068
 4201TIP3    H234095   0.569   5.621  14.040  1.9626  2.0740  0.8566
 4202TIP3   OH234096   2.417   1.348  12.357 -0.2067  0.1789  0.2950
 4202TIP3    H134097   2.512   1.361  12.359  0.0738 -1.6769  0.4800
 4202TIP3    H234098   2.397   1.329  12.266 -0.0960 -1.3180  0.5639
 4203TIP3   OH234099   1.216   1.633  10.510 -0.7198 -0.0040  0.5994
 4203TIP3    H134100   1.222   1.723  10.543 -0.5295 -0.2187  1.1715
 4203TIP3    H234101   1.297   1.621  10.459 -0.5940  0.0490  0.7843
 4204TIP3   OH234102   0.398   4.091  13.231 -0.1805  0.1442  0.0698
 4204TIP3    H134103   0.360   4.022  13.285  2.0433  0.5850  2.3114
 4204TIP3    H234104   0.324   4.131  13.186 -2.0512 -0.5160  2.4970
 4205TIP3   OH234105   4.449   3.821  13.343  0.2348  0.6550  1.0496
 4205TIP3    H134106   4.449   3.725  13.349 -0.9138  0.4335 -1.4567
 4205TIP3    H234107   4.364   3.847  13.379 -0.4355  0.5041 -0.3590
 4206TIP3   OH234108   5.385   6.405  12.204 -0.4720 -0.7716  0.0671
 4206TIP3    H134109   5.360   6.325  12.251 -1.3214  0.8521  2.5028
 4206TIP3    H234110   5.471   6.427  12.239 -0.2302 -0.6209 -0.6143
 4207TIP3   OH234111   1.058   1.592  11.613 -0.3195  0.1281  0.2871
 4207TIP3    H134112   1.042   1.522  11.677  0.7779 -0.2035  0.2118
 4207TIP3    H234113   1.069   1.546  11.530 -1.0413  0.5051 -0.0162
 4208TIP3   OH234114   3.996   4.645  13.877 -0.4407 -0.0059 -0.1304
 4208TIP3    H134115   3.932   4.580  13.906  0.5422 -0.8148  0.2491
 4208TIP3    H234116   4.079   4.597  13.872 -0.0198  0.8079 -1.4700
 4209TIP3   OH234117   3.141   4.889  14.003  0.5147  0.1066  0.5141
 4209TIP3    H134118   3.094   4.948  14.062 -0.9264 -0.4925  0.0106
 4209TIP3    H234119   3.152   4.809  14.054 -0.6062 -0.3626  0.0353
 4210TIP3   OH234120   5.650   3.546  10.312  0.3895  0.0866 -0.0292
 4210TIP3    H134121   5.657   3.507  10.399 -2.1939  1.2950  0.7652
 4210TIP3    H234122   5.626   3.473  10.255  0.4608 -0.4017  0.5559
 4211TIP3   OH234123   2.726   4.455  12.463 -0.0078  0.2274  0.5898
 4211TIP3    H134124   2.688   4.531  12.418 -2.6959 -1.9578 -0.9727
 4211TIP3    H234125   2.780   4.412  12.397  0.0143 -0.2462  0.9117
 4212TIP3   OH234126   6.432   7.035  10.144 -0.2280  0.3970 -0.0196
 4212TIP3    H134127   6.435   7.101  10.074  1.6243 -0.0317 -0.3539
 4212TIP3    H234128   6.383   7.078  10.214 -1.9195  0.9201 -1.4788
 4213TIP3   OH234129   3.535   3.338  14.886 -0.4785  0.2434  0.0114
 4213TIP3    H134130   3.506   3.428  14.904  1.8305  0.5454  2.4859
 4213TIP3    H234131   3.630   3.345  14.877 -0.4141 -1.7755 -1.1625
 4214TIP3   OH234132   2.744   4.550  12.046 -0.0618 -0.1904  0.3053
 4214TIP3    H134133   2.766   4.625  12.102  2.0166 -0.5192 -0.0387
 4214TIP3    H234134   2.756   4.474  12.102 -1.1471 -0.3390  0.3453
 4215TIP3   OH234135   7.182   6.253  10.380 -0.2062  0.2937 -0.0196
 4215TIP3    H134136   7.126   6.233  10.455  0.3694 -1.3101 -0.0161
 4215TIP3    H234137   7.199   6.347  10.388 -1.1775  0.3843  1.1513
 4216TIP3   OH234138   4.658   0.488  13.378 -0.5488  0.1042 -0.4758
 4216TIP3    H134139   4.727   0.440  13.424 -2.9769 -2.2007  0.9226
 4216TIP3    H234140   4.641   0.564  13.433  0.5511  0.4456 -0.5954
 4217TIP3   OH234141   6.649   3.244  14.329  0.1419  0.0624  0.0618
 4217TIP3    H134142   6.726   3.193  14.354 -0.2407 -0.6504 -0.2020
 4217TIP3    H234143   6.680   3.334  14.327  0.1897  0.1841  3.1829
 4218TIP3   OH234144   6.665   2.326  15.146  0.4950  0.3658 -0.2008
 4218TIP3    H134145   6.744   2.378  15.159  0.7119 -0.0841  0.2816
 4218TIP3    H234146   6.622   2.325  15.232  0.7927 -0.7328 -0.0485
 4219TIP3   OH234147   2.873   6.818  14.876  0.5341 -0.1847  0.0802
 4219TIP3    H134148   2.847   6.748  14.936  3.1368 -2.1958 -1.0014
 4219TIP3    H234149   2.804   6.883  14.883 -1.7584 -2.6653  1.4857
 4220TIP3   OH234150   3.726   3.446  12.299  0.4971 -0.2360 -0.3440
 4220TIP3    H134151   3.754   3.420  12.211 -1.4231  0.0010 -1.0422
 4220TIP3    H234152   3.665   3.378  12.327  0.8573 -0.1512  0.6983
 4221TIP3   OH234153   1.195   2.491  13.542 -0.0515  0.5265 -0.8587
 4221TIP3    H134154   1.174   2.500  13.449 -0.5457 -0.7648 -0.8986
 4221TIP3    H234155   1.181   2.397  13.560  1.1451  0.5493  0.2464
 4222TIP3   OH234156   5.641   1.544  12.693 -0.0049 -0.1267 -0.1009
 4222TIP3    H134157   5.608   1.626  12.658 -0.8480 -0.7479 -0.8043
 4222TIP3    H234158   5.728   1.534  12.655  0.7607  1.2159  1.2573
 4223TIP3   OH234159   0.640   5.887  12.329  0.2574 -0.1139 -0.1364
 4223TIP3    H134160   0.622   5.856  12.240 -2.5616  1.8939 -0.3115
 4223TIP3    H234161   0.554   5.901  12.367  1.4583  0.8676  2.2987
 4224TIP3   OH234162   6.562   3.685  10.108 -0.0178 -0.2199  0.2608
 4224TIP3    H134163   6.506   3.696  10.184 -0.7384  0.7798 -0.3960
 4224TIP3    H234164   6.640   3.642  10.141 -1.3245 -1.9572  1.1172
 4225TIP3   OH234165   3.368   1.793  14.114  0.6460 -0.3200 -0.0372
 4225TIP3    H134166   3.362   1.861  14.180  1.7046 -0.4643  0.2203
 4225TIP3    H234167   3.388   1.840  14.033 -2.2503  0.0189 -0.6116
 4226TIP3   OH234168   3.359   3.937  12.458 -0.5561  0.1311  0.1628
 4226TIP3    H134169   3.354   3.869  12.391 -0.8806 -1.2871  1.6124
 4226TIP3    H234170   3.431   3.993  12.429 -0.5567 -0.5858 -1.2655
 4227TIP3   OH234171   5.216   5.345  13.074  0.2279 -0.1046  0.0624
 4227TIP3    H134172   5.203   5.267  13.020  0.3122  0.0555 -0.1894
 4227TIP3    H234173   5.152   5.408  13.041  0.1112 -0.0935  0.3126
 4228TIP3   OH234174   0.894   4.505  11.441  0.2296 -0.2187 -0.0045
 4228TIP3    H134175   0.878   4.506  11.347  1.3701  2.3648 -0.2058
 4228TIP3    H234176   0.926   4.417  11.459 -0.8521 -1.0253 -1.8680
 4229TIP3   OH234177   6.549   5.952  10.099 -1.0108 -0.6035  0.0881
 4229TIP3    H134178   6.480   5.985  10.157 -2.4683  0.3659 -2.1471
 4229TIP3    H234179   6.580   6.029  10.052 -0.5252 -1.5225 -1.1189
 4230TIP3   OH234180   2.148   5.236  11.338 -0.5739 -0.1453 -0.4130
 4230TIP3    H134181   2.168   5.265  11.428 -1.1730 -2.0059  0.3383
 4230TIP3    H234182   2.227   5.190  11.310 -1.4269 -2.0753  0.2547
 4231TIP3   OH234183   1.405   0.714  11.611  0.7495  0.2806  0.2018
 4231TIP3    H134184   1.376   0.712  11.520 -0.9660 -1.7023  0.7460
 4231TIP3    H234185   1.486   0.663  11.611  1.3728  1.2475 -0.3881
 4232TIP3   OH234186   2.610   3.185  12.075  0.1889 -0.3938 -0.2498
 4232TIP3    H134187   2.559   3.117  12.031 -0.0913  0.1992 -0.8498
 4232TIP3    H234188   2.658   3.227  12.004  0.8298 -0.3642  0.2014
 4233TIP3   OH234189   3.719   0.341  14.831  0.5157 -0.1148 -0.0745
 4233TIP3    H134190   3.770   0.422  14.825  1.8304 -0.7031  2.3368
 4233TIP3    H234191   3.659   0.356  14.904  0.3706 -1.0910  0.0131
 4234TIP3   OH234192   5.383   3.458  11.001  0.6482  0.2583  0.1497
 4234TIP3    H134193   5.462   3.437  10.949  0.5771  1.8497 -0.6317
 4234TIP3    H234194   5.317   3.479  10.935  0.2203  1.1543  0.8645
 4235TIP3   OH234195   1.779   4.136  12.784  0.2887 -0.1529 -0.4263
 4235TIP3    H134196   1.690   4.108  12.763 -0.7206  2.4523  0.1158
 4235TIP3    H234197   1.815   4.165  12.700 -0.7601  2.3551 -0.0501
 4236TIP3   OH234198   7.129   4.630  13.885  0.0724  0.2642 -0.6409
 4236TIP3    H134199   7.069   4.705  13.881 -1.9341 -1.3482 -1.9927
 4236TIP3    H234200   7.156   4.617  13.794  1.7292  0.3408 -0.1818
 4237TIP3   OH234201   0.069   4.218  12.027  0.0401  0.1888  0.0253
 4237TIP3    H134202  -0.012   4.200  11.979  0.0913  0.2004 -0.0669
 4237TIP3    H234203   0.139   4.200  11.963  0.0735  1.2148 -0.2257
 4238TIP3   OH234204   6.208   5.967  10.770 -0.7868  0.5104 -0.1237
 4238TIP3    H134205   6.237   6.012  10.690 -0.6763  2.1733  0.8465
 4238TIP3    H234206   6.252   6.013  10.841  0.7297 -2.2505  0.8025
 4239TIP3   OH234207   2.420   1.294  10.631 -0.1918  0.1070 -0.3097
 4239TIP3    H134208   2.353   1.236  10.666  0.1031  0.1983  0.4005
 4239TIP3    H234209   2.456   1.246  10.556  0.1472 -0.6832  0.3571
 4240TIP3   OH234210   1.335   4.914  10.989  0.2490 -0.3184  0.5272
 4240TIP3    H134211   1.284   4.901  10.909  0.3708  0.3477  0.3347
 4240TIP3    H234212   1.389   4.991  10.970  0.8626 -0.6488  0.9589
 4241TIP3   OH234213   4.098   0.910  10.566  0.5366  0.6230 -0.4823
 4241TIP3    H134214   4.019   0.856  10.556  0.6234  0.4721 -0.3691
 4241TIP3    H234215   4.068   0.990  10.608  0.3071  0.9120 -1.1967
 4242TIP3   OH234216   4.820   0.303  11.366 -0.0029  0.3359  0.2111
 4242TIP3    H134217   4.843   0.327  11.455 -0.4524  1.0423  0.1421
 4242TIP3    H234218   4.904   0.286  11.323  0.1994 -0.2892  0.8417
 4243TIP3   OH234219   5.725   3.132  11.987  0.2251  0.0780 -0.5992
 4243TIP3    H134220   5.630   3.131  11.981  0.1820 -2.3077  0.1400
 4243TIP3    H234221   5.744   3.180  12.068 -0.3554 -0.1181 -0.3503
 4244TIP3   OH234222   5.951   2.924   0.843  0.0070  0.4645 -0.8843
 4244TIP3    H134223   5.972   2.850   0.786 -1.5335 -1.7234  1.2860
 4244TIP3    H234224   5.951   2.887   0.931  3.9601  4.0866  0.8119
 4245TIP3   OH234225   1.139   0.201  10.868  0.3786  0.2931  0.4122
 4245TIP3    H134226   1.083   0.253  10.811  2.0458  0.4819 -1.0706
 4245TIP3    H234227   1.116   0.110  10.849 -0.8095  0.3999  1.2541
 4246TIP3   OH234228   5.064   6.666  11.387  0.3215 -0.1013  0.6161
 4246TIP3    H134229   5.101   6.581  11.361 -2.8531 -0.9177 -1.4476
 4246TIP3    H234230   5.116   6.692  11.464  3.2419 -2.5115 -0.4369
 4247TIP3   OH234231   6.684   2.404  12.236 -0.1039 -0.1816 -0.1324
 4247TIP3    H134232   6.751   2.462  12.200 -0.6604  0.3540 -0.3252
 4247TIP3    H234233   6.611   2.411  12.174 -1.7132  2.0199  1.9307
 4248TIP3   OH234234   1.471   5.103  11.340 -0.3785  0.3011  0.1054
 4248TIP3    H134235   1.399   5.041  11.353 -1.1858  0.3885 -3.3480
 4248TIP3    H234236   1.432   5.173  11.288  1.6605  1.4699  0.1180
 4249TIP3   OH234237   1.765   0.982   9.781  0.0606 -0.0584 -0.3193
 4249TIP3    H134238   1.816   1.048   9.733 -0.4949  1.1560  0.7159
 4249TIP3    H234239   1.830   0.935   9.833  0.1972  1.2024  0.6727
 4250TIP3   OH234240   1.732   0.034  12.350 -0.3152  0.0755 -0.1949
 4250TIP3    H134241   1.819   0.060  12.380 -0.5642 -1.3034  1.7615
 4250TIP3    H234242   1.743  -0.056  12.319 -1.0220 -0.0417 -0.1067
 4251TIP3   OH234243   3.594   3.028  11.947  0.2877  1.2308  0.1264
 4251TIP3    H134244   3.639   2.951  11.981 -1.4619  0.0492 -0.2182
 4251TIP3    H234245   3.517   2.994  11.902  0.2446  3.0835 -1.2644
 4252TIP3   OH234246   5.689   5.614  10.083  0.4741 -0.6762 -0.1093
 4252TIP3    H134247   5.663   5.551  10.015 -0.3725 -0.6510  0.1903
 4252TIP3    H234248   5.662   5.699  10.048  0.6036 -0.5953 -0.0144
 4253TIP3   OH234249   4.531   1.455  14.090  0.1464 -0.2240 -0.1552
 4253TIP3    H134250   4.610   1.421  14.132  2.1870  0.9205 -2.8508
 4253TIP3    H234251   4.501   1.383  14.035  0.8792  0.1985 -1.1332
 4254TIP3   OH234252   1.276   4.275  10.642 -0.1385 -0.4880  0.2026
 4254TIP3    H134253   1.332   4.352  10.646 -2.2323  0.9985  2.4329
 4254TIP3    H234254   1.189   4.310  10.622 -0.9717 -2.3616  0.4418
 4255TIP3   OH234255   1.283   3.737  14.683 -0.5373  0.2630 -0.2300
 4255TIP3    H134256   1.302   3.825  14.717  3.0886 -0.8964  0.9387
 4255TIP3    H234257   1.284   3.748  14.588 -1.1810  1.6850 -0.0932
 4256TIP3   OH234258   1.783   2.336  13.033 -0.6881  0.5925  0.6406
 4256TIP3    H134259   1.861   2.316  12.981 -0.2975  1.2961  0.9446
 4256TIP3    H234260   1.738   2.252  13.042 -0.5547  0.3921 -0.4895
 4257TIP3   OH234261   0.643   2.049  12.120 -0.2389  0.3921 -0.3414
 4257TIP3    H134262   0.721   2.028  12.170 -2.4098  2.2134  4.0267
 4257TIP3    H234263   0.626   1.969  12.069  3.5851 -0.5261 -0.3418
 4258TIP3   OH234264   1.944   2.390  14.709  0.1300  0.0502  0.4717
 4258TIP3    H134265   1.876   2.323  14.718 -1.2909  1.1806 -1.4761
 4258TIP3    H234266   1.913   2.463  14.761  0.1344  0.3475  0.0594
 4259TIP3   OH234267   5.402   4.946  10.625 -0.6263 -0.5127 -0.5620
 4259TIP3    H134268   5.337   4.940  10.555  0.4381 -0.8629 -1.5499
 4259TIP3    H234269   5.352   4.946  10.706 -1.9043  0.2125 -1.3420
 4260TIP3   OH234270   4.486   1.488  11.463 -0.6090 -0.3488  0.1240
 4260TIP3    H134271   4.571   1.443  11.469 -1.2959 -1.5188  1.3543
 4260TIP3    H234272   4.440   1.443  11.392  0.2297  1.0540 -1.3374
 4261TIP3   OH234273   6.260   5.406  12.893 -0.1902  0.1589 -0.1204
 4261TIP3    H134274   6.169   5.393  12.920 -0.3676  1.4964 -0.0548
 4261TIP3    H234275   6.265   5.368  12.805 -0.8296  0.1428 -0.1497
 4262TIP3   OH234276   2.455   2.306  11.510 -0.1285 -0.3522  0.2444
 4262TIP3    H134277   2.378   2.361  11.498  1.0976  1.8386  1.9931
 4262TIP3    H234278   2.432   2.247  11.582 -0.1692  0.3684  0.8332
 4263TIP3   OH234279   6.924   4.811  12.233  0.3134 -0.1587  0.0553
 4263TIP3    H134280   7.008   4.834  12.272  0.6414  0.1275 -0.8144
 4263TIP3    H234281   6.881   4.896  12.217 -1.0275 -0.3315  2.3842
 4264TIP3   OH234282   4.685   2.466  11.165  0.1016 -0.2585  0.0665
 4264TIP3    H134283   4.740   2.388  11.174  0.2106 -0.1457  0.3653
 4264TIP3    H234284   4.677   2.500  11.254  0.6584  0.4905 -0.1686
 4265TIP3   OH234285   4.438   0.985  14.116 -0.7388 -0.0746 -0.0041
 4265TIP3    H134286   4.413   0.917  14.178  0.6207 -1.2086 -0.6703
 4265TIP3    H234287   4.526   0.960  14.087 -0.9546  0.9770 -1.6320
 4266TIP3   OH234288   0.433   3.686  14.317 -0.0812 -0.5660 -0.4517
 4266TIP3    H134289   0.417   3.709  14.225 -1.6166 -0.7358 -0.2416
 4266TIP3    H234290   0.380   3.748  14.367  0.6611 -0.5508  0.3228
 4267TIP3   OH234291   5.948   3.083  12.783  0.3483  0.5705  0.0744
 4267TIP3    H134292   5.980   3.108  12.869 -0.2206 -0.7023  0.6688
 4267TIP3    H234293   5.856   3.110  12.782 -0.3070 -1.4880  0.7669
 4268TIP3   OH234294   5.029   5.767  13.864  0.5007 -0.5225 -0.3612
 4268TIP3    H134295   5.034   5.713  13.785  0.5150 -1.2379  0.1252
 4268TIP3    H234296   5.112   5.751  13.910 -0.3161 -1.6316  0.7697
 4269TIP3   OH234297   2.859   4.059   9.970 -0.3865 -0.0773  0.1347
 4269TIP3    H134298   2.947   4.024   9.984 -0.6026 -0.5073  0.4020
 4269TIP3    H234299   2.807   4.025  10.043  0.1213  3.2857  2.2088
 4270TIP3   OH234300   0.275   2.168  13.359 -0.4897 -0.3057 -0.4325
 4270TIP3    H134301   0.285   2.250  13.407 -1.2965  0.5485 -1.7016
 4270TIP3    H234302   0.347   2.169  13.296  1.2492 -1.9428  1.4175
 4271TIP3   OH234303   2.008   1.578   0.170  0.3490 -0.5407 -0.3288
 4271TIP3    H134304   2.076   1.549   0.231  1.6038  0.2264 -1.3608
 4271TIP3    H234305   1.926   1.546   0.210  1.0862  0.3588  2.0299
 4272TIP3   OH234306   0.717   1.613  10.712  0.3570 -0.1749  0.7234
 4272TIP3    H134307   0.747   1.700  10.688 -2.2909  0.1347 -1.8538
 4272TIP3    H234308   0.655   1.590  10.643  0.0069 -3.5536  2.0808
 4273TIP3   OH234309   0.394   0.940  11.883 -0.0495 -0.0329 -0.8445
 4273TIP3    H134310   0.457   0.922  11.813  0.3740 -0.4525 -0.3556
 4273TIP3    H234311   0.433   1.013  11.932 -0.2763  0.1657 -0.9597
 4274TIP3   OH234312   0.710   1.744  13.276 -0.3741 -0.0496  0.2193
 4274TIP3    H134313   0.636   1.745  13.215  0.0665  0.4967 -0.3126
 4274TIP3    H234314   0.765   1.818  13.248 -0.3626  0.4356  1.5186
 4275TIP3   OH234315   3.949   3.991  12.039 -0.4081  0.0769 -0.0200
 4275TIP3    H134316   3.897   3.996  11.959  1.1272 -1.1827 -1.1392
 4275TIP3    H234317   3.911   3.917  12.087 -1.8871  1.3753  0.8568
 4276TIP3   OH234318   3.415   0.290  13.877 -0.0966  0.3961 -0.8176
 4276TIP3    H134319   3.418   0.221  13.810 -4.2104 -0.6006 -0.0901
 4276TIP3    H234320   3.413   0.242  13.960 -2.9593  1.3391 -0.3017
 4277TIP3   OH234321   1.145   0.216   9.620 -0.6434  0.1037  0.7189
 4277TIP3    H134322   1.197   0.296   9.609 -0.1241 -0.2153  0.8210
 4277TIP3    H234323   1.140   0.179   9.532  0.7379 -0.7430  0.9806
 4278TIP3   OH234324   0.347   2.127  15.407 -0.7153  0.2282  0.2051
 4278TIP3    H134325   0.442   2.139  15.408 -0.7733  0.7388  0.1489
 4278TIP3    H234326   0.327   2.096  15.319 -0.1973 -3.5665  1.3480
 4279TIP3   OH234327   5.729   1.796  12.147 -0.5569  1.0821  0.2458
 4279TIP3    H134328   5.812   1.833  12.177 -0.7194  0.9404  0.8845
 4279TIP3    H234329   5.729   1.809  12.052  1.4659 -1.4503 -0.1556
 4280TIP3   OH234330   2.499   4.745  12.080 -0.9008  0.4069 -0.0519
 4280TIP3    H134331   2.412   4.719  12.109 -0.6392 -0.9511 -0.4214
 4280TIP3    H234332   2.491   4.756  11.985 -0.3102 -1.3833 -0.3420
 4281TIP3   OH234333   2.097   3.995  11.363 -0.1491 -0.2199  0.1357
 4281TIP3    H134334   2.182   3.994  11.318 -0.3375  1.7141 -0.3211
 4281TIP3    H234335   2.039   3.946  11.305 -0.1909  1.5601 -1.3647
 4282TIP3   OH234336   5.438   2.851  10.494 -0.3142  0.0001 -0.4874
 4282TIP3    H134337   5.520   2.882  10.456 -0.7316 -0.5474 -1.8834
 4282TIP3    H234338   5.409   2.782  10.434 -1.7366  0.1283  0.0441
 4283TIP3   OH234339   2.930   5.966  10.232 -0.0490 -0.0703 -0.3763
 4283TIP3    H134340   3.005   5.919  10.197 -0.2554  0.7202 -1.9109
 4283TIP3    H234341   2.903   5.914  10.308  1.4591 -0.8704 -0.3654
 4284TIP3   OH234342   3.278   4.879   0.017  0.1956  0.6320  0.2364
 4284TIP3    H134343   3.207   4.863   0.079 -1.1202  2.1163 -0.8306
 4284TIP3    H234344   3.358   4.863   0.066 -0.8757 -1.7902  1.2645
 4285TIP3   OH234345   0.458   4.203  14.002  0.1282 -0.1316 -0.4876
 4285TIP3    H134346   0.419   4.169  14.083  0.3688  2.8154  0.9319
 4285TIP3    H234347   0.383   4.231  13.950  0.1239  1.1084  0.1809
 4286TIP3   OH234348   1.794   1.794  11.102 -0.0675 -0.1746 -0.5880
 4286TIP3    H134349   1.798   1.889  11.091 -0.0540 -0.0841  0.1353
 4286TIP3    H234350   1.757   1.761  11.020 -0.3548  0.4852 -0.7257
 4287TIP3   OH234351   2.666   7.179  14.429 -0.0829 -0.0483 -0.1807
 4287TIP3    H134352   2.737   7.147  14.484  0.4173  0.1942 -0.6810
 4287TIP3    H234353   2.621   7.099  14.400  0.3370 -0.2313 -0.3351
 4288TIP3   OH234354   5.908   3.504  11.406 -1.2235  0.4549  0.1528
 4288TIP3    H134355   5.935   3.587  11.366 -2.1394  0.0867 -1.2850
 4288TIP3    H234356   5.838   3.471  11.348 -1.0206 -1.2054  0.8154
 4289TIP3   OH234357   4.712   4.045  14.847 -0.1575 -0.6981  0.1296
 4289TIP3    H134358   4.777   4.113  14.864 -0.1038 -1.0005  1.1340
 4289TIP3    H234359   4.703   4.044  14.751 -1.6923  2.1498  0.2011
 4290TIP3   OH234360   3.052   0.082  11.659 -0.0172 -0.0917 -0.3906
 4290TIP3    H134361   3.062   0.062  11.566  1.0837 -2.2996  0.1667
 4290TIP3    H234362   2.966   0.125  11.665 -0.2502 -0.2438 -2.3716
 4291TIP3   OH234363   3.742   5.911  11.705  0.5662 -0.3741 -0.2486
 4291TIP3    H134364   3.694   5.841  11.749  2.0636 -1.5750 -0.4632
 4291TIP3    H234365   3.720   5.990  11.754 -0.7216 -1.0895  0.3374
 4292TIP3   OH234366   1.366   3.414  13.503  0.4659  0.1270  0.1398
 4292TIP3    H134367   1.275   3.438  13.486  0.5805  0.3534 -0.1596
 4292TIP3    H234368   1.400   3.388  13.417  0.4230 -0.8288  0.4133
 4293TIP3   OH234369   3.829   4.077   0.417 -0.4162 -0.0619 -0.1929
 4293TIP3    H134370   3.794   3.998   0.457  0.4060 -0.3607 -0.0511
 4293TIP3    H234371   3.814   4.145   0.483  0.1818 -0.3893  0.2889
 4294TIP3   OH234372   1.991   5.456  10.318 -0.1378  0.4532  0.2483
 4294TIP3    H134373   1.926   5.406  10.268 -1.1653  2.1698 -0.1788
 4294TIP3    H234374   2.067   5.461  10.260 -0.8423  1.2772 -0.6299
 4295TIP3   OH234375   5.286   3.008  10.887  0.5216 -0.4633 -0.4110
 4295TIP3    H134376   5.284   2.920  10.850  2.9756 -1.0127  0.7027
 4295TIP3    H234377   5.228   3.059  10.830 -0.6920 -2.7042 -1.2496
 4296TIP3   OH234378   0.348   3.653  13.634 -0.1811 -0.1486 -0.4421
 4296TIP3    H134379   0.252   3.647  13.634 -0.1505 -0.7202  0.1305
 4296TIP3    H234380   0.366   3.742  13.602 -0.9040  0.0296 -0.3775
 4297TIP3   OH234381   1.939   7.035  12.734 -0.4662  0.4695  0.2266
 4297TIP3    H134382   1.940   7.103  12.666  1.4221 -2.0408 -2.3695
 4297TIP3    H234383   1.891   6.962  12.694  0.0382 -0.7926  1.8697
 4298TIP3   OH234384   0.371   3.466  11.511 -0.5640 -0.0807 -0.0181
 4298TIP3    H134385   0.438   3.516  11.464 -0.0097 -1.1918 -0.4270
 4298TIP3    H234386   0.317   3.428  11.442 -0.2177 -1.0836  0.2589
 4299TIP3   OH234387   2.037   2.228  15.463 -0.0056 -0.4493 -0.2421
 4299TIP3    H134388   2.016   2.164  15.531 -0.8185  0.6029  0.5026
 4299TIP3    H234389   2.126   2.205  15.436  0.1605 -1.1488  0.8706
 4300TIP3   OH234390   3.587   3.121  10.543  0.2368  0.1647  0.2088
 4300TIP3    H134391   3.512   3.072  10.576  0.4183 -0.2693 -0.0336
 4300TIP3    H234392   3.599   3.091  10.454 -0.5931  1.7423 -0.4700
 4301TIP3   OH234393   1.614   1.384   1.657 -0.0815  0.2407  0.0346
 4301TIP3    H134394   1.576   1.339   1.581 -0.4006 -1.4415  1.1533
 4301TIP3    H234395   1.542   1.391   1.720  1.0465 -1.7612  1.6353
 4302TIP3   OH234396   6.663   1.422  13.156 -0.2523 -0.2075 -0.1962
 4302TIP3    H134397   6.755   1.400  13.168 -0.6746 -0.8244  2.1200
 4302TIP3    H234398   6.662   1.518  13.152  0.6828 -0.2468 -2.3266
 4303TIP3   OH234399   5.258   0.342  11.037 -0.3728  0.1643 -0.1575
 4303TIP3    H134400   5.352   0.345  11.055 -0.3256  0.3380 -0.4320
 4303TIP3    H234401   5.234   0.434  11.021 -0.0519 -0.1924 -2.8718
 4304TIP3   OH234402   4.996   6.540  14.915 -0.4832  0.0654  0.6869
 4304TIP3    H134403   4.994   6.631  14.944 -0.2828 -0.1158  1.2786
 4304TIP3    H234404   5.085   6.528  14.881  0.0338 -0.3792  2.1612
 4305TIP3   OH234405   6.782   0.828  13.010 -0.1281  0.4415  0.0892
 4305TIP3    H134406   6.780   0.753  12.951  1.4770  0.4342  0.0214
 4305TIP3    H234407   6.703   0.819  13.063 -1.1249 -0.0539 -1.4287
 4306TIP3   OH234408   4.030   4.589   0.852 -0.1212  0.6118  0.1632
 4306TIP3    H134409   4.125   4.599   0.861  0.2395 -0.3675 -2.1376
 4306TIP3    H234410   3.993   4.655   0.910  1.9668  0.7646  1.3572
 4307TIP3   OH234411   0.497   1.262  11.689  0.0446  0.0068  0.4085
 4307TIP3    H134412   0.499   1.185  11.631  1.5378  0.1067  0.3293
 4307TIP3    H234413   0.468   1.333  11.632 -2.3109 -0.6551  0.7027
 4308TIP3   OH234414   6.033   0.967  11.071  0.0614  0.1582 -0.2610
 4308TIP3    H134415   6.063   0.893  11.018 -0.1196  0.2110 -0.4373
 4308TIP3    H234416   6.043   1.043  11.014  0.2002  0.2625 -0.0960
 4309TIP3   OH234417   1.523   2.114  12.849  0.3830 -0.0354  0.3233
 4309TIP3    H134418   1.570   2.093  12.929 -0.9179 -0.6412  0.9309
 4309TIP3    H234419   1.587   2.098  12.779  1.8400  1.4556  1.2791
 4310TIP3   OH234420   1.634   2.492  12.844 -0.7846  0.1583 -0.0164
 4310TIP3    H134421   1.683   2.426  12.893 -0.8503 -0.4118 -0.7078
 4310TIP3    H234422   1.629   2.457  12.755 -1.4952  0.7241 -0.2056
 4311TIP3   OH234423   1.451   0.978  14.856 -0.0325  0.2476  0.0078
 4311TIP3    H134424   1.448   0.883  14.866  0.1551  0.1599 -0.7662
 4311TIP3    H234425   1.542   1.001  14.872 -0.1719  0.3508  0.6609
 4312TIP3   OH234426   4.643   3.754   1.378 -0.1020 -0.0562  0.2761
 4312TIP3    H134427   4.562   3.763   1.327  0.3043 -2.5164 -0.8907
 4312TIP3    H234428   4.713   3.775   1.316  0.3060 -1.2022  0.3345
 4313TIP3   OH234429   1.288   6.319  11.708 -0.3450 -0.0085 -0.0920
 4313TIP3    H134430   1.238   6.280  11.779  0.0252  1.2998  0.8962
 4313TIP3    H234431   1.229   6.316  11.633 -0.5849 -1.7904  0.1426
 4314TIP3   OH234432   5.220   4.624  14.431 -0.2848  0.2337  0.2586
 4314TIP3    H134433   5.148   4.561  14.423  0.2563 -0.4585  0.8068
 4314TIP3    H234434   5.281   4.599  14.362  0.7082 -0.8794  1.5200
 4315TIP3   OH234435   5.373   5.847   0.991  0.4355 -0.2376  0.0618
 4315TIP3    H134436   5.353   5.852   1.084 -0.2135  1.0163 -0.1418
 4315TIP3    H234437   5.350   5.757   0.967 -0.4384 -0.2437  0.8776
 4316TIP3   OH234438   1.887   0.400  11.026  0.1464  0.3527  0.1964
 4316TIP3    H134439   1.959   0.347  11.061 -0.0248  0.7468  1.1706
 4316TIP3    H234440   1.828   0.336  10.986  0.5914 -0.0642  0.1949
 4317TIP3   OH234441   3.487   4.256  12.587  0.6952  0.2869  0.0104
 4317TIP3    H134442   3.529   4.315  12.649  0.2885 -0.1569  0.7167
 4317TIP3    H234443   3.533   4.173  12.596 -0.1609 -0.1331  0.6144
 4318TIP3   OH234444   4.533   4.815   9.642 -0.2397  0.8092  0.2120
 4318TIP3    H134445   4.493   4.728   9.648 -1.6193  1.4093  0.0122
 4318TIP3    H234446   4.597   4.807   9.571 -1.0980  0.2245 -0.5223
 4319TIP3   OH234447   3.240   3.747  10.617 -0.2365 -0.0517  0.5135
 4319TIP3    H134448   3.287   3.664  10.613  0.7310  0.5663 -1.6203
 4319TIP3    H234449   3.285   3.797  10.686 -1.2587 -1.5035  2.2998
 4320TIP3   OH234450   0.415   3.293  11.727 -0.1532 -0.3671 -0.0475
 4320TIP3    H134451   0.344   3.250  11.774 -0.5642  1.5267  1.1405
 4320TIP3    H234452   0.374   3.329  11.648 -0.5272  0.6468  0.5926
 4321TIP3   OH234453   4.745   4.593   2.021  0.1386  0.1590  0.1899
 4321TIP3    H134454   4.817   4.583   2.083  0.7720 -2.4593 -0.9290
 4321TIP3    H234455   4.679   4.530   2.050 -0.1159 -0.1392 -1.0114
 4322TIP3   OH234456   3.938   5.546  11.563  0.2185 -0.3932  0.2375
 4322TIP3    H134457   3.907   5.544  11.472  0.1993 -0.6324  0.2483
 4322TIP3    H234458   3.886   5.478  11.607 -2.3662  2.1576  1.2615
 4323TIP3   OH234459   4.185   5.063  10.289  0.4496  0.7208  0.5378
 4323TIP3    H134460   4.188   5.129  10.220  0.1490  0.8972  0.6857
 4323TIP3    H234461   4.261   5.007  10.274  0.7874  1.1881  0.4930
 4324TIP3   OH234462   2.940   1.372   9.916  0.0145  0.2624  0.0738
 4324TIP3    H134463   2.921   1.283   9.886 -0.1938  0.6011 -0.7957
 4324TIP3    H234464   2.859   1.421   9.902 -0.1835  0.3576  1.4696
 4325TIP3   OH234465   4.580   0.536  11.677 -0.2623 -0.0135 -0.4102
 4325TIP3    H134466   4.550   0.615  11.723 -0.4725  0.3785 -1.2116
 4325TIP3    H234467   4.632   0.489  11.742  0.7521  1.3056 -0.2436
 4326TIP3   OH234468   1.268   2.750  12.071  0.0325 -0.0738 -0.3018
 4326TIP3    H134469   1.248   2.697  12.149  0.4802 -1.1126 -0.8866
 4326TIP3    H234470   1.206   2.720  12.005 -0.9696  1.4609 -0.0807
 4327TIP3   OH234471   0.249   0.749  10.418  0.3378  0.0514  0.3657
 4327TIP3    H134472   0.165   0.712  10.443 -0.1703  0.6635 -0.4105
 4327TIP3    H234473   0.288   0.683  10.360 -1.5015  1.5631 -2.7667
 4328TIP3   OH234474   2.839   5.820  11.639  0.2717 -0.5970  0.7463
 4328TIP3    H134475   2.892   5.897  11.616  0.9302 -1.3300 -0.2262
 4328TIP3    H234476   2.876   5.749  11.586 -0.6473 -1.4740  1.2748
 4329TIP3   OH234477   2.480   4.096  10.997 -0.1468 -0.4500 -0.8625
 4329TIP3    H134478   2.391   4.067  10.977 -0.8163  0.1104  1.1506
 4329TIP3    H234479   2.470   4.154  11.073  1.7551  0.9297 -1.6190
 4330TIP3   OH234480   3.711   6.589  10.065 -0.8596 -0.0786  0.0940
 4330TIP3    H134481   3.691   6.519  10.003 -1.4570  1.1814 -1.1654
 4330TIP3    H234482   3.649   6.658  10.044 -1.3800  0.2056  2.4326
 4331TIP3   OH234483   1.164   3.594  11.651 -0.2309  0.4049  0.0936
 4331TIP3    H134484   1.231   3.575  11.586 -0.0736  0.1214  0.3386
 4331TIP3    H234485   1.186   3.539  11.726 -0.0377  1.2117  0.6402
 4332TIP3   OH234486   2.346   6.839  13.368  0.2668  0.2742  0.4851
 4332TIP3    H134487   2.312   6.872  13.451  1.2316  1.4834  0.4181
 4332TIP3    H234488   2.365   6.918  13.317 -1.8302 -0.4628 -1.5337
 4333TIP3   OH234489   3.646   4.737  14.149  0.4189 -0.3310  0.1893
 4333TIP3    H134490   3.607   4.820  14.119  1.2863 -0.2416 -0.6961
 4333TIP3    H234491   3.705   4.711  14.078  2.6778  0.0009  1.8881
 4334TIP3   OH234492   2.966   0.664  12.702  0.4524  0.2341  0.3603
 4334TIP3    H134493   2.979   0.687  12.794  0.9537  1.1507  0.0655
 4334TIP3    H234494   2.875   0.689  12.684  0.1513 -0.5298  0.7679
 4335TIP3   OH234495   0.258   4.015  12.773  0.1123 -0.4903 -0.0494
 4335TIP3    H134496   0.196   3.956  12.730  0.6778 -0.6954 -0.5745
 4335TIP3    H234497   0.224   4.103  12.752  1.2546 -0.5358 -2.2454
 4336TIP3   OH234498   3.253   5.182  10.455  0.1499 -0.4803  0.7317
 4336TIP3    H134499   3.286   5.127  10.385  0.4883  0.6554 -0.0094
 4336TIP3    H234500   3.182   5.131  10.495 -0.0016 -1.1435 -0.3844
 4337TIP3   OH234501   3.393   4.691   9.867 -0.0898  0.0350 -0.5258
 4337TIP3    H134502   3.308   4.693   9.911  0.0046  1.8060 -0.4004
 4337TIP3    H234503   3.421   4.599   9.874 -1.6036 -0.3913  0.1536
 4338TIP3   OH234504   4.206   4.310  13.131 -0.0891 -0.4109  0.1793
 4338TIP3    H134505   4.292   4.274  13.155  0.0528  0.1392  0.5000
 4338TIP3    H234506   4.152   4.297  13.208  0.4949  1.7700  1.0095
 4339TIP3   OH234507   3.251   3.423  10.055 -0.4259  0.0458  0.6605
 4339TIP3    H134508   3.231   3.514  10.076 -1.6496 -0.0463 -0.0319
 4339TIP3    H234509   3.241   3.417   9.960 -1.3666 -1.0433  0.8131
 4340TIP3   OH234510   7.139   2.506   1.161 -0.3230  0.1762 -0.4393
 4340TIP3    H134511   7.082   2.540   1.229  1.2443  1.0105  0.4772
 4340TIP3    H234512   7.218   2.560   1.166  0.7246 -1.2280 -1.3880
 4341TIP3   OH234513   3.370   2.595  11.256  1.1477 -0.2548  0.2279
 4341TIP3    H134514   3.337   2.506  11.239 -1.6127  0.7852 -0.1790
 4341TIP3    H234515   3.437   2.609  11.189  2.6799 -2.5408  1.2108
 4342TIP3   OH234516   2.963   5.270  11.260 -0.0500 -0.2677 -0.4596
 4342TIP3    H134517   3.010   5.223  11.191  0.2766 -1.9265  0.8508
 4342TIP3    H234518   2.924   5.201  11.314 -0.2250  0.9852  1.0601
 4343TIP3   OH234519   6.361   0.129  12.557  0.1800  0.5818 -0.2883
 4343TIP3    H134520   6.279   0.079  12.560  0.0330  0.8507  0.3278
 4343TIP3    H234521   6.404   0.100  12.476  0.2803 -0.8179  0.2456
 4344TIP3   OH234522   7.153   5.091  13.814  0.2491  0.2483  0.1700
 4344TIP3    H134523   7.205   5.012  13.828  2.2116  1.6329  0.9182
 4344TIP3    H234524   7.214   5.164  13.829 -1.1612  1.9260 -1.8642
 4345TIP3   OH234525   1.238   0.713  11.860 -0.6459  0.2167  0.0592
 4345TIP3    H134526   1.251   0.619  11.867 -0.3136  0.0957 -1.8066
 4345TIP3    H234527   1.282   0.737  11.778  0.0704  2.1381  0.9839
 4346TIP3   OH234528   6.483   3.173  13.733  0.0700  0.5837  0.0432
 4346TIP3    H134529   6.533   3.092  13.747 -1.3511 -0.2269  0.5745
 4346TIP3    H234530   6.537   3.241  13.772  1.3879 -0.0693 -0.5887
 4347TIP3   OH234531   4.429   5.506  12.916  0.2301 -0.2205 -0.4680
 4347TIP3    H134532   4.354   5.525  12.973  0.3093  1.4237 -0.9133
 4347TIP3    H234533   4.411   5.418  12.882 -1.2202 -0.0679 -0.1341
 4348TIP3   OH234534   4.850   5.951  10.309 -0.0044 -0.3725 -0.3183
 4348TIP3    H134535   4.825   5.861  10.290  2.7175 -1.3088  0.3125
 4348TIP3    H234536   4.944   5.954  10.292  0.0133  2.2686  0.0000
 4349TIP3   OH234537   0.995   0.692  11.431 -0.0828  0.6744  0.3530
 4349TIP3    H134538   0.902   0.714  11.431 -0.4732 -0.8767  0.0184
 4349TIP3    H234539   1.019   0.687  11.339  0.3500  1.1427  0.4399
 4350TIP3   OH234540   2.165   1.278  10.026  0.1324 -0.4988 -0.7107
 4350TIP3    H134541   2.237   1.337  10.005 -2.2567  2.6728 -0.3098
 4350TIP3    H234542   2.109   1.280   9.949 -2.2130  1.2896  0.9763
 4351TIP3   OH234543   3.242   3.539  11.935 -0.1589  0.3239 -0.5918
 4351TIP3    H134544   3.330   3.502  11.942  0.4793  1.9786  0.3370
 4351TIP3    H234545   3.209   3.541  12.026 -0.2981  1.7400 -0.6630
 4352TIP3   OH234546   6.906   1.005  13.977  0.2783  0.5370 -0.1208
 4352TIP3    H134547   6.911   1.096  13.946 -2.8680  0.3779 -1.2921
 4352TIP3    H234548   6.941   0.953  13.904  2.0784  0.7863  0.5492
 4353TIP3   OH234549   2.787   4.996  13.404  0.3470  0.1892  0.1639
 4353TIP3    H134550   2.732   5.038  13.338  0.4024  0.4223  0.2672
 4353TIP3    H234551   2.775   5.049  13.483  0.4362  0.0270  0.2879
 4354TIP3   OH234552   4.074   4.296  13.751 -0.3445 -0.6244  0.1175
 4354TIP3    H134553   4.033   4.222  13.707 -2.4924  0.3187  0.4631
 4354TIP3    H234554   4.014   4.318  13.822  0.3784  1.2874  0.1767
 4355TIP3   OH234555   3.552   4.815  11.307  0.3395  0.0199  0.1710
 4355TIP3    H134556   3.591   4.799  11.221  1.0510  2.0297  0.0900
 4355TIP3    H234557   3.474   4.759  11.309 -1.0414  1.7544 -2.7477
 4356TIP3   OH234558   4.311   4.136  11.117  0.3424  0.1298  0.0520
 4356TIP3    H134559   4.247   4.065  11.125  0.0652  0.3155 -0.5015
 4356TIP3    H234560   4.393   4.098  11.150  0.1485 -0.3870 -0.0489
 4357TIP3   OH234561   6.731   4.295  10.575 -0.5263 -0.4833 -0.2389
 4357TIP3    H134562   6.650   4.339  10.549 -1.2388 -1.7373 -0.1631
 4357TIP3    H234563   6.799   4.338  10.523 -0.9466  1.8884  1.0984
 4358TIP3   OH234564   4.665   1.821  10.933  0.2266  0.4815  0.0599
 4358TIP3    H134565   4.739   1.819  10.994  0.6778 -1.1254 -0.5020
 4358TIP3    H234566   4.588   1.830  10.988  0.7005  0.0264  0.7967
 4359TIP3   OH234567   6.310   1.966   9.617 -0.0814 -0.1123 -0.9493
 4359TIP3    H134568   6.325   1.872   9.607  0.0438 -0.2210  0.1461
 4359TIP3    H234569   6.287   1.996   9.530 -0.2889 -1.1977 -1.2812
 4360TIP3   OH234570   6.275   2.183  11.117  0.3134 -0.5088  0.5954
 4360TIP3    H134571   6.229   2.100  11.102  0.1770 -0.8889  2.9798
 4360TIP3    H234572   6.346   2.161  11.176  0.2454  1.0883  1.2904
 4361TIP3   OH234573   4.458   6.078  11.295  0.2154 -0.2308  0.2030
 4361TIP3    H134574   4.423   6.008  11.350 -2.9072  2.2021  1.4457
 4361TIP3    H234575   4.383   6.111  11.246  2.0429  0.8568 -2.0136
 4362TIP3   OH234576   3.785   3.336  10.456 -0.0333  0.4066 -0.3157
 4362TIP3    H134577   3.859   3.326  10.396  0.2272  1.5721 -0.2039
 4362TIP3    H234578   3.725   3.265  10.432  1.0664 -0.4731 -0.4784
 4363TIP3   OH234579   3.380   1.526  11.613  0.0329  0.0305  0.0687
 4363TIP3    H134580   3.360   1.449  11.666  2.3403 -0.9905 -0.5141
 4363TIP3    H234581   3.304   1.535  11.555 -0.3383 -1.7215  0.2447
 4364TIP3   OH234582   0.416   5.166  11.737 -0.2051 -0.1016 -0.0585
 4364TIP3    H134583   0.423   5.070  11.742  1.0668  0.0283  1.1719
 4364TIP3    H234584   0.343   5.187  11.796  0.7714 -0.1829  1.1962
 4365TIP3   OH234585   0.830   5.516  12.183  0.6510 -0.7889 -0.5478
 4365TIP3    H134586   0.763   5.479  12.126 -2.2713  2.2551  0.7763
 4365TIP3    H234587   0.813   5.477  12.269  1.1073 -0.6229 -0.3796
 4366TIP3   OH234588   6.459   2.318  12.102 -0.1063  0.2939  0.1342
 4366TIP3    H134589   6.469   2.273  12.018  1.1128 -1.1104  1.0184
 4366TIP3    H234590   6.423   2.252  12.160 -0.9078  1.2565  0.7512
 4367TIP3   OH234591   2.327   1.744  14.227  0.5959 -0.0515  0.1435
 4367TIP3    H134592   2.377   1.747  14.146  0.0234  0.1415 -0.2030
 4367TIP3    H234593   2.243   1.782  14.205  1.1065  1.8346  1.3110
 4368TIP3   OH234594   5.647   0.228  11.651  0.3738  0.4895  0.3307
 4368TIP3    H134595   5.703   0.174  11.596 -0.8312 -0.6596  0.2015
 4368TIP3    H234596   5.666   0.200  11.740  1.2517  1.3188  0.4145
 4369TIP3   OH234597   3.324   6.942  11.272 -0.9512 -0.1426 -0.2341
 4369TIP3    H134598   3.416   6.958  11.292 -0.2184 -2.3434 -1.7333
 4369TIP3    H234599   3.291   7.025  11.239  0.9390  0.1969 -1.2922
 4370TIP3   OH234600   4.086   1.794  14.278  0.6512 -0.3349 -0.2502
 4370TIP3    H134601   4.040   1.758  14.353  0.9665  0.4082  0.3049
 4370TIP3    H234602   4.169   1.747  14.275  1.2458  0.6144  0.7306
 4371TIP3   OH234603   3.629   4.679  13.394  0.5471  0.9915 -0.3290
 4371TIP3    H134604   3.713   4.700  13.353 -1.2372  3.3008 -3.0068
 4371TIP3    H234605   3.568   4.743  13.358 -2.7212 -1.5838  0.3710
 4372TIP3   OH234606   0.715   2.083  12.729  0.1818 -0.0397  0.3529
 4372TIP3    H134607   0.637   2.057  12.779 -1.1284 -0.7525 -1.9966
 4372TIP3    H234608   0.780   2.016  12.751 -0.8719 -1.2251 -0.0727
 4373TIP3   OH234609   3.870   0.447  10.143  0.1516 -0.0032  0.0010
 4373TIP3    H134610   3.928   0.472  10.071 -1.5793  0.5528 -1.2151
 4373TIP3    H234611   3.857   0.353  10.133  0.7078 -0.1050  0.1958
 4374TIP3   OH234612   1.347   5.239  14.831 -0.3249 -0.0328  1.2542
 4374TIP3    H134613   1.386   5.289  14.903  0.2490  1.5255 -0.1224
 4374TIP3    H234614   1.386   5.276  14.752  1.4557 -3.8391  0.2690
 4375TIP3   OH234615   4.519   5.732  14.236 -0.3790 -0.0636 -0.1616
 4375TIP3    H134616   4.459   5.690  14.175  2.2502 -1.1417 -2.1299
 4375TIP3    H234617   4.553   5.807  14.189  0.6432 -0.1043  0.4811
 4376TIP3   OH234618   0.608   2.278  13.388  0.6173  0.1536 -0.1385
 4376TIP3    H134619   0.540   2.342  13.408 -0.6027 -1.1446 -0.0170
 4376TIP3    H234620   0.611   2.222  13.465  1.2940 -0.2510 -0.4541
 4377TIP3   OH234621   3.881   3.842  10.979  0.1202 -0.0519  0.0363
 4377TIP3    H134622   3.797   3.798  10.984 -0.3358  0.6938 -0.9119
 4377TIP3    H234623   3.937   3.782  10.931 -0.1183 -0.1595 -0.1056
 4378TIP3   OH234624   2.000   1.845  10.135 -0.3287  0.0816  0.5407
 4378TIP3    H134625   1.948   1.782  10.186  0.2913 -1.1827 -0.3791
 4378TIP3    H234626   1.940   1.875  10.067 -0.4121 -0.0236  0.5676
 4379TIP3   OH234627   3.470   0.308  12.286  0.6512 -0.3390 -0.5432
 4379TIP3    H134628   3.411   0.337  12.356  1.7218 -2.0626  1.1539
 4379TIP3    H234629   3.444   0.359  12.210 -0.2166  1.9868  1.2373
 4380TIP3   OH234630   5.293   2.298  11.214 -0.1044  0.5213  0.2578
 4380TIP3    H134631   5.252   2.353  11.281  0.8056  1.7336 -0.1689
 4380TIP3    H234632   5.363   2.252  11.261 -2.3627 -2.1296  1.1637
 4381TIP3   OH234633   3.512   1.896  10.918  0.2508  0.3412  0.1632
 4381TIP3    H134634   3.511   1.844  10.998  1.3319 -0.6036 -0.4243
 4381TIP3    H234635   3.504   1.833  10.848  1.2061  0.9951 -0.5461
 4382TIP3   OH234636   2.507   6.073  12.836 -0.3501  0.2877  0.6044
 4382TIP3    H134637   2.555   5.990  12.828 -0.2905  0.2768  1.0810
 4382TIP3    H234638   2.555   6.134  12.781 -0.6990 -0.1325 -0.1865
 4383TIP3   OH234639   3.014   3.064  13.165  0.2650 -0.3629 -0.0852
 4383TIP3    H134640   2.977   2.977  13.146  1.3430 -0.6413 -0.9270
 4383TIP3    H234641   3.107   3.055  13.148  1.1584 -0.2759  4.2042
 4384TIP3   OH234642   3.255   6.702   0.365  0.1937  0.2805  0.6222
 4384TIP3    H134643   3.304   6.637   0.315  2.1706  0.1279  2.6990
 4384TIP3    H234644   3.221   6.763   0.299  1.6205 -0.6524 -1.0069
 4385TIP3   OH234645   3.356   4.656  11.853  0.2120 -0.3872 -0.1014
 4385TIP3    H134646   3.399   4.722  11.907 -3.1227 -1.1850  3.7609
 4385TIP3    H234647   3.410   4.578  11.862  0.2927 -0.1942  1.2389
 4386TIP3   OH234648   2.304   1.963  15.241 -0.1290 -0.2827  0.3125
 4386TIP3    H134649   2.360   1.986  15.167 -1.4147  0.1978 -0.5271
 4386TIP3    H234650   2.262   1.881  15.214 -0.6205 -0.0902  0.5009
 4387TIP3   OH234651   3.416   2.834  14.265  0.5769 -0.2009 -0.0071
 4387TIP3    H134652   3.348   2.815  14.329 -0.2043  1.1292 -0.4102
 4387TIP3    H234653   3.393   2.921  14.231  1.9233 -0.1619 -0.8614
 4388TIP3   OH234654   4.965   2.576  14.169  0.5326  0.0361 -0.8749
 4388TIP3    H134655   5.058   2.558  14.187  0.4087 -0.3682 -0.6370
 4388TIP3    H234656   4.920   2.496  14.196  0.0847  0.3372 -0.7329
 4389TIP3   OH234657   7.015   1.171   0.506 -0.1079 -0.0481  0.3816
 4389TIP3    H134658   6.961   1.248   0.528  1.3707  0.3149  2.9756
 4389TIP3    H234659   7.099   1.207   0.479 -0.1945 -0.7041 -0.7898
 4390TIP3   OH234660   1.787   3.998  10.476  0.1756 -0.4781  0.0391
 4390TIP3    H134661   1.753   4.062  10.414  1.8983  0.3380 -0.1089
 4390TIP3    H234662   1.820   3.927  10.421 -0.3259 -0.7796  0.1281
 4391TIP3   OH234663   3.593   3.231  11.155 -0.5925 -0.6126  0.2834
 4391TIP3    H134664   3.547   3.153  11.186  0.7087 -0.7541  1.9292
 4391TIP3    H234665   3.568   3.300  11.217 -0.9541  0.0444 -0.5818
 4392TIP3   OH234666   4.829   2.990  11.086  0.2280 -0.5482 -0.1932
 4392TIP3    H134667   4.747   2.986  11.135  1.1678  1.0236  1.5843
 4392TIP3    H234668   4.811   3.047  11.012 -0.1731  0.1519  0.4391
 4393TIP3   OH234669   2.416   2.718  10.953  0.1222 -0.5360 -0.2136
 4393TIP3    H134670   2.340   2.777  10.947  0.8218  0.3666 -0.3642
 4393TIP3    H234671   2.411   2.682  11.041  0.5431  0.9512  0.4360
 4394TIP3   OH234672   1.167   4.799  12.070  0.0250 -0.2763  0.7661
 4394TIP3    H134673   1.248   4.783  12.120  1.4929 -0.1041 -1.4751
 4394TIP3    H234674   1.192   4.862  12.003 -1.8758 -0.5444 -0.2343
 4395TIP3   OH234675   3.291   1.221  13.770 -0.3310  0.6792 -0.8404
 4395TIP3    H134676   3.210   1.181  13.739  0.5201  1.1002 -3.8289
 4395TIP3    H234677   3.263   1.299  13.817 -1.7296 -0.3582  0.0761
 4396TIP3   OH234678   6.068   0.929  11.575  0.2377 -0.1803  0.2238
 4396TIP3    H134679   6.018   0.889  11.505 -0.1681  1.7862 -0.6541
 4396TIP3    H234680   6.149   0.958  11.534  0.6091 -0.2944  0.8722
 4397TIP3   OH234681   3.276   6.376   2.118 -0.0055  0.2286 -0.4867
 4397TIP3    H134682   3.358   6.425   2.121 -0.0918  0.3234  0.8452
 4397TIP3    H234683   3.293   6.299   2.173 -1.6373  1.5946  2.0579
 4398TIP3   OH234684   4.087   1.755   0.106 -0.1813 -0.2325  0.3656
 4398TIP3    H134685   4.144   1.694   0.152 -0.5648 -1.0691 -0.2490
 4398TIP3    H234686   4.029   1.790   0.174  0.9655  0.5254  0.9680
 4399TIP3   OH234687   3.616   3.822  12.561 -0.4498  0.2955  0.4519
 4399TIP3    H134688   3.596   3.892  12.623 -0.4614  1.3883 -0.7676
 4399TIP3    H234689   3.531   3.784  12.538 -0.7084  1.6797 -0.9491
 4400TIP3   OH234690   4.525   3.976  13.012  0.3075  0.2100  0.0226
 4400TIP3    H134691   4.527   4.030  13.091 -1.5139  0.9690 -0.4175
 4400TIP3    H234692   4.453   3.914  13.027 -0.0050  0.3134 -0.9952
 4401TIP3   OH234693   6.320   3.187  11.943 -0.1637  0.4888  0.2908
 4401TIP3    H134694   6.329   3.092  11.940 -0.1762  0.5199 -1.1191
 4401TIP3    H234695   6.226   3.202  11.942 -0.1840  0.5041  1.4722
 4402TIP3   OH234696   5.619   5.065  11.888  0.4431 -0.2857 -0.2726
 4402TIP3    H134697   5.601   5.115  11.967  0.3353 -2.1288  0.9000
 4402TIP3    H234698   5.541   5.010  11.876  1.5655 -1.9678 -0.1064
 4403TIP3   OH234699   0.790   1.513  11.078  0.3201  0.0318  0.5201
 4403TIP3    H134700   0.756   1.522  11.167  1.1917  0.8903  0.7765
 4403TIP3    H234701   0.744   1.438  11.042  0.7815 -1.0253  2.0905
 4404TIP3   OH234702   4.831   3.911  10.615 -0.6771 -0.0419 -0.2455
 4404TIP3    H134703   4.751   3.921  10.563 -1.1015 -0.4566  0.3282
 4404TIP3    H234704   4.812   3.955  10.697  0.5934  2.0872 -1.0511
 4405TIP3   OH234705   3.083   1.053  13.717  0.4713 -0.3509 -0.5690
 4405TIP3    H134706   3.155   0.992  13.734  0.5587 -0.5982 -1.7651
 4405TIP3    H234707   3.009   0.997  13.693  0.6921  0.0196 -2.1702
 4406TIP3   OH234708   3.936   7.122  12.006  0.0625 -0.7518 -0.5334
 4406TIP3    H134709   3.843   7.104  12.013 -0.6892  3.1837  0.6824
 4406TIP3    H234710   3.974   7.081  12.084 -1.0646  0.0072  0.4222
 4407TIP3   OH234711   2.267   1.815  12.263  0.2053  0.1653  0.4431
 4407TIP3    H134712   2.256   1.825  12.357 -0.7266 -0.4006  0.4065
 4407TIP3    H234713   2.200   1.751  12.238 -0.3840  1.2392 -0.7825
 4408TIP3   OH234714   2.687   2.519  11.188  0.2516  0.0909  0.5690
 4408TIP3    H134715   2.733   2.491  11.109  1.7579  1.2482  1.0271
 4408TIP3    H234716   2.740   2.485  11.260  1.2182  2.6746  1.1243
 4409TIP3   OH234717   6.987   6.134  12.617  0.3001  0.0888  0.3636
 4409TIP3    H134718   6.972   6.163  12.707  1.0847  0.6178  0.3301
 4409TIP3    H234719   6.900   6.108  12.585 -0.1103  0.6480  1.0083
 4410TIP3   OH234720   2.162   6.057  11.550 -0.1477 -0.0961 -0.0659
 4410TIP3    H134721   2.165   6.004  11.629  1.8684  0.4110  0.2378
 4410TIP3    H234722   2.200   6.002  11.482 -2.9102 -0.9435 -0.9687
 4411TIP3   OH234723   4.573   2.127  12.701  0.5642  0.0444  0.0969
 4411TIP3    H134724   4.584   2.176  12.620  0.2690 -1.1383 -0.6633
 4411TIP3    H234725   4.658   2.085  12.716  0.7603  0.6127  0.6552
 4412TIP3   OH234726   2.501   1.941  11.894  0.0594 -0.1086 -0.4862
 4412TIP3    H134727   2.586   1.905  11.919 -0.0995 -0.6522 -0.7120
 4412TIP3    H234728   2.457   1.868  11.850 -0.3021  0.3407 -0.8666
 4413TIP3   OH234729   1.403   1.625  12.572  0.2635 -0.0138 -0.1165
 4413TIP3    H134730   1.406   1.713  12.535  0.8289 -0.6925 -1.7390
 4413TIP3    H234731   1.311   1.598  12.561  0.3036  0.0050 -0.4952
 4414TIP3   OH234732   3.282   3.034  10.806 -0.0135  0.5628 -0.0460
 4414TIP3    H134733   3.310   2.997  10.722 -0.0407  1.6656 -0.5437
 4414TIP3    H234734   3.231   2.964  10.847 -0.9793  0.4220 -1.4531
 4415TIP3   OH234735   3.240   3.109  13.703  0.0935 -0.0020  0.4259
 4415TIP3    H134736   3.170   3.122  13.639 -0.5652 -2.8525  0.4839
 4415TIP3    H234737   3.225   3.176  13.770 -2.4812 -0.4588  0.3443
 4416TIP3   OH234738   6.084   4.379  10.563  0.2008  0.1330  0.0379
 4416TIP3    H134739   6.161   4.377  10.620  1.1472  1.0920 -1.1666
 4416TIP3    H234740   6.055   4.471  10.565 -1.2694 -0.3408  0.9409
 4417TIP3   OH234741   5.920   0.997  12.868  0.0209  0.1680 -0.2341
 4417TIP3    H134742   5.905   0.979  12.776 -0.4231 -0.2041 -0.0936
 4417TIP3    H234743   5.839   1.039  12.898 -0.4148 -1.0127  0.3143
 4418TIP3   OH234744   4.245   1.100  13.024 -0.6251  0.2888  0.7487
 4418TIP3    H134745   4.274   1.013  12.996  0.4993  0.9301 -0.0996
 4418TIP3    H234746   4.230   1.091  13.118  1.1764 -0.3824  0.9893
 4419TIP3   OH234747   4.580   5.783  13.797  0.1587  0.0399 -0.3571
 4419TIP3    H134748   4.514   5.813  13.735  0.3707 -2.0955 -1.6655
 4419TIP3    H234749   4.657   5.838  13.780 -0.7030  1.3732 -0.0021
 4420TIP3   OH234750   3.169   2.316  13.095 -0.0784 -0.1011 -0.5010
 4420TIP3    H134751   3.255   2.279  13.118  0.9014  1.3245 -1.7616
 4420TIP3    H234752   3.176   2.335  13.001 -2.5022 -1.8677 -1.0762
 4421TIP3   OH234753   3.113   0.441  10.795  0.0937 -0.2907 -0.0034
 4421TIP3    H134754   3.060   0.367  10.825  0.3505 -0.4345  0.0865
 4421TIP3    H234755   3.081   0.459  10.707 -0.9809  0.4238  0.5103
 4422TIP3   OH234756   1.148   6.393  12.264  0.5738 -0.0705  0.3016
 4422TIP3    H134757   1.116   6.458  12.202  1.0418 -0.9520 -0.8871
 4422TIP3    H234758   1.238   6.419  12.282  1.3767 -1.3713 -1.5913
 4423TIP3   OH234759   4.711   1.085  12.567 -0.5245 -0.5858  0.4659
 4423TIP3    H134760   4.799   1.113  12.544 -0.3535 -0.4751  1.2340
 4423TIP3    H234761   4.703   0.998  12.529 -0.1301 -0.5488  0.2941
 4424TIP3   OH234762   1.991   3.010  11.990 -0.7240  0.3622 -0.1184
 4424TIP3    H134763   1.940   3.062  12.052  0.0461 -1.2176  1.9076
 4424TIP3    H234764   2.038   2.947  12.045 -0.0793 -1.1401 -2.3293
 4425TIP3   OH234765   3.304   3.144  11.879  0.1474 -0.3239  0.2223
 4425TIP3    H134766   3.311   3.053  11.848  0.3824  0.0234 -0.7505
 4425TIP3    H234767   3.294   3.136  11.974 -0.7380 -1.4086  0.0507
 4426TIP3   OH234768   5.327   3.608  13.936  0.6564 -0.1630  0.0487
 4426TIP3    H134769   5.293   3.520  13.923 -0.3209  0.0223  1.3208
 4426TIP3    H234770   5.338   3.616  14.031  0.2127  1.2704 -0.0089
 4427TIP3   OH234771   6.060   1.321  10.392 -0.2362  0.5408 -0.2017
 4427TIP3    H134772   6.147   1.361  10.396 -0.0846  0.1283  0.6529
 4427TIP3    H234773   6.062   1.267  10.313  1.5533 -2.3594  1.7342
 4428TIP3   OH234774   5.694   0.494  12.370  0.2369 -0.4385 -0.0433
 4428TIP3    H134775   5.741   0.552  12.431 -0.2142 -0.9975  0.8456
 4428TIP3    H234776   5.760   0.470  12.304  1.6169 -2.3336  1.9608
 4429TIP3   OH234777   4.855   6.276  11.273  0.0437  0.2827 -0.3919
 4429TIP3    H134778   4.919   6.241  11.335  1.4415  0.3700 -1.7735
 4429TIP3    H234779   4.895   6.355  11.238 -2.2543  2.2324  1.1998
 4430TIP3   OH234780   5.282   5.377  14.353 -0.6402 -0.5240 -0.0643
 4430TIP3    H134781   5.323   5.293  14.373  1.0361 -0.1133 -1.5901
 4430TIP3    H234782   5.191   5.356  14.333 -0.6925 -1.7260  1.3866
 4431TIP3   OH234783   4.947   4.332  12.349  0.6083  0.5891  0.2316
 4431TIP3    H134784   4.993   4.367  12.426 -1.3738  1.1146  1.2121
 4431TIP3    H234785   4.892   4.404  12.319 -1.0204 -0.6053  0.2725
 4432TIP3   OH234786   4.047   3.589  14.810  0.2248  0.0067  0.1222
 4432TIP3    H134787   4.070   3.657  14.873 -0.2252  0.0025  0.2949
 4432TIP3    H234788   4.030   3.637  14.728 -0.8261  0.1868  0.4316
 4433TIP3   OH234789   3.321   5.881  12.878  0.3123  0.3027 -0.1222
 4433TIP3    H134790   3.289   5.799  12.915  1.3527  0.1710  0.5067
 4433TIP3    H234791   3.397   5.856  12.826 -0.6467  0.5994 -1.7023
 4434TIP3   OH234792   1.646   2.390  15.259 -0.0826  0.0137  0.4340
 4434TIP3    H134793   1.664   2.441  15.180  1.2546  3.6090  2.9759
 4434TIP3    H234794   1.704   2.314  15.251  1.5735  1.3820 -1.0366
 4435TIP3   OH234795   2.096   3.749  10.319 -0.2380 -0.6685 -0.2105
 4435TIP3    H134796   2.006   3.762  10.288 -0.0334 -1.9014 -1.4086
 4435TIP3    H234797   2.120   3.663  10.284  1.4529 -0.2823 -0.0117
 4436TIP3   OH234798   0.406   2.583  12.613  0.0612  0.1598  0.0247
 4436TIP3    H134799   0.470   2.564  12.682  0.2974  0.8684 -0.0048
 4436TIP3    H234800   0.425   2.518  12.545  1.3098  0.9203 -0.3592
 4437TIP3   OH234801   1.500   5.336  12.524 -0.7627 -0.1206  0.1439
 4437TIP3    H134802   1.574   5.302  12.574 -0.6823 -1.5008 -0.9003
 4437TIP3    H234803   1.539   5.382  12.450 -0.9505 -0.5217 -0.2019
 4438TIP3   OH234804   0.846   6.876  11.003 -0.0651  0.1093  0.3963
 4438TIP3    H134805   0.874   6.913  11.087  0.2035 -0.4431  0.5520
 4438TIP3    H234806   0.880   6.937  10.938 -0.3878  0.6141  0.6907
 4439TIP3   OH234807   1.330   3.942  10.178  0.3124  0.6272 -0.5956
 4439TIP3    H134808   1.249   3.892  10.171  0.9403 -0.5074 -0.0717
 4439TIP3    H234809   1.365   3.944  10.089 -0.2809  1.0871 -0.8136
 4440TIP3   OH234810   1.395   0.777   0.908  0.1529 -0.0314  0.6458
 4440TIP3    H134811   1.441   0.695   0.890  0.2242  0.1424  0.0101
 4440TIP3    H234812   1.443   0.817   0.980  2.4226  1.2676 -1.5238
 4441TIP3   OH234813   0.792   1.363  12.472 -0.0066  0.2618 -0.6415
 4441TIP3    H134814   0.861   1.302  12.500  0.3161  0.1424 -1.6673
 4441TIP3    H234815   0.719   1.306  12.448  0.1681  0.2939 -1.2564
 4442TIP3   OH234816   0.923   5.503   9.607 -0.4185  0.0174 -0.0415
 4442TIP3    H134817   1.012   5.532   9.626  0.7047 -2.1950 -1.7396
 4442TIP3    H234818   0.876   5.584   9.585  1.2705  1.1513  0.3956
 4443TIP3   OH234819   2.886   1.433  10.250 -0.4400  0.3889 -0.1747
 4443TIP3    H134820   2.926   1.410  10.334 -0.3249  1.2360  0.0007
 4443TIP3    H234821   2.955   1.477  10.201 -0.0022 -1.5489 -1.3654
 4444TIP3   OH234822   5.047   5.610  15.070  0.5085 -0.2058  0.2936
 4444TIP3    H134823   5.012   5.525  15.044 -0.2109 -0.2691  1.4302
 4444TIP3    H234824   5.097   5.592  15.149  1.5111  0.2150 -0.2278
 4445TIP3   OH234825   1.943   6.800  13.035 -0.0562  0.1132 -0.2715
 4445TIP3    H134826   2.021   6.810  12.981  1.0284  0.6396  1.3449
 4445TIP3    H234827   1.897   6.884  13.029  0.7196  0.6097  0.5984
 4446TIP3   OH234828   2.502   6.026  12.396 -0.2429 -0.0285  0.1006
 4446TIP3    H134829   2.417   5.982  12.402 -0.4497 -0.2553 -3.5530
 4446TIP3    H234830   2.565   5.957  12.416 -0.8031 -0.4936  0.2991
 4447TIP3   OH234831   6.151   3.766  11.477  0.1204 -0.0665  0.1143
 4447TIP3    H134832   6.090   3.746  11.406 -1.0838  1.0043  0.8264
 4447TIP3    H234833   6.231   3.719  11.453 -0.4154 -0.1022 -1.7079
 4448TIP3   OH234834   4.894   4.159  10.441 -0.5034 -0.1487 -0.7909
 4448TIP3    H134835   4.855   4.105  10.509 -2.3840  0.4800 -1.3176
 4448TIP3    H234836   4.912   4.243  10.484  1.6787 -0.9201 -0.1724
 4449TIP3   OH234837   5.070   3.339  11.018  0.0841  0.1618 -0.1710
 4449TIP3    H134838   5.065   3.258  11.068  2.0070  0.5400  0.6744
 4449TIP3    H234839   5.091   3.406  11.083 -0.8547  1.2376 -0.9552
 4450TIP3   OH234840   5.439   4.865  13.477  0.0447 -0.0541  0.3422
 4450TIP3    H134841   5.478   4.867  13.390 -0.7056  0.5029  0.0039
 4450TIP3    H234842   5.345   4.853  13.461 -0.1686  0.6099  1.0400
 4451TIP3   OH234843   0.937   3.564  13.798  0.1909 -0.2635  0.8763
 4451TIP3    H134844   0.996   3.636  13.778 -1.0239  0.2260 -1.1122
 4451TIP3    H234845   0.861   3.606  13.839 -0.2224 -0.4710  0.3381
 4452TIP3   OH234846   6.083   5.753  12.855 -0.7070 -0.0069 -0.6168
 4452TIP3    H134847   6.016   5.707  12.905 -1.4054  1.7485  0.0856
 4452TIP3    H234848   6.057   5.742  12.763 -0.9935 -0.7934 -0.4447
 4453TIP3   OH234849   4.627   4.316   9.713 -0.6560 -0.1034  0.6005
 4453TIP3    H134850   4.569   4.245   9.741 -0.5670 -0.8096 -0.9120
 4453TIP3    H234851   4.708   4.271   9.687 -1.0380  0.3871 -1.5726
 4454TIP3   OH234852   2.142   3.958  12.312 -0.4172  0.1257 -0.1651
 4454TIP3    H134853   2.218   3.903  12.292  1.2501  2.5454 -0.7655
 4454TIP3    H234854   2.121   4.000  12.228 -1.0669  1.0582  0.4547
 4455TIP3   OH234855   6.078   6.271  12.193 -0.1205  0.2937  0.5661
 4455TIP3    H134856   6.149   6.307  12.246 -0.8572 -0.8633  2.4048
 4455TIP3    H234857   6.122   6.219  12.125  0.8079 -0.8645  2.0206
 4456TIP3   OH234858   5.314   7.081  11.580 -0.0478  0.2992 -0.7563
 4456TIP3    H134859   5.343   7.108  11.667 -1.1008 -1.1026  0.0473
 4456TIP3    H234860   5.393   7.046  11.538 -0.0523 -1.4551  0.6095
 4457TIP3   OH234861   2.260   6.850  12.522  0.0150  0.2192  0.4639
 4457TIP3    H134862   2.332   6.829  12.580  0.0098  0.2496  0.4812
 4457TIP3    H234863   2.302   6.865  12.437  0.2514  2.1762  0.9014
 4458TIP3   OH234864   5.150   0.309  13.926  0.0992  0.8785  0.0251
 4458TIP3    H134865   5.057   0.334  13.919 -0.5152 -1.5166 -1.1014
 4458TIP3    H234866   5.155   0.256  14.005 -0.0241 -1.0635 -1.2400
 4459TIP3   OH234867   2.513   1.860  12.543 -0.5412  0.1014  0.7243
 4459TIP3    H134868   2.569   1.782  12.551 -1.6103 -1.1205 -2.7134
 4459TIP3    H234869   2.560   1.928  12.591  1.9614 -1.8802  1.2153
 4460TIP3   OH234870   4.493   6.656  10.240  0.0719 -0.5476 -1.0457
 4460TIP3    H134871   4.465   6.727  10.182 -0.4882 -0.1923 -0.3532
 4460TIP3    H234872   4.588   6.652  10.230 -0.0680 -0.8459 -2.3817
 4461TIP3   OH234873   5.431   6.874  11.414  0.1683  0.5827  0.0916
 4461TIP3    H134874   5.379   6.834  11.483  2.2452  0.0067  1.3611
 4461TIP3    H234875   5.388   6.846  11.333 -0.2424 -1.6620  1.0485
 4462TIP3   OH234876   1.821   1.568  10.190 -0.2239 -0.0773  0.0057
 4462TIP3    H134877   1.900   1.515  10.183  0.5898  1.0704  0.3895
 4462TIP3    H234878   1.758   1.512  10.236  1.5770  0.2985  3.0887
 4463TIP3   OH234879   2.200   3.455  10.195 -0.2192  0.2286 -0.3163
 4463TIP3    H134880   2.200   3.361  10.214 -0.3797  0.5919  1.5201
 4463TIP3    H234881   2.292   3.479  10.190 -0.1722  0.2176  0.4756
 4464TIP3   OH234882   6.166   4.212  10.304 -0.1410  0.6377 -0.3609
 4464TIP3    H134883   6.196   4.283  10.247  0.4327 -0.2990 -1.2291
 4464TIP3    H234884   6.136   4.257  10.384  1.1352  1.7858 -0.5093
 4465TIP3   OH234885   0.265   0.814  13.239  0.1242  0.1072  0.5870
 4465TIP3    H134886   0.340   0.868  13.262 -0.6499  1.8925 -0.9709
 4465TIP3    H234887   0.290   0.771  13.156 -0.3550  0.2797  0.3503
 4466TIP3   OH234888   3.768   5.233   9.837 -0.5935  1.0822 -0.2148
 4466TIP3    H134889   3.792   5.254   9.927  1.8180 -1.9290 -0.0833
 4466TIP3    H234890   3.831   5.281   9.783  0.4798 -0.2186 -0.1399
 4467TIP3   OH234891   3.887   4.418  10.980  0.4604  0.2551 -0.4139
 4467TIP3    H134892   3.976   4.383  10.978  0.1397 -0.8269  2.5382
 4467TIP3    H234893   3.899   4.512  10.992  1.2380 -0.1187  2.0934
 4468TIP3   OH234894   1.679   0.110  12.717  0.2733 -0.2211 -0.1025
 4468TIP3    H134895   1.760   0.112  12.666  0.1902 -0.7338 -0.2536
 4468TIP3    H234896   1.624   0.045  12.673 -1.0526  1.6401 -1.2339
 4469TIP3   OH234897   1.859   3.781  11.755  0.1410  0.2004 -0.3351
 4469TIP3    H134898   1.911   3.750  11.681  0.4546 -1.0243  0.3825
 4469TIP3    H234899   1.864   3.710  11.819 -0.9908  0.8036  0.4367
 4470TIP3   OH234900   2.144   2.494  12.755  0.2155 -0.4251 -0.5904
 4470TIP3    H134901   2.153   2.503  12.660  0.5089  0.7612 -0.4612
 4470TIP3    H234902   2.200   2.563  12.791  0.2062 -0.9502  0.4476
 4471TIP3   OH234903   2.107   1.076  12.023  0.5073 -0.0338  0.3290
 4471TIP3    H134904   2.141   0.987  12.026  2.0879  0.5669  0.7258
 4471TIP3    H234905   2.183   1.130  12.001 -0.5853  1.1457 -0.6747
 4472TIP3   OH234906   5.237   0.775  10.301 -0.1826  0.3815 -0.1901
 4472TIP3    H134907   5.204   0.853  10.256 -2.2442 -0.0656  0.4825
 4472TIP3    H234908   5.241   0.709  10.232  3.1341  1.4594 -1.1238
 4473TIP3   OH234909   6.083   6.208  14.199 -0.3791  0.1539 -0.1773
 4473TIP3    H134910   6.150   6.198  14.131  0.5690 -2.9691  1.0928
 4473TIP3    H234911   6.013   6.148  14.173 -0.0961 -0.9219  1.4440
 4474TIP3   OH234912   2.777   6.823  10.397  0.3072 -0.0255 -0.3845
 4474TIP3    H134913   2.796   6.732  10.374 -0.6758  0.1699 -2.0284
 4474TIP3    H234914   2.856   6.854  10.440  1.0315 -1.3450 -0.7517
 4475TIP3   OH234915   2.202   0.607  13.588  0.8250  0.5513  0.4621
 4475TIP3    H134916   2.170   0.689  13.550 -1.4030  0.2809  1.6864
 4475TIP3    H234917   2.124   0.555  13.603  2.1574 -1.5189  0.4234
 4476TIP3   OH234918   4.482   2.744  11.966 -0.7409 -0.1701 -0.3865
 4476TIP3    H134919   4.549   2.709  12.025  0.4245  0.3524 -1.3780
 4476TIP3    H234920   4.440   2.667  11.930  1.3402 -0.5856 -2.0169
 4477TIP3   OH234921   2.279   3.303  13.763 -0.1038 -0.4167  0.0616
 4477TIP3    H134922   2.358   3.342  13.726 -0.6171 -0.1091 -0.7224
 4477TIP3    H234923   2.285   3.319  13.857  0.7852 -0.4351  0.0091
 4478TIP3   OH234924   0.653   0.917  12.243 -0.4053 -0.3636  0.6096
 4478TIP3    H134925   0.716   0.989  12.251  0.0614 -0.6947 -0.0261
 4478TIP3    H234926   0.690   0.860  12.176 -1.2597 -0.7019  0.4181
 4479TIP3   OH234927   0.048   4.490  10.519  0.3006 -0.1236  0.5139
 4479TIP3    H134928  -0.035   4.503  10.474 -1.0160  3.2045  3.6150
 4479TIP3    H234929   0.093   4.574  10.511  2.2542 -1.0923  0.9976
 4480TIP3   OH234930   7.054   1.317  11.751 -0.0127  0.4175 -0.0151
 4480TIP3    H134931   7.087   1.258  11.683 -0.0482  0.2388  0.1210
 4480TIP3    H234932   7.016   1.390  11.703  0.9601  0.8255 -0.1646
 4481TIP3   OH234933   5.892   2.050   9.486  0.0216 -0.7328  0.1214
 4481TIP3    H134934   5.916   1.996   9.562  1.4027 -0.2821  0.0253
 4481TIP3    H234935   5.809   2.014   9.456 -1.1528 -0.1885  2.5668
 4482TIP3   OH234936   1.589   2.722   1.068  0.3477  0.1000 -0.2304
 4482TIP3    H134937   1.572   2.749   1.158 -0.5260 -0.3843 -0.2454
 4482TIP3    H234938   1.650   2.649   1.076  0.7671  0.4672 -0.0661
 4483TIP3   OH234939   6.771   0.094  11.862  0.0730  0.0041  0.5220
 4483TIP3    H134940   6.810   0.123  11.944 -0.1487  1.4922  0.1029
 4483TIP3    H234941   6.788   0.165  11.800  1.3364 -1.6291 -1.0686
 4484TIP3   OH234942   4.420   4.882  10.201  0.3559  0.0047  0.7995
 4484TIP3    H134943   4.442   4.973  10.218  1.5446 -0.2478  0.6203
 4484TIP3    H234944   4.497   4.832  10.230  2.4188 -0.4968 -4.9377
 4485TIP3   OH234945   0.939   1.044  14.122 -0.5514 -0.4279  0.1410
 4485TIP3    H134946   0.857   1.094  14.124 -0.9669 -1.0988  0.1060
 4485TIP3    H234947   0.995   1.087  14.187 -0.8835  0.1086  0.0767
 4486TIP3   OH234948   6.378   6.040  12.198 -0.2986 -0.1912  0.4142
 4486TIP3    H134949   6.444   6.096  12.157 -0.0690 -0.7812 -0.0312
 4486TIP3    H234950   6.368   6.075  12.287  0.0118  0.4074  0.2121
 4487TIP3   OH234951   5.408   1.614  12.144 -0.2070  0.1684 -0.2732
 4487TIP3    H134952   5.328   1.643  12.189 -1.2902 -2.6921 -0.2688
 4487TIP3    H234953   5.392   1.631  12.052  0.5420  2.6514  0.0265
 4488TIP3   OH234954   6.952   1.859  12.127  0.0577  0.4450  0.3697
 4488TIP3    H134955   6.883   1.898  12.072 -0.5396  0.6498  1.2608
 4488TIP3    H234956   7.019   1.831  12.064 -1.4991 -1.1305 -0.6402
 4489TIP3   OH234957   4.385   3.781  12.690 -0.2094  0.0976  0.3250
 4489TIP3    H134958   4.467   3.761  12.735 -0.4531 -0.0786  0.6923
 4489TIP3    H234959   4.405   3.767  12.597  0.1225 -0.1340  0.4292
 4490TIP3   OH234960   5.907   3.145  10.870 -0.0139  0.3111 -0.0896
 4490TIP3    H134961   5.860   3.155  10.787 -2.1205  1.9574  1.2443
 4490TIP3    H234962   5.936   3.234  10.892 -0.0586  0.0108  1.2469
 4491TIP3   OH234963   6.284   5.710  14.794 -0.2705 -0.3779 -0.0073
 4491TIP3    H134964   6.229   5.748  14.725 -2.8863 -0.7392  1.8070
 4491TIP3    H234965   6.323   5.786  14.837 -1.4292  0.0327  0.3406
 4492TIP3   OH234966   5.015   4.427  14.423  0.0457  0.1890 -0.3165
 4492TIP3    H134967   4.958   4.397  14.351  1.7584 -1.5336 -1.0121
 4492TIP3    H234968   4.970   4.397  14.502  0.7175 -2.6292 -0.9179
 4493TIP3   OH234969   4.512   0.720  10.455  0.2612  0.6297 -0.2294
 4493TIP3    H134970   4.598   0.682  10.474  0.4594  1.3621  0.3455
 4493TIP3    H234971   4.465   0.714  10.538 -0.2959  0.0964 -0.5801
 4494TIP3   OH234972   2.984   1.547  11.584  0.1233 -0.2352 -0.7203
 4494TIP3    H134973   3.026   1.633  11.578 -0.7021  0.1854 -0.5784
 4494TIP3    H234974   3.000   1.507  11.499  3.6028 -1.4138  0.4066
 4495TIP3   OH234975   4.213   5.474  13.568 -0.3665  0.2956 -0.9237
 4495TIP3    H134976   4.299   5.511  13.553  0.0976 -0.1928  0.4840
 4495TIP3    H234977   4.206   5.466  13.663 -0.9502 -1.9999 -1.1226
 4496TIP3   OH234978   6.233   5.797  12.607 -0.0273 -0.1618  0.0175
 4496TIP3    H134979   6.210   5.835  12.522  0.8166  1.5446  0.5446
 4496TIP3    H234980   6.184   5.848  12.671 -0.7116 -1.4855  0.5879
 4497TIP3   OH234981   5.033   1.606  10.820 -0.1587  0.4437 -1.1354
 4497TIP3    H134982   5.046   1.691  10.862 -0.1756 -1.5860  3.1960
 4497TIP3    H234983   4.945   1.579  10.845  1.1090 -2.3683  0.5391
 4498TIP3   OH234984   0.478   4.645  11.396 -0.6963  0.1271 -0.6096
 4498TIP3    H134985   0.453   4.566  11.348 -1.1393 -0.1431  0.0692
 4498TIP3    H234986   0.396   4.681  11.428 -0.3506 -0.0107  0.4419
 4499TIP3   OH234987   5.639   1.956  14.017 -0.3530 -0.1059  0.2641
 4499TIP3    H134988   5.639   1.974  14.111 -1.1191 -1.1722  0.4686
 4499TIP3    H234989   5.582   2.023  13.980 -0.3983  0.0454  0.5981
 4500TIP3   OH234990   6.486   5.309  10.147  0.0107  0.2204 -0.4154
 4500TIP3    H134991   6.548   5.372  10.110  0.9385  0.6187  1.7195
 4500TIP3    H234992   6.403   5.357  10.151  0.3324  0.7725 -0.2914
 4501TIP3   OH234993   4.907   6.119  12.149 -0.3348 -0.4626  0.1603
 4501TIP3    H134994   4.847   6.117  12.073  0.8923  0.0230 -0.8375
 4501TIP3    H234995   4.986   6.160  12.115  0.1562 -0.0738  1.7823
 4502TIP3   OH234996   6.349   2.929  11.889  0.4860  0.2273 -0.3317
 4502TIP3    H134997   6.374   2.943  11.798  1.1514  1.9791  0.1097
 4502TIP3    H234998   6.285   2.857  11.885  1.4915 -0.6053 -2.0245
 4503TIP3   OH234999   0.424   4.196  10.813  0.4791 -0.1458  0.1981
 4503TIP3    H135000   0.444   4.265  10.749 -3.7414  0.3808 -0.6809
 4503TIP3    H235001   0.376   4.242  10.883 -2.5243 -2.1411 -0.4715
 4504TIP3   OH235002   6.064   0.597  11.601  0.5477 -0.0119 -0.2667
 4504TIP3    H135003   6.049   0.691  11.593  0.5865  0.0345  0.1780
 4504TIP3    H235004   5.980   0.561  11.629  1.0781  0.1649  1.6031
 4505TIP3   OH235005   6.466   2.569  14.011  0.2718  0.5312  0.2258
 4505TIP3    H135006   6.552   2.555  13.972  0.0564  0.5874 -0.2640
 4505TIP3    H235007   6.463   2.507  14.084  0.9272  0.8813  0.5645
 4506TIP3   OH235008   4.538   3.228  11.996  0.4452 -0.4019 -0.2066
 4506TIP3    H135009   4.493   3.144  12.002 -1.6798  0.7048 -0.0123
 4506TIP3    H235010   4.557   3.252  12.087  0.0007 -0.1370 -0.1820
 4507TIP3   OH235011   4.936   6.276   0.311 -0.2357 -0.4004 -0.1950
 4507TIP3    H135012   4.960   6.313   0.226 -2.1217  0.9397 -0.1743
 4507TIP3    H235013   5.014   6.290   0.366  0.7111 -0.5814 -1.4734
 4508TIP3   OH235014   5.025   3.250  10.371 -0.5867  0.1322  0.1632
 4508TIP3    H135015   4.963   3.256  10.444  0.7678  1.0406  1.2476
 4508TIP3    H235016   5.107   3.222  10.411 -0.4107 -1.6754 -1.3542
 4509TIP3   OH235017   6.729   6.142  10.224 -0.3322  0.1904 -0.1928
 4509TIP3    H135018   6.738   6.121  10.131  1.5590 -1.0519  0.2513
 4509TIP3    H235019   6.755   6.234  10.230  1.7492 -0.3460 -0.5820
 4510TIP3   OH235020   3.558   5.586  15.036 -0.4345 -0.0901 -0.0276
 4510TIP3    H135021   3.585   5.513  14.980 -1.8951 -0.5068 -0.2019
 4510TIP3    H235022   3.629   5.595  15.100 -0.7123 -2.3193  0.6191
 4511TIP3   OH235023   6.567   0.668  12.711 -0.7610  0.1800  0.1645
 4511TIP3    H135024   6.485   0.641  12.668 -0.3502  0.8710 -1.0584
 4511TIP3    H235025   6.619   0.588  12.714 -0.7572  0.1430 -0.7171
 4512TIP3   OH235026   1.257   0.329  13.004 -0.1859  0.2134  0.5956
 4512TIP3    H135027   1.308   0.390  12.951 -1.5221 -0.1989 -1.1876
 4512TIP3    H235028   1.240   0.255  12.946 -1.8505 -0.1526  1.5311
 4513TIP3   OH235029   4.442   7.139  13.510  0.0401 -0.0725 -0.2208
 4513TIP3    H135030   4.434   7.211  13.448 -0.5831  1.3633  1.4784
 4513TIP3    H235031   4.354   7.103  13.516  0.3738 -1.0792 -1.1560
 4514TIP3   OH235032   6.555   0.506  14.571  0.5308  0.0267 -0.0760
 4514TIP3    H135033   6.600   0.585  14.598  0.5204 -0.1827  0.5481
 4514TIP3    H235034   6.625   0.448  14.540  0.3375  1.1557 -2.7888
 4515TIP3   OH235035   0.327   2.952  13.832 -0.0638  0.2961 -0.2765
 4515TIP3    H135036   0.370   2.888  13.775  1.8131 -0.3963  1.8696
 4515TIP3    H235037   0.298   2.901  13.907 -1.9104  1.3309 -0.2658
 4516TIP3   OH235038   2.833   4.300  11.298  1.2193  0.5111 -0.8400
 4516TIP3    H135039   2.751   4.341  11.270  1.3513  0.6363 -1.0425
 4516TIP3    H235040   2.849   4.334  11.386  0.9371  0.3144 -0.7117
 4517TIP3   OH235041   3.171   1.959  13.322 -0.4371 -0.2861  0.1286
 4517TIP3    H135042   3.185   2.030  13.385  0.5190 -0.5350  0.2033
 4517TIP3    H235043   3.088   1.980  13.280  0.7185  1.8701 -1.1671
 4518TIP3   OH235044   5.068   2.511  12.994 -0.0105  0.3263  0.5940
 4518TIP3    H135045   5.118   2.518  12.913  0.5595  1.2311  1.0232
 4518TIP3    H235046   5.004   2.442  12.977  1.3154 -0.7565  0.0157
 4519TIP3   OH235047   6.597   4.838  13.527  0.2099 -0.2746 -0.0855
 4519TIP3    H135048   6.653   4.900  13.573 -1.0205 -0.1926  1.3307
 4519TIP3    H235049   6.508   4.864  13.549 -0.3798 -0.9301 -1.6183
 4520TIP3   OH235050   6.412   3.525   2.245 -0.1315 -0.1068  0.1268
 4520TIP3    H135051   6.501   3.551   2.222 -0.0937  1.3981  1.8111
 4520TIP3    H235052   6.357   3.596   2.209 -0.7587 -1.4962 -1.7244
 4521TIP3   OH235053   4.607   1.560  11.118  0.0200 -0.3695 -0.1630
 4521TIP3    H135054   4.610   1.628  11.186 -2.1211 -0.4090 -0.0035
 4521TIP3    H235055   4.518   1.526  11.122  0.1311 -1.0024 -2.3928
 4522TIP3   OH235056   5.176   0.831  14.998 -0.5257 -0.2258 -0.0761
 4522TIP3    H135057   5.172   0.759  14.934 -0.7563 -1.7229  1.5762
 4522TIP3    H235058   5.095   0.879  14.985 -0.0808  0.1443 -1.6378
 4523TIP3   OH235059   6.794   2.137   3.083 -0.0035 -0.0554 -0.0813
 4523TIP3    H135060   6.882   2.172   3.095  1.0051 -1.8278 -2.0894
 4523TIP3    H235061   6.746   2.208   3.040  0.6635  0.6356  0.3000
 4524TIP3   OH235062   7.014   4.999  10.115  0.4630  0.3754 -0.3407
 4524TIP3    H135063   6.948   4.936  10.086  0.4976  1.0974 -2.0684
 4524TIP3    H235064   7.095   4.949  10.118  0.6517  0.5034 -2.5259
 4525TIP3   OH235065   6.559   3.886  12.143 -0.9025  0.2989  0.0429
 4525TIP3    H135066   6.557   3.867  12.237 -1.7851  2.0799  0.3920
 4525TIP3    H235067   6.477   3.848  12.110 -0.4069 -0.6758 -0.0887
 4526TIP3   OH235068   0.466   1.993  10.361 -0.4048 -0.5298 -0.5304
 4526TIP3    H135069   0.379   1.956  10.376 -0.4427 -0.9149 -1.7121
 4526TIP3    H235070   0.496   1.953  10.280  1.6967 -1.9297  0.8697
 4527TIP3   OH235071   3.755   2.023  10.939  0.1320 -0.1340 -0.8421
 4527TIP3    H135072   3.761   2.083  11.013 -0.4657  2.2667 -2.7007
 4527TIP3    H235073   3.686   1.962  10.963 -0.2474  0.7914  0.4570
 4528TIP3   OH235074   5.656   3.199  12.523 -0.4175  0.1122 -0.0716
 4528TIP3    H135075   5.620   3.269  12.577 -0.5905 -0.8508  1.0995
 4528TIP3    H235076   5.579   3.150  12.493 -0.1946 -1.1831  1.3740
 4529TIP3   OH235077   3.016   2.008  10.667 -0.0206 -0.3874 -0.1111
 4529TIP3    H135078   3.059   2.050  10.741 -1.6983  0.3971  0.4590
 4529TIP3    H235079   3.065   2.037  10.591  1.3364 -0.6895  0.6326
 4530TIP3   OH235080   0.769   0.831  12.799  0.5078 -0.3274 -0.2764
 4530TIP3    H135081   0.686   0.875  12.818  0.9591  0.6436 -0.5309
 4530TIP3    H235082   0.756   0.741  12.831 -0.8097 -0.3261 -0.7625
 4531TIP3   OH235083   3.996   0.677  12.037  0.0558  0.3848  0.5291
 4531TIP3    H135084   4.072   0.619  12.029 -0.4642 -0.1715 -0.4666
 4531TIP3    H235085   3.991   0.697  12.130  1.4413  0.4439  0.5974
 4532TIP3   OH235086   2.084   5.255  12.366 -0.6497 -0.1715  0.1300
 4532TIP3    H135087   2.008   5.283  12.417 -0.0409 -1.1029  1.5977
 4532TIP3    H235088   2.150   5.233  12.432  1.1278  1.2210 -1.1308
 4533TIP3   OH235089   1.438   1.358  14.320  0.0871  0.2234 -0.3422
 4533TIP3    H135090   1.505   1.293  14.299  1.7973  1.7015  0.3454
 4533TIP3    H235091   1.449   1.375  14.414  0.3623  2.1963 -0.6959
 4534TIP3   OH235092   5.562   3.432  11.786  0.1371  0.0246 -0.6534
 4534TIP3    H135093   5.591   3.422  11.876 -1.3559 -1.0077 -0.2688
 4534TIP3    H235094   5.620   3.499  11.749 -0.0404  1.3809  1.4397
 4535TIP3   OH235095   5.768   0.434  10.428 -0.2321  0.5849 -0.5809
 4535TIP3    H135096   5.785   0.504  10.365 -0.3677  0.8438 -0.3316
 4535TIP3    H235097   5.758   0.355  10.375  3.1000  0.1621 -0.6332
 4536TIP3   OH235098   2.459   1.349  13.322 -0.4355 -0.4543  0.0125
 4536TIP3    H135099   2.476   1.265  13.365 -1.8926 -1.3809 -1.1738
 4536TIP3    H235100   2.468   1.331  13.229 -0.1197  0.8758 -0.2232
 4537TIP3   OH235101   1.013   6.970  14.483 -0.1575 -0.0127 -0.6073
 4537TIP3    H135102   1.023   7.065  14.492  0.8277 -0.0750 -1.0148
 4537TIP3    H235103   1.086   6.943  14.428 -0.4211 -1.0154 -0.4753
 4538TIP3   OH235104   3.573   2.536  14.933 -0.4041  0.2273 -0.6674
 4538TIP3    H135105   3.656   2.523  14.886  1.9759  2.8103  2.5248
 4538TIP3    H235106   3.568   2.462  14.994  0.7406  1.2023  0.6535
 4539TIP3   OH235107   1.567   1.390  12.075  0.0470  0.6160  0.3920
 4539TIP3    H135108   1.593   1.306  12.113  0.8774  0.5671 -0.2724
 4539TIP3    H235109   1.580   1.453  12.146  2.7640  0.7200 -0.1606
 4540TIP3   OH235110   2.495   6.134  14.347 -0.4584  0.0839  0.3884
 4540TIP3    H135111   2.451   6.169  14.270  2.3016  1.7136 -0.5158
 4540TIP3    H235112   2.438   6.158  14.420 -0.8927  2.5504 -0.7127
 4541TIP3   OH235113   1.601   5.462  12.318 -0.5752  0.0985  0.0785
 4541TIP3    H135114   1.599   5.557  12.316  0.9645  0.2346  2.4659
 4541TIP3    H235115   1.630   5.436  12.231 -1.8921  1.7561 -0.8733
 4542TIP3   OH235116   6.329   3.050  11.259  0.2386  0.0895  0.4810
 4542TIP3    H135117   6.241   3.021  11.282  1.0912 -0.9899  2.4761
 4542TIP3    H235118   6.370   2.973  11.220  1.2054 -0.2701  2.1527
 4543TIP3   OH235119   5.845   0.725  14.013 -0.2151 -0.0236  0.0215
 4543TIP3    H135120   5.840   0.797  13.951  1.2615 -1.4480 -1.8098
 4543TIP3    H235121   5.821   0.647  13.963  0.1550 -1.0852  1.4402
 4544TIP3   OH235122   4.540   0.502  12.242 -0.1133  0.1495  0.3513
 4544TIP3    H135123   4.597   0.573  12.272  1.5270 -0.6396 -0.8243
 4544TIP3    H235124   4.572   0.481  12.154 -0.9571 -1.6253  0.4430
 4545TIP3   OH235125   2.860   6.796  13.381  0.2673 -0.7009  0.1710
 4545TIP3    H135126   2.836   6.704  13.375 -1.4038 -0.3050  0.7551
 4545TIP3    H235127   2.846   6.831  13.293 -1.1960 -0.4967  0.4840
 4546TIP3   OH235128   0.919   4.123  12.446  0.0393  0.1358  0.2761
 4546TIP3    H135129   1.012   4.142  12.460  0.6327 -1.7462 -0.9420
 4546TIP3    H235130   0.886   4.098  12.532  0.7926  0.2540  0.6032
 4547TIP3   OH235131   4.089   3.800  10.318  0.6842  0.5471  0.2840
 4547TIP3    H135132   4.044   3.733  10.370  0.2495 -0.2576 -1.0968
 4547TIP3    H235133   4.071   3.882  10.363  0.4720 -0.1551  1.4988
 4548TIP3   OH235134   6.469   1.040   3.270 -0.6342 -0.8790  0.5190
 4548TIP3    H135135   6.391   1.092   3.288 -1.0942 -1.7149  0.9920
 4548TIP3    H235136   6.533   1.070   3.334 -0.5451 -0.1694  0.1096
 4549TIP3   OH235137   6.538   1.454  15.308 -0.1642 -0.2131 -1.3711
 4549TIP3    H135138   6.457   1.467  15.258  0.0054  0.8486 -1.3754
 4549TIP3    H235139   6.529   1.513  15.383 -1.1129 -2.9181  0.6987
 4550TIP3   OH235140   3.657   6.890  10.862 -0.3561 -0.2350  0.2808
 4550TIP3    H135141   3.741   6.865  10.826  0.6178  1.6452  1.1329
 4550TIP3    H235142   3.596   6.883  10.789  0.7822 -0.4152 -0.6653
 4551TIP3   OH235143   6.277   1.469  10.421 -1.0863 -0.4626  0.0108
 4551TIP3    H135144   6.353   1.495  10.473 -1.4295 -1.3608  0.9799
 4551TIP3    H235145   6.268   1.539  10.356 -0.5784  0.6286  1.0758
 4552TIP3   OH235146   5.645   6.703  10.349  0.1040 -0.1408 -0.5623
 4552TIP3    H135147   5.650   6.611  10.324 -0.1864 -0.1548 -0.5765
 4552TIP3    H235148   5.722   6.743  10.310  1.1831 -0.7210  0.9222
 4553TIP3   OH235149   0.328   1.046  11.108  0.1677  0.1823  0.1293
 4553TIP3    H135150   0.381   1.007  11.038  0.4926 -1.5016  1.2993
 4553TIP3    H235151   0.265   0.977  11.131  0.3822  0.5531  1.8334
 4554TIP3   OH235152   6.176   0.641  11.326 -0.0612 -0.2550  0.4515
 4554TIP3    H135153   6.189   0.556  11.284 -1.2812  0.0269 -0.4956
 4554TIP3    H235154   6.180   0.622  11.420  0.1764 -1.2703  0.2434
 4555TIP3   OH235155   1.697   1.876  12.557  0.4512  0.1460 -0.5018
 4555TIP3    H135156   1.741   1.948  12.601  1.2821 -1.4225  1.3213
 4555TIP3    H235157   1.740   1.797  12.591 -1.9418 -1.3086 -0.7366
 4556TIP3   OH235158   4.908   4.210  11.631  0.0024  0.1963 -0.3739
 4556TIP3    H135159   4.884   4.278  11.568 -2.1786  1.6029  1.8582
 4556TIP3    H235160   5.002   4.221  11.644  0.0843  1.2985 -1.7625
 4557TIP3   OH235161   4.120   2.344   9.632 -0.2285 -0.5523 -0.0774
 4557TIP3    H135162   4.098   2.432   9.602  1.4390 -0.9724 -2.6485
 4557TIP3    H235163   4.140   2.354   9.725 -1.3326  1.5478 -0.0606
 4558TIP3   OH235164   3.417   3.462  12.249  0.3178  0.5028  0.0856
 4558TIP3    H135165   3.362   3.390  12.218 -0.7094  1.2558  0.1667
 4558TIP3    H235166   3.459   3.427  12.328 -0.3604  0.0687  0.2643
 4559TIP3   OH235167   4.101   6.049  10.326 -0.4123 -0.2877  0.1301
 4559TIP3    H135168   4.045   5.998  10.385 -0.3513 -0.1728  0.2869
 4559TIP3    H235169   4.054   6.050  10.243  0.6099 -2.4884 -0.5081
 4560TIP3   OH235170   5.928   4.297  13.848  1.1374 -0.0350  0.5349
 4560TIP3    H135171   6.016   4.296  13.886  0.5841  1.5744  1.9392
 4560TIP3    H235172   5.881   4.229  13.897  1.0730  0.4366  1.1354
 4561TIP3   OH235173   5.144   0.348  15.397 -0.1961  0.6151 -0.1249
 4561TIP3    H135174   5.080   0.344  15.469  0.1787  2.1385  0.3066
 4561TIP3    H235175   5.218   0.296  15.428 -0.7095 -0.1188 -0.1100
 4562TIP3   OH235176   3.374   0.043  12.466 -0.0491  0.0415 -0.1254
 4562TIP3    H135177   3.347   0.134  12.456  0.7682  0.2762 -0.2826
 4562TIP3    H235178   3.397   0.035  12.559  1.9246  0.5887 -0.5441
 4563TIP3   OH235179   1.150   0.518  13.985  0.1551 -0.2856  0.2663
 4563TIP3    H135180   1.198   0.592  13.946  1.4961 -1.0541  0.4197
 4563TIP3    H235181   1.120   0.468  13.909 -1.3748  0.7854  0.1464
 4564TIP3   OH235182   1.943   1.507  13.561  0.0288 -0.1195 -0.5257
 4564TIP3    H135183   1.881   1.564  13.515 -0.4827 -0.1982  0.0499
 4564TIP3    H235184   1.924   1.419  13.527 -0.5326 -0.2150  0.0245
 4565TIP3   OH235185   5.062   2.266  10.825  0.1373  0.4174 -0.6386
 4565TIP3    H135186   5.106   2.351  10.822 -0.4875  0.7970  0.3726
 4565TIP3    H235187   4.997   2.271  10.755  0.8960  0.3076 -1.3608
 4566TIP3   OH235188   6.820   2.864  12.051  0.0284 -0.1065 -0.3315
 4566TIP3    H135189   6.843   2.860  11.958  0.9284 -1.8540 -0.0462
 4566TIP3    H235190   6.742   2.920  12.054 -0.3024 -0.4551 -2.1869
 4567TIP3   OH235191   5.455   6.932  11.977 -0.2059  0.0151  0.6551
 4567TIP3    H135192   5.426   7.019  12.005 -1.4581 -0.4075  0.7128
 4567TIP3    H235193   5.542   6.946  11.941  0.3570  0.9802  2.3839
 4568TIP3   OH235194   3.179   0.224  13.498 -0.1206  0.0716  0.2554
 4568TIP3    H135195   3.161   0.172  13.576 -1.4594 -0.0492 -0.1285
 4568TIP3    H235196   3.105   0.284  13.491 -0.8470 -1.0374 -1.8707
 4569TIP3   OH235197   4.355   0.128  13.294  0.0333 -0.4742  0.5534
 4569TIP3    H135198   4.266   0.096  13.274 -1.3475  1.7593  2.8871
 4569TIP3    H235199   4.371   0.195  13.227  0.4092 -1.5956 -0.5048
 4570TIP3   OH235200   4.826   4.373  11.426  0.1433  0.1717 -0.2122
 4570TIP3    H135201   4.809   4.396  11.334 -0.8769  1.2222  0.2191
 4570TIP3    H235202   4.756   4.417  11.475  0.2104 -1.0362  0.9994
 4571TIP3   OH235203   6.994   4.416  10.685  0.2190 -0.4005 -0.4425
 4571TIP3    H135204   6.992   4.496  10.736 -0.7225 -1.4536  1.2100
 4571TIP3    H235205   6.951   4.439  10.602  0.0746  0.8142 -0.0374
 4572TIP3   OH235206   6.690   4.835   2.166 -0.6583 -0.7386  0.5043
 4572TIP3    H135207   6.665   4.819   2.257  1.3165  2.2168  1.6269
 4572TIP3    H235208   6.774   4.790   2.156  0.3602  1.0190  0.9335
 4573TIP3   OH235209   1.245   2.204  12.049 -0.6215 -0.3775 -0.2167
 4573TIP3    H135210   1.305   2.130  12.056 -0.7667 -0.4169  0.6498
 4573TIP3    H235211   1.278   2.254  11.975  1.3360  0.3763  1.1272
 4574TIP3   OH235212   0.775   4.414   3.577  0.2356  0.5408 -0.6767
 4574TIP3    H135213   0.761   4.473   3.651 -1.7352  0.6985 -1.1432
 4574TIP3    H235214   0.772   4.326   3.615 -2.0998  0.5723 -0.7417
 4575TIP3   OH235215   4.508   5.925  10.413  0.0790 -0.7217 -0.2500
 4575TIP3    H135216   4.493   5.849  10.357 -0.3931 -0.9458  0.1721
 4575TIP3    H235217   4.484   6.000  10.359 -2.4874 -1.0637  0.3467
 4576TIP3   OH235218   6.373   1.761   0.168 -0.2542  0.3292  0.2488
 4576TIP3    H135219   6.309   1.790   0.103 -1.3871 -0.5540  0.9482
 4576TIP3    H235220   6.375   1.830   0.233 -1.7311 -0.3866  1.0710
 4577TIP3   OH235221   5.607   1.298  10.318  0.4544  0.2133  0.2613
 4577TIP3    H135222   5.569   1.259  10.396  2.8936  1.2107  2.0124
 4577TIP3    H235223   5.581   1.390  10.323  0.3319  0.2092 -0.2948
 4578TIP3   OH235224   3.881   3.867   9.680  0.2079 -0.1798  0.3293
 4578TIP3    H135225   3.847   3.778   9.671  1.5899 -0.6183 -0.5610
 4578TIP3    H235226   3.856   3.911   9.598 -0.6362  0.3325  0.8404
 4579TIP3   OH235227   3.715   2.032  12.832  0.5799  0.2950 -0.3615
 4579TIP3    H135228   3.737   1.966  12.766  0.5833 -0.2076  0.1362
 4579TIP3    H235229   3.713   2.114  12.784 -0.3939 -0.1934 -1.1791
 4580TIP3   OH235230   3.492   4.394  11.217  0.0384  0.1337  0.5728
 4580TIP3    H135231   3.423   4.432  11.270  1.0097 -0.2732  2.1639
 4580TIP3    H235232   3.446   4.340  11.152 -1.1370 -0.2692  1.7085
 4581TIP3   OH235233   1.908   4.421  11.084  0.5512 -0.7651  0.1559
 4581TIP3    H135234   1.929   4.496  11.028 -2.7950  0.5064  0.4939
 4581TIP3    H235235   1.824   4.444  11.124 -0.0495 -4.2667  1.0531
 4582TIP3   OH235236   2.672   4.203  14.003  0.0803  0.1358 -0.0019
 4582TIP3    H135237   2.588   4.235  13.968  0.8064  0.6014 -1.3485
 4582TIP3    H235238   2.706   4.277  14.053  0.5219  0.5844 -0.9474
 4583TIP3   OH235239   3.883   5.539  14.528  0.0586  0.5656  0.5699
 4583TIP3    H135240   3.915   5.544  14.619  2.3299  1.2488 -0.2254
 4583TIP3    H235241   3.901   5.449  14.502  1.7458  1.0512  0.0008
 4584TIP3   OH235242   4.338   4.332  13.519 -0.0609 -0.0977  0.1258
 4584TIP3    H135243   4.379   4.315  13.603 -1.4791 -1.3979  0.5791
 4584TIP3    H235244   4.256   4.376  13.541  0.6733  1.7675 -0.7199
 4585TIP3   OH235245   5.629   0.245  13.934  0.1323  0.0754 -0.6656
 4585TIP3    H135246   5.672   0.244  14.020 -3.9750 -0.1007  1.5135
 4585TIP3    H235247   5.653   0.161  13.895  0.7387 -0.5673  1.0107
 4586TIP3   OH235248   4.528   3.847   0.035 -0.3770  0.1152  0.7774
 4586TIP3    H135249   4.613   3.881   0.007 -1.9537  1.6652 -2.4835
 4586TIP3    H235250   4.536   3.752   0.028  0.7983  0.2841 -0.4843
 4587TIP3   OH235251   5.276   0.880  13.430  0.0664 -0.1118  0.7382
 4587TIP3    H135252   5.370   0.866  13.429  0.2400  0.9320  1.6008
 4587TIP3    H235253   5.242   0.819  13.365  1.3372 -0.4708  0.3983
 4588TIP3   OH235254   5.029   3.980   9.824 -0.5589 -0.2337 -0.4792
 4588TIP3    H135255   5.084   4.047   9.864 -1.2214 -0.1489  0.3005
 4588TIP3    H235256   5.088   3.930   9.769  0.2298  0.0688  0.0879
 4589TIP3   OH235257   3.584   1.299  15.354  0.4612  0.1980 -0.2910
 4589TIP3    H135258   3.673   1.295  15.317  1.6896 -1.2295  2.6471
 4589TIP3    H235259   3.581   1.383  15.399  0.6911 -0.2156  0.4967
 4590TIP3   OH235260   0.777   4.408  13.329  0.2109  0.3782  0.6061
 4590TIP3    H135261   0.872   4.395  13.323  0.3126  0.5797  1.6496
 4590TIP3    H235262   0.752   4.441  13.242  1.0050 -0.2141  0.1403
 4591TIP3   OH235263   2.461   3.040  11.902 -0.4705  0.3373  0.2399
 4591TIP3    H135264   2.469   3.101  11.829  0.2246  0.8493  0.7448
 4591TIP3    H235265   2.470   2.953  11.862  0.9252  0.6590 -0.1370
 4592TIP3   OH235266   1.240   7.031   0.429  0.1880 -0.3733  0.7939
 4592TIP3    H135267   1.282   7.067   0.508  0.5421  0.4410  0.2404
 4592TIP3    H235268   1.218   7.108   0.376 -0.1865 -0.9088  0.1614
 4593TIP3   OH235269   4.185   0.226  10.639 -0.0884  0.0627 -0.4184
 4593TIP3    H135270   4.239   0.289  10.687  0.6159 -1.6509  1.1095
 4593TIP3    H235271   4.203   0.245  10.546  0.1618  2.0194  0.0061
 4594TIP3   OH235272   2.010   0.943  10.624 -0.2394  0.7458 -0.9853
 4594TIP3    H135273   2.047   0.872  10.572  1.4778  1.1584 -0.3816
 4594TIP3    H235274   2.054   0.936  10.709 -1.7111  1.1465 -0.1760
 4595TIP3   OH235275   0.637   3.040  14.122  0.0902  0.3063  0.6187
 4595TIP3    H135276   0.544   3.061  14.109  0.3378  1.9255  1.3642
 4595TIP3    H235277   0.683   3.105  14.069  0.8028 -0.7229 -0.0398
 4596TIP3   OH235278   5.491   3.331   9.918 -0.1723 -0.5088  0.1730
 4596TIP3    H135279   5.476   3.241   9.892 -0.6375 -0.2873 -0.3284
 4596TIP3    H235280   5.410   3.377   9.896 -0.0266 -0.0163  0.6360
 4597TIP3   OH235281   5.435   3.831  12.906  0.3033 -0.0523  0.2000
 4597TIP3    H135282   5.382   3.882  12.967 -0.2122 -1.0079  0.5664
 4597TIP3    H235283   5.396   3.848  12.820 -1.2045 -1.4688  0.5745
 4598TIP3   OH235284   2.249   4.871  10.331 -0.3866  0.7586 -0.5083
 4598TIP3    H135285   2.183   4.858  10.399 -0.9486 -1.2387 -1.3948
 4598TIP3    H235286   2.237   4.962  10.304 -3.3299  0.2395 -1.1938
 4599TIP3   OH235287   4.691   0.627   0.247 -0.4765 -0.5638  0.0388
 4599TIP3    H135288   4.771   0.669   0.216 -1.0347  0.3134 -0.2352
 4599TIP3    H235289   4.718   0.578   0.325  0.1985  0.2527  0.3263
 4600TIP3   OH235290   5.267   6.680  13.396 -0.7700 -0.4680 -0.1553
 4600TIP3    H135291   5.331   6.642  13.336 -0.2137  0.6711 -0.2878
 4600TIP3    H235292   5.301   6.767  13.417 -1.1396 -0.6938  1.5109
 4601TIP3   OH235293   0.630   1.162   0.199 -0.1226 -0.3384 -0.0928
 4601TIP3    H135294   0.697   1.211   0.150 -2.1559  1.7825 -0.8562
 4601TIP3    H235295   0.575   1.123   0.131 -1.1041 -0.0026  0.5082
 4602TIP3   OH235296   5.462   6.484  13.255 -0.3820  0.4109 -0.7790
 4602TIP3    H135297   5.495   6.570  13.229 -1.2655  0.4405 -1.8367
 4602TIP3    H235298   5.526   6.453  13.320  1.4953  0.6478 -2.4507
 4603TIP3   OH235299   6.452   6.780  13.106  0.3009  0.0859  0.3219
 4603TIP3    H135300   6.511   6.705  13.107 -2.2774 -1.9997 -0.4629
 4603TIP3    H235301   6.467   6.822  13.022  1.1467 -0.0150  0.4172
 4604TIP3   OH235302   0.017   2.315  12.624 -0.3984 -0.4787  0.1315
 4604TIP3    H135303   0.014   2.407  12.600  2.0847 -0.2594  0.5548
 4604TIP3    H235304  -0.017   2.269  12.547  0.4295  0.6552 -0.9297
 4605TIP3   OH235305   6.010   2.953  14.185 -0.1647 -0.4419  0.3871
 4605TIP3    H135306   6.059   2.930  14.106 -2.1763 -2.1080 -0.4259
 4605TIP3    H235307   6.054   2.905  14.255  1.8933  1.3784  0.3893
 4606TIP3   OH235308   6.144   6.332  14.954 -0.0643 -0.0500  0.3323
 4606TIP3    H135309   6.185   6.362  14.873 -1.8579 -0.4728 -0.7634
 4606TIP3    H235310   6.109   6.245  14.932 -0.0156 -0.4369  1.7439
 4607TIP3   OH235311   1.057   6.170  11.871 -0.3241  0.4051 -0.2909
 4607TIP3    H135312   1.042   6.076  11.877  0.3670  0.3597  0.9512
 4607TIP3    H235313   0.971   6.207  11.849 -0.3568 -0.6005 -1.9268
 4608TIP3   OH235314   5.690   2.241  11.609  0.2517  0.2359  0.3842
 4608TIP3    H135315   5.764   2.300  11.622  0.3059  0.2207  0.1404
 4608TIP3    H235316   5.650   2.234  11.696  1.3789 -0.8728  0.8411
 4609TIP3   OH235317   3.802   0.261   0.912  0.6804 -0.3323 -0.0886
 4609TIP3    H135318   3.829   0.179   0.952  1.1525 -0.8948 -1.5528
 4609TIP3    H235319   3.735   0.236   0.849  1.1271  0.3525 -0.8430
 4610TIP3   OH235320   0.063   1.259  12.982  0.3041 -0.2977 -1.0036
 4610TIP3    H135321  -0.001   1.330  12.981 -0.6449 -1.1373 -0.9503
 4610TIP3    H235322   0.128   1.284  12.917 -0.7886 -0.0561 -2.0205
 4611TIP3   OH235323   1.043   1.897  11.670  0.0774 -0.0960 -0.5229
 4611TIP3    H135324   1.049   1.804  11.649  1.5718 -0.6058  1.9624
 4611TIP3    H235325   1.099   1.940  11.606  0.4917 -1.0506 -0.8106
 4612TIP3   OH235326   6.338   0.401  10.483  0.1056 -0.1468 -0.2944
 4612TIP3    H135327   6.332   0.320  10.534 -0.2832  0.8903  1.3345
 4612TIP3    H235328   6.251   0.441  10.490  0.8319  1.3405  0.4716
 4613TIP3   OH235329   6.773   1.426  12.844 -0.0329  0.3098 -0.0431
 4613TIP3    H135330   6.775   1.500  12.905 -0.1523  0.7211 -0.5388
 4613TIP3    H235331   6.777   1.466  12.757  1.0697 -0.3187 -0.2913
 4614TIP3   OH235332   2.280   1.129  13.192 -0.1300 -0.4735  0.8853
 4614TIP3    H135333   2.306   1.048  13.237  0.6649 -0.7766 -0.0895
 4614TIP3    H235334   2.358   1.153  13.141 -1.2889 -0.6200 -1.0029
 4615TIP3   OH235335   7.127   6.597  12.706  0.1284  0.1180 -0.7638
 4615TIP3    H135336   7.156   6.508  12.685 -1.2729 -0.6494  0.4583
 4615TIP3    H235337   7.208   6.646  12.721  0.8835 -1.4362  0.4177
 4616TIP3   OH235338   4.444   4.241  12.770  0.1285  0.2363  0.4772
 4616TIP3    H135339   4.350   4.260  12.775  0.0532  0.0036 -0.0373
 4616TIP3    H235340   4.479   4.274  12.853 -0.2943  0.9418  0.3823
 4617TIP3   OH235341   5.606   5.968  14.112 -0.7014 -0.2621 -0.4446
 4617TIP3    H135342   5.570   6.048  14.074 -0.0702 -1.5097 -3.7931
 4617TIP3    H235343   5.546   5.947  14.184 -2.2435  1.9088 -1.0397
 4618TIP3   OH235344   6.145   4.724  12.571 -0.0689 -0.0615 -0.4643
 4618TIP3    H135345   6.185   4.642  12.598  0.5937 -0.6456 -3.0790
 4618TIP3    H235346   6.205   4.792  12.601  0.3686 -0.6434 -0.0213
 4619TIP3   OH235347   4.724   1.518  10.620 -0.2961 -0.0199 -0.3419
 4619TIP3    H135348   4.701   1.610  10.636 -2.3338 -0.1472 -2.4603
 4619TIP3    H235349   4.644   1.469  10.640  0.8628 -1.3999  1.0588
 4620TIP3   OH235350   2.888   0.405  12.720 -0.4047  0.2604  0.4101
 4620TIP3    H135351   2.904   0.498  12.737  0.8843 -0.0362  0.8275
 4620TIP3    H235352   2.896   0.397  12.625 -1.6905  0.7859  0.2419
 4621TIP3   OH235353   0.527   5.842  11.542  0.3127  0.7458 -0.1991
 4621TIP3    H135354   0.548   5.752  11.517 -0.1736  0.5549  0.0773
 4621TIP3    H235355   0.452   5.834  11.600 -0.5733  1.4270 -1.2405
 4622TIP3   OH235356   0.728   1.839  14.539 -0.4017 -0.4647 -0.7651
 4622TIP3    H135357   0.667   1.767  14.523 -0.0815 -0.9650  0.2261
 4622TIP3    H235358   0.782   1.843  14.460 -2.3363  0.6156 -2.0507
 4623TIP3   OH235359   2.859   5.655  12.656  0.2759 -0.2698 -0.0941
 4623TIP3    H135360   2.878   5.568  12.690 -0.8623 -0.1939  0.7753
 4623TIP3    H235361   2.892   5.715  12.723 -3.1620 -0.1458  1.5963
 4624TIP3   OH235362   5.928   1.531  12.816  0.0544 -0.1620 -0.0244
 4624TIP3    H135363   5.902   1.622  12.807  0.6550  0.1574  1.2537
 4624TIP3    H235364   5.970   1.509  12.733  0.2215  0.8272 -0.2034
 4625TIP3   OH235365   2.074   2.244   0.964  0.2537 -0.3126  0.2274
 4625TIP3    H135366   2.159   2.219   0.927  0.0239 -0.2185 -0.3648
 4625TIP3    H235367   2.096   2.290   1.046  0.8158  0.5164 -0.3818
 4626TIP3   OH235368   5.560   0.704  12.655 -0.0381 -0.3819 -0.3840
 4626TIP3    H135369   5.534   0.618  12.689  0.0884 -0.7687 -1.2417
 4626TIP3    H235370   5.496   0.765  12.691 -0.9650 -1.0436 -0.8942
 4627TIP3   OH235371   4.429   0.075  13.771 -0.3033  0.4958 -0.9328
 4627TIP3    H135372   4.522   0.076  13.791 -0.5368  1.8884  0.2381
 4627TIP3    H235373   4.414  -0.008  13.727  1.1780 -0.5261  0.4394
 4628TIP3   OH235374   6.255   1.428  11.017  1.0299 -0.3932  0.1652
 4628TIP3    H135375   6.284   1.439  10.927  1.4501  0.1279  0.3615
 4628TIP3    H235376   6.225   1.515  11.044  0.7737 -0.5774  0.4850
 4629TIP3   OH235377   6.572   4.576   1.630 -0.1284 -0.1900  0.6693
 4629TIP3    H135378   6.578   4.576   1.725 -2.1575 -0.4446  0.8270
 4629TIP3    H235379   6.479   4.558   1.612  0.0789  0.6381 -1.3352
 4630TIP3   OH235380   4.352   4.782  14.966 -0.2151  0.3260 -0.1871
 4630TIP3    H135381   4.358   4.817  15.055 -0.5604  1.0443 -0.4444
 4630TIP3    H235382   4.442   4.759  14.943  0.1314  1.7507 -0.3002
 4631TIP3   OH235383   5.939   4.926  11.801 -0.3825 -0.4174  0.2110
 4631TIP3    H135384   6.027   4.918  11.837 -1.4147  1.0677  3.2278
 4631TIP3    H235385   5.933   5.018  11.774 -0.6888 -0.7523 -0.8626
 4632TIP3   OH235386   5.729   4.286  13.370  0.0265  0.2554  0.4157
 4632TIP3    H135387   5.680   4.346  13.426 -0.4110  1.7335 -1.4878
 4632TIP3    H235388   5.664   4.252  13.308  1.1112  1.1622 -1.2538
 4633TIP3   OH235389   5.643   6.717  10.638 -0.0470 -0.0099 -0.2847
 4633TIP3    H135390   5.630   6.714  10.543  0.6686 -0.2209 -0.3812
 4633TIP3    H235391   5.723   6.769  10.650 -0.4092  0.4350  0.2320
 4634TIP3   OH235392   5.063   1.493  15.157  0.2755  0.5449  0.4054
 4634TIP3    H135393   5.094   1.583  15.145 -0.1494  0.6941  0.4075
 4634TIP3    H235394   4.973   1.495  15.124  0.1460  0.2033  0.7463
 4635TIP3   OH235395   1.735   4.178  11.015 -0.2033 -0.0204  0.2879
 4635TIP3    H135396   1.789   4.255  11.033 -0.9487  0.2147  1.5612
 4635TIP3    H235397   1.754   4.117  11.087  0.3855 -1.0358 -0.7146
 4636TIP3   OH235398   4.786   3.187  11.917  0.2331 -0.0142  0.6025
 4636TIP3    H135399   4.829   3.177  12.002  0.2459 -2.0105  0.3786
 4636TIP3    H235400   4.697   3.216  11.939  0.2438 -0.4875  1.3046
 4637TIP3   OH235401   0.941   5.839  11.737  0.0468  0.3565 -0.2325
 4637TIP3    H135402   0.996   5.873  11.807 -0.8729  2.4117 -0.4549
 4637TIP3    H235403   0.952   5.901  11.665  0.7252 -1.5363 -1.8185
 4638TIP3   OH235404   4.461   7.000  12.192  0.0045 -0.2552 -0.0146
 4638TIP3    H135405   4.486   7.092  12.186  0.9815 -0.2353  3.4010
 4638TIP3    H235406   4.529   6.953  12.144 -0.1521  0.7370 -1.2237
 4639TIP3   OH235407   3.411   0.686  13.228 -0.4970 -0.0160  0.1053
 4639TIP3    H135408   3.331   0.735  13.212 -0.3606 -0.0944 -0.8453
 4639TIP3    H235409   3.480   0.753  13.229 -0.5401  0.0227  0.6723
 4640TIP3   OH235410   4.400   2.480  11.868  0.1820  0.4597 -0.4154
 4640TIP3    H135411   4.308   2.491  11.844  0.0617  0.9980  0.2879
 4640TIP3    H235412   4.399   2.414  11.937  0.2742  0.8538 -0.0387
 4641TIP3   OH235413   5.052   2.552   0.351  0.4743  0.7869  0.1745
 4641TIP3    H135414   5.109   2.585   0.282  0.8502 -0.3853 -0.0877
 4641TIP3    H235415   4.996   2.488   0.308  1.1360 -0.4089  1.0805
 4642TIP3   OH235416   0.264   3.780  14.998 -0.0292 -0.2204 -0.0150
 4642TIP3    H135417   0.251   3.688  15.021  1.9096 -0.6388 -0.4758
 4642TIP3    H235418   0.227   3.828  15.072  1.5104 -1.4368  1.6078
 4643TIP3   OH235419   5.731   6.390  11.642  0.6012 -0.2578  0.3508
 4643TIP3    H135420   5.799   6.456  11.658  1.3031 -0.8845 -0.0149
 4643TIP3    H235421   5.724   6.385  11.547 -0.2295  0.0788  0.3959
 4644TIP3   OH235422   6.583   4.234  13.193  0.0528  0.3166 -0.4079
 4644TIP3    H135423   6.649   4.234  13.125  0.6562 -0.2180  0.1735
 4644TIP3    H235424   6.575   4.143  13.220 -3.1194 -0.1186 -2.5746
 4645TIP3   OH235425   5.566   0.391  11.889  0.6418 -0.2455 -0.7595
 4645TIP3    H135426   5.550   0.348  11.805  0.1988 -1.5112 -0.0554
 4645TIP3    H235427   5.654   0.427  11.882  0.1057  0.8209 -2.2435
 4646TIP3   OH235428   5.809   0.302  12.836  0.2531  0.1670  0.2966
 4646TIP3    H135429   5.815   0.389  12.877  3.1906 -0.3656  1.1296
 4646TIP3    H235430   5.845   0.242  12.901 -1.4908 -1.6556 -0.3866
 4647TIP3   OH235431   4.867   2.552  15.481 -0.1895  0.2482  0.0359
 4647TIP3    H135432   4.778   2.521  15.464  0.3278  0.3854 -3.1150
 4647TIP3    H235433   4.921   2.510  15.414  1.9869  1.0298  1.2120
 4648TIP3   OH235434   5.716   2.263  14.601 -0.6561  0.5753  0.1688
 4648TIP3    H135435   5.712   2.328  14.671 -0.8160  1.1176 -0.3397
 4648TIP3    H235436   5.655   2.195  14.629 -0.7618  0.8169  0.5359
 4649TIP3   OH235437   1.566   3.664  14.513 -1.1111 -0.4075 -0.1715
 4649TIP3    H135438   1.504   3.596  14.541 -2.6537 -0.0205 -2.5285
 4649TIP3    H235439   1.627   3.618  14.456  0.1035 -0.5484  1.2221
 4650TIP3   OH235440   2.161   3.111  11.714  0.2113 -0.3811  0.0757
 4650TIP3    H135441   2.203   3.068  11.789 -1.2107 -1.3343  0.3442
 4650TIP3    H235442   2.178   3.053  11.640  2.7370  1.1955 -0.6739
 4651TIP3   OH235443   6.857   5.449  13.898 -0.5478 -0.0212 -0.6924
 4651TIP3    H135444   6.915   5.483  13.829 -1.5600 -0.1001 -1.5905
 4651TIP3    H235445   6.793   5.519  13.911  1.6485  1.4721  2.6309
 4652TIP3   OH235446   2.502   6.814  12.686 -0.3056 -0.2792  0.4033
 4652TIP3    H135447   2.525   6.723  12.665 -0.5029 -0.2117 -0.1071
 4652TIP3    H235448   2.584   6.862  12.677 -0.1991 -0.4059  0.6813
 4653TIP3   OH235449   5.763   3.966  13.330 -0.0393 -0.1223 -0.0525
 4653TIP3    H135450   5.810   4.048  13.318 -1.8038  0.8663 -0.4799
 4653TIP3    H235451   5.681   3.991  13.374 -0.7562 -1.5944 -0.4935
 4654TIP3   OH235452   2.284   0.810  11.504 -0.4019 -0.2380 -0.0684
 4654TIP3    H135453   2.347   0.881  11.491 -1.3376 -0.0471 -3.9671
 4654TIP3    H235454   2.338   0.730  11.500  0.0381  0.0535 -0.0424
 4655TIP3   OH235455   6.787   4.765  15.296 -0.0016  0.3205  0.3789
 4655TIP3    H135456   6.871   4.799  15.325 -0.1424  1.6637 -0.7548
 4655TIP3    H235457   6.790   4.672  15.319  2.1425  0.1691 -0.4304
 4656TIP3   OH235458   5.255   2.339  14.534  0.4554  0.6372 -0.1546
 4656TIP3    H135459   5.324   2.392  14.574  0.7524  0.1340  0.0108
 4656TIP3    H235460   5.177   2.359  14.586  0.5328  1.0203 -0.1846
 4657TIP3   OH235461   4.670   4.983  12.514 -0.2410 -0.6736  0.0031
 4657TIP3    H135462   4.759   4.948  12.517 -0.7300 -1.8523  1.8184
 4657TIP3    H235463   4.625   4.939  12.587 -1.7154  1.5047  0.4335
 4658TIP3   OH235464   2.553   3.427  13.119 -0.0981  0.1649  0.2880
 4658TIP3    H135465   2.495   3.392  13.187  0.0639  0.6349  0.6719
 4658TIP3    H235466   2.620   3.475  13.167 -0.8720  1.8573 -0.2541
 4659TIP3   OH235467   0.423   5.614  11.214  0.3598 -0.6595 -0.1792
 4659TIP3    H135468   0.506   5.567  11.210  1.9471  1.8557  1.4531
 4659TIP3    H235469   0.401   5.616  11.307  0.4789  2.0155 -0.1804
 4660TIP3   OH235470   5.814   0.498  14.621 -0.0757 -0.4871  0.1012
 4660TIP3    H135471   5.796   0.494  14.715  0.0601 -1.4698  0.0892
 4660TIP3    H235472   5.824   0.592  14.602  2.0647 -0.4282  1.4545
 4661TIP3   OH235473   3.080   6.852  12.622 -0.0870  0.4916  0.2862
 4661TIP3    H135474   3.004   6.809  12.660 -1.1348  1.3425 -0.7807
 4661TIP3    H235475   3.101   6.800  12.544  0.9676 -0.2345  1.0372
 4662TIP3   OH235476   4.839   5.176  12.823  0.2145  0.0648  0.5817
 4662TIP3    H135477   4.899   5.151  12.893 -0.8623  1.9928  2.2368
 4662TIP3    H235478   4.896   5.207  12.753  1.2571 -1.0855  0.8986
 4663TIP3   OH235479   1.791   5.048  13.457  0.4032  0.4478  0.5516
 4663TIP3    H135480   1.794   5.083  13.546  0.4881  0.7222  0.4426
 4663TIP3    H235481   1.851   5.104  13.407  0.0925  0.5125  0.2485
 4664TIP3   OH235482   5.007   5.442  13.542  0.1244  0.4434 -0.7959
 4664TIP3    H135483   5.023   5.377  13.474  2.3426  0.7756 -0.6281
 4664TIP3    H235484   5.080   5.432  13.603 -1.8220  0.1632  1.5598
 4665TIP3   OH235485   3.763   1.131  11.139 -0.3338 -0.1354  0.0958
 4665TIP3    H135486   3.682   1.139  11.088  0.4872  0.9421 -1.0715
 4665TIP3    H235487   3.826   1.094  11.078  0.3330 -0.0121  0.7036
 4666TIP3   OH235488   5.822   3.051  12.250 -0.5483  0.2150 -0.2452
 4666TIP3    H135489   5.854   2.976  12.299 -0.0286 -0.1992 -1.1990
 4666TIP3    H235490   5.736   3.023  12.218 -0.7810  0.3936  0.2292
 4667TIP3   OH235491   6.851   5.142  13.378 -0.1432  0.0812  0.0001
 4667TIP3    H135492   6.893   5.068  13.423 -0.5287  1.1349  2.1267
 4667TIP3    H235493   6.766   5.108  13.350 -0.6057 -0.1052  1.5798
 4668TIP3   OH235494   5.733   0.430  14.927 -0.1908  0.2554 -0.1241
 4668TIP3    H135495   5.718   0.354  14.870 -0.1540 -0.1816  0.4445
 4668TIP3    H235496   5.768   0.393  15.007 -0.7511  0.8243  0.3868
 4669TIP3   OH235497   4.322   3.047  11.632 -0.3919 -0.3583 -0.1702
 4669TIP3    H135498   4.250   3.059  11.571 -0.0915 -0.3311 -0.5191
 4669TIP3    H235499   4.321   2.954  11.653  0.3034 -0.6028 -1.2076
 4670TIP3   OH235500   1.505   0.391   0.627  0.4395  0.1391  0.1624
 4670TIP3    H135501   1.552   0.314   0.657 -0.4821 -0.1802  0.7996
 4670TIP3    H235502   1.551   0.418   0.547  0.3619 -1.4661 -0.4441
 4671TIP3   OH235503   6.237   2.571  14.242  0.3343  0.2974  0.0723
 4671TIP3    H135504   6.245   2.663  14.268  0.3255  0.0632  0.9162
 4671TIP3    H235505   6.261   2.570  14.149 -0.6672  1.3151 -0.2094
 4672TIP3   OH235506   5.207   0.614  14.757 -0.6369 -0.1285 -0.6688
 4672TIP3    H135507   5.203   0.520  14.775 -0.1255 -0.0391 -0.0756
 4672TIP3    H235508   5.264   0.622  14.681  1.5278 -0.0874  0.9271
 4673TIP3   OH235509   1.407   1.368  12.376  0.5724  0.4254 -0.2275
 4673TIP3    H135510   1.494   1.408  12.384  0.9601 -0.5678  0.6638
 4673TIP3    H235511   1.423   1.287  12.327  0.1039  0.3990 -0.3383
 4674TIP3   OH235512   5.670   4.372  11.550  0.6392 -0.1556  0.0251
 4674TIP3    H135513   5.739   4.335  11.606  0.0145  0.0180  0.9193
 4674TIP3    H235514   5.633   4.443  11.603  0.5358  0.4907 -0.9086
 4675TIP3   OH235515   6.942   6.690  13.046 -0.0091 -0.1815 -0.8669
 4675TIP3    H135516   7.001   6.619  13.071 -0.4091 -0.7251 -1.4558
 4675TIP3    H235517   6.995   6.748  12.992  0.6994  0.6888  0.7137
 4676TIP3   OH235518   3.088   0.642  14.444 -0.6587 -0.0231 -0.1260
 4676TIP3    H135519   2.996   0.651  14.421 -1.0892  0.3881  1.6951
 4676TIP3    H235520   3.100   0.548  14.458 -0.1557 -0.4248 -2.8184
 4677TIP3   OH235521   2.826   2.291  11.337  0.3250 -0.4670 -0.1613
 4677TIP3    H135522   2.829   2.229  11.409 -0.3599  1.7720  1.8973
 4677TIP3    H235523   2.914   2.292  11.301  0.3616 -2.5080 -0.1663
 4678TIP3   OH235524   0.716   4.329  10.980  0.3503 -0.1294  0.5424
 4678TIP3    H135525   0.683   4.416  11.003 -0.5565 -0.5188  0.7294
 4678TIP3    H235526   0.678   4.271  11.045  0.7244 -0.7100  0.2439
 4679TIP3   OH235527   5.503   2.295  11.870 -0.0053  0.3165 -0.4684
 4679TIP3    H135528   5.426   2.277  11.924  0.5332  1.9279  0.8875
 4679TIP3    H235529   5.484   2.381  11.830  0.7671  0.3689 -0.7254
 4680TIP3   OH235530   4.329   3.577  11.925 -0.0696 -0.3733 -0.0798
 4680TIP3    H135531   4.421   3.595  11.904  0.5367 -0.2644  2.4271
 4680TIP3    H235532   4.314   3.488  11.894  0.6300 -0.0994 -1.2367
 4681TIP3   OH235533   2.621   4.414  13.540 -0.1564  0.1581 -0.0639
 4681TIP3    H135534   2.606   4.506  13.559 -0.5784  0.1574 -0.3819
 4681TIP3    H235535   2.585   4.401  13.452  2.3399  0.3048 -1.1440
 4682TIP3   OH235536   5.902   1.222  12.631  0.5369  0.2208 -0.5239
 4682TIP3    H135537   5.946   1.245  12.549  1.0499  2.1692  0.2602
 4682TIP3    H235538   5.973   1.215  12.695  0.0953 -0.8303 -0.1460
 4683TIP3   OH235539   7.033   3.759  11.077  0.2914  0.0702 -0.0495
 4683TIP3    H135540   6.979   3.830  11.042 -0.2078 -0.5887 -0.6263
 4683TIP3    H235541   6.982   3.680  11.061  1.6853 -0.6314 -1.1222
 4684TIP3   OH235542   3.220   5.892  11.290 -0.5343  0.0815 -0.2845
 4684TIP3    H135543   3.238   5.824  11.226  0.8431  1.1932 -1.1144
 4684TIP3    H235544   3.213   5.973  11.239 -0.0271  0.8958  0.8928
 4685TIP3   OH235545   4.930   2.778  13.979  0.5985 -0.1373 -0.5202
 4685TIP3    H135546   4.839   2.752  13.964  0.6565 -0.5010 -0.2274
 4685TIP3    H235547   4.948   2.752  14.069  0.4739  1.4388 -0.0350
 4686TIP3   OH235548   4.891   4.929  11.277 -0.2995  0.5965 -0.1072
 4686TIP3    H135549   4.828   4.928  11.205  0.2768 -1.4129 -0.6146
 4686TIP3    H235550   4.882   4.842  11.317 -0.7238  1.7432  2.3420
 4687TIP3   OH235551   5.455   2.091  12.298  0.2397  0.2821 -0.2510
 4687TIP3    H135552   5.394   2.103  12.225  0.7531  1.9345 -0.4405
 4687TIP3    H235553   5.403   2.048  12.366 -1.7011  3.3494  0.2928
 4688TIP3   OH235554   4.016   5.834  11.608 -0.3442  0.0096  0.5858
 4688TIP3    H135555   4.004   5.754  11.558 -3.7622  0.4081  0.6659
 4688TIP3    H235556   3.956   5.826  11.682 -1.3621  2.9827  0.1421
 4689TIP3   OH235557   6.072   3.276  14.344  0.2869  0.0664 -0.0037
 4689TIP3    H135558   6.023   3.251  14.422 -0.5877  1.4127 -0.1113
 4689TIP3    H235559   6.155   3.229  14.351 -1.0823 -2.3868  0.0849
 4690TIP3   OH235560   3.261   2.759  13.620 -0.3201  0.5995 -0.9847
 4690TIP3    H135561   3.224   2.672  13.634 -1.0838  1.1437  0.5265
 4690TIP3    H235562   3.327   2.769  13.688  0.3068  0.9015 -1.6353
 4691TIP3   OH235563   5.668   1.240  11.897 -0.6054 -0.3570  0.6377
 4691TIP3    H135564   5.660   1.152  11.861  1.5401 -0.3467  0.0741
 4691TIP3    H235565   5.653   1.298  11.821 -0.7651 -0.2457  0.7525
 4692TIP3   OH235566   4.429   1.261   0.773 -0.0141 -0.4352  0.0191
 4692TIP3    H135567   4.461   1.202   0.706  0.8366  0.6686 -0.5714
 4692TIP3    H235568   4.341   1.286   0.744  0.1894 -0.2913 -0.4689
 4693TIP3   OH235569   3.464   1.868  12.849 -0.0771 -0.0283 -0.0764
 4693TIP3    H135570   3.389   1.900  12.898  0.8327  2.5029 -0.2144
 4693TIP3    H235571   3.533   1.933  12.867  0.9169 -0.2259 -2.9372
 4694TIP3   OH235572   5.871   1.714  13.250 -0.5451 -0.1252 -0.3024
 4694TIP3    H135573   5.783   1.727  13.216  0.0931 -0.0026 -1.9740
 4694TIP3    H235574   5.859   1.681  13.339 -2.2592  0.5931 -0.2670
 4695TIP3   OH235575   2.121   1.387  11.342 -0.0866  0.0802 -0.4774
 4695TIP3    H135576   2.091   1.311  11.293 -0.6041 -0.3546  0.4996
 4695TIP3    H235577   2.064   1.458  11.312 -0.9146 -0.3524  0.0329
 4696TIP3   OH235578   4.089   1.400  11.836  0.0688 -0.0664 -0.7299
 4696TIP3    H135579   4.101   1.486  11.797 -1.9038  0.9497  0.8093
 4696TIP3    H235580   4.175   1.378  11.872 -0.1277  2.6837  1.5898
 4697TIP3   OH235581   0.564   2.231   0.747  0.7013 -0.5296  0.7884
 4697TIP3    H135582   0.556   2.229   0.651 -2.3481  0.4116  0.9583
 4697TIP3    H235583   0.619   2.155   0.768  0.4937 -1.4113 -1.6363
 4698TIP3   OH235584   2.013   6.902  10.935 -0.6362  0.5494  0.1113
 4698TIP3    H135585   1.941   6.841  10.947 -1.0158  0.7672 -0.9773
 4698TIP3    H235586   2.030   6.938  11.022  0.5793 -2.1879  1.0656
 4699TIP3   OH235587   0.480   7.186  12.663  0.2152 -0.4121 -0.5351
 4699TIP3    H135588   0.441   7.115  12.713 -2.4961  0.5475 -1.2131
 4699TIP3    H235589   0.484   7.259  12.725 -0.1543 -0.1709 -0.7937
 4700TIP3   OH235590   5.823   7.161  15.298  0.1070 -0.0938  0.4972
 4700TIP3    H135591   5.821   7.095  15.228  1.5123  0.5147 -0.1326
 4700TIP3    H235592   5.916   7.170  15.319 -0.0498  1.9559  0.3364
 4701TIP3   OH235593   3.817   5.735  10.611 -0.1997 -0.0043 -0.1066
 4701TIP3    H135594   3.871   5.773  10.542  0.6839  0.5152  0.8631
 4701TIP3    H235595   3.769   5.664  10.568  0.8693 -0.1403 -1.0899
 4702TIP3   OH235596   4.213   5.836  11.822 -0.0691  0.3527 -0.5203
 4702TIP3    H135597   4.164   5.901  11.871  0.6914  0.6814 -0.1855
 4702TIP3    H235598   4.172   5.834  11.735  0.4519  1.9110 -0.8181
 4703TIP3   OH235599   4.218   6.774   2.027 -0.1633 -0.5940  0.6128
 4703TIP3    H135600   4.179   6.853   1.989  0.9004  0.3810  1.5175
 4703TIP3    H235601   4.151   6.707   2.017 -0.8951  0.2999 -0.6129
 4704TIP3   OH235602   1.583   4.970  12.592  0.4789  0.3617 -0.0168
 4704TIP3    H135603   1.543   4.984  12.506 -1.8264  2.9340  1.4327
 4704TIP3    H235604   1.512   4.938  12.647  1.6867 -0.1964  1.2583
 4705TIP3   OH235605   5.853   0.988  13.520 -0.3536 -0.3607 -0.5408
 4705TIP3    H135606   5.793   1.003  13.447 -0.0194  1.5497 -0.4436
 4705TIP3    H235607   5.915   0.924  13.486 -1.4902 -1.1476 -1.1855
 4706TIP3   OH235608   0.796   2.946  10.635  0.3122  0.4297  0.0089
 4706TIP3    H135609   0.812   3.024  10.689  0.5698 -0.6534  1.5182
 4706TIP3    H235610   0.882   2.924  10.600  0.0212  1.5564 -1.4491
 4707TIP3   OH235611   5.276   3.835  13.795 -0.1064 -0.0550 -0.0235
 4707TIP3    H135612   5.186   3.858  13.817 -0.2256 -0.8471  0.3159
 4707TIP3    H235613   5.293   3.754  13.843  0.5075 -0.3672 -0.7596
 4708TIP3   OH235614   5.849   6.992  14.427  0.6617  0.0431 -0.4107
 4708TIP3    H135615   5.917   6.936  14.390  1.5625 -0.5346  2.0104
 4708TIP3    H235616   5.784   6.932  14.462  0.1831  0.5638 -0.3904
 4709TIP3   OH235617   2.310   1.790  10.293 -0.2978 -0.0069  0.2708
 4709TIP3    H135618   2.248   1.719  10.310  0.1056 -0.8138 -1.4722
 4709TIP3    H235619   2.263   1.870  10.317 -1.3611 -0.7372  0.6507
 4710TIP3   OH235620   4.215   1.530  12.317  0.4627  0.7195 -0.2349
 4710TIP3    H135621   4.185   1.576  12.239 -1.7728 -1.3794 -0.6578
 4710TIP3    H235622   4.273   1.593  12.361 -0.0285  2.7448 -2.3832
 4711TIP3   OH235623   0.994   2.891  13.416  0.2565  0.4858  0.2635
 4711TIP3    H135624   0.941   2.969  13.433  0.9623  1.3221 -1.2974
 4711TIP3    H235625   0.966   2.829  13.483  0.0682  2.2639  1.8871
 4712TIP3   OH235626   2.395   3.715  12.510  0.1385 -0.0377 -0.6919
 4712TIP3    H135627   2.382   3.687  12.601  1.1689  0.9592 -0.2322
 4712TIP3    H235628   2.399   3.633  12.461  1.4884 -0.6546  0.4123
 4713TIP3   OH235629   1.893   1.622  11.543  0.2535 -0.2686 -0.1393
 4713TIP3    H135630   1.905   1.589  11.632  1.6183  0.4157 -0.0496
 4713TIP3    H235631   1.800   1.641  11.536  0.2221  0.1076  1.2949
 4714TIP3   OH235632   7.196   0.499  10.739 -0.0146 -0.3600 -0.5238
 4714TIP3    H135633   7.127   0.473  10.800  0.3191 -0.5379 -0.2210
 4714TIP3    H235634   7.173   0.589  10.713  1.0916  0.6090  1.6721
 4715TIP3   OH235635   2.864   2.622  11.698 -0.0109  0.1478  0.9430
 4715TIP3    H135636   2.957   2.618  11.675  0.1258  0.6656  1.3820
 4715TIP3    H235637   2.825   2.545  11.656  0.2724  0.9103 -0.7962
 4716TIP3   OH235638   6.506   6.801  10.303 -0.5264 -0.8219 -0.1185
 4716TIP3    H135639   6.468   6.864  10.241  0.3970 -2.2762 -2.2433
 4716TIP3    H235640   6.492   6.840  10.389  1.4351  3.0637 -1.4456
 4717TIP3   OH235641   5.334   3.508  15.214 -0.1010  0.0708  0.8021
 4717TIP3    H135642   5.247   3.468  15.205 -0.9724  1.7203  1.5758
 4717TIP3    H235643   5.320   3.601  15.194  1.4737  0.3707  1.0230
 4718TIP3   OH235644   2.717   2.357  12.588  0.4585  0.1971  0.0560
 4718TIP3    H135645   2.700   2.438  12.539  0.3828  0.5887  0.7178
 4718TIP3    H235646   2.725   2.289  12.521  0.1014  0.6816 -0.4807
 4719TIP3   OH235647   2.342   1.750  11.711 -0.2814  0.2971 -0.4699
 4719TIP3    H135648   2.272   1.815  11.723 -0.3880 -0.3235  2.8217
 4719TIP3    H235649   2.299   1.676  11.669 -0.8080  1.2068 -1.5813
 4720TIP3   OH235650   4.602   0.881  13.070 -0.8564  0.7086 -0.5586
 4720TIP3    H135651   4.568   0.940  13.137  0.8920  0.7502  0.3175
 4720TIP3    H235652   4.669   0.932  13.024  0.3742 -0.4310 -0.0700
 4721TIP3   OH235653   0.291   2.883  14.725  0.2396  0.0917 -0.2155
 4721TIP3    H135654   0.277   2.867  14.819  0.4881  1.3609  0.0521
 4721TIP3    H235655   0.264   2.802  14.683 -0.5655 -0.2461  0.9045
 4722TIP3   OH235656   5.764   2.900   0.079 -0.3166  0.2750 -0.1314
 4722TIP3    H135657   5.789   2.950   0.157 -3.0183  0.1523  0.8350
 4722TIP3    H235658   5.741   2.967   0.014 -3.1956  0.3715  0.9187
 4723TIP3   OH235659   6.599   3.195  12.062  0.3923  0.5743 -0.3731
 4723TIP3    H135660   6.504   3.205  12.062  0.0344 -2.2323 -1.7273
 4723TIP3    H235661   6.613   3.102  12.080  2.7942  0.4967 -2.4176
 4724TIP3   OH235662   6.968   6.699  12.244  1.0786 -0.2260 -0.0507
 4724TIP3    H135663   6.963   6.675  12.337 -1.3146  0.1186 -0.0580
 4724TIP3    H235664   6.926   6.626  12.198 -1.4845  1.4972 -0.4996
 4725TIP3   OH235665   2.167   3.462  12.986  0.1796 -0.0600 -0.5301
 4725TIP3    H135666   2.184   3.373  12.954 -0.6709 -0.2872 -0.3437
 4725TIP3    H235667   2.073   3.475  12.973  0.3247  0.8616 -0.6838
 4726TIP3   OH235668   3.088   0.402  15.062 -0.4641  1.1920  0.6047
 4726TIP3    H135669   3.171   0.375  15.022 -0.7503  1.2737 -0.0550
 4726TIP3    H235670   3.088   0.497  15.055 -0.6196  1.1912  0.6021
 4727TIP3   OH235671   1.849   2.825  14.197  0.1957 -0.3015  0.5387
 4727TIP3    H135672   1.830   2.851  14.107  1.5050 -0.4510  0.2029
 4727TIP3    H235673   1.852   2.907  14.246 -1.9457 -0.3155  0.7578
 4728TIP3   OH235674   0.589   3.623  12.589  0.5089  0.2392  0.4849
 4728TIP3    H135675   0.568   3.585  12.504  0.1211 -0.8417  1.0491
 4728TIP3    H235676   0.504   3.642  12.628  0.6887  0.8863  0.5613
 4729TIP3   OH235677   0.787   4.648   9.995 -0.3591  0.3405  0.1861
 4729TIP3    H135678   0.790   4.560   9.957 -0.2181  0.2308  0.4453
 4729TIP3    H235679   0.837   4.640  10.077  0.1869  0.8093 -0.0951
 4730TIP3   OH235680   5.133   5.798  13.333 -0.0976  0.2650  0.1419
 4730TIP3    H135681   5.210   5.841  13.370  0.1525  1.3471 -1.5740
 4730TIP3    H235682   5.161   5.708  13.316  0.2477  0.1843  1.1217
 4731TIP3   OH235683   0.383   5.252  12.604 -0.7380  0.1373  0.2052
 4731TIP3    H135684   0.369   5.184  12.538 -0.1718 -1.2492  1.5006
 4731TIP3    H235685   0.385   5.333  12.553 -0.1329 -0.9165 -1.5134
 4732TIP3   OH235686   2.072   3.058   0.826  0.2991 -0.1237  0.4502
 4732TIP3    H135687   2.055   3.016   0.742 -2.9811  0.4371  0.7591
 4732TIP3    H235688   2.139   3.123   0.807 -0.8555  0.4380 -1.9033
 4733TIP3   OH235689   4.114   3.934  15.298  0.1850  0.3280  0.0582
 4733TIP3    H135690   4.167   3.862  15.332 -2.5405 -1.3530  0.8814
 4733TIP3    H235691   4.036   3.891  15.262 -0.3567  2.6843 -1.6913
 4734TIP3   OH235692   6.939   3.172   9.866  0.9233 -0.3651 -0.3361
 4734TIP3    H135693   7.013   3.191   9.808  0.9137 -1.0764 -0.5940
 4734TIP3    H235694   6.862   3.184   9.811  0.8938 -0.6044 -0.3486
 4735TIP3   OH235695   6.778   3.874  12.603  0.0197  0.0891  0.6663
 4735TIP3    H135696   6.849   3.812  12.617 -1.4028 -1.9894 -1.0278
 4735TIP3    H235697   6.739   3.886  12.690  0.2298 -1.4856  0.9872
 4736TIP3   OH235698   4.410   0.248  13.988 -0.6119 -0.6294 -0.4122
 4736TIP3    H135699   4.430   0.208  13.903  2.1138 -1.2097  0.4527
 4736TIP3    H235700   4.369   0.332  13.966  2.8881  0.6577 -2.3611
 4737TIP3   OH235701   6.920   6.707  12.545 -0.4176 -0.1079 -0.1384
 4737TIP3    H135702   6.989   6.645  12.565 -0.4581 -0.6499 -1.6670
 4737TIP3    H235703   6.965   6.792  12.538 -0.2905 -0.0310  1.4077
 4738TIP3   OH235704   0.976   3.671  15.093 -0.3482  0.1285 -0.1630
 4738TIP3    H135705   1.011   3.650  15.007  1.9764 -0.4442  0.8871
 4738TIP3    H235706   0.882   3.653  15.086 -0.2876  0.6597 -2.7230
 4739TIP3   OH235707   1.956   2.481  15.065 -0.1809 -0.3743 -0.1541
 4739TIP3    H135708   1.863   2.475  15.044 -0.6281 -0.2770  1.7445
 4739TIP3    H235709   1.980   2.571  15.044 -0.9233  0.0870  0.9571
 4740TIP3   OH235710   6.692   2.085  12.026 -0.5346  0.2246  0.6154
 4740TIP3    H135711   6.680   2.046  11.939  1.9142 -0.3935  0.5157
 4740TIP3    H235712   6.710   2.177  12.008  1.4327 -0.1810  0.3220
 4741TIP3   OH235713   4.893   0.712  10.908  0.2562 -0.2277  0.0472
 4741TIP3    H135714   4.806   0.701  10.947  0.8434  0.0153  1.4613
 4741TIP3    H235715   4.892   0.657  10.829 -1.2756  0.0264 -0.1135
 4742TIP3   OH235716   1.051   5.135  10.362 -0.2755  0.1076 -0.2644
 4742TIP3    H135717   1.142   5.123  10.335  0.0848 -0.4643  1.1382
 4742TIP3    H235718   1.008   5.053  10.337 -0.1624 -0.0369  0.0105
 4743TIP3   OH235719   1.147   0.410  10.363 -0.2622  0.3844  0.0385
 4743TIP3    H135720   1.206   0.458  10.420  0.3984  0.8864 -1.0492
 4743TIP3    H235721   1.105   0.346  10.420 -0.1954  1.3870  1.2409
 4744TIP3   OH235722   5.646   1.153  12.523  0.3465  0.0381 -0.0504
 4744TIP3    H135723   5.735   1.178  12.549  0.7856 -1.6118  0.0905
 4744TIP3    H235724   5.656   1.115  12.436 -0.2883  0.2414 -0.2150
 4745TIP3   OH235725   3.474   0.413   1.057 -0.4155  0.3113 -0.0895
 4745TIP3    H135726   3.379   0.404   1.066 -0.3436 -0.4542 -0.0191
 4745TIP3    H235727   3.499   0.470   1.130 -0.7096 -0.2700  0.4814
 4746TIP3   OH235728   0.187   6.921  10.455 -0.1019 -0.5743 -0.2164
 4746TIP3    H135729   0.107   6.958  10.417 -1.6778 -2.4693  1.1690
 4746TIP3    H235730   0.208   6.980  10.527 -1.6659 -1.3993  0.9502
 4747TIP3   OH235731   5.299   4.447  12.836 -0.0713 -0.1186 -0.4059
 4747TIP3    H135732   5.394   4.437  12.829 -0.1394 -1.0181 -0.1655
 4747TIP3    H235733   5.282   4.452  12.930 -0.2933 -0.3235 -0.4341
 4748TIP3   OH235734   0.043   0.523  10.414 -0.6816 -0.2130 -0.5475
 4748TIP3    H135735   0.016   0.479  10.494 -0.9899  0.0182 -0.5225
 4748TIP3    H235736   0.048   0.454  10.348  2.1522 -0.8662  0.2694
 4749TIP3   OH235737   1.768   3.328  12.222 -0.3945  0.7884 -0.1866
 4749TIP3    H135738   1.721   3.390  12.278 -0.6431  0.9337 -0.5557
 4749TIP3    H235739   1.703   3.300  12.158 -0.6671 -0.8875  0.8008
 4750TIP3   OH235740   1.585   5.058  13.145  0.6066  0.1857 -0.1392
 4750TIP3    H135741   1.615   5.045  13.055  1.9965 -0.7715  0.4559
 4750TIP3    H235742   1.567   4.970  13.177  1.1401  0.4376  0.8740
 4751TIP3   OH235743   0.673   6.293  12.969 -0.2503  0.5308 -0.0722
 4751TIP3    H135744   0.712   6.371  12.928 -0.4202 -0.0441 -1.3433
 4751TIP3    H235745   0.726   6.278  13.047  0.2676  1.4760 -0.2310
 4752TIP3   OH235746   6.652   4.539  10.223 -0.0265 -0.3271  0.1732
 4752TIP3    H135747   6.672   4.460  10.173 -0.8480 -0.3741 -0.0848
 4752TIP3    H235748   6.720   4.602  10.196  0.3163 -0.7760 -0.0090
 4753TIP3   OH235749   4.384   6.263  10.681 -0.0952 -0.0354 -0.3589
 4753TIP3    H135750   4.325   6.236  10.610  0.6973  1.1974 -1.5098
 4753TIP3    H235751   4.331   6.253  10.761 -0.8782 -1.7940 -1.0535
 4754TIP3   OH235752   1.114   1.905  10.514 -0.4161  0.1562 -0.0220
 4754TIP3    H135753   1.052   1.967  10.476  0.8417  0.1754 -2.1393
 4754TIP3    H235754   1.136   1.941  10.600 -0.9653  1.7622 -0.5476
 4755TIP3   OH235755   0.052   5.181  13.423  0.5976  0.5018  0.4912
 4755TIP3    H135756   0.012   5.227  13.349 -0.9956  0.7292  1.4706
 4755TIP3    H235757   0.133   5.228  13.440 -0.5225  2.3269  0.8312
 4756TIP3   OH235758   5.135   1.538  11.911 -0.2058 -0.1341  0.1642
 4756TIP3    H135759   5.136   1.503  11.822 -0.0508 -0.4131  0.2734
 4756TIP3    H235760   5.222   1.577  11.922 -0.6435  0.9648 -0.2205
 4757TIP3   OH235761   1.757   1.502  13.128 -0.3884 -0.2317 -0.6651
 4757TIP3    H135762   1.800   1.463  13.204  0.5612  1.3616 -0.3630
 4757TIP3    H235763   1.701   1.432  13.094 -0.7956 -0.9868  1.4658
 4758TIP3   OH235764   6.166   4.237   9.948 -0.4042 -0.2414 -0.8371
 4758TIP3    H135765   6.227   4.309   9.938  0.3132 -0.7098  0.0050
 4758TIP3    H235766   6.082   4.278   9.967 -0.6392  0.4442 -3.2574
 4759TIP3   OH235767   1.605   5.771  13.085  0.1974  0.0667  0.0181
 4759TIP3    H135768   1.646   5.768  12.999  0.7810  1.4742  0.2350
 4759TIP3    H235769   1.649   5.703  13.136  1.4681  0.7931 -0.0972
 4760TIP3   OH235770   6.443   1.450  14.771 -0.1698  0.8076  0.0717
 4760TIP3    H135771   6.458   1.359  14.797  1.2802  0.7210 -1.0414
 4760TIP3    H235772   6.357   1.471  14.808 -0.1240 -0.7179  1.1049
 4761TIP3   OH235773   0.522   3.257  10.398 -0.8916 -0.3385  0.5705
 4761TIP3    H135774   0.603   3.220  10.363 -0.3292 -0.3065  1.8283
 4761TIP3    H235775   0.476   3.290  10.321  1.1413  1.3417  0.0317
 4762TIP3   OH235776   2.599   1.190   0.612  0.1167 -0.0077 -0.5147
 4762TIP3    H135777   2.565   1.273   0.645  1.0873  0.7837 -1.4744
 4762TIP3    H235778   2.659   1.160   0.680 -1.0007 -0.4465  0.3006
 4763TIP3   OH235779   2.317   6.663  10.330 -0.5192  0.5758 -0.1638
 4763TIP3    H135780   2.385   6.642  10.266 -1.2767  0.4782 -0.9336
 4763TIP3    H235781   2.366   6.697  10.406  0.3190  1.5912 -1.1411
 4764TIP3   OH235782   4.760   0.648  13.186  0.6026  0.6266 -0.1977
 4764TIP3    H135783   4.719   0.568  13.218  0.4425 -0.0452 -2.0211
 4764TIP3    H235784   4.716   0.718  13.233 -1.6054 -0.1654 -1.0454
 4765TIP3   OH235785   0.098   6.252  11.813  0.2687 -0.9783 -0.1723
 4765TIP3    H135786   0.173   6.311  11.809 -0.9690  0.6219 -0.4540
 4765TIP3    H235787   0.036   6.295  11.872 -1.9217 -0.4449 -2.7440
 4766TIP3   OH235788   6.508   7.195  13.946  0.0275 -0.4407 -0.2226
 4766TIP3    H135789   6.480   7.179  14.036  0.0875  2.6118  0.3871
 4766TIP3    H235790   6.592   7.150  13.938  1.0189  0.9353  1.9197
 4767TIP3   OH235791   6.671   1.606  14.079 -0.4421  0.0340 -0.2111
 4767TIP3    H135792   6.754   1.584  14.037  0.4088 -1.3811  2.1094
 4767TIP3    H235793   6.632   1.672  14.022  1.8246  0.0187 -1.8494
 4768TIP3   OH235794   5.607   4.344  10.496 -0.0626  0.3235 -0.0140
 4768TIP3    H135795   5.675   4.318  10.434 -0.1152  0.6097 -0.1927
 4768TIP3    H235796   5.535   4.284  10.480 -0.7300  1.4523 -1.4047
 4769TIP3   OH235797   5.020   1.299  11.071  0.0284  0.6215 -0.3871
 4769TIP3    H135798   4.949   1.337  11.019  0.7522  1.2532 -0.9063
 4769TIP3    H235799   5.097   1.352  11.050  0.6157  0.0500  0.3160
 4770TIP3   OH235800   5.893   4.640  12.080 -0.3448 -0.1086 -0.1154
 4770TIP3    H135801   5.849   4.621  12.162 -0.0036 -0.5717 -0.0344
 4770TIP3    H235802   5.970   4.583  12.080  1.3537  2.1138  0.6663
 4771TIP3   OH235803   6.576   2.105  12.726  0.1208  0.5042 -0.2500
 4771TIP3    H135804   6.561   2.199  12.735 -0.7987  0.4327 -0.8753
 4771TIP3    H235805   6.510   2.077  12.662  0.2343 -0.6041  0.1111
 4772TIP3   OH235806   3.303   4.614   0.954 -0.2186  0.1866 -0.5503
 4772TIP3    H135807   3.239   4.549   0.981  0.5486 -0.1344  0.5369
 4772TIP3    H235808   3.317   4.598   0.861 -0.7334 -0.5832 -0.4944
 4773TIP3   OH235809   0.581   2.451  13.997  0.4117  0.1803 -0.6844
 4773TIP3    H135810   0.505   2.483  13.949  0.1825  0.4009 -0.1723
 4773TIP3    H235811   0.612   2.527  14.047 -0.6007 -0.5892  1.1453
 4774TIP3   OH235812   6.470   3.565  11.042 -0.2549 -0.0778  0.3943
 4774TIP3    H135813   6.379   3.593  11.032 -0.3639 -0.6918 -0.3750
 4774TIP3    H235814   6.493   3.589  11.132 -1.2284 -0.0691  0.6433
 4775TIP3   OH235815   4.410   2.632  10.100  0.1961 -0.5423  0.5392
 4775TIP3    H135816   4.467   2.709  10.102 -0.3922 -0.1349  2.2161
 4775TIP3    H235817   4.335   2.659  10.047  0.1216 -0.0466  0.8938
 4776TIP3   OH235818   6.501   4.365  12.866 -0.2717 -0.4305 -0.0335
 4776TIP3    H135819   6.431   4.314  12.825  0.9906 -1.1932 -1.3050
 4776TIP3    H235820   6.519   4.319  12.948 -0.8393 -0.5733  0.0135
 4777TIP3   OH235821   2.027   3.206  12.208  0.0054  0.3040  0.2562
 4777TIP3    H135822   1.936   3.220  12.237  0.3380 -0.4938  1.7357
 4777TIP3    H235823   2.059   3.294  12.188 -0.9120  0.6603  0.3082
 4778TIP3   OH235824   2.221   0.988   9.962 -0.4177  0.0354 -0.1354
 4778TIP3    H135825   2.194   1.000   9.871 -0.6377  0.1793 -0.0540
 4778TIP3    H235826   2.303   1.037   9.970 -0.0184 -0.5871 -0.4428
 4779TIP3   OH235827   2.944   2.745  13.987  0.8366 -0.0184  0.9376
 4779TIP3    H135828   2.870   2.702  13.945  0.2862  2.9773 -1.3312
 4779TIP3    H235829   2.921   2.747  14.080 -0.7362 -1.3888  0.5923
 4780TIP3   OH235830   2.189   0.124   1.009  0.2861  0.0053  0.0728
 4780TIP3    H135831   2.191   0.174   0.927  0.8231  0.7099  0.4990
 4780TIP3    H235832   2.282   0.115   1.033  0.1467 -0.4833  0.4313
 4781TIP3   OH235833   1.028   3.675  12.726  0.4659 -0.3199  0.5617
 4781TIP3    H135834   0.994   3.708  12.809  0.0391  1.1864 -0.2018
 4781TIP3    H235835   0.950   3.665  12.670  0.8562 -0.3982  0.0233
 4782TIP3   OH235836   6.983   4.566  12.143  0.1098 -0.2908 -1.0018
 4782TIP3    H135837   6.951   4.652  12.169  1.0197  0.2663 -1.6963
 4782TIP3    H235838   6.950   4.507  12.210  1.4093  0.9365  0.7914
 4783TIP3   OH235839   1.117   1.592  10.865  0.6121 -0.2435  0.2369
 4783TIP3    H135840   1.206   1.625  10.856  1.2169 -1.0961  2.5956
 4783TIP3    H235841   1.111   1.521  10.801  0.9351  1.1500 -1.3629
 4784TIP3   OH235842   5.983   0.878   0.281  0.0810  0.1634 -0.3288
 4784TIP3    H135843   6.006   0.970   0.283  1.2994 -0.1558  0.7002
 4784TIP3    H235844   5.887   0.877   0.283  0.0923  1.3622  1.4208
 4785TIP3   OH235845   0.077   4.086  10.197 -0.4259 -0.1281  0.5749
 4785TIP3    H135846   0.003   4.075  10.257 -0.3601  0.6097  0.7937
 4785TIP3    H235847   0.064   4.173  10.160  1.6860  1.0498  2.4869
 4786TIP3   OH235848   5.568   2.785   0.615  0.5501 -0.0755 -1.0856
 4786TIP3    H135849   5.500   2.803   0.549  0.2760  0.4536 -0.6625
 4786TIP3    H235850   5.635   2.852   0.599  2.8004 -2.8521 -3.9600
 4787TIP3   OH235851   1.624   0.734  12.509  0.1617 -0.6008 -0.1711
 4787TIP3    H135852   1.633   0.638  12.509  0.4265 -0.5775 -0.8575
 4787TIP3    H235853   1.642   0.760  12.419  0.5460  0.1462  0.1178
 4788TIP3   OH235854   5.894   3.885  12.203  0.1808 -0.2105  0.3775
 4788TIP3    H135855   5.937   3.828  12.139  0.2341 -0.2290  0.4277
 4788TIP3    H235856   5.801   3.872  12.188  0.1877  1.3576 -1.0712
 4789TIP3   OH235857   6.315   4.202  12.734 -0.2946  0.5810 -0.4339
 4789TIP3    H135858   6.284   4.158  12.655  1.3185  0.3267 -0.9310
 4789TIP3    H235859   6.327   4.132  12.798 -0.9025  0.7015 -0.1855
 4790TIP3   OH235860   5.862   2.414  11.721  0.2548  0.1177  0.4726
 4790TIP3    H135861   5.936   2.465  11.688 -0.5292  0.5585 -0.6057
 4790TIP3    H235862   5.799   2.479  11.751 -0.5812 -0.2105 -0.5384
 4791TIP3   OH235863   1.419   1.123  10.356 -0.3259  0.6243  0.0863
 4791TIP3    H135864   1.463   1.205  10.334  0.1982  0.1859 -0.5300
 4791TIP3    H235865   1.339   1.122  10.304 -0.0959  0.5294 -0.2663
 4792TIP3   OH235866   1.808   4.731  12.109 -0.1002 -0.3415 -0.7444
 4792TIP3    H135867   1.846   4.782  12.181 -0.8187  0.0332 -0.6232
 4792TIP3    H235868   1.783   4.648  12.149 -0.5797 -0.1007 -0.5317
 4793TIP3   OH235869   6.501   5.382  10.899  0.2834 -0.5849 -0.0516
 4793TIP3    H135870   6.426   5.419  10.945  0.0817 -1.9118  0.7008
 4793TIP3    H235871   6.491   5.287  10.907  1.8236 -0.7896 -0.2822
 4794TIP3   OH235872   4.756   3.147  13.986 -0.1113  0.0985  0.1375
 4794TIP3    H135873   4.727   3.085  14.053 -0.7010  1.8845  1.5972
 4794TIP3    H235874   4.675   3.187  13.954  0.3000  0.5674 -0.3217
 4795TIP3   OH235875   0.291   3.113  11.895 -0.0831 -0.1100 -0.6636
 4795TIP3    H135876   0.295   3.023  11.928  0.9284  0.6073  1.2330
 4795TIP3    H235877   0.225   3.156  11.949  1.7498  1.1482  0.6159
 4796TIP3   OH235878   5.787   4.452  13.667  0.8414  0.0643 -0.0120
 4796TIP3    H135879   5.837   4.390  13.720  0.4459 -0.5772 -0.3847
 4796TIP3    H235880   5.800   4.536  13.711  0.0194 -0.5467  1.4795
 4797TIP3   OH235881   3.642   1.883  13.601 -0.6708  0.0042 -0.5653
 4797TIP3    H135882   3.617   1.868  13.692 -0.8085 -2.0112 -0.9137
 4797TIP3    H235883   3.735   1.860  13.598 -0.1495  1.9775 -0.5274
 4798TIP3   OH235884   6.550   1.185  15.227  0.6107  0.5557  0.1971
 4798TIP3    H135885   6.593   1.265  15.259  0.7901  0.5139  0.0593
 4798TIP3    H235886   6.471   1.177  15.282  0.7713  0.6380  0.4441
 4799TIP3   OH235887   2.111   1.972  11.163 -0.0138 -0.8336 -0.1842
 4799TIP3    H135888   2.172   2.035  11.201  0.2185 -0.3133 -1.3825
 4799TIP3    H235889   2.066   1.933  11.238  2.1365 -1.5821  0.7548
 4800TIP3   OH235890   2.415   5.858  11.003  0.0630  0.0730 -0.0832
 4800TIP3    H135891   2.454   5.771  10.995  0.1212  0.1811 -0.9716
 4800TIP3    H235892   2.379   5.877  10.917 -1.3575  0.2650  0.5370
 4801TIP3   OH235893   0.391   0.643   9.884 -0.2097 -0.5322  0.7400
 4801TIP3    H135894   0.310   0.637   9.934 -0.5310  2.0880  0.6391
 4801TIP3    H235895   0.434   0.722   9.918  0.9721 -0.3563 -1.0886
 4802TIP3   OH235896   2.308   3.694  11.510  0.3346 -0.2425  0.4618
 4802TIP3    H135897   2.353   3.666  11.431 -1.6728  0.3029 -0.9287
 4802TIP3    H235898   2.344   3.639  11.580 -0.4103 -3.2933 -1.4571
 4803TIP3   OH235899   3.003   4.051  11.318 -0.6407  0.2546  0.1699
 4803TIP3    H135900   3.039   4.017  11.236 -0.4030 -1.3820  0.9527
 4803TIP3    H235901   2.941   4.119  11.290 -0.3754 -0.1149 -1.3476
 4804TIP3   OH235902   6.550   0.964  12.167  0.4656  0.3527 -0.4694
 4804TIP3    H135903   6.577   0.910  12.242  0.9790  0.2217 -0.7474
 4804TIP3    H235904   6.459   0.988  12.186  0.3035 -0.4386 -0.2388
 4805TIP3   OH235905   7.016   3.495   9.649  0.2090 -0.4038  0.0580
 4805TIP3    H135906   7.056   3.412   9.676 -0.5012 -0.7333  0.1191
 4805TIP3    H235907   7.074   3.529   9.582  0.7270 -0.7501  0.3249
 4806TIP3   OH235908   6.868   3.071  13.073 -0.3852  0.2375 -0.1055
 4806TIP3    H135909   6.843   2.979  13.078 -0.0897  0.1855  0.4353
 4806TIP3    H235910   6.907   3.080  12.986  1.6206 -0.6747  0.6662
 4807TIP3   OH235911   0.234   1.221  10.889  0.0653  0.1379  0.2987
 4807TIP3    H135912   0.194   1.135  10.898 -0.0575  0.2661  1.0110
 4807TIP3    H235913   0.211   1.267  10.970 -0.9547  1.2857 -0.6267
 4808TIP3   OH235914   5.436   0.892   0.391 -0.1610  0.6386  0.3260
 4808TIP3    H135915   5.354   0.856   0.356 -0.1948  1.6378 -0.6571
 4808TIP3    H235916   5.409   0.973   0.435  0.5946  2.1943 -2.0280
 4809TIP3   OH235917   3.494   6.985  12.562 -0.1681 -0.0706  0.4492
 4809TIP3    H135918   3.413   7.019  12.601 -0.0959  1.0905 -0.3904
 4809TIP3    H235919   3.548   7.063  12.548  0.6158 -0.7092 -0.1078
 4810TIP3   OH235920   4.700   1.906  11.581  0.1130 -0.1740  0.6516
 4810TIP3    H135921   4.778   1.949  11.546 -0.6238 -0.3489 -1.2643
 4810TIP3    H235922   4.730   1.865  11.662  2.0804 -0.4838 -0.1896
 4811TIP3   OH235923   4.406   1.274  12.807 -0.0052 -0.3193 -0.1818
 4811TIP3    H135924   4.460   1.200  12.779  1.8506  0.7314  0.4520
 4811TIP3    H235925   4.342   1.236  12.867  1.9463 -1.2034  1.4009
 4812TIP3   OH235926   5.997   0.798  13.087 -0.5087  0.2392 -0.7502
 4812TIP3    H135927   5.927   0.769  13.145  0.4153  1.1715  0.8904
 4812TIP3    H235928   5.955   0.857  13.025 -1.2217  0.5843  0.0607
 4813TIP3   OH235929   7.132   3.077  10.609 -0.4352  0.2149 -0.4708
 4813TIP3    H135930   7.208   3.044  10.657  2.0505  3.5734 -1.9046
 4813TIP3    H235931   7.157   3.072  10.517 -1.0650  3.3222 -0.8687
 4814TIP3   OH235932   7.192   0.658  14.844  0.2469  0.4394  0.5369
 4814TIP3    H135933   7.256   0.665  14.773  1.1611 -1.8949  1.0886
 4814TIP3    H235934   7.245   0.649  14.923 -0.7682  0.1008  1.1831
 4815TIP3   OH235935   5.027   1.740   1.374 -0.0665  0.5810  0.2149
 4815TIP3    H135936   4.949   1.793   1.390 -0.7524  0.0826 -1.4219
 4815TIP3    H235937   5.095   1.802   1.349 -0.7670  0.7449 -1.3293
 4816TIP3   OH235938   5.438   1.284  12.918  0.1012 -0.3578  0.6090
 4816TIP3    H135939   5.500   1.356  12.920 -0.3721  0.0425  0.8687
 4816TIP3    H235940   5.403   1.279  13.007  2.6967 -3.1575  1.5700
 4817TIP3   OH235941   6.781   1.782   0.351  0.3346  0.1211  0.1262
 4817TIP3    H135942   6.821   1.758   0.434 -0.5035  0.3016  0.5825
 4817TIP3    H235943   6.703   1.728   0.345  0.4358  0.0491 -0.5872
 4818TIP3   OH235944   0.951   3.374  11.184 -0.0742  0.7068  0.1294
 4818TIP3    H135945   1.013   3.406  11.119 -0.5148  0.0361 -0.6295
 4818TIP3    H235946   0.941   3.447  11.245  2.5248  0.3210  1.0863
 4819TIP3   OH235947   0.193   1.217  13.213 -0.2244  0.2342  0.2208
 4819TIP3    H135948   0.154   1.258  13.136 -0.6888 -0.1866  0.2267
 4819TIP3    H235949   0.145   1.135  13.223 -1.6840  1.3047  2.2769
 4820TIP3   OH235950   5.655   2.559  12.210 -0.4297 -0.2228 -0.2319
 4820TIP3    H135951   5.678   2.472  12.243 -0.5334 -0.5492 -0.9994
 4820TIP3    H235952   5.738   2.602  12.195 -0.3884  0.0753  0.8397
 4821TIP3   OH235953   1.749   2.921  15.002  0.3880  0.4771  1.1629
 4821TIP3    H135954   1.761   2.993  14.940  0.8724 -1.4864 -1.1021
 4821TIP3    H235955   1.831   2.872  14.998 -1.3921 -2.5273 -0.4747
 4822TIP3   OH235956   0.259   2.705   0.898  0.1656  0.2113  0.1516
 4822TIP3    H135957   0.306   2.783   0.927 -0.8170  0.3890  1.3478
 4822TIP3    H235958   0.312   2.669   0.827  1.7789  0.7449  1.0536
 4823TIP3   OH235959   6.535   2.991  14.259  0.2652  0.2206 -0.3133
 4823TIP3    H135960   6.574   2.950  14.336  2.0860 -1.6772 -2.1658
 4823TIP3    H235961   6.575   3.077  14.254  0.4239  0.2041  0.6483
 4824TIP3   OH235962   1.935   5.546  15.229 -0.7237 -0.9302 -0.0284
 4824TIP3    H135963   1.936   5.455  15.258 -0.9478 -1.0134 -0.2792
 4824TIP3    H235964   1.858   5.583  15.272  0.1445 -0.5025  1.1589
 4825TIP3   OH235965   1.833   1.915   0.302  0.1289 -0.4914  0.4323
 4825TIP3    H135966   1.860   2.007   0.314 -0.9007 -0.1612  0.2583
 4825TIP3    H235967   1.903   1.877   0.248  1.3833 -0.2375  1.8300
 4826TIP3   OH235968   4.264   1.923  11.400 -0.4234  0.5221 -0.4764
 4826TIP3    H135969   4.260   1.828  11.402  0.5708  0.5083  2.6725
 4826TIP3    H235970   4.353   1.944  11.426 -0.7750  2.3410 -0.6641
 4827TIP3   OH235971   6.850   0.711   1.769 -0.0114 -0.2144 -0.3378
 4827TIP3    H135972   6.785   0.648   1.800  0.6355 -0.1608  1.1777
 4827TIP3    H235973   6.800   0.793   1.758 -0.0825  0.0075  1.4891
 4828TIP3   OH235974   4.629   5.963  13.269  0.7680 -0.2895  0.0168
 4828TIP3    H135975   4.647   6.033  13.206  2.7721 -1.4856 -0.7829
 4828TIP3    H235976   4.618   5.885  13.215 -1.1951 -0.6634  0.9192
 4829TIP3   OH235977   5.821   3.546   0.760 -0.3321  0.2302  0.3751
 4829TIP3    H135978   5.818   3.592   0.676 -1.1376 -0.1538  0.1951
 4829TIP3    H235979   5.914   3.544   0.782 -0.2303  1.4326  0.1005
 4830TIP3   OH235980   3.959   5.573   0.792  0.0947 -0.2386  0.3850
 4830TIP3    H135981   3.884   5.633   0.795 -0.4351 -0.9475  1.6843
 4830TIP3    H235982   4.007   5.592   0.872  0.0722 -1.3534  0.6643
 4831TIP3   OH235983   5.269   1.282   9.185  0.0116 -1.0756 -0.4555
 4831TIP3    H135984   5.237   1.216   9.124  0.8074 -2.4288  0.5613
 4831TIP3    H235985   5.330   1.235   9.242 -0.0115  0.3566  0.7964
 4832TIP3   OH235986   3.591   3.147   1.479  0.4870  0.1481  0.6376
 4832TIP3    H135987   3.560   3.076   1.423  1.7353  1.5651 -1.9368
 4832TIP3    H235988   3.686   3.146   1.468  0.6229  1.3622  1.6254
 4833TIP3   OH235989   2.406   2.778  12.325  0.0309 -0.2464  0.3994
 4833TIP3    H135990   2.379   2.699  12.373  2.4658 -1.2216  0.2474
 4833TIP3    H235991   2.346   2.783  12.251 -0.6648 -1.5123  0.8674
 4834TIP3   OH235992   3.489   2.171  13.772 -0.3341  0.1833 -0.4135
 4834TIP3    H135993   3.515   2.123  13.851  0.0258 -1.1026 -1.2854
 4834TIP3    H235994   3.556   2.239  13.762  2.1661 -2.3838 -1.9897
 4835TIP3   OH235995   6.991   1.897  12.405  0.0414  0.5222 -0.3323
 4835TIP3    H135996   6.976   1.859  12.318  3.4560 -0.6406 -0.5057
 4835TIP3    H235997   7.039   1.978  12.387  2.3914 -0.6369  0.4821
 4836TIP3   OH235998   3.606   2.245  11.027 -0.1568  0.3865  0.5813
 4836TIP3    H135999   3.594   2.300  10.949  0.9817  0.0707  0.1817
 4836TIP3    H236000   3.651   2.302  11.089  1.6042 -0.2855 -0.0658
 4837TIP3   OH236001   2.673   1.059  14.101  0.4566 -0.3594  0.7674
 4837TIP3    H136002   2.606   1.104  14.050  0.5546  1.3600  2.1319
 4837TIP3    H236003   2.756   1.099  14.074  0.9748 -2.5036 -0.9395
 4838TIP3   OH236004   2.958   0.165  13.170 -0.6777 -0.1103 -0.1647
 4838TIP3    H136005   2.888   0.200  13.224 -0.4636  0.8723 -0.5211
 4838TIP3    H236006   3.033   0.222  13.186  0.7297 -2.4632  1.9080
 4839TIP3   OH236007   5.677   5.826   9.913 -0.1396  0.1777 -0.5390
 4839TIP3    H136008   5.621   5.758   9.877 -0.0451 -0.9701  1.3940
 4839TIP3    H236009   5.758   5.821   9.862 -0.6899 -0.1417 -1.3883
 4840TIP3   OH236010   1.013   3.246  10.665  0.2874  0.0801 -0.3379
 4840TIP3    H136011   1.029   3.338  10.687 -3.7220  0.9902 -0.8503
 4840TIP3    H236012   1.027   3.240  10.571 -1.4421  0.6485 -0.6363
 4841TIP3   OH236013   6.840   0.574  13.148  0.5827  0.2695  0.1225
 4841TIP3    H136014   6.826   0.667  13.131 -0.2217  0.2362  0.5884
 4841TIP3    H236015   6.873   0.539  13.066  0.3346  0.8510 -0.2246
 4842TIP3   OH236016   3.126   2.468  15.180 -0.0413 -0.8450  0.1387
 4842TIP3    H136017   3.077   2.412  15.241 -2.0858  0.4865 -0.2443
 4842TIP3    H236018   3.214   2.429  15.177 -0.1046 -1.3607  3.3739
 4843TIP3   OH236019   6.501   5.194  10.654 -0.1494 -0.2507  0.0544
 4843TIP3    H136020   6.470   5.141  10.727  1.5616 -0.7128  0.4657
 4843TIP3    H236021   6.544   5.269  10.695 -1.4162  0.8285 -0.5187
 4844TIP3   OH236022   5.365   1.037  10.939  0.1792 -0.1768  0.6520
 4844TIP3    H136023   5.409   0.989  10.869  0.3333 -0.9592  1.2783
 4844TIP3    H236024   5.272   1.017  10.927  0.0523  0.8897 -0.2250
 4845TIP3   OH236025   5.589   0.223   9.870 -0.4816  0.0072 -0.6113
 4845TIP3    H136026   5.503   0.203   9.833  0.7644 -0.7354 -3.2080
 4845TIP3    H236027   5.583   0.315   9.896 -2.2765 -0.2359 -0.1109
 4846TIP3   OH236028   3.411   6.964  14.776  0.2389  0.2819  0.5772
 4846TIP3    H136029   3.338   7.013  14.814  0.0713  0.4275  0.0770
 4846TIP3    H236030   3.439   7.017  14.701 -0.5415 -0.8188 -0.5159
 4847TIP3   OH236031   6.043   6.262  14.504  0.4913  0.5351  0.7037
 4847TIP3    H136032   6.112   6.289  14.564 -0.5430  0.3986  1.9875
 4847TIP3    H236033   6.083   6.266  14.417  2.5078 -0.8430  1.5363
 4848TIP3   OH236034   0.542   6.139  12.690  0.0950 -0.5091 -0.8427
 4848TIP3    H136035   0.491   6.200  12.743  0.8371 -0.8880  0.3281
 4848TIP3    H236036   0.518   6.160  12.600  0.7507  1.8961 -0.4947
 4849TIP3   OH236037   2.888   4.580  11.803 -0.0511 -0.0799  0.1923
 4849TIP3    H136038   2.971   4.615  11.835 -0.1614 -1.0175  1.5309
 4849TIP3    H236039   2.841   4.554  11.882 -1.1095 -0.7033 -0.6323
 4850TIP3   OH236040   5.888   0.105   9.952 -0.4658 -0.6342  0.1366
 4850TIP3    H136041   5.962   0.146   9.908  0.1917 -0.8611  1.0138
 4850TIP3    H236042   5.814   0.163   9.934  0.1787  0.2420  0.2799
 4851TIP3   OH236043   4.568   1.746  11.368 -0.0671 -0.4285  0.4736
 4851TIP3    H136044   4.622   1.782  11.437 -1.9672  2.7167  0.4403
 4851TIP3    H236045   4.538   1.661  11.402  0.5240  0.2267  2.7010
 4852TIP3   OH236046   0.312   2.735  10.561  0.4760 -0.2262 -0.0497
 4852TIP3    H136047   0.388   2.754  10.507  0.1864  0.4176 -0.2381
 4852TIP3    H236048   0.261   2.817  10.561 -1.5693 -1.4244 -2.0926
 4853TIP3   OH236049   5.991   0.978  10.549 -1.0689 -0.2502 -0.0999
 4853TIP3    H136050   6.061   1.002  10.609 -0.7237  0.4746 -0.7813
 4853TIP3    H236051   6.035   0.945  10.471 -1.5080 -0.9138 -0.0708
 4854TIP3   OH236052   1.823   3.153  11.734  0.1910  0.1219 -0.9733
 4854TIP3    H136053   1.775   3.150  11.816 -0.1844  2.1182 -1.0924
 4854TIP3    H236054   1.904   3.104  11.750 -0.0535  0.1920  0.4621
 4855TIP3   OH236055   6.461   1.503   0.244  0.9745 -0.3243 -0.0310
 4855TIP3    H136056   6.518   1.489   0.168  1.3433  0.6620  0.0504
 4855TIP3    H236057   6.402   1.573   0.216 -0.8311 -1.9537 -0.4418
 4856TIP3   OH236058   4.391   2.529  14.257  0.3375 -0.9462 -0.2206
 4856TIP3    H136059   4.301   2.537  14.226  0.3835  0.9786  0.0813
 4856TIP3    H236060   4.401   2.437  14.279 -1.6581 -1.1066  0.0419
 4857TIP3   OH236061   1.012   2.011   9.518  0.3026 -0.5712  0.2903
 4857TIP3    H136062   0.982   1.964   9.440 -0.4945  1.7486 -0.8311
 4857TIP3    H236063   0.936   2.010   9.576 -0.9107  2.3615 -1.1762
 4858TIP3   OH236064   3.931   2.061   0.091  0.4143 -0.3617 -0.4449
 4858TIP3    H136065   4.007   2.038   0.145 -0.1570  0.0469  0.5570
 4858TIP3    H236066   3.857   2.020   0.137 -0.6635  3.4974  1.4714
 4859TIP3   OH236067   6.188   4.371  12.331  0.3160  0.2377 -0.6194
 4859TIP3    H136068   6.135   4.424  12.390  1.0389  0.7620 -0.4233
 4859TIP3    H236069   6.278   4.389  12.358  0.6609  0.6604 -2.0331
 4860TIP3   OH236070   4.483   1.873  11.144 -0.3319  0.1220 -0.6435
 4860TIP3    H136071   4.488   1.968  11.155 -0.1558  0.1796 -1.2453
 4860TIP3    H236072   4.516   1.838  11.227 -1.5290  0.5954  0.0458
 4861TIP3   OH236073   4.011   0.785  10.973 -0.7133 -0.2905 -0.2017
 4861TIP3    H136074   4.061   0.786  10.892  0.0400  1.0880  0.2581
 4861TIP3    H236075   3.986   0.876  10.988 -0.0018 -0.3548  1.6028
 4862TIP3   OH236076   5.600   2.359  12.707 -0.4104 -0.0721 -0.5382
 4862TIP3    H136077   5.526   2.318  12.662 -1.5118 -0.6056  1.6838
 4862TIP3    H236078   5.606   2.447  12.670 -1.8149 -0.2161 -1.1154
 4863TIP3   OH236079   2.984   3.728   9.914  0.3731  0.0745  0.3908
 4863TIP3    H136080   3.013   3.816   9.939 -1.4753  0.5878  0.8437
 4863TIP3    H236081   3.007   3.720   9.822 -0.9622  1.7172 -0.1112
 4864TIP3   OH236082   0.484   3.146  13.295 -0.2865 -0.8105 -0.1625
 4864TIP3    H136083   0.551   3.188  13.241 -0.5223 -0.0875  0.0937
 4864TIP3    H236084   0.534   3.095  13.359  0.0684  0.9229  0.9787
 4865TIP3   OH236085   3.833   1.337   1.728  0.3137 -0.1294 -0.0665
 4865TIP3    H136086   3.771   1.358   1.658  0.6728 -1.8551 -0.9133
 4865TIP3    H236087   3.836   1.417   1.781 -1.4020  0.5375 -0.9251
 4866TIP3   OH236088   6.845   1.263  13.934  0.5497  0.1056  0.3779
 4866TIP3    H136089   6.778   1.323  13.902  0.3055 -0.9410 -1.1705
 4866TIP3    H236090   6.926   1.293  13.893  0.8093  0.6610  1.3038
 4867TIP3   OH236091   3.082   2.115  11.831  0.1503  0.2994 -0.1737
 4867TIP3    H136092   3.035   2.111  11.914  0.3151  1.9511  0.0067
 4867TIP3    H236093   3.031   2.175  11.777  0.8483  0.3868 -0.7491
 4868TIP3   OH236094   2.701   2.436  11.556 -0.5163 -0.6376  0.3761
 4868TIP3    H136095   2.754   2.391  11.489 -3.2216  2.4671 -4.1002
 4868TIP3    H236096   2.611   2.419  11.531 -1.6063  2.9331  1.5770
 4869TIP3   OH236097   6.294   1.014   0.403 -0.1667 -0.1229  0.4755
 4869TIP3    H136098   6.227   1.055   0.348  1.3534  0.2766 -1.1354
 4869TIP3    H236099   6.303   0.925   0.367  1.9371  0.6304 -1.0146
 4870TIP3   OH236100   1.553   0.637  10.273  0.3570 -0.1759 -0.5458
 4870TIP3    H136101   1.554   0.586  10.354  0.0672  0.1610 -0.3276
 4870TIP3    H236102   1.520   0.723  10.300  0.0237 -0.1400 -1.0648
 4871TIP3   OH236103   3.236   1.362  14.173  0.2582  0.0853  0.4600
 4871TIP3    H136104   3.299   1.424  14.212  0.5257 -0.4187  0.8367
 4871TIP3    H236105   3.156   1.374  14.224  0.4730 -0.2586  0.8819
 4872TIP3   OH236106   5.172   6.888  11.953  0.3563 -0.3945  0.1790
 4872TIP3    H136107   5.266   6.882  11.934  0.4978 -0.4262  0.8686
 4872TIP3    H236108   5.149   6.978  11.931  0.5112 -0.4333 -0.1521
 4873TIP3   OH236109   5.157   3.544  13.539 -0.3395  0.2809  0.2652
 4873TIP3    H136110   5.195   3.557  13.452  0.5781 -0.0450  0.6100
 4873TIP3    H236111   5.232   3.547  13.599 -0.8222 -0.6390  0.9329
 4874TIP3   OH236112   1.358   6.601  14.560  0.4788  0.1072  0.2772
 4874TIP3    H136113   1.289   6.614  14.495 -0.0321  0.9301  0.9755
 4874TIP3    H236114   1.415   6.534  14.522 -0.6016 -0.4385 -0.3855
 4875TIP3   OH236115   4.572   1.933  11.944  0.2423  0.2063 -0.1900
 4875TIP3    H136116   4.559   2.019  11.904 -0.1661  0.8483  1.3005
 4875TIP3    H236117   4.537   1.941  12.033  1.3437 -1.1184  0.4026
 4876TIP3   OH236118   6.663   2.852   9.785  0.5299 -0.0426  0.0447
 4876TIP3    H136119   6.571   2.843   9.759  0.1042 -1.0127  1.7532
 4876TIP3    H236120   6.669   2.942   9.819 -0.4577 -0.7494  2.2450
 4877TIP3   OH236121   6.020   4.944  14.706  0.7089  0.2740 -0.3683
 4877TIP3    H136122   6.051   4.875  14.764 -0.7043 -0.8844 -0.9566
 4877TIP3    H236123   6.073   4.935  14.627  0.9241  0.2276 -0.2156
 4878TIP3   OH236124   1.120   2.737  14.971  0.0577  0.2823 -0.7386
 4878TIP3    H136125   1.106   2.729  15.066 -1.3333  0.3077 -0.9348
 4878TIP3    H236126   1.193   2.677  14.953  0.5640  0.5422  0.4000
 4879TIP3   OH236127   2.302   0.405  12.633 -0.3929  0.1324 -0.0163
 4879TIP3    H136128   2.326   0.359  12.553  2.2410  0.7052  0.3976
 4879TIP3    H236129   2.281   0.335  12.695 -2.1459 -0.3206 -1.0826
 4880TIP3   OH236130   6.971   0.924  12.611 -0.4274  0.6483 -0.1384
 4880TIP3    H136131   6.965   0.955  12.521 -0.5183  0.1665 -0.2980
 4880TIP3    H236132   7.038   0.980  12.651  1.7244 -1.0384 -1.2995
 4881TIP3   OH236133   7.108   0.539  13.407 -0.1332 -0.3736  0.3812
 4881TIP3    H136134   7.181   0.576  13.356 -1.6241  1.1333 -0.7200
 4881TIP3    H236135   7.091   0.455  13.365 -1.6344  1.0412 -1.9750
 4882TIP3   OH236136   0.503   2.456  11.102 -0.0386 -0.2193 -0.5547
 4882TIP3    H136137   0.527   2.534  11.152 -0.6133  0.4684 -1.3293
 4882TIP3    H236138   0.464   2.490  11.022  0.3867 -1.3092 -1.2387
 4883TIP3   OH236139   1.370   3.309  13.229 -0.1037 -0.0184 -0.0934
 4883TIP3    H136140   1.356   3.247  13.157 -0.1381 -0.8273  0.6025
 4883TIP3    H236141   1.333   3.391  13.196 -1.0178 -0.6222 -0.6280
 4884TIP3   OH236142   0.939   6.475  14.224  0.2597  0.1475  0.2348
 4884TIP3    H136143   0.890   6.441  14.298  1.1637  0.4703  0.9991
 4884TIP3    H236144   1.026   6.494  14.260  0.6896  0.3541 -0.8928
 4885TIP3   OH236145   6.301   5.586  15.148 -0.2535 -0.5570 -0.3928
 4885TIP3    H136146   6.224   5.642  15.144  0.9572  1.1953  0.2754
 4885TIP3    H236147   6.294   5.541  15.233 -0.6622 -0.5723 -0.4366
 4886TIP3   OH236148   1.801   4.293  10.601  0.0991  0.1406  0.3145
 4886TIP3    H136149   1.783   4.384  10.578 -0.2318  0.0078  0.0484
 4886TIP3    H236150   1.868   4.265  10.539  0.4384  0.3050  0.6071
 4887TIP3   OH236151   4.694   0.888  10.604 -0.2014 -0.1348  0.6351
 4887TIP3    H136152   4.758   0.818  10.591 -0.5501 -0.0049 -2.1996
 4887TIP3    H236153   4.655   0.901  10.517  0.4100  4.0529  0.8497
 4888TIP3   OH236154   5.871   6.194  15.117  0.0253  0.0312  0.1907
 4888TIP3    H136155   5.934   6.196  15.188  0.9151  0.1584 -0.5907
 4888TIP3    H236156   5.922   6.171  15.040 -0.6214  1.5975 -0.7293
 4889TIP3   OH236157   6.626   0.429  14.903 -0.0325 -0.5612 -0.0399
 4889TIP3    H136158   6.577   0.502  14.866 -1.5681 -2.1445 -1.2135
 4889TIP3    H236159   6.559   0.374  14.945  0.7129 -2.6935 -1.5692
 4890TIP3   OH236160   3.996   3.872  12.879  0.1276 -0.2282  0.1480
 4890TIP3    H136161   4.081   3.903  12.849  0.7854 -2.4457 -0.4201
 4890TIP3    H236162   3.997   3.886  12.974  1.6637 -1.4293  0.3279
 4891TIP3   OH236163   1.101   0.822  10.805 -0.7130  0.2497  0.1099
 4891TIP3    H136164   1.153   0.755  10.849 -0.2674  1.4289  1.4140
 4891TIP3    H236165   1.165   0.884  10.770 -1.1887  1.3889  1.2008
 4892TIP3   OH236166   5.026   3.020  14.567 -0.3063 -0.1874 -0.4177
 4892TIP3    H136167   4.987   3.090  14.515  0.7367 -0.7738 -2.0255
 4892TIP3    H236168   5.120   3.039  14.566 -0.3188  0.1009  1.7267
 4893TIP3   OH236169   2.720   1.153  12.073 -0.4427 -0.4396 -0.0253
 4893TIP3    H136170   2.711   1.091  12.001  2.0031  1.1610 -1.7830
 4893TIP3    H236171   2.771   1.106  12.139  0.3886 -0.6918 -0.8472
 4894TIP3   OH236172   6.945   6.825  11.737 -0.1037 -0.0955  0.1020
 4894TIP3    H136173   6.962   6.732  11.721 -0.2869  0.1123 -1.3619
 4894TIP3    H236174   6.886   6.825  11.813  0.1329 -1.1547  0.3028
 4895TIP3   OH236175   3.452   3.511  13.338  0.6744 -0.2340  0.0231
 4895TIP3    H136176   3.527   3.550  13.383  1.3556 -1.1662 -0.2819
 4895TIP3    H236177   3.446   3.558  13.255 -1.5641  2.5976  1.6832
 4896TIP3   OH236178   4.957   5.410  12.639  0.2876  0.8507  0.1445
 4896TIP3    H136179   4.982   5.502  12.650 -1.5582  1.5420 -1.0920
 4896TIP3    H236180   4.864   5.414  12.618 -0.4439 -1.5041  2.7554
 4897TIP3   OH236181   3.121   0.859  11.177 -0.0912  0.2097  0.0751
 4897TIP3    H136182   3.103   0.792  11.111  0.4056 -0.6472  0.8096
 4897TIP3    H236183   3.035   0.896  11.198 -0.5348 -1.1123  0.6432
 4898TIP3   OH236184   7.004   5.793  13.706  0.3351  0.5143  0.3004
 4898TIP3    H136185   6.923   5.743  13.692  0.3966  0.1826  1.1425
 4898TIP3    H236186   6.985   5.879  13.667  0.6314 -0.5056 -2.2377
 4899TIP3   OH236187   1.218   5.463   0.244  0.8266  0.4682  0.1651
 4899TIP3    H136188   1.207   5.373   0.216 -1.5623  0.4268  1.1305
 4899TIP3    H236189   1.242   5.457   0.337  0.1097  0.8290  0.3808
 4900TIP3   OH236190   1.804   5.809  11.974  0.1461 -0.1144  0.0851
 4900TIP3    H136191   1.722   5.851  11.948  0.2071  1.2092  1.8816
 4900TIP3    H236192   1.806   5.726  11.926 -1.6760  0.3693 -0.8504
 4901TIP3   OH236193   2.081   5.583   3.755 -0.4329 -0.3481  0.7974
 4901TIP3    H136194   2.160   5.533   3.775 -0.8688 -1.0473  0.8079
 4901TIP3    H236195   2.025   5.522   3.707 -1.5025 -0.2968  1.9231
 4902TIP3   OH236196   7.029   5.735  14.305 -0.1932 -0.2167 -0.6712
 4902TIP3    H136197   7.099   5.685  14.261  0.2064 -1.6470  1.4925
 4902TIP3    H236198   6.948   5.692  14.277 -0.0535 -0.1344 -1.2161
 4903TIP3   OH236199   3.230   5.430  12.098 -0.0908 -0.1299 -0.0124
 4903TIP3    H136200   3.148   5.393  12.129 -0.8156  1.6799  0.2784
 4903TIP3    H236201   3.232   5.518  12.134  1.4765  0.2150 -0.8957
 4904TIP3   OH236202   2.934   2.480  10.487  0.4778  0.0459  0.5260
 4904TIP3    H136203   3.002   2.540  10.456  0.7539 -0.2602  0.5268
 4904TIP3    H236204   2.902   2.520  10.568  1.1783 -0.1752  0.9206
 4905TIP3   OH236205   6.692   5.602  14.858 -0.2360  0.0577 -0.3619
 4905TIP3    H136206   6.636   5.600  14.936 -1.6223  1.0384 -1.3167
 4905TIP3    H236207   6.753   5.673  14.875 -0.8807  0.6225 -0.4046
 4906TIP3   OH236208   0.890   4.858  11.058  0.3757  0.2616 -0.1921
 4906TIP3    H136209   0.916   4.949  11.048  1.2438  0.3259  2.2894
 4906TIP3    H236210   0.811   4.861  11.112 -0.2416 -0.3923 -1.0448
 4907TIP3   OH236211   6.727   5.263  15.197  0.3454  0.4929  0.5185
 4907TIP3    H136212   6.640   5.249  15.159 -0.0733 -1.5707  2.1583
 4907TIP3    H236213   6.752   5.351  15.168 -2.0395  0.8781 -0.4671
 4908TIP3   OH236214   3.444   1.700  10.750  0.0383  0.4157 -0.3660
 4908TIP3    H136215   3.453   1.663  10.662  0.0421 -0.0525 -0.1697
 4908TIP3    H236216   3.500   1.646  10.805  0.5193  1.0947 -0.1836
 4909TIP3   OH236217   3.815   3.376  12.735  0.4155 -0.7289 -0.3146
 4909TIP3    H136218   3.786   3.445  12.676 -0.6060 -1.0845 -0.2331
 4909TIP3    H236219   3.749   3.375  12.805  0.7910 -1.3285  0.0346
 4910TIP3   OH236220   2.579   1.071  14.776  0.0067 -0.3257 -0.2006
 4910TIP3    H136221   2.527   1.080  14.695  2.6394 -0.2953 -1.9529
 4910TIP3    H236222   2.626   1.154  14.784  1.7008 -1.2644 -0.0682
 4911TIP3   OH236223   7.061   6.937  10.820  0.5318 -0.3452  0.0841
 4911TIP3    H136224   7.115   6.911  10.745 -0.6955  1.5473 -1.5230
 4911TIP3    H236225   7.036   6.854  10.861  4.2880 -1.2790  0.6675
 4912TIP3   OH236226   5.223   6.716   1.010  0.0136 -0.0208  0.3630
 4912TIP3    H136227   5.182   6.800   1.032 -0.1431 -0.4640  1.7960
 4912TIP3    H236228   5.177   6.652   1.063  0.5814 -0.9360 -0.2390
 4913TIP3   OH236229   1.987   5.050  11.647 -0.0614 -0.1925 -0.2602
 4913TIP3    H136230   2.076   5.014  11.644  0.9354  2.3665 -3.7042
 4913TIP3    H236231   1.975   5.074  11.739  2.6745 -0.8140  0.3169
 4914TIP3   OH236232   1.837   4.450  10.298 -0.3848 -0.4771 -0.1705
 4914TIP3    H136233   1.787   4.415  10.223 -0.6196  0.2243 -0.3456
 4914TIP3    H236234   1.926   4.417  10.285 -0.9364 -2.3272  0.5169
 4915TIP3   OH236235   0.312   0.266  12.132 -0.4274  0.2255  0.1840
 4915TIP3    H136236   0.397   0.297  12.164  0.4462 -0.4579 -1.3878
 4915TIP3    H236237   0.268   0.345  12.101 -0.2430  0.5396  0.7136
 4916TIP3   OH236238   2.111   3.164  14.173  0.1738 -0.6888  0.1419
 4916TIP3    H136239   2.129   3.250  14.137 -0.0034 -0.3806  0.7775
 4916TIP3    H236240   2.017   3.151  14.159  0.2410 -0.8657 -0.1419
 4917TIP3   OH236241   6.178   5.677  11.412  0.3180 -0.1357 -0.4659
 4917TIP3    H136242   6.219   5.749  11.364 -0.1170  1.8924  2.0480
 4917TIP3    H236243   6.248   5.643  11.468  0.5385 -1.7435 -1.7025
 4918TIP3   OH236244   2.526   1.205  10.394 -0.2947  0.2612 -0.0431
 4918TIP3    H136245   2.466   1.166  10.330  0.6884 -0.2514 -0.6641
 4918TIP3    H236246   2.523   1.299  10.375  1.6842 -0.0798 -2.3600
 4919TIP3   OH236247   1.883   0.944  14.185  0.0582 -0.3461  0.9884
 4919TIP3    H136248   1.813   0.898  14.232  0.9182 -0.9792  1.6729
 4919TIP3    H236249   1.889   1.029  14.228 -0.7901 -0.0073  0.4450
 4920TIP3   OH236250   0.343   0.410   0.050  0.3428  0.6522 -0.0788
 4920TIP3    H136251   0.386   0.495   0.039  2.7899 -0.3354  1.3275
 4920TIP3    H236252   0.310   0.412   0.140  0.6041  0.0348  0.0310
 4921TIP3   OH236253   0.782   2.892  14.938 -0.1402  0.1575 -0.1630
 4921TIP3    H136254   0.801   2.802  14.910 -2.8454 -1.0603  1.6450
 4921TIP3    H236255   0.701   2.915  14.893 -1.4929  0.2527  2.2407
 4922TIP3   OH236256   1.427   5.635  10.393 -0.2515  0.5128 -0.0051
 4922TIP3    H136257   1.461   5.602  10.476  0.2531  0.2945 -0.2990
 4922TIP3    H236258   1.340   5.668  10.414  0.5959  2.1228  0.9786
 4923TIP3   OH236259   0.971   2.623  10.484  0.3025 -0.0772 -0.1137
 4923TIP3    H136260   0.931   2.676  10.414  1.0568  0.7372  0.0565
 4923TIP3    H236261   0.945   2.533  10.464  1.0143  0.0695 -1.7916
 4924TIP3   OH236262   6.455   1.427  11.961 -0.1640 -0.3503  0.2772
 4924TIP3    H136263   6.430   1.334  11.953  1.5103 -0.6960 -1.2239
 4924TIP3    H236264   6.390   1.473  11.908  0.0680 -0.8495 -0.4489
 4925TIP3   OH236265   6.368   7.163  13.281 -0.0719  0.1536  0.6622
 4925TIP3    H136266   6.298   7.143  13.219 -0.2378  0.9993  0.5722
 4925TIP3    H236267   6.403   7.247  13.252  1.8722 -0.8872 -0.0877
 4926TIP3   OH236268   2.220   4.596  14.450 -0.0266  0.2988 -0.4077
 4926TIP3    H136269   2.297   4.540  14.438  0.0319  0.3862 -0.4425
 4926TIP3    H236270   2.241   4.676  14.401  0.5643  1.0043  0.9709
 4927TIP3   OH236271   1.162   2.449  12.108 -0.1069  0.5005  0.3535
 4927TIP3    H136272   1.228   2.379  12.110 -2.0185 -1.4032 -0.2406
 4927TIP3    H236273   1.175   2.496  12.190  1.8413  0.0406  0.3522
 4928TIP3   OH236274   2.230   2.884  12.087 -0.4153  0.0668  0.8864
 4928TIP3    H136275   2.209   2.833  12.008 -0.1243  0.3322  0.6343
 4928TIP3    H236276   2.300   2.943  12.059 -1.6862  1.5525  0.7844
 4929TIP3   OH236277   4.851   4.584  14.750  0.1596  0.4905 -0.3129
 4929TIP3    H136278   4.941   4.575  14.719  0.0344 -0.6232 -0.3618
 4929TIP3    H236279   4.800   4.526  14.694 -0.1114 -1.3321  1.7521
 4930TIP3   OH236280   4.353   6.561  10.966  0.1640  0.6811  0.2132
 4930TIP3    H136281   4.445   6.563  10.939  0.2292  0.9216  0.4471
 4930TIP3    H236282   4.321   6.649  10.944 -0.2158  0.3400 -0.5891
 4931TIP3   OH236283   0.322   1.882  13.768  0.4430 -0.2005  0.0754
 4931TIP3    H136284   0.403   1.921  13.735  0.2086  1.4605  1.4475
 4931TIP3    H236285   0.349   1.835  13.847  0.1222  0.0865  0.3552
 4932TIP3   OH236286   3.756   4.213  10.871 -0.5093  0.0132  0.5238
 4932TIP3    H136287   3.784   4.302  10.890 -0.2076 -0.2152  1.1443
 4932TIP3    H236288   3.795   4.160  10.940 -0.2183 -0.6788 -0.1594
 4933TIP3   OH236289   6.688   2.995  10.348 -0.4412  0.7564 -0.0507
 4933TIP3    H136290   6.595   2.996  10.366 -0.0292 -1.9851  2.6018
 4933TIP3    H236291   6.730   2.995  10.434  2.0202  1.1011 -1.1797
 4934TIP3   OH236292   0.994   6.234  10.007 -0.5180  0.1867  0.6602
 4934TIP3    H136293   1.073   6.190   9.973  0.6681  3.1443 -0.6271
 4934TIP3    H236294   0.981   6.196  10.094  1.4666 -1.4031  0.3090
 4935TIP3   OH236295   2.075   0.272  12.121  0.6610  0.1371  0.1424
 4935TIP3    H136296   2.094   0.197  12.178 -1.6694  0.9220  2.0083
 4935TIP3    H236297   2.106   0.348  12.169 -0.5568  0.7327  0.0021
 4936TIP3   OH236298   2.352   3.100  11.326 -0.1776  0.1266 -0.2929
 4936TIP3    H136299   2.432   3.135  11.287  0.7548 -0.5281  0.9860
 4936TIP3    H236300   2.360   3.005  11.317 -1.5595  0.1124 -1.5628
 4937TIP3   OH236301   3.018   3.040  14.263  0.0659  0.1468  0.4458
 4937TIP3    H136302   2.922   3.044  14.267  0.0775  0.9870  0.0528
 4937TIP3    H236303   3.038   2.946  14.260 -0.7558 -0.0291  0.2539
 4938TIP3   OH236304   2.143   3.932  12.650  0.5216 -0.3096  0.3596
 4938TIP3    H136305   2.171   3.939  12.559  1.4912 -0.0867  0.6739
 4938TIP3    H236306   2.159   4.019  12.687 -0.9156 -0.0642  0.4555
 4939TIP3   OH236307   1.990   1.663  13.776 -0.6830  0.3093 -0.0848
 4939TIP3    H136308   2.002   1.596  13.709  3.6209 -0.6079  1.4329
 4939TIP3    H236309   2.023   1.744  13.736 -1.6642  0.5562 -0.3860
 4940TIP3   OH236310   2.284   5.663  11.590  0.1709  0.2859  0.2474
 4940TIP3    H136311   2.274   5.581  11.639 -1.5590 -0.1903 -0.8510
 4940TIP3    H236312   2.339   5.639  11.515  0.2262  0.2872  0.2866
 4941TIP3   OH236313   6.023   1.745  12.307  0.7990 -0.0910  0.3757
 4941TIP3    H136314   6.096   1.727  12.248  0.4449 -0.4208  0.0298
 4941TIP3    H236315   6.041   1.831  12.344  1.1814 -0.0224  0.0209
 4942TIP3   OH236316   3.153   6.506  14.620 -0.5085 -0.4368 -0.2543
 4942TIP3    H136317   3.175   6.599  14.616 -0.6923 -0.4179 -0.7986
 4942TIP3    H236318   3.138   6.489  14.713  2.8096 -0.6933  0.2611
 4943TIP3   OH236319   5.639   5.495   0.011 -0.5622  0.4683  0.1974
 4943TIP3    H136320   5.651   5.588  -0.011  2.4805  0.1179  0.1654
 4943TIP3    H236321   5.588   5.496   0.092  0.7099  2.2049  0.9912
 4944TIP3   OH236322   7.114   3.715  15.131 -0.3476 -0.1080 -0.0458
 4944TIP3    H136323   7.116   3.780  15.061 -1.0062  1.2969  1.1951
 4944TIP3    H236324   7.048   3.749  15.192  0.1372 -1.3591  1.1925
 4945TIP3   OH236325   2.792   5.750  10.965 -0.7118 -0.5366 -0.0118
 4945TIP3    H136326   2.788   5.834  10.921  0.2291  0.2678  1.4214
 4945TIP3    H236327   2.718   5.701  10.929 -1.4813  1.0213 -0.5856
 4946TIP3   OH236328   0.765   2.576   1.261  0.1036 -0.1929 -0.9468
 4946TIP3    H136329   0.807   2.627   1.331 -0.7365  0.2049 -0.7216
 4946TIP3    H236330   0.821   2.588   1.185  1.1206 -0.7576 -0.3060
 4947TIP3   OH236331   1.857   4.800  12.435  0.2876 -0.3987  0.0575
 4947TIP3    H136332   1.882   4.875  12.382 -0.2910  0.4726  1.0045
 4947TIP3    H236333   1.871   4.828  12.525 -1.6045 -0.8102  0.5057
 4948TIP3   OH236334   0.007   5.629  12.062  0.1731 -0.0956  0.3614
 4948TIP3    H136335   0.057   5.687  12.004  1.4070 -2.0954 -0.6466
 4948TIP3    H236336   0.069   5.559  12.083 -1.3371 -1.1124  1.4440
 4949TIP3   OH236337   0.112   5.371  10.313 -0.0663  0.1258 -0.1062
 4949TIP3    H136338   0.091   5.326  10.231 -0.6527  1.4117 -0.6776
 4949TIP3    H236339   0.191   5.326  10.345 -1.3422 -2.1269  0.0066
 4950TIP3   OH236340   0.778   6.057  13.781 -0.0275 -0.2544 -0.1880
 4950TIP3    H136341   0.759   6.055  13.874  0.3206  1.0038 -0.0742
 4950TIP3    H236342   0.700   6.096  13.742  0.7907  1.4916 -0.1331
 4951TIP3   OH236343   1.911   3.125  11.209 -0.2741 -0.0027 -0.0234
 4951TIP3    H136344   1.915   3.051  11.269  0.9600  1.0013  1.1547
 4951TIP3    H236345   1.982   3.109  11.146 -0.5961 -0.2844 -0.3154
 4952TIP3   OH236346   0.772   3.538   0.641  0.1558 -0.2377 -0.1109
 4952TIP3    H136347   0.859   3.509   0.615 -0.6983 -1.8145 -1.3135
 4952TIP3    H236348   0.744   3.475   0.707 -0.2716 -0.0402 -0.1002
 4953TIP3   OH236349   0.688   4.104  10.743 -0.0199 -0.6514  0.4774
 4953TIP3    H136350   0.724   4.170  10.802 -0.8462  1.4895 -1.3318
 4953TIP3    H236351   0.593   4.116  10.748 -0.0753  0.6130 -2.3823
 4954TIP3   OH236352   3.955   5.582  12.304  0.3514  0.2707  0.0475
 4954TIP3    H136353   3.968   5.565  12.397 -1.1403  1.3714  0.4698
 4954TIP3    H236354   3.969   5.497  12.262  2.2210  0.0150  1.1238
 4955TIP3   OH236355   2.897   1.986  13.277 -0.3907  0.4799 -0.0502
 4955TIP3    H136356   2.879   1.899  13.313 -0.6080 -0.0123 -1.3112
 4955TIP3    H236357   2.811   2.027  13.271 -0.4177  0.3728 -0.4487
 4956TIP3   OH236358   1.783   3.171   1.229  0.3476 -0.3918  0.0877
 4956TIP3    H136359   1.821   3.176   1.317 -0.1370 -0.1145  0.2850
 4956TIP3    H236360   1.690   3.155   1.244  0.1540  0.2839 -0.3552
 4957TIP3   OH236361   0.324   0.949  11.416  0.4921 -0.4330 -0.0404
 4957TIP3    H136362   0.262   0.933  11.344  0.8778 -0.3442 -0.3944
 4957TIP3    H236363   0.312   0.875  11.475 -0.1785 -0.2561  0.0500
 4958TIP3   OH236364   6.845   4.414  14.115  0.1161 -0.1771 -0.0921
 4958TIP3    H136365   6.888   4.378  14.038  1.5108 -0.3429  0.7337
 4958TIP3    H236366   6.901   4.388  14.188 -1.4106 -0.3969  1.0275
 4959TIP3   OH236367   6.077   6.677  11.891 -0.2065  0.1273  0.0167
 4959TIP3    H136368   6.090   6.605  11.829  1.5168  0.9876 -0.6494
 4959TIP3    H236369   6.165   6.694  11.926 -0.7159  1.4593  0.6729
 4960TIP3   OH236370   1.579   1.475  13.625 -0.1574 -0.2391  0.1605
 4960TIP3    H136371   1.491   1.512  13.619  0.4634  1.1676 -0.5708
 4960TIP3    H236372   1.575   1.394  13.574 -0.5443  0.8077 -1.5205
 4961TIP3   OH236373   1.498   4.374  11.752  0.2496 -0.1660 -0.5680
 4961TIP3    H136374   1.561   4.355  11.684  0.4134 -0.0742 -0.4417
 4961TIP3    H236375   1.539   4.443  11.804 -0.7333  1.2040 -1.5753
 4962TIP3   OH236376   7.195   2.330   2.317 -0.4263  0.7981 -0.0561
 4962TIP3    H136377   7.205   2.420   2.347  1.8427  0.1061  1.4333
 4962TIP3    H236378   7.243   2.327   2.233 -0.6834  1.0249 -0.2110
 4963TIP3   OH236379   0.590   1.582  13.972  0.0792 -0.1747 -0.0652
 4963TIP3    H136380   0.497   1.570  13.993  0.1735  0.1394  0.5320
 4963TIP3    H236381   0.600   1.542  13.885 -0.7235  0.2299 -0.3557
 4964TIP3   OH236382   6.597   3.799   0.257 -0.4194 -0.0276  0.1375
 4964TIP3    H136383   6.559   3.820   0.342  0.9819  1.1234  0.5109
 4964TIP3    H236384   6.549   3.722   0.227 -1.1150 -0.2774  1.8431
 4965TIP3   OH236385   4.140   4.325  11.243  0.5347  0.9337  0.4064
 4965TIP3    H136386   4.216   4.315  11.300  0.5549 -0.6202  0.1200
 4965TIP3    H236387   4.173   4.305  11.156  0.0063  1.1712  0.1520
 4966TIP3   OH236388   0.199   6.898  15.430  0.2598 -0.2891  0.2468
 4966TIP3    H136389   0.117   6.877  15.474 -1.1207  2.3893 -0.9301
 4966TIP3    H236390   0.201   6.839  15.354 -1.5162  0.8526 -0.7352
 4967TIP3   OH236391   5.508   3.035   0.234  0.1103 -0.0695  0.6063
 4967TIP3    H136392   5.501   2.945   0.202 -2.4213  0.2857 -0.0017
 4967TIP3    H236393   5.596   3.064   0.207 -0.0730 -1.4602 -1.6449
 4968TIP3   OH236394   1.324   3.566  11.419 -0.2968 -0.3124  0.2845
 4968TIP3    H136395   1.381   3.508  11.469 -0.6099 -1.6288 -0.8481
 4968TIP3    H236396   1.381   3.603  11.352 -0.5680 -0.9386 -0.2940
 4969TIP3   OH236397   3.852   4.129  11.193 -0.9967 -0.5342 -0.1179
 4969TIP3    H136398   3.804   4.191  11.249 -0.6152  1.2478 -1.6935
 4969TIP3    H236399   3.932   4.111  11.242  0.5021  2.9570 -1.0877
 4970TIP3   OH236400   1.593   1.496  11.347  0.0413  0.0824  0.3209
 4970TIP3    H136401   1.574   1.541  11.264  0.2176  1.2321  0.8848
 4970TIP3    H236402   1.546   1.548  11.413  0.4488 -0.4309  1.0193
 4971TIP3   OH236403   6.822   2.912  12.316  0.3600 -0.2338 -0.0743
 4971TIP3    H136404   6.799   2.822  12.338 -2.0292  0.4857  0.5085
 4971TIP3    H236405   6.852   2.908  12.225 -3.3880 -1.0768 -1.3538
 4972TIP3   OH236406   1.546   1.257   1.425  0.2774 -0.0932 -0.3201
 4972TIP3    H136407   1.502   1.320   1.368  0.4335 -0.0450 -0.3854
 4972TIP3    H236408   1.502   1.174   1.406 -1.3917  0.3860  1.3307
 4973TIP3   OH236409   5.208   1.474  10.969 -0.3037 -0.3332 -0.0474
 4973TIP3    H136410   5.288   1.521  10.946  0.1022 -1.2078 -0.4623
 4973TIP3    H236411   5.139   1.517  10.918 -0.1322  0.5502  0.4655
 4974TIP3   OH236412   6.111   0.148  15.571 -0.2993  0.4328 -0.0816
 4974TIP3    H136413   6.092   0.073  15.515  0.1109  0.5109 -0.3294
 4974TIP3    H236414   6.114   0.222  15.510 -0.7119  0.6512  0.1629
 4975TIP3   OH236415   0.707   4.370  10.648 -0.2989  0.0237 -0.1518
 4975TIP3    H136416   0.626   4.358  10.598  0.4765  0.0635 -1.4346
 4975TIP3    H236417   0.678   4.372  10.739 -1.6124 -1.1118 -0.5227
 4976TIP3   OH236418   6.424   3.962  12.431 -0.2449  0.0140 -0.1584
 4976TIP3    H136419   6.438   3.911  12.510  1.4406 -0.8784 -1.0087
 4976TIP3    H236420   6.346   4.015  12.450  0.3673  0.1196  2.2175
 4977TIP3   OH236421   7.084   2.232  14.139  0.4556 -0.0273  0.2503
 4977TIP3    H136422   7.019   2.163  14.157  0.0769  0.8070  2.2202
 4977TIP3    H236423   7.167   2.194  14.168  0.6096 -0.5003 -0.7930
 4978TIP3   OH236424   5.839   2.085  10.695  0.1105 -0.1294  0.4066
 4978TIP3    H136425   5.831   2.119  10.606 -0.7117 -0.4284  0.3677
 4978TIP3    H236426   5.750   2.082  10.729  0.4738  0.5097  1.4394
 4979TIP3   OH236427   1.698   0.272  13.206  0.3016  0.5378 -0.3639
 4979TIP3    H136428   1.669   0.195  13.157  1.0199 -1.2695  2.0191
 4979TIP3    H236429   1.786   0.289  13.173  0.0446  0.5105 -1.0794
 4980TIP3   OH236430   0.964   3.590  14.790 -0.2869 -0.2303  0.2855
 4980TIP3    H136431   0.874   3.579  14.821 -0.0662 -1.6471  0.4847
 4980TIP3    H236432   0.961   3.569  14.697 -0.2639  0.2182  0.1864
 4981TIP3   OH236433   1.714   6.324  10.141  0.3188 -0.6659  0.0181
 4981TIP3    H136434   1.657   6.270  10.087  0.5101  0.4384 -1.3100
 4981TIP3    H236435   1.749   6.389  10.081  1.2094  0.0528  1.3001
 4982TIP3   OH236436   0.096   4.976  12.989 -0.0845 -0.4679 -0.3019
 4982TIP3    H136437   0.089   5.008  12.899 -2.6657  1.0940  0.4161
 4982TIP3    H236438   0.010   4.939  13.009  0.1999 -0.1138  1.7589
 4983TIP3   OH236439   3.119   6.948  11.542 -0.3463 -0.1874  0.1505
 4983TIP3    H136440   3.029   6.916  11.531 -0.2106  0.2053 -2.3603
 4983TIP3    H236441   3.121   7.030  11.492  2.3335 -1.9281 -2.7144
 4984TIP3   OH236442   1.564   3.095   9.775  0.0053 -0.2052  0.0977
 4984TIP3    H136443   1.616   3.168   9.742  1.1555 -0.7029  0.7885
 4984TIP3    H236444   1.531   3.125   9.859 -1.4426  0.3847 -0.6694
 4985TIP3   OH236445   4.204   5.437  11.583 -0.1831  0.1015 -0.2771
 4985TIP3    H136446   4.110   5.448  11.571 -0.4095 -0.0885  1.2235
 4985TIP3    H236447   4.243   5.512  11.537 -0.9571 -0.6775 -2.2880
 4986TIP3   OH236448   4.319   4.076  10.546 -0.1881 -0.4870  0.1520
 4986TIP3    H136449   4.242   4.062  10.490 -0.4247 -1.9794  0.8162
 4986TIP3    H236450   4.283   4.082  10.635  0.3848 -0.2510  0.3726
 4987TIP3   OH236451   2.563   1.649  11.153 -0.0349  0.4723  0.0561
 4987TIP3    H136452   2.489   1.709  11.163 -0.1386  0.2275  0.8251
 4987TIP3    H236453   2.589   1.657  11.062 -1.0207  0.5539 -0.2202
 4988TIP3   OH236454   6.074   1.829   0.365 -0.2087  0.4090 -0.1913
 4988TIP3    H136455   5.986   1.809   0.397 -0.0847 -1.0516 -0.7354
 4988TIP3    H236456   6.133   1.792   0.431  0.0354 -1.9612 -1.7152
 4989TIP3   OH236457   1.471   6.461  10.383  0.0687  0.4064 -0.1806
 4989TIP3    H136458   1.419   6.424  10.312 -0.8429  0.4207  0.4695
 4989TIP3    H236459   1.545   6.401  10.392 -0.6441 -0.4798 -0.0950
 4990TIP3   OH236460   2.026   6.494  13.104 -0.3590  0.0972 -0.2336
 4990TIP3    H136461   2.074   6.448  13.035  0.5780 -0.0341  0.4918
 4990TIP3    H236462   1.945   6.523  13.062 -0.0857 -0.5398 -1.2117
 4991TIP3   OH236463   2.672   1.036  11.619 -0.1621 -0.1173  0.5980
 4991TIP3    H136464   2.585   1.057  11.585  1.2244 -0.9900 -3.9110
 4991TIP3    H236465   2.727   1.110  11.592  1.1798 -1.2144  0.2123
 4992TIP3   OH236466   1.075   5.492  10.342 -0.2140 -0.3698 -0.2452
 4992TIP3    H136467   1.075   5.586  10.359  0.0530 -0.3982 -0.0859
 4992TIP3    H236468   1.125   5.454  10.414 -0.3952 -0.6423 -0.2613
 4993TIP3   OH236469   2.466   5.326  11.137 -0.5742  0.0670 -0.5521
 4993TIP3    H136470   2.555   5.362  11.134 -0.1592 -0.8701  0.3168
 4993TIP3    H236471   2.472   5.253  11.199 -2.1938  0.6836  0.3443
 4994TIP3   OH236472   6.892   5.205  13.752 -0.1741  0.0973  0.7092
 4994TIP3    H136473   6.902   5.296  13.780  1.4475  0.2745 -0.3724
 4994TIP3    H236474   6.971   5.161  13.783  1.0474  0.0067 -2.3633
 4995TIP3   OH236475   1.121   6.209  11.059  0.2151  0.1670 -0.0861
 4995TIP3    H136476   1.042   6.178  11.104  1.5038  1.5101  3.2557
 4995TIP3    H236477   1.193   6.185  11.117  2.3117 -0.9599 -3.0403
 4996TIP3   OH236478   0.084   2.801   9.513  0.2333 -0.0850  0.5044
 4996TIP3    H136479   0.021   2.873   9.524 -1.2123 -1.4283  1.1478
 4996TIP3    H236480   0.149   2.817   9.581  0.3405  1.0512  0.1524
 4997TIP3   OH236481   5.570   2.552  11.037  0.0274 -0.1612 -0.3589
 4997TIP3    H136482   5.657   2.526  11.006  0.3456 -0.8686  1.0649
 4997TIP3    H236483   5.553   2.494  11.112 -0.0402  2.5144  1.7682
 4998TIP3   OH236484   6.117   5.090  13.039 -0.2982 -0.1570  0.7959
 4998TIP3    H136485   6.207   5.116  13.058  0.6148 -1.2654 -1.8026
 4998TIP3    H236486   6.076   5.168  13.001 -0.7035  0.5928  2.7232
 4999TIP3   OH236487   2.983   4.817  11.407 -0.4415  0.3101 -0.2078
 4999TIP3    H136488   2.926   4.889  11.380  0.1723  0.7538 -0.3229
 4999TIP3    H236489   2.954   4.796  11.496 -0.3464  0.9772 -0.0141
 5000TIP3   OH236490   7.124   0.795  12.176  0.5309 -0.5392  0.2983
 5000TIP3    H136491   7.102   0.741  12.100  2.8007 -0.3397 -0.5301
 5000TIP3    H236492   7.182   0.862  12.142  1.4251 -0.3194  2.1790
 5001TIP3   OH236493   3.097   4.805  12.457  0.1238 -0.7334 -0.0957
 5001TIP3    H136494   3.170   4.844  12.504 -0.3905  1.0715 -0.7494
 5001TIP3    H236495   3.090   4.717  12.493  2.3239 -0.7914  0.2959
 5002TIP3   OH236496   3.925   1.572  10.801  0.6527  0.0778  0.1827
 5002TIP3    H136497   4.000   1.558  10.744  0.2035 -0.2358 -0.3314
 5002TIP3    H236498   3.927   1.666  10.820 -0.0475  0.4601 -1.5470
 5003TIP3   OH236499   3.157   5.676  13.982 -0.8772  0.0761 -0.3059
 5003TIP3    H136500   3.205   5.597  14.009 -0.6127 -0.3569 -1.9776
 5003TIP3    H236501   3.067   5.645  13.966 -0.4668 -0.1997 -2.2778
 5004TIP3   OH236502   0.913   1.632  12.481  0.5030 -0.7176  0.3218
 5004TIP3    H136503   0.836   1.663  12.530  1.3253 -1.6878  2.2926
 5004TIP3    H236504   0.880   1.560  12.428 -0.2480 -0.1628  0.0143
 5005TIP3   OH236505   6.916   6.155  11.919  0.0328 -0.8304  0.0764
 5005TIP3    H136506   6.983   6.087  11.921 -1.1086 -2.0874 -1.9786
 5005TIP3    H236507   6.834   6.106  11.909 -0.8762  0.8112 -0.6291
 5006TIP3   OH236508   0.508   5.561   9.642  0.0552  0.6902  0.1360
 5006TIP3    H136509   0.576   5.628   9.630 -0.1014  0.7172 -0.6126
 5006TIP3    H236510   0.539   5.486   9.591 -0.6852  0.8546 -0.5551
 5007TIP3   OH236511   1.102   3.186  15.102  0.5197 -0.0684 -0.1776
 5007TIP3    H136512   1.162   3.117  15.130 -1.1137 -0.4518  2.5163
 5007TIP3    H236513   1.064   3.220  15.183 -0.8984  2.0242 -1.6474
 5008TIP3   OH236514   3.275   3.545   1.497 -0.3593 -0.2154  0.0776
 5008TIP3    H136515   3.336   3.522   1.566 -0.5043  2.9264  1.3489
 5008TIP3    H236516   3.319   3.615   1.448 -1.1128 -0.9775 -1.7509
 5009TIP3   OH236517   2.649   0.785  14.171 -0.9239 -0.1352  0.1763
 5009TIP3    H136518   2.554   0.785  14.186 -0.4416  2.4016  3.6336
 5009TIP3    H236519   2.670   0.876  14.150  0.8067 -0.6192 -0.2212
 5010TIP3   OH236520   2.556   1.189  13.536  0.0683 -0.5134  0.4931
 5010TIP3    H136521   2.639   1.147  13.513 -0.1430 -0.6404 -0.0435
 5010TIP3    H236522   2.573   1.231  13.620  1.3768  1.4501 -0.7054
 5011TIP3   OH236523   2.565   6.743  11.992 -0.3388 -0.2588 -0.0624
 5011TIP3    H136524   2.621   6.686  12.044 -1.4428 -2.0151 -0.7460
 5011TIP3    H236525   2.544   6.816  12.050  0.8567 -0.7001  0.9322
 5012TIP3   OH236526   4.801   0.915  11.688 -0.1601  0.0780 -0.4070
 5012TIP3    H136527   4.720   0.966  11.700 -0.1163  0.3636 -1.3515
 5012TIP3    H236528   4.788   0.869  11.605  0.6931  0.2015 -0.6073
 5013TIP3   OH236529   0.891   5.213  12.289 -0.2644 -0.1723  0.7413
 5013TIP3    H136530   0.812   5.199  12.238  0.5250  1.3911 -0.9724
 5013TIP3    H236531   0.938   5.130  12.285 -0.8950 -0.4946  0.1049
 5014TIP3   OH236532   3.680   5.966  13.751 -0.1554  0.5779  0.7174
 5014TIP3    H136533   3.615   6.001  13.812 -0.4830 -1.1080  1.3838
 5014TIP3    H236534   3.665   5.871  13.753  2.0414  0.2026  0.5556
 5015TIP3   OH236535   4.637   0.981  12.021 -0.1689 -0.4487 -0.7293
 5015TIP3    H136536   4.549   0.945  12.010 -0.2689  0.2577 -2.3880
 5015TIP3    H236537   4.695   0.915  11.983 -0.1743  0.1314 -1.7547
 5016TIP3   OH236538   3.061   1.828  12.732 -0.1272 -0.5012 -0.0903
 5016TIP3    H136539   3.073   1.833  12.827  0.4750 -1.1953 -0.1291
 5016TIP3    H236540   3.041   1.918  12.706  2.1149  0.1722  0.3790
 5017TIP3   OH236541   3.713   2.391  11.549 -0.3653  0.1187 -0.9241
 5017TIP3    H136542   3.666   2.398  11.631  0.4785  0.4908 -0.4609
 5017TIP3    H236543   3.792   2.443  11.562  1.5059 -2.6780 -0.7290
 5018TIP3   OH236544   1.096   5.015  12.308 -0.3255  0.2093  0.6995
 5018TIP3    H136545   1.128   4.957  12.240  0.2554  0.4674  0.7549
 5018TIP3    H236546   1.051   4.956  12.370  1.7173 -0.4171  1.6308
 5019TIP3   OH236547   0.182   5.142  11.147  0.2626  0.0910  0.5487
 5019TIP3    H136548   0.201   5.051  11.169 -0.1178  0.3722  2.0709
 5019TIP3    H236549   0.098   5.161  11.190  0.5394  1.2824  0.5929
 5020TIP3   OH236550   4.047   2.315  12.679 -0.1334  0.3073  0.2790
 5020TIP3    H136551   4.060   2.231  12.722 -1.0875 -1.3634 -2.5687
 5020TIP3    H236552   3.954   2.335  12.694 -0.1623  0.3379  0.0611
 5021TIP3   OH236553   6.975   0.510  10.921  0.1700 -0.0027 -0.2954
 5021TIP3    H136554   6.894   0.552  10.892 -0.8199  0.2220  2.6287
 5021TIP3    H236555   6.978   0.528  11.015  3.0526 -0.9760 -0.1746
 5022TIP3   OH236556   2.513   2.955  12.505  0.1028  0.2229  0.0332
 5022TIP3    H136557   2.515   2.883  12.443  1.6485  0.8089 -0.6285
 5022TIP3    H236558   2.442   2.933  12.565  0.9088 -2.1185  0.1805
 5023TIP3   OH236559   5.106   3.688  10.226  0.1751 -0.0466 -0.0046
 5023TIP3    H136560   5.171   3.737  10.277  1.2002  0.0084 -1.3425
 5023TIP3    H236561   5.027   3.742  10.230  0.5824  0.5120  0.5819
 5024TIP3   OH236562   2.184   6.090  11.956  0.1504 -0.7211 -0.0477
 5024TIP3    H136563   2.202   6.027  11.886 -1.4632 -0.6490 -0.5479
 5024TIP3    H236564   2.177   6.174  11.912  1.9881 -0.2123  0.5836
 5025TIP3   OH236565   4.325   1.638  14.243 -0.2041  0.8089 -0.1399
 5025TIP3    H136566   4.409   1.598  14.265  0.1336  0.8164 -1.3983
 5025TIP3    H236567   4.318   1.630  14.148 -2.0702 -0.0452  0.0499
 5026TIP3   OH236568   4.727   2.585  12.977 -0.5471  0.1253 -0.2621
 5026TIP3    H136569   4.757   2.519  13.039  1.1630  0.2885 -0.8912
 5026TIP3    H236570   4.713   2.536  12.895 -1.6819  0.1133 -0.0677
 5027TIP3   OH236571   3.171   5.079  12.647  0.0834 -0.2045  0.1259
 5027TIP3    H136572   3.245   5.136  12.627 -0.3639  0.7579  1.1877
 5027TIP3    H236573   3.199   5.030  12.725 -0.4816  0.3068  0.6466
 5028TIP3   OH236574   0.706   1.138  11.195 -0.2023  0.0606 -0.9154
 5028TIP3    H136575   0.665   1.060  11.234 -0.9461  0.8998  0.0124
 5028TIP3    H236576   0.633   1.183  11.151  0.4460 -0.3691 -2.4646
 5029TIP3   OH236577   6.866   1.180  12.525  0.6651 -0.1394  0.2805
 5029TIP3    H136578   6.871   1.171  12.621 -1.1572 -1.9758  0.2291
 5029TIP3    H236579   6.835   1.095  12.495  0.3942  0.7063 -1.8854
 5030TIP3   OH236580   6.705   2.072   0.890  0.0728  0.0263  0.1085
 5030TIP3    H136581   6.671   2.142   0.835  1.3895 -0.2878 -1.1317
 5030TIP3    H236582   6.640   2.063   0.960 -1.1283  1.0945 -0.8416
 5031TIP3   OH236583   6.498   4.893  11.988  0.3370  0.3869  0.3650
 5031TIP3    H136584   6.591   4.870  11.988  0.7684  1.7637  3.9840
 5031TIP3    H236585   6.489   4.955  11.916  1.9392 -0.7501 -0.8658
 5032TIP3   OH236586   0.196   5.623  13.876  0.2058  0.6575  0.3619
 5032TIP3    H136587   0.212   5.717  13.865 -0.7891  0.8892  0.8435
 5032TIP3    H236588   0.152   5.597  13.795  0.6828  0.5599  0.1337
 5033TIP3   OH236589   7.001   1.480  11.538 -0.1599 -0.1133 -0.3291
 5033TIP3    H136590   7.077   1.533  11.562  0.0329  0.3167 -1.8679
 5033TIP3    H236591   6.926   1.538  11.547 -0.2330 -0.3213  0.4528
 5034TIP3   OH236592   0.592   3.091  10.828  0.6790  0.7160 -0.1992
 5034TIP3    H136593   0.589   3.006  10.782  1.1760 -0.1071  1.2782
 5034TIP3    H236594   0.685   3.109  10.838  0.5726  0.5572  1.0943
 5035TIP3   OH236595   1.922   2.564  11.824  0.3617  0.8571  0.0340
 5035TIP3    H136596   1.969   2.509  11.886 -0.8321 -1.7322 -1.2779
 5035TIP3    H236597   1.842   2.588  11.871  0.0483 -0.0407 -0.0256
 5036TIP3   OH236598   5.690   4.408   9.795  0.2501  0.4616  0.6885
 5036TIP3    H136599   5.645   4.378   9.716  1.1917  0.8579  0.0034
 5036TIP3    H236600   5.770   4.356   9.799  0.1809  0.4044  1.4102
 5037TIP3   OH236601   0.402   1.838   0.159 -0.6413  0.4878  0.2493
 5037TIP3    H136602   0.355   1.763   0.196 -0.2676  0.4865  0.7320
 5037TIP3    H236603   0.335   1.886   0.110 -0.7069 -0.5973 -0.7616
 5038TIP3   OH236604   5.152   1.086  13.285  0.1602 -0.1479 -0.2882
 5038TIP3    H136605   5.112   1.162  13.327 -0.3060  0.4145 -1.7180
 5038TIP3    H236606   5.180   1.031  13.358  0.9760  1.6299  0.7854
 5039TIP3   OH236607   2.539   1.248  14.387  0.1110 -0.0159 -0.5194
 5039TIP3    H136608   2.523   1.172  14.332 -1.5345 -0.3001  0.3208
 5039TIP3    H236609   2.497   1.227  14.471  0.2220  1.5229 -0.0613
 5040TIP3   OH236610   0.165   4.478  12.469 -0.0845 -0.4013 -0.0607
 5040TIP3    H136611   0.155   4.468  12.375  0.8146 -0.8601 -0.1070
 5040TIP3    H236612   0.257   4.458  12.486 -0.3629 -0.8266  0.9822
 5041TIP3   OH236613   2.830   5.632  13.779  0.7987 -0.0596  0.8044
 5041TIP3    H136614   2.918   5.621  13.744  0.7028 -0.7268  0.7626
 5041TIP3    H236615   2.780   5.560  13.741  0.2498  0.2750  0.8779
 5042TIP3   OH236616   4.385   5.136  14.984 -0.2094 -0.4883  0.1574
 5042TIP3    H136617   4.375   5.065  14.920 -2.1607  0.5033 -0.6973
 5042TIP3    H236618   4.428   5.095  15.059  2.1200 -1.6914 -1.7477
 5043TIP3   OH236619   1.944   2.213  10.303  0.4154  0.3241  0.2629
 5043TIP3    H136620   1.994   2.287  10.336 -0.1166  1.3326 -1.1261
 5043TIP3    H236621   1.979   2.197  10.216  0.5393 -1.0875  0.5528
 5044TIP3   OH236622   2.346   2.937  12.743 -0.1640 -0.1361  0.1460
 5044TIP3    H136623   2.256   2.926  12.714 -0.7038 -0.4630  1.8715
 5044TIP3    H236624   2.375   2.848  12.763 -0.8825  0.3516  3.6195
 5045TIP3   OH236625   6.612   5.052  13.270 -0.1399 -0.0873  0.5675
 5045TIP3    H136626   6.564   5.010  13.340 -0.2611 -0.8162  0.0528
 5045TIP3    H236627   6.564   5.028  13.190  3.1349 -3.9146 -0.3779
 5046TIP3   OH236628   2.147   5.753  13.840  0.0800 -0.2181 -0.7033
 5046TIP3    H136629   2.188   5.783  13.921  0.3781 -1.1090 -0.5177
 5046TIP3    H236630   2.053   5.762  13.856  0.1846  1.4468 -0.9832
 5047TIP3   OH236631   2.141   4.119  10.137  0.7903  0.0237 -0.1932
 5047TIP3    H136632   2.197   4.156  10.070  0.1360  0.6509 -0.4079
 5047TIP3    H236633   2.058   4.102  10.092  0.3109  0.5531  0.4668
 5048TIP3   OH236634   0.449   4.306  11.349 -0.3336  0.0604  0.4988
 5048TIP3    H136635   0.407   4.269  11.427  0.5400 -1.2273  0.3744
 5048TIP3    H236636   0.543   4.301  11.368 -0.1471  0.4673 -0.3158
 5049TIP3   OH236637   2.613   0.977  12.300  0.1647 -0.0211 -0.9061
 5049TIP3    H136638   2.692   0.984  12.353 -0.3794  0.4302 -0.1483
 5049TIP3    H236639   2.636   0.914  12.232  1.0231 -0.2462 -0.4205
 5050TIP3   OH236640   0.224   5.903  13.846 -0.7543  0.5179  0.1194
 5050TIP3    H136641   0.259   5.953  13.772  0.8055  0.9111  1.0845
 5050TIP3    H236642   0.132   5.926  13.850  0.0672  3.8168  0.9296
 5051TIP3   OH236643   2.096   3.301  14.449 -0.0240 -0.3278 -0.6769
 5051TIP3    H136644   2.117   3.372  14.387 -1.1864 -0.6808 -1.4808
 5051TIP3    H236645   2.068   3.228  14.393  0.1613 -1.0784  0.2055
 5052TIP3   OH236646   6.650   0.411  11.744  0.6052  0.3749  0.7383
 5052TIP3    H136647   6.611   0.483  11.695  0.6007  1.2911  2.0581
 5052TIP3    H236648   6.700   0.361  11.679 -0.4122  0.8536 -0.4095
 5053TIP3   OH236649   5.578   5.039  12.381 -0.2814  0.5315 -0.2160
 5053TIP3    H136650   5.606   4.950  12.402 -2.0392  0.3935  1.7727
 5053TIP3    H236651   5.610   5.091  12.454 -2.0301  0.9598  0.2717
 5054TIP3   OH236652   5.604   4.458  12.307  0.3586 -0.5366  0.4915
 5054TIP3    H136653   5.519   4.416  12.292  0.5490 -0.8901  0.3923
 5054TIP3    H236654   5.644   4.463  12.220  0.3176 -0.1025  0.4970
 5055TIP3   OH236655   3.331   3.014  13.252  0.1049 -0.3339  0.2204
 5055TIP3    H136656   3.338   3.108  13.268 -3.3032  0.1909 -1.0083
 5055TIP3    H236657   3.308   2.977  13.337  1.6215 -0.0995  0.7457
 5056TIP3   OH236658   3.304   6.286  11.859 -0.1019  0.2056 -0.4516
 5056TIP3    H136659   3.347   6.358  11.904  1.5091 -0.7039 -0.4689
 5056TIP3    H236660   3.325   6.299  11.767 -0.2442  0.0220 -0.5100
 5057TIP3   OH236661   0.189   1.623  10.430 -0.3014 -0.0894  0.1698
 5057TIP3    H136662   0.145   1.540  10.412 -0.7708  0.3124 -0.5994
 5057TIP3    H236663   0.277   1.599  10.456 -0.3588 -0.8174 -0.2931
 5058TIP3   OH236664   2.779   3.086  10.255 -0.2046  0.1205  0.3342
 5058TIP3    H136665   2.707   3.142  10.282 -1.2099 -0.8447 -0.2960
 5058TIP3    H236666   2.761   3.002  10.297  1.1373  0.1756  1.0456
 5059TIP3   OH236667   0.804   6.617  12.398  0.0952 -0.5154  0.1312
 5059TIP3    H136668   0.749   6.671  12.340 -0.1476  0.0395  0.8657
 5059TIP3    H236669   0.874   6.676  12.426  1.5480 -1.4435 -1.4265
 5060TIP3   OH236670   1.852   3.561  14.400  0.2986  0.2837  0.7343
 5060TIP3    H136671   1.935   3.545  14.354 -0.0928 -2.6601  0.9281
 5060TIP3    H236672   1.878   3.597  14.485  1.2866  0.9483  0.1619
 5061TIP3   OH236673   2.830   3.521  13.604 -0.1996  0.2714 -0.2030
 5061TIP3    H136674   2.923   3.535  13.621 -0.7776  2.0170  1.6776
 5061TIP3    H236675   2.785   3.578  13.666 -2.5092  1.7325 -3.0687
 5062TIP3   OH236676   1.894   3.410  11.638  0.3965  0.3819  0.0605
 5062TIP3    H136677   1.888   3.400  11.543  0.4585 -1.5096  0.2280
 5062TIP3    H236678   1.889   3.320  11.671 -1.0608  1.1215  1.9187
 5063TIP3   OH236679   6.659   1.786  10.656 -0.4698  0.1504  0.4123
 5063TIP3    H136680   6.749   1.753  10.656 -0.8880 -1.0112 -1.3428
 5063TIP3    H236681   6.668   1.880  10.672  1.1143  0.1663 -0.5118
 5064TIP3   OH236682   1.207   6.135  12.138 -0.0506 -0.4478  0.3485
 5064TIP3    H136683   1.206   6.209  12.200  1.6517 -0.4905  0.4473
 5064TIP3    H236684   1.167   6.170  12.059 -1.3707 -0.1055  1.1494
 5065TIP3   OH236685   6.496   5.187  12.627  0.4980 -0.4725  0.1274
 5065TIP3    H136686   6.478   5.094  12.641 -0.6153  0.0069  2.0464
 5065TIP3    H236687   6.591   5.195  12.635  0.3221 -0.9632  3.1291
 5066TIP3   OH236688   2.741   3.108  11.546 -0.4050  0.0810  0.1950
 5066TIP3    H136689   2.745   3.131  11.453  0.2610 -0.3038  0.1253
 5066TIP3    H236690   2.832   3.111  11.576 -0.5096 -0.6582  0.6151
 5067TIP3   OH236691   6.431   3.088  10.435 -0.1391  0.1008  0.0292
 5067TIP3    H136692   6.495   3.156  10.456  0.0988 -0.0133 -0.3157
 5067TIP3    H236693   6.370   3.089  10.508  0.4897 -0.0681  0.5632
 5068TIP3   OH236694   0.295   6.043  10.105 -0.3573  0.6468 -0.3983
 5068TIP3    H136695   0.285   6.016  10.013 -1.5115  0.5641 -0.2541
 5068TIP3    H236696   0.369   5.991  10.137  1.7504  2.5400 -1.9966
 5069TIP3   OH236697   5.055   0.265  13.285 -0.1501  0.3697 -0.0574
 5069TIP3    H136698   5.132   0.222  13.322 -2.0687 -1.1951  2.2346
 5069TIP3    H236699   4.997   0.281  13.360 -1.6062  2.4827 -1.5777
 5070TIP3   OH236700   3.468   0.129  11.658 -0.2851 -0.1552  0.3842
 5070TIP3    H136701   3.543   0.188  11.650  0.3252 -0.8481  0.8833
 5070TIP3    H236702   3.411   0.153  11.585  0.3286  0.5167  0.1141
 5071TIP3   OH236703   2.442   3.684  10.963 -0.4745  0.8979 -0.1679
 5071TIP3    H136704   2.525   3.705  11.005  0.9742 -0.2445 -2.3798
 5071TIP3    H236705   2.440   3.589  10.959 -2.6226  0.8531  1.2417
 5072TIP3   OH236706   0.083   3.923   0.059  0.4962 -0.4054  0.2885
 5072TIP3    H136707   0.139   3.949  -0.014  0.8599 -0.3220  0.5987
 5072TIP3    H236708   0.140   3.872   0.116  0.5187  0.5230  1.1039
 5073TIP3   OH236709   6.507   5.590  10.296 -0.1376 -0.2703  0.3503
 5073TIP3    H136710   6.493   5.670  10.347 -0.2991  1.0991 -1.7799
 5073TIP3    H236711   6.502   5.619  10.205  1.8610 -2.3737 -0.4493
 5074TIP3   OH236712   6.995   5.957  11.661 -0.1238 -0.0644  0.2049
 5074TIP3    H136713   6.918   5.921  11.705 -0.0336 -0.9361 -0.3284
 5074TIP3    H236714   6.960   6.012  11.591 -0.2668 -0.6547 -0.1916
 5075TIP3   OH236715   6.301   4.451  10.710 -0.2419  0.0795  0.2711
 5075TIP3    H136716   6.372   4.389  10.732 -1.3336 -1.4123 -0.2988
 5075TIP3    H236717   6.276   4.489  10.794 -2.2087 -3.1990  1.2735
 5076TIP3   OH236718   2.091   3.135  13.411  0.3872 -0.7725  0.5535
 5076TIP3    H136719   2.025   3.065  13.419  0.7111 -1.1485  0.0010
 5076TIP3    H236720   2.157   3.098  13.352  0.2544  0.2288 -0.2375
 5077TIP3   OH236721   4.397   5.087  11.860  0.3032 -0.1455 -0.4748
 5077TIP3    H136722   4.475   5.035  11.877 -0.5264 -1.3488 -0.2562
 5077TIP3    H236723   4.326   5.022  11.854 -1.2527  1.1508  2.8217
 5078TIP3   OH236724   4.293   2.313  12.081 -0.4145  0.1842  0.5260
 5078TIP3    H136725   4.214   2.367  12.086 -0.6387  0.0109 -0.9433
 5078TIP3    H236726   4.301   2.274  12.168 -1.5793  0.7193  0.8809
 5079TIP3   OH236727   3.493   6.192  13.464 -0.1911 -0.2298 -0.3632
 5079TIP3    H136728   3.442   6.121  13.505 -0.0429 -0.2986 -0.2954
 5079TIP3    H236729   3.581   6.182  13.501  0.1352 -0.7659 -1.2835
 5080TIP3   OH236730   3.429   6.108  11.297 -0.6965  0.2409  0.1298
 5080TIP3    H136731   3.476   6.080  11.218  0.7884 -0.4013  1.2248
 5080TIP3    H236732   3.373   6.033  11.318 -0.3676  0.0344  0.2593
 5081TIP3   OH236733   1.167   7.113  13.283  0.4653  1.0494  0.8362
 5081TIP3    H136734   1.091   7.158  13.246  0.3411  0.9328  0.9498
 5081TIP3    H236735   1.134   7.071  13.363  0.0382 -1.1062 -0.4172
 5082TIP3   OH236736   0.175   3.686  10.839  0.0581 -0.2539 -0.3399
 5082TIP3    H136737   0.245   3.621  10.846  0.7074  0.3816 -0.9158
 5082TIP3    H236738   0.211   3.755  10.783 -0.7986  0.3793 -0.1219
 5083TIP3   OH236739   7.095   0.493  11.617 -0.5282 -0.8882  0.2754
 5083TIP3    H136740   7.063   0.403  11.626  0.3117 -1.2837 -0.5341
 5083TIP3    H236741   7.166   0.486  11.553 -0.1445  0.2801  0.5697
 5084TIP3   OH236742   6.558   0.789  13.143  0.4320 -0.1966 -0.4932
 5084TIP3    H136743   6.556   0.831  13.228  2.6380 -0.0959 -0.4561
 5084TIP3    H236744   6.471   0.806  13.105  0.5087  2.4585  0.4293
 5085TIP3   OH236745   3.795   3.400  14.208 -0.7310 -0.1973  0.0905
 5085TIP3    H136746   3.758   3.451  14.280 -0.1900 -0.7182  0.7486
 5085TIP3    H236747   3.724   3.344  14.179 -1.3111  0.8759 -0.5968
 5086TIP3   OH236748   4.658   3.619  12.087  0.1974  0.2092 -0.0058
 5086TIP3    H136749   4.630   3.605  11.996 -0.7747  1.3366  0.1097
 5086TIP3    H236750   4.595   3.571  12.139  0.1397  0.4273  0.1242
 5087TIP3   OH236751   6.172   3.501   9.935 -0.7849  0.3226 -0.1650
 5087TIP3    H136752   6.169   3.437   9.864  0.8602 -1.5885  1.4366
 5087TIP3    H236753   6.083   3.503   9.968 -0.7317 -1.6427  0.1705
 5088TIP3   OH236754   6.626   2.129  12.337 -0.5645  0.1012 -0.0557
 5088TIP3    H136755   6.652   2.078  12.260  3.4813  1.2590  0.4539
 5088TIP3    H236756   6.630   2.220  12.308  2.1498  0.6085  1.8240
 5089TIP3   OH236757   7.041   4.918   2.399  0.1581 -0.3594  0.3597
 5089TIP3    H136758   7.076   4.830   2.382  1.2105  0.1977 -0.4052
 5089TIP3    H236759   7.016   4.916   2.492 -0.5164 -1.6895  0.1662
 5090TIP3   OH236760   1.888   1.950  13.215  0.2283  0.3814 -0.2955
 5090TIP3    H136761   1.979   1.938  13.187 -0.2372  0.0183 -1.7120
 5090TIP3    H236762   1.838   1.894  13.156 -0.8423 -0.1193  1.0574
 5091TIP3   OH236763   0.268   5.903  10.953  0.2077  0.3653 -0.1525
 5091TIP3    H136764   0.261   5.810  10.935  0.9576 -0.0036  1.3543
 5091TIP3    H236765   0.340   5.910  11.016  2.0145  2.2280 -2.2865
 5092TIP3   OH236766   3.524   3.350  10.913  0.1757 -0.0802 -0.4147
 5092TIP3    H136767   3.580   3.305  10.850  1.0725 -0.2380  0.4736
 5092TIP3    H236768   3.553   3.318  10.998 -1.5739 -0.4869  0.0424
 5093TIP3   OH236769   0.438   4.360  12.045 -1.0679  0.0921 -0.0394
 5093TIP3    H136770   0.389   4.370  11.963 -0.7454  2.0955 -0.0063
 5093TIP3    H236771   0.503   4.429  12.042 -1.3847  0.5022  2.1668
 5094TIP3   OH236772   4.074   3.493  11.062  0.0580 -0.2530 -0.1827
 5094TIP3    H136773   4.075   3.439  11.141  0.3918  0.9349  0.6519
 5094TIP3    H236774   4.132   3.566  11.083  1.7415 -0.9392 -2.2714
 5095TIP3   OH236775   3.108   3.556  12.185  0.0657 -0.8743 -0.3050
 5095TIP3    H136776   3.123   3.504  12.263  1.4157 -0.5193 -0.3082
 5095TIP3    H236777   3.048   3.625  12.213  1.9334  0.3089  0.8985
 5096TIP3   OH236778   0.933   4.672  12.758  0.3324  0.0499  0.0980
 5096TIP3    H136779   0.902   4.696  12.845  1.4864  0.5936  0.3749
 5096TIP3    H236780   1.028   4.663  12.768  0.3402 -1.0175 -0.8463
 5097TIP3   OH236781   3.133   4.719  15.428  0.1987  0.0491 -0.7665
 5097TIP3    H136782   3.189   4.777  15.480  1.2400 -0.5408 -1.1981
 5097TIP3    H236783   3.121   4.765  15.345 -1.1053  0.7954 -0.1803
 5098TIP3   OH236784   4.351   3.250  10.813 -1.2604  0.1045  0.0053
 5098TIP3    H136785   4.362   3.210  10.899 -0.4576 -0.0730 -0.1682
 5098TIP3    H236786   4.257   3.255  10.800 -1.4493  2.0124  1.7809
 5099TIP3   OH236787   7.033   0.955  11.830 -0.1560 -0.8351 -0.0290
 5099TIP3    H136788   7.001   1.027  11.885 -0.4966  0.5726 -2.0042
 5099TIP3    H236789   7.118   0.985  11.798  0.8105 -2.3643  1.0353
 5100TIP3   OH236790   4.468   5.562  13.576 -0.5462  0.2637  0.2653
 5100TIP3    H136791   4.552   5.531  13.610 -0.1947 -1.0088 -1.6854
 5100TIP3    H236792   4.491   5.626  13.509 -1.0794 -0.8468 -1.0116
 5101TIP3   OH236793   3.432   5.209  14.369  0.6149 -0.1256 -0.3029
 5101TIP3    H136794   3.517   5.212  14.325  1.3855 -2.1940  0.9493
 5101TIP3    H236795   3.453   5.221  14.462 -0.5890  0.4417 -0.0963
 5102TIP3   OH236796   2.046   6.232  12.666 -0.1833  0.5404 -0.1643
 5102TIP3    H136797   2.096   6.290  12.609  0.0416 -1.2652 -1.8693
 5102TIP3    H236798   2.106   6.213  12.739  0.2017  1.3817 -0.2494
 5103TIP3   OH236799   6.263   1.185  13.815  0.1819 -0.6834 -0.7798
 5103TIP3    H136800   6.233   1.248  13.880  1.9126 -2.1230  1.4771
 5103TIP3    H236801   6.191   1.122  13.808  0.7826 -1.6180  1.2380
 5104TIP3   OH236802   3.851   6.024  15.039 -0.3054 -0.4884  0.1588
 5104TIP3    H136803   3.771   6.054  15.081  0.2144 -2.2266  2.5085
 5104TIP3    H236804   3.827   6.011  14.947 -2.4650 -0.1038  0.6470
 5105TIP3   OH236805   4.653   0.872  13.999  0.3124  0.4933  0.1264
 5105TIP3    H136806   4.720   0.905  14.058  1.2017 -1.8888  0.4834
 5105TIP3    H236807   4.688   0.887  13.911  2.1942 -2.4273  0.3291
 5106TIP3   OH236808   5.687   2.122  11.995 -0.0372  0.3067 -0.1256
 5106TIP3    H136809   5.654   2.130  12.084  2.7924 -0.0611  0.9898
 5106TIP3    H236810   5.639   2.189  11.946  0.3572  2.4425  2.2801
 5107TIP3   OH236811   3.182   4.999  11.305 -0.7188  0.0910  0.4326
 5107TIP3    H136812   3.126   4.931  11.342 -1.9253  1.4930  1.2459
 5107TIP3    H236813   3.217   4.961  11.224 -3.6213 -0.4506 -0.6159
 5108TIP3   OH236814   3.797   5.793  14.081 -0.0686 -0.1375  0.6343
 5108TIP3    H136815   3.877   5.800  14.134 -0.8393  0.8082  1.6959
 5108TIP3    H236816   3.785   5.880  14.044 -0.0106 -0.5734 -0.4128
 5109TIP3   OH236817   4.411   7.133  12.672 -0.3352 -0.1025 -0.0125
 5109TIP3    H136818   4.389   7.218  12.635 -1.0120 -0.8929 -1.5125
 5109TIP3    H236819   4.459   7.088  12.602 -1.8604 -1.7294 -0.0614
 5110TIP3   OH236820   1.791   0.590  10.450 -0.5153 -0.0222  0.0522
 5110TIP3    H136821   1.788   0.518  10.388 -0.9459  0.9023 -1.0245
 5110TIP3    H236822   1.724   0.569  10.515  0.9364 -1.7219  1.0516
 5111TIP3   OH236823   4.139   5.038  13.620 -0.1071  0.7013  0.0989
 5111TIP3    H136824   4.079   5.095  13.668 -0.9646  0.6959 -0.9563
 5111TIP3    H236825   4.091   4.956  13.610  0.4771  0.3508  0.1292
 5112TIP3   OH236826   1.893   3.111  10.396 -0.2055 -0.0106 -0.1151
 5112TIP3    H136827   1.935   3.132  10.313 -0.6567 -0.9004 -0.5722
 5112TIP3    H236828   1.852   3.025  10.382  0.3111 -0.4940  1.2413
 5113TIP3   OH236829   1.324   1.112  11.423  0.8597  0.3214 -0.3647
 5113TIP3    H136830   1.242   1.061  11.421 -0.6111  2.5781  0.8473
 5113TIP3    H236831   1.376   1.070  11.491 -0.3052  0.3912  0.5764
 5114TIP3   OH236832   2.036   3.411  11.184  0.2147  0.2217  0.1280
 5114TIP3    H136833   2.097   3.377  11.250  0.3547 -0.3679 -0.3041
 5114TIP3    H236834   1.993   3.334  11.149  0.3617  0.5062 -0.6885
 5115TIP3   OH236835   2.460   6.055  11.749  0.2808 -0.1640 -0.0752
 5115TIP3    H136836   2.407   5.983  11.783  0.8611 -0.1620  0.8422
 5115TIP3    H236837   2.488   6.026  11.662  0.8010 -1.1843  0.4317
 5116TIP3   OH236838   1.295   2.335  10.905 -0.0743 -0.4011 -0.0844
 5116TIP3    H136839   1.221   2.339  10.845 -0.4932  1.1157  0.5051
 5116TIP3    H236840   1.273   2.264  10.966 -2.2987  1.6612  1.6535
 5117TIP3   OH236841   0.524   4.421  13.777 -0.0059 -0.3809 -0.6689
 5117TIP3    H136842   0.478   4.498  13.809 -0.8521 -1.5686  1.0584
 5117TIP3    H236843   0.601   4.414  13.833  0.3916 -0.4449 -1.2214
 5118TIP3   OH236844   1.722   3.859  12.476 -0.3954 -0.2964 -0.7579
 5118TIP3    H136845   1.653   3.793  12.478  0.1547 -0.8954 -1.0958
 5118TIP3    H236846   1.803   3.808  12.465  0.4154  0.1889  2.4478
 5119TIP3   OH236847   5.690   4.122  12.206  0.2185 -0.2679 -0.6828
 5119TIP3    H136848   5.701   4.027  12.197  2.7698 -0.0264 -0.5028
 5119TIP3    H236849   5.596   4.135  12.206 -0.2441 -3.0711  1.9628
 5120TIP3   OH236850   2.566   3.255  10.310  0.8662  0.1294 -0.3179
 5120TIP3    H136851   2.530   3.298  10.233  0.4809  0.8698  0.2724
 5120TIP3    H236852   2.572   3.324  10.376 -3.7010 -1.4786  2.0165
 5121TIP3   OH236853   2.144   5.818  11.414 -0.1900 -0.3211  0.5050
 5121TIP3    H136854   2.187   5.747  11.462  0.2153  0.6596  1.6009
 5121TIP3    H236855   2.210   5.848  11.352 -0.7356 -1.6306 -0.7380
 5122TIP3   OH236856   6.071   0.770   0.045 -0.0030 -0.2401  0.0260
 5122TIP3    H136857   6.045   0.786   0.136  1.9434 -1.1797  0.7812
 5122TIP3    H236858   6.018   0.696   0.017 -2.6277  1.7641 -0.5682
 5123TIP3   OH236859   4.867   1.314  14.492  0.5987 -0.1264 -0.4605
 5123TIP3    H136860   4.835   1.258  14.422 -0.5060 -0.3909  0.2535
 5123TIP3    H236861   4.914   1.255  14.550 -3.0044 -0.8806  1.8225
 5124TIP3   OH236862   1.046   5.184  11.409  0.5083 -0.3866 -0.3080
 5124TIP3    H136863   1.118   5.155  11.354  0.9757  0.5456 -0.2026
 5124TIP3    H236864   0.974   5.201  11.349  1.5288  2.2449 -0.8608
 5125TIP3   OH236865   2.436   1.710   0.099  0.0371 -0.3900  0.0944
 5125TIP3    H136866   2.389   1.723   0.017 -1.3045 -1.2758  0.7123
 5125TIP3    H236867   2.487   1.790   0.110  0.1137 -0.1997 -1.5180
 5126TIP3   OH236868   1.930   5.166  14.220  0.2931 -0.0487 -0.0453
 5126TIP3    H136869   1.878   5.140  14.297 -0.6182  0.8373 -0.3570
 5126TIP3    H236870   2.020   5.168  14.252 -0.0100 -0.3089  0.8443
 5127TIP3   OH236871   5.744   4.745  11.876 -0.3252  0.4760  0.3251
 5127TIP3    H136872   5.795   4.683  11.928  1.6321  0.8036 -1.1468
 5127TIP3    H236873   5.809   4.803  11.837 -1.8980  1.5014 -0.8455
 5128TIP3   OH236874   2.729   6.419  11.911  0.6436 -0.1125 -0.7830
 5128TIP3    H136875   2.818   6.390  11.932  0.9506  1.5500  0.3011
 5128TIP3    H236876   2.739   6.512  11.890 -0.7364 -0.0862 -1.3416
 5129TIP3   OH236877   6.216   6.456  13.712  0.0928  0.1323  0.1977
 5129TIP3    H136878   6.236   6.371  13.673  1.6584  0.7102 -0.3034
 5129TIP3    H236879   6.288   6.513  13.683 -1.3264  1.8206 -0.0927
 5130TIP3   OH236880   3.433   0.489  10.752 -0.3516 -0.2539  0.4041
 5130TIP3    H136881   3.397   0.568  10.712 -1.2555 -0.1463  1.4299
 5130TIP3    H236882   3.383   0.478  10.833  1.2367 -0.6493  1.3533
 5131TIP3   OH236883   2.690   4.262   9.987  0.9536  0.5709  0.2161
 5131TIP3    H136884   2.739   4.186   9.959  1.0171  1.7359 -3.0747
 5131TIP3    H236885   2.752   4.313  10.040  2.1921  0.3150 -0.9666
 5132TIP3   OH236886   3.509   2.645  12.487 -0.1325 -1.1021  0.2356
 5132TIP3    H136887   3.542   2.656  12.576  0.9044  0.9094 -0.3685
 5132TIP3    H236888   3.547   2.718  12.438 -4.8834  1.0117 -0.6489
 5133TIP3   OH236889   3.043   6.661  11.428 -0.1855  0.1490 -0.1282
 5133TIP3    H136890   3.003   6.747  11.420 -0.5961 -0.0975 -0.8676
 5133TIP3    H236891   3.125   6.668  11.378 -0.4701 -0.0351 -0.6240
 5134TIP3   OH236892   0.887   3.362  11.918  0.2001 -0.1580 -0.5876
 5134TIP3    H136893   0.899   3.402  11.832  0.8339  0.7721 -0.0750
 5134TIP3    H236894   0.903   3.433  11.980  0.7436 -1.0636  0.3236
 5135TIP3   OH236895   4.494   6.706   9.808  0.0614 -0.0695 -0.2267
 5135TIP3    H136896   4.555   6.648   9.762 -0.0642  2.7764 -4.2160
 5135TIP3    H236897   4.416   6.707   9.753 -1.2267  1.1654  1.5897
 5136TIP3   OH236898   5.527   4.195  10.895 -0.6886  0.4327  0.2636
 5136TIP3    H136899   5.535   4.286  10.866  1.0678 -0.3566 -1.8636
 5136TIP3    H236900   5.616   4.169  10.917 -0.9964 -1.1465 -0.2938
 5137TIP3   OH236901   3.161   3.490  10.925  1.0231 -0.1455 -0.0447
 5137TIP3    H136902   3.232   3.498  10.861 -0.0404  0.1414 -1.2148
 5137TIP3    H236903   3.159   3.397  10.946  0.8730 -0.3789 -1.0439
 5138TIP3   OH236904   1.680   5.846  11.467  0.6899 -0.0613 -0.5098
 5138TIP3    H136905   1.630   5.919  11.431  2.7286  1.7900  0.3113
 5138TIP3    H236906   1.614   5.781  11.491 -1.3133  2.2790  0.4890
 5139TIP3   OH236907   3.377   0.331  10.528 -0.1569  0.3225  0.0981
 5139TIP3    H136908   3.422   0.381  10.460 -2.6503  0.3999 -1.5527
 5139TIP3    H236909   3.367   0.393  10.601 -1.1816  1.5407 -1.0633
 5140TIP3   OH236910   1.536   0.644  12.010 -0.7949 -0.2054 -0.6637
 5140TIP3    H136911   1.465   0.580  12.002 -1.1024 -0.0012  0.2782
 5140TIP3    H236912   1.593   0.627  11.935 -0.0328 -2.6452  0.3950
 5141TIP3   OH236913   2.588   1.851  13.158 -0.2971 -0.0361  0.3783
 5141TIP3    H136914   2.590   1.776  13.217  1.2805 -0.2681  0.0454
 5141TIP3    H236915   2.547   1.921  13.209  1.4825 -0.0891  1.9231
 5142TIP3   OH236916   2.785   4.797  11.623 -0.7273  0.5850 -0.0622
 5142TIP3    H136917   2.791   4.879  11.672  0.6307  1.8701 -2.3283
 5142TIP3    H236918   2.827   4.732  11.679 -1.5241  1.4872  1.6058
 5143TIP3   OH236919   1.826   1.744   9.737  0.0773  0.3329  0.0592
 5143TIP3    H136920   1.750   1.697   9.769  0.0394 -0.0668 -0.6063
 5143TIP3    H236921   1.901   1.692   9.765  0.0805  0.4235  0.2188
 5144TIP3   OH236922   4.920   2.761  11.284  0.1248  0.3974  0.3196
 5144TIP3    H136923   4.866   2.783  11.360 -1.4101  1.9639 -1.1830
 5144TIP3    H236924   4.886   2.817  11.214  0.8072 -1.7837 -1.8029
 5145TIP3   OH236925   2.530   3.113  11.109 -0.1471 -0.2236 -0.0703
 5145TIP3    H136926   2.459   3.126  11.047 -1.3350 -0.3750  1.2284
 5145TIP3    H236927   2.594   3.059  11.063 -0.5605  0.4797 -1.4731
 5146TIP3   OH236928   6.841   3.872  13.098  0.7867  0.0095  0.5678
 5146TIP3    H136929   6.769   3.904  13.152  0.8905  0.0909  0.6560
 5146TIP3    H236930   6.872   3.949  13.051  0.2884 -0.1720 -0.0844
 5147TIP3   OH236931   0.066   6.518  14.841 -0.4716  0.4087 -0.4582
 5147TIP3    H136932   0.134   6.544  14.904 -1.7835  2.3282  0.1862
 5147TIP3    H236933   0.100   6.436  14.803  0.1673 -1.0361  3.0128
 5148TIP3   OH236934   3.983   3.641  10.816  0.3512  0.0105  0.0143
 5148TIP3    H136935   4.000   3.570  10.878 -0.2809  1.5690  2.0084
 5148TIP3    H236936   3.905   3.612  10.768  1.8627 -1.9939 -1.3096
 5149TIP3   OH236937   0.449   5.532  11.873  0.6350  0.1100  0.2776
 5149TIP3    H136938   0.505   5.605  11.898 -0.1222  0.9377 -0.4416
 5149TIP3    H236939   0.458   5.469  11.945  1.8223  0.5997  0.5620
 5150TIP3   OH236940   3.037   0.461   9.618  0.4106  0.0414  0.0889
 5150TIP3    H136941   2.943   0.474   9.633  1.0021  1.6209  2.8221
 5150TIP3    H236942   3.067   0.411   9.694  1.8549 -0.1791 -0.6002
 5151TIP3   OH236943   5.847   0.216  14.113 -0.2685  0.5093 -0.0654
 5151TIP3    H136944   5.818   0.271  14.185  2.0384 -0.1038  1.3889
 5151TIP3    H236945   5.844   0.127  14.148 -0.2010  0.0921 -1.0938
 5152TIP3   OH236946   0.291   2.930  12.979  0.5278 -0.2562 -0.2768
 5152TIP3    H136947   0.293   2.835  12.969  0.2087 -0.2672 -0.2399
 5152TIP3    H236948   0.202   2.949  13.009  0.6124  0.0469 -0.2163
 5153TIP3   OH236949   3.230   4.856  11.066  0.0389 -0.5388 -0.2624
 5153TIP3    H136950   3.311   4.883  11.022 -1.2843  0.8026 -1.9129
 5153TIP3    H236951   3.172   4.829  10.995 -2.1713  1.7637  0.6042
 5154TIP3   OH236952   3.983   4.474  11.432  0.1224  0.3842  0.1740
 5154TIP3    H136953   3.898   4.486  11.389  0.8943 -1.8805 -2.0909
 5154TIP3    H236954   4.025   4.402  11.384  4.2143  2.8024 -0.1628
 5155TIP3   OH236955   2.706   6.975  12.497 -0.0962 -0.5988  0.3048
 5155TIP3    H136956   2.771   7.037  12.465  0.8548 -1.2586  0.9331
 5155TIP3    H236957   2.624   7.024  12.498  0.5093  0.4279  0.0960
 5156TIP3   OH236958   2.106   6.723  10.548  0.3324 -0.1681 -0.6938
 5156TIP3    H136959   2.123   6.632  10.525 -0.0365 -0.6234  0.7587
 5156TIP3    H236960   2.187   6.753  10.590  0.2559  0.0001 -0.6626
 5157TIP3   OH236961   3.304   2.762  10.939 -0.5363  0.3786 -0.2236
 5157TIP3    H136962   3.234   2.710  10.978  0.1619  0.2972  0.9236
 5157TIP3    H236963   3.322   2.718  10.856  1.3070 -2.3540  1.5439
 5158TIP3   OH236964   4.733   4.870  14.277  0.4831  0.2103  0.4596
 5158TIP3    H136965   4.712   4.907  14.192 -0.2228 -1.0662  0.0789
 5158TIP3    H236966   4.769   4.944  14.327 -2.2466  1.7833  0.1964
 5159TIP3   OH236967   5.394   5.254  11.767 -0.9055 -0.2850  0.7108
 5159TIP3    H136968   5.380   5.202  11.688  0.2756 -0.6337  0.7286
 5159TIP3    H236969   5.422   5.191  11.833 -0.6499  0.1915  1.0625
 5160TIP3   OH236970   4.374   1.079  13.503 -0.2399  0.1438 -0.2345
 5160TIP3    H136971   4.426   1.009  13.541  0.0422  0.5990  0.2255
 5160TIP3    H236972   4.392   1.155  13.558 -2.1182  0.0821  0.5071
 5161TIP3   OH236973   0.447   3.300  12.603 -0.3302  0.1650  0.4080
 5161TIP3    H136974   0.500   3.220  12.604  1.8927  1.5600 -1.1638
 5161TIP3    H236975   0.479   3.351  12.678 -0.0774  0.5713  0.0345
 5162TIP3   OH236976   0.592   5.154  13.401  0.3411  0.2947 -0.5644
 5162TIP3    H136977   0.592   5.087  13.332  0.2940 -0.4578  0.1613
 5162TIP3    H236978   0.666   5.211  13.379  1.6002 -1.1097 -0.1256
 5163TIP3   OH236979   4.059   5.136  11.463  0.2270 -0.9286  0.2390
 5163TIP3    H136980   4.012   5.173  11.389 -0.6291 -1.0607  0.7104
 5163TIP3    H236981   4.007   5.160  11.540  0.6914 -1.4505  0.7254
 5164TIP3   OH236982   1.086   5.926  11.195 -0.5204  0.3741 -0.2090
 5164TIP3    H136983   1.116   5.867  11.126  0.0942 -2.2149  2.1847
 5164TIP3    H236984   1.158   5.926  11.259 -1.7409  1.4697  1.1877
 5165TIP3   OH236985   3.735   1.096  11.846  0.0491 -0.2466  0.5175
 5165TIP3    H136986   3.732   1.192  11.845 -0.3755 -0.2520 -1.1421
 5165TIP3    H236987   3.645   1.069  11.826  0.0880 -0.9952  1.3337
 5166TIP3   OH236988   1.475   6.173  10.320 -0.4073  0.7595  0.1435
 5166TIP3    H136989   1.381   6.158  10.318  0.2657 -4.0665 -0.9607
 5166TIP3    H236990   1.505   6.152  10.231  2.0848 -1.0241  1.3349
 5167TIP3   OH236991   0.370   1.601  11.920  0.0274 -0.3856 -0.4235
 5167TIP3    H136992   0.297   1.565  11.869 -0.5013  0.5316 -0.3083
 5167TIP3    H236993   0.401   1.676  11.868  1.4639 -1.2889 -0.9221
 5168TIP3   OH236994   0.804   4.607  14.236 -0.3023  0.1634 -0.3193
 5168TIP3    H136995   0.829   4.626  14.145 -1.1510  1.5816 -0.2724
 5168TIP3    H236996   0.803   4.692  14.279 -0.5762 -0.4271  0.8553
 5169TIP3   OH236997   6.087   2.955  11.370 -0.2626 -0.1311  0.0718
 5169TIP3    H136998   6.037   3.010  11.432 -0.0472  0.2528 -0.0927
 5169TIP3    H236999   6.021   2.925  11.307 -0.8018 -1.9028  1.4331
 5170TIP3   OH237000   0.642   6.516  10.397  0.0959 -0.2356 -0.2743
 5170TIP3    H137001   0.638   6.571  10.475  2.3772  1.0755 -1.0279
 5170TIP3    H237002   0.717   6.550  10.348 -0.9788 -1.3667 -2.7800
 5171TIP3   OH237003   3.381   3.539  10.796  0.3713  0.0224  0.0468
 5171TIP3    H137004   3.425   3.624  10.789  0.3194 -0.1080 -2.3052
 5171TIP3    H237005   3.432   3.490  10.860  2.7545  0.4400 -1.4660
 5172TIP3   OH237006   1.016   2.624  15.330  0.4272  0.0339  0.4026
 5172TIP3    H137007   1.009   2.573  15.410  0.5337  0.1882  0.5092
 5172TIP3    H237008   0.958   2.700  15.344  1.2964  0.6365  0.7736
 5173TIP3   OH237009   3.854   6.878  12.555  0.9460  0.0515 -0.4225
 5173TIP3    H137010   3.819   6.967  12.555  2.3601  0.6161  0.1090
 5173TIP3    H237011   3.867   6.858  12.463 -1.5697 -0.5123 -0.7039
 5174TIP3   OH237012   4.315   3.666  10.038  0.3337 -0.9278  0.3081
 5174TIP3    H137013   4.277   3.613   9.968  0.2621  0.1834 -0.5037
 5174TIP3    H237014   4.246   3.727  10.064  0.9926 -0.0318 -0.0032
 5175TIP3   OH237015   3.143   5.383  14.784 -0.0751 -0.0281 -0.8843
 5175TIP3    H137016   3.220   5.416  14.738  1.0414 -1.0726  0.2025
 5175TIP3    H237017   3.170   5.379  14.876 -1.3515 -0.6284 -0.5260
 5176TIP3   OH237018   7.169   4.948  13.536  0.0754 -0.4343  0.5019
 5176TIP3    H137019   7.189   5.033  13.497  1.2744 -0.5843  0.7919
 5176TIP3    H237020   7.155   4.967  13.628  2.7009 -0.8778  1.0277
 5177TIP3   OH237021   0.052   2.569  13.151 -0.4775 -0.1589 -0.3424
 5177TIP3    H137022   0.041   2.491  13.098 -3.1817  0.3942 -0.6986
 5177TIP3    H237023   0.008   2.549  13.233  2.4202 -0.4788  1.1838
 5178TIP3   OH237024   3.631   4.980  11.666 -0.2278 -0.2605  0.2135
 5178TIP3    H137025   3.636   4.885  11.670 -0.2796 -0.2139  1.8254
 5178TIP3    H237026   3.557   4.998  11.608 -0.8110 -1.2265  0.6491
 5179TIP3   OH237027   3.322   1.000   9.695  0.9255 -0.1591 -0.7876
 5179TIP3    H137028   3.238   1.011   9.649  0.8491  1.5020 -0.2918
 5179TIP3    H237029   3.381   1.059   9.650  0.8316  1.5544  1.2748
 5180TIP3   OH237030   4.580   4.329  11.023  0.5224  0.6843  0.8043
 5180TIP3    H137031   4.510   4.393  11.023  0.0955  0.2350  2.7328
 5180TIP3    H237032   4.557   4.269  10.951 -0.9496  0.6534  1.2879
 5181TIP3   OH237033   4.240   3.686  12.436 -0.0675 -0.0964  0.5007
 5181TIP3    H137034   4.146   3.698  12.445  0.2105  2.0314  0.8672
 5181TIP3    H237035   4.259   3.713  12.346  0.4724  1.5041  1.0852
 5182TIP3   OH237036   1.765   4.748  13.653 -0.0679  0.5520 -0.1399
 5182TIP3    H137037   1.837   4.803  13.621 -0.1654  0.5408 -0.3776
 5182TIP3    H237038   1.790   4.659  13.629 -0.6159  0.6452 -1.0803
 5183TIP3   OH237039   0.938   7.176  13.169 -0.0520  0.2492  0.1418
 5183TIP3    H137040   0.884   7.237  13.220 -1.0026 -0.0452 -0.4976
 5183TIP3    H237041   0.944   7.216  13.083  0.6687  0.2194  0.1750
 5184TIP3   OH237042   4.616   4.812  15.164 -0.0887 -0.6112  0.1141
 5184TIP3    H137043   4.615   4.908  15.157 -1.2292 -0.5492  0.9417
 5184TIP3    H237044   4.630   4.781  15.075  0.3887  0.3268 -0.1453
 5185TIP3   OH237045   3.584   4.058  12.338 -0.1826 -0.2100  0.7413
 5185TIP3    H137046   3.612   4.147  12.357  1.5166 -0.1157 -2.0030
 5185TIP3    H237047   3.657   4.003  12.368  0.9526 -0.2950 -2.0493
 5186TIP3   OH237048   3.777   4.242  13.176  0.5930  0.1369  0.6052
 5186TIP3    H137049   3.794   4.195  13.095 -0.9037 -0.7007  0.7693
 5186TIP3    H237050   3.688   4.276  13.167  0.9987  1.4339  1.2336
 5187TIP3   OH237051   5.013   4.580  13.292  0.2191  0.1957 -0.1409
 5187TIP3    H137052   4.934   4.527  13.289 -0.2420  0.7710  1.2175
 5187TIP3    H237053   5.081   4.521  13.323  0.0094  0.0455  0.0328
 5188TIP3   OH237054   3.264   5.421  11.088 -0.2082 -0.0640  0.0976
 5188TIP3    H137055   3.206   5.419  11.012 -1.9359  2.1595  1.3180
 5188TIP3    H237056   3.252   5.335  11.129 -0.5308 -0.6437 -1.1823
 5189TIP3   OH237057   4.480   6.472  10.004 -0.5902  0.7041 -0.0774
 5189TIP3    H137058   4.486   6.439  10.093  2.6829  0.0238 -0.5091
 5189TIP3    H237059   4.517   6.560  10.008 -1.3838  1.0769 -0.5985
 5190TIP3   OH237060   3.864   0.044  11.187  0.5781 -0.3675  0.1566
 5190TIP3    H137061   3.883  -0.032  11.132  0.0375  0.9125 -1.8348
 5190TIP3    H237062   3.838   0.006  11.271  1.4722 -2.3528 -0.4317
 5191TIP3   OH237063   5.353   2.804  11.925  0.3250 -0.3154 -0.4382
 5191TIP3    H137064   5.302   2.773  11.850  1.9359 -1.6449 -1.0332
 5191TIP3    H237065   5.356   2.899  11.916 -1.5987 -0.2766 -0.6719
 5192TIP3   OH237066   3.545   4.373  12.084  0.0594  0.0757 -0.0670
 5192TIP3    H137067   3.477   4.361  12.018  0.1341  2.8183 -0.6957
 5192TIP3    H237068   3.623   4.395  12.034  1.0443 -1.4520  0.7537
 5193TIP3   OH237069   1.536   3.867  11.342  0.5304 -0.6423  0.2882
 5193TIP3    H137070   1.574   3.790  11.385  0.2333 -0.9004  0.0936
 5193TIP3    H237071   1.467   3.897  11.401  1.5336  0.2810  1.0008
 5194TIP3   OH237072   2.600   4.168  11.987 -0.3311 -0.3011  0.1414
 5194TIP3    H137073   2.587   4.102  11.919  1.0334 -0.0083 -0.4120
 5194TIP3    H237074   2.660   4.127  12.049  1.4617  0.8377 -0.8126
 5195TIP3   OH237075   3.194   2.023  11.503 -0.0379 -0.4856  0.6282
 5195TIP3    H137076   3.202   2.107  11.547 -0.7632  0.3765 -0.8552
 5195TIP3    H237077   3.283   1.987  11.502  0.5579  0.9980 -0.1770
 5196TIP3   OH237078   6.640   5.226  11.403 -0.4626  0.3588  0.0578
 5196TIP3    H137079   6.722   5.192  11.439 -0.9175 -1.1045 -0.2617
 5196TIP3    H237080   6.572   5.193  11.461 -0.9747  0.1519 -0.6481
 5197TIP3   OH237081   0.807   2.460  14.187  0.1163  0.5823  0.2273
 5197TIP3    H137082   0.775   2.386  14.238 -0.1684  0.8840  0.4962
 5197TIP3    H237083   0.736   2.524  14.192  0.6322  1.1333  0.5566
 5198TIP3   OH237084   4.209   0.185  12.139  0.5945 -0.0762 -0.2508
 5198TIP3    H137085   4.130   0.174  12.191  1.3096 -0.2987  0.7891
 5198TIP3    H237086   4.195   0.130  12.062 -0.6766  0.6501 -0.5541
 5199TIP3   OH237087   4.673   1.492  15.591 -0.2921  0.0435 -0.5340
 5199TIP3    H137088   4.722   1.573  15.575  2.5206 -2.0844 -3.5317
 5199TIP3    H237089   4.727   1.444  15.653 -0.8841 -0.4265 -0.3802
 5200TIP3   OH237090   0.813   6.809   1.121  0.0682 -0.1032 -0.8312
 5200TIP3    H137091   0.866   6.729   1.117 -0.6478 -0.6685  0.4442
 5200TIP3    H237092   0.824   6.850   1.035 -0.2561 -2.0401 -1.8305
 5201TIP3   OH237093   5.903   6.783  10.249 -0.2852  0.4186  0.1645
 5201TIP3    H137094   5.914   6.692  10.219 -2.6985  0.1847 -0.0959
 5201TIP3    H237095   5.991   6.819  10.246  0.5010 -1.4752 -1.1926
 5202TIP3   OH237096   4.296   1.420  13.551  0.1823 -0.1769 -0.5247
 5202TIP3    H137097   4.210   1.393  13.585 -0.4368  3.0340  0.6395
 5202TIP3    H237098   4.358   1.390  13.618 -0.0085 -2.3616 -1.2890
 5203TIP3   OH237099   2.150   5.510  14.690  0.3889 -0.2748  0.3009
 5203TIP3    H137100   2.119   5.600  14.680  1.0936 -0.2937 -2.3829
 5203TIP3    H237101   2.170   5.502  14.783  1.2206  2.6555  0.4229
 5204TIP3   OH237102   2.481   5.169  11.595 -0.0024  0.4789  0.7866
 5204TIP3    H137103   2.516   5.216  11.671  3.4380  0.4249 -0.6563
 5204TIP3    H237104   2.462   5.238  11.531 -1.3626  0.4093  1.1159
 5205TIP3   OH237105   4.397   4.929  11.087  0.7539  0.1592  0.1073
 5205TIP3    H137106   4.433   4.915  10.999  1.7052  1.6358  0.2482
 5205TIP3    H237107   4.471   4.911  11.145 -0.1137 -1.6844  0.6699
 5206TIP3   OH237108   4.509   1.071  12.355 -0.2721 -0.2451  0.0859
 5206TIP3    H137109   4.601   1.090  12.334  0.0273 -0.1539  1.4334
 5206TIP3    H237110   4.471   1.157  12.375 -0.9102 -0.1663 -1.4532
 5207TIP3   OH237111   0.815   5.602  11.212  0.1207  0.2649  0.2520
 5207TIP3    H137112   0.754   5.529  11.223  0.5655 -0.1869 -0.2168
 5207TIP3    H237113   0.887   5.565  11.161  0.7964  0.7910  0.8267
 5208TIP3   OH237114   0.030   2.467   9.949 -0.1131  0.0677 -0.2018
 5208TIP3    H137115   0.063   2.554   9.927 -0.3951  0.3782  0.5782
 5208TIP3    H237116   0.039   2.416   9.868 -2.2507  1.5083 -1.3782
 5209TIP3   OH237117   0.724   5.499  12.727  0.1910  0.2467  0.2859
 5209TIP3    H137118   0.788   5.485  12.798 -0.7314 -0.7781  0.9277
 5209TIP3    H237119   0.698   5.591  12.736  0.1221  0.1406  1.2468
 5210TIP3   OH237120   0.632   5.334  11.638  0.3107 -0.1403 -0.4573
 5210TIP3    H137121   0.554   5.282  11.656  0.8014 -0.1376  1.8991
 5210TIP3    H237122   0.665   5.358  11.725  1.6139  1.8189 -1.4541
 5211TIP3   OH237123   5.808   6.531  13.245  0.1661 -0.8114  0.0224
 5211TIP3    H137124   5.763   6.532  13.330 -1.3560  1.1627 -0.7797
 5211TIP3    H237125   5.754   6.586  13.188  1.9224 -0.9655 -1.8522
 5212TIP3   OH237126   2.116   6.795  12.820 -0.0036  0.2353  0.6479
 5212TIP3    H137127   2.117   6.722  12.757  2.1134  1.0470 -0.2727
 5212TIP3    H237128   2.093   6.872  12.768  1.7210  0.9074  0.8629
 5213TIP3   OH237129   2.284   6.883  13.046  0.5516 -0.9467  0.1530
 5213TIP3    H137130   2.216   6.845  12.991  0.8518 -0.8785 -0.2644
 5213TIP3    H237131   2.265   6.850  13.134  0.1478 -1.1547 -0.0131
 5214TIP3   OH237132   1.092   1.001  11.435 -0.2225  0.0752 -0.6193
 5214TIP3    H137133   1.004   1.022  11.467 -0.3212 -1.0988 -0.0951
 5214TIP3    H237134   1.085   0.912  11.401  0.9431 -0.2941  0.0797
 5215TIP3   OH237135   1.747   5.621  13.259  0.3029 -0.3226  0.2684
 5215TIP3    H137136   1.753   5.529  13.232  1.1398  0.1613 -1.1963
 5215TIP3    H237137   1.708   5.617  13.347 -1.6294 -1.9507 -0.6196
 5216TIP3   OH237138   5.273   5.863  12.947  0.5657 -0.1036 -0.4525
 5216TIP3    H137139   5.296   5.897  12.861  0.4035  0.6050 -0.2224
 5216TIP3    H237140   5.272   5.940  13.004  1.7283 -0.7072  0.4127
 5217TIP3   OH237141   1.376   4.997  10.722  0.0579 -0.1028 -0.1694
 5217TIP3    H137142   1.436   4.959  10.658  0.4426  0.4074 -0.1154
 5217TIP3    H237143   1.430   5.060  10.771 -0.2927 -0.3089  0.4863
 5218TIP3   OH237144   1.883   6.570  12.617 -0.9106  0.0213 -0.4431
 5218TIP3    H137145   1.973   6.543  12.603 -0.2268  0.8448  2.0544
 5218TIP3    H237146   1.886   6.666  12.618 -1.3782  0.0423  2.0339
 5219TIP3   OH237147   3.876   4.393  12.571 -0.3095 -0.7068  0.6231
 5219TIP3    H137148   3.837   4.306  12.585  0.9673 -1.3084  0.4850
 5219TIP3    H237149   3.951   4.377  12.515  0.4357  0.3831  1.2840
 5220TIP3   OH237150   5.679   4.929  11.632  0.0596 -0.3412  0.2690
 5220TIP3    H137151   5.644   4.973  11.709 -1.1873  0.0855 -0.5216
 5220TIP3    H237152   5.773   4.924  11.648 -0.1580 -0.0874  1.7202
 5221TIP3   OH237153   0.008   1.904  13.141 -0.0401  0.2549 -0.1143
 5221TIP3    H137154  -0.055   1.839  13.172  2.3009 -1.2942  1.4944
 5221TIP3    H237155   0.002   1.975  13.205  0.7781 -0.4634  0.7618
 5222TIP3   OH237156   1.633   0.814  11.375 -0.4152  0.5068  0.3441
 5222TIP3    H137157   1.609   0.896  11.332 -0.9640 -0.5094 -1.3312
 5222TIP3    H237158   1.594   0.746  11.320  3.1492 -1.0509 -0.4084
 5223TIP3   OH237159   5.467   6.284  11.906  0.3193 -0.6533 -0.3845
 5223TIP3    H137160   5.478   6.265  11.813  1.2521  1.1455 -0.6815
 5223TIP3    H237161   5.416   6.211  11.940 -0.4072 -1.1178 -2.3990
 5224TIP3   OH237162   3.476   4.134  14.539  0.2600 -0.1841  0.1125
 5224TIP3    H137163   3.450   4.114  14.629 -1.1824 -0.3556 -0.3370
 5224TIP3    H237164   3.483   4.049  14.497 -1.4811  0.0074 -0.5937
 5225TIP3   OH237165   4.019   3.629  11.499 -0.1765 -0.4822  0.1423
 5225TIP3    H137166   4.105   3.671  11.505 -0.0972 -0.9368  2.3987
 5225TIP3    H237167   4.038   3.535  11.498 -0.7336 -0.7262  3.9900
 5226TIP3   OH237168   0.349   1.544  13.593 -0.7389  0.1951 -0.4917
 5226TIP3    H137169   0.326   1.478  13.528 -1.5909 -1.7445  1.7212
 5226TIP3    H237170   0.267   1.591  13.610 -0.9561 -0.5392  0.5311
 5227TIP3   OH237171   2.115   1.407  12.428 -0.4758 -0.1194 -0.2720
 5227TIP3    H137172   2.174   1.398  12.352 -1.4737 -1.4965 -0.9108
 5227TIP3    H237173   2.171   1.388  12.503  0.5074  1.1710 -0.6530
 5228TIP3   OH237174   2.061   1.261  10.599  0.4081 -0.0810  0.5181
 5228TIP3    H137175   2.049   1.171  10.629 -1.2648  0.6609  2.1893
 5228TIP3    H237176   2.131   1.296  10.655 -0.9010  0.4925  1.8474
 5229TIP3   OH237177   1.015   6.582   9.949 -0.3273  0.3183  0.2965
 5229TIP3    H137178   1.087   6.633   9.911 -0.9268  1.5950  0.8350
 5229TIP3    H237179   1.054   6.541  10.027  0.2919 -0.4641 -0.4129
 5230TIP3   OH237180   5.538   0.070  15.046  0.0971 -0.1749  0.3703
 5230TIP3    H137181   5.560   0.058  15.138  0.4242  0.7563  0.4148
 5230TIP3    H237182   5.454   0.115  15.047 -0.7276 -1.6736  0.2023
 5231TIP3   OH237183   6.221   4.050  12.037 -0.5900 -0.4136  0.1053
 5231TIP3    H137184   6.140   4.093  12.064 -0.2679  0.8314 -0.8814
 5231TIP3    H237185   6.271   4.118  11.992  1.2852 -0.9843  1.2328
 5232TIP3   OH237186   5.134   4.828  14.261  0.0617 -0.2419 -0.2500
 5232TIP3    H137187   5.119   4.753  14.318 -0.6277  1.4482  1.8451
 5232TIP3    H237188   5.223   4.856  14.282  0.2372 -0.2985 -0.8794
 5233TIP3   OH237189   2.182   4.101  11.062  0.0272  0.3771 -0.1086
 5233TIP3    H137190   2.197   4.188  11.026 -0.0703  0.2646 -0.4218
 5233TIP3    H237191   2.199   4.042  10.989  0.3345  0.1189  0.1700
 5234TIP3   OH237192   3.523   2.974  10.964 -0.2131 -0.4806  0.6085
 5234TIP3    H137193   3.562   2.945  10.882  1.3044  0.7922  0.8539
 5234TIP3    H237194   3.435   3.004  10.940  0.3820  0.2794 -0.6219
 5235TIP3   OH237195   4.295   3.390  12.845  0.6727 -0.4573 -0.0263
 5235TIP3    H137196   4.221   3.392  12.784  0.2809  1.0568  0.4669
 5235TIP3    H237197   4.372   3.404  12.790  0.3429  0.6273 -0.2369
 5236TIP3   OH237198   2.109   4.799  14.977 -0.3842 -0.4742 -0.4586
 5236TIP3    H137199   2.191   4.750  14.975 -0.0700 -0.0208  0.9749
 5236TIP3    H237200   2.059   4.760  15.048  0.0473  1.5223  0.9948
 5237TIP3   OH237201   0.386   6.595  12.410  0.0834  0.0266 -0.2468
 5237TIP3    H137202   0.450   6.537  12.451 -0.7243 -1.4398 -1.0112
 5237TIP3    H237203   0.303   6.574  12.453 -0.1197  0.9891 -0.1676
 5238TIP3   OH237204   6.659   3.253  11.789 -0.2710 -0.8160  0.6296
 5238TIP3    H137205   6.710   3.318  11.837  0.0684 -0.9066  0.4010
 5238TIP3    H237206   6.570   3.288  11.787 -0.2034 -0.6268  0.9861
 5239TIP3   OH237207   0.908   4.920  10.283  0.1208 -0.1967 -0.1825
 5239TIP3    H137208   0.909   4.824  10.286  1.1568 -0.2261 -1.2965
 5239TIP3    H237209   0.833   4.941  10.228 -1.4238 -0.2865  1.7937
 5240TIP3   OH237210   4.139   5.304  12.907  0.5001  0.0144  0.2950
 5240TIP3    H137211   4.155   5.382  12.961  2.7267 -0.4759  0.4010
 5240TIP3    H237212   4.050   5.277  12.929  0.2308  1.6809  1.3326
 5241TIP3   OH237213   0.267   5.188  10.725 -0.1577 -0.2615 -0.3083
 5241TIP3    H137214   0.347   5.210  10.677 -0.1355 -0.0836 -0.1887
 5241TIP3    H237215   0.215   5.138  10.663  0.2079 -0.6929 -0.2627
 5242TIP3   OH237216   5.648   3.860  12.274  0.1529 -0.3113  0.1307
 5242TIP3    H137217   5.711   3.813  12.329 -0.3369 -2.2068 -0.8605
 5242TIP3    H237218   5.563   3.829  12.304 -0.1087 -1.6590 -1.9042
 5243TIP3   OH237219   2.457   4.797   9.599  0.7726  0.0999  0.3362
 5243TIP3    H137220   2.370   4.774   9.632  1.8678 -1.2825  2.3598
 5243TIP3    H237221   2.440   4.858   9.527 -1.8316  0.5119  1.2471
 5244TIP3   OH237222   1.616   4.637  10.867  0.3947 -0.2054  0.5064
 5244TIP3    H137223   1.685   4.572  10.850 -0.9268 -1.2657 -0.9014
 5244TIP3    H237224   1.656   4.721  10.845  0.8259 -0.9319 -1.5327
 5245TIP3   OH237225   4.898   3.892  11.256 -0.0376 -0.1806  0.4024
 5245TIP3    H137226   4.988   3.862  11.243 -0.2096  0.2919 -2.1661
 5245TIP3    H237227   4.857   3.825  11.310  1.3501 -1.3413  0.0337
 5246TIP3   OH237228   1.757   3.352  10.179  0.1139 -0.9835 -0.0169
 5246TIP3    H137229   1.679   3.327  10.131  0.5668 -1.5774 -0.4419
 5246TIP3    H237230   1.825   3.292  10.149  0.7223 -0.5109  0.3904
 5247TIP3   OH237231   2.816   4.310  13.265  0.2375 -0.2939 -0.8793
 5247TIP3    H137232   2.837   4.399  13.293  2.6618 -0.5350 -1.8022
 5247TIP3    H237233   2.724   4.314  13.240 -0.1011  1.5656  0.5717
 5248TIP3   OH237234   1.443   3.024  11.504 -0.0509 -0.1427 -0.2946
 5248TIP3    H137235   1.412   2.949  11.556 -0.5734 -1.5509 -2.5799
 5248TIP3    H237236   1.364   3.073  11.484  0.1556  0.4104  0.2205
 5249TIP3   OH237237   0.597   2.872  15.529  0.0327  0.0807 -0.1958
 5249TIP3    H137238   0.516   2.824  15.545 -0.2378 -0.1532 -2.1073
 5249TIP3    H237239   0.664   2.804  15.526  0.0828  0.1231 -0.0167
 5250TIP3   OH237240   3.624   5.325  12.717  0.1451  0.5849 -0.2560
 5250TIP3    H137241   3.706   5.302  12.761  0.5276  0.5344 -0.9980
 5250TIP3    H237242   3.590   5.241  12.686  0.3571  0.7393 -0.9009
 5251TIP3   OH237243   3.102   6.143  11.960 -0.2460 -0.0395 -0.0765
 5251TIP3    H137244   3.097   6.075  11.893  1.9314 -0.0467 -0.2651
 5251TIP3    H237245   3.171   6.202  11.929 -0.6373  1.0768  1.1441
 5252TIP3   OH237246   3.373   6.884  13.652  0.3071 -0.4930 -0.2343
 5252TIP3    H137247   3.318   6.937  13.595 -2.3150 -2.5133  0.3231
 5252TIP3    H237248   3.438   6.846  13.594  1.2113  1.9560 -0.9002
 5253TIP3   OH237249   5.559   2.639  11.393 -0.5415  0.1969  0.2930
 5253TIP3    H137250   5.652   2.615  11.393 -0.5050  0.2986 -0.6071
 5253TIP3    H237251   5.533   2.634  11.485  0.3857  0.2876  0.5695
 5254TIP3   OH237252   7.075   3.697  12.002  0.1556 -0.8298 -0.2309
 5254TIP3    H137253   7.011   3.669  12.068  1.6913  0.6674  1.9331
 5254TIP3    H237254   7.097   3.787  12.026  2.2553 -0.9436 -1.6142
 5255TIP3   OH237255   6.136   2.304  10.469 -0.2719 -0.0822  0.3382
 5255TIP3    H137256   6.121   2.357  10.391 -0.4166 -1.2818 -0.4462
 5255TIP3    H237257   6.077   2.342  10.535 -0.6717  0.4759 -0.3351
 5256TIP3   OH237258   4.155   1.917  13.839 -0.0634 -0.4458  0.0397
 5256TIP3    H137259   4.086   1.974  13.806  2.5673  3.3080  0.6607
 5256TIP3    H237260   4.201   1.886  13.761 -0.1235  0.1115 -0.2129
 5257TIP3   OH237261   7.023   1.610  12.664 -0.0971  0.3931 -0.2083
 5257TIP3    H137262   7.107   1.594  12.706 -0.2706  0.4707  0.1729
 5257TIP3    H237263   6.965   1.637  12.735 -0.9021 -1.3412 -0.1634
 5258TIP3   OH237264   5.001   1.259  12.900  0.0572 -0.1046  0.3947
 5258TIP3    H137265   5.016   1.298  12.986  3.1236 -1.8287  0.6846
 5258TIP3    H237266   5.064   1.303  12.842 -0.5533 -0.4509 -0.5534
 5259TIP3   OH237267   3.474   5.875  10.416 -0.2808 -0.3917  0.0979
 5259TIP3    H137268   3.533   5.929  10.470 -0.3116 -1.2423  0.9971
 5259TIP3    H237269   3.489   5.905  10.327  0.4061  0.4479  0.4858
 5260TIP3   OH237270   4.804   1.872  11.202  0.1863  0.0923 -0.4419
 5260TIP3    H137271   4.839   1.930  11.270  0.5368 -0.5985 -0.0304
 5260TIP3    H237272   4.710   1.889  11.202  0.1406 -0.1392  0.4455
 5261TIP3   OH237273   6.811   6.722  11.393 -0.7259 -0.1469 -0.2289
 5261TIP3    H137274   6.883   6.781  11.415 -0.3115 -0.7766  0.0829
 5261TIP3    H237275   6.772   6.761  11.314 -1.6559  1.6137  1.0513
 5262TIP3   OH237276   4.653   0.429  11.960 -0.0275 -0.0314 -0.0027
 5262TIP3    H137277   4.748   0.417  11.957 -0.0319  0.2625 -1.7488
 5262TIP3    H237278   4.618   0.360  11.904 -0.6819  1.4490 -1.4395
 5263TIP3   OH237279   4.023   3.764  10.065 -0.0913  0.2989 -0.2412
 5263TIP3    H137280   4.067   3.792  10.145  0.5267 -0.1152 -0.4292
 5263TIP3    H237281   3.931   3.784  10.079  0.2458  1.8505 -0.1146
 5264TIP3   OH237282   1.949   5.021  12.250  0.1955 -0.4740 -0.5591
 5264TIP3    H137283   1.973   5.112  12.270 -0.7400 -0.3387 -0.0087
 5264TIP3    H237284   2.027   4.971  12.272  0.5782  0.1509 -0.4661
 5265TIP3   OH237285   4.096   5.282  12.115  0.1382 -0.2993  0.2480
 5265TIP3    H137286   4.011   5.264  12.074 -1.3383  0.1264  2.9907
 5265TIP3    H237287   4.113   5.205  12.169 -0.9656  1.6983  3.5724
 5266TIP3   OH237288   6.581   5.476  10.643 -0.1231 -0.3392  0.3599
 5266TIP3    H137289   6.613   5.564  10.623  1.2426 -0.5948  1.3442
 5266TIP3    H237290   6.542   5.485  10.730 -1.0174 -0.4539 -0.0307
 5267TIP3   OH237291   3.572   0.908  13.805 -0.5080  0.2700  0.2201
 5267TIP3    H137292   3.593   0.821  13.841  1.0194 -0.0568 -1.3799
 5267TIP3    H237293   3.613   0.970  13.866  0.0308 -0.1933  0.3344
 5268TIP3   OH237294   2.286   2.268   9.476 -0.2262  0.2915 -0.3603
 5268TIP3    H137295   2.318   2.350   9.441 -1.9430  1.9444  1.8117
 5268TIP3    H237296   2.221   2.238   9.413 -0.3082  1.0974 -0.6543
 5269TIP3   OH237297   2.921   4.218   9.754  0.0715  0.0776 -0.2592
 5269TIP3    H137298   2.880   4.148   9.805  0.8209 -0.1855 -0.0148
 5269TIP3    H237299   2.938   4.288   9.818 -0.4097  0.3707 -0.4474
 5270TIP3   OH237300   3.801   6.565  11.078  0.0774 -0.0074  0.6115
 5270TIP3    H137301   3.824   6.472  11.067 -0.2611 -0.1021  0.6841
 5270TIP3    H237302   3.877   6.613  11.046  1.0797 -0.3365  2.4314
 5271TIP3   OH237303   1.672   6.997  11.954 -0.2253 -0.0930 -0.3542
 5271TIP3    H137304   1.741   7.018  11.890 -0.1874  1.4590  0.1729
 5271TIP3    H237305   1.592   6.991  11.902  0.0241 -0.1430 -0.7337
 5272TIP3   OH237306   0.265   3.902  12.188 -0.1822  0.2265 -0.3823
 5272TIP3    H137307   0.306   3.988  12.184  1.2106 -0.3990  0.0595
 5272TIP3    H237308   0.272   3.876  12.280 -1.7703  0.1876 -0.2541
 5273TIP3   OH237309   4.864   5.260  10.727 -0.4830 -0.1584 -0.4293
 5273TIP3    H137310   4.811   5.247  10.648 -1.1848  0.8093 -0.1277
 5273TIP3    H237311   4.915   5.339  10.709  0.5108 -0.8170 -0.5283
 5274TIP3   OH237312   5.451   6.040   2.034 -0.0082  0.6048  0.3736
 5274TIP3    H137313   5.436   5.967   2.094  0.0309 -0.1892 -0.5644
 5274TIP3    H237314   5.375   6.040   1.976  1.2288 -0.3612 -1.2995
 5275TIP3   OH237315   3.318   0.539  11.435 -0.3620 -0.2451  0.0228
 5275TIP3    H137316   3.251   0.518  11.370  1.4106  1.4369 -2.4222
 5275TIP3    H237317   3.296   0.627  11.466  0.4866  0.1642 -0.5130
 5276TIP3   OH237318   0.370   6.228  14.227  0.3022  0.1185 -0.3364
 5276TIP3    H137319   0.328   6.230  14.141  0.2431  1.6700 -0.2818
 5276TIP3    H237320   0.406   6.316  14.238  1.6816 -0.5355  0.5491
 5277TIP3   OH237321   1.890   5.148  11.365 -0.4983 -0.5926  0.0011
 5277TIP3    H137322   1.934   5.087  11.424  0.0521  0.9822  1.2313
 5277TIP3    H237323   1.960   5.200  11.327 -0.9154 -1.1059 -1.5141
 5278TIP3   OH237324   6.880   1.690   0.619 -0.0647  0.2023 -0.9743
 5278TIP3    H137325   6.948   1.635   0.581  1.2261 -0.0120  1.5292
 5278TIP3    H237326   6.825   1.628   0.668 -0.6932  0.6809 -1.0736
 5279TIP3   OH237327   4.760   7.190   0.779  0.1037  0.0162  0.6569
 5279TIP3    H137328   4.780   7.269   0.827 -1.0813  2.1382 -2.1869
 5279TIP3    H237329   4.667   7.173   0.796 -0.7378  1.6550 -1.9439
 5280TIP3   OH237330   1.939   3.623  13.335  0.2393 -0.1220  0.2344
 5280TIP3    H137331   1.924   3.529  13.340  0.6673 -0.1915  0.2348
 5280TIP3    H237332   1.978   3.637  13.248 -1.7722  0.3289 -0.6430
 5281TIP3   OH237333   1.710   2.674  12.513 -0.8491 -0.1610  0.0748
 5281TIP3    H137334   1.697   2.762  12.476 -2.1257  0.3998  1.7657
 5281TIP3    H237335   1.802   2.655  12.496 -1.1699  0.4095 -2.5780
 5282TIP3   OH237336   2.596   5.238  11.820 -0.4708 -0.5205 -0.1528
 5282TIP3    H137337   2.620   5.310  11.879  1.6080 -0.9265 -0.4659
 5282TIP3    H237338   2.627   5.159  11.864  1.6407 -0.7830 -2.0353
 5283TIP3   OH237339   5.063   0.688  12.716  0.0912  0.0319  0.6696
 5283TIP3    H137340   5.150   0.696  12.678  0.0671  1.6774  0.9116
 5283TIP3    H237341   5.043   0.776  12.749 -1.7610 -0.2574  0.3925
 5284TIP3   OH237342   4.237   2.357   0.030 -0.2082 -0.0317 -0.1555
 5284TIP3    H137343   4.177   2.336   0.101 -1.6912 -0.5420 -1.5349
 5284TIP3    H237344   4.323   2.330   0.062 -0.9415 -0.7966  1.2075
 5285TIP3   OH237345   4.348   1.149  11.534  0.2272  0.0077 -0.4063
 5285TIP3    H137346   4.278   1.099  11.492  0.2222  0.4839 -0.9828
 5285TIP3    H237347   4.303   1.209  11.593  0.2363 -0.6986  0.3244
 5286TIP3   OH237348   4.192   6.449  11.791  0.4774  0.1088 -0.4080
 5286TIP3    H137349   4.121   6.389  11.813  0.6322  0.0138 -0.1718
 5286TIP3    H237350   4.265   6.392  11.766  0.9809  0.1737  0.8976
 5287TIP3   OH237351   0.918   6.083   0.735  0.6585 -0.1439 -0.0856
 5287TIP3    H137352   0.893   6.176   0.730  0.1587 -0.1751  1.3632
 5287TIP3    H237353   0.862   6.040   0.670 -0.5870  0.2992  0.6586
 5288TIP3   OH237354   2.799   6.129  13.066 -0.0471 -0.1987  0.4834
 5288TIP3    H137355   2.883   6.101  13.031  0.2519  1.2450  0.0113
 5288TIP3    H237356   2.820   6.200  13.127 -0.9014  0.0840  0.4588
 5289TIP3   OH237357   6.077   2.535  14.782  0.3161 -0.0066 -0.1902
 5289TIP3    H137358   6.079   2.446  14.745  0.7053 -0.0853  0.0176
 5289TIP3    H237359   6.139   2.584  14.728 -1.0631  0.5457 -1.3175
 5290TIP3   OH237360   3.733   3.456  11.734  0.6699  0.0339  0.1388
 5290TIP3    H137361   3.730   3.363  11.756  1.9748  0.2725  1.3661
 5290TIP3    H237362   3.777   3.460  11.650  2.2561 -0.3259  0.9477
 5291TIP3   OH237363   6.948   6.817  15.432 -0.3050  0.2700 -0.2465
 5291TIP3    H137364   7.000   6.834  15.353  0.1401  0.5073  0.0971
 5291TIP3    H237365   7.003   6.760  15.485  0.1519  1.5625  0.6902
 5292TIP3   OH237366   3.256   3.702  10.081  0.2893 -0.5637  0.4349
 5292TIP3    H137367   3.208   3.785  10.088  0.7350 -0.4187  1.8880
 5292TIP3    H237368   3.348   3.727  10.087  0.5841 -0.8311 -2.4360
 5293TIP3   OH237369   3.073   5.447  13.050  0.0004  0.7308 -0.4345
 5293TIP3    H137370   3.028   5.459  13.134 -1.0541  0.0252 -0.8806
 5293TIP3    H237371   3.158   5.411  13.073  0.4097  2.2318  0.4392
 5294TIP3   OH237372   2.694   6.423  13.248  0.3111 -0.2923 -0.2119
 5294TIP3    H137373   2.642   6.496  13.282  0.6618 -0.0955 -0.0995
 5294TIP3    H237374   2.649   6.397  13.168 -0.1830 -0.3716  0.0856
 5295TIP3   OH237375   0.584   5.595  13.418  0.5328  0.6536 -0.0365
 5295TIP3    H137376   0.554   5.517  13.465  1.1342  0.7860  0.5849
 5295TIP3    H237377   0.613   5.655  13.487 -2.0814  2.3814 -0.3514
 5296TIP3   OH237378   0.188   5.284  11.463  0.6296  0.0785 -0.1568
 5296TIP3    H137379   0.211   5.346  11.532 -0.9526 -1.7014  2.0488
 5296TIP3    H237380   0.095   5.300  11.446  1.0805  0.7413 -2.1836
 5297TIP3   OH237381   0.381   3.850  10.060  0.5362  0.2865 -0.4850
 5297TIP3    H137382   0.288   3.827  10.060  0.5770  0.0952 -1.3704
 5297TIP3    H237383   0.413   3.821   9.975  1.1836  1.2640 -0.5882
 5298TIP3   OH237384   6.756   6.887  13.286  0.3605  0.3506 -0.1835
 5298TIP3    H137385   6.700   6.924  13.218 -0.8693  0.0742  0.6585
 5298TIP3    H237386   6.699   6.826  13.333  1.5774 -0.4982  0.2193
 5299TIP3   OH237387   1.543   2.260  11.897 -0.4945  0.1322 -0.0514
 5299TIP3    H137388   1.566   2.181  11.947  0.9694  0.5127 -0.0847
 5299TIP3    H237389   1.537   2.231  11.806 -1.1565 -0.1672  0.0834
 5300TIP3   OH237390   2.569   0.430  10.698 -0.1822 -0.2537  0.0995
 5300TIP3    H137391   2.485   0.397  10.666 -0.6379  0.6477  0.3453
 5300TIP3    H237392   2.633   0.365  10.668 -0.9571 -0.9372 -0.1096
 5301TIP3   OH237393   1.208   5.246  12.226  0.3816 -0.0453  0.6426
 5301TIP3    H137394   1.264   5.187  12.176 -0.4575 -0.4469  0.1727
 5301TIP3    H237395   1.157   5.189  12.284  1.2824  0.4077  1.9227
 5302TIP3   OH237396   1.868   0.412  11.384 -0.3221 -0.0915 -0.4764
 5302TIP3    H137397   1.897   0.372  11.302 -1.6709 -0.0535 -0.9834
 5302TIP3    H237398   1.785   0.369  11.404 -0.6117  0.7811  0.2172
 5303TIP3   OH237399   6.665   5.864  13.174 -0.2500 -0.1412 -0.2069
 5303TIP3    H137400   6.637   5.819  13.094 -0.3242 -0.1436 -0.1789
 5303TIP3    H237401   6.737   5.811  13.208 -0.5523 -0.4168  0.0014
 5304TIP3   OH237402   4.484   0.661  11.261 -0.0660 -0.1424 -0.1121
 5304TIP3    H137403   4.483   0.756  11.264 -0.2903 -0.0799 -1.5353
 5304TIP3    H237404   4.409   0.634  11.315  0.1758  0.4741  0.5335
 5305TIP3   OH237405   5.163   0.844  15.265  0.0952  0.6305  0.3770
 5305TIP3    H137406   5.147   0.772  15.327 -1.0747  0.7506  0.2222
 5305TIP3    H237407   5.186   0.800  15.183  1.0689  0.4614  0.7365
 5306TIP3   OH237408   3.415   2.590  14.120 -0.6104 -0.1796 -0.0943
 5306TIP3    H137409   3.409   2.528  14.193 -1.4560  1.2607  1.0876
 5306TIP3    H237410   3.438   2.673  14.161  0.5528  0.2954 -1.6671
 5307TIP3   OH237411   3.572   3.210  11.539  0.2244 -0.0173 -0.6453
 5307TIP3    H137412   3.626   3.283  11.509 -0.0458 -0.2827 -1.8051
 5307TIP3    H237413   3.512   3.193  11.466  1.8977 -2.9724 -1.4641
 5308TIP3   OH237414   2.302   0.933  10.719 -0.2493 -0.1351 -0.1246
 5308TIP3    H137415   2.281   0.945  10.627  1.4237 -0.5335 -0.5725
 5308TIP3    H237416   2.395   0.954  10.725 -0.2563 -0.4899  1.4026
 5309TIP3   OH237417   1.557   5.142   9.736  0.2981 -0.5113  0.2446
 5309TIP3    H137418   1.547   5.235   9.754 -0.3943 -0.7940  1.2830
 5309TIP3    H237419   1.544   5.135   9.641  3.2481  0.8491 -0.3349
 5310TIP3   OH237420   3.686   5.839  12.509  0.3979 -0.0274  0.0907
 5310TIP3    H137421   3.686   5.748  12.536 -2.5170  0.0288  0.4671
 5310TIP3    H237422   3.708   5.836  12.415 -1.5308 -1.3257 -0.3565
 5311TIP3   OH237423   5.922   4.242  13.176 -0.2848  0.7792 -0.5529
 5311TIP3    H137424   6.004   4.206  13.208  0.6598  2.5044 -0.9395
 5311TIP3    H237425   5.877   4.273  13.255 -0.6051 -0.2679 -0.3309
 5312TIP3   OH237426   3.581   0.271  13.129 -0.9776 -0.4203  0.0617
 5312TIP3    H137427   3.538   0.329  13.067 -2.5814  0.5895  2.0383
 5312TIP3    H237428   3.594   0.325  13.207  1.7640 -1.4058  0.3446
 5313TIP3   OH237429   2.437   5.985  12.105 -0.5171 -1.1034  0.0000
 5313TIP3    H137430   2.436   6.043  12.182  0.3113  1.1037 -1.6056
 5313TIP3    H237431   2.354   6.002  12.061 -0.3897 -1.3267 -0.3290
 5314TIP3   OH237432   0.175   2.552  11.333 -0.3720 -0.2023 -0.1564
 5314TIP3    H137433   0.126   2.554  11.415 -1.4673  0.0476 -0.8141
 5314TIP3    H237434   0.266   2.540  11.360 -0.6271  0.7150  1.1341
 5315TIP3   OH237435   5.666   4.781  12.415  0.5607  0.0806  0.3305
 5315TIP3    H137436   5.760   4.765  12.420  0.2512 -2.8118 -1.8758
 5315TIP3    H237437   5.642   4.755  12.326 -2.2877  0.9759  0.7971
 5316TIP3   OH237438   6.515   5.141   0.251 -0.3664  0.0219  0.0206
 5316TIP3    H137439   6.582   5.191   0.298 -0.2293 -0.7702  0.6870
 5316TIP3    H237440   6.432   5.169   0.291 -0.2730 -0.4410  0.5352
 5317TIP3   OH237441   0.976   1.385  12.795  0.3200  0.1087  0.5320
 5317TIP3    H137442   1.060   1.352  12.827  0.3728 -0.0953  0.1798
 5317TIP3    H237443   0.951   1.324  12.725 -0.3604 -0.1208  0.9694
 5318TIP3   OH237444   5.997   4.560  13.032 -0.1099  0.1344 -0.3431
 5318TIP3    H137445   5.967   4.560  13.123 -0.6046  1.3944 -0.4994
 5318TIP3    H237446   6.010   4.652  13.010  1.8383 -0.2558 -0.9712
 5319TIP3   OH237447   1.359   5.775   9.927  0.3716  0.1328  0.2222
 5319TIP3    H137448   1.359   5.759   9.833 -0.5817 -0.0677  0.2452
 5319TIP3    H237449   1.269   5.755   9.954 -0.0061  2.4443  0.7850
 5320TIP3   OH237450   6.532   4.704   1.354 -0.0203  0.3134  0.1960
 5320TIP3    H137451   6.484   4.634   1.399  0.4823  0.3690  0.8361
 5320TIP3    H237452   6.591   4.658   1.295  0.2632  0.1993  0.5680
 5321TIP3   OH237453   1.346   4.527   9.774  1.3532  0.3086  0.1755
 5321TIP3    H137454   1.319   4.455   9.717  2.3489  0.1109 -0.0482
 5321TIP3    H237455   1.417   4.569   9.727  2.2969  0.0360  1.3526
 5322TIP3   OH237456   5.456   3.199  12.866  0.0787 -0.2415 -0.4105
 5322TIP3    H137457   5.419   3.239  12.945 -0.1747  0.8966 -1.1002
 5322TIP3    H237458   5.395   3.220  12.796 -0.4529 -2.5041 -0.6671
 5323TIP3   OH237459   5.338   4.398  12.294  0.5060  0.0163  0.3685
 5323TIP3    H137460   5.369   4.344  12.367  1.1627  1.0513  0.8555
 5323TIP3    H237461   5.280   4.340  12.244  1.5773 -1.2808  0.6243
 5324TIP3   OH237462   4.862   4.357  10.700 -0.3241  0.5253 -0.2779
 5324TIP3    H137463   4.918   4.300  10.753  0.3210  0.1593 -1.3407
 5324TIP3    H237464   4.777   4.312  10.699 -0.2982  0.4539  0.3048
 5325TIP3   OH237465   4.221   5.362  14.453  0.3265  0.5266 -0.0901
 5325TIP3    H137466   4.238   5.314  14.534  0.2574  2.7647  1.3156
 5325TIP3    H237467   4.145   5.318  14.414  0.9406 -1.1529  0.5717
 5326TIP3   OH237468   4.614   7.038  12.474 -0.4676  0.1043 -0.0032
 5326TIP3    H137469   4.641   7.129  12.467 -2.4226  0.7083  0.0507
 5326TIP3    H237470   4.657   6.995  12.400 -0.3724  1.2676 -0.6365
 5327TIP3   OH237471   4.551   3.865  10.093  0.1939 -0.8452 -0.0930
 5327TIP3    H137472   4.482   3.917  10.135  0.2915 -0.2826 -0.6137
 5327TIP3    H237473   4.504   3.807  10.033  0.2276  0.3604 -1.3258
 5328TIP3   OH237474   5.389   5.822  11.752 -0.5202 -0.3119  0.5055
 5328TIP3    H137475   5.391   5.733  11.788  1.6628 -1.2734 -1.8365
 5328TIP3    H237476   5.415   5.812  11.660 -1.4507  2.6153 -0.1506
 5329TIP3   OH237477   5.354   5.800  13.475 -0.3660  0.3283 -0.0615
 5329TIP3    H137478   5.343   5.705  13.481 -1.5019  0.3551 -1.4373
 5329TIP3    H237479   5.444   5.811  13.445 -0.0940 -0.2926  0.4904
 5330TIP3   OH237480   6.933   1.465  10.341  0.1695 -0.2281 -0.0129
 5330TIP3    H137481   6.897   1.390  10.295  1.1926 -0.7593  0.0372
 5330TIP3    H237482   6.928   1.442  10.433  2.3425 -1.1044 -0.0886
 5331TIP3   OH237483   0.019   4.203  10.987  0.3375 -0.3407  0.5527
 5331TIP3    H137484   0.027   4.247  10.902 -0.4220 -1.1883  0.0240
 5331TIP3    H237485   0.107   4.203  11.022  0.4026  1.3440  0.4393
 5332TIP3   OH237486   3.340   6.185  12.905  0.7386 -0.6429 -0.5249
 5332TIP3    H137487   3.377   6.097  12.893  2.6106  0.0307  0.1695
 5332TIP3    H237488   3.408   6.245  12.875 -1.2609  0.5731 -2.8050
 5333TIP3   OH237489   6.713   6.181  10.790 -0.0005  0.1116  0.4296
 5333TIP3    H137490   6.747   6.248  10.849 -0.6471 -0.1244  1.0621
 5333TIP3    H237491   6.640   6.223  10.745  0.2790  0.1813  0.0378
 5334TIP3   OH237492   3.158   7.174  10.310  0.0042  0.5560 -0.5377
 5334TIP3    H137493   3.244   7.146  10.280 -0.5830  1.1241 -2.8141
 5334TIP3    H237494   3.153   7.267  10.286 -0.9765  0.7065  0.2004
 5335TIP3   OH237495   4.209   3.926  11.850  0.0766 -0.5280  0.2700
 5335TIP3    H137496   4.197   4.021  11.842 -1.0990 -0.4799  2.2896
 5335TIP3    H237497   4.295   3.909  11.811  1.4290  1.7234  2.1828
 5336TIP3   OH237498   3.480   5.759  11.460  0.2560  0.4004 -1.1071
 5336TIP3    H137499   3.428   5.767  11.380 -0.0956 -0.4425 -0.9780
 5336TIP3    H237500   3.424   5.709  11.520  0.5701  0.9088 -0.3857
 5337TIP3   OH237501   3.375   5.928   0.031  0.0252 -0.5867  0.5402
 5337TIP3    H137502   3.399   5.899  -0.057 -2.0424  0.4337 -0.3953
 5337TIP3    H237503   3.434   6.001   0.049  1.1713 -1.4656  0.4690
 5338TIP3   OH237504   4.460   5.145  10.219  0.1228  0.2661  0.0413
 5338TIP3    H137505   4.472   5.201  10.296 -0.0151  0.4429 -0.0639
 5338TIP3    H237506   4.491   5.198  10.146  1.7560 -0.5037  0.1650
 5339TIP3   OH237507   1.585   4.227  15.270  0.0837  0.4044 -0.2201
 5339TIP3    H137508   1.551   4.305  15.225 -0.8159  0.4143  0.4673
 5339TIP3    H237509   1.542   4.154  15.226 -1.4107  0.4517  1.1280
 5340TIP3   OH237510   4.844   1.139  10.432  0.0424  0.3861 -0.1854
 5340TIP3    H137511   4.858   1.068  10.495  2.0025 -0.1719 -1.1848
 5340TIP3    H237512   4.856   1.219  10.483 -4.4434  0.1186  1.4652
 5341TIP3   OH237513   5.627   5.847  13.460  0.4961 -0.1443  0.1424
 5341TIP3    H137514   5.713   5.808  13.474 -0.3389 -1.4523  1.8211
 5341TIP3    H237515   5.639   5.906  13.385  2.8037 -0.3869  0.2919
 5342TIP3   OH237516   7.172   5.924  14.836 -0.2774  0.2116 -0.2555
 5342TIP3    H137517   7.189   5.892  14.925 -0.4730 -0.1470 -0.3452
 5342TIP3    H237518   7.212   5.859  14.779 -1.2143 -0.2022 -0.4518
 5343TIP3   OH237519   4.695   4.580  14.305 -0.2573  0.2425 -0.1944
 5343TIP3    H137520   4.709   4.673  14.288 -1.9458  0.4657 -0.4741
 5343TIP3    H237521   4.748   4.535  14.238 -0.4599  1.0133 -0.8771
 5344TIP3   OH237522   4.405   5.053  10.533 -0.2906  0.0028  0.2037
 5344TIP3    H137523   4.500   5.039  10.530  0.1126  1.5155  4.1033
 5344TIP3    H237524   4.391   5.129  10.477  0.6050 -1.0177 -1.4540
 5345TIP3   OH237525   2.245   5.167  12.179 -0.5415  0.0645 -0.2485
 5345TIP3    H137526   2.202   5.161  12.093  1.5238  0.6588 -1.3523
 5345TIP3    H237527   2.182   5.215  12.233 -1.9216 -0.4073 -1.3807
 5346TIP3   OH237528   5.208   6.371  10.799 -0.1817  0.2625 -0.0283
 5346TIP3    H137529   5.297   6.336  10.788 -0.3502  0.0184 -0.6075
 5346TIP3    H237530   5.175   6.326  10.877  0.0053 -0.0494 -0.1254
 5347TIP3   OH237531   6.423   4.909  15.264 -0.1228 -0.7546  0.2829
 5347TIP3    H137532   6.453   4.901  15.173 -1.4058  1.2184 -0.3578
 5347TIP3    H237533   6.327   4.904  15.257 -0.2886  0.5923  1.3608
 5348TIP3   OH237534   4.254   3.318  10.479  0.6189  0.0570 -0.2719
 5348TIP3    H137535   4.233   3.249  10.543  1.7699 -1.6407 -1.6863
 5348TIP3    H237536   4.287   3.390  10.532 -0.3355 -0.5604  1.2132
 5349TIP3   OH237537   1.718   2.609  10.770 -0.1874  0.6019  0.0466
 5349TIP3    H137538   1.715   2.688  10.823  0.1499 -0.0938  1.1197
 5349TIP3    H237539   1.632   2.569  10.781 -1.2390  2.0551 -2.4546
 5350TIP3   OH237540   6.549   6.922   1.317 -0.4351 -0.6663 -0.4731
 5350TIP3    H137541   6.477   6.925   1.380 -0.2114  0.0424 -0.2411
 5350TIP3    H237542   6.519   6.863   1.248 -0.6227 -1.5665  0.3706
 5351TIP3   OH237543   1.164   4.274  13.540  0.1955 -0.1171 -0.8797
 5351TIP3    H137544   1.106   4.270  13.463  1.1505 -1.9023 -1.5502
 5351TIP3    H237545   1.215   4.193  13.535 -1.2166 -1.3472  2.8380
 5352TIP3   OH237546   4.604   7.016  10.504  0.1095 -0.0147  0.2970
 5352TIP3    H137547   4.564   7.070  10.436 -0.5420 -0.5071  0.2752
 5352TIP3    H237548   4.572   6.927  10.485 -0.6823 -0.0374  1.6733
 5353TIP3   OH237549   3.244   2.255  14.036 -0.2649 -0.3425  0.7494
 5353TIP3    H137550   3.277   2.187  14.095  0.2199 -0.6569  0.1272
 5353TIP3    H237551   3.310   2.324  14.039 -0.1899 -0.4013  0.5067
 5354TIP3   OH237552   2.885   1.923  12.375 -0.3184 -0.5431 -0.2319
 5354TIP3    H137553   2.909   2.001  12.424 -1.3600 -0.0646 -0.4648
 5354TIP3    H237554   2.797   1.942  12.340  0.5474 -0.7151 -2.6192
 5355TIP3   OH237555   5.578   4.794  13.253 -0.4749  0.1710 -0.1173
 5355TIP3    H137556   5.547   4.784  13.163 -0.2694  0.2359 -0.1973
 5355TIP3    H237557   5.569   4.707  13.292  0.0335 -0.0065 -0.3929
 5356TIP3   OH237558   4.660   6.186  11.467  0.0050 -0.4717 -0.1511
 5356TIP3    H137559   4.696   6.243  11.399 -0.4721  1.5552  1.2634
 5356TIP3    H237560   4.578   6.154  11.430 -0.3827  0.8278 -0.4525
 5357TIP3   OH237561   5.198   4.085   1.990 -0.0285 -0.3813  0.3183
 5357TIP3    H137562   5.180   4.065   2.082 -1.2589 -0.5880  0.0396
 5357TIP3    H237563   5.113   4.077   1.947  0.7284 -1.2850 -1.0217
 5358TIP3   OH237564   5.119   6.612  10.779  0.2585  0.0114 -0.2325
 5358TIP3    H137565   5.193   6.553  10.773 -0.9328 -1.4409 -0.9383
 5358TIP3    H237566   5.046   6.556  10.805 -0.7295  1.3082 -0.1574
 5359TIP3   OH237567   2.279   5.450  14.453 -0.4472  0.7284 -0.6613
 5359TIP3    H137568   2.198   5.407  14.428  0.6533 -1.4973 -0.4694
 5359TIP3    H237569   2.256   5.499  14.532 -1.7151  0.5713 -0.9183
 5360TIP3   OH237570   6.200   5.439  14.858 -0.9547  0.6497 -0.2652
 5360TIP3    H137571   6.206   5.535  14.854 -0.5131  0.5788 -1.3961
 5360TIP3    H237572   6.287   5.411  14.887 -1.4738  0.6538  1.3394
 5361TIP3   OH237573   6.916   0.993  10.779  0.1575 -0.3246 -0.3654
 5361TIP3    H137574   6.972   0.996  10.856  0.0448 -0.9886 -0.2524
 5361TIP3    H237575   6.827   0.992  10.814  0.0419  1.5274 -0.5640
 5362TIP3   OH237576   1.255   4.012  11.504  0.6484  0.4833  0.0990
 5362TIP3    H137577   1.290   4.083  11.557  1.6319  0.6360 -0.7477
 5362TIP3    H237578   1.259   4.044  11.414 -0.0028 -0.1873 -0.1739
 5363TIP3   OH237579   4.393   0.530  11.478 -0.1432 -0.1646 -0.2060
 5363TIP3    H137580   4.409   0.458  11.417 -0.7792 -1.7555  1.4656
 5363TIP3    H237581   4.461   0.521  11.544  0.0222  1.0258 -0.2018
 5364TIP3   OH237582   6.802   4.592  11.393 -0.2467 -0.1587  0.0340
 5364TIP3    H137583   6.777   4.671  11.345  1.7514  0.5900  0.1496
 5364TIP3    H237584   6.782   4.520  11.334 -1.6001  0.4790 -0.2883
 5365TIP3   OH237585   6.326   0.138  10.616 -0.0288 -0.8730 -0.2880
 5365TIP3    H137586   6.290   0.050  10.608  1.3855 -1.5264  0.3793
 5365TIP3    H237587   6.418   0.124  10.639  0.0879  0.7797  0.2777
 5366TIP3   OH237588   4.623   4.233  10.647 -0.1429  0.3095 -0.1309
 5366TIP3    H137589   4.579   4.285  10.580  1.0646  0.0911 -1.1379
 5366TIP3    H237590   4.553   4.198  10.702 -1.1579  0.5426 -1.2625
 5367TIP3   OH237591   1.301   6.977  12.243 -0.2191 -0.1343  0.3006
 5367TIP3    H137592   1.378   6.960  12.190 -0.3873 -0.0731  0.0338
 5367TIP3    H237593   1.263   6.890  12.258 -0.1021 -0.1633  0.4247
 5368TIP3   OH237594   5.387   1.477  10.401  0.2670  0.0179  0.7274
 5368TIP3    H137595   5.387   1.572  10.389 -1.2525  0.1863  1.8946
 5368TIP3    H237596   5.376   1.465  10.495  1.9949 -1.3108  0.7772
 5369TIP3   OH237597   7.078   2.550  14.145  0.5367 -0.1413 -0.3060
 5369TIP3    H137598   7.026   2.630  14.144 -0.0900 -0.5469 -0.2529
 5369TIP3    H237599   7.099   2.534  14.053  2.0836  0.9958 -0.1784
 5370TIP3   OH237600   2.722   4.792  12.614  0.5021  0.0782  0.3714
 5370TIP3    H137601   2.766   4.711  12.638  0.3794  0.0262  0.4219
 5370TIP3    H237602   2.792   4.857  12.610  0.3450  0.3959  2.2098
 5371TIP3   OH237603   0.347   4.610  14.630 -0.0749 -0.3256 -0.1860
 5371TIP3    H137604   0.367   4.519  14.651  1.0483  0.1524  0.9018
 5371TIP3    H237605   0.305   4.644  14.708  1.6712  0.7308  0.3314
 5372TIP3   OH237606   0.493   1.823  12.947 -0.4743 -0.8009 -0.2426
 5372TIP3    H137607   0.414   1.853  12.992 -0.7830 -0.5698 -0.9347
 5372TIP3    H237608   0.539   1.904  12.923 -0.4263 -0.9185 -0.5475
 5373TIP3   OH237609   6.647   4.470  14.290  0.0975  0.7205  0.2479
 5373TIP3    H137610   6.703   4.430  14.223 -0.6119 -1.0126  0.6710
 5373TIP3    H237611   6.703   4.537  14.330  1.0249  0.7512 -1.0477
 5374TIP3   OH237612   6.863   2.052  10.934  0.7460 -0.0051 -0.1976
 5374TIP3    H137613   6.931   2.065  11.001 -0.2679  0.5932  0.7278
 5374TIP3    H237614   6.816   1.974  10.962  1.1045 -0.4798 -0.8987
 5375TIP3   OH237615   2.744   3.200  10.893  0.0036 -0.2133 -0.1204
 5375TIP3    H137616   2.740   3.221  10.800 -0.3772 -0.6673 -0.2083
 5375TIP3    H237617   2.703   3.113  10.900  0.2962 -0.3129  0.4268
 5376TIP3   OH237618   6.875   3.569   0.567  0.2421 -0.4075 -0.3599
 5376TIP3    H137619   6.955   3.535   0.526  0.1287  0.3731 -1.2519
 5376TIP3    H237620   6.853   3.647   0.515 -0.1859  0.3111  0.8860
 5377TIP3   OH237621   5.408   6.711  12.680  0.4744  0.4732  0.3847
 5377TIP3    H137622   5.352   6.720  12.603  0.7263 -0.0618  0.1350
 5377TIP3    H237623   5.455   6.794  12.686 -0.0957  0.7986  0.4022
 5378TIP3   OH237624   4.539   0.367  14.210 -0.3350  0.7300  0.9289
 5378TIP3    H137625   4.471   0.335  14.150 -0.2522  0.4074  1.0041
 5378TIP3    H237626   4.539   0.462  14.198 -1.2325  0.8024  1.3840
 5379TIP3   OH237627   0.037   3.496  10.695 -0.2442 -0.3078  0.5220
 5379TIP3    H137628   0.076   3.436  10.632  1.1314  0.1255  0.9347
 5379TIP3    H237629   0.112   3.538  10.738 -1.1672  0.4958  1.3905
 5380TIP3   OH237630   2.359   1.853  11.208 -0.1683 -0.5548  0.0698
 5380TIP3    H137631   2.273   1.810  11.217  0.9023 -2.5038  1.3359
 5380TIP3    H237632   2.368   1.905  11.288 -0.6749  0.6230 -0.6250
 5381TIP3   OH237633   3.600   5.333  13.826  0.0075 -0.6047 -0.5595
 5381TIP3    H137634   3.637   5.257  13.869  1.4031  0.2431 -0.2605
 5381TIP3    H237635   3.547   5.376  13.893  2.2905  0.7941  0.3793
 5382TIP3   OH237636   4.091   3.115  12.684  0.9274 -0.0617 -0.2515
 5382TIP3    H137637   4.165   3.054  12.682  1.2367  0.3187 -0.5582
 5382TIP3    H237638   4.126   3.197  12.649 -0.1792 -0.4799 -2.4819
 5383TIP3   OH237639   1.999   5.032  15.214  0.2184 -0.5680  0.5047
 5383TIP3    H137640   2.018   4.999  15.302 -0.2371 -0.2318  0.7292
 5383TIP3    H237641   1.911   4.998  15.194  0.8092 -1.6602 -0.3120
 5384TIP3   OH237642   6.531   4.137  11.035  0.1803 -0.1183 -0.4908
 5384TIP3    H137643   6.465   4.167  11.098 -0.2010 -1.8137 -0.0752
 5384TIP3    H237644   6.612   4.134  11.085  0.5419  1.6769 -0.9254
 5385TIP3   OH237645   4.502   5.964  13.594  0.3414  0.2168 -0.1938
 5385TIP3    H137646   4.473   5.952  13.504  0.7750 -0.1890 -0.2818
 5385TIP3    H237647   4.593   5.993  13.586  0.2781  0.4999  0.1040
 5386TIP3   OH237648   5.920   5.912  11.462 -0.0822 -0.3897 -0.3908
 5386TIP3    H137649   5.984   5.937  11.528 -0.8901  2.5806 -0.6311
 5386TIP3    H237650   5.966   5.924  11.378 -0.4739  0.3860 -0.5057
 5387TIP3   OH237651   5.628   1.126  11.401 -0.5091  0.2090  0.0682
 5387TIP3    H137652   5.689   1.141  11.329 -1.8425  0.9743 -0.9426
 5387TIP3    H237653   5.683   1.119  11.479  0.9361 -0.2879 -0.9733
 5388TIP3   OH237654   6.894   2.642  12.911 -0.2001  0.2855  0.1266
 5388TIP3    H137655   6.979   2.682  12.891 -0.8406  0.7990 -1.7113
 5388TIP3    H237656   6.915   2.570  12.970  1.5376  0.3699 -0.3467
 5389TIP3   OH237657   4.071   6.247  12.122  0.9823  0.2625  0.2705
 5389TIP3    H137658   4.035   6.334  12.102  1.2254  0.3792  0.3400
 5389TIP3    H237659   4.002   6.204  12.172 -0.0427 -0.3927 -1.6551
 5390TIP3   OH237660   4.186   6.163  11.525  0.5225  0.0392 -0.3416
 5390TIP3    H137661   4.095   6.136  11.518  0.5370  0.5741 -3.0971
 5390TIP3    H237662   4.212   6.137  11.614 -1.6409 -2.1687 -0.2956
 5391TIP3   OH237663   4.475   5.908  12.548 -0.6264 -0.0967 -0.1755
 5391TIP3    H137664   4.424   5.988  12.534 -0.9164 -0.2765 -0.1424
 5391TIP3    H237665   4.516   5.892  12.463  1.0498  1.2038  0.3638
 5392TIP3   OH237666   1.874   4.708  14.299 -1.0023 -0.2941 -0.1601
 5392TIP3    H137667   1.901   4.616  14.295  0.0300  0.0292 -0.9397
 5392TIP3    H237668   1.911   4.747  14.220  0.0032  1.1650  1.0006
 5393TIP3   OH237669   1.904   2.253  11.029 -0.0755 -0.1247  0.0629
 5393TIP3    H137670   1.848   2.330  11.020  1.9357  1.1832 -1.9473
 5393TIP3    H237671   1.977   2.283  11.083  0.4571 -0.7660 -0.2896
 5394TIP3   OH237672   0.088   0.255  11.751 -0.3908 -0.0105 -0.0411
 5394TIP3    H137673   0.060   0.183  11.695 -1.0190 -0.3514  0.6923
 5394TIP3    H237674   0.087   0.218  11.840  0.3602  0.5835  0.2206
 5395TIP3   OH237675   2.285   0.535  13.195 -0.2853  0.2859  0.1368
 5395TIP3    H137676   2.224   0.563  13.128  0.2031 -0.1104 -0.4743
 5395TIP3    H237677   2.368   0.579  13.173 -0.0701 -0.0008  0.3652
 5396TIP3   OH237678   6.543   3.090  12.522  0.0380  0.2426 -0.2468
 5396TIP3    H137679   6.581   3.004  12.541  0.6369 -0.0964 -2.8413
 5396TIP3    H237680   6.450   3.074  12.514  0.3287 -0.4707 -2.3174
 5397TIP3   OH237681   0.510   0.276  10.183 -0.3146 -0.1240 -0.0308
 5397TIP3    H137682   0.559   0.353  10.213 -1.2642  0.5129 -0.0830
 5397TIP3    H237683   0.488   0.295  10.092 -0.7112 -0.3759  0.0094
 5398TIP3   OH237684   3.983   5.752  11.262 -0.9941  0.1114  0.5259
 5398TIP3    H137685   3.954   5.811  11.332 -0.6875  0.6359  0.2110
 5398TIP3    H237686   3.934   5.672  11.277  0.7243 -0.5905  2.7346
 5399TIP3   OH237687   5.284   2.680  14.431  0.6452  0.1455  0.1684
 5399TIP3    H137688   5.362   2.729  14.457  1.9039 -0.7598 -1.8208
 5399TIP3    H237689   5.226   2.687  14.507  1.5300  3.1480  0.6594
 5400TIP3   OH237690   4.784   4.533  12.926 -0.0824 -0.0051  0.2504
 5400TIP3    H137691   4.842   4.461  12.951 -1.6993 -1.2347  0.5469
 5400TIP3    H237692   4.760   4.515  12.836  0.1862  0.6375  0.0477
 5401TIP3   OH237693   6.987   5.520  10.363  0.0192 -0.0898  0.3035
 5401TIP3    H137694   7.064   5.570  10.391  1.7841 -1.4576 -2.0273
 5401TIP3    H237695   6.936   5.582  10.311  0.4805  0.2629  0.2691
 5402TIP3   OH237696   1.891   5.120  10.417  0.0126  0.1628  0.1126
 5402TIP3    H137697   1.879   5.031  10.451  0.9323  0.8232  2.2116
 5402TIP3    H237698   1.963   5.112  10.355  1.3908 -0.2299  1.7207
 5403TIP3   OH237699   1.963   0.378  15.239 -0.2945  0.0274  0.0648
 5403TIP3    H137700   2.059   0.386  15.247  0.3157  0.2774 -5.4354
 5403TIP3    H237701   1.932   0.468  15.241 -0.1378  0.0942 -0.3448
 5404TIP3   OH237702   4.967   0.568  11.564  0.2844 -0.2947  0.6830
 5404TIP3    H137703   4.901   0.611  11.511  0.7004 -1.3992 -0.7628
 5404TIP3    H237704   4.947   0.475  11.558  2.6064 -0.7490 -0.7155
 5405TIP3   OH237705   1.275   0.368  12.518 -0.1746 -0.0863  0.5814
 5405TIP3    H137706   1.278   0.444  12.460  0.4367 -0.6685 -0.1623
 5405TIP3    H237707   1.359   0.370  12.564 -0.4666  0.1118  1.1082
 5406TIP3   OH237708   1.831   0.744  10.882 -0.2412 -0.5935  0.4114
 5406TIP3    H137709   1.926   0.739  10.874 -0.3312  0.2150 -1.2194
 5406TIP3    H237710   1.812   0.698  10.964  1.4549 -1.6022  0.2588
 5407TIP3   OH237711   3.709   6.149  11.392  0.1044  0.5343 -0.1845
 5407TIP3    H137712   3.720   6.056  11.373  0.7723  0.1951  1.6838
 5407TIP3    H237713   3.616   6.165  11.379 -0.3904 -0.8818  1.3330
 5408TIP3   OH237714   1.786   6.474  11.078 -0.5759  0.0280 -0.1105
 5408TIP3    H137715   1.854   6.408  11.085 -0.5937 -0.0044 -0.2446
 5408TIP3    H237716   1.818   6.535  11.013  0.7912  1.7722  2.1133
 5409TIP3   OH237717   3.639   6.344  11.630 -0.1194 -0.4461 -0.3477
 5409TIP3    H137718   3.684   6.345  11.714 -2.1037  1.5117  0.7314
 5409TIP3    H237719   3.707   6.367  11.566  1.0163 -0.3111  0.8967
 5410TIP3   OH237720   7.176   2.119  13.305 -0.2874 -0.6325 -0.2681
 5410TIP3    H137721   7.260   2.137  13.347  0.1142 -0.8516 -0.9659
 5410TIP3    H237722   7.128   2.201  13.312 -0.3260 -0.7355  0.8353
 5411TIP3   OH237723   4.379   5.194  11.156 -0.4840 -0.7193 -0.5309
 5411TIP3    H137724   4.376   5.098  11.152  0.9539 -0.7945 -0.2134
 5411TIP3    H237725   4.461   5.213  11.202 -1.4060  0.6399  0.5888
 5412TIP3   OH237726   6.464   6.096   0.198  0.0291 -0.4340 -0.0422
 5412TIP3    H137727   6.447   6.005   0.172  0.9635 -1.0865  1.5753
 5412TIP3    H237728   6.391   6.118   0.255 -0.4137 -0.0178 -0.7596
 5413TIP3   OH237729   2.255   4.361  12.282 -0.2562 -0.2718  0.6168
 5413TIP3    H137730   2.320   4.347  12.213  1.3061  0.8696  1.8238
 5413TIP3    H237731   2.186   4.412  12.240  0.3667 -0.1624 -0.2801
 5414TIP3   OH237732   2.283   5.164  12.523  0.3268  0.2089 -0.3684
 5414TIP3    H137733   2.371   5.146  12.555 -0.2601 -0.9061  0.6657
 5414TIP3    H237734   2.254   5.081  12.485 -0.1828  0.6431 -0.9389
 5415TIP3   OH237735   1.924   2.807  12.242 -0.1624  1.2401  0.3696
 5415TIP3    H137736   1.830   2.811  12.227 -0.1176  0.4886 -0.1316
 5415TIP3    H237737   1.954   2.734  12.189  0.4147  0.2496  2.0097
 5416TIP3   OH237738   3.296   6.105  10.446  0.4566 -0.2014 -0.3479
 5416TIP3    H137739   3.364   6.093  10.380  0.4413 -1.5057 -0.1496
 5416TIP3    H237740   3.271   6.197  10.440  0.2039 -0.3966 -2.3838
 5417TIP3   OH237741   5.603   3.643   9.381 -0.1870  0.4308  0.5990
 5417TIP3    H137742   5.606   3.674   9.290 -0.9512 -0.6488  0.1853
 5417TIP3    H237743   5.639   3.715   9.433  1.1742  0.6676 -0.6608
 5418TIP3   OH237744   6.087   4.835  12.113 -0.3504 -0.2176 -0.0919
 5418TIP3    H137745   6.144   4.784  12.172  0.8031  0.4470 -0.6065
 5418TIP3    H237746   5.999   4.804  12.133  0.1243 -0.8162  1.1921
 5419TIP3   OH237747   0.624   5.389  15.220  1.0908 -0.5692 -0.5662
 5419TIP3    H137748   0.642   5.382  15.314  2.1254  2.6594 -0.4427
 5419TIP3    H237749   0.684   5.326  15.179  1.4912 -1.1400  0.8704
 5420TIP3   OH237750   3.752   3.200  13.015  0.0829  0.0935 -0.3594
 5420TIP3    H137751   3.705   3.142  13.075 -0.8708  1.2174  0.0036
 5420TIP3    H237752   3.684   3.240  12.962  0.7511  0.7277 -0.7457
 5421TIP3   OH237753   5.327   5.700  10.029  0.1788  0.2260  0.4879
 5421TIP3    H137754   5.251   5.723   9.975  1.1428  1.6625 -0.3155
 5421TIP3    H237755   5.399   5.692   9.967  1.1436  1.1168  1.4606
 5422TIP3   OH237756   3.284   0.588  10.097 -0.5389  0.5548  0.0549
 5422TIP3    H137757   3.352   0.583  10.031  0.2645 -0.8554  0.9728
 5422TIP3    H237758   3.331   0.604  10.179 -1.2860 -0.6624  0.7312
 5423TIP3   OH237759   5.830   3.929  13.686 -0.7189 -0.0682 -0.6057
 5423TIP3    H137760   5.876   3.992  13.630 -0.0888 -1.3891 -1.6344
 5423TIP3    H237761   5.811   3.976  13.766  1.0561  0.9923 -0.7830
 5424TIP3   OH237762   1.338   5.389  12.964 -0.0361 -1.0658  0.3731
 5424TIP3    H137763   1.307   5.463  13.016  0.3278 -2.2237  2.2865
 5424TIP3    H237764   1.310   5.409  12.875  1.0561  1.9348  0.6306
 5425TIP3   OH237765   3.762   5.117  13.955  0.4052 -0.0938 -0.0766
 5425TIP3    H137766   3.836   5.139  13.899 -0.1953  1.1368 -0.3978
 5425TIP3    H237767   3.754   5.022  13.948  0.1638  0.0790 -2.2766
 5426TIP3   OH237768   6.271   2.645  14.648  0.1405  0.0610  0.2206
 5426TIP3    H137769   6.291   2.667  14.739 -1.2771 -0.8995  0.7726
 5426TIP3    H237770   6.308   2.717  14.598  0.5852  0.8019  1.5788
 5427TIP3   OH237771   4.881   3.343   1.909 -0.2055  0.0396 -0.0231
 5427TIP3    H137772   4.813   3.302   1.962 -1.3072  0.1823 -1.3197
 5427TIP3    H237773   4.927   3.401   1.970 -1.8450  0.6611  0.6415
 5428TIP3   OH237774   6.739   0.662  12.263  0.0608 -0.3447  0.3864
 5428TIP3    H137775   6.716   0.705  12.345  3.8389  0.0182  1.3470
 5428TIP3    H237776   6.764   0.734  12.205 -1.9852 -0.6525 -0.9218
 5429TIP3   OH237777   3.828   4.421  10.177 -0.4797  0.3006  0.1454
 5429TIP3    H137778   3.897   4.445  10.115 -0.5867  1.4330  0.4547
 5429TIP3    H237779   3.829   4.325  10.178 -0.7962  0.2664 -1.9420
 5430TIP3   OH237780   0.302   6.147  10.836 -0.3272 -0.6371  0.4742
 5430TIP3    H137781   0.386   6.174  10.873  0.2757 -0.6909 -0.8135
 5430TIP3    H237782   0.278   6.068  10.885 -0.0617 -0.1227  1.4373
 5431TIP3   OH237783   5.356   4.533  13.926 -0.0685 -0.6284  0.0361
 5431TIP3    H137784   5.446   4.499  13.922 -0.3707 -1.4710  0.3307
 5431TIP3    H237785   5.329   4.537  13.834 -0.0380 -1.2230 -0.0049
 5432TIP3   OH237786   0.685   3.191  11.929  0.4331  0.3258  0.1524
 5432TIP3    H137787   0.738   3.271  11.926  1.2674 -0.1707  1.0794
 5432TIP3    H237788   0.598   3.221  11.953  0.3909  1.1075 -0.9178
 5433TIP3   OH237789   4.391   1.162  11.957  0.5199 -0.4239  0.3168
 5433TIP3    H137790   4.431   1.080  11.987  2.9977  0.5562 -0.1125
 5433TIP3    H237791   4.341   1.193  12.032 -1.0986 -2.7048  0.2127
 5434TIP3   OH237792   5.238   4.051  14.507 -0.3947  0.2633 -0.1688
 5434TIP3    H137793   5.284   3.971  14.532  0.8541  0.2910 -2.2296
 5434TIP3    H237794   5.163   4.055  14.566  0.0669 -1.8973  0.6155
 5435TIP3   OH237795   4.977   4.343  13.027 -0.3650 -0.2367 -0.0028
 5435TIP3    H137796   5.013   4.265  13.069  1.2140 -1.3460 -3.2465
 5435TIP3    H237797   5.051   4.402  13.017 -0.4325 -0.5207 -2.3414
 5436TIP3   OH237798   2.515   7.032  11.207 -0.5259 -0.0048  0.5651
 5436TIP3    H137799   2.530   7.105  11.148 -0.0177 -1.0291 -0.6048
 5436TIP3    H237800   2.544   7.063  11.293  1.0833  0.6722 -0.2025
 5437TIP3   OH237801   6.599   2.342  12.859  0.3191 -0.5570 -0.7326
 5437TIP3    H137802   6.544   2.418  12.878 -0.8354 -0.9488 -2.3663
 5437TIP3    H237803   6.688   2.375  12.861  0.1166 -0.0323  2.6065
 5438TIP3   OH237804   3.315   7.096  13.865 -0.3878 -0.3755 -0.0637
 5438TIP3    H137805   3.245   7.034  13.846 -2.1115  1.4847  0.0822
 5438TIP3    H237806   3.378   7.084  13.793 -0.4244 -2.6314  0.2467
 5439TIP3   OH237807   3.561   0.938  13.232 -0.2328 -1.0891 -0.3013
 5439TIP3    H137808   3.469   0.948  13.254 -0.2154 -0.5625 -0.4579
 5439TIP3    H237809   3.588   1.025  13.201  0.0473 -1.4996 -1.2455
 5440TIP3   OH237810   6.129   5.080   1.618  0.1348 -0.0535 -0.6918
 5440TIP3    H137811   6.090   4.994   1.607  2.8351 -1.2940 -0.9429
 5440TIP3    H237812   6.174   5.097   1.534  0.7478  0.9901 -0.1683
 5441TIP3   OH237813   2.261   0.253  11.906  0.6650  0.1509  0.4287
 5441TIP3    H137814   2.202   0.233  11.979  0.2857  0.8266  0.3044
 5441TIP3    H237815   2.216   0.221  11.828  1.1305 -0.6959  0.4894
 5442TIP3   OH237816   3.309   1.458   2.431  0.4757 -0.2657 -0.1949
 5442TIP3    H137817   3.342   1.523   2.369 -2.7651  1.3295 -0.3379
 5442TIP3    H237818   3.225   1.431   2.395  0.2136 -2.0154  1.6566
 5443TIP3   OH237819   5.135   6.872  11.173 -0.2200 -0.1285  0.0322
 5443TIP3    H137820   5.125   6.807  11.244  0.6319  0.2345  0.4914
 5443TIP3    H237821   5.147   6.955  11.219  1.8447 -0.1077 -0.5224
 5444TIP3   OH237822   3.426   6.419  13.975  0.3740  1.0012  1.0266
 5444TIP3    H137823   3.507   6.468  13.967  0.5780  1.4549  4.7947
 5444TIP3    H237824   3.358   6.477  13.940  1.4398  1.3847 -0.3927
 5445TIP3   OH237825   0.242   1.283  11.851  0.1164 -0.6418 -0.5730
 5445TIP3    H137826   0.316   1.296  11.791 -1.1795 -0.5930 -2.1873
 5445TIP3    H237827   0.193   1.365  11.846 -2.4049 -2.1983 -2.8404
 5446TIP3   OH237828   3.993   2.866  14.146  0.0782 -0.2047  0.2220
 5446TIP3    H137829   3.978   2.843  14.238  0.4352  0.1318  0.3638
 5446TIP3    H237830   3.922   2.926  14.125  0.0222 -0.2466  0.2889
 5447TIP3   OH237831   1.390   5.277  10.199 -0.1676  0.0689  0.5498
 5447TIP3    H137832   1.476   5.256  10.162  0.3857  2.0846  0.5966
 5447TIP3    H237833   1.367   5.361  10.158 -1.5242  0.1707  1.5094
 5448TIP3   OH237834   5.285   5.693  13.945  0.6442  0.1236  0.1358
 5448TIP3    H137835   5.335   5.654  14.016  0.4225 -0.7966 -0.2041
 5448TIP3    H237836   5.278   5.623  13.880 -0.6898  0.3784 -0.0072
 5449TIP3   OH237837   5.233   1.419  14.488  0.2853 -0.0313 -0.2269
 5449TIP3    H137838   5.277   1.407  14.572  1.0487 -1.8593 -0.8634
 5449TIP3    H237839   5.188   1.503  14.497  2.8005  1.2546  0.8946
 5450TIP3   OH237840   5.558   2.076  10.181  0.0797  0.3766  0.1437
 5450TIP3    H137841   5.651   2.095  10.179  0.5250 -1.7601 -1.0677
 5450TIP3    H237842   5.552   1.988  10.219 -1.3702  0.1871 -0.4738
 5451TIP3   OH237843   4.076   1.007  11.492 -0.8455  0.3249 -0.3599
 5451TIP3    H137844   4.052   1.032  11.582  1.1568  0.0731  0.2665
 5451TIP3    H237845   4.048   0.916  11.484  1.3384 -0.5086  0.9412
 5452TIP3   OH237846   4.564   5.287   9.667 -0.1452 -0.4508 -0.6814
 5452TIP3    H137847   4.540   5.204   9.625 -1.3211  0.4245 -1.7728
 5452TIP3    H237848   4.659   5.291   9.658 -0.0562 -1.8015 -0.4037
 5453TIP3   OH237849   4.511   1.836  15.170  0.4508 -0.1535 -0.2415
 5453TIP3    H137850   4.431   1.812  15.124  0.6350  0.1944 -0.7541
 5453TIP3    H237851   4.536   1.757  15.218 -0.9170  0.1418  0.9911
 5454TIP3   OH237852   5.488   2.466  10.545 -0.1872 -0.1307 -0.4455
 5454TIP3    H137853   5.475   2.399  10.478 -0.9255  0.6728 -1.1159
 5454TIP3    H237854   5.400   2.482  10.581 -0.5730  2.7418 -2.4921
 5455TIP3   OH237855   4.087   6.329  12.634  0.0932 -0.1609 -0.0905
 5455TIP3    H137856   4.118   6.250  12.679 -0.1645  0.0767  0.5032
 5455TIP3    H237857   4.153   6.345  12.567  0.4112 -0.5955  0.1123
 5456TIP3   OH237858   4.658   5.946  12.310 -0.7177 -0.0065 -0.1973
 5456TIP3    H137859   4.691   5.883  12.246  1.9790  0.3090  0.8327
 5456TIP3    H237860   4.656   6.030  12.263 -0.7076 -0.1486 -0.4528
 5457TIP3   OH237861   4.576   5.108  12.803 -0.0655 -0.0399  0.1027
 5457TIP3    H137862   4.664   5.145  12.802 -0.8299  1.8123  0.4004
 5457TIP3    H237863   4.551   5.109  12.896  0.3996 -2.5395  0.2931
 5458TIP3   OH237864   2.041   3.064  13.007  0.4497 -0.1262 -0.2123
 5458TIP3    H137865   2.125   3.100  13.034  0.7778 -0.8735 -0.2044
 5458TIP3    H237866   2.034   2.982  13.057 -0.3927  0.0606 -0.0260
 5459TIP3   OH237867   1.318   6.679  11.585 -0.6411 -0.6034  0.2891
 5459TIP3    H137868   1.267   6.617  11.533 -0.7028  0.1418 -0.5586
 5459TIP3    H237869   1.277   6.764  11.568  0.0334 -0.1910  0.6865
 5460TIP3   OH237870   2.868   5.303  11.571 -0.1376 -0.5461 -0.2050
 5460TIP3    H137871   2.866   5.397  11.556 -0.0164 -0.6144 -0.6515
 5460TIP3    H237872   2.871   5.294  11.666  2.1831 -0.0442 -0.1949
 5461TIP3   OH237873   4.847   2.653   1.683  0.5903  0.1997  0.2197
 5461TIP3    H137874   4.871   2.568   1.645 -0.3115 -0.7249  1.6705
 5461TIP3    H237875   4.898   2.717   1.633 -0.5963 -0.9679 -2.5942
 5462TIP3   OH237876   5.298   4.000  13.572  0.6798 -0.5431  0.4775
 5462TIP3    H137877   5.211   4.031  13.547  0.8620 -1.7784 -1.7553
 5462TIP3    H237878   5.282   3.941  13.646 -0.4770 -1.4717 -0.5002
 5463TIP3   OH237879   3.312   1.747  13.705 -0.4567 -0.3014  0.1938
 5463TIP3    H137880   3.353   1.662  13.718  0.8782  0.3251  0.1755
 5463TIP3    H237881   3.342   1.775  13.619 -0.2181  0.5465  0.5450
 5464TIP3   OH237882   6.987   1.417  12.423 -0.3104  0.6616  0.0294
 5464TIP3    H137883   6.963   1.328  12.449  1.0113  0.2784 -0.0066
 5464TIP3    H237884   6.960   1.472  12.497 -0.8289  0.1952  0.1944
 5465TIP3   OH237885   5.840   5.422  13.512  0.3574  0.2364 -0.0225
 5465TIP3    H137886   5.914   5.481  13.494 -0.0739  0.1276 -2.2611
 5465TIP3    H237887   5.870   5.336  13.483 -0.9254  0.3375 -1.7073
 5466TIP3   OH237888   3.578   4.022  12.728  0.7165  0.2628  0.2087
 5466TIP3    H137889   3.498   4.055  12.770  0.2943  0.3970 -0.6974
 5466TIP3    H237890   3.644   4.024  12.798 -0.2834 -0.6829  1.2028
 5467TIP3   OH237891   4.286   3.870  10.879 -0.1028  0.0076 -0.4937
 5467TIP3    H137892   4.205   3.919  10.896 -0.9500 -0.4199 -3.0455
 5467TIP3    H237893   4.261   3.806  10.813  2.1703 -0.6294 -0.7647
 5468TIP3   OH237894   6.844   2.361  14.051  0.2215 -0.4178 -0.1402
 5468TIP3    H137895   6.847   2.457  14.062  1.3761 -0.3815 -0.7778
 5468TIP3    H237896   6.935   2.333  14.058  0.1464 -1.2322 -2.1598
 5469TIP3   OH237897   6.645   7.008  10.963  0.1657 -0.1248  0.3853
 5469TIP3    H137898   6.552   6.984  10.962  0.5809 -1.8462  0.4883
 5469TIP3    H237899   6.687   6.935  11.009  1.6104  0.4690  0.0127
 5470TIP3   OH237900   6.773   0.853  11.771  0.6855  0.2160  0.2371
 5470TIP3    H137901   6.860   0.890  11.757  0.8513  0.2672  1.3462
 5470TIP3    H237902   6.720   0.927  11.800 -0.1831  0.5456 -2.1426
 5471TIP3   OH237903   4.274   1.046  10.916  0.2757 -0.1135  0.3879
 5471TIP3    H137904   4.343   1.031  10.851  0.0320  0.8116 -0.0882
 5471TIP3    H237905   4.247   1.137  10.902 -0.9731 -0.4401  0.6373
 5472TIP3   OH237906   0.754   6.769  13.565 -0.1207  0.5732 -0.2941
 5472TIP3    H137907   0.832   6.745  13.514  0.6076 -1.0842  1.5330
 5472TIP3    H237908   0.784   6.840  13.622  0.0981 -0.1587  0.5063
 5473TIP3   OH237909   3.222   7.037  13.498 -0.0202 -0.2503 -0.0917
 5473TIP3    H137910   3.132   7.068  13.491 -0.4413 -1.3136  0.5781
 5473TIP3    H237911   3.241   6.997  13.413 -0.6076 -1.1703  0.2120
 5474TIP3   OH237912   1.605   1.109  11.567  0.1041  0.3609 -0.4628
 5474TIP3    H137913   1.616   1.023  11.609  1.2466  0.3688 -0.7257
 5474TIP3    H237914   1.574   1.166  11.636 -0.7443 -0.2811 -0.3005
 5475TIP3   OH237915   4.917   5.466  10.465  0.3547  0.2179  0.2738
 5475TIP3    H137916   5.008   5.489  10.486  0.5288 -0.5702  0.4125
 5475TIP3    H237917   4.866   5.542  10.493  0.9995  0.7899 -0.0761
 5476TIP3   OH237918   6.952   5.255  10.164  0.7323 -0.1042  0.3524
 5476TIP3    H137919   6.964   5.172  10.117 -0.9603 -0.3408  0.3090
 5476TIP3    H237920   6.932   5.318  10.095 -0.3683 -0.1607  0.6211
 5477TIP3   OH237921   6.298   3.191  13.985 -0.1372 -0.1092 -0.1956
 5477TIP3    H137922   6.338   3.104  13.981 -3.9776 -1.9725 -0.3886
 5477TIP3    H237923   6.315   3.229  13.899  1.9860 -0.4441  0.0556
 5478TIP3   OH237924   7.181   7.158  14.145  0.3380  0.0914  0.0587
 5478TIP3    H137925   7.259   7.197  14.184  0.9149 -1.4173  0.4476
 5478TIP3    H237926   7.139   7.111  14.218 -0.0807 -0.4032 -0.4947
 5479TIP3   OH237927   6.530   0.908  10.332 -0.3071  0.3273 -0.0410
 5479TIP3    H137928   6.615   0.951  10.341  0.7420 -1.5398 -0.7309
 5479TIP3    H237929   6.503   0.926  10.242  0.8999 -1.7549 -0.8544
 5480TIP3   OH237930   6.598   1.393  11.683  0.3745  0.1908  0.1267
 5480TIP3    H137931   6.510   1.414  11.652 -0.1179 -1.9818 -0.0640
 5480TIP3    H237932   6.604   1.434  11.769 -0.8190  0.3550  0.1318
 5481TIP3   OH237933   3.856   5.138  12.845 -0.0666 -0.6036  0.2346
 5481TIP3    H137934   3.912   5.167  12.773 -0.2917  0.1759  0.3654
 5481TIP3    H237935   3.908   5.071  12.890  0.6337 -0.1100  0.1654
 5482TIP3   OH237936   3.390   1.030  10.470 -0.2423 -0.6052 -0.2148
 5482TIP3    H137937   3.397   1.096  10.402  0.1871 -2.0321 -1.5894
 5482TIP3    H237938   3.415   1.075  10.550 -1.7689  1.3701 -0.8237
 5483TIP3   OH237939   1.882   5.708  11.081  0.1215  0.1262  0.4638
 5483TIP3    H137940   1.966   5.679  11.047 -0.2108 -0.9093  0.5178
 5483TIP3    H237941   1.862   5.647  11.152 -1.3437 -0.5082 -0.4703
 5484TIP3   OH237942   2.894   7.154  14.636  0.0506 -0.5622 -0.8183
 5484TIP3    H137943   2.930   7.139  14.724 -0.8700  0.0906 -0.3235
 5484TIP3    H237944   2.930   7.238  14.609  0.7902 -1.0286 -1.3137
 5485TIP3   OH237945   4.520   2.899  10.083 -0.2950  0.0117 -0.2631
 5485TIP3    H137946   4.607   2.885  10.048  0.1604 -2.0668  1.5795
 5485TIP3    H237947   4.477   2.955  10.019  1.2716 -1.6861 -2.8992
 5486TIP3   OH237948   5.001   0.362  10.218  0.3828  0.1135  0.7426
 5486TIP3    H137949   5.061   0.296  10.252  0.0769 -0.5918 -0.0467
 5486TIP3    H237950   5.029   0.375  10.128 -0.5208 -0.0902  0.4252
 5487TIP3   OH237951   5.119   5.101  12.220  0.4571  0.4441  0.5782
 5487TIP3    H137952   5.087   5.160  12.289  1.0887 -0.9202  2.0760
 5487TIP3    H237953   5.135   5.018  12.265  3.2103  0.2054 -0.7044
 5488TIP3   OH237954   4.081   1.460  11.237 -0.2959  0.6729 -0.3959
 5488TIP3    H137955   4.001   1.473  11.186 -0.6665 -0.6265 -0.1726
 5488TIP3    H237956   4.089   1.365  11.243 -0.4498  0.8083  2.2949
 5489TIP3   OH237957   5.267   4.714  11.659  0.7837  0.3712 -0.4943
 5489TIP3    H137958   5.245   4.716  11.752  1.6000 -1.3046 -0.2369
 5489TIP3    H237959   5.285   4.805  11.636  1.3201  0.6980  1.1800
 5490TIP3   OH237960   0.090   1.420  10.665  0.1159  0.1963  0.2214
 5490TIP3    H137961   0.185   1.419  10.647 -0.0337 -0.2074 -0.6080
 5490TIP3    H237962   0.061   1.506  10.635  0.3767  0.6789  1.3485
 5491TIP3   OH237963   3.733   6.900  13.722 -0.1696 -0.3429 -0.0689
 5491TIP3    H137964   3.674   6.960  13.768 -0.1771  0.2921 -0.9074
 5491TIP3    H237965   3.680   6.865  13.650 -0.4678 -2.0912  0.9831
 5492TIP3   OH237966   5.399   3.084  12.432 -0.2274  0.5134 -0.2546
 5492TIP3    H137967   5.407   3.000  12.388 -0.0239 -0.4232  1.5183
 5492TIP3    H237968   5.370   3.062  12.521  1.9830  2.1362  0.9155
 5493TIP3   OH237969   4.024   5.204  13.809 -0.5070  0.6385 -0.0071
 5493TIP3    H137970   4.035   5.295  13.783 -1.5212  0.9233  0.5039
 5493TIP3    H237971   4.063   5.199  13.896  1.5599  0.0409 -0.9475
 5494TIP3   OH237972   4.949   2.932  14.814  0.4390 -0.3320  1.0937
 5494TIP3    H137973   5.006   2.855  14.810  0.4230 -0.3353  0.9200
 5494TIP3    H237974   4.965   2.978  14.731 -0.3193 -0.6951  0.7457
 5495TIP3   OH237975   0.711   0.205  11.050 -0.0847 -0.0326 -0.1015
 5495TIP3    H137976   0.703   0.290  11.093 -0.8138  0.3065 -0.8890
 5495TIP3    H237977   0.713   0.142  11.121 -2.2191  0.4439  0.4255
 5496TIP3   OH237978   4.676   4.531  10.102  0.2226 -0.6189  0.0195
 5496TIP3    H137979   4.639   4.563  10.020 -0.8309 -1.6201  0.0887
 5496TIP3    H237980   4.616   4.461  10.130  0.7705 -0.5444  1.4416
 5497TIP3   OH237981   5.553   5.289  12.841 -0.2905 -0.0829 -0.0511
 5497TIP3    H137982   5.572   5.199  12.870  1.4824  0.4883  0.6185
 5497TIP3    H237983   5.594   5.345  12.907  1.7524  1.2268 -2.3114
 5498TIP3   OH237984   5.852   3.308  11.688 -0.1544  0.0767 -0.3380
 5498TIP3    H137985   5.825   3.360  11.764  0.4526  0.7678 -0.5804
 5498TIP3    H237986   5.772   3.297  11.636 -0.1724  1.2891 -0.5798
 5499TIP3   OH237987   5.858   4.500   1.264  0.8987 -0.4875 -0.4110
 5499TIP3    H137988   5.771   4.539   1.277  1.7793  0.5020  3.2234
 5499TIP3    H237989   5.871   4.502   1.169 -1.9342  1.8521 -0.8429
 5500TIP3   OH237990   6.978   4.838  13.893  0.2713  0.2020  0.2352
 5500TIP3    H137991   7.047   4.903  13.905 -0.2005  0.8906 -0.6918
 5500TIP3    H237992   6.934   4.835  13.978  1.9449 -0.8522  1.0829
 5501TIP3   OH237993   3.869   2.461  12.400 -0.9168 -0.2927  0.2599
 5501TIP3    H137994   3.871   2.552  12.370 -1.4446 -0.0119  1.0577
 5501TIP3    H237995   3.958   2.442  12.427 -0.8646  0.0745  0.3456
 5502TIP3   OH237996   3.124   0.259  12.050 -0.2269 -0.1871 -0.6490
 5502TIP3    H137997   3.118   0.174  12.093 -0.0597  0.5659  0.8914
 5502TIP3    H237998   3.033   0.281  12.028 -0.3209 -0.5486 -0.6275
 5503TIP3   OH237999   4.558   4.870  11.289  0.6957 -0.3687 -0.3279
 5503TIP3    H138000   4.506   4.852  11.367  0.8171 -2.8661 -0.7750
 5503TIP3    H238001   4.624   4.801  11.288  1.5349  0.4430 -1.9006
 5504TIP3   OH238002   4.964   0.580  14.870  0.4353 -0.1173  0.2118
 5504TIP3    H138003   4.988   0.561  14.961  0.0433 -0.5822  0.2195
 5504TIP3    H238004   5.048   0.598  14.826  0.6071  0.2867  0.7073
 5505TIP3   OH238005   1.067   7.003   9.928  0.1748 -0.0189  0.7955
 5505TIP3    H138006   1.139   6.957   9.972  0.9140 -1.4032 -1.7548
 5505TIP3    H238007   1.109   7.066   9.870 -0.7777  1.6171  1.8340
 5506TIP3   OH238008   1.012   3.595  11.370 -0.7734  0.7591 -0.0268
 5506TIP3    H138009   0.984   3.677  11.330 -0.3625  0.8113 -0.2002
 5506TIP3    H238010   1.105   3.606  11.387 -1.0645  0.9648  1.4832
 5507TIP3   OH238011   3.575   6.908  13.992  0.0282  0.0961  0.1444
 5507TIP3    H138012   3.612   6.991  13.962  0.1038  0.0401  0.0806
 5507TIP3    H238013   3.485   6.928  14.015  0.2211  0.3321  0.7227
 5508TIP3   OH238014   0.193   4.891   0.528  0.5306 -0.4753  0.4812
 5508TIP3    H138015   0.258   4.949   0.487 -0.9099  0.2382 -0.8437
 5508TIP3    H238016   0.129   4.875   0.460  0.4123 -2.9248  1.1318
 5509TIP3   OH238017   2.317   5.267  10.922 -0.2289 -0.4755  0.0533
 5509TIP3    H138018   2.301   5.346  10.870 -0.0611 -0.4147  0.0942
 5509TIP3    H238019   2.360   5.299  11.001  0.7521 -0.7268 -0.3820
 5510TIP3   OH238020   4.673   4.085  12.775  0.5819 -0.1393 -0.2551
 5510TIP3    H138021   4.607   4.149  12.748  0.0758  1.2292  3.8564
 5510TIP3    H238022   4.627   4.029  12.837  2.6412 -0.7679  0.7249
 5511TIP3   OH238023   1.283   3.665  12.938  0.1193  0.3404  0.0155
 5511TIP3    H138024   1.210   3.603  12.928  0.2179  0.2344 -0.0510
 5511TIP3    H238025   1.362   3.611  12.929  0.2357  0.0682  2.3963
 5512TIP3   OH238026   6.812   4.996  12.393 -0.0045  0.1367 -0.6110
 5512TIP3    H138027   6.831   4.919  12.446 -1.9933  0.0403  0.0121
 5512TIP3    H238028   6.799   5.067  12.457  0.0746  0.5786 -1.0832
 5513TIP3   OH238029   2.441   5.723  12.042  0.7226  0.1614  0.1144
 5513TIP3    H138030   2.349   5.697  12.049  0.6760  0.0903 -0.6883
 5513TIP3    H238031   2.443   5.814  12.071  0.4266  0.1147  0.2842
 5514TIP3   OH238032   5.586   4.707  10.731  0.1009  0.0072  0.0636
 5514TIP3    H138033   5.594   4.796  10.696 -0.8702 -0.2157 -0.7687
 5514TIP3    H238034   5.586   4.719  10.826 -2.6495  1.1873 -0.0371
 5515TIP3   OH238035   3.427   4.068  10.141 -0.0698 -0.0212 -0.6892
 5515TIP3    H138036   3.489   4.107  10.203  0.4787 -1.9496  0.0074
 5515TIP3    H238037   3.482   4.016  10.082 -0.8382 -0.1394 -1.3065
 5516TIP3   OH238038   5.125   4.771  11.112 -0.0272  0.3288  0.3113
 5516TIP3    H138039   5.045   4.738  11.072  0.6711  0.9774 -1.7139
 5516TIP3    H238040   5.134   4.721  11.193 -2.1413 -0.1701  0.2711
 5517TIP3   OH238041   5.062   1.802  13.510 -0.8847 -0.2104 -0.5110
 5517TIP3    H138042   5.131   1.787  13.575  0.4335  0.2822 -1.7622
 5517TIP3    H238043   5.100   1.865  13.449 -2.5883  0.3380 -1.0392
 5518TIP3   OH238044   3.273   4.411  12.994  0.3973 -0.2434 -0.3660
 5518TIP3    H138045   3.304   4.498  13.020  1.1025 -0.5802 -0.0826
 5518TIP3    H238046   3.198   4.395  13.052  0.4383  0.0571 -0.2269
 5519TIP3   OH238047   3.962   0.430  12.539 -0.3648 -0.1855 -0.2842
 5519TIP3    H138048   4.041   0.479  12.562 -0.9690  1.2395 -1.1343
 5519TIP3    H238049   3.975   0.343  12.577  0.6772  0.6746  1.3611
 5520TIP3   OH238050   5.282   0.520  10.719  0.5222 -0.0618  0.2438
 5520TIP3    H138051   5.236   0.439  10.698  5.5979 -3.6124  1.7754
 5520TIP3    H238052   5.252   0.543  10.806 -3.1257  1.4781 -1.3344
 5521TIP3   OH238053   5.905   2.950   9.571 -0.2436 -0.4200 -0.6495
 5521TIP3    H138054   5.898   3.044   9.555  1.7701 -0.5197 -2.4423
 5521TIP3    H238055   5.815   2.918   9.574 -1.0828  2.0054  3.0257
 5522TIP3   OH238056   2.654   0.737  12.758  0.0126 -0.5810  0.3605
 5522TIP3    H138057   2.704   0.702  12.832  0.0670  1.5142  1.3540
 5522TIP3    H238058   2.607   0.812  12.794  1.7641  1.8611 -2.2119
 5523TIP3   OH238059   5.458   1.373  10.720 -0.0393 -0.9543 -0.1987
 5523TIP3    H138060   5.458   1.307  10.651 -0.5262 -0.9339 -0.2197
 5523TIP3    H238061   5.550   1.385  10.742  0.0181 -1.9500  0.1102
 5524TIP3   OH238062   5.413   5.596  10.791  0.0977 -0.6942 -0.0611
 5524TIP3    H138063   5.339   5.641  10.751 -0.2940 -1.1216  0.1862
 5524TIP3    H238064   5.400   5.504  10.770  0.1857 -0.8527  0.5931
 5525TIP3   OH238065   5.827   1.169  11.222  0.3686 -0.5516 -0.2723
 5525TIP3    H138066   5.845   1.235  11.154  0.5850  1.1605  1.4197
 5525TIP3    H238067   5.895   1.103  11.209  3.1990  1.9694  1.0495
 5526TIP3   OH238068   2.874   3.251   1.121  0.1709 -0.1238  0.3548
 5526TIP3    H138069   2.969   3.249   1.122  0.2373 -0.1648 -2.1197
 5526TIP3    H238070   2.852   3.343   1.106 -0.1077 -0.4565 -1.3741
 5527TIP3   OH238071   0.064   5.349  11.837  0.1429  0.0597 -0.1374
 5527TIP3    H138072   0.143   5.306  11.868  0.1502  1.2349  1.5619
 5527TIP3    H238073   0.094   5.428  11.793 -0.0667  0.5111  0.5146
 5528TIP3   OH238074   0.475   4.942  13.191  0.3117  0.8530  0.3541
 5528TIP3    H138075   0.409   4.873  13.179  0.9044  0.0956  1.3418
 5528TIP3    H238076   0.529   4.938  13.112 -0.2686  0.8544 -0.0392
 5529TIP3   OH238077   2.254   0.675   1.347  0.3457  0.3233  0.0362
 5529TIP3    H138078   2.272   0.742   1.281 -0.8130  0.2163 -0.4147
 5529TIP3    H238079   2.182   0.711   1.398  1.3275  0.4618  1.3429
 5530TIP3   OH238080   5.541   4.644  15.327  0.1484 -0.4346  0.2412
 5530TIP3    H138081   5.562   4.643  15.420  0.0410 -0.5544  0.2646
 5530TIP3    H238082   5.493   4.563  15.312  2.1347 -1.5170 -0.3787
 5531TIP3   OH238083   2.290   5.531  13.659 -0.0138 -0.3809 -0.1029
 5531TIP3    H138084   2.383   5.536  13.683 -0.2527  0.4755  0.6901
 5531TIP3    H238085   2.246   5.589  13.722 -0.9041  0.3223 -1.3617
 5532TIP3   OH238086   5.601   5.236  15.503 -0.2244 -0.2545 -0.8549
 5532TIP3    H138087   5.637   5.324  15.516  0.4565 -0.4935 -1.1147
 5532TIP3    H238088   5.567   5.211  15.588 -1.3756  0.6850 -1.0115
 5533TIP3   OH238089   5.345   6.321  11.581  0.5621  0.2051 -0.5745
 5533TIP3    H138090   5.332   6.233  11.615 -0.1723  0.7619  0.6298
 5533TIP3    H238091   5.267   6.369  11.607  3.3302  2.6877  3.8172
 5534TIP3   OH238092   4.748   5.240  10.455 -0.0146  0.0612 -0.0806
 5534TIP3    H138093   4.760   5.334  10.464 -0.9549  0.3058 -1.2714
 5534TIP3    H238094   4.801   5.216  10.379  1.1036 -0.5666  0.8812
 5535TIP3   OH238095   4.604   6.964  13.749 -0.7781  0.1888 -0.1597
 5535TIP3    H138096   4.532   6.930  13.802  1.4042  0.0255  2.8462
 5535TIP3    H238097   4.671   6.989  13.813  1.0280  2.2480 -2.7584
 5536TIP3   OH238098   6.463   7.030  12.474 -0.0097  0.4572 -0.6909
 5536TIP3    H138099   6.459   7.068  12.387 -0.9495  2.1554  0.0717
 5536TIP3    H238100   6.552   7.046  12.504  1.1321 -2.4621 -2.3270
 5537TIP3   OH238101   5.187   4.226  11.591 -0.2290 -0.3050 -0.8705
 5537TIP3    H138102   5.238   4.307  11.585  0.5756 -0.9095 -2.6634
 5537TIP3    H238103   5.236   4.171  11.652 -0.5466  0.3824  0.0125
 5538TIP3   OH238104   4.150   3.022  13.830  0.1037  0.2674 -0.3133
 5538TIP3    H138105   4.217   3.071  13.783  1.1195  0.0091  0.8566
 5538TIP3    H238106   4.097   3.089  13.873 -0.2398  0.4515 -0.9950
 5539TIP3   OH238107   2.819   0.240  10.143  1.0237  0.1610  0.0499
 5539TIP3    H138108   2.779   0.289  10.215  0.3195 -0.3667  0.0344
 5539TIP3    H238109   2.745   0.192  10.104  1.4440  0.2367 -0.8524
 5540TIP3   OH238110   3.867   4.527  10.432  0.4174 -0.3471  0.1162
 5540TIP3    H138111   3.852   4.481  10.350  0.8409  0.8166 -0.6156
 5540TIP3    H238112   3.960   4.549  10.431  0.3524 -0.0290  0.7500
 5541TIP3   OH238113   6.022   0.743  13.466 -0.3039  0.1099  0.0356
 5541TIP3    H138114   5.935   0.703  13.469 -0.1022 -0.2542  1.3152
 5541TIP3    H238115   6.056   0.733  13.555  0.8196  0.7602 -0.3133
 5542TIP3   OH238116   0.153   1.045  11.753 -0.3020  0.0101 -0.2280
 5542TIP3    H138117   0.235   0.999  11.770  0.2820  0.2789 -2.1342
 5542TIP3    H238118   0.169   1.135  11.783  0.2293  0.1371 -0.8621
 5543TIP3   OH238119   2.348   3.934  10.306 -0.4841  0.0884 -0.1862
 5543TIP3    H138120   2.256   3.941  10.281 -1.1885  0.8567  2.5084
 5543TIP3    H238121   2.364   3.839  10.311 -1.1917 -0.0409 -0.3511
 5544TIP3   OH238122   6.541   5.059  14.827 -0.6640  0.0472 -0.5037
 5544TIP3    H138123   6.599   5.010  14.885 -0.2769 -1.6228 -2.2336
 5544TIP3    H238124   6.573   5.149  14.830  1.2167 -0.6057 -0.4130
 5545TIP3   OH238125   1.069   5.003  10.656  0.5269 -0.1668  0.1277
 5545TIP3    H138126   1.164   5.001  10.666  0.5742  0.8114 -0.0728
 5545TIP3    H238127   1.037   4.932  10.713  1.1673  1.5840  2.7741
 5546TIP3   OH238128   4.964   4.765  12.835  0.0491  0.3535  0.4642
 5546TIP3    H138129   4.931   4.680  12.867 -1.4511  0.8364  0.2495
 5546TIP3    H238130   4.919   4.777  12.752 -0.2749  1.6903  0.8279
 5547TIP3   OH238131   6.734   4.514  12.919 -0.3459  0.0918 -0.5898
 5547TIP3    H138132   6.749   4.420  12.911 -0.9333  0.1261 -2.3004
 5547TIP3    H238133   6.639   4.523  12.914 -0.2992  0.7696 -0.2543
 5548TIP3   OH238134   2.437   1.892  12.919 -0.4713 -0.0575  0.0233
 5548TIP3    H138135   2.516   1.851  12.953 -1.0810 -1.3431 -0.0535
 5548TIP3    H238136   2.451   1.986  12.930  0.0829 -0.3695  2.1675
 5549TIP3   OH238137   6.907   1.590  10.687  0.2519 -0.3372  0.3709
 5549TIP3    H138138   6.829   1.544  10.719  0.1982 -0.8490 -0.4828
 5549TIP3    H238139   6.959   1.522  10.644  0.3219  0.3497 -0.6353
 5550TIP3   OH238140   5.819   2.155  11.363 -0.4395  0.2382  0.4393
 5550TIP3    H138141   5.759   2.201  11.422 -0.3841  0.7973  0.0678
 5550TIP3    H238142   5.907   2.176  11.397 -0.4460 -0.5484  0.9609
 5551TIP3   OH238143   0.094   4.799  10.993 -1.0076  0.1783 -0.0085
 5551TIP3    H138144   0.071   4.766  11.079 -1.2248  2.2655  0.7523
 5551TIP3    H238145   0.033   4.870  10.977 -0.8053 -0.0222 -1.7870
 5552TIP3   OH238146   6.778   1.601  11.939  0.3824 -0.3219 -0.6200
 5552TIP3    H138147   6.858   1.645  11.909  0.7087  1.1322  2.2525
 5552TIP3    H238148   6.708   1.644  11.890  0.9552  1.6033  0.1905
 5553TIP3   OH238149   0.094   1.425   0.545  0.0987  0.3264  0.0144
 5553TIP3    H138150   0.079   1.459   0.633 -0.1825  1.1644 -0.3538
 5553TIP3    H238151   0.168   1.365   0.555  0.6836  1.1471  0.6511
 5554TIP3   OH238152   6.473   3.352  12.477  0.4805  0.6510  0.8269
 5554TIP3    H138153   6.513   3.265  12.475 -1.0306 -0.0290 -1.2751
 5554TIP3    H238154   6.380   3.336  12.464  0.1811  2.5694  0.4593
 5555TIP3   OH238155   3.204   4.745  14.637  0.0396 -0.3007 -0.2008
 5555TIP3    H138156   3.147   4.800  14.583  0.4798  0.5450  0.1900
 5555TIP3    H238157   3.291   4.756  14.599 -0.1109 -1.9292 -1.0669
 5556TIP3   OH238158   0.570   5.447  14.442  0.4741  0.0684  0.5559
 5556TIP3    H138159   0.613   5.470  14.525  0.2273  0.1641  0.6563
 5556TIP3    H238160   0.637   5.399  14.393  1.2397  1.6352  0.0501
 5557TIP3   OH238161   1.825   6.577  12.328  0.0854 -0.4368  0.7606
 5557TIP3    H138162   1.869   6.643  12.381  3.8970 -2.9818  1.0012
 5557TIP3    H238163   1.884   6.561  12.255 -1.8267 -1.9284 -0.5144
 5558TIP3   OH238164   6.412   2.546  12.942  0.3764  0.3041 -0.2567
 5558TIP3    H138165   6.457   2.494  13.009  0.8243 -1.2088 -1.7126
 5558TIP3    H238166   6.332   2.497  12.924  1.2295 -0.3715 -2.2844
 5559TIP3   OH238167   5.654   6.646  10.984 -0.1814  0.0748  0.0760
 5559TIP3    H138168   5.738   6.684  11.009  0.2377 -0.2936 -0.7405
 5559TIP3    H238169   5.673   6.597  10.904 -0.7653 -1.6284  0.9508
 5560TIP3   OH238170   5.678   4.676  12.944  0.4085 -0.0309  0.1087
 5560TIP3    H138171   5.737   4.604  12.967  0.0408 -0.0318  1.0458
 5560TIP3    H238172   5.699   4.695  12.852  0.4272 -1.4136 -0.1910
 5561TIP3   OH238173   6.347   3.988  15.568 -0.6161 -0.2474  0.1035
 5561TIP3    H138174   6.364   4.080  15.549  2.7419 -1.1792 -1.9732
 5561TIP3    H238175   6.335   3.948  15.482 -1.8987 -1.7921  0.9701
 5562TIP3   OH238176   0.140   6.881  12.546  1.1026 -0.0691 -0.1060
 5562TIP3    H138177   0.176   6.802  12.586  1.0973 -0.3251 -0.5996
 5562TIP3    H238178   0.204   6.905  12.479  1.0142  0.2417 -0.0799
 5563TIP3   OH238179   0.995   1.714  14.236  0.4185  0.0247  0.3327
 5563TIP3    H138180   1.005   1.620  14.250 -2.6460 -0.2204  1.2292
 5563TIP3    H238181   0.929   1.722  14.168  1.2758  1.5543 -0.3664
 5564TIP3   OH238182   0.989   1.080  10.573 -0.0863 -0.1269  0.2902
 5564TIP3    H138183   1.072   1.032  10.569 -0.8299 -1.3519 -0.6947
 5564TIP3    H238184   0.927   1.018  10.611 -0.8960  0.2937 -0.3245
 5565TIP3   OH238185   5.816   6.962  11.301  0.7819 -0.7103  0.1450
 5565TIP3    H138186   5.904   6.944  11.269  0.9463 -0.0206  0.2002
 5565TIP3    H238187   5.792   6.883  11.349  2.0478 -0.2316  1.6046
 5566TIP3   OH238188   4.383   5.949   1.261 -0.0547  0.4127 -0.3820
 5566TIP3    H138189   4.386   5.866   1.307  1.6859  0.9512  0.5192
 5566TIP3    H238190   4.316   6.000   1.306 -0.0789  0.0335  0.0100
 5567TIP3   OH238191   1.493   6.353  12.662 -0.6310 -0.4244  0.0863
 5567TIP3    H138192   1.510   6.310  12.579  0.5297  0.3768 -0.1051
 5567TIP3    H238193   1.522   6.290  12.728  1.2819  0.1417 -0.1962
 5568TIP3   OH238194   5.174   4.156  10.154  0.6233 -0.3276  0.0537
 5568TIP3    H138195   5.182   4.159  10.059 -0.2544  1.9077  0.0209
 5568TIP3    H238196   5.108   4.222  10.175  1.7876  0.1818  2.3261
 5569TIP3   OH238197   5.741   4.652  14.331  0.3254 -0.4117 -0.2415
 5569TIP3    H138198   5.760   4.638  14.238  1.2061  0.1417 -0.1424
 5569TIP3    H238199   5.688   4.576  14.356  0.5055 -0.8120 -1.0718
 5570TIP3   OH238200   6.084   6.191  11.578  0.7221  0.7622 -0.7481
 5570TIP3    H138201   6.108   6.268  11.629  0.3341 -1.3876  2.8874
 5570TIP3    H238202   6.168   6.148  11.560  0.7744  0.9918 -1.0627
 5571TIP3   OH238203   4.698   3.150  10.904  0.6046  0.3585 -0.4724
 5571TIP3    H138204   4.680   3.110  10.819  0.0827 -1.0145  0.2581
 5571TIP3    H238205   4.614   3.151  10.949  1.3926 -1.7965  1.1823
 5572TIP3   OH238206   1.516   1.081  13.863  0.4474 -0.3726 -0.1309
 5572TIP3    H138207   1.516   1.176  13.861  0.8605 -0.3756 -0.3891
 5572TIP3    H238208   1.581   1.056  13.797  1.0212 -0.8225  0.5962
 5573TIP3   OH238209   4.852   3.678  13.133  0.6216 -0.1935  0.0708
 5573TIP3    H138210   4.789   3.644  13.196 -1.9271  0.8163 -1.8055
 5573TIP3    H238211   4.843   3.620  13.057  1.5945  0.2681 -0.4038
 5574TIP3   OH238212   0.878   0.980   1.595  0.2705  0.4957  0.0355
 5574TIP3    H138213   0.873   0.893   1.634 -2.6975  0.2130 -0.8738
 5574TIP3    H238214   0.939   0.969   1.521 -0.9220 -1.1069 -0.7477
 5575TIP3   OH238215   5.231   0.627  11.552 -0.1267 -0.2089 -0.2156
 5575TIP3    H138216   5.251   0.656  11.463 -1.5545  1.5403  0.0060
 5575TIP3    H238217   5.137   0.610  11.551 -0.1063 -0.4311  0.8820
 5576TIP3   OH238218   3.309   5.786  11.866  0.3359 -0.2378 -0.5221
 5576TIP3    H138219   3.227   5.832  11.847  0.4861  0.5442  0.7039
 5576TIP3    H238220   3.368   5.854  11.898  0.8721 -1.1147  0.3845
 5577TIP3   OH238221   1.995   6.126  10.857 -0.0502 -0.0517  0.2533
 5577TIP3    H138222   1.938   6.170  10.794 -0.2706  3.7935  2.9073
 5577TIP3    H238223   2.081   6.167  10.844 -0.2079  1.1702  2.6361
 5578TIP3   OH238224   6.236   5.188  12.607 -0.4068  0.1069  0.0492
 5578TIP3    H138225   6.331   5.178  12.615 -0.6920 -2.9931  0.1247
 5578TIP3    H238226   6.200   5.122  12.666 -2.6317  1.4901  0.2718
 5579TIP3   OH238227   5.621   5.987  12.471  0.0267 -0.3327  0.3988
 5579TIP3    H138228   5.611   5.917  12.535 -0.8219 -1.3875 -0.8763
 5579TIP3    H238229   5.554   5.969  12.405  0.8904  0.7460 -0.7882
 5580TIP3   OH238230   6.199   4.749  14.814 -0.3528  0.3881 -0.3050
 5580TIP3    H138231   6.212   4.740  14.720  2.3189  3.6436 -0.3511
 5580TIP3    H238232   6.287   4.761  14.850 -1.4601  0.9295  2.4011
 5581TIP3   OH238233   0.459   4.558  14.113 -0.4963  0.4501 -0.1598
 5581TIP3    H138234   0.367   4.544  14.135 -0.1903  0.1449  0.9773
 5581TIP3    H238235   0.507   4.511  14.181  0.5036  0.4956 -0.8160
 5582TIP3   OH238236   6.593   0.310  14.131  0.3376  0.6474  0.3472
 5582TIP3    H138237   6.607   0.372  14.060 -0.2093  1.6650  1.1112
 5582TIP3    H238238   6.656   0.239  14.114  1.5083  1.7692 -0.1188
 5583TIP3   OH238239   7.037   2.418   0.655  0.3296 -0.3895 -0.0029
 5583TIP3    H138240   7.124   2.392   0.686  0.2657 -1.7887 -0.9934
 5583TIP3    H238241   7.015   2.355   0.588 -1.4174  0.0392  0.1414
 5584TIP3   OH238242   0.687   6.953  15.096 -0.0126  0.0261 -0.5220
 5584TIP3    H138243   0.674   6.885  15.030 -2.8785  1.1919 -1.2015
 5584TIP3    H238244   0.778   6.941  15.125  0.0532 -2.9852 -1.8306
 5585TIP3   OH238245   2.838   4.035  13.340 -0.3188 -0.1349  0.3764
 5585TIP3    H138246   2.887   4.025  13.259 -1.2465 -1.7017 -0.0348
 5585TIP3    H238247   2.846   4.127  13.363 -1.4455  0.7196 -2.4180
 5586TIP3   OH238248   1.071   1.408  11.382  0.6259 -0.3549  0.4557
 5586TIP3    H138249   1.023   1.344  11.330  1.5416 -0.0466 -0.8114
 5586TIP3    H238250   1.075   1.486  11.326  0.9271  0.2587  1.3199
 5587TIP3   OH238251   5.026   4.417  10.436  0.8517  0.5399  0.2146
 5587TIP3    H138252   5.004   4.390  10.347 -0.7586  1.5139  0.3040
 5587TIP3    H238253   5.076   4.498  10.424  0.9859  0.4555  0.1940
 5588TIP3   OH238254   2.598   4.857  11.429  0.4799  0.0353 -0.2415
 5588TIP3    H138255   2.579   4.772  11.389 -0.2114 -0.4144  1.0049
 5588TIP3    H238256   2.669   4.840  11.491 -1.7003 -0.3241  2.2812
 5589TIP3   OH238257   3.152   5.416  10.514  0.2986  0.0669 -0.1651
 5589TIP3    H138258   3.089   5.460  10.457  0.0593  0.5732  0.4756
 5589TIP3    H238259   3.163   5.329  10.476 -0.8356 -0.0452 -0.2638
 5590TIP3   OH238260   6.334   5.670  12.273 -0.1996 -0.2309  0.1933
 5590TIP3    H138261   6.284   5.746  12.304  0.8103  0.3752  0.3720
 5590TIP3    H238262   6.277   5.595  12.289 -1.2748  0.5114 -0.1366
 5591TIP3   OH238263   1.578   3.568  13.304 -0.5439 -0.4254  0.0346
 5591TIP3    H138264   1.590   3.473  13.306 -1.3322 -0.5130  1.0202
 5591TIP3    H238265   1.633   3.601  13.375  0.2002 -0.0889 -0.6961
 5592TIP3   OH238266   6.049   3.789  13.298  0.3666 -0.3707 -0.8037
 5592TIP3    H138267   5.960   3.782  13.332  0.4009 -0.2891 -0.6984
 5592TIP3    H238268   6.072   3.881  13.311  0.9410 -0.6705  0.3386
 5593TIP3   OH238269   1.172   3.907   0.566 -0.8304  0.0442 -0.4498
 5593TIP3    H138270   1.147   3.882   0.654 -1.5456  1.5197 -0.2092
 5593TIP3    H238271   1.246   3.966   0.578 -0.3184 -0.5044 -0.8929
 5594TIP3   OH238272   4.278   3.418  13.310 -0.9554  0.2312 -0.3258
 5594TIP3    H138273   4.247   3.331  13.285  0.4352 -0.6467  0.9628
 5594TIP3    H238274   4.341   3.441  13.241  0.1698 -0.6469  0.3940
 5595TIP3   OH238275   6.854   5.350   9.915 -0.6776 -0.0005  0.3644
 5595TIP3    H138276   6.822   5.295   9.843 -1.5734  1.6573 -0.5375
 5595TIP3    H238277   6.775   5.391   9.951 -0.1468 -0.2051  1.7851
 5596TIP3   OH238278   5.534   3.783  14.079 -0.3421  0.0847 -0.8270
 5596TIP3    H138279   5.513   3.696  14.114 -0.2229  0.1029 -0.7093
 5596TIP3    H238280   5.467   3.840  14.116  0.4542  0.3112  0.2937
 5597TIP3   OH238281   2.465   5.386  12.461 -0.2027  0.1785  1.1598
 5597TIP3    H138282   2.556   5.355  12.457 -0.1781 -0.4874  5.1356
 5597TIP3    H238283   2.413   5.309  12.439  0.1397  0.1671  0.3595
 5598TIP3   OH238284   0.059   2.430  10.857 -0.1080  0.9407 -0.0768
 5598TIP3    H138285   0.089   2.352  10.903  1.9995  1.5469 -0.3838
 5598TIP3    H238286  -0.011   2.399  10.800 -1.9168 -0.0455  2.6030
 5599TIP3   OH238287   5.718   1.763  11.030 -0.1377  0.2332 -0.0412
 5599TIP3    H138288   5.633   1.753  10.987 -0.4001  1.5575  0.1179
 5599TIP3    H238289   5.701   1.823  11.102  0.6859 -0.4811  0.7520
 5600TIP3   OH238290   5.267   1.531  13.582 -0.0176 -0.1338 -0.0236
 5600TIP3    H138291   5.352   1.489  13.567  0.2065  0.8787 -1.7965
 5600TIP3    H238292   5.218   1.513  13.501 -1.2429 -0.1246  0.7125
 5601TIP3   OH238293   5.984   1.283  14.476 -0.1545 -0.0757  0.0537
 5601TIP3    H138294   5.980   1.375  14.447  0.9852 -0.3277 -0.9509
 5601TIP3    H238295   6.064   1.279  14.529 -0.2432 -0.4744  0.1515
 5602TIP3   OH238296   3.622   2.397  12.494 -0.0449  0.2151  0.2404
 5602TIP3    H138297   3.586   2.486  12.500 -2.1430 -0.6752  0.9979
 5602TIP3    H238298   3.713   2.411  12.466 -0.6903  2.5429 -0.8597
 5603TIP3   OH238299   2.822   4.743  15.543  0.1295 -0.4173 -0.2551
 5603TIP3    H138300   2.791   4.759  15.632  1.9574 -1.7126  0.6576
 5603TIP3    H238301   2.914   4.772  15.544 -0.3415  1.2963 -2.2576
 5604TIP3   OH238302   0.929   3.498  14.533 -0.1076 -0.6080  0.1475
 5604TIP3    H138303   0.934   3.456  14.447 -2.0543 -1.6523  0.5080
 5604TIP3    H238304   0.858   3.562  14.524  1.2116  0.9259  0.3310
 5605TIP3   OH238305   4.374   5.497   0.878 -0.4645  0.3003  0.8362
 5605TIP3    H138306   4.324   5.415   0.882 -0.4669  0.3390  1.8346
 5605TIP3    H238307   4.308   5.566   0.876 -0.4717  0.2475 -1.0504
 5606TIP3   OH238308   6.126   3.684  12.368  0.0102  0.0288 -0.1913
 5606TIP3    H138309   6.105   3.773  12.396  0.5414  0.6931 -1.8401
 5606TIP3    H238310   6.219   3.687  12.347  0.1061 -1.0030  0.0832
 5607TIP3   OH238311   2.165   6.315  11.805 -0.5022 -0.0017  0.1894
 5607TIP3    H138312   2.210   6.393  11.837 -1.1808 -0.0168  1.2372
 5607TIP3    H238313   2.139   6.337  11.715  0.4279  0.4931  0.0407
 5608TIP3   OH238314   6.110   4.339  11.257 -0.4250 -0.1681 -0.3734
 5608TIP3    H138315   6.096   4.369  11.167  1.2787  0.4921 -0.4258
 5608TIP3    H238316   6.031   4.368  11.304 -1.4128 -0.6775 -1.6752
 5609TIP3   OH238317   4.295   1.122  13.919 -0.0663  0.2007  0.2263
 5609TIP3    H138318   4.362   1.152  13.857 -0.4534  0.4814 -0.0609
 5609TIP3    H238319   4.344   1.073  13.985  0.0867 -2.1777 -1.6040
 5610TIP3   OH238320   5.576   4.167  14.141 -0.5854 -0.7478  0.5576
 5610TIP3    H138321   5.552   4.251  14.180 -0.7910 -0.3767 -0.3697
 5610TIP3    H238322   5.498   4.138  14.094 -0.3161 -1.1622  0.3563
 5611TIP3   OH238323   0.166   5.578  13.296  0.0808 -0.0112  0.5007
 5611TIP3    H138324   0.172   5.529  13.377 -1.4543  0.0125  0.6409
 5611TIP3    H238325   0.072   5.583  13.277  0.2620  1.8756 -0.0973
 5612TIP3   OH238326   2.514   6.456  11.221 -0.4085  0.5180  0.3244
 5612TIP3    H138327   2.512   6.434  11.128 -1.0698 -1.3109  0.7614
 5612TIP3    H238328   2.607   6.457  11.243 -0.3232 -0.6228  0.0199
 5613TIP3   OH238329   6.862   5.247  12.858 -0.2163  0.5211  0.3769
 5613TIP3    H138330   6.915   5.231  12.936  0.9553 -0.2001 -0.5530
 5613TIP3    H238331   6.773   5.256  12.891 -0.0241 -1.7918  1.6266
 5614TIP3   OH238332   3.767   0.145  12.527  0.1051 -0.6043  0.0484
 5614TIP3    H138333   3.812   0.075  12.481 -0.5247 -0.2167 -1.2110
 5614TIP3    H238334   3.697   0.171  12.467 -0.3666  0.3336  0.9837
 5615TIP3   OH238335   0.771   1.141  12.831  0.5504  0.3611  0.0531
 5615TIP3    H138336   0.713   1.065  12.837  3.6369 -2.1003 -0.4125
 5615TIP3    H238337   0.743   1.197  12.904 -1.0545 -1.6925  1.0903
 5616TIP3   OH238338   6.819   4.768  10.443  0.2978 -0.2867 -0.0076
 5616TIP3    H138339   6.885   4.837  10.449  1.0971 -0.7620 -2.8334
 5616TIP3    H238340   6.768   4.790  10.365  0.0347 -2.4356 -0.4724
 5617TIP3   OH238341   2.451   5.744  13.870 -0.1097  0.4365 -0.3083
 5617TIP3    H138342   2.501   5.812  13.828  0.5610 -1.0153 -1.9001
 5617TIP3    H238343   2.370   5.738  13.819 -1.0219  1.3603  1.0031
 5618TIP3   OH238344   5.679   5.542  14.247  0.4462  0.1264  0.0767
 5618TIP3    H138345   5.600   5.546  14.193 -1.0683  0.2425  2.2437
 5618TIP3    H238346   5.726   5.622  14.226 -0.7218  0.7603 -0.1773
 5619TIP3   OH238347   6.803   6.411  10.494  0.2048 -0.5127 -0.3799
 5619TIP3    H138348   6.719   6.372  10.521 -0.1641 -0.2807 -1.1918
 5619TIP3    H238349   6.779   6.490  10.447  0.9152 -0.0068  0.0942
 5620TIP3   OH238350   5.955   3.716   1.373  0.2325  0.0020 -0.2363
 5620TIP3    H138351   5.929   3.807   1.385  0.3037  0.2870 -2.0332
 5620TIP3    H238352   5.903   3.667   1.436  2.5380  1.6062  3.0472
 5621TIP3   OH238353   2.300   1.568  10.547 -0.1079 -0.0938 -0.3442
 5621TIP3    H138354   2.319   1.615  10.629 -0.3799  1.8312 -1.3424
 5621TIP3    H238355   2.322   1.477  10.565  0.4853  0.4308  1.6598
 5622TIP3   OH238356   6.070   6.638  12.790 -0.6693  0.3452 -0.1704
 5622TIP3    H138357   6.044   6.728  12.809  0.7924  0.4774  1.3344
 5622TIP3    H238358   5.996   6.585  12.820 -0.7724  0.9303  0.6382
 5623TIP3   OH238359   1.946   4.704   0.341  0.1960  0.2393 -0.4168
 5623TIP3    H138360   1.934   4.734   0.432  0.3555 -0.6672 -0.0898
 5623TIP3    H238361   1.947   4.608   0.348 -1.8581  0.1090 -1.6438
 5624TIP3   OH238362   0.301   5.942  11.735 -0.1938 -0.2404 -0.1401
 5624TIP3    H138363   0.243   6.006  11.694  0.3378  2.4892  3.0921
 5624TIP3    H238364   0.367   5.995  11.780  1.7968 -3.1488  0.5313
 5625TIP3   OH238365   5.264   4.397  11.300 -0.4135  0.3456  0.5501
 5625TIP3    H138366   5.282   4.416  11.393 -0.2156 -2.7995  1.2052
 5625TIP3    H238367   5.258   4.302  11.296  0.4138  0.3953 -2.8550
 5626TIP3   OH238368   2.179   0.538  11.673  0.0599 -0.3148 -0.0937
 5626TIP3    H138369   2.157   0.630  11.661  1.8383 -0.1300 -2.2594
 5626TIP3    H238370   2.271   0.538  11.702  0.1816 -1.4028 -0.4397
 5627TIP3   OH238371   4.123   4.487  13.562 -0.2949 -0.3898  0.2499
 5627TIP3    H138372   4.057   4.484  13.493  1.3182 -0.9507 -1.3121
 5627TIP3    H238373   4.086   4.434  13.633 -1.5006 -0.7218 -0.6139
 5628TIP3   OH238374   5.854   2.497  11.108 -0.6511  0.4017  0.1230
 5628TIP3    H138375   5.851   2.565  11.040 -2.4415  0.7176  0.4832
 5628TIP3    H238376   5.944   2.465  11.106  0.3941  3.1802  0.3089
 5629TIP3   OH238377   5.422   2.563  12.069 -0.2012  0.5313  0.4166
 5629TIP3    H138378   5.415   2.653  12.040  2.1132  0.8580  0.7375
 5629TIP3    H238379   5.498   2.563  12.128  1.1268 -1.9996 -1.2007
 5630TIP3   OH238380   3.935   6.885  12.286 -0.2918 -0.2517 -0.0469
 5630TIP3    H138381   4.011   6.916  12.238  0.1115  0.2769  0.9121
 5630TIP3    H238382   3.902   6.812  12.235 -0.2357  0.6811 -1.4381
 5631TIP3   OH238383   3.257   4.207  11.299  0.2259  0.3539  0.2923
 5631TIP3    H138384   3.304   4.189  11.381  1.4656 -1.8920 -0.8657
 5631TIP3    H238385   3.185   4.145  11.298 -0.3154  0.9765  0.0824
 5632TIP3   OH238386   2.104   4.127  13.017  0.6730  0.1580  0.2672
 5632TIP3    H138387   2.144   4.062  13.076 -0.5678 -2.3701 -1.6057
 5632TIP3    H238388   2.022   4.151  13.060  0.4649 -0.5560  0.2622
 5633TIP3   OH238389   2.324   1.526  13.493 -0.2108 -0.2283  0.3582
 5633TIP3    H138390   2.397   1.479  13.454  0.3680  1.0312 -0.1343
 5633TIP3    H238391   2.262   1.537  13.421 -0.2360 -0.0516  0.4045
 5634TIP3   OH238392   5.647   0.666  10.275 -0.4558 -0.4290  0.7693
 5634TIP3    H138393   5.587   0.676  10.349  0.4736 -3.2077  1.9591
 5634TIP3    H238394   5.619   0.585  10.233  2.1336 -1.4838  1.0275
 5635TIP3   OH238395   4.125   0.188  11.607 -0.2169 -0.0897 -1.0371
 5635TIP3    H138396   4.074   0.261  11.571  2.1096  1.5119 -1.2491
 5635TIP3    H238397   4.083   0.167  11.690 -1.0686  1.3585 -1.0888
 5636TIP3   OH238398   5.039   2.671  11.896 -0.3849  0.2909 -0.4745
 5636TIP3    H138399   5.031   2.766  11.908 -1.2436  0.5146 -2.7378
 5636TIP3    H238400   5.038   2.658  11.802  1.1868 -1.8722 -0.2270
 5637TIP3   OH238401   0.249   3.716  14.044  0.2187  0.0413 -0.2385
 5637TIP3    H138402   0.175   3.696  14.101  0.8466 -0.9022  0.2577
 5637TIP3    H238403   0.245   3.649  13.976  2.7632 -2.2887  1.8322
 5638TIP3   OH238404   7.139   5.738  11.559  1.0062 -0.4115 -0.9286
 5638TIP3    H138405   7.077   5.665  11.563  0.7468 -0.2224 -1.4614
 5638TIP3    H238406   7.096   5.808  11.609 -0.1384  0.4007 -3.0017
 5639TIP3   OH238407   4.988   3.374  12.046 -0.3865 -0.2649  0.0540
 5639TIP3    H138408   5.079   3.349  12.032 -0.3683 -0.9842  1.3537
 5639TIP3    H238409   4.976   3.452  11.992  0.6215 -0.9094 -1.1337
 5640TIP3   OH238410   1.916   3.520   1.235 -0.6225 -0.2902 -0.3443
 5640TIP3    H138411   1.993   3.492   1.185 -1.4048 -2.0782 -0.5822
 5640TIP3    H238412   1.848   3.535   1.169 -0.7844  0.3095 -0.0524
 5641TIP3   OH238413   2.784   5.255  12.592  0.4916  0.0009  0.4820
 5641TIP3    H138414   2.809   5.165  12.570 -1.8832 -0.8284  1.0113
 5641TIP3    H238415   2.756   5.250  12.683  0.9732  1.4308  0.7186
 5642TIP3   OH238416   5.894   3.545  10.010  0.2009  0.2635  0.0506
 5642TIP3    H138417   5.904   3.605  10.084 -2.1037 -0.2712  0.8433
 5642TIP3    H238418   5.815   3.575   9.965 -0.0657 -1.1776 -0.4828
 5643TIP3   OH238419   3.859   4.146  10.599  0.1329  0.8430  0.4366
 5643TIP3    H138420   3.784   4.156  10.541 -0.4408 -0.5015  0.9172
 5643TIP3    H238421   3.827   4.167  10.686 -0.7206 -3.3030  1.2265
 5644TIP3   OH238422   5.701   1.997   1.330 -0.3259 -0.4333  0.0792
 5644TIP3    H138423   5.656   1.918   1.301 -1.1890 -0.2656  0.9231
 5644TIP3    H238424   5.633   2.064   1.332  0.3384  0.2631 -0.3371
 5645TIP3   OH238425   4.361   1.597  15.402  0.2305 -0.6710 -0.3060
 5645TIP3    H138426   4.292   1.535  15.427 -0.7524  1.6346  3.0729
 5645TIP3    H238427   4.314   1.678  15.383  1.8430  0.2860 -0.2262
 5646TIP3   OH238428   6.139   3.488  11.759  0.2848 -0.4247 -0.0037
 5646TIP3    H138429   6.129   3.433  11.682  0.5893 -1.7992  0.9246
 5646TIP3    H238430   6.100   3.437  11.830 -1.9118  1.7059  0.3820
 5647TIP3   OH238431   3.156   7.072  12.472  0.2427  0.0183  0.1090
 5647TIP3    H138432   3.233   7.117  12.506  0.3311 -0.4455  0.5241
 5647TIP3    H238433   3.137   7.005  12.537  0.0379 -0.4665 -0.4523
 5648TIP3   OH238434   6.026   2.310  11.494 -0.1592 -0.4556  0.2476
 5648TIP3    H138435   6.104   2.255  11.490  0.3607  0.3894 -2.4091
 5648TIP3    H238436   6.058   2.399  11.485 -1.2956  0.0428  0.9682
 5649TIP3   OH238437   0.437   4.068  10.484 -0.1373 -0.3499 -0.2198
 5649TIP3    H138438   0.359   4.024  10.450 -0.2309 -0.8865  0.6793
 5649TIP3    H238439   0.472   4.007  10.549  0.1479  0.5774  0.5036
 5650TIP3   OH238440   3.059   5.934  13.049 -0.1424 -0.5627 -0.0650
 5650TIP3    H138441   3.130   5.936  12.984  0.7043 -0.0650  0.8479
 5650TIP3    H238442   2.998   5.868  13.015  0.3177 -0.3702 -1.3195
 5651TIP3   OH238443   3.007   1.284  14.955 -0.2652  0.1086  0.9001
 5651TIP3    H138444   3.032   1.194  14.935 -3.4716 -0.4360 -1.0573
 5651TIP3    H238445   3.082   1.337  14.927  1.9153 -1.9476  2.6821
 5652TIP3   OH238446   6.304   6.991  13.885  0.6210 -0.3361  0.1553
 5652TIP3    H138447   6.367   6.938  13.836  0.7951 -1.4509  1.5525
 5652TIP3    H238448   6.358   7.052  13.936  0.5106 -0.1851  0.0920
 5653TIP3   OH238449   4.913   6.699  12.302  0.5900  0.4091 -0.2739
 5653TIP3    H138450   4.936   6.608  12.324 -0.0493  0.2411 -0.2625
 5653TIP3    H238451   4.850   6.724  12.370 -0.6129  0.2363 -1.2894
 5654TIP3   OH238452   0.912   5.488  15.303  1.0028 -0.0971 -0.0743
 5654TIP3    H138453   0.932   5.404  15.344  0.7466 -0.4745 -0.7167
 5654TIP3    H238454   0.957   5.485  15.219  1.5612  0.6947  0.1800
 5655TIP3   OH238455   4.112   5.840   0.151 -0.3879 -0.1565  0.0087
 5655TIP3    H138456   4.146   5.803   0.233 -0.9947 -4.3068 -1.4806
 5655TIP3    H238457   4.188   5.841   0.093  0.1487  3.2161  0.6610
 5656TIP3   OH238458   5.421   6.507   0.095 -0.6132 -0.4749 -0.2439
 5656TIP3    H138459   5.337   6.477   0.060 -0.8178  0.3429 -0.4680
 5656TIP3    H238460   5.468   6.426   0.119 -0.8498 -1.0053 -1.5301
 5657TIP3   OH238461   5.326   3.288  13.106  0.2195  0.1826  0.1990
 5657TIP3    H138462   5.355   3.201  13.136 -1.5680 -0.6513 -0.4048
 5657TIP3    H238463   5.243   3.303  13.151 -0.7623  0.4390 -1.6210
 5658TIP3   OH238464   6.404   2.393  11.370  0.2428 -0.9851 -0.1680
 5658TIP3    H138465   6.341   2.453  11.331  0.2590 -0.0896  1.1552
 5658TIP3    H238466   6.489   2.422  11.338  0.0135 -2.2855 -2.0768
 5659TIP3   OH238467   0.862   5.854  12.846  0.0354 -0.3357  0.7281
 5659TIP3    H138468   0.891   5.836  12.935 -2.3369  1.6036  1.9432
 5659TIP3    H238469   0.885   5.946  12.831  2.0809 -1.1151 -1.3975
 5660TIP3   OH238470   0.337   0.912  12.511 -0.5353 -0.2147  0.3841
 5660TIP3    H138471   0.248   0.890  12.538 -1.4967  0.5726 -2.0231
 5660TIP3    H238472   0.334   0.912  12.416  1.6356  1.4399  0.2727
 5661TIP3   OH238473   6.220   5.829  13.833  0.2969 -0.2951  0.3231
 5661TIP3    H138474   6.139   5.781  13.820 -0.2402  0.7809 -0.3991
 5661TIP3    H238475   6.284   5.763  13.858  0.0649 -1.6936 -2.6549
 5662TIP3   OH238476   1.529   1.844  14.178  0.4874 -0.2356 -0.5833
 5662TIP3    H138477   1.615   1.811  14.203  0.5875  1.1855  1.0352
 5662TIP3    H238478   1.532   1.850  14.083  1.8146 -1.1684 -0.6053
 5663TIP3   OH238479   2.157   4.791   9.635  0.4467 -0.1297  0.3278
 5663TIP3    H138480   2.123   4.875   9.603  0.3899  0.5539  2.0834
 5663TIP3    H238481   2.079   4.743   9.663  0.6039 -0.1035  0.8215
 5664TIP3   OH238482   0.556   4.017  13.822 -0.6887 -0.6212  0.4268
 5664TIP3    H138483   0.630   4.064  13.783 -0.8145 -0.4569  0.3853
 5664TIP3    H238484   0.507   4.084  13.870 -1.1956 -0.5967 -0.1173
 5665TIP3   OH238485   0.783   7.006  10.689  0.4521 -0.0486  0.7261
 5665TIP3    H138486   0.736   6.942  10.742  1.4514 -0.8256  0.7029
 5665TIP3    H238487   0.739   7.005  10.604  0.4230 -0.6738  0.7456
 5666TIP3   OH238488   2.609   6.396  14.260 -0.1184  1.0513  0.0623
 5666TIP3    H138489   2.526   6.378  14.215  0.1806 -0.8431  0.2605
 5666TIP3    H238490   2.659   6.315  14.252  0.8067  1.4147  1.9389
 5667TIP3   OH238491   5.641   0.190   0.607 -0.2320  0.3147 -0.0492
 5667TIP3    H138492   5.656   0.105   0.647 -1.6170  1.6871  3.6163
 5667TIP3    H238493   5.714   0.244   0.637 -0.4934  0.9844 -0.5974
 5668TIP3   OH238494   6.941   3.542  14.112 -0.9259  0.1732  0.2569
 5668TIP3    H138495   6.862   3.545  14.059  0.4000 -1.6128 -1.9182
 5668TIP3    H238496   7.001   3.603  14.070 -0.6637  0.5059  1.0915
 5669TIP3   OH238497   4.723   5.377  12.465  0.3417 -0.1119 -0.2140
 5669TIP3    H138498   4.710   5.433  12.388 -2.3553  1.5881  1.3979
 5669TIP3    H238499   4.644   5.323  12.468  0.4558 -0.1940  1.3544
 5670TIP3   OH238500   3.639   4.753  12.197  0.5235  0.2154  0.4869
 5670TIP3    H138501   3.605   4.676  12.242  0.6644 -0.9714 -1.3942
 5670TIP3    H238502   3.733   4.736  12.187  0.5903  0.7158  0.2424
 5671TIP3   OH238503   0.678   2.305  13.100  0.1798 -0.0862  0.2870
 5671TIP3    H138504   0.668   2.264  13.186 -0.2834  0.6682  0.5960
 5671TIP3    H238505   0.644   2.394  13.111  1.1154  0.3649 -0.3977
 5672TIP3   OH238506   1.011   2.342  11.365 -0.0259 -0.5002 -0.2947
 5672TIP3    H138507   1.091   2.378  11.327 -0.4086  2.0282  1.2148
 5672TIP3    H238508   1.021   2.357  11.459 -2.6246  0.5495 -0.1706
 5673TIP3   OH238509   7.168   4.044  13.331  0.2312  0.6151  0.1745
 5673TIP3    H138510   7.111   4.090  13.270  1.0770  0.7654 -0.5149
 5673TIP3    H238511   7.216   4.113  13.377 -0.2630  0.4960  0.8821
 5674TIP3   OH238512   6.494   3.790   3.885 -0.1198 -0.5814  0.2135
 5674TIP3    H138513   6.438   3.862   3.855  0.3087 -1.7758 -3.7226
 5674TIP3    H238514   6.434   3.723   3.916 -0.7020 -0.2864 -0.2780
 5675TIP3   OH238515   4.590   2.102  10.138  0.1768  0.3400 -0.6744
 5675TIP3    H138516   4.668   2.154  10.159 -1.0893  1.8772  0.4532
 5675TIP3    H238517   4.518   2.166  10.140 -1.4704 -1.4745  0.9170
 5676TIP3   OH238518   7.142   0.904  10.316 -0.1990 -0.1122  0.1447
 5676TIP3    H138519   7.209   0.924  10.380  0.3654  2.4042 -1.1624
 5676TIP3    H238520   7.060   0.901  10.367  0.1873  2.1689  0.9825
 5677TIP3   OH238521   0.856   3.039  11.773  0.2476 -0.5551 -0.5395
 5677TIP3    H138522   0.920   3.082  11.829 -2.4044 -0.7533  2.7996
 5677TIP3    H238523   0.780   3.097  11.775 -1.2230 -2.4285 -0.8957
 5678TIP3   OH238524   4.231   5.354  14.882  0.0658  0.3609 -0.6914
 5678TIP3    H138525   4.254   5.268  14.916  0.3248  0.5377 -0.4090
 5678TIP3    H238526   4.153   5.340  14.828  0.2657 -0.0906 -0.8617
 5679TIP3   OH238527   3.109   3.106  13.468 -0.2015 -0.6191  0.5203
 5679TIP3    H138528   3.042   3.062  13.415 -0.0822  0.8248 -0.9014
 5679TIP3    H238529   3.112   3.195  13.432  2.6912 -0.7379  0.3422
 5680TIP3   OH238530   7.083   0.273  14.511  0.3501  0.5902  0.2874
 5680TIP3    H138531   7.095   0.367  14.493 -1.1050  0.6981 -0.2220
 5680TIP3    H238532   7.165   0.233  14.482 -0.0633  1.3776 -2.1189
 5681TIP3   OH238533   6.542   1.952  11.350 -0.2164 -0.6246 -0.2256
 5681TIP3    H138534   6.629   1.916  11.368 -0.3694 -0.8333  0.1040
 5681TIP3    H238535   6.484   1.876  11.349 -0.7763 -0.2763  1.8914
 5682TIP3   OH238536   2.837   6.742  12.729  0.0730 -0.2300  0.5938
 5682TIP3    H138537   2.833   6.667  12.670  0.4148  0.3846 -0.2248
 5682TIP3    H238538   2.814   6.707  12.815  2.1824 -1.6756  0.5996
 5683TIP3   OH238539   6.040   6.584   0.707 -0.3330  0.3419  0.0389
 5683TIP3    H138540   6.107   6.628   0.655  0.9623 -2.3250 -0.6319
 5683TIP3    H238541   6.083   6.566   0.791 -0.9434  0.6137  0.4145
 5684TIP3   OH238542   4.366   6.881  12.437 -0.2668  0.8408 -0.2741
 5684TIP3    H138543   4.443   6.923  12.475  0.5909  0.0349 -1.0893
 5684TIP3    H238544   4.374   6.897  12.343 -0.2924 -0.5549 -0.5244
 5685TIP3   OH238545   0.379   3.330  10.151  0.2526 -0.0297 -0.4141
 5685TIP3    H138546   0.295   3.287  10.166  0.9323 -1.8646 -1.8204
 5685TIP3    H238547   0.366   3.418  10.187 -2.1119 -0.4208 -0.1874
 5686TIP3   OH238548   6.398   5.870  11.615  0.9158  0.1501 -0.4563
 5686TIP3    H138549   6.423   5.821  11.693  1.2279 -0.1300 -0.7330
 5686TIP3    H238550   6.307   5.895  11.630  0.0176 -2.5097 -1.3570
 5687TIP3   OH238551   0.252   5.204  11.971  0.2054  0.3942  0.4055
 5687TIP3    H138552   0.316   5.191  12.041 -0.8476 -1.8666  1.0035
 5687TIP3    H238553   0.200   5.123  11.971 -1.4050  1.3898 -1.3421
 5688TIP3   OH238554   1.941   5.393  11.072  0.1619 -0.8496  0.4950
 5688TIP3    H138555   2.009   5.390  11.139  0.1240 -1.6456  0.5094
 5688TIP3    H238556   1.863   5.424  11.118  0.6354  0.5473  0.3669
 5689TIP3   OH238557   6.603   0.243   1.244 -0.0422  0.3622  0.2879
 5689TIP3    H138558   6.617   0.196   1.326  1.2141 -0.7022 -0.5064
 5689TIP3    H238559   6.556   0.180   1.188 -1.3522  1.2605  0.3594
 5690TIP3   OH238560   5.050   2.084  12.170 -0.3004  0.3820 -0.0095
 5690TIP3    H138561   5.032   2.036  12.251 -0.5750  1.0117  0.3106
 5690TIP3    H238562   4.967   2.081  12.122 -0.5983  1.3084  0.4249
 5691TIP3   OH238563   5.835   1.554  12.360 -0.2086  0.6130  0.0232
 5691TIP3    H138564   5.862   1.466  12.336 -0.1310  0.4560  0.6744
 5691TIP3    H238565   5.915   1.606  12.357 -0.2675  0.6739 -0.4305
 5692TIP3   OH238566   5.595   4.438  10.746 -0.3925 -0.0711 -0.1098
 5692TIP3    H138567   5.601   4.394  10.661  1.1399 -0.8918  0.3992
 5692TIP3    H238568   5.600   4.531  10.725  0.3738 -0.2848 -0.8927
 5693TIP3   OH238569   7.159   1.131  12.683  0.1794  0.7455 -0.2961
 5693TIP3    H138570   7.141   1.105  12.773 -0.4644  1.4496 -0.2133
 5693TIP3    H238571   7.192   1.220  12.690 -2.4686  1.8126 -0.9540
 5694TIP3   OH238572   0.712   4.817  13.490  0.2558 -0.2595  0.0122
 5694TIP3    H138573   0.622   4.806  13.461 -0.4525  2.2560  1.1031
 5694TIP3    H238574   0.762   4.757  13.436 -2.1400 -2.1411 -0.2101
 5695TIP3   OH238575   0.760   3.768  14.194  0.5852  0.0152  0.4063
 5695TIP3    H138576   0.824   3.814  14.139 -1.1490  2.2154  0.1451
 5695TIP3    H238577   0.675   3.789  14.155 -0.4097 -1.5770  1.6540
 5696TIP3   OH238578   5.010   1.006  12.128  0.2477  0.1200 -0.0341
 5696TIP3    H138579   4.968   1.080  12.084  0.4345  0.5680  0.5334
 5696TIP3    H238580   5.064   0.966  12.060  2.1956  2.0871  0.3050
 5697TIP3   OH238581   5.466   5.269  10.757 -0.3242  0.0523  0.0381
 5697TIP3    H138582   5.482   5.212  10.832  0.7711 -1.0326 -1.0188
 5697TIP3    H238583   5.545   5.263  10.704 -0.5371  1.8960 -0.5192
 5698TIP3   OH238584   6.357   3.046  10.907 -0.1314  0.4221 -0.5422
 5698TIP3    H138585   6.369   3.122  10.964 -1.1598  0.8736 -0.9185
 5698TIP3    H238586   6.425   3.055  10.841  1.7960 -0.7108  1.2462
 5699TIP3   OH238587   5.617   3.366  10.872  0.6647 -0.4894 -0.2161
 5699TIP3    H138588   5.602   3.286  10.921 -0.2333  0.1203  0.5298
 5699TIP3    H238589   5.712   3.378  10.873  0.7563 -1.2427  0.1349
 5700TIP3   OH238590   6.819   4.139  15.612 -0.1549  0.4200 -0.3760
 5700TIP3    H138591   6.844   4.129  15.704 -1.0036 -0.5548 -0.2451
 5700TIP3    H238592   6.776   4.057  15.590 -0.9665  1.0984 -1.3257
 5701TIP3   OH238593   5.940   3.371  12.550  0.2479  0.4418  0.1915
 5701TIP3    H138594   5.852   3.343  12.576 -0.1434  1.1387 -0.3661
 5701TIP3    H238595   5.982   3.396  12.632  0.2560 -0.8129  0.5712
 5702TIP3   OH238596   1.791   1.715  14.458  0.2858  0.1546 -0.1283
 5702TIP3    H138597   1.796   1.800  14.415 -0.4614 -0.2273 -1.0220
 5702TIP3    H238598   1.714   1.673  14.417 -1.2649  0.2881  2.5413
 5703TIP3   OH238599   0.255   4.133  11.855 -0.4725 -0.2792 -0.4087
 5703TIP3    H138600   0.234   4.140  11.762 -0.2302 -3.7256 -0.8008
 5703TIP3    H238601   0.350   4.149  11.859 -0.3191 -1.0020 -0.9100
 5704TIP3   OH238602   0.297   6.581  10.218  0.5730 -0.2125 -0.1202
 5704TIP3    H138603   0.313   6.533  10.300 -0.7732 -2.4685 -1.1408
 5704TIP3    H238604   0.296   6.514  10.150 -0.9421  1.3081 -1.6604
 5705TIP3   OH238605   1.433   4.683  11.898 -0.1402  0.4619 -0.3399
 5705TIP3    H138606   1.391   4.625  11.961  1.0306  1.7713  1.6835
 5705TIP3    H238607   1.377   4.678  11.820 -2.8957  0.6178  1.5800
 5706TIP3   OH238608   5.308   5.244  11.310  0.4094  0.1547  0.2401
 5706TIP3    H138609   5.258   5.274  11.235 -0.5656 -0.0121  0.8215
 5706TIP3    H238610   5.278   5.155  11.325  1.7744 -0.3963 -0.1667
 5707TIP3   OH238611   5.363   2.307  15.154 -0.6190  0.4440  0.5516
 5707TIP3    H138612   5.274   2.297  15.188 -0.7586 -1.0828 -0.2429
 5707TIP3    H238613   5.351   2.320  15.060 -0.0589  1.4604  0.6142
 5708TIP3   OH238614   5.466   2.998  11.545  0.4961 -0.1873  0.2151
 5708TIP3    H138615   5.386   2.957  11.514  0.4022  0.6437 -0.6700
 5708TIP3    H238616   5.446   3.092  11.547  1.5843  0.0673 -0.4684
 5709TIP3   OH238617   2.085   3.913   9.619 -0.2156 -0.2865  0.9216
 5709TIP3    H138618   2.026   3.901   9.693  0.5142 -0.5938  1.4592
 5709TIP3    H238619   2.034   3.961   9.555 -1.0392 -0.5257  1.3988
 5710TIP3   OH238620   3.407   6.810  13.014 -0.0352 -0.3704  0.2489
 5710TIP3    H138621   3.395   6.766  12.931 -0.2718 -0.2406  0.2147
 5710TIP3    H238622   3.484   6.865  13.001  0.5990 -1.1942  0.4697
 5711TIP3   OH238623   6.448   4.230   9.823 -0.0061  0.2943  0.2888
 5711TIP3    H138624   6.404   4.170   9.884  0.1140 -0.9882 -0.8583
 5711TIP3    H238625   6.527   4.183   9.796 -0.9631  0.0343 -2.2519
 5712TIP3   OH238626   5.540   4.432  10.198  0.1931 -0.5427 -0.3308
 5712TIP3    H138627   5.523   4.518  10.160  1.5281  0.2844  0.8747
 5712TIP3    H238628   5.626   4.441  10.241 -0.1866 -2.1203  0.8199
 5713TIP3   OH238629   4.281   1.583  12.728  0.2664  0.1491  0.2811
 5713TIP3    H138630   4.282   1.569  12.823 -0.7802  2.8448  0.7469
 5713TIP3    H238631   4.201   1.635  12.713 -1.1094 -2.6682 -2.4676
 5714TIP3   OH238632   5.503   6.187  11.396 -0.8923  0.5654  1.1359
 5714TIP3    H138633   5.488   6.248  11.469 -3.1886  1.0574  0.2760
 5714TIP3    H238634   5.479   6.236  11.318 -0.2957 -0.6161  0.1912
 5715TIP3   OH238635   5.673   6.827  14.573 -0.1700  0.2547  0.5737
 5715TIP3    H138636   5.688   6.761  14.641 -1.4312 -1.1632 -0.4825
 5715TIP3    H238637   5.578   6.830  14.563 -0.0284  0.9506 -0.6635
 5716TIP3   OH238638   7.166   6.536  10.405  0.3462  0.1063 -1.0254
 5716TIP3    H138639   7.194   6.607  10.347  1.4899 -0.2260 -0.8764
 5716TIP3    H238640   7.139   6.581  10.485  1.0130  0.3842 -0.9527
 5717TIP3   OH238641   0.117   5.990  10.474 -0.0563  0.2280 -0.1020
 5717TIP3    H138642   0.171   6.068  10.462 -0.4894  0.5288 -0.0863
 5717TIP3    H238643   0.121   5.972  10.568 -3.2688  2.6390  0.5975
 5718TIP3   OH238644   6.636   4.503  12.190 -0.1782 -0.1371  0.5454
 5718TIP3    H138645   6.679   4.426  12.228 -1.1951  0.1492  2.3526
 5718TIP3    H238646   6.589   4.469  12.114  0.5666 -1.0250  0.4654
 5719TIP3   OH238647   0.567   6.757  10.061  0.6220  0.5613 -0.0932
 5719TIP3    H138648   0.661   6.767  10.074  0.6272  2.0624 -1.1866
 5719TIP3    H238649   0.528   6.808  10.132  0.5967 -1.0534  1.0976
 5720TIP3   OH238650   5.262   1.596  12.561  0.3108 -0.2695  0.6743
 5720TIP3    H138651   5.239   1.539  12.487  0.6413 -1.3841  1.4081
 5720TIP3    H238652   5.336   1.647  12.530 -0.2328  0.0504 -0.1280
 5721TIP3   OH238653   5.317   5.477  14.663 -0.1492 -0.1266 -0.1417
 5721TIP3    H138654   5.285   5.468  14.573  0.4858 -0.0286 -0.3785
 5721TIP3    H238655   5.246   5.524  14.708 -1.0790 -1.4238 -0.2355
 5722TIP3   OH238656   1.413   2.530  11.625 -0.4131  0.4314  0.2160
 5722TIP3    H138657   1.375   2.457  11.675  0.3337  0.0771  0.2595
 5722TIP3    H238658   1.469   2.489  11.560 -0.6092  0.9400 -0.2785
 5723TIP3   OH238659   6.310   0.673  15.549 -0.3667 -0.5398  0.1876
 5723TIP3    H138660   6.364   0.714  15.617 -0.8734 -0.7388  0.7065
 5723TIP3    H238661   6.220   0.687  15.578 -0.5941 -0.4061 -0.5680
 5724TIP3   OH238662   4.126   5.796  12.859  0.4128 -0.0735  0.1024
 5724TIP3    H138663   4.183   5.833  12.792  1.4102  0.4811  1.2459
 5724TIP3    H238664   4.185   5.772  12.931 -0.6239 -0.7686  0.7461
 5725TIP3   OH238665   6.094   5.339  11.944 -0.1400  0.1244  0.0385
 5725TIP3    H138666   6.125   5.263  11.994  1.0267  0.1560 -0.6272
 5725TIP3    H238667   6.030   5.381  12.001 -0.8559 -1.4009  0.3880
 5726TIP3   OH238668   2.779   3.961   0.042  0.1234  0.0714  0.0356
 5726TIP3    H138669   2.767   3.942   0.135  1.3033 -2.0615 -0.2029
 5726TIP3    H238670   2.783   4.056   0.037 -1.4977  0.2752  1.9652
 5727TIP3   OH238671   3.278   0.833  11.419 -0.8140 -0.0967  0.5175
 5727TIP3    H138672   3.285   0.906  11.481  1.0273  0.8065 -0.7171
 5727TIP3    H238673   3.218   0.865  11.352 -1.6726 -0.5256  1.0806
 5728TIP3   OH238674   0.268   6.293  15.590 -0.3951 -0.3064 -0.2124
 5728TIP3    H138675   0.340   6.252  15.542 -0.8898  0.5398 -1.6943
 5728TIP3    H238676   0.307   6.318  15.674  0.7376 -0.8992 -0.5554
 5729TIP3   OH238677   1.398   6.968  12.731 -0.7080  0.0279  0.3547
 5729TIP3    H138678   1.375   7.026  12.804 -3.1656  1.3884 -1.4220
 5729TIP3    H238679   1.416   7.027  12.658  0.7720 -1.3472 -0.4169
 5730TIP3   OH238680   4.925   4.903  12.478  0.4022 -0.3662  0.5629
 5730TIP3    H138681   4.963   4.916  12.391  0.0622 -0.3452  0.4179
 5730TIP3    H238682   4.963   4.820  12.508  1.1332  0.0180  0.7251
 5731TIP3   OH238683   6.656   2.042  10.227  0.6110 -0.4250 -0.1596
 5731TIP3    H138684   6.665   2.078  10.316 -0.4796 -0.9559  0.1774
 5731TIP3    H238685   6.563   2.053  10.207  0.4273 -2.2925 -0.3736
 5732TIP3   OH238686   6.210   1.702  10.201 -0.2931 -0.0535 -0.0041
 5732TIP3    H138687   6.169   1.736  10.122 -0.2885  0.2028  0.1027
 5732TIP3    H238688   6.228   1.780  10.254  0.0567 -0.1907  0.0795
 5733TIP3   OH238689   3.300   0.690  10.607 -0.5290  0.2279 -0.1418
 5733TIP3    H138690   3.209   0.661  10.606 -0.6960  0.7724 -0.8734
 5733TIP3    H238691   3.308   0.739  10.689 -0.2198 -1.9099  1.1491
 5734TIP3   OH238692   1.169   2.980  12.603 -0.0997  0.1810  0.6530
 5734TIP3    H138693   1.133   2.926  12.673 -0.3559 -1.7313 -0.9027
 5734TIP3    H238694   1.190   2.918  12.533  1.0763  1.9184 -0.5932
 5735TIP3   OH238695   0.914   0.006  10.989 -0.7491  0.1638 -0.0431
 5735TIP3    H138696   0.883   0.016  11.079  1.1270  0.2020  0.6176
 5735TIP3    H238697   0.857   0.062  10.938 -2.1437 -0.2263  1.0541
 5736TIP3   OH238698   2.208   6.687   3.494 -0.3241  0.3445  0.1179
 5736TIP3    H138699   2.267   6.615   3.517 -0.1171  1.1652  2.2076
 5736TIP3    H238700   2.129   6.644   3.463  0.3140 -0.7735 -0.0059
 5737TIP3   OH238701   0.645   2.638  10.597 -0.2720  0.5914 -0.4579
 5737TIP3    H138702   0.707   2.565  10.589 -0.0403  0.7229  0.1485
 5737TIP3    H238703   0.699   2.713  10.621 -0.3195  1.2812 -2.4154
 5738TIP3   OH238704   5.015   5.697  14.377 -0.0798  0.3916 -0.1101
 5738TIP3    H138705   4.986   5.781  14.412  1.7915  0.8850  0.2563
 5738TIP3    H238706   4.941   5.638  14.393 -0.2186  1.2000  2.4331
 5739TIP3   OH238707   0.159   4.693  10.761 -0.8425 -0.2296 -0.3341
 5739TIP3    H138708   0.127   4.730  10.843 -1.6988 -1.1242 -0.2604
 5739TIP3    H238709   0.099   4.727  10.694 -0.4835  0.0419 -0.5208
 5740TIP3   OH238710   0.650   3.588  13.157 -0.4665 -0.0677 -0.3488
 5740TIP3    H138711   0.584   3.650  13.188  1.0449  2.0730 -1.2570
 5740TIP3    H238712   0.711   3.580  13.230  0.1203  0.6793 -0.7469
 5741TIP3   OH238713   1.970   3.192  12.764 -0.0479 -0.4958  0.4467
 5741TIP3    H138714   1.987   3.110  12.809 -0.1188 -0.3915  0.6630
 5741TIP3    H238715   1.930   3.165  12.680  2.2744 -0.8027 -0.5992
 5742TIP3   OH238716   3.698   1.988   0.206  0.3460 -0.4316  0.0760
 5742TIP3    H138717   3.633   2.037   0.156 -0.5429 -1.2464  0.4271
 5742TIP3    H238718   3.721   2.046   0.279 -1.3255 -0.8510  0.9618
 5743TIP3   OH238719   0.195   4.030  13.892 -0.7876  0.6752 -0.1446
 5743TIP3    H138720   0.210   3.954  13.947 -0.4717  0.4425 -0.5476
 5743TIP3    H238721   0.106   4.057  13.911 -0.6350  0.6695  0.5707
 5744TIP3   OH238722   0.306   0.648  14.818  0.2652 -0.3919  0.3859
 5744TIP3    H138723   0.337   0.666  14.907  0.8135  1.7925 -0.2173
 5744TIP3    H238724   0.371   0.687  14.761 -0.6153 -0.8705 -0.9823
 5745TIP3   OH238725   0.513   3.301  14.781  0.5526 -0.0588  0.3705
 5745TIP3    H138726   0.594   3.298  14.729 -1.0152 -0.5914 -2.1280
 5745TIP3    H238727   0.484   3.392  14.774  0.9667  0.1451  1.3139
 5746TIP3   OH238728   5.549   3.417  12.668 -0.7844  0.5773 -0.7964
 5746TIP3    H138729   5.561   3.491  12.727  1.2869 -0.9168  0.7258
 5746TIP3    H238730   5.461   3.385  12.688  0.1365 -0.3550  2.1162
 5747TIP3   OH238731   2.498   5.023   1.239  0.0328 -0.5913  0.1791
 5747TIP3    H138732   2.488   5.062   1.326  0.8045 -0.4350  0.2014
 5747TIP3    H238733   2.591   5.030   1.220 -0.2977  0.3596 -1.1399
 5748TIP3   OH238734   3.530   1.609  10.489  0.0970  0.2948 -0.1698
 5748TIP3    H138735   3.468   1.646  10.426 -1.2379 -1.2091  0.2305
 5748TIP3    H238736   3.594   1.563  10.435 -0.3553  0.0247 -0.4765
 5749TIP3   OH238737   3.783   7.168  10.648  0.4297 -0.3339 -0.2293
 5749TIP3    H138738   3.840   7.172  10.725  0.7482  1.7601 -0.5569
 5749TIP3    H238739   3.707   7.222  10.672 -0.1021 -0.7927 -0.8742
 5750TIP3   OH238740   6.435   5.960   2.355  0.0255 -0.6283  0.0582
 5750TIP3    H138741   6.372   5.893   2.330  0.9040 -2.2624  2.0901
 5750TIP3    H238742   6.463   5.936   2.443  0.1338  2.5961  0.9902
 5751TIP3   OH238743   2.607   4.658  12.315  0.0088  0.0063 -0.0612
 5751TIP3    H138744   2.549   4.687  12.245  0.0891 -1.1137 -0.6115
 5751TIP3    H238745   2.668   4.730  12.328  0.5291 -0.1071 -1.7537
 5752TIP3   OH238746   1.987   5.098  12.871 -0.0458 -0.2555 -0.4122
 5752TIP3    H138747   2.053   5.050  12.920 -0.0321 -0.1716 -0.3472
 5752TIP3    H238748   2.033   5.175  12.837 -0.0939 -0.2305 -0.4221
 5753TIP3   OH238749   4.970   5.227  12.423  0.4331  0.1786 -0.0763
 5753TIP3    H138750   4.979   5.288  12.349  3.3523  0.5061  0.4794
 5753TIP3    H238751   4.881   5.243  12.456 -0.2559  1.3375 -2.3443
 5754TIP3   OH238752   0.263   7.127  10.244 -0.2931 -0.4926  0.2590
 5754TIP3    H138753   0.312   7.150  10.323 -0.1219 -2.0005  0.6213
 5754TIP3    H238754   0.327   7.134  10.173 -0.3199  0.3968  0.3265
 5755TIP3   OH238755   2.858   3.876  11.859 -0.2701  0.5101 -0.1465
 5755TIP3    H138756   2.937   3.826  11.839 -0.1322  0.3270  0.8074
 5755TIP3    H238757   2.799   3.860  11.785 -0.0713 -0.7533 -0.0401
 5756TIP3   OH238758   5.559   4.757   0.613 -0.0541 -0.1799  0.2150
 5756TIP3    H138759   5.505   4.791   0.685  0.2777 -0.3555  0.5493
 5756TIP3    H238760   5.541   4.816   0.540 -0.8693 -0.3654  0.2554
 5757TIP3   OH238761   0.528   3.380  14.317  0.1837  0.2101  0.0419
 5757TIP3    H138762   0.615   3.377  14.357  0.4253 -1.1776 -0.5635
 5757TIP3    H238763   0.526   3.462  14.269  1.6100 -0.3059 -0.9373
 5758TIP3   OH238764   0.239   1.337  14.307 -0.3816  0.0518  0.2222
 5758TIP3    H138765   0.257   1.364  14.397  1.3359 -0.9286  0.1985
 5758TIP3    H238766   0.279   1.250  14.299  0.6163  0.6509 -1.8470
 5759TIP3   OH238767   4.165   2.267  11.201  0.5177 -0.0153  0.0364
 5759TIP3    H138768   4.141   2.269  11.294  1.0802 -0.7526  0.1996
 5759TIP3    H238769   4.156   2.175  11.176  3.6210 -0.4268  0.2305
 5760TIP3   OH238770   2.625   1.683  13.612  0.5649  0.7237  0.6626
 5760TIP3    H138771   2.653   1.595  13.637  2.2860  0.7680 -0.9305
 5760TIP3    H238772   2.555   1.705  13.673  0.3288 -1.6223  1.2837
 5761TIP3   OH238773   6.502   0.430  15.489  0.2804  0.0751  0.0281
 5761TIP3    H138774   6.563   0.498  15.462  1.9378 -0.5802  1.9541
 5761TIP3    H238775   6.419   0.476  15.505  0.7322  1.2394 -0.9648
 5762TIP3   OH238776   6.760   3.781  10.893 -0.0887  0.9776  0.1829
 5762TIP3    H138777   6.721   3.861  10.856 -2.1762  0.3531  0.9488
 5762TIP3    H238778   6.697   3.713  10.872  1.1963 -0.3099  0.4368
 5763TIP3   OH238779   4.688   6.094  11.960  0.1990  0.2888 -0.1505
 5763TIP3    H138780   4.594   6.086  11.980 -0.3238  0.7098 -2.3260
 5763TIP3    H238781   4.696   6.064  11.870  2.2229 -0.0153  0.1167
 5764TIP3   OH238782   3.849   0.360  12.163  0.6343  0.3349  0.1571
 5764TIP3    H138783   3.867   0.432  12.223  1.6776 -0.0162  0.2738
 5764TIP3    H238784   3.865   0.397  12.076  1.0459  0.2702  0.2093
 5765TIP3   OH238785   0.476   6.827  12.498 -0.3192  0.3000 -0.1206
 5765TIP3    H138786   0.458   6.794  12.586 -1.2260 -0.1129 -0.4503
 5765TIP3    H238787   0.486   6.749  12.444  2.9407  0.5227  0.1058
 5766TIP3   OH238788   6.364   7.021  11.057 -0.1029 -0.0219 -0.3505
 5766TIP3    H138789   6.301   6.961  11.017  0.2900  0.1153 -1.1889
 5766TIP3    H238790   6.372   6.991  11.147 -1.1730 -0.2020 -0.3074
 5767TIP3   OH238791   6.089   5.864  10.034  0.4085  0.1210 -0.4154
 5767TIP3    H138792   6.183   5.881  10.042  0.2549 -0.0401  2.4698
 5767TIP3    H238793   6.082   5.799   9.965  2.5358 -0.5951 -0.0037
 5768TIP3   OH238794   2.367   4.318  12.037 -0.0276 -0.5322 -0.5999
 5768TIP3    H138795   2.445   4.267  12.015  0.5816 -0.7481  1.9411
 5768TIP3    H238796   2.378   4.400  11.989  0.3170 -1.6686 -2.5380
 5769TIP3   OH238797   5.906   5.760  10.298  0.2816  0.4697  0.4114
 5769TIP3    H138798   5.961   5.763  10.220 -0.3154 -0.0845 -0.0320
 5769TIP3    H238799   5.962   5.720  10.365  0.2053 -0.6975 -0.2147
 5770TIP3   OH238800   0.464   6.243  12.431 -0.2670 -0.4339 -1.0188
 5770TIP3    H138801   0.489   6.316  12.488  0.2530 -2.2281  1.1156
 5770TIP3    H238802   0.510   6.260  12.349  0.0892  1.4696 -0.4633
 5771TIP3   OH238803   2.015   7.109  10.439  0.0325  0.1330 -0.0791
 5771TIP3    H138804   1.955   7.096  10.513  2.1987 -0.3532  1.6650
 5771TIP3    H238805   1.995   7.037  10.379 -1.1865  0.0313  0.4271
 5772TIP3   OH238806   2.785   4.791   1.308  0.1147  0.1334  0.8295
 5772TIP3    H138807   2.756   4.819   1.395  2.0174  1.1208  1.1751
 5772TIP3    H238808   2.770   4.868   1.252  5.4907  2.1177  1.8106
 5773TIP3   OH238809   0.951   2.111   0.765  0.2291  0.2612  0.3574
 5773TIP3    H138810   0.869   2.076   0.799  1.4074 -0.9736  1.9977
 5773TIP3    H238811   0.977   2.050   0.697 -0.5346  1.0250 -0.6389
 5774TIP3   OH238812   6.333   3.795  10.753 -0.7682 -0.1567 -0.1786
 5774TIP3    H138813   6.365   3.706  10.738 -0.1479  0.1583 -0.7221
 5774TIP3    H238814   6.401   3.837  10.805 -0.8862  0.1146 -0.2398
 5775TIP3   OH238815   6.534   2.079  10.617 -0.9775 -0.1844  0.4093
 5775TIP3    H138816   6.572   2.148  10.671 -1.7089  1.0497 -0.6315
 5775TIP3    H238817   6.488   2.022  10.679 -0.9331  0.6309  1.1985
 5776TIP3   OH238818   3.414   4.790  14.468  0.3179 -0.1162  0.2340
 5776TIP3    H138819   3.437   4.707  14.425  1.5497 -0.3352  1.2562
 5776TIP3    H238820   3.395   4.850  14.396 -0.6524 -1.3001 -0.5227
 5777TIP3   OH238821   1.518   6.989   9.896 -0.5185  0.0412 -0.5715
 5777TIP3    H138822   1.491   7.054   9.831  1.4674  0.5540 -0.9280
 5777TIP3    H238823   1.609   6.969   9.873 -0.5659 -1.5848  0.5867
 5778TIP3   OH238824   0.320   1.526  14.112 -1.1180  0.5470 -0.5441
 5778TIP3    H138825   0.300   1.464  14.182  0.5435  1.0858  0.4422
 5778TIP3    H238826   0.283   1.487  14.033 -0.9809 -1.1888  0.2375
 5779TIP3   OH238827   1.603   5.892  10.469  0.1757  0.4505 -0.2826
 5779TIP3    H138828   1.674   5.855  10.522  0.1051  1.7039  0.7107
 5779TIP3    H238829   1.549   5.941  10.532 -1.0358  0.3005 -1.1867
 5780TIP3   OH238830   5.193   4.646  10.392  0.2970 -0.0202 -0.0038
 5780TIP3    H138831   5.271   4.650  10.447 -0.2470  2.6422  0.6271
 5780TIP3    H238832   5.146   4.727  10.410 -1.3979 -0.4615 -2.1913
 5781TIP3   OH238833   1.404   0.233  11.267  0.1513  0.0035 -0.2212
 5781TIP3    H138834   1.458   0.166  11.309  0.7983  0.1353 -0.8337
 5781TIP3    H238835   1.442   0.244  11.180 -1.4835 -0.6083 -1.0240
 5782TIP3   OH238836   2.341   6.557  11.572  0.2632 -0.3562  0.1098
 5782TIP3    H138837   2.409   6.502  11.612 -1.1500 -1.9860  0.3732
 5782TIP3    H238838   2.274   6.494  11.543  0.3783  0.9301 -3.1573
 5783TIP3   OH238839   4.687   7.022  12.793  0.3011 -0.3243 -0.4287
 5783TIP3    H138840   4.766   7.050  12.747  0.1671 -0.5801 -0.8232
 5783TIP3    H238841   4.619   7.083  12.765  0.6660  0.7512  0.9857
 5784TIP3   OH238842   3.643   0.505   0.156  0.3167  0.4624 -0.2841
 5784TIP3    H138843   3.672   0.414   0.157  1.0753  0.7097  1.3123
 5784TIP3    H238844   3.676   0.540   0.074  1.9748 -0.0816  0.1432
 5785TIP3   OH238845   1.607   4.012  15.542  0.3278 -0.7071 -0.4515
 5785TIP3    H138846   1.552   3.937  15.563 -0.3430 -0.5265 -1.5873
 5785TIP3    H238847   1.616   4.011  15.447 -0.2597  1.0561 -0.5459
 5786TIP3   OH238848   5.454   5.664  13.024  0.4474 -0.0841  0.7617
 5786TIP3    H138849   5.416   5.748  13.001  1.2096  0.2625  0.7648
 5786TIP3    H238850   5.408   5.638  13.104 -0.2631 -0.0008  0.3858
 5787TIP3   OH238851   5.468   5.018   1.259  0.0436 -0.6521  0.5047
 5787TIP3    H138852   5.417   5.095   1.283  0.3978  0.2888 -1.6098
 5787TIP3    H238853   5.513   4.992   1.339  1.0824  2.2551  0.9291
 5788TIP3   OH238854   1.882   3.180   0.451  0.1760 -0.1049  0.1206
 5788TIP3    H138855   1.940   3.251   0.477  0.4351 -1.2294  2.8408
 5788TIP3    H238856   1.831   3.215   0.378  0.9371  2.5300  0.8058
 5789TIP3   OH238857   2.130   0.063  11.697 -0.2917 -0.1056 -0.0158
 5789TIP3    H138858   2.133  -0.030  11.675 -1.1184 -0.3012  0.6526
 5789TIP3    H238859   2.036   0.083  11.704 -0.1235  0.8198 -0.3383
 5790TIP3   OH238860   2.535   0.418  14.293 -0.2336  0.5226  0.1046
 5790TIP3    H138861   2.536   0.397  14.386  0.8891 -0.5665 -0.1469
 5790TIP3    H238862   2.442   0.413  14.269 -0.3760 -0.7330  0.8268
 5791TIP3   OH238863   2.214   6.845   0.570 -0.1498 -0.2352  0.6476
 5791TIP3    H138864   2.300   6.844   0.614  1.1669  1.8644 -1.7474
 5791TIP3    H238865   2.206   6.758   0.532  0.7506 -0.5862  1.2299
 5792TIP3   OH238866   1.306   3.227  10.736 -0.1403  0.3969  0.4760
 5792TIP3    H138867   1.332   3.316  10.760  1.9852  0.7467 -2.7945
 5792TIP3    H238868   1.233   3.239  10.676  0.2348 -0.0364 -0.0738
 5793TIP3   OH238869   3.782   3.722  11.432 -0.2321 -0.0221 -0.4578
 5793TIP3    H138870   3.858   3.687  11.479  2.2480  4.1929 -1.0292
 5793TIP3    H238871   3.805   3.716  11.340 -1.3225 -0.2298 -0.7271
 5794TIP3   OH238872   6.902   2.897  10.750  0.5358 -0.1413  0.1680
 5794TIP3    H138873   6.973   2.833  10.740 -0.4089 -0.9061 -1.7376
 5794TIP3    H238874   6.849   2.863  10.822  0.1711 -1.4035 -0.6777
 5795TIP3   OH238875   3.046   6.156  12.812 -0.3526 -0.1022 -0.3813
 5795TIP3    H138876   3.139   6.141  12.827  0.1507  2.9328 -0.1931
 5795TIP3    H238877   3.035   6.142  12.718  0.0419 -1.5386 -0.2317
 5796TIP3   OH238878   1.357   0.941  10.151 -0.2563  0.0067 -0.2209
 5796TIP3    H138879   1.279   0.972  10.198  1.0697  0.4311  1.7352
 5796TIP3    H238880   1.331   0.855  10.118 -1.6720  0.2655  0.1511
 5797TIP3   OH238881   0.224   6.747  11.128  0.1263  0.3001  0.6151
 5797TIP3    H138882   0.302   6.745  11.074  0.3632 -0.1746  0.9702
 5797TIP3    H238883   0.209   6.839  11.147  0.2715  0.4325  0.0752
 5798TIP3   OH238884   1.103   4.461  12.948 -0.0401 -0.7612  0.0106
 5798TIP3    H138885   1.164   4.387  12.939 -0.5998 -1.1299 -0.7951
 5798TIP3    H238886   1.153   4.527  12.996  0.9342 -1.1386 -0.4718
 5799TIP3   OH238887   2.016   6.387  14.501 -0.3095 -0.2640  0.0021
 5799TIP3    H138888   2.044   6.417  14.414 -1.4549  1.1509  0.1074
 5799TIP3    H238889   2.063   6.445  14.562 -1.0923  0.1110  0.2587
 5800TIP3   OH238890   0.274   6.302  10.151 -0.6579  0.4157 -0.1864
 5800TIP3    H138891   0.282   6.207  10.155  2.2066  0.5563 -1.7322
 5800TIP3    H238892   0.363   6.335  10.159 -1.7338  3.0691  1.8555
 5801TIP3   OH238893   3.699   5.668  13.653  0.6288 -0.0016  0.7263
 5801TIP3    H138894   3.737   5.731  13.592 -1.2617  0.9895  0.5374
 5801TIP3    H238895   3.679   5.591  13.599  1.2157 -0.0485  0.5805
 5802TIP3   OH238896   5.830   0.585  12.925 -0.2556 -0.2668 -0.3493
 5802TIP3    H138897   5.751   0.614  12.970  0.6624  1.4912  0.1954
 5802TIP3    H238898   5.901   0.632  12.969  0.9198 -0.4920 -1.9496
 5803TIP3   OH238899   5.684   6.207  12.652 -0.1475  0.1980  0.3835
 5803TIP3    H138900   5.698   6.158  12.571  0.0038  0.3567  0.3142
 5803TIP3    H238901   5.655   6.141  12.715 -2.5498  0.4044 -0.4180
 5804TIP3   OH238902   5.197   6.764  11.593 -0.5561 -0.2483 -0.2961
 5804TIP3    H138903   5.265   6.766  11.660  0.1101 -1.4138 -0.9016
 5804TIP3    H238904   5.154   6.849  11.598  1.6561  0.9298 -0.6213
 5805TIP3   OH238905   6.524   4.391  13.606 -0.1624  0.2946  0.1924
 5805TIP3    H138906   6.619   4.404  13.611  0.1889 -1.4805 -1.2492
 5805TIP3    H238907   6.507   4.379  13.512 -1.6990 -0.2788  0.5360
 5806TIP3   OH238908   0.429   2.481  14.435 -0.5609  0.5719  0.6257
 5806TIP3    H138909   0.498   2.451  14.494 -0.8728  0.8877  1.1580
 5806TIP3    H238910   0.432   2.421  14.361 -0.7693 -0.3987  1.3885
 5807TIP3   OH238911   3.021   2.243   1.066  0.0516 -0.8505 -0.0221
 5807TIP3    H138912   3.104   2.259   1.021  0.6044 -0.4335  1.1209
 5807TIP3    H238913   2.959   2.225   0.996  0.5314  1.3749 -1.0522
 5808TIP3   OH238914   6.665   5.624  14.097  0.3622 -0.7460 -0.5564
 5808TIP3    H138915   6.704   5.709  14.076  0.5882 -0.6159  0.3642
 5808TIP3    H238916   6.596   5.613  14.031 -0.0887  0.4311 -0.3068
 5809TIP3   OH238917   2.566   7.193  12.868 -0.2572 -0.2102  0.0822
 5809TIP3    H138918   2.641   7.134  12.873  0.0701  0.0451 -1.3495
 5809TIP3    H238919   2.490   7.136  12.872  0.0190 -0.5205  1.0274
 5810TIP3   OH238920   3.135   0.931  15.324 -0.1883  0.1063 -0.0845
 5810TIP3    H138921   3.144   0.991  15.397 -0.4266 -0.4688  0.4265
 5810TIP3    H238922   3.225   0.915  15.295 -0.1785  1.3326 -0.7474
 5811TIP3   OH238923   5.262   6.820  15.386  0.0876 -0.0395 -0.3999
 5811TIP3    H138924   5.246   6.868  15.305 -0.7034  0.8342  0.2699
 5811TIP3    H238925   5.186   6.838  15.441 -0.4285 -2.3998 -0.2863
 5812TIP3   OH238926   4.972   3.621  11.864 -0.5297 -0.5131 -0.3481
 5812TIP3    H138927   5.013   3.590  11.783 -1.0782 -1.4304 -0.2948
 5812TIP3    H238928   4.912   3.690  11.836  2.4740  2.2979 -0.1935
 5813TIP3   OH238929   1.554   0.303  10.086 -0.1476 -0.2987  0.4810
 5813TIP3    H138930   1.563   0.336   9.997  0.2756  0.0760  0.6589
 5813TIP3    H238931   1.478   0.349  10.121 -0.7237 -0.9490  0.0948
 5814TIP3   OH238932   5.650   7.176  10.606 -0.7933 -0.1752  0.1792
 5814TIP3    H138933   5.595   7.182  10.529 -1.1153 -0.9410  0.3406
 5814TIP3    H238934   5.677   7.266  10.624 -3.6443  0.4960  1.3077
 5815TIP3   OH238935   0.837   6.656  11.944 -0.5247 -0.5425  0.0024
 5815TIP3    H138936   0.847   6.650  11.849 -2.7392  0.9498 -0.3777
 5815TIP3    H238937   0.818   6.749  11.960  1.4488 -0.4750  2.0944
 5816TIP3   OH238938   3.423   0.794   9.868  0.2609  0.4702  0.4252
 5816TIP3    H138939   3.389   0.710   9.838 -0.9057 -0.0758  3.1739
 5816TIP3    H238940   3.390   0.857   9.804  0.3122 -1.0101 -1.0903
 5817TIP3   OH238941   0.324   1.741  15.297 -0.3692 -0.4148  0.3590
 5817TIP3    H138942   0.281   1.823  15.272 -1.0163 -0.6891  0.5549
 5817TIP3    H238943   0.281   1.674  15.244 -0.0092 -0.6585  0.3748
 5818TIP3   OH238944   1.955   0.073  11.941  0.8735 -0.0267  0.4016
 5818TIP3    H138945   1.864   0.103  11.938  0.9608  0.3325  1.0300
 5818TIP3    H238946   2.004   0.148  11.975  1.0497 -0.9742  2.3259
 5819TIP3   OH238947   0.810   1.313  11.634 -0.6903 -0.0604 -0.3868
 5819TIP3    H138948   0.849   1.372  11.699 -1.0464 -1.8948  1.5458
 5819TIP3    H238949   0.759   1.250  11.686 -2.5369 -0.4414 -2.5811
 5820TIP3   OH238950   3.403   2.502  13.314  0.2750 -0.1975  0.1568
 5820TIP3    H138951   3.388   2.411  13.339  0.0961 -0.3592 -0.5321
 5820TIP3    H238952   3.480   2.500  13.258 -2.6171 -0.6520 -4.0577
 5821TIP3   OH238953   3.770   0.605  13.391  0.1046 -0.4419 -0.4395
 5821TIP3    H138954   3.768   0.699  13.377 -0.7500 -0.7041 -2.2344
 5821TIP3    H238955   3.856   0.577  13.361  0.2197 -0.2890 -0.2516
 5822TIP3   OH238956   3.410   0.156  12.807  0.1799 -0.5478  0.0474
 5822TIP3    H138957   3.365   0.156  12.891  1.4439 -1.0884  0.7329
 5822TIP3    H238958   3.404   0.247  12.777  0.5504 -0.1399  1.1827
 5823TIP3   OH238959   0.443   7.000  11.311 -0.7518 -0.4487  0.1959
 5823TIP3    H138960   0.440   6.992  11.406 -1.4395  1.3896  0.3585
 5823TIP3    H238961   0.441   7.095  11.295 -1.2312 -0.7462 -1.6508
 5824TIP3   OH238962   1.452   3.817  10.702  0.2409 -0.2968  0.1104
 5824TIP3    H138963   1.387   3.880  10.670  0.0865 -0.9699 -0.9132
 5824TIP3    H238964   1.498   3.788  10.623 -0.3506 -2.1980  0.4396
 5825TIP3   OH238965   0.956   6.754  13.359  0.0238  0.2576  0.4300
 5825TIP3    H138966   0.979   6.831  13.411 -0.5720 -0.5153  1.8851
 5825TIP3    H238967   0.970   6.781  13.269 -1.4453  2.5342  0.8235
 5826TIP3   OH238968   2.975   1.033  13.307  0.1261  0.1632 -0.4348
 5826TIP3    H138969   3.055   1.076  13.335  0.1424 -0.3056  0.2440
 5826TIP3    H238970   2.998   0.990  13.224 -0.0315  1.8669 -1.3849
 5827TIP3   OH238971   5.120   1.875  11.985  0.1248  0.1246  0.0416
 5827TIP3    H138972   5.099   1.967  11.967  2.8329  0.8568  0.2801
 5827TIP3    H238973   5.147   1.840  11.900 -3.7818 -1.3510 -0.6702
 5828TIP3   OH238974   4.491   5.342  14.011  0.1646 -0.3335  0.5756
 5828TIP3    H138975   4.487   5.246  14.014 -0.4482 -0.2818  1.9292
 5828TIP3    H238976   4.585   5.362  14.017  0.1911 -0.8187  2.0305
 5829TIP3   OH238977   1.582   6.101  11.394  0.2031 -0.1769 -0.1529
 5829TIP3    H138978   1.575   6.127  11.302 -1.3697 -0.6358 -0.1799
 5829TIP3    H238979   1.665   6.138  11.423  0.4212  0.5039 -1.5902
 5830TIP3   OH238980   0.833   1.780  14.903 -0.2121  0.1026 -0.0094
 5830TIP3    H138981   0.777   1.702  14.897  0.1845 -0.2690  1.0712
 5830TIP3    H238982   0.881   1.780  14.820 -1.8200  0.4536 -0.9841
 5831TIP3   OH238983   3.393   5.126  12.500  0.2173  0.2782  0.0949
 5831TIP3    H138984   3.451   5.086  12.435  0.0978  3.9342 -2.4536
 5831TIP3    H238985   3.305   5.112  12.465  0.1055  1.5870 -0.1819
 5832TIP3   OH238986   1.611   0.128  14.213  0.5735 -0.7067  0.5451
 5832TIP3    H138987   1.670   0.168  14.150  0.8738 -0.0606  1.2340
 5832TIP3    H238988   1.668   0.084  14.276  0.2989 -0.7798  0.7446
 5833TIP3   OH238989   1.623   6.779  14.130  0.1875 -0.2229  0.4458
 5833TIP3    H138990   1.602   6.758  14.221  0.4512 -0.5650  0.4292
 5833TIP3    H238991   1.538   6.786  14.087  0.0462  0.4142  0.8224
 5834TIP3   OH238992   5.488   0.883  11.106  0.3151  0.0357 -0.1576
 5834TIP3    H138993   5.436   0.934  11.044  1.7920  0.1880 -1.2796
 5834TIP3    H238994   5.579   0.901  11.083  0.9002  0.0360  2.0034
 5835TIP3   OH238995   5.957   5.300  10.280 -0.4078  0.1540 -0.2845
 5835TIP3    H138996   5.944   5.249  10.199  0.2275 -1.1230  0.3940
 5835TIP3    H238997   5.876   5.349  10.290 -0.1507  1.0252 -2.1770
 5836TIP3   OH238998   0.712   0.040  14.073  0.6319 -0.4132  0.1953
 5836TIP3    H138999   0.801   0.067  14.099  0.0392  0.2041  1.6164
 5836TIP3    H239000   0.723  -0.048  14.039  1.5094 -1.1361  2.2409
 5837TIP3   OH239001   7.092   5.263  10.475  0.2708  0.1930  0.2021
 5837TIP3    H139002   7.087   5.292  10.566  1.0647  0.1167  0.2788
 5837TIP3    H239003   7.167   5.310  10.440 -1.5175  2.1222 -1.1260
 5838TIP3   OH239004   0.028   1.488  10.938 -0.3979  0.0670  0.1082
 5838TIP3    H139005   0.070   1.440  10.867  3.1282  0.1478  1.9926
 5838TIP3    H239006  -0.018   1.560  10.895  0.2722 -0.8639 -2.2151
 5839TIP3   OH239007   7.070   2.185  10.808 -0.3957  0.2842 -0.2507
 5839TIP3    H139008   6.985   2.152  10.837 -0.5091  2.3527  1.9113
 5839TIP3    H239009   7.126   2.178  10.885  0.5343  1.7653 -0.7739
 5840TIP3   OH239010   0.911   0.320  12.145 -0.2365  0.0274  0.2927
 5840TIP3    H139011   0.948   0.358  12.066  0.9813 -2.7580 -0.5359
 5840TIP3    H239012   0.912   0.391  12.209  3.7138  0.8793 -0.6312
 5841TIP3   OH239013   7.108   3.717  14.771 -0.0395 -0.6497  0.2453
 5841TIP3    H139014   7.071   3.793  14.816  0.8116  0.1335 -0.3820
 5841TIP3    H239015   7.156   3.753  14.698 -1.2873 -1.9103 -1.2366
 5842TIP3   OH239016   0.552   5.310   9.547 -0.0242  0.5559 -0.4659
 5842TIP3    H139017   0.583   5.269   9.466 -0.6519 -1.2760  0.2121
 5842TIP3    H239018   0.477   5.258   9.574  0.5768  0.7445  1.6578
 5843TIP3   OH239019   3.135   4.096  14.018 -0.6269 -0.3472  0.4808
 5843TIP3    H139020   3.090   4.080  13.935 -1.6058 -2.4068  1.3613
 5843TIP3    H239021   3.115   4.187  14.039 -0.0918  0.3021 -1.6864
 5844TIP3   OH239022   0.742   0.636   9.351 -0.0881 -0.2024 -0.5304
 5844TIP3    H139023   0.811   0.688   9.392 -0.0602 -0.2430 -0.5259
 5844TIP3    H239024   0.672   0.632   9.416  0.4388 -1.2839 -0.0037
 5845TIP3   OH239025   6.998   6.920  13.898  0.1376  0.1737  0.3143
 5845TIP3    H139026   6.970   6.891  13.985 -0.7230 -1.2428 -0.4221
 5845TIP3    H239027   7.002   6.840  13.846 -1.0996  1.2224 -1.4362
 5846TIP3   OH239028   4.038   4.981  13.314 -0.3857  0.2431  0.2276
 5846TIP3    H139029   3.995   4.940  13.390  0.3694  2.9447  2.1763
 5846TIP3    H239030   4.129   4.991  13.340  0.3113 -0.5477 -1.8229
 5847TIP3   OH239031   0.371   2.146  14.984 -0.1879  0.2750  0.0936
 5847TIP3    H139032   0.451   2.182  15.023  0.9195  0.6387 -2.4207
 5847TIP3    H239033   0.346   2.209  14.917 -1.8810 -0.4835 -0.0116
 5848TIP3   OH239034   1.928   6.238  14.797  0.0830  0.0745  0.1882
 5848TIP3    H139035   1.900   6.162  14.745  1.1479  0.5061 -1.0217
 5848TIP3    H239036   2.012   6.264  14.759  1.2497 -0.0747  2.6247
 5849TIP3   OH239037   0.340   0.093  13.765  0.0357  0.4639 -0.1646
 5849TIP3    H139038   0.354   0.178  13.722 -0.3531  0.1999 -0.8190
 5849TIP3    H239039   0.271   0.051  13.714 -0.6119  0.2465  0.8741
 5850TIP3   OH239040   4.981   5.660   2.080 -0.1994 -1.0035 -0.2994
 5850TIP3    H139041   4.967   5.741   2.031 -0.3519 -0.8991 -0.0846
 5850TIP3    H239042   4.916   5.662   2.150 -0.2464 -1.3425 -0.3294
 5851TIP3   OH239043   4.913   6.435  10.855  0.3452 -0.4472 -0.1559
 5851TIP3    H139044   4.828   6.470  10.879  0.4011 -0.9641  0.8286
 5851TIP3    H239045   4.957   6.419  10.938  1.2542 -0.5553 -0.6446
 5852TIP3   OH239046   4.293   5.829  14.684  1.2513 -0.8667  0.6464
 5852TIP3    H139047   4.246   5.765  14.737  0.1308 -0.4894  0.1416
 5852TIP3    H239048   4.269   5.807  14.594  0.0394  0.8505  0.5126
 5853TIP3   OH239049   3.903   4.431  13.385 -0.2524  0.0925  0.0860
 5853TIP3    H139050   3.901   4.519  13.346  3.0374  0.0209 -0.4595
 5853TIP3    H239051   3.864   4.374  13.319  0.1804  0.7745 -0.7769
 5854TIP3   OH239052   6.870   4.126  14.742  0.8332 -0.5184 -0.6454
 5854TIP3    H139053   6.878   4.217  14.715 -0.8962 -0.5313 -1.2792
 5854TIP3    H239054   6.957   4.102  14.774  0.9888  1.7142  0.6799
 5855TIP3   OH239055   5.227   1.318   9.796  0.2037  0.1472 -0.3189
 5855TIP3    H139056   5.322   1.311   9.799  0.2380  0.8597  0.4883
 5855TIP3    H239057   5.205   1.305   9.704  1.0816 -0.0050 -0.5097
 5856TIP3   OH239058   1.187   4.071  14.426  0.5867 -0.0122 -0.9297
 5856TIP3    H139059   1.189   4.167  14.434 -0.4503 -0.0577  0.0525
 5856TIP3    H239060   1.275   4.047  14.397  0.5290  1.3396 -2.3169
 5857TIP3   OH239061   6.121   5.534  13.412 -0.0518  0.1088  0.2138
 5857TIP3    H139062   6.120   5.537  13.507 -0.9047 -3.5179  0.3719
 5857TIP3    H239063   6.207   5.497  13.390 -0.0309  0.5165 -0.4123
 5858TIP3   OH239064   1.730   4.017  11.687  0.0500 -0.1377  0.1104
 5858TIP3    H139065   1.782   3.940  11.710  0.9926  0.0240 -1.4112
 5858TIP3    H239066   1.717   4.009  11.592 -3.2805 -0.5433  0.5322
 5859TIP3   OH239067   1.539   1.273  11.791 -0.4389 -0.0673  0.6187
 5859TIP3    H139068   1.546   1.345  11.728 -1.3397  0.0388  0.6340
 5859TIP3    H239069   1.549   1.315  11.877  2.9148 -0.4902  0.5020
 5860TIP3   OH239070   5.321   0.648  12.878  0.3652  0.2237  0.3705
 5860TIP3    H139071   5.227   0.641  12.895 -0.1207  1.9162 -1.3831
 5860TIP3    H239072   5.335   0.741  12.861  1.9997 -0.2910 -1.2695
 5861TIP3   OH239073   1.165   5.900   9.719 -0.1549  0.4585 -0.2436
 5861TIP3    H139074   1.070   5.888   9.709 -0.3498  0.7843  1.0708
 5861TIP3    H239075   1.203   5.864   9.639 -1.4447  0.9974 -1.1071
 5862TIP3   OH239076   3.478   3.403  13.903  0.3299 -0.3343 -0.2218
 5862TIP3    H139077   3.512   3.361  13.982  0.3067  0.4816  0.2344
 5862TIP3    H239078   3.383   3.391  13.909  0.3098 -0.0943 -0.0112
 5863TIP3   OH239079   5.486   4.768   0.014 -0.5191 -0.8741  0.3010
 5863TIP3    H139080   5.543   4.843   0.028 -2.1093  0.0158  2.1495
 5863TIP3    H239081   5.406   4.805  -0.023 -0.4745 -1.9505 -0.9337
 5864TIP3   OH239082   6.502   1.310  11.124  0.3089  0.2691 -0.8371
 5864TIP3    H139083   6.417   1.352  11.123 -0.4041 -1.0934 -0.0982
 5864TIP3    H239084   6.560   1.374  11.165 -1.2893 -0.3800  2.6277
 5865TIP3   OH239085   4.409   6.701  15.354  0.0025 -0.2740 -0.3461
 5865TIP3    H139086   4.399   6.622  15.407  0.1503  0.2465  0.4630
 5865TIP3    H239087   4.390   6.672  15.265 -1.4867 -0.8876  0.1528
 5866TIP3   OH239088   2.963   6.969  13.592  0.2392 -0.1322  0.0652
 5866TIP3    H139089   2.917   6.923  13.522  2.4101 -1.6710 -0.4254
 5866TIP3    H239090   2.998   6.899  13.648  1.0344  0.9942  1.0057
 5867TIP3   OH239091   4.219   0.682   2.920  0.1588 -0.5080  0.0981
 5867TIP3    H139092   4.201   0.589   2.932 -0.1342 -0.3230  1.1717
 5867TIP3    H239093   4.133   0.721   2.902  0.1547 -0.3306  0.4844
 5868TIP3   OH239094   0.330   4.156  14.243 -0.1037  0.2343 -0.5192
 5868TIP3    H139095   0.240   4.181  14.226 -0.0094  0.8662 -0.0888
 5868TIP3    H239096   0.372   4.235  14.277  0.5549 -0.1130 -0.5006
 5869TIP3   OH239097   0.251   3.229  11.060  0.3742  0.1368 -0.7924
 5869TIP3    H139098   0.273   3.231  10.966 -0.5791  0.1908 -1.0212
 5869TIP3    H239099   0.279   3.143  11.089  0.9358  0.2223 -1.0621
 5870TIP3   OH239100   0.244   0.145   0.027  0.5134  0.1983  0.1851
 5870TIP3    H139101   0.260   0.124   0.119  0.8107 -0.7979 -0.0912
 5870TIP3    H239102   0.286   0.230   0.014  1.6258 -0.2730  0.6349
 5871TIP3   OH239103   1.345   0.685  15.000  0.7731  0.4460  0.1774
 5871TIP3    H139104   1.347   0.598  15.038  3.7797  0.6846  0.7112
 5871TIP3    H239105   1.339   0.745  15.074 -2.4564  0.7121 -0.2397
 5872TIP3   OH239106   1.412   5.863  11.732 -0.1643  0.0193  0.4484
 5872TIP3    H139107   1.431   5.957  11.725  0.3088  0.0384  1.8334
 5872TIP3    H239108   1.410   5.846  11.826 -1.4393 -1.1256  0.2285
 5873TIP3   OH239109   1.476   2.530  10.018  0.2166 -0.4627 -0.1106
 5873TIP3    H139110   1.466   2.574  10.102 -0.9553 -0.3686 -0.2928
 5873TIP3    H239111   1.567   2.499  10.018 -0.5056 -2.7716  2.3166
 5874TIP3   OH239112   3.505   4.913  10.814  0.1107 -0.0534  0.4226
 5874TIP3    H139113   3.447   4.836  10.806 -0.5095  0.4432  0.0528
 5874TIP3    H239114   3.445   4.987  10.815  0.8472  0.6242 -2.2334
 5875TIP3   OH239115   2.493   4.133  12.718 -0.2392 -0.4969  0.1749
 5875TIP3    H139116   2.418   4.163  12.770  1.1453  2.6651  0.4771
 5875TIP3    H239117   2.455   4.088  12.643 -2.3879 -0.2750  1.1162
 5876TIP3   OH239118   2.833   4.627  10.823 -0.2244 -0.8959 -0.1500
 5876TIP3    H139119   2.785   4.657  10.745  1.6087 -0.9431 -1.3114
 5876TIP3    H239120   2.806   4.536  10.835 -1.9951 -0.3168  0.4367
 5877TIP3   OH239121   0.835   6.260  10.803  0.0077 -0.3062 -0.0206
 5877TIP3    H139122   0.864   6.343  10.765 -0.4201 -0.5637 -0.9384
 5877TIP3    H239123   0.856   6.267  10.896  2.4529 -0.2390 -0.5393
 5878TIP3   OH239124   7.036   2.102  10.087 -0.4913 -0.1425  0.2982
 5878TIP3    H139125   7.114   2.129  10.136 -1.6825 -1.3493  2.9211
 5878TIP3    H239126   6.965   2.157  10.121 -1.1074 -0.0663 -1.0550
 5879TIP3   OH239127   6.464   0.569  11.548 -0.1312 -0.2100 -0.5095
 5879TIP3    H139128   6.492   0.655  11.517 -0.1871 -0.6243 -1.7250
 5879TIP3    H239129   6.452   0.517  11.469 -1.6867 -0.8544  0.1280
 5880TIP3   OH239130   6.276   1.915  10.340 -0.0087  1.3060  0.3687
 5880TIP3    H139131   6.254   1.885  10.428  0.4380  1.5879  0.5778
 5880TIP3    H239132   6.327   1.995  10.353 -1.7447  2.5364 -0.2157
 5881TIP3   OH239133   5.671   6.854   0.738 -0.3377  0.0498  0.0509
 5881TIP3    H139134   5.733   6.785   0.761  0.1239  0.3296 -0.3532
 5881TIP3    H239135   5.588   6.824   0.775 -0.4716 -1.4575 -1.3803
 5882TIP3   OH239136   0.931   2.639  11.515  0.1217  0.2067 -0.8206
 5882TIP3    H139137   0.962   2.561  11.561 -1.9623  0.5293  1.2137
 5882TIP3    H239138   0.974   2.712  11.561  0.3401  0.3872 -1.3059
 5883TIP3   OH239139   1.737   0.682  13.640  0.1255 -0.4277  0.2036
 5883TIP3    H139140   1.698   0.600  13.672 -0.0399  0.4538  2.3175
 5883TIP3    H239141   1.702   0.692  13.551 -2.0168 -1.2510  0.9232
 5884TIP3   OH239142   3.064   2.766  14.271 -0.3476  0.0862 -0.0472
 5884TIP3    H139143   2.992   2.704  14.276  0.5935 -1.0735 -0.7762
 5884TIP3    H239144   3.104   2.764  14.358  0.6064 -1.4559 -0.5118
 5885TIP3   OH239145   5.841   2.371  14.390  0.5714 -0.1635  0.5189
 5885TIP3    H139146   5.925   2.409  14.413  1.2279 -1.7329  0.7780
 5885TIP3    H239147   5.806   2.337  14.472  0.1066 -0.3265  0.2624
 5886TIP3   OH239148   1.881   3.360   0.017  0.0299  0.6528 -0.3550
 5886TIP3    H139149   1.838   3.274   0.020  0.4834  0.4253 -0.3354
 5886TIP3    H239150   1.875   3.386  -0.075  0.3145  0.3861 -0.4486
 5887TIP3   OH239151   2.437   0.173  12.342 -0.1332 -0.2404  0.0229
 5887TIP3    H139152   2.491   0.095  12.354 -0.4509 -0.3444  0.7924
 5887TIP3    H239153   2.494   0.246  12.367 -0.3469 -0.3485  0.8197
 5888TIP3   OH239154   2.226   0.084  12.704  0.0997  0.1702  0.3994
 5888TIP3    H139155   2.194   0.155  12.760 -0.4900 -0.0712  0.3666
 5888TIP3    H239156   2.252   0.015  12.765  0.5029  0.3448  0.4230
 5889TIP3   OH239157   2.655   6.587   9.847 -0.4646 -0.5042  0.3545
 5889TIP3    H139158   2.603   6.519   9.889  0.0746 -0.4984  1.0445
 5889TIP3    H239159   2.621   6.593   9.758 -0.8669 -1.3028  0.4560
 5890TIP3   OH239160   6.334   0.701  14.498 -0.2311  0.3610  0.5181
 5890TIP3    H139161   6.309   0.780  14.546  0.9132  0.5459  0.8175
 5890TIP3    H239162   6.411   0.669  14.544  1.6979  1.2773 -1.9588
 5891TIP3   OH239163   0.404   5.753  13.286  0.3345 -0.6901 -0.4728
 5891TIP3    H139164   0.470   5.718  13.346 -0.9084 -1.0092  0.7365
 5891TIP3    H239165   0.333   5.689  13.288  0.3552 -0.8167 -2.4700
 5892TIP3   OH239166   4.855   0.790  12.197 -0.2836 -0.3571 -0.5528
 5892TIP3    H139167   4.907   0.870  12.203  0.1076 -0.7360  1.5077
 5892TIP3    H239168   4.850   0.772  12.103  1.3423  0.9585 -0.9262
 5893TIP3   OH239169   6.430   5.884  11.031  0.0366 -0.4184 -0.3285
 5893TIP3    H139170   6.393   5.812  10.981 -1.4326 -1.1153  1.6691
 5893TIP3    H239171   6.365   5.954  11.023 -0.1090 -0.4657  0.4210
 5894TIP3   OH239172   0.092   6.574  12.147 -0.1234  0.3378 -0.1819
 5894TIP3    H139173   0.181   6.541  12.156  0.0976  0.9746  0.0315
 5894TIP3    H239174   0.051   6.555  12.232 -0.0372  0.4835 -0.1068
 5895TIP3   OH239175   5.958   4.430  10.093 -0.0624 -0.7726  0.3521
 5895TIP3    H139176   5.889   4.494  10.079 -0.7950 -1.2279  1.8703
 5895TIP3    H239177   6.037   4.482  10.106 -0.4011 -0.2162  0.1956
 5896TIP3   OH239178   2.307   2.629  11.627 -0.1086  0.0234  0.6074
 5896TIP3    H139179   2.273   2.546  11.661 -0.1124 -0.0905  0.3246
 5896TIP3    H239180   2.349   2.606  11.545 -1.0701  0.4665 -0.0191
 5897TIP3   OH239181   1.799   2.137  12.637 -0.2784  0.0879  0.6641
 5897TIP3    H139182   1.759   2.223  12.647 -1.0393 -0.0348 -1.1409
 5897TIP3    H239183   1.890   2.154  12.617 -0.1851  0.4477  1.3947
 5898TIP3   OH239184   6.166   5.207  15.471  0.4940 -0.3638 -0.6488
 5898TIP3    H139185   6.229   5.264  15.516  3.5929 -4.2322  0.1994
 5898TIP3    H239186   6.136   5.146  15.539 -2.2298 -0.2191 -1.6616
 5899TIP3   OH239187   0.933   6.283   1.479  0.1043 -0.2338 -0.0825
 5899TIP3    H139188   1.027   6.264   1.476  0.3038  0.9087 -2.3173
 5899TIP3    H239189   0.891   6.203   1.447  0.3407 -0.5976  0.5181
 5900TIP3   OH239190   4.103   1.585  11.644 -0.5403  0.2747  0.5170
 5900TIP3    H139191   4.045   1.529  11.592  0.4354  0.0088 -0.3012
 5900TIP3    H239192   4.075   1.674  11.621 -1.1684  0.1431  0.7571
 5901TIP3   OH239193   1.448   0.117  11.577  0.0097 -0.9733  0.3637
 5901TIP3    H139194   1.398   0.197  11.560 -2.0023 -1.9796  1.3580
 5901TIP3    H239195   1.412   0.084  11.660  2.8356 -1.3473  1.5113
 5902TIP3   OH239196   1.414   5.608  14.666 -0.7983 -0.3730  0.3970
 5902TIP3    H139197   1.393   5.637  14.755 -3.3795 -1.1176  0.0652
 5902TIP3    H239198   1.360   5.530  14.653 -1.1657  0.2832 -2.1725
 5903TIP3   OH239199   0.713   7.016  12.551 -0.9099  0.8037  0.2774
 5903TIP3    H139200   0.648   7.073  12.592 -1.8613 -0.0777  0.0159
 5903TIP3    H239201   0.663   6.938  12.525  0.6533 -0.8856  2.1505
 5904TIP3   OH239202   4.975   6.500  11.880  0.5681 -0.1124 -0.4525
 5904TIP3    H139203   4.992   6.542  11.965  0.1231  1.3221 -1.0573
 5904TIP3    H239204   4.917   6.561  11.834  1.0279 -0.7383 -1.9034
 5905TIP3   OH239205   1.421   2.000  12.096  0.3739  0.1444 -0.0745
 5905TIP3    H139206   1.464   1.951  12.026 -0.5960 -1.7720  0.6454
 5905TIP3    H239207   1.391   1.933  12.158 -1.7686  1.5731  0.4941
 5906TIP3   OH239208   1.964   6.705  14.620  0.4187  0.1349 -0.6727
 5906TIP3    H139209   1.915   6.644  14.676 -1.0385  1.0788 -0.8929
 5906TIP3    H239210   2.011   6.761  14.682 -0.6046  0.7006 -0.3920
 5907TIP3   OH239211   3.431   2.369  14.283 -0.0588  0.3845 -0.5444
 5907TIP3    H139212   3.433   2.274  14.268  1.4931  0.4375 -0.6797
 5907TIP3    H239213   3.345   2.384  14.322  0.6651 -1.4724  1.9684
 5908TIP3   OH239214   6.219   0.644  11.932 -0.6276 -0.0428 -0.5426
 5908TIP3    H139215   6.205   0.575  11.997  0.2180 -0.7917 -1.1376
 5908TIP3    H239216   6.257   0.599  11.857  2.0067  1.3928 -0.1308
 5909TIP3   OH239217   6.495   5.447  12.572  0.1075 -0.0900  0.7538
 5909TIP3    H139218   6.589   5.445  12.552 -0.2656 -0.0824 -1.0936
 5909TIP3    H239219   6.475   5.358  12.602  0.6623 -0.1693  0.8940
 5910TIP3   OH239220   6.424   0.299  14.695 -0.0994 -0.7125  0.4012
 5910TIP3    H139221   6.471   0.367  14.648  0.1889 -1.2042 -0.0324
 5910TIP3    H239222   6.347   0.343  14.731  1.3611  0.3814  2.2448
 5911TIP3   OH239223   0.402   0.960  14.509  0.0242 -0.3733  0.0097
 5911TIP3    H139224   0.396   0.993  14.419  0.2887 -2.5715 -0.8362
 5911TIP3    H239225   0.429   1.036  14.560  0.4939  0.7612 -1.8785
 5912TIP3   OH239226   1.182   3.592  13.287 -0.0263  0.1518  0.0419
 5912TIP3    H139227   1.219   3.604  13.199  1.0055  0.8132  0.5618
 5912TIP3    H239228   1.119   3.664  13.296 -1.1977 -0.7607 -0.6993
 5913TIP3   OH239229   3.559   4.395  13.277 -0.4309  0.0585 -0.2650
 5913TIP3    H139230   3.578   4.478  13.321 -0.4593  0.1632 -0.4518
 5913TIP3    H239231   3.473   4.409  13.238 -0.1673  0.1450 -0.8103
 5914TIP3   OH239232   5.918   2.015  13.974  0.4430  0.0630  0.0200
 5914TIP3    H139233   5.824   2.002  13.978  0.3783  0.2038 -1.0009
 5914TIP3    H239234   5.946   1.969  13.895  0.8417  2.2445 -1.1676
 5915TIP3   OH239235   1.313   5.509  11.810  0.2699  0.2259  0.5680
 5915TIP3    H139236   1.308   5.551  11.724 -1.3799  0.1594  0.6226
 5915TIP3    H239237   1.280   5.576  11.870  1.3657  0.2517  1.1583
 5916TIP3   OH239238   5.167   3.121  11.695  0.0394  0.4908 -0.0278
 5916TIP3    H139239   5.234   3.189  11.694 -1.0679  1.6088 -0.1657
 5916TIP3    H239240   5.169   3.084  11.607  1.4418 -0.4866  0.3848
 5917TIP3   OH239241   4.875   6.945  13.422 -0.0956  0.2434  0.5790
 5917TIP3    H139242   4.945   6.902  13.471 -0.5646 -1.0680  0.1416
 5917TIP3    H239243   4.795   6.901  13.451 -0.5438  0.5215 -0.1938
 5918TIP3   OH239244   0.243   2.193  14.442  0.2680 -0.7774  0.5640
 5918TIP3    H139245   0.204   2.188  14.530  0.7166 -0.1005  0.8021
 5918TIP3    H239246   0.226   2.282  14.413  1.1776 -0.6451  0.4490
 5919TIP3   OH239247   4.423   5.278  13.416 -0.2285 -0.1615 -0.0079
 5919TIP3    H139248   4.388   5.319  13.495 -1.8146 -0.7979 -0.3754
 5919TIP3    H239249   4.518   5.275  13.431 -0.1648  2.7681  0.4291
 5920TIP3   OH239250   3.621   6.473  14.836  0.1721  0.3067  0.1528
 5920TIP3    H139251   3.645   6.544  14.777 -1.7435  0.2675 -0.7275
 5920TIP3    H239252   3.604   6.399  14.778  2.6932 -1.0655  1.0967
 5921TIP3   OH239253   1.389   3.821  14.388 -0.0825  0.1007 -0.4702
 5921TIP3    H139254   1.442   3.875  14.330  0.3012  1.6456  1.2511
 5921TIP3    H239255   1.451   3.764  14.432 -0.1609  0.1163 -0.3375
 5922TIP3   OH239256   1.471   2.615   0.025  0.6521  0.4605 -0.1017
 5922TIP3    H139257   1.517   2.584   0.103 -0.0800 -0.6292 -0.0963
 5922TIP3    H239258   1.455   2.708   0.042  1.3190  0.4507  0.6367
 5923TIP3   OH239259   3.711   5.583  12.675  0.4593  0.5389  0.1700
 5923TIP3    H139260   3.625   5.547  12.697  0.9304 -0.7691 -0.1222
 5923TIP3    H239261   3.762   5.573  12.755  0.6078  0.5074  0.0712
 5924TIP3   OH239262   5.511   1.666  11.535 -0.2646  0.6184  0.3645
 5924TIP3    H139263   5.529   1.755  11.504 -0.6575  1.0333  1.2905
 5924TIP3    H239264   5.576   1.651  11.604  0.2137 -0.0595 -0.2278
 5925TIP3   OH239265   0.545   7.141  11.821 -0.1868  0.6882 -0.2421
 5925TIP3    H139266   0.506   7.227  11.837  0.9159  1.3893 -1.2050
 5925TIP3    H239267   0.638   7.159  11.809 -0.0206 -0.5841 -0.9564
 5926TIP3   OH239268   1.470   2.663  10.276 -0.1921 -0.5401 -0.1657
 5926TIP3    H139269   1.398   2.725  10.265  1.5194  1.7863  1.2171
 5926TIP3    H239270   1.466   2.638  10.368  1.6011  0.7267  0.2801
 5927TIP3   OH239271   2.623   3.142  12.730  0.1299 -0.4199  0.3891
 5927TIP3    H139272   2.537   3.107  12.709 -0.1213  1.0728 -1.1504
 5927TIP3    H239273   2.606   3.232  12.761  1.1894  0.2088 -0.8040
 5928TIP3   OH239274   1.876   1.075  10.905  0.0614 -0.3887  0.0287
 5928TIP3    H139275   1.826   1.003  10.867 -0.4433  0.7721 -1.5562
 5928TIP3    H239276   1.850   1.152  10.854 -0.2404  1.1317  2.4101
 5929TIP3   OH239277   3.603   1.282  12.564  0.3199 -0.0698 -0.1495
 5929TIP3    H139278   3.666   1.250  12.629  0.5131  0.3564 -0.1311
 5929TIP3    H239279   3.528   1.223  12.573  0.7473 -0.6383 -0.2361
 5930TIP3   OH239280   6.435   5.023  12.998  0.6442  0.1306 -0.6568
 5930TIP3    H139281   6.442   4.992  12.908  0.9959 -0.4462 -0.4371
 5930TIP3    H239282   6.373   4.961  13.039 -0.2984  0.9915 -0.7624
 5931TIP3   OH239283   5.874   6.151   9.944  0.1206 -0.7814 -0.0909
 5931TIP3    H139284   5.909   6.135  10.032 -0.7214 -0.1025  0.3751
 5931TIP3    H239285   5.951   6.170   9.891  0.6113 -0.9379  0.5504
 5932TIP3   OH239286   2.191   6.583  12.631  0.1080 -0.7152 -0.5818
 5932TIP3    H139287   2.257   6.628  12.578  1.2451 -1.5609  0.0939
 5932TIP3    H239288   2.191   6.494  12.599 -1.4609 -0.4789 -1.2743
 5933TIP3   OH239289   2.933   6.730  11.112 -0.2986 -0.2924  0.1567
 5933TIP3    H139290   2.881   6.670  11.166  0.2842 -0.6318  0.3581
 5933TIP3    H239291   3.023   6.696  11.120 -0.3497 -0.9389 -1.8319
 5934TIP3   OH239292   5.622   1.226   9.688  0.4444  0.7510 -0.0975
 5934TIP3    H139293   5.674   1.283   9.631  0.1640  0.0424 -1.0680
 5934TIP3    H239294   5.651   1.138   9.667 -1.7797  0.2802 -1.3074
 5935TIP3   OH239295   5.636   6.428  12.332  0.0322  0.1751  0.3498
 5935TIP3    H139296   5.637   6.463  12.421 -2.9949 -2.4876  1.5178
 5935TIP3    H239297   5.704   6.361  12.331  1.4725  1.6061 -0.0068
 5936TIP3   OH239298   2.795   1.848  10.635 -0.1089  0.4895  0.5583
 5936TIP3    H139299   2.878   1.894  10.636  0.3889 -0.3903 -0.3758
 5936TIP3    H239300   2.731   1.913  10.605  0.1925  1.2259  1.4965
 5937TIP3   OH239301   4.796   5.005  14.034 -0.4364  0.2600 -0.3161
 5937TIP3    H139302   4.781   5.096  14.009  0.9795  0.4100 -0.6653
 5937TIP3    H239303   4.742   4.954  13.973  0.8703  0.7548 -1.9116
 5938TIP3   OH239304   3.379   6.275  11.584  0.3579 -0.1486 -0.3506
 5938TIP3    H139305   3.382   6.216  11.509  0.5651 -1.0873  0.3890
 5938TIP3    H239306   3.471   6.297  11.600  0.3118  0.0676 -0.3866
 5939TIP3   OH239307   6.763   0.044  11.115  0.3422 -0.1011  0.0751
 5939TIP3    H139308   6.702   0.074  11.049  0.1874 -1.2692 -0.3246
 5939TIP3    H239309   6.799  -0.038  11.080  1.7047  0.2698  0.5517
 5940TIP3   OH239310   0.612   2.050  15.373  0.1958  0.1474  0.2838
 5940TIP3    H139311   0.594   1.993  15.298 -0.3760 -1.1240  1.3724
 5940TIP3    H239312   0.656   1.994  15.436 -2.7257  0.1787  2.4717
 5941TIP3   OH239313   5.291   6.950  10.404 -0.5920 -0.2484 -0.4970
 5941TIP3    H139314   5.349   6.887  10.362 -0.8996 -0.5227 -0.5134
 5941TIP3    H239315   5.245   6.899  10.471 -0.9741 -0.0792 -0.6324
 5942TIP3   OH239316   1.047   7.109  12.011  0.2137 -0.0719  0.2176
 5942TIP3    H139317   1.017   7.167  12.081  0.3216  1.0877 -0.6962
 5942TIP3    H239318   1.134   7.141  11.988 -0.3756  0.4017 -1.3851
 5943TIP3   OH239319   3.010   0.535   9.353  0.2372 -0.2381 -0.0123
 5943TIP3    H139320   2.987   0.492   9.436  0.5240 -1.0165 -0.3310
 5943TIP3    H239321   3.105   0.527   9.348  0.1334 -1.0308 -0.8692
 5944TIP3   OH239322   4.936   1.383  10.514  0.5769 -0.3638 -0.1959
 5944TIP3    H139323   4.874   1.443  10.556 -0.6763 -0.4833 -1.8382
 5944TIP3    H239324   5.016   1.390  10.568 -0.3466  0.9297  1.0513
 5945TIP3   OH239325   3.991   4.436  15.018 -0.2010 -0.3597  0.1516
 5945TIP3    H139326   4.081   4.464  15.036  0.0046 -2.0652  2.0457
 5945TIP3    H239327   3.993   4.406  14.927  0.9460  0.4295 -0.0895
 5946TIP3   OH239328   4.859   6.523  13.552  0.2744  0.1149  0.2323
 5946TIP3    H139329   4.786   6.538  13.612  0.0809  0.1771 -0.0163
 5946TIP3    H239330   4.907   6.605  13.553 -0.7544  0.7518 -1.0897
 5947TIP3   OH239331   0.185   1.003  15.540 -0.5935 -0.1177  0.1255
 5947TIP3    H139332   0.209   1.010  15.448 -2.9434  0.6347 -0.4459
 5947TIP3    H239333   0.151   1.089  15.563 -0.3356 -0.3997  1.6179
 5948TIP3   OH239334   5.801   1.899  14.401  0.1606 -0.1164  0.4787
 5948TIP3    H139335   5.755   1.954  14.338  2.0901 -0.4113 -1.2610
 5948TIP3    H239336   5.861   1.958  14.445 -1.5740  0.1963  2.4840
 5949TIP3   OH239337   4.502   6.648  12.469 -0.3654  0.2791 -0.9536
 5949TIP3    H139338   4.558   6.644  12.391  0.0498 -0.7877 -0.6086
 5949TIP3    H239339   4.430   6.706  12.444 -0.3865 -0.2770 -2.2361
 5950TIP3   OH239340   3.336   2.817  11.387 -0.4943 -0.6013 -0.0264
 5950TIP3    H139341   3.334   2.741  11.328  1.1075 -0.9064  0.2799
 5950TIP3    H239342   3.377   2.784  11.467  0.4399  0.6375  0.0217
 5951TIP3   OH239343   6.297   0.276  13.242 -0.1887 -0.4416 -0.0191
 5951TIP3    H139344   6.208   0.243  13.256 -0.3376  0.4905  1.4750
 5951TIP3    H239345   6.287   0.371  13.243  0.8402 -0.3314  0.2711
 5952TIP3   OH239346   0.089   0.985  10.848  0.3143  0.0851  0.1401
 5952TIP3    H139347   0.039   0.990  10.929  0.1983 -0.5357  0.1065
 5952TIP3    H239348   0.142   0.905  10.858  1.1068  0.5957  0.0719
 5953TIP3   OH239349   1.327   3.356  11.153 -0.5188 -0.0076 -0.4598
 5953TIP3    H139350   1.268   3.425  11.121 -1.1641 -0.8388 -1.0651
 5953TIP3    H239351   1.300   3.278  11.106  2.1758 -0.0420 -2.0053
 5954TIP3   OH239352   2.748   1.006  12.563  0.1866  0.5213 -0.1806
 5954TIP3    H139353   2.654   1.023  12.568 -0.0738 -1.0704  0.6613
 5954TIP3    H239354   2.754   0.915  12.531  1.3720 -0.4644  2.7178
 5955TIP3   OH239355   4.990   4.156  11.315  0.0904 -0.4703 -0.4871
 5955TIP3    H139356   4.939   4.077  11.294 -2.6013  0.8583  0.8911
 5955TIP3    H239357   4.925   4.219  11.345  2.7219  0.8016  2.7655
 5956TIP3   OH239358   4.704   0.164   2.735 -0.2297  0.2499  0.4978
 5956TIP3    H139359   4.740   0.077   2.717 -0.0916  0.3901  0.0730
 5956TIP3    H239360   4.636   0.175   2.668 -0.8382  0.1208  1.0884
 5957TIP3   OH239361   4.385   5.583  10.610 -0.3192 -0.7394 -0.3675
 5957TIP3    H139362   4.414   5.670  10.637  0.8080 -1.5610  1.1506
 5957TIP3    H239363   4.294   5.578  10.640  0.0925 -0.6468  0.9347
 5958TIP3   OH239364   0.838   6.328  11.839 -0.1098 -0.0619  0.1221
 5958TIP3    H139365   0.747   6.337  11.866  0.0897  1.2320  0.4320
 5958TIP3    H239366   0.848   6.391  11.768 -0.0002 -1.7323 -1.3835
 5959TIP3   OH239367   2.366   2.400  13.057 -0.0752 -0.4121 -0.3267
 5959TIP3    H139368   2.431   2.470  13.050  0.5334 -0.8033  1.2604
 5959TIP3    H239369   2.383   2.344  12.982 -0.3639  0.9511 -1.4477
 5960TIP3   OH239370   1.872   6.398  14.215  0.2475  0.2598 -0.1033
 5960TIP3    H139371   1.839   6.387  14.304 -1.7041  0.2353 -0.8109
 5960TIP3    H239372   1.954   6.447  14.226 -1.1287  2.2954  1.5436
 5961TIP3   OH239373   3.616   0.678  12.457 -0.7563  0.2699 -0.1158
 5961TIP3    H139374   3.639   0.645  12.544  0.9649  1.0707 -0.2613
 5961TIP3    H239375   3.654   0.615  12.396 -2.6204 -0.7100 -0.2974
 5962TIP3   OH239376   2.482   4.888  13.526 -0.5206  0.0324  0.3905
 5962TIP3    H139377   2.393   4.893  13.493  0.0242 -0.2397 -1.1440
 5962TIP3    H239378   2.515   4.978  13.520 -0.3558 -0.0540  0.0407
 5963TIP3   OH239379   1.456   7.090  14.984  0.3191 -0.4252 -0.3800
 5963TIP3    H139380   1.428   7.148  15.055  1.3272 -0.5175  0.1030
 5963TIP3    H239381   1.428   7.134  14.905  0.7408  0.5528  0.0036
 5964TIP3   OH239382   3.749   3.824  10.188 -0.1491 -0.1839 -0.4005
 5964TIP3    H139383   3.671   3.812  10.134 -3.3384 -0.2168  3.9072
 5964TIP3    H239384   3.732   3.770  10.265  2.3876  2.8042  2.3582
 5965TIP3   OH239385   6.680   6.057  11.183  0.7005  0.2159 -0.5288
 5965TIP3    H139386   6.643   6.017  11.261  0.8719  0.0550 -0.5318
 5965TIP3    H239387   6.660   5.997  11.112 -0.4772  0.9225 -0.8014
 5966TIP3   OH239388   4.560   1.560  12.999  0.4715 -0.0346 -0.0208
 5966TIP3    H139389   4.513   1.477  12.998 -1.3018  0.8940  1.7820
 5966TIP3    H239390   4.600   1.566  12.913  0.9278 -2.9160 -0.0483
 5967TIP3   OH239391   4.996   4.512  11.876  0.5130  0.0072  0.0927
 5967TIP3    H139392   5.003   4.587  11.936 -1.5381 -1.0650  1.7501
 5967TIP3    H239393   4.972   4.551  11.792  0.8195  1.3177  0.6007
 5968TIP3   OH239394   3.676   1.969  10.181 -0.1205  0.2526 -0.5841
 5968TIP3    H139395   3.748   1.954  10.120 -1.0520 -1.4915 -1.2835
 5968TIP3    H239396   3.607   2.007  10.128 -0.4665 -0.0376 -0.3434
 5969TIP3   OH239397   2.278   2.001  12.051 -0.0753 -0.6614  0.1567
 5969TIP3    H139398   2.266   1.935  12.120 -0.4710 -0.5723  0.1721
 5969TIP3    H239399   2.367   1.985  12.018 -0.3318 -1.5011 -0.1528
 5970TIP3   OH239400   6.232   4.454  12.637 -0.6468  0.0367 -0.1590
 5970TIP3    H139401   6.287   4.377  12.624 -1.6817 -0.9492  1.2014
 5970TIP3    H239402   6.145   4.419  12.656 -1.3562  1.5569 -0.4922
 5971TIP3   OH239403   7.140   0.906   0.071 -0.2348 -0.2625  0.4887
 5971TIP3    H139404   7.130   0.932   0.163 -1.5228 -0.1957  0.3267
 5971TIP3    H239405   7.198   0.830   0.075  0.6844  0.4582  1.2562
 5972TIP3   OH239406   4.786   5.632  11.705 -0.0935 -0.1223 -0.0006
 5972TIP3    H139407   4.862   5.648  11.649  0.1096  1.1945  0.6257
 5972TIP3    H239408   4.711   5.662  11.653 -0.0201  0.0524 -0.0047
 5973TIP3   OH239409   3.872   0.381  13.661  1.0965  0.3469  0.6053
 5973TIP3    H139410   3.896   0.289  13.664 -2.0631 -0.6091 -0.7543
 5973TIP3    H239411   3.924   0.417  13.589 -0.9584 -1.5425 -1.9618
 5974TIP3   OH239412   3.950   6.386  10.129  0.1693  1.4983 -0.0830
 5974TIP3    H139413   3.902   6.383  10.047  2.2705 -1.0647 -1.2826
 5974TIP3    H239414   4.031   6.433  10.107  0.7666  0.7440  0.4788
 5975TIP3   OH239415   3.515   4.957  14.034 -0.1804 -0.2909  0.4213
 5975TIP3    H139416   3.568   5.016  14.087  1.0882 -0.4697 -0.6341
 5975TIP3    H239417   3.440   4.937  14.089  0.8530 -0.0557  1.9395
 5976TIP3   OH239418   0.720   6.229  10.443  0.5925 -0.1988 -0.0751
 5976TIP3    H139419   0.643   6.197  10.490  1.7421  0.6947  2.5046
 5976TIP3    H239420   0.712   6.324  10.446  1.3962 -0.1172 -0.4580
 5977TIP3   OH239421   5.717   1.668  10.566 -0.0585  0.4728  0.1131
 5977TIP3    H139422   5.727   1.729  10.493  0.8598 -0.4093 -0.5137
 5977TIP3    H239423   5.751   1.585  10.532 -2.1226 -0.6176  0.6394
 5978TIP3   OH239424   1.970   3.808  11.171 -0.3191  0.5383  0.1844
 5978TIP3    H139425   2.002   3.840  11.087  1.7170 -2.3773 -0.2024
 5978TIP3    H239426   1.909   3.738  11.149  0.9500 -0.8841  1.1438
 5979TIP3   OH239427   4.117   1.091  12.059  0.0878  0.1903 -0.2089
 5979TIP3    H139428   4.101   1.156  12.127  1.5380 -0.1975  0.5151
 5979TIP3    H239429   4.039   1.035  12.060 -0.7176  1.3094 -0.1564
 5980TIP3   OH239430   5.236   5.554  12.184 -0.4385 -0.1066  0.2237
 5980TIP3    H139431   5.243   5.459  12.180  0.4256 -0.0123 -0.8497
 5980TIP3    H239432   5.230   5.574  12.278 -0.0359 -1.1831  0.4846
 5981TIP3   OH239433   4.494   4.387  13.017 -0.2121  0.0308 -0.5576
 5981TIP3    H139434   4.494   4.361  13.109 -0.3687  1.3099 -0.1779
 5981TIP3    H239435   4.413   4.438  13.007  0.4752  1.0530 -1.0493
 5982TIP3   OH239436   4.519   6.120  10.235 -0.3351  0.1934  0.3657
 5982TIP3    H139437   4.457   6.131  10.162 -0.2015  0.5890  0.3076
 5982TIP3    H239438   4.504   6.197  10.290  1.0117  0.9617 -0.3244
 5983TIP3   OH239439   2.989   5.449  10.070 -0.5177  0.3844  0.3921
 5983TIP3    H139440   2.953   5.388  10.005  0.4002 -0.7125  0.8796
 5983TIP3    H239441   3.059   5.495  10.023 -1.4885  1.3605 -0.0963
 5984TIP3   OH239442   3.237   6.565  13.882 -0.0883  0.3607 -0.1197
 5984TIP3    H139443   3.164   6.504  13.890  0.0227  0.3433  0.8368
 5984TIP3    H239444   3.225   6.606  13.796 -1.6191  0.8604  0.3083
 5985TIP3   OH239445   6.006   5.806  11.094 -0.1382  0.4631  0.6008
 5985TIP3    H139446   6.020   5.746  11.021  0.6569 -0.7855  1.7531
 5985TIP3    H239447   5.947   5.759  11.152  0.3488  0.8669  1.4294
 5986TIP3   OH239448   3.149   2.503  14.893  0.9004 -0.0824 -0.0115
 5986TIP3    H139449   3.058   2.528  14.875  1.4132  1.0749 -1.1458
 5986TIP3    H239450   3.150   2.477  14.985  0.0318  2.8887  0.9045
 5987TIP3   OH239451   5.018   1.934  10.266 -0.1681  0.1017 -0.2349
 5987TIP3    H139452   5.035   1.848  10.303 -1.0877  0.5103  1.1917
 5987TIP3    H239453   4.922   1.941  10.265 -0.1350  0.4746 -1.8399
 5988TIP3   OH239454   0.837   1.389  10.800 -0.3431 -0.0046  0.6093
 5988TIP3    H139455   0.922   1.408  10.759  0.0527  0.0596  1.4340
 5988TIP3    H239456   0.788   1.470  10.791 -0.2109  0.0510  0.3757
 5989TIP3   OH239457   1.648   0.253  12.163  0.5994 -0.4315 -0.3223
 5989TIP3    H139458   1.678   0.191  12.229 -0.2714 -1.4449 -0.8608
 5989TIP3    H239459   1.693   0.227  12.083  2.0509  1.1128 -0.0528
 5990TIP3   OH239460   2.716   5.621  11.225  0.9570 -0.0961 -0.2298
 5990TIP3    H139461   2.746   5.677  11.154  0.8412  1.8997  1.2654
 5990TIP3    H239462   2.706   5.535  11.185  1.2963  0.9048 -2.5233
 5991TIP3   OH239463   2.735   0.000  13.331 -0.0462 -1.0814  0.3260
 5991TIP3    H139464   2.820  -0.034  13.303  0.6796 -0.2412  1.4646
 5991TIP3    H239465   2.749   0.028  13.421 -0.8034  1.5703 -0.3421
 5992TIP3   OH239466   0.318   2.251  11.106  0.4373 -0.6752 -0.6300
 5992TIP3    H139467   0.388   2.316  11.111  0.7619 -0.9875 -1.0620
 5992TIP3    H239468   0.344   2.183  11.168 -0.1899 -0.1286  0.2505
 5993TIP3   OH239469   3.692   4.017  15.137 -0.6223  0.3307  0.1517
 5993TIP3    H139470   3.703   4.090  15.076  1.1132  0.9916  1.2137
 5993TIP3    H239471   3.675   4.059  15.222 -0.0169 -0.4946  0.6895
 5994TIP3   OH239472   2.819   3.436  12.762  0.5110 -0.2042  0.3691
 5994TIP3    H139473   2.829   3.522  12.801  1.4747 -0.2791  0.2850
 5994TIP3    H239474   2.731   3.408  12.788  0.4849  0.4826  1.0245
 5995TIP3   OH239475   4.279   6.466  13.083 -0.3940  0.0360 -0.1710
 5995TIP3    H139476   4.366   6.485  13.049 -1.5571  1.1236 -2.6361
 5995TIP3    H239477   4.267   6.372  13.067  0.7293 -0.3861  1.2609
 5996TIP3   OH239478   0.279   5.143  13.145  0.0992 -0.1214  0.7947
 5996TIP3    H139479   0.341   5.071  13.132  0.3714  0.3842 -0.8549
 5996TIP3    H239480   0.195   5.108  13.116  0.1070  0.0114  0.6096
 5997TIP3   OH239481   2.398   2.306  15.014  0.2966 -0.3386  0.1844
 5997TIP3    H139482   2.354   2.391  15.003  0.6798  0.0145  1.3344
 5997TIP3    H239483   2.332   2.242  14.985 -0.1007  0.3220 -0.4115
 5998TIP3   OH239484   4.952   5.212  14.664  0.0018 -0.6754 -0.3469
 5998TIP3    H139485   4.941   5.304  14.686  0.4048 -0.4157 -1.1766
 5998TIP3    H239486   5.000   5.175  14.738 -0.5677 -0.3225  0.1986
 5999TIP3   OH239487   0.076   6.785  12.837 -0.5569 -0.2372 -0.0148
 5999TIP3    H139488   0.050   6.876  12.846 -2.8219 -0.8080 -0.3814
 5999TIP3    H239489   0.082   6.752  12.927 -0.5491  0.0665  0.0937
 6000TIP3   OH239490   6.225   4.576  13.292 -0.3205  0.0789 -0.4310
 6000TIP3    H139491   6.160   4.641  13.319  0.6189  1.2460 -0.9388
 6000TIP3    H239492   6.230   4.515  13.366 -1.1396  0.6315  0.0871
 6001TIP3   OH239493   6.467   1.660  14.488  0.3909 -0.5210  0.1337
 6001TIP3    H139494   6.519   1.656  14.569 -0.9108  0.1814  1.0303
 6001TIP3    H239495   6.395   1.719  14.510 -0.7391 -1.4267 -1.1180
 6002TIP3   OH239496   3.611   6.996  12.934  0.2441 -0.0256 -0.3205
 6002TIP3    H139497   3.617   7.076  12.882 -0.4630  0.1279 -0.1725
 6002TIP3    H239498   3.588   7.027  13.022 -0.6845 -0.4331 -0.4115
 6003TIP3   OH239499   1.669   5.474  14.695  0.0206 -0.6139  0.2090
 6003TIP3    H139500   1.590   5.517  14.663 -0.3634 -1.6823 -0.2875
 6003TIP3    H239501   1.647   5.446  14.784  0.7589  1.4728  1.0963
 6004TIP3   OH239502   2.914   4.175  10.544  0.1803  0.3202 -0.4281
 6004TIP3    H139503   2.851   4.245  10.525 -0.2224  0.1918  0.3860
 6004TIP3    H239504   2.872   4.123  10.613  0.4720 -0.7378 -1.0403
 6005TIP3   OH239505   2.459   1.941  10.547  0.0973 -0.3087  0.4551
 6005TIP3    H139506   2.387   1.966  10.490 -0.3927  0.8220  1.5393
 6005TIP3    H239507   2.419   1.934  10.634  0.8526 -1.8540  0.7067
 6006TIP3   OH239508   1.786   2.219  14.415 -0.9108  0.0015  0.2684
 6006TIP3    H139509   1.729   2.237  14.490 -1.6340 -1.5717  0.1092
 6006TIP3    H239510   1.732   2.241  14.339  0.1374  2.4993  0.1848
 6007TIP3   OH239511   6.050   6.888  13.983 -0.5249  0.3874  0.5051
 6007TIP3    H139512   6.068   6.888  14.077  0.2656  0.4067  0.3610
 6007TIP3    H239513   6.135   6.908  13.943 -0.5747 -0.8610 -0.2617
 6008TIP3   OH239514   5.297   6.922   0.457  0.1362 -0.0053  0.0648
 6008TIP3    H139515   5.280   6.994   0.518  0.4174 -0.3951  0.6173
 6008TIP3    H239516   5.330   6.852   0.513  1.5725  0.0487 -0.6954
 6009TIP3   OH239517   5.431   2.775  13.730  0.3456 -0.5403  0.8039
 6009TIP3    H139518   5.502   2.757  13.792  0.7091 -0.1878  0.4904
 6009TIP3    H239519   5.362   2.713  13.754  0.7306 -0.8317  1.1603
 6010TIP3   OH239520   2.290   5.497  10.774 -0.3649 -0.1753  0.8615
 6010TIP3    H139521   2.367   5.530  10.727 -1.0353  0.8935  0.4960
 6010TIP3    H239522   2.220   5.501  10.709 -1.2175  0.9297  1.8439
 6011TIP3   OH239523   3.600   1.734  12.079 -0.0219  0.3854  0.1781
 6011TIP3    H139524   3.595   1.736  11.983  1.3758 -0.1868  0.0730
 6011TIP3    H239525   3.528   1.677  12.106 -1.4439  1.8634 -0.4207
 6012TIP3   OH239526   3.222   4.902  12.223  0.1319  0.4001 -0.5656
 6012TIP3    H139527   3.242   4.989  12.258  1.8153  0.1207 -0.7658
 6012TIP3    H239528   3.176   4.857  12.293 -0.6276  1.4109 -0.4133
 6013TIP3   OH239529   4.027   0.137  13.351 -0.4073 -0.1058  0.1567
 6013TIP3    H139530   4.057   0.097  13.433  0.2739 -0.4906 -0.2830
 6013TIP3    H239531   3.933   0.119  13.349 -0.5023  0.2316  1.0409
 6014TIP3   OH239532   5.638   6.959  10.952  0.2184  0.0858 -0.7524
 6014TIP3    H139533   5.715   6.909  10.927 -1.2062 -2.1991 -0.7071
 6014TIP3    H239534   5.578   6.949  10.877 -0.0272  1.8920 -0.8235
 6015TIP3   OH239535   4.592   6.913  13.365 -0.1342 -0.2649  0.3247
 6015TIP3    H139536   4.545   6.894  13.284  0.8266  3.1826 -1.1591
 6015TIP3    H239537   4.536   6.977  13.410  1.2319  0.9450  0.3632
 6016TIP3   OH239538   0.300   6.056   9.510 -0.2376 -0.3128 -0.4291
 6016TIP3    H139539   0.225   5.997   9.515  0.8542 -1.5908  1.5022
 6016TIP3    H239540   0.367   6.005   9.465  1.2285 -1.1731  2.6150
 6017TIP3   OH239541   3.086   1.357  12.774 -0.6229 -0.2844  0.1816
 6017TIP3    H139542   3.164   1.371  12.828 -0.5291 -1.3819  0.3446
 6017TIP3    H239543   3.023   1.317  12.835 -0.1033 -2.6942 -0.7761
 6018TIP3   OH239544   6.484   2.587  13.731  0.1352 -0.7312 -0.2624
 6018TIP3    H139545   6.399   2.597  13.688  0.9777  1.0384 -1.6075
 6018TIP3    H239546   6.464   2.593  13.825 -1.0589  1.3257 -0.6046
 6019TIP3   OH239547   3.456   0.088  12.008 -0.1567 -0.1458  0.2890
 6019TIP3    H139548   3.431   0.179  11.992 -0.1699 -0.4414 -1.5022
 6019TIP3    H239549   3.485   0.086  12.099 -0.0601  1.6701  0.3059
 6020TIP3   OH239550   1.306   2.542  12.315  0.0697  0.0222 -0.6205
 6020TIP3    H139551   1.295   2.609  12.383 -0.4192 -0.0611 -0.6147
 6020TIP3    H239552   1.398   2.549  12.290 -0.1125  1.1241 -1.0543
 6021TIP3   OH239553   2.072   0.243  11.170  0.0354  0.3076  0.3777
 6021TIP3    H139554   2.149   0.235  11.226  0.8544 -1.5202 -0.9548
 6021TIP3    H239555   2.035   0.155  11.168 -1.2430  0.8445 -0.1940
 6022TIP3   OH239556   5.579   0.138  12.254  0.6774 -0.2988  0.5718
 6022TIP3    H139557   5.672   0.140  12.232  0.8926  0.1185  1.5422
 6022TIP3    H239558   5.574   0.086  12.334 -0.0101 -0.9515  0.1123
 6023TIP3   OH239559   6.322   0.036  10.316 -0.7179 -0.7001 -0.3020
 6023TIP3    H139560   6.374   0.013  10.394 -0.8741  0.6129  0.2102
 6023TIP3    H239561   6.358   0.120  10.288 -1.4164 -0.6239 -0.9769
 6024TIP3   OH239562   4.032   6.013  13.395 -0.0208  0.0682 -0.2553
 6024TIP3    H139563   4.112   5.962  13.384 -0.3396 -0.9604  1.9978
 6024TIP3    H239564   4.058   6.088  13.449 -0.5636 -0.2887  0.5172
 6025TIP3   OH239565   5.251   5.531  12.473 -0.0021  0.0996  0.0167
 6025TIP3    H139566   5.224   5.623  12.479  0.8124  0.4121 -0.9593
 6025TIP3    H239567   5.347   5.534  12.470 -0.0067 -0.6674 -1.6453
 6026TIP3   OH239568   5.495   4.350  14.964 -0.1205 -0.5082  0.0290
 6026TIP3    H139569   5.508   4.263  14.926  0.5058 -0.8143  0.9332
 6026TIP3    H239570   5.514   4.339  15.057  1.0730  0.8467 -0.0371
 6027TIP3   OH239571   2.346   3.538  10.731  0.2429  0.2904  0.2859
 6027TIP3    H139572   2.404   3.590  10.786  0.8017  0.3711 -0.3711
 6027TIP3    H239573   2.260   3.578  10.743  0.3961  0.4396  0.9293
 6028TIP3   OH239574   0.278   6.820   9.624  0.5385  0.4596 -0.5949
 6028TIP3    H139575   0.302   6.807   9.716 -1.9269 -1.8666 -0.2092
 6028TIP3    H239576   0.334   6.758   9.576  0.2232  0.0358 -0.4187
 6029TIP3   OH239577   7.062   6.937  12.506  0.2011  0.0133 -0.6765
 6029TIP3    H139578   7.052   6.974  12.419  0.0001  0.6968 -0.3685
 6029TIP3    H239579   7.153   6.908  12.510  1.1498  2.9615  0.0297
 6030TIP3   OH239580   5.302   0.746  14.076 -0.0388 -0.0285 -0.3690
 6030TIP3    H139581   5.355   0.683  14.124 -0.6571 -0.2766 -0.0084
 6030TIP3    H239582   5.252   0.792  14.144  1.7602  2.1294 -0.4362
 6031TIP3   OH239583   0.484   2.194  13.880 -0.5628  0.1713  0.1076
 6031TIP3    H139584   0.472   2.118  13.937  0.8712 -1.2620 -1.4276
 6031TIP3    H239585   0.539   2.254  13.930  1.7042 -1.5936 -0.1390
 6032TIP3   OH239586   4.952   7.035  14.450 -0.0664 -0.3854 -0.2320
 6032TIP3    H139587   5.001   7.103  14.496 -2.0563  0.4648  0.7142
 6032TIP3    H239588   4.951   6.961  14.510  0.6755 -0.6490 -0.5504
 6033TIP3   OH239589   2.405   1.387   9.972  0.6061 -0.2958 -0.4334
 6033TIP3    H139590   2.406   1.482   9.988 -1.4207 -0.1142 -1.1386
 6033TIP3    H239591   2.464   1.374   9.898  1.7546  0.2653  0.3764
 6034TIP3   OH239592   7.137   2.256  15.489 -0.5014 -0.1897  0.4704
 6034TIP3    H139593   7.167   2.337  15.448  2.2933 -1.6620 -0.5272
 6034TIP3    H239594   7.171   2.261  15.579 -0.2800 -0.2764  0.3915
 6035TIP3   OH239595   7.106   3.867  10.799 -0.2530 -0.3265 -0.0492
 6035TIP3    H139596   7.172   3.798  10.792  0.3055  0.2623 -0.6709
 6035TIP3    H239597   7.086   3.890  10.708 -1.0284 -0.2208  0.1419
 6036TIP3   OH239598   6.186   1.561  11.402  0.1627 -0.3768 -0.0179
 6036TIP3    H139599   6.181   1.481  11.349  1.0618  0.8565 -2.0237
 6036TIP3    H239600   6.096   1.591  11.409 -0.3029 -2.0639  1.5559
 6037TIP3   OH239601   0.466   3.217  12.243 -0.1330 -0.1450 -0.2482
 6037TIP3    H139602   0.377   3.252  12.249 -0.1138  0.0363 -0.9946
 6037TIP3    H239603   0.507   3.267  12.173  1.0215  0.7619  1.0453
 6038TIP3   OH239604   4.080   6.566  13.524  0.4729 -0.3695  0.0232
 6038TIP3    H139605   4.165   6.542  13.561  0.3774  0.2818  0.6647
 6038TIP3    H239606   4.016   6.524  13.582  0.2914  1.8299  1.4561
 6039TIP3   OH239607   0.434   0.397  14.828  0.3802  0.1901 -0.3363
 6039TIP3    H139608   0.424   0.393  14.924 -1.2735 -0.8343 -0.5279
 6039TIP3    H239609   0.386   0.476  14.803 -0.1356 -0.1408 -0.4133
 6040TIP3   OH239610   5.864   5.032  12.217  0.4877  0.4621  0.0512
 6040TIP3    H139611   5.934   5.043  12.152  0.7017  0.8037  0.3362
 6040TIP3    H239612   5.840   5.122  12.241 -0.7535  0.3749 -0.7883
 6041TIP3   OH239613   1.151   6.457  10.993 -0.1078 -0.2872 -0.1328
 6041TIP3    H139614   1.082   6.495  11.047 -0.4753 -0.5948 -0.3744
 6041TIP3    H239615   1.138   6.362  11.002  1.0745 -0.3770  0.8313
 6042TIP3   OH239616   2.507   1.772   9.144  0.2383 -0.9446 -0.0664
 6042TIP3    H139617   2.483   1.702   9.082 -0.4698  0.5022 -1.4546
 6042TIP3    H239618   2.445   1.761   9.217 -1.1719 -0.5550 -1.1851
 6043TIP3   OH239619   3.339   1.822  10.034 -0.3353  0.0020  0.1041
 6043TIP3    H139620   3.410   1.802   9.973  0.3459 -1.7745  1.4309
 6043TIP3    H239621   3.261   1.825   9.979  0.3742 -0.8387 -0.9689
 6044TIP3   OH239622   1.476   7.091  14.210 -0.4950 -0.2258  0.1071
 6044TIP3    H139623   1.495   7.184  14.219 -1.1830 -0.2195  1.6632
 6044TIP3    H239624   1.532   7.062  14.138  1.1566  0.9861  0.8764
 6045TIP3   OH239625   2.720   1.780  14.185  0.0633 -0.0592 -0.1957
 6045TIP3    H139626   2.729   1.866  14.146 -0.3457  0.1761  0.2274
 6045TIP3    H239627   2.782   1.725  14.137  0.2741  0.4529 -0.5074
 6046TIP3   OH239628   4.434   6.350   9.760 -0.2740 -0.2361  0.3297
 6046TIP3    H139629   4.339   6.351   9.772 -0.0749 -1.0694  2.3037
 6046TIP3    H239630   4.468   6.396   9.837  0.9146  0.2087 -0.4509
 6047TIP3   OH239631   4.262   3.931  12.889 -0.1424  0.3712  0.4307
 6047TIP3    H139632   4.284   3.886  12.970  0.0720 -0.8207 -0.2896
 6047TIP3    H239633   4.312   3.886  12.821 -0.1482  1.4992 -0.3439
 6048TIP3   OH239634   1.879   5.869  10.489  0.0280 -0.1549  0.1701
 6048TIP3    H139635   1.882   5.848  10.395  3.1776 -3.0329  0.8161
 6048TIP3    H239636   1.963   5.910  10.507 -0.8650  1.0675  1.6346
 6049TIP3   OH239637   1.501   6.197  15.024  0.2459 -0.2544 -0.1168
 6049TIP3    H139638   1.457   6.117  15.051 -1.0049  0.9627  1.5452
 6049TIP3    H239639   1.594   6.179  15.035 -0.0158 -1.5909 -0.0994
 6050TIP3   OH239640   2.695   2.801  12.238 -0.4878  0.1723 -0.3336
 6050TIP3    H139641   2.614   2.756  12.214 -0.8455  1.4494 -1.5908
 6050TIP3    H239642   2.666   2.890  12.262  0.3143  0.0513  1.1138
 6051TIP3   OH239643   1.295   3.172  14.753  0.0368 -0.2430  0.0911
 6051TIP3    H139644   1.310   3.078  14.767  1.8676  0.0855  0.4422
 6051TIP3    H239645   1.256   3.203  14.834  0.7452 -0.4322  0.5084
 6052TIP3   OH239646   3.144   6.166  13.116  0.2538 -1.0494  0.2342
 6052TIP3    H139647   3.073   6.104  13.099 -0.0602 -0.7575  0.4758
 6052TIP3    H239648   3.205   6.152  13.045 -0.5921 -0.5065 -0.6109
 6053TIP3   OH239649   3.631   1.781  15.109  0.1857  0.1981 -0.1528
 6053TIP3    H139650   3.700   1.834  15.149  0.2358  0.0371 -0.0283
 6053TIP3    H239651   3.554   1.838  15.110 -0.2297 -0.3767  1.6355
 6054TIP3   OH239652   0.560   4.713  14.475  0.0606  0.8134 -0.2311
 6054TIP3    H139653   0.522   4.736  14.390 -1.0131  0.7726  0.2425
 6054TIP3    H239654   0.489   4.671  14.523  0.4143  1.6451  1.0312
 6055TIP3   OH239655   4.352   6.689  11.294  0.0319  0.0830 -0.3814
 6055TIP3    H139656   4.318   6.599  11.295 -1.8964  0.7917  1.2170
 6055TIP3    H239657   4.430   6.686  11.349  0.0759 -0.6616 -0.4802
 6056TIP3   OH239658   1.231   6.166  13.978  0.3305  0.1279 -0.0697
 6056TIP3    H139659   1.211   6.126  14.063 -0.4457 -0.7562 -0.6567
 6056TIP3    H239660   1.194   6.105  13.914  0.7403  0.8892 -1.0362
 6057TIP3   OH239661   0.564   1.490  12.564  0.3424 -0.0771 -0.2654
 6057TIP3    H139662   0.605   1.470  12.648 -0.8226 -0.6224  0.1777
 6057TIP3    H239663   0.634   1.480  12.500  0.9890 -0.6528  0.5269
 6058TIP3   OH239664   1.207   1.115  12.682 -0.1042 -0.0945 -0.1979
 6058TIP3    H139665   1.276   1.170  12.720  0.0859 -1.1377  0.9980
 6058TIP3    H239666   1.229   1.026  12.711 -0.1265 -0.8799 -2.5149
 6059TIP3   OH239667   4.577   0.693  12.656 -0.1643 -0.5234 -0.0729
 6059TIP3    H139668   4.554   0.699  12.563 -0.1509 -1.6701 -0.1662
 6059TIP3    H239669   4.585   0.599  12.672  0.6935 -0.2969  0.8805
 6060TIP3   OH239670   3.516   6.547  11.928  0.2382  0.3440 -0.3185
 6060TIP3    H139671   3.467   6.614  11.881  2.0387  1.6537 -0.4273
 6060TIP3    H239672   3.508   6.573  12.020 -0.9939 -0.6372 -0.1437
 6061TIP3   OH239673   6.564   2.269  11.656  0.8621 -0.2441 -0.6994
 6061TIP3    H139674   6.471   2.249  11.644  0.6964  0.5099 -0.6642
 6061TIP3    H239675   6.569   2.364  11.653  1.2658 -0.1498  1.8869
 6062TIP3   OH239676   0.103   5.060  15.214 -0.9795 -0.9325 -0.0840
 6062TIP3    H139677   0.076   5.131  15.271  0.3755  0.0658 -0.6742
 6062TIP3    H239678   0.195   5.045  15.235 -0.0904  0.3294 -2.8565
 6063TIP3   OH239679   2.065   0.235  14.713  0.8664  0.0480 -0.4239
 6063TIP3    H139680   2.060   0.204  14.804  0.4676  0.8481 -0.1627
 6063TIP3    H239681   1.974   0.240  14.684  0.8302  2.0155 -0.0810
 6064TIP3   OH239682   3.651   5.064  13.011  0.4900 -0.5381  0.3078
 6064TIP3    H139683   3.569   5.055  12.962  0.0441 -0.8832  1.1013
 6064TIP3    H239684   3.717   5.082  12.945 -0.8067  3.4603 -0.0484
 6065TIP3   OH239685   2.509   5.618  10.945 -0.2505  0.0404 -0.2136
 6065TIP3    H139686   2.454   5.540  10.955  0.5800 -0.4765  0.3038
 6065TIP3    H239687   2.525   5.624  10.851  2.6504 -2.4656  0.0786
 6066TIP3   OH239688   5.253   6.082  11.686  0.0022 -0.0433  0.0997
 6066TIP3    H139689   5.283   5.997  11.718  0.5640 -0.5528 -1.6993
 6066TIP3    H239690   5.167   6.094  11.726 -0.1068 -1.4833  0.3159
 6067TIP3   OH239691   5.168   2.801  12.200 -0.2354  0.4941 -0.2646
 6067TIP3    H139692   5.183   2.783  12.107  0.5159  1.9811 -0.4483
 6067TIP3    H239693   5.255   2.814  12.237 -0.6193  2.0813  0.1655
 6068TIP3   OH239694   0.385   0.745  14.059 -0.3740  0.5714  0.0993
 6068TIP3    H139695   0.306   0.762  14.110 -0.7288 -0.7351  0.0156
 6068TIP3    H239696   0.453   0.798  14.101 -0.9673  0.5580  1.0948
 6069TIP3   OH239697   1.501   5.244   0.678 -0.6165 -0.1191 -0.0572
 6069TIP3    H139698   1.444   5.263   0.603 -0.1102 -1.7606 -0.8885
 6069TIP3    H239699   1.578   5.300   0.665 -0.9023  0.2095 -0.3208
 6070TIP3   OH239700   2.654   7.194  12.287 -0.0085  0.0657 -0.0754
 6070TIP3    H139701   2.678   7.223  12.199  0.6152 -0.6016 -0.1322
 6070TIP3    H239702   2.733   7.207  12.339 -0.1201 -0.3105  0.1909
 6071TIP3   OH239703   0.854   4.161  13.497 -0.0193 -0.0594  0.2877
 6071TIP3    H139704   0.819   4.166  13.409  1.7467  1.1985 -0.3796
 6071TIP3    H239705   0.785   4.119  13.549 -0.7533 -1.5490 -1.8445
 6072TIP3   OH239706   5.415   0.438  13.981 -0.6447  0.6000 -0.3650
 6072TIP3    H139707   5.371   0.374  13.925 -1.7017  0.4059  0.6719
 6072TIP3    H239708   5.456   0.387  14.050 -0.4891  0.9375 -0.2069
 6073TIP3   OH239709   5.773   7.076  12.071  0.6173 -0.8171 -0.0711
 6073TIP3    H139710   5.857   7.035  12.051 -0.7937 -2.8851 -2.0403
 6073TIP3    H239711   5.739   7.026  12.144  1.3029  0.3833  1.1034
 6074TIP3   OH239712   0.441   5.179  13.882 -0.4759  0.4228  0.0917
 6074TIP3    H139713   0.533   5.168  13.906 -0.5923 -1.2877 -0.1371
 6074TIP3    H239714   0.437   5.145  13.792 -1.1422  1.4424 -0.2709
 6075TIP3   OH239715   0.693   0.354  12.744  0.5836  0.0014 -0.4514
 6075TIP3    H139716   0.704   0.449  12.747  1.4272 -0.1410  3.4562
 6075TIP3    H239717   0.620   0.336  12.804  0.3852 -1.8054 -1.1890
 6076TIP3   OH239718   1.691   2.267  10.206 -0.3600  0.2813 -0.1831
 6076TIP3    H139719   1.777   2.249  10.242  0.2566  2.9475 -0.2213
 6076TIP3    H239720   1.708   2.307  10.121 -1.5157  2.7855  0.6999
 6077TIP3   OH239721   5.477   6.015  10.515 -0.3089  0.2326 -0.3545
 6077TIP3    H139722   5.531   5.987  10.441 -0.6243 -0.6071 -0.2683
 6077TIP3    H239723   5.492   6.110  10.521  0.0574  0.2320 -1.2129
 6078TIP3   OH239724   6.493   3.625  12.355 -0.8361  0.6091 -0.3626
 6078TIP3    H139725   6.486   3.549  12.412  3.2156  0.8960  0.6596
 6078TIP3    H239726   6.499   3.590  12.267  1.1331 -0.3239  0.1134
 6079TIP3   OH239727   2.885   1.452  10.703 -0.0654 -0.0913  0.3318
 6079TIP3    H139728   2.962   1.491  10.743  0.8947 -1.6845  0.0890
 6079TIP3    H239729   2.902   1.456  10.609 -0.7634  0.5281  0.2301
 6080TIP3   OH239730   3.640   4.715  11.869  0.0299 -0.6233 -0.3670
 6080TIP3    H139731   3.635   4.712  11.774 -0.8662 -1.4328 -0.2989
 6080TIP3    H239732   3.692   4.638  11.893  0.4140 -0.3182 -0.2065
 6081TIP3   OH239733   4.445   6.369  11.415 -0.0865  0.2471 -1.0660
 6081TIP3    H139734   4.504   6.393  11.344  0.6241 -0.6084 -0.7693
 6081TIP3    H239735   4.478   6.418  11.490 -0.0520  0.1491 -1.0177
 6082TIP3   OH239736   2.263   0.308  13.843 -0.1049  0.2995  0.2207
 6082TIP3    H139737   2.202   0.373  13.810 -1.2980  0.5718  2.7865
 6082TIP3    H239738   2.339   0.358  13.872  0.5766  0.1491 -1.2951
 6083TIP3   OH239739   3.717   0.397  10.594  0.1611 -0.6421  0.0314
 6083TIP3    H139740   3.716   0.309  10.630  2.2817 -0.9064 -0.5230
 6083TIP3    H239741   3.655   0.446  10.649 -2.2643 -2.8407 -0.6674
 6084TIP3   OH239742   3.413   4.830  12.046  0.1016  0.2128 -0.1141
 6084TIP3    H139743   3.370   4.874  12.119  0.0070  1.9279 -1.1741
 6084TIP3    H239744   3.493   4.793  12.083 -0.4262  0.2312  1.0547
 6085TIP3   OH239745   1.544   4.770  13.799  0.0249  0.0623  0.2295
 6085TIP3    H139746   1.514   4.855  13.767  1.2598  1.3804  2.4497
 6085TIP3    H239747   1.610   4.742  13.736  0.3672  1.2450  0.0655
 6086TIP3   OH239748   3.818   6.040  10.600 -0.4772  0.1195  0.4085
 6086TIP3    H139749   3.768   6.034  10.519 -0.9179 -1.1414  0.7713
 6086TIP3    H239750   3.768   5.990  10.664  0.6196 -0.1381  1.0885
 6087TIP3   OH239751   6.020   2.339  13.191  0.0747 -0.6867  0.0985
 6087TIP3    H139752   6.065   2.423  13.195 -0.1466 -0.6003  0.7965
 6087TIP3    H239753   5.943   2.355  13.137  1.5154 -1.1330 -2.1654
 6088TIP3   OH239754   6.287   6.451  12.349  0.4530  0.0899 -0.3251
 6088TIP3    H139755   6.354   6.431  12.415  0.1535 -0.0646 -0.0620
 6088TIP3    H239756   6.256   6.539  12.372  1.1593  0.5065 -0.9572
 6089TIP3   OH239757   3.505   5.211  13.210  0.0797  0.0293 -0.3067
 6089TIP3    H139758   3.424   5.175  13.173 -0.7808 -1.1812  2.5603
 6089TIP3    H239759   3.575   5.164  13.165 -0.8856 -0.6397 -1.1253
 6090TIP3   OH239760   4.382   1.756  13.980 -0.5764  0.1197  0.0549
 6090TIP3    H139761   4.287   1.767  13.975 -0.5963  0.2474  0.6952
 6090TIP3    H239762   4.417   1.822  13.920 -0.8463  1.0327  0.8940
 6091TIP3   OH239763   0.806   3.779  10.408  0.1376 -0.1314 -0.3672
 6091TIP3    H139764   0.714   3.776  10.381  0.0281  1.8203 -0.2963
 6091TIP3    H239765   0.811   3.855  10.466  1.9157  0.0763 -0.7760
 6092TIP3   OH239766   5.033   7.085  12.357  0.8602 -0.0121 -0.2561
 6092TIP3    H139767   5.084   7.150  12.405  0.9556  1.5151 -2.3725
 6092TIP3    H239768   5.095   7.014  12.340  1.8786  1.1523 -1.4768
 6093TIP3   OH239769   1.505   5.833  12.010  0.2588  0.1647 -0.2577
 6093TIP3    H139770   1.443   5.856  12.079  0.8768  0.0588  0.3464
 6093TIP3    H239771   1.490   5.739  11.994  0.5825  0.0260  0.2279
 6094TIP3   OH239772   1.756   4.864  10.200 -0.4660  0.6555  0.5431
 6094TIP3    H139773   1.713   4.897  10.120  0.2242  0.4482  0.0839
 6094TIP3    H239774   1.843   4.904  10.198  0.3225 -1.0676  0.0600
 6095TIP3   OH239775   3.599   5.728  11.879 -0.2846  0.5244 -0.1044
 6095TIP3    H139776   3.513   5.699  11.848 -0.7154  1.6370  0.0276
 6095TIP3    H239777   3.597   5.711  11.973 -0.8949  1.8192  0.1312
 6096TIP3   OH239778   2.958   4.151  10.886 -0.2483  0.1824 -0.5944
 6096TIP3    H139779   2.894   4.112  10.945  1.2974  1.2958  1.8803
 6096TIP3    H239780   2.989   4.078  10.832  1.6328 -1.8099  3.0442
 6097TIP3   OH239781   3.371   6.145  12.221  0.6715  0.2758 -0.0260
 6097TIP3    H139782   3.352   6.232  12.188 -2.2277  0.1185  1.1019
 6097TIP3    H239783   3.419   6.160  12.303  3.5955  0.7086 -1.7603
 6098TIP3   OH239784   3.044   3.939  10.763 -0.2551  0.1754 -0.1017
 6098TIP3    H139785   3.087   3.893  10.691 -1.0609 -0.6055 -0.0978
 6098TIP3    H239786   3.030   3.871  10.829 -3.8539 -0.2076 -1.1625
 6099TIP3   OH239787   3.846   1.267  10.557 -0.5215 -0.4120 -0.4677
 6099TIP3    H139788   3.862   1.350  10.513  1.2681 -1.0074 -0.9671
 6099TIP3    H239789   3.814   1.209  10.488  1.3024 -1.0463 -0.8096
 6100TIP3   OH239790   4.010   6.000  11.961  0.1654  0.4475  0.0193
 6100TIP3    H139791   4.001   6.025  12.053 -1.8941  1.7799 -0.4967
 6100TIP3    H239792   3.922   5.975  11.935  1.4928 -4.1427 -0.4756
 6101TIP3   OH239793   2.568   1.544  12.088  0.5545  0.2220 -0.4117
 6101TIP3    H139794   2.606   1.481  12.149  0.1747 -0.5092 -0.9155
 6101TIP3    H239795   2.496   1.585  12.136  0.0248 -0.6138 -0.4949
 6102TIP3   OH239796   2.851   6.993  10.199 -0.5157  0.2224  0.2473
 6102TIP3    H139797   2.933   6.961  10.236  0.4480  1.3249 -0.9246
 6102TIP3    H239798   2.786   6.976  10.267  1.2377  2.2569  2.4918
 6103TIP3   OH239799   2.130   6.785   1.467 -0.0758  0.6074 -0.5129
 6103TIP3    H139800   2.144   6.868   1.421 -0.9620  0.6227 -0.7621
 6103TIP3    H239801   2.040   6.760   1.445  1.2410 -2.1415 -3.1673
 6104TIP3   OH239802   3.119   5.971  14.363 -0.2092 -0.2707  0.0772
 6104TIP3    H139803   3.115   5.883  14.327 -0.6607  0.2271 -1.1083
 6104TIP3    H239804   3.032   6.007  14.348  0.7960  1.4061 -2.1374
 6105TIP3   OH239805   2.541   2.593  12.096  0.1417 -0.6174 -0.4591
 6105TIP3    H139806   2.455   2.584  12.054 -0.4337 -0.1595  0.5922
 6105TIP3    H239807   2.599   2.623  12.026 -0.1940 -2.4150 -1.5589
 6106TIP3   OH239808   6.428   6.100  12.739 -0.0764  0.0032 -0.2765
 6106TIP3    H139809   6.503   6.117  12.682  0.2988 -0.6754  0.0144
 6106TIP3    H239810   6.454   6.135  12.825 -0.5344  0.7778 -0.4450
 6107TIP3   OH239811   5.326   3.018  14.497  0.0800 -0.0979  0.1580
 6107TIP3    H139812   5.409   2.980  14.467 -0.5515 -0.0902 -1.6325
 6107TIP3    H239813   5.350   3.105  14.530  1.1736 -1.1151  2.1412
 6108TIP3   OH239814   3.931   5.491  10.919  0.5588 -0.3867 -0.2408
 6108TIP3    H139815   3.912   5.572  10.967  0.6310 -1.7954  2.2469
 6108TIP3    H239816   4.017   5.464  10.951 -0.3042 -2.4545  0.3971
 6109TIP3   OH239817   6.735   0.031  15.487  0.7529  0.2602 -0.7238
 6109TIP3    H139818   6.811   0.036  15.430  0.4671  0.3781 -1.0979
 6109TIP3    H239819   6.693  -0.053  15.465 -0.1351  0.9513 -1.6771
 6110TIP3   OH239820   4.977   2.642  12.643 -0.4018  0.6137 -0.0215
 6110TIP3    H139821   4.953   2.725  12.685 -0.9463  0.0031  0.8847
 6110TIP3    H239822   5.049   2.666  12.584  0.7311  1.4263  1.6193
 6111TIP3   OH239823   6.423   4.576  10.047 -0.1476  0.2730 -0.2263
 6111TIP3    H139824   6.413   4.528   9.965  1.3642  0.7558 -0.7162
 6111TIP3    H239825   6.512   4.555  10.076  0.0115  1.6168  0.3036
 6112TIP3   OH239826   5.145   2.096  13.061  0.3778 -0.0692 -0.2733
 6112TIP3    H139827   5.072   2.110  13.121  0.2044  0.1212 -0.5325
 6112TIP3    H239828   5.192   2.179  13.060 -0.0962  0.1939 -1.0517
 6113TIP3   OH239829   0.682   4.801  12.645  0.1638 -0.2302  0.3399
 6113TIP3    H139830   0.758   4.744  12.652  1.0779  0.8130 -0.6185
 6113TIP3    H239831   0.706   4.880  12.694 -0.2613  0.1231 -0.0029
 6114TIP3   OH239832   5.098   0.511  10.425  0.3272  0.8531  0.6780
 6114TIP3    H139833   5.138   0.594  10.399  0.7562  0.6329  0.6196
 6114TIP3    H239834   5.075   0.469  10.342  0.2319  0.8598  0.7025
 6115TIP3   OH239835   5.728   1.081  13.033  0.0761 -0.3573 -0.7509
 6115TIP3    H139836   5.718   1.145  13.104 -0.1411 -0.1974 -0.9227
 6115TIP3    H239837   5.689   1.000  13.068 -3.3496  0.6652 -1.9576
 6116TIP3   OH239838   0.852   5.836  12.506 -0.1038 -0.3380 -0.0906
 6116TIP3    H139839   0.792   5.853  12.434 -0.3007  1.5579  0.5116
 6116TIP3    H239840   0.798   5.792  12.572 -1.7763  4.3506  1.8640
 6117TIP3   OH239841   6.363   3.675  14.082  0.1839  0.2759  0.2185
 6117TIP3    H139842   6.287   3.679  14.024 -0.9732  0.6510  1.7406
 6117TIP3    H239843   6.383   3.581  14.088 -2.3401 -0.1795  2.5517
 6118TIP3   OH239844   4.352   1.302  12.204  0.0139 -0.6382 -0.1906
 6118TIP3    H139845   4.436   1.345  12.189 -1.0405  1.6454  0.2981
 6118TIP3    H239846   4.300   1.365  12.253 -1.8634 -2.1752 -0.1084
 6119TIP3   OH239847   4.869   3.518  11.430 -0.1485 -0.3503  0.5083
 6119TIP3    H139848   4.860   3.610  11.455  2.6461  0.6530 -1.9278
 6119TIP3    H239849   4.801   3.505  11.363  0.5112  0.4491 -0.3419
 6120TIP3   OH239850   6.594   0.208  15.292 -0.4330  0.0435  0.5239
 6120TIP3    H139851   6.633   0.287  15.255 -1.4230  0.7470  0.9479
 6120TIP3    H239852   6.630   0.136  15.240  0.6427  0.7585  0.2731
 6121TIP3   OH239853   6.577   3.066  13.298 -0.1657  0.0023 -0.5402
 6121TIP3    H139854   6.558   3.017  13.218 -0.0361 -2.4342  0.8441
 6121TIP3    H239855   6.630   3.005  13.350 -1.3401  1.0211  1.9348
 6122TIP3   OH239856   3.377   6.752  13.398  0.4408 -0.0072  0.2335
 6122TIP3    H139857   3.425   6.709  13.328 -1.3438 -0.2235 -0.8731
 6122TIP3    H239858   3.309   6.803  13.354 -0.7812 -0.2337  1.7875
 6123TIP3   OH239859   0.764   5.381  14.292 -0.0256  0.0492 -0.0879
 6123TIP3    H139860   0.761   5.289  14.264  0.0297 -0.3944  1.3469
 6123TIP3    H239861   0.857   5.405  14.285  0.0199 -0.1252 -0.0910
 6124TIP3   OH239862   3.903   2.080   0.722 -0.0801 -0.3210 -0.1675
 6124TIP3    H139863   3.992   2.106   0.699 -0.2248 -0.1458 -0.5385
 6124TIP3    H239864   3.913   2.025   0.800  0.4159 -0.8655 -0.6126
 6125TIP3   OH239865   3.312   5.924  10.681 -0.4837  0.0406 -0.4498
 6125TIP3    H139866   3.298   5.971  10.599  1.6987 -0.9322 -1.4239
 6125TIP3    H239867   3.311   5.831  10.657  0.2105 -0.2595  0.6099
 6126TIP3   OH239868   5.456   0.028  11.768 -0.4493 -0.4146 -0.0532
 6126TIP3    H139869   5.451   0.083  11.846 -0.4923 -0.0149 -0.3339
 6126TIP3    H239870   5.547  -0.001  11.764  0.2430  1.7827 -1.3444
 6127TIP3   OH239871   6.056   0.537  10.828 -0.0077  0.1696  0.4169
 6127TIP3    H139872   5.970   0.520  10.789 -0.6027  0.3246  1.6151
 6127TIP3    H239873   6.076   0.458  10.877 -0.4336  0.9164  1.8324
 6128TIP3   OH239874   6.051   4.733  10.293  0.2131  0.2936 -0.2371
 6128TIP3    H139875   5.978   4.760  10.236 -0.2293 -0.2646  0.0628
 6128TIP3    H239876   6.018   4.747  10.382  1.2563  2.1085 -0.1071
 6129TIP3   OH239877   6.600   2.906  10.110 -0.4619 -0.4069  0.0211
 6129TIP3    H139878   6.599   2.973  10.041  0.5907 -0.5570 -0.1541
 6129TIP3    H239879   6.639   2.950  10.185  1.1681 -1.0869 -0.3964
 6130TIP3   OH239880   1.483   1.321  10.822  0.8077  0.4629  0.1860
 6130TIP3    H139881   1.558   1.354  10.870  0.9046  0.3821  0.0925
 6130TIP3    H239882   1.508   1.328  10.730  0.1176  1.8098  0.0984
 6131TIP3   OH239883   4.972   6.864  12.946 -0.4811  0.0307 -0.0961
 6131TIP3    H139884   4.913   6.882  13.019  0.7533 -0.0874  0.9435
 6131TIP3    H239885   4.964   6.942  12.890  0.9657  1.6224  1.8060
 6132TIP3   OH239886   6.102   6.784  11.388 -0.0047 -0.1296  0.0928
 6132TIP3    H139887   6.164   6.753  11.322  0.5346  0.3601  0.3634
 6132TIP3    H239888   6.045   6.709  11.406  0.5871 -0.6125 -0.0687
 6133TIP3   OH239889   1.043   1.007  13.613  0.5005 -0.1462  0.3768
 6133TIP3    H139890   1.022   0.917  13.592 -3.5431  0.9283 -0.5149
 6133TIP3    H239891   1.020   1.016  13.706 -0.7356  0.3977  0.0258
 6134TIP3   OH239892   1.742   4.892  11.700 -0.0197  0.5100  0.1473
 6134TIP3    H139893   1.667   4.946  11.676  0.4304  1.5112  0.9609
 6134TIP3    H239894   1.817   4.950  11.689  0.7217 -0.6773 -1.2936
 6135TIP3   OH239895   2.739   4.420  14.153  1.1097 -0.4738 -0.4898
 6135TIP3    H139896   2.698   4.392  14.235 -0.8103 -0.0393 -1.2772
 6135TIP3    H239897   2.822   4.459  14.181  0.0300  0.6115  1.3781
 6136TIP3   OH239898   6.716   0.556  13.381 -0.5544 -0.2718  0.6812
 6136TIP3    H139899   6.622   0.575  13.377 -0.7574 -0.6096  2.8233
 6136TIP3    H239900   6.749   0.577  13.294 -2.5814  0.0512 -0.0384
 6137TIP3   OH239901   0.126   1.944  11.203 -0.0898  0.0522 -0.1951
 6137TIP3    H139902   0.221   1.956  11.194  0.0853 -1.2017 -0.0693
 6137TIP3    H239903   0.113   1.849  11.198 -1.4892  0.3061 -1.6853
 6138TIP3   OH239904   3.777   1.626  11.648 -0.3628 -0.0918  0.6112
 6138TIP3    H139905   3.856   1.577  11.626  0.3487 -0.2819  3.3708
 6138TIP3    H239906   3.724   1.624  11.569  1.6949 -1.3419 -0.7694
 6139TIP3   OH239907   0.391   4.577  10.754  0.1936  0.6384  0.2490
 6139TIP3    H139908   0.306   4.621  10.762 -0.7497 -1.2520  0.9776
 6139TIP3    H239909   0.421   4.566  10.844  0.5230  0.0158  0.0719
 6140TIP3   OH239910   1.851   1.239  15.350 -1.0411  0.4194 -0.3850
 6140TIP3    H139911   1.902   1.193  15.416 -0.9195 -0.5616 -1.1555
 6140TIP3    H239912   1.843   1.328  15.384 -2.8328 -0.6024  2.0059
 6141TIP3   OH239913   5.057   7.132   0.464  0.1503  0.2735  0.0090
 6141TIP3    H139914   5.099   7.072   0.402 -0.7928  0.7892 -1.1626
 6141TIP3    H239915   5.122   7.145   0.533  0.6524 -1.4914 -0.1121
 6142TIP3   OH239916   4.568   0.569  14.975 -0.2205  0.0340 -0.0658
 6142TIP3    H139917   4.496   0.615  15.018 -0.5792  0.7058 -1.3732
 6142TIP3    H239918   4.646   0.603  15.017 -0.6416 -0.8702  1.5319
 6143TIP3   OH239919   3.488   1.392  13.396 -0.2169  0.1247 -0.1666
 6143TIP3    H139920   3.471   1.486  13.403 -3.6125 -0.3292 -1.2866
 6143TIP3    H239921   3.520   1.367  13.482 -1.9739  1.8484  1.0565
 6144TIP3   OH239922   5.059   4.127  13.841  0.1098 -0.1733 -0.5522
 6144TIP3    H139923   4.981   4.156  13.794  0.1735  0.1741 -0.4423
 6144TIP3    H239924   5.054   4.031  13.839 -0.7025 -0.1463  0.0964
 6145TIP3   OH239925   1.272   6.563   0.893  0.5795 -0.6488 -0.3540
 6145TIP3    H139926   1.230   6.629   0.838  1.2676  0.4978  0.4599
 6145TIP3    H239927   1.250   6.589   0.982  2.2389 -0.5254  0.0489
 6146TIP3   OH239928   0.070   0.879  12.580 -0.1522  0.7380 -0.0723
 6146TIP3    H139929  -0.002   0.817  12.571 -0.4440  0.8380  1.3676
 6146TIP3    H239930   0.028   0.960  12.609  0.5139  0.8335  0.6650
 6147TIP3   OH239931   2.437   0.398  14.987 -0.0403 -0.0067  0.9934
 6147TIP3    H139932   2.432   0.303  14.996  0.3548 -0.0474  0.7786
 6147TIP3    H239933   2.479   0.412  14.902  1.2676  0.3534  1.6855
 6148TIP3   OH239934   1.360   3.810  11.007 -0.0186  0.0245 -0.7943
 6148TIP3    H139935   1.445   3.781  11.041 -0.5549 -1.1913 -0.4365
 6148TIP3    H239936   1.378   3.838  10.917  0.9266  0.6914 -0.4107
 6149TIP3   OH239937   0.504   6.657  11.603 -0.3119  0.2585  0.1109
 6149TIP3    H139938   0.430   6.671  11.662 -0.0201  1.3049  0.2350
 6149TIP3    H239939   0.565   6.728  11.623  0.2819 -0.0111 -0.6884
 6150TIP3   OH239940   0.310   7.037  12.385 -0.2478  0.0524 -0.2724
 6150TIP3    H139941   0.364   6.995  12.452  0.5579  1.4836 -0.0051
 6150TIP3    H239942   0.349   7.010  12.302 -0.4651 -0.6822 -0.1388
 6151TIP3   OH239943   3.037   0.535  13.929  0.0731 -0.4038 -0.2504
 6151TIP3    H139944   3.001   0.539  14.018 -1.1290 -1.8456 -0.6530
 6151TIP3    H239945   3.058   0.443  13.916 -0.4774 -0.3230 -1.7500
 6152TIP3   OH239946   4.094   3.896  11.171  0.0468 -0.4120  0.3952
 6152TIP3    H139947   4.090   3.938  11.257  1.1215  1.2471 -0.3635
 6152TIP3    H239948   4.002   3.887  11.145 -0.2527 -0.2508  1.3757
 6153TIP3   OH239949   6.960   4.071  14.142  0.5392  0.4651  0.2696
 6153TIP3    H139950   6.965   4.141  14.207 -0.4248 -0.1794  1.0672
 6153TIP3    H239951   6.871   4.078  14.106  1.2494  1.1673 -1.3959
 6154TIP3   OH239952   2.993   0.139   1.476  0.0490 -0.4920  0.1306
 6154TIP3    H139953   2.988   0.171   1.385  1.3020 -1.3973 -0.2728
 6154TIP3    H239954   2.911   0.092   1.489 -0.5349  0.4095 -0.2317
 6155TIP3   OH239955   5.529   3.804  11.073  0.5245 -0.4211 -0.8000
 6155TIP3    H139956   5.471   3.750  11.126  0.9547  0.9757  1.1347
 6155TIP3    H239957   5.518   3.892  11.107  0.4616  0.6020 -3.3735
 6156TIP3   OH239958   0.861   0.783  10.496 -0.0923  0.5990  0.6869
 6156TIP3    H139959   0.835   0.739  10.577 -0.4078  2.3687  1.5689
 6156TIP3    H239960   0.903   0.714  10.444 -1.0364 -0.8580  1.8091
 6157TIP3   OH239961   6.444   4.583  11.593  0.0952  0.3598  0.1095
 6157TIP3    H139962   6.417   4.672  11.616 -0.7792  0.2305 -0.3747
 6157TIP3    H239963   6.523   4.567  11.645 -1.3130  0.3819  2.3306
 6158TIP3   OH239964   5.613   5.282  14.408 -0.2692  0.4466  0.1032
 6158TIP3    H139965   5.629   5.352  14.345 -0.4767 -0.6694 -1.1999
 6158TIP3    H239966   5.525   5.250  14.387  0.7563 -1.8031 -0.8718
 6159TIP3   OH239967   2.073   1.102   0.203  0.8138 -0.6813  0.0560
 6159TIP3    H139968   2.072   1.087   0.298  0.6616  2.0035  0.5334
 6159TIP3    H239969   2.154   1.152   0.188  1.2869 -1.8463 -1.3689
 6160TIP3   OH239970   1.473   4.989  14.137  0.1243 -0.5002 -0.1664
 6160TIP3    H139971   1.410   4.995  14.065 -0.5365  0.0228  0.4488
 6160TIP3    H239972   1.517   4.905  14.124 -0.1240 -0.4933 -1.0674
 6161TIP3   OH239973   5.910   3.012  12.521 -0.1897 -0.1328 -0.3680
 6161TIP3    H139974   5.936   3.019  12.613 -0.7789 -0.2742 -0.1836
 6161TIP3    H239975   5.858   3.090  12.505 -0.6878 -0.4571 -0.3711
 6162TIP3   OH239976   4.568   6.808  11.146  0.4045 -0.1809  0.8420
 6162TIP3    H139977   4.520   6.770  11.220 -0.0263 -0.1826  0.5619
 6162TIP3    H239978   4.659   6.784  11.163  0.1726 -1.1414  0.8035
 6163TIP3   OH239979   4.808   1.513  10.925  0.4489  1.2607 -0.1360
 6163TIP3    H139980   4.763   1.456  10.862  1.1079  0.1532  0.3733
 6163TIP3    H239981   4.739   1.541  10.986  0.6012 -1.2546  1.2511
 6164TIP3   OH239982   3.977   3.360  11.893  0.0060  0.1740  0.0215
 6164TIP3    H139983   4.055   3.324  11.935 -0.3967 -0.5699  0.1446
 6164TIP3    H239984   4.007   3.389  11.807  0.7465  1.3324  0.6659
 6165TIP3   OH239985   7.098   6.343  14.227  0.2241  0.0356  0.0534
 6165TIP3    H139986   7.167   6.289  14.267 -0.6107 -0.1770  1.2368
 6165TIP3    H239987   7.036   6.358  14.298 -0.1424  1.5857 -0.5823
 6166TIP3   OH239988   5.502   0.894  10.495  0.5089 -0.0681  0.4393
 6166TIP3    H139989   5.557   0.912  10.419 -0.4580 -1.5651 -0.6542
 6166TIP3    H239990   5.460   0.811  10.474 -2.2589  1.1035  1.1911
 6167TIP3   OH239991   1.562   0.646  14.722 -0.1915 -0.0746 -0.4698
 6167TIP3    H139992   1.492   0.701  14.689 -0.1006 -0.3698 -1.1632
 6167TIP3    H239993   1.579   0.584  14.652  0.1670 -0.5600  0.0378
 6168TIP3   OH239994   2.324   0.601  12.821 -0.1115 -0.0410 -0.3189
 6168TIP3    H139995   2.317   0.529  12.759 -0.5494 -0.5336  0.2981
 6168TIP3    H239996   2.367   0.564  12.898 -0.8972  0.1896  0.2427
 6169TIP3   OH239997   3.690   0.264  11.605  0.2445 -0.5119 -0.3551
 6169TIP3    H139998   3.756   0.333  11.594  1.3890 -1.5206  0.0904
 6169TIP3    H239999   3.682   0.224  11.518 -0.4413  0.2009 -0.6203
 6170TIP3   OH240000   3.180   5.298  13.662  0.3643 -0.7130 -0.0758
 6170TIP3    H140001   3.139   5.212  13.655  1.8528 -1.7012  2.7969
 6170TIP3    H240002   3.261   5.290  13.612  1.5085 -1.6580  1.8920
 6171TIP3   OH240003   1.304   5.325   9.550  0.1732  0.1272 -0.8057
 6171TIP3    H140004   1.389   5.285   9.528  0.9384  0.7451  0.9479
 6171TIP3    H240005   1.253   5.253   9.588  0.7109  0.2566  0.1762
 6172TIP3   OH240006   4.545   5.111  14.329  0.8814  0.8215  0.3233
 6172TIP3    H140007   4.630   5.096  14.371  0.4546  1.8996  1.5970
 6172TIP3    H240008   4.526   5.203  14.345 -0.8037  0.4524  0.5588
 6173TIP3   OH240009   6.365   5.569  11.573  0.6440  0.2985  0.6345
 6173TIP3    H140010   6.318   5.515  11.638  0.4399 -2.6574 -1.8595
 6173TIP3    H240011   6.457   5.554  11.592  0.5885  0.6243  1.1771
 6174TIP3   OH240012   6.636   1.534  12.423 -0.7475 -0.4697 -0.2277
 6174TIP3    H140013   6.704   1.601  12.430  0.2029 -1.4784  0.2901
 6174TIP3    H240014   6.608   1.538  12.331 -0.1458  0.0990 -0.3918
 6175TIP3   OH240015   6.300   4.846  13.176 -0.2269 -0.0187 -0.0308
 6175TIP3    H140016   6.307   4.897  13.256  0.6468 -0.5343  0.2316
 6175TIP3    H240017   6.307   4.755  13.204 -1.3037 -0.2699 -0.5474
 6176TIP3   OH240018   6.093   1.544  10.687 -0.2073  0.0444 -0.2473
 6176TIP3    H140019   6.058   1.555  10.776 -0.0405 -0.4738 -0.1205
 6176TIP3    H240020   6.024   1.499  10.639  0.1016 -0.5673 -0.1172
 6177TIP3   OH240021   3.287   5.677  12.195  0.0503  0.4196  0.0100
 6177TIP3    H140022   3.236   5.751  12.161  2.2254  1.3260 -1.4364
 6177TIP3    H240023   3.259   5.668  12.286  0.0344  3.3256  0.3611
 6178TIP3   OH240024   6.538   6.258  10.539 -0.3877  0.2349  0.5653
 6178TIP3    H140025   6.451   6.296  10.548  0.4214  2.2576  0.1425
 6178TIP3    H240026   6.533   6.203  10.461 -0.8117  1.7077 -0.4593
 6179TIP3   OH240027   6.947   6.179  13.209  0.2289 -0.2067  0.1276
 6179TIP3    H140028   6.908   6.125  13.140  0.1483  0.3784 -0.2902
 6179TIP3    H240029   6.885   6.173  13.282 -1.1918  1.5484 -0.9012
 6180TIP3   OH240030   5.435   5.910  11.424  0.1015  0.4108  0.2409
 6180TIP3    H140031   5.518   5.884  11.464  1.5068  2.3466 -1.3133
 6180TIP3    H240032   5.440   6.006  11.419 -2.9617  0.7133  1.6524
 6181TIP3   OH240033   5.927   6.703  13.846 -0.0480 -0.3022  0.8101
 6181TIP3    H140034   5.842   6.680  13.884  0.1658 -0.9936  0.8756
 6181TIP3    H240035   5.951   6.784  13.891 -2.6795  2.3672 -2.3230
 6182TIP3   OH240036   3.963   0.295  11.251  0.1556  0.1674  0.6599
 6182TIP3    H140037   4.018   0.336  11.184 -0.1033 -0.6662 -0.0721
 6182TIP3    H240038   3.939   0.210  11.214 -1.6633  0.5373  0.9485
 6183TIP3   OH240039   4.827   2.502  12.350  0.4735 -0.3926  0.2576
 6183TIP3    H140040   4.803   2.579  12.401  1.6388  0.9351 -1.1584
 6183TIP3    H240041   4.922   2.510  12.337  0.4297 -1.4892 -0.8182
 6184TIP3   OH240042   2.446   1.345  14.974 -0.2995  0.4555 -0.0955
 6184TIP3    H140043   2.486   1.417  14.925 -1.6530  0.4780 -1.2057
 6184TIP3    H240044   2.509   1.274  14.968  0.3236  1.0226 -0.3907
 6185TIP3   OH240045   2.666   3.573  12.085 -0.2616  0.3406 -0.1048
 6185TIP3    H140046   2.622   3.655  12.103 -0.1979  0.6809 -1.4304
 6185TIP3    H240047   2.666   3.526  12.168 -1.6982  1.0059  0.2791
 6186TIP3   OH240048   4.793   5.831  12.699  0.0918  0.0064  0.3765
 6186TIP3    H140049   4.740   5.751  12.688  0.2563 -0.0804  0.2172
 6186TIP3    H240050   4.733   5.895  12.737  0.3714 -0.6764  2.0158
 6187TIP3   OH240051   3.129   5.313  10.772 -0.6798 -0.3383  0.7832
 6187TIP3    H140052   3.105   5.353  10.689 -0.7717 -0.3267  0.8145
 6187TIP3    H240053   3.120   5.384  10.836  0.7675  0.0411  0.5855
 6188TIP3   OH240054   4.553   2.555   0.026 -0.2871  0.0864  0.1634
 6188TIP3    H140055   4.549   2.552   0.122  1.2770 -0.2852  0.2344
 6188TIP3    H240056   4.543   2.464  -0.001 -2.6917  0.4045 -0.1489
 6189TIP3   OH240057   5.374   3.715  10.135  0.2585  1.0422  0.4082
 6189TIP3    H140058   5.435   3.731  10.207  1.3726 -1.1922  0.0025
 6189TIP3    H240059   5.376   3.795  10.083  2.3857  1.2288  0.7368
 6190TIP3   OH240060   3.921   6.360   1.000 -0.0394  0.0584  0.4942
 6190TIP3    H140061   3.845   6.357   1.057 -0.2801 -0.1964  0.1677
 6190TIP3    H240062   3.941   6.453   0.990 -2.2021  0.3307 -1.8941
 6191TIP3   OH240063   3.865   0.480  11.656  0.2364 -0.4430  0.0946
 6191TIP3    H140064   3.828   0.568  11.656 -1.6058 -1.1416 -2.3444
 6191TIP3    H240065   3.928   0.481  11.583  0.7121 -0.9395  0.4986
 6192TIP3   OH240066   1.267   5.576  12.542 -0.2799  0.1188  0.1687
 6192TIP3    H140067   1.315   5.516  12.485 -0.9119  0.7104 -1.0057
 6192TIP3    H240068   1.226   5.519  12.608 -0.0143 -0.6344 -0.3087
 6193TIP3   OH240069   5.668   0.533  11.117  0.2798 -0.4041  0.1241
 6193TIP3    H140070   5.668   0.591  11.042 -0.3558  2.0982  1.9869
 6193TIP3    H240071   5.736   0.568  11.175 -0.4709 -1.1724  1.5134
 6194TIP3   OH240072   2.441   1.395  13.858  0.4330 -0.0687 -0.3879
 6194TIP3    H140073   2.379   1.464  13.832 -1.7365 -1.7374  0.2366
 6194TIP3    H240074   2.450   1.406  13.953 -0.7357 -1.2734 -0.1252
 6195TIP3   OH240075   1.314   6.368  13.821  0.3023 -0.5575  0.2438
 6195TIP3    H140076   1.314   6.342  13.729 -0.5751 -0.0862  0.1152
 6195TIP3    H240077   1.274   6.295  13.867  0.0697 -0.4791  0.1670
 6196TIP3   OH240078   3.826   4.303  11.598 -0.5707 -0.3014  0.0418
 6196TIP3    H140079   3.857   4.350  11.521 -1.3800 -1.3667 -0.9552
 6196TIP3    H240080   3.738   4.338  11.613  0.5833  1.8339  2.1186
 6197TIP3   OH240081   5.638   5.500  13.314 -0.0122  0.0536  0.4110
 6197TIP3    H140082   5.687   5.505  13.397  1.2390  0.3997 -0.3303
 6197TIP3    H240083   5.555   5.458  13.338 -0.1249  1.1672  2.0425
 6198TIP3   OH240084   4.306   0.958  14.426  0.2687  0.0305 -0.1306
 6198TIP3    H140085   4.335   0.867  14.428 -1.0308 -0.4446 -1.7172
 6198TIP3    H240086   4.218   0.956  14.463 -0.9632  0.1263 -2.9536
 6199TIP3   OH240087   4.527   0.623  13.019 -0.2527 -0.2576 -0.0369
 6199TIP3    H140088   4.598   0.561  13.003  0.9890  0.9407  0.7998
 6199TIP3    H240089   4.570   0.706  13.037 -1.8509  0.3979  0.8964
 6200TIP3   OH240090   3.965   0.340  13.961 -0.5489  0.1737 -0.1876
 6200TIP3    H140091   4.009   0.412  13.916  0.0597 -1.4231 -2.2440
 6200TIP3    H240092   4.027   0.314  14.029 -0.7830  1.5832  0.5797
 6201TIP3   OH240093   7.034   4.602  14.621 -0.3294 -0.0779  0.5022
 6201TIP3    H140094   7.015   4.667  14.688  2.2215  0.6810  0.5201
 6201TIP3    H240095   7.123   4.621  14.592  0.1613 -2.9923 -0.1276
 6202TIP3   OH240096   0.932   2.578  12.322  0.1908  0.3586  0.1431
 6202TIP3    H140097   0.996   2.647  12.306  0.3216  0.1985 -0.0271
 6202TIP3    H240098   0.971   2.525  12.391 -0.8349  1.6433  1.7495
 6203TIP3   OH240099   3.378   0.477  13.046 -0.5614 -0.1657 -0.8815
 6203TIP3    H140100   3.290   0.493  13.011 -0.7061 -0.1516 -0.5185
 6203TIP3    H240101   3.392   0.549  13.107 -1.0020 -1.1193  0.3735
 6204TIP3   OH240102   0.810   0.733  14.936 -0.2837 -0.2351  0.2630
 6204TIP3    H140103   0.840   0.763  15.022  1.7190 -0.5712 -0.2997
 6204TIP3    H240104   0.729   0.782  14.921 -1.2096 -0.9002  2.7602
 6205TIP3   OH240105   2.995   2.674  12.488 -0.1657 -0.1852 -0.4542
 6205TIP3    H140106   3.046   2.616  12.432  0.3842  0.5443 -0.7233
 6205TIP3    H240107   3.058   2.706  12.553  0.0974  1.8084 -1.6229
 6206TIP3   OH240108   1.018   2.194  10.089 -0.0424 -0.3750  0.4270
 6206TIP3    H140109   0.979   2.279  10.069 -1.8758 -1.2635  0.1996
 6206TIP3    H240110   1.093   2.188  10.029 -1.5461 -0.1098 -1.5311
 6207TIP3   OH240111   5.144   5.135  12.917  0.2620 -0.3025 -0.2045
 6207TIP3    H140112   5.095   5.064  12.959  0.9167 -0.4597  0.2901
 6207TIP3    H240113   5.179   5.095  12.837  0.5440 -0.5073  0.0205
 6208TIP3   OH240114   4.620   4.067  14.580  0.7687  0.9849 -1.1784
 6208TIP3    H140115   4.688   4.087  14.515  1.1733  0.0169 -1.0656
 6208TIP3    H240116   4.545   4.118  14.552  0.4911 -0.4761 -3.2290
 6209TIP3   OH240117   2.163   6.458  14.003 -0.1687  0.0110 -0.7339
 6209TIP3    H140118   2.200   6.528  13.949 -1.0070  0.4341 -0.7586
 6209TIP3    H240119   2.094   6.420  13.950 -1.9198  1.3125  0.5421
 6210TIP3   OH240120   5.394   1.682  15.107  0.1260 -0.0134 -0.2246
 6210TIP3    H140121   5.457   1.717  15.171  0.4833  1.2077 -1.2218
 6210TIP3    H240122   5.346   1.759  15.076 -1.7127 -0.9025  0.3392
 6211TIP3   OH240123   0.284   1.956  13.117 -0.4902  0.2841  0.2956
 6211TIP3    H140124   0.301   2.018  13.046 -0.4046  1.5630  1.4273
 6211TIP3    H240125   0.206   1.908  13.088 -0.4734  0.8217 -0.6511
 6212TIP3   OH240126   0.197   1.717  12.606 -0.6649 -0.0897 -0.2008
 6212TIP3    H140127   0.203   1.804  12.566 -0.4306  0.3515  0.7699
 6212TIP3    H240128   0.254   1.722  12.683 -1.4880 -0.7686  0.4705
 6213TIP3   OH240129   5.639   5.786  10.644  0.2951 -0.3826 -0.6167
 6213TIP3    H140130   5.608   5.832  10.566  0.8511 -1.2969 -1.4020
 6213TIP3    H240131   5.560   5.756  10.688  0.0068 -1.4919 -1.8508
 6214TIP3   OH240132   1.093   3.952  14.185  0.2817 -0.4386 -0.0016
 6214TIP3    H140133   0.999   3.967  14.193 -0.1746 -2.9137 -0.2934
 6214TIP3    H240134   1.130   3.985  14.267 -0.8835  0.1410  0.2985
 6215TIP3   OH240135   1.566   4.657  12.480  0.3958  0.1264 -0.0245
 6215TIP3    H140136   1.554   4.639  12.574 -1.0715  2.5598  0.2804
 6215TIP3    H240137   1.617   4.738  12.478 -2.0602  1.6603 -1.3107
 6216TIP3   OH240138   5.232   1.786  10.176 -1.0972 -0.7085 -0.3080
 6216TIP3    H140139   5.250   1.742  10.093 -0.6275  0.0186 -0.6038
 6216TIP3    H240140   5.181   1.863  10.151 -1.5114 -0.8295  0.1512
 6217TIP3   OH240141   1.462   1.262  13.155 -0.2495  0.0886 -0.2119
 6217TIP3    H140142   1.425   1.348  13.132  0.4772  0.2318 -0.8454
 6217TIP3    H240143   1.537   1.252  13.097  0.3386 -0.4786  0.6436
 6218TIP3   OH240144   3.824   4.845   2.188  0.3581  0.1065 -0.7163
 6218TIP3    H140145   3.773   4.897   2.126  0.9592  3.8040  1.7318
 6218TIP3    H240146   3.758   4.800   2.242 -0.1746 -0.4099 -1.7780
 6219TIP3   OH240147   6.341   4.161  13.044 -0.0974 -0.5025  0.5487
 6219TIP3    H140148   6.398   4.083  13.043 -0.4672 -0.7729 -0.6995
 6219TIP3    H240149   6.367   4.209  13.122  0.8241 -1.3847  0.7950
 6220TIP3   OH240150   2.646   5.564  11.606 -0.1518  0.1038 -0.3929
 6220TIP3    H140151   2.639   5.605  11.692 -0.4056  0.1015 -0.4143
 6220TIP3    H240152   2.733   5.590  11.574 -0.1203  0.2319 -0.2033
 6221TIP3   OH240153   5.508   5.571  12.114 -0.0344  0.2843 -0.6797
 6221TIP3    H140154   5.527   5.525  12.196 -1.2805  1.0340  0.0388
 6221TIP3    H240155   5.418   5.548  12.093 -0.1197  1.0534 -1.1947
 6222TIP3   OH240156   4.634   2.160  14.588  0.3379  0.3074  0.3140
 6222TIP3    H140157   4.568   2.107  14.633  1.2201 -0.3079  0.9113
 6222TIP3    H240158   4.687   2.198  14.659  1.9398 -0.9121 -0.1853
 6223TIP3   OH240159   3.430   5.004  13.416  0.0145 -0.4174 -0.0367
 6223TIP3    H140160   3.488   5.070  13.454 -2.2952  3.0242 -2.2185
 6223TIP3    H240161   3.366   4.986  13.485 -0.6624  1.3603 -0.1575
 6224TIP3   OH240162   5.035   4.537  11.336 -0.3759  0.2732  0.2737
 6224TIP3    H140163   5.119   4.500  11.308 -0.5245  0.0487  0.1271
 6224TIP3    H240164   4.981   4.461  11.356 -0.9304  0.3924 -0.7495
 6225TIP3   OH240165   6.360   4.978  13.797 -0.2906  0.2533 -0.5265
 6225TIP3    H140166   6.296   4.960  13.728 -0.0210 -0.9015 -0.4805
 6225TIP3    H240167   6.359   5.073  13.806 -0.8588  0.3603 -1.6208
 6226TIP3   OH240168   5.172   0.196  10.320  0.1639 -0.1949 -0.5466
 6226TIP3    H140169   5.250   0.151  10.288  0.1360 -0.0342 -0.8356
 6226TIP3    H240170   5.148   0.149  10.400  0.5079 -0.2971 -0.5047
 6227TIP3   OH240171   2.324   2.459  14.310  0.2509  0.8923 -0.0111
 6227TIP3    H140172   2.317   2.367  14.282 -0.4399  1.2147 -0.9472
 6227TIP3    H240173   2.257   2.468  14.378 -0.5333  0.9928 -0.7729
 6228TIP3   OH240174   6.837   0.724  11.361 -0.0865 -0.5320 -0.2306
 6228TIP3    H140175   6.889   0.803  11.373 -0.6189 -0.3645  1.0650
 6228TIP3    H240176   6.766   0.732  11.426  0.0769 -2.2552  0.1775
 6229TIP3   OH240177   0.217   2.693  11.813  0.2264  0.0035  0.2346
 6229TIP3    H140178   0.276   2.747  11.866  0.2535 -1.9248  2.2764
 6229TIP3    H240179   0.260   2.607  11.810 -0.0066 -0.0557 -2.5804
 6230TIP3   OH240180   1.909   1.745  12.708 -0.1205 -0.2324 -0.3200
 6230TIP3    H140181   1.896   1.748  12.802 -0.0902 -1.3499 -0.2802
 6230TIP3    H240182   1.913   1.652  12.686  0.7144  0.0151 -1.3012
 6231TIP3   OH240183   2.820   3.320  14.376  0.9198 -0.1032  0.7879
 6231TIP3    H140184   2.836   3.270  14.456 -0.9922  2.1214  2.6207
 6231TIP3    H240185   2.736   3.288  14.343 -0.0087  1.4435  1.6272
 6232TIP3   OH240186   3.570   5.623  10.447 -0.4292 -0.3088  0.0714
 6232TIP3    H140187   3.618   5.624  10.365 -3.1211 -0.4914 -1.5663
 6232TIP3    H240188   3.528   5.709  10.451 -0.7785 -0.5146  0.9848
 6233TIP3   OH240189   4.010   1.370  15.204 -1.0079 -0.6524 -0.1479
 6233TIP3    H140190   3.920   1.388  15.178 -0.4198  0.9154 -1.1823
 6233TIP3    H240191   4.041   1.306  15.140 -1.4047 -1.2653  0.2662
 6234TIP3   OH240192   6.554   0.367  11.104 -0.3952  0.2264 -0.3964
 6234TIP3    H140193   6.572   0.326  11.020 -1.1873  2.4177 -1.6654
 6234TIP3    H240194   6.491   0.436  11.085 -1.5863 -0.0758  2.2044
 6235TIP3   OH240195   2.866   0.038  12.771 -0.1730 -0.8283 -0.1657
 6235TIP3    H140196   2.802   0.109  12.769 -0.8585 -1.3843  1.5015
 6235TIP3    H240197   2.932   0.064  12.707 -0.3256  1.3845  0.5285
 6236TIP3   OH240198   7.009   0.947  14.471 -0.2344 -0.1438 -0.2554
 6236TIP3    H140199   7.090   0.897  14.465 -0.3059  0.1321 -6.0797
 6236TIP3    H240200   7.037   1.038  14.476 -0.2095 -0.1536 -0.2095
 6237TIP3   OH240201   4.511   0.323  11.319 -0.2574  0.3920  0.2836
 6237TIP3    H140202   4.472   0.285  11.397 -0.5792 -0.7024 -0.3990
 6237TIP3    H240203   4.605   0.317  11.334 -0.2863 -1.2527 -0.0628
 6238TIP3   OH240204   1.657   1.947  10.701 -0.5406  0.6122  0.0924
 6238TIP3    H140205   1.596   2.013  10.735 -1.9940 -0.2786 -0.7147
 6238TIP3    H240206   1.735   1.997  10.676 -1.2831  1.9067  0.3109
 6239TIP3   OH240207   3.789   6.954  14.430  0.1605  0.0136 -0.0562
 6239TIP3    H140208   3.792   6.859  14.416 -0.2792  0.0660 -0.5151
 6239TIP3    H240209   3.722   6.985  14.369  1.2656  0.7909 -0.8985
 6240TIP3   OH240210   4.183   5.154  15.445 -0.3005  0.2861 -0.0666
 6240TIP3    H140211   4.185   5.220  15.514  0.2590 -2.0489  2.2131
 6240TIP3    H240212   4.090   5.146  15.423 -0.6113  0.1659  1.2733
 6241TIP3   OH240213   0.281   1.874  13.381  0.5537 -0.1351  0.4339
 6241TIP3    H140214   0.272   1.968  13.390 -2.7115 -0.4305  0.7377
 6241TIP3    H240215   0.283   1.859  13.286 -2.6358 -0.0191  0.3113
 6242TIP3   OH240216   3.996   3.112  10.937 -0.5262  0.1219 -0.2556
 6242TIP3    H140217   3.984   3.149  11.024  0.6284 -0.1662  0.0362
 6242TIP3    H240218   3.942   3.032  10.938  1.4498 -1.2371  1.0796
 6243TIP3   OH240219   4.751   2.858  12.408 -0.1096 -0.2395  0.0429
 6243TIP3    H140220   4.742   2.795  12.479 -0.5379  0.8193  0.9505
 6243TIP3    H240221   4.843   2.882  12.408 -0.4993  1.3239  1.6279
 6244TIP3   OH240222   0.278   3.156  11.432  0.7286 -0.0275 -0.4046
 6244TIP3    H140223   0.250   3.103  11.358  0.9144 -0.9214  0.1617
 6244TIP3    H240224   0.367   3.182  11.411  0.3700  0.7005 -1.0365
 6245TIP3   OH240225   4.745   1.122  12.993  0.1165  0.4450  0.0204
 6245TIP3    H140226   4.805   1.082  13.056  0.0474  0.6190  0.1998
 6245TIP3    H240227   4.802   1.170  12.933  0.2041  0.0229 -0.2345
 6246TIP3   OH240228   5.084   1.844  14.858 -0.2104  0.0339 -0.3615
 6246TIP3    H140229   5.008   1.818  14.911 -1.1653 -0.3543 -1.8892
 6246TIP3    H240230   5.099   1.770  14.800  1.9783 -0.2947  0.5803
 6247TIP3   OH240231   3.802   5.784  12.239 -0.4852  0.5663 -0.4071
 6247TIP3    H140232   3.869   5.722  12.268 -1.3638  0.0538  0.5506
 6247TIP3    H240233   3.756   5.740  12.168 -1.9421 -0.4203  1.1108
 6248TIP3   OH240234   6.302   4.675  14.550  0.0882 -0.8764  0.2583
 6248TIP3    H140235   6.364   4.747  14.559  0.5006 -1.4418  2.2002
 6248TIP3    H240236   6.316   4.643  14.461  0.1933  1.1531 -0.4864
 6249TIP3   OH240237   4.587   6.159   9.643 -0.1482 -0.3930  0.2155
 6249TIP3    H140238   4.541   6.227   9.693  0.1461 -0.2431  0.2842
 6249TIP3    H240239   4.650   6.208   9.590  0.4245 -0.6553  0.6522
 6250TIP3   OH240240   3.809   3.514  13.571 -0.2537  0.4173 -0.3119
 6250TIP3    H140241   3.731   3.548  13.616  0.8324 -0.0763  2.0336
 6250TIP3    H240242   3.794   3.533  13.479 -1.9266  2.7469  0.4072
 6251TIP3   OH240243   1.130   2.003  14.751 -0.1388  0.1597 -0.0976
 6251TIP3    H140244   1.104   1.914  14.726  1.2826 -0.5332  0.7736
 6251TIP3    H240245   1.165   2.041  14.670 -1.0111  0.0283 -0.5394
 6252TIP3   OH240246   2.960   0.362  12.478  0.1560  0.1793  0.6303
 6252TIP3    H140247   3.053   0.340  12.487  0.1566 -0.6636 -1.0566
 6252TIP3    H240248   2.936   0.327  12.392 -2.0333 -0.7142  1.5508
 6253TIP3   OH240249   6.628   2.212  11.179  0.6065 -0.6936  0.5423
 6253TIP3    H140250   6.579   2.177  11.254  1.2558  0.9047  1.7422
 6253TIP3    H240251   6.710   2.243  11.217  0.3100  1.5417 -0.5993
 6254TIP3   OH240252   0.755   0.254  14.397 -0.0324 -0.1057 -0.2638
 6254TIP3    H140253   0.660   0.250  14.408  0.2378 -1.0258  2.1271
 6254TIP3    H240254   0.768   0.313  14.323 -2.4016  1.6319  0.6403
 6255TIP3   OH240255   2.178   5.883   1.065 -0.1928 -0.1620  0.1500
 6255TIP3    H140256   2.116   5.823   1.025  1.0381 -1.7434  0.5918
 6255TIP3    H240257   2.218   5.930   0.992 -1.9874  0.9689 -0.1270
 6256TIP3   OH240258   0.070   6.693  13.080 -0.6799  0.2521 -0.0587
 6256TIP3    H140259   0.126   6.705  13.157 -1.1394  0.1900  0.2864
 6256TIP3    H240260   0.052   6.599  13.077  1.3390 -0.1176 -1.6477
 6257TIP3   OH240261   5.682   6.525  12.593 -0.0671 -0.2807  0.2760
 6257TIP3    H140262   5.704   6.439  12.630  1.7868 -0.3436 -0.9467
 6257TIP3    H240263   5.729   6.588  12.648  1.2527 -0.2648 -0.8594
 6258TIP3   OH240264   5.889   5.002  14.100 -1.0402 -0.0343  0.5716
 6258TIP3    H140265   5.849   5.089  14.105 -0.7341  0.1767 -0.5033
 6258TIP3    H240266   5.983   5.019  14.094 -1.0998 -0.3532 -1.6633
 6259TIP3   OH240267   0.491   5.929  10.239 -0.3059 -0.1708  0.2102
 6259TIP3    H140268   0.500   5.992  10.311 -1.3184 -1.0450  1.1165
 6259TIP3    H240269   0.514   5.845  10.278  1.3855 -0.3359 -1.0859
 6260TIP3   OH240270   4.094   2.159  10.925 -0.1775 -0.0319 -0.3193
 6260TIP3    H140271   4.182   2.195  10.933 -0.5143  1.3178 -2.2459
 6260TIP3    H240272   4.081   2.108  11.005  2.2401 -0.0212  0.1137
 6261TIP3   OH240273   0.370   0.907  12.229 -0.6181 -0.5538 -0.3779
 6261TIP3    H140274   0.453   0.861  12.219 -0.1095  0.2511  0.1081
 6261TIP3    H240275   0.377   0.983  12.172 -1.4089 -0.9845 -1.0733
 6262TIP3   OH240276   3.396   1.662  14.978 -0.0951  0.3711  0.6340
 6262TIP3    H140277   3.469   1.666  15.040  0.7490  0.1989 -0.3378
 6262TIP3    H240278   3.435   1.687  14.894 -0.9289 -0.7805 -0.0991
 6263TIP3   OH240279   4.544   5.257   9.989 -0.3639 -0.5942  0.3607
 6263TIP3    H140280   4.488   5.292   9.920  1.4510 -0.5121 -1.1103
 6263TIP3    H240281   4.619   5.316   9.991 -0.3744 -0.6183  2.3929
 6264TIP3   OH240282   1.922   7.054  10.712 -0.3773  0.3852 -0.1933
 6264TIP3    H140283   1.916   6.969  10.756  0.7600  0.3640 -0.0695
 6264TIP3    H240284   2.016   7.071  10.705 -0.5507  0.5288 -2.3707
 6265TIP3   OH240285   2.839   5.797  10.458  0.0889 -0.2286  0.5428
 6265TIP3    H140286   2.887   5.784  10.539 -2.5520 -1.2864  1.9757
 6265TIP3    H240287   2.799   5.712  10.439 -0.9079  0.5214 -0.8319
 6266TIP3   OH240288   6.088   5.008  12.763  0.1218 -0.0151  0.7296
 6266TIP3    H140289   6.052   4.982  12.848  0.9767  0.6385  1.2928
 6266TIP3    H240290   6.011   5.022  12.708 -0.4087 -2.4091  0.7887
 6267TIP3   OH240291   4.689   2.335  14.210  0.3650 -0.0676 -0.1936
 6267TIP3    H140292   4.598   2.308  14.224  0.2501  1.0487  1.3138
 6267TIP3    H240293   4.721   2.360  14.297  2.2731 -0.9196 -0.6239
 6268TIP3   OH240294   4.070   6.227   1.291  0.7323  0.3886  0.5429
 6268TIP3    H140295   4.116   6.268   1.365  0.1940  3.1222 -0.5687
 6268TIP3    H240296   3.977   6.241   1.309  0.5996  1.2328 -0.6825
 6269TIP3   OH240297   0.785   5.117  12.040 -0.1293 -0.0588 -0.1243
 6269TIP3    H140298   0.752   5.077  11.959 -4.2691  1.4904  0.6857
 6269TIP3    H240299   0.786   5.046  12.103  1.7024 -0.9477 -1.1269
 6270TIP3   OH240300   3.954   0.104  13.665  0.1908  0.3598 -0.5705
 6270TIP3    H140301   3.938   0.013  13.690  0.5205  0.1517 -1.1254
 6270TIP3    H240302   4.048   0.115  13.672  0.1425  0.6796 -0.4292
 6271TIP3   OH240303   4.271   7.032  13.781 -0.0505 -0.0537 -0.3873
 6271TIP3    H140304   4.192   7.027  13.728 -0.3178  0.1703 -0.0086
 6271TIP3    H240305   4.300   6.941  13.790 -1.3778 -0.3439  1.1548
 6272TIP3   OH240306   2.122   6.843  14.834 -0.0505 -0.0280  0.1383
 6272TIP3    H140307   2.151   6.910  14.772 -0.3211 -1.0453 -1.1000
 6272TIP3    H240308   2.068   6.891  14.897  1.8970  1.3652  0.8033
 6273TIP3   OH240309   2.808   1.970  13.965 -0.2254  0.0972 -0.4347
 6273TIP3    H140310   2.816   1.905  13.895 -0.0765 -0.7830  0.3875
 6273TIP3    H240311   2.855   2.046  13.932  2.6950 -1.4261  0.0092
 6274TIP3   OH240312   6.087   5.255   9.705  0.4347 -0.5497  0.5134
 6274TIP3    H140313   6.179   5.229   9.702  0.3990 -0.6623  0.3506
 6274TIP3    H240314   6.041   5.176   9.733  0.0451 -1.4434 -2.3963
 6275TIP3   OH240315   0.524   6.530  13.010 -0.1988 -0.2489  0.3213
 6275TIP3    H140316   0.573   6.448  13.002 -2.8579 -1.7198 -2.7552
 6275TIP3    H240317   0.488   6.528  13.099  0.9113 -1.7611  0.7600
 6276TIP3   OH240318   0.690   3.284  11.183  0.0408  0.5124 -0.5275
 6276TIP3    H140319   0.642   3.244  11.256  1.0208 -0.4155 -0.3727
 6276TIP3    H240320   0.779   3.294  11.216  0.1330  1.4947 -1.0798
 6277TIP3   OH240321   0.742   4.261   0.183  0.0873 -0.3109  0.2853
 6277TIP3    H140322   0.666   4.302   0.223 -0.4265 -0.8715 -0.0978
 6277TIP3    H240323   0.774   4.325   0.119  0.4153  0.2446  0.9977
 6278TIP3   OH240324   3.888   6.014   1.119  0.1476  0.1784 -0.0319
 6278TIP3    H140325   3.960   6.045   1.174 -0.4652 -0.4267  1.1125
 6278TIP3    H240326   3.842   6.094   1.092  0.2187  0.4560  0.6562
 6279TIP3   OH240327   6.846   3.732  14.684  0.2694 -0.5547  0.1010
 6279TIP3    H140328   6.934   3.721  14.721 -0.6391 -0.7859  2.2797
 6279TIP3    H240329   6.860   3.740  14.590  2.5802 -1.1559  0.3683
 6280TIP3   OH240330   7.016   3.188  10.842  0.0551  0.3824  0.7189
 6280TIP3    H140331   7.090   3.198  10.902  1.5014 -2.0534 -0.5665
 6280TIP3    H240332   7.039   3.112  10.789 -1.0307  2.6419 -3.1649
 6281TIP3   OH240333   3.466   0.021  13.193  0.1722 -0.6868  0.1524
 6281TIP3    H140334   3.494   0.078  13.264 -0.5623  1.4113 -1.1734
 6281TIP3    H240335   3.404   0.075  13.143 -0.0855 -2.4563 -1.4823
 6282TIP3   OH240336   0.871   3.118  10.835  0.0436 -0.1399  0.1120
 6282TIP3    H140337   0.909   3.135  10.921 -0.1334 -0.2055  0.2025
 6282TIP3    H240338   0.914   3.182  10.777  0.1008 -0.0392  0.2639
 6283TIP3   OH240339   2.592   5.606   9.989  0.3767 -0.1745  0.1540
 6283TIP3    H140340   2.553   5.593   9.902 -1.1018 -2.2540  1.0871
 6283TIP3    H240341   2.526   5.658  10.036  0.2979 -0.7182  0.6432
 6284TIP3   OH240342   2.803   6.170  12.354 -0.1831  0.1546  0.3195
 6284TIP3    H140343   2.720   6.216  12.366  0.1927  0.6884  0.9058
 6284TIP3    H240344   2.844   6.215  12.280  0.7840  1.6470  1.7437
 6285TIP3   OH240345   3.965   5.409  10.353  0.2083  0.2121  0.3778
 6285TIP3    H140346   3.897   5.434  10.416  1.0069  1.1133  0.8935
 6285TIP3    H240347   4.036   5.374  10.407  0.0352 -1.0098 -0.1807
 6286TIP3   OH240348   0.160   5.876  11.287 -0.4162 -0.1083 -0.5382
 6286TIP3    H140349   0.118   5.846  11.206 -1.4185  1.2935 -0.5558
 6286TIP3    H240350   0.088   5.911  11.340  0.2529 -0.8487  0.9000
 6287TIP3   OH240351   2.170   2.921  11.542  0.1990 -0.0658  0.1460
 6287TIP3    H140352   2.236   2.891  11.480  0.5612  0.5221  0.2381
 6287TIP3    H240353   2.088   2.920  11.493  0.5322  0.6897 -0.4361
 6288TIP3   OH240354   6.000   4.960  15.579 -0.7961 -0.1936 -0.2896
 6288TIP3    H140355   5.991   4.957  15.484  0.4139 -0.1866 -0.4103
 6288TIP3    H240356   6.088   4.925  15.596 -0.5612  0.8732  0.7464
 6289TIP3   OH240357   6.994   0.614  12.361  0.5856  0.7971 -0.3008
 6289TIP3    H140358   6.903   0.625  12.332  0.7202  0.1616 -0.9941
 6289TIP3    H240359   7.044   0.674  12.305  0.6553  0.7355 -0.3041
 6290TIP3   OH240360   0.021   1.406  12.630  0.1787  0.2320  0.1134
 6290TIP3    H140361   0.092   1.464  12.601 -0.3763  0.6376 -0.4572
 6290TIP3    H240362  -0.054   1.433  12.577 -0.0084 -1.2298 -0.3823
 6291TIP3   OH240363   1.318   4.944  12.769 -0.0275  0.1808  0.3358
 6291TIP3    H140364   1.262   4.922  12.843 -0.9574 -0.8780 -0.6590
 6291TIP3    H240365   1.299   5.036  12.751  0.8497  0.7093  1.9247
 6292TIP3   OH240366   5.934   6.525  10.212  0.1906  0.1968 -0.1760
 6292TIP3    H140367   6.004   6.464  10.193  0.3035  0.1464  0.3868
 6292TIP3    H240368   5.867   6.507  10.146  0.5076 -0.0790 -0.4200
 6293TIP3   OH240369   3.085   6.440  10.301  0.2063 -0.0274  0.5078
 6293TIP3    H140370   3.028   6.364  10.288 -0.5555  0.4630  0.9364
 6293TIP3    H240371   3.168   6.414  10.262  0.3659 -1.6061  1.8186
 6294TIP3   OH240372   5.034   2.245  11.091  0.3271  0.4204 -0.1313
 6294TIP3    H140373   5.124   2.245  11.122  0.1686 -1.6939  0.3548
 6294TIP3    H240374   5.041   2.250  10.996  0.9578  0.1790 -0.0962
 6295TIP3   OH240375   2.142   0.063  14.353  0.1734  0.5173 -0.2418
 6295TIP3    H140376   2.223   0.081  14.305  1.1236 -1.1590  0.6816
 6295TIP3    H240377   2.114  -0.024  14.323 -1.3875  1.1493 -0.6748
 6296TIP3   OH240378   6.566   0.052  10.454 -0.4173  0.2313  0.4659
 6296TIP3    H140379   6.629  -0.019  10.446 -0.3347  0.1392  1.9249
 6296TIP3    H240380   6.616   0.126  10.488 -0.4593  1.0639 -1.2450
 6297TIP3   OH240381   0.079   2.389  14.345 -0.5450  1.3462 -0.5630
 6297TIP3    H140382  -0.007   2.415  14.378 -0.6946  0.4775 -0.2690
 6297TIP3    H240383   0.060   2.336  14.267 -0.3229  0.3400  0.0521
 6298TIP3   OH240384   0.827   5.214  15.146 -0.2356 -0.0775 -0.4019
 6298TIP3    H140385   0.882   5.275  15.097  0.1143  0.3632  0.5280
 6298TIP3    H240386   0.888   5.170  15.205 -0.9075  0.5042  0.7272
 6299TIP3   OH240387   0.552   6.143  15.509  0.3491  0.2359  0.1077
 6299TIP3    H140388   0.534   6.091  15.431  0.7879  0.2737 -0.0214
 6299TIP3    H240389   0.567   6.078  15.578  1.2399  0.1788 -0.1303
 6300TIP3   OH240390   3.846   1.947  14.620 -0.2924 -0.1412 -0.0952
 6300TIP3    H140391   3.837   1.964  14.713 -0.2771 -0.8966  0.0468
 6300TIP3    H240392   3.936   1.971  14.599 -0.2052 -0.2586  0.1475
 6301TIP3   OH240393   3.932   6.358  11.287 -0.3586  0.3640 -0.3206
 6301TIP3    H140394   3.882   6.424  11.336 -0.9110  0.4425 -0.9820
 6301TIP3    H240395   3.873   6.283  11.279 -0.5929  0.6715 -1.6021
 6302TIP3   OH240396   5.248   6.077   0.247  0.1940  0.0118  0.3083
 6302TIP3    H140397   5.342   6.095   0.242  0.8116 -2.9566  0.6312
 6302TIP3    H240398   5.216   6.138   0.314  2.2425 -0.2828  1.6082
 6303TIP3   OH240399   6.546   3.741  11.261 -0.3512  0.6608 -0.0646
 6303TIP3    H140400   6.507   3.679  11.322 -1.9179  0.3976 -1.3088
 6303TIP3    H240401   6.497   3.822  11.274  1.3558  1.5522  1.1941
 6304TIP3   OH240402   1.961   3.918  13.673 -0.1088  0.3288  0.6018
 6304TIP3    H140403   2.054   3.903  13.690  0.0042  2.4409  2.0484
 6304TIP3    H240404   1.956   3.930  13.578  0.8980 -1.0430  0.3594
 6305TIP3   OH240405   1.230   1.236   1.535 -0.7319 -0.6322  0.2887
 6305TIP3    H140406   1.233   1.225   1.630 -0.0845  1.4306  0.5256
 6305TIP3    H240407   1.204   1.327   1.522  0.3184 -0.5655 -1.5000
 6306TIP3   OH240408   2.029   4.318  14.057 -0.3550  0.3608 -0.1061
 6306TIP3    H140409   2.103   4.324  13.998  0.0796 -1.8206  0.1662
 6306TIP3    H240410   2.051   4.376  14.130  2.0331 -1.7873  0.9353
 6307TIP3   OH240411   2.965   3.769  12.283 -0.0611 -0.1885 -0.4392
 6307TIP3    H140412   2.871   3.770  12.298  0.1465  0.2835  0.8759
 6307TIP3    H240413   2.991   3.861  12.288  0.6641 -0.4366  0.4609
 6308TIP3   OH240414   1.472   6.804   0.153  0.0136 -0.2747  0.2702
 6308TIP3    H140415   1.554   6.754   0.146  0.2823  0.0832  0.7872
 6308TIP3    H240416   1.405   6.737   0.167  0.2880 -0.5403  0.3332
 6309TIP3   OH240417   5.372   3.284  11.215 -0.0041  0.0442  0.0046
 6309TIP3    H140418   5.338   3.312  11.130  0.3135 -0.3917 -0.2664
 6309TIP3    H240419   5.397   3.192  11.202  0.4222  0.0936  0.4514
 6310TIP3   OH240420   1.324   5.025  15.011  0.7568 -0.2287 -0.5054
 6310TIP3    H140421   1.352   5.100  14.960 -0.1034 -0.6231 -1.5739
 6310TIP3    H240422   1.404   4.975  15.026  1.0482  0.0022 -1.2838
 6311TIP3   OH240423   3.842   5.679  15.535 -0.2340 -0.2605 -0.0391
 6311TIP3    H140424   3.899   5.747  15.499 -0.8725 -0.0390 -0.6488
 6311TIP3    H240425   3.839   5.697  15.629 -1.6731  1.5355 -0.3963
 6312TIP3   OH240426   2.247   4.052   0.335 -1.0573  0.5167  0.3236
 6312TIP3    H140427   2.198   3.982   0.292  1.4053 -1.6462  0.8985
 6312TIP3    H240428   2.225   4.043   0.428  0.2735 -0.3807  0.5665
 6313TIP3   OH240429   4.487   4.350  11.850  0.7241 -0.0723  0.2063
 6313TIP3    H140430   4.581   4.366  11.856  0.7528 -0.3252  0.4246
 6313TIP3    H240431   4.479   4.255  11.844  0.2697 -0.4016  4.3818
 6314TIP3   OH240432   5.593   6.640  12.891  0.3130  0.5510  0.2916
 6314TIP3    H140433   5.649   6.717  12.879 -0.7942  1.3463  0.1215
 6314TIP3    H240434   5.523   6.652  12.826 -0.4228 -0.0865  0.9623
 6315TIP3   OH240435   3.688   5.883  13.454  0.5455 -0.4743  0.0265
 6315TIP3    H140436   3.613   5.888  13.395  2.1221 -1.2929 -2.1670
 6315TIP3    H240437   3.732   5.801  13.429  3.1595  0.8957 -0.0324
 6316TIP3   OH240438   0.261   0.724  11.576  0.4771 -0.4046 -0.6441
 6316TIP3    H140439   0.272   0.643  11.626 -0.3947 -0.2870 -0.2495
 6316TIP3    H240440   0.169   0.746  11.586  0.7827  0.8277 -0.4712
 6317TIP3   OH240441   1.043   5.613   9.924  0.9427  0.6338 -0.5849
 6317TIP3    H140442   1.055   5.691   9.979 -0.1135  2.2687 -2.6195
 6317TIP3    H240443   1.122   5.610   9.870  1.0182  0.2243 -0.4537
 6318TIP3   OH240444   5.989   5.573  10.481 -0.3401  0.3192 -0.3299
 6318TIP3    H140445   5.939   5.563  10.563 -0.8234 -0.1553 -0.6754
 6318TIP3    H240446   6.073   5.530  10.499  0.3135  1.9346  0.5661
 6319TIP3   OH240447   1.452   3.095  12.404 -0.7010  0.7928  0.0863
 6319TIP3    H140448   1.368   3.129  12.373 -0.0816  1.0145 -1.4006
 6319TIP3    H240449   1.508   3.172  12.411  0.0888  0.3654 -1.2974
 6320TIP3   OH240450   7.158   6.472  12.349  0.1073  0.1969  0.0628
 6320TIP3    H140451   7.181   6.379  12.360 -1.5009 -0.5695 -2.7280
 6320TIP3    H240452   7.066   6.477  12.376  0.0327  0.8955 -0.3230
 6321TIP3   OH240453   0.980   2.231  14.100 -0.1178 -0.1574 -0.1677
 6321TIP3    H140454   0.940   2.318  14.105 -0.0055 -0.0360 -1.2567
 6321TIP3    H240455   0.905   2.170  14.097 -0.1947 -0.1345  1.0367
 6322TIP3   OH240456   5.504   4.105  14.850 -0.6467 -0.8112 -0.1960
 6322TIP3    H140457   5.453   4.047  14.906  0.8576 -1.3244  0.6790
 6322TIP3    H240458   5.586   4.057  14.835  1.1402  1.5558  1.5547
 6323TIP3   OH240459   0.677   4.157  12.959  0.5065 -0.0733  0.5027
 6323TIP3    H140460   0.616   4.230  12.972 -2.3827 -1.9319 -1.9358
 6323TIP3    H240461   0.753   4.197  12.916  0.1640  1.9346  1.7015
 6324TIP3   OH240462   6.258   4.486  13.011 -0.1994 -0.4062 -0.2469
 6324TIP3    H140463   6.163   4.476  13.003 -0.3334  0.6703 -0.0276
 6324TIP3    H240464   6.271   4.531  13.094  0.6384 -2.5757  0.8309
 6325TIP3   OH240465   0.433   6.435  13.763 -0.0507 -0.0418 -0.4175
 6325TIP3    H140466   0.459   6.513  13.812  1.1367 -0.2931 -0.6326
 6325TIP3    H240467   0.337   6.441  13.757  0.0829  1.7257 -0.9771
 6326TIP3   OH240468   0.493   5.614   0.230  0.5780  0.1366  0.1290
 6326TIP3    H140469   0.513   5.607   0.136  1.3211  1.0319  0.2131
 6326TIP3    H240470   0.530   5.699   0.256  1.2848 -0.5681  1.4660
 6327TIP3   OH240471   5.162   0.600  10.978  0.7123  0.5024 -0.5872
 6327TIP3    H140472   5.067   0.609  10.985  0.5639  0.8726 -2.7647
 6327TIP3    H240473   5.193   0.689  10.961  1.3935  0.3006 -0.4167
 6328TIP3   OH240474   0.331   6.043  13.049  0.0825  0.1820 -0.1293
 6328TIP3    H140475   0.291   5.958  13.033 -0.4021  0.3485  0.1614
 6328TIP3    H240476   0.425   6.029  13.040  0.0195 -0.4427  0.1955
 6329TIP3   OH240477   1.448   4.827  13.194 -0.5523  0.5695 -0.2251
 6329TIP3    H140478   1.494   4.746  13.215  0.5746  0.5472 -2.6155
 6329TIP3    H240479   1.403   4.851  13.275  1.2809 -0.9854  1.2938
 6330TIP3   OH240480   0.776   1.082  14.695 -0.7915 -0.4642 -0.3495
 6330TIP3    H140481   0.856   1.122  14.661 -1.3981 -1.2912 -2.8486
 6330TIP3    H240482   0.806   1.020  14.761  0.6813 -0.8973 -1.3856
 6331TIP3   OH240483   5.407   4.090  12.226  0.0450  0.0647 -0.1703
 6331TIP3    H140484   5.407   3.997  12.251  0.6675 -0.2304 -1.2257
 6331TIP3    H240485   5.315   4.110  12.210 -0.1490 -0.2387  0.5395
 6332TIP3   OH240486   2.619   0.084  10.031 -0.3989  0.7388 -0.0741
 6332TIP3    H140487   2.554   0.108   9.965  0.2780  1.0060 -0.6426
 6332TIP3    H240488   2.654   0.001  10.001 -3.2992 -1.4727  2.2993
 6333TIP3   OH240489   1.484   4.363  13.708 -0.1811 -0.0188  0.3309
 6333TIP3    H140490   1.410   4.424  13.703  0.9038  1.6307  3.2031
 6333TIP3    H240491   1.555   4.415  13.746  1.8146 -2.1545 -0.3911
 6334TIP3   OH240492   4.100   6.359  10.603  0.2036 -0.1397 -0.1689
 6334TIP3    H140493   4.133   6.365  10.513  0.0743 -1.2051 -0.2970
 6334TIP3    H240494   4.081   6.266  10.615 -0.8645  0.1698  0.5805
 6335TIP3   OH240495   1.553   6.626  11.198 -0.5204  0.1879  0.6415
 6335TIP3    H140496   1.494   6.553  11.179 -0.9086  1.0837 -1.7973
 6335TIP3    H240497   1.640   6.594  11.174 -0.6411  0.3593 -0.0563
 6336TIP3   OH240498   4.588   2.253  11.442  0.0148  0.1332 -0.0701
 6336TIP3    H140499   4.614   2.331  11.491  0.8009  0.2298 -0.6239
 6336TIP3    H240500   4.542   2.199  11.506  0.7186  0.4153  0.6954
 6337TIP3   OH240501   0.168   4.671  12.852 -0.2741  0.2638 -0.2738
 6337TIP3    H140502   0.223   4.749  12.852 -0.6520  0.5516 -1.6711
 6337TIP3    H240503   0.224   4.602  12.888  0.4757  0.9031 -0.2056
 6338TIP3   OH240504   6.027   5.379  11.176 -0.2901 -0.2016  0.1630
 6338TIP3    H140505   6.066   5.430  11.247 -0.9915  0.8792 -0.2170
 6338TIP3    H240506   5.933   5.397  11.183 -0.3111  0.3307 -1.3554
 6339TIP3   OH240507   2.443   1.619  10.123 -0.2990  0.4283  0.1937
 6339TIP3    H140508   2.416   1.692  10.179 -1.4890 -0.2246  0.4811
 6339TIP3    H240509   2.470   1.551  10.185  0.9855  0.6820 -0.0746
 6340TIP3   OH240510   0.208   6.639  10.525 -0.3189  0.0852 -0.1568
 6340TIP3    H140511   0.254   6.559  10.499  0.1916  0.0872  0.7262
 6340TIP3    H240512   0.226   6.702  10.455 -1.7335 -0.9331 -1.4793
 6341TIP3   OH240513   6.776   5.349   1.084 -0.9248 -0.2417  0.5738
 6341TIP3    H140514   6.745   5.329   1.172  0.0268  0.4630  1.0695
 6341TIP3    H240515   6.769   5.444   1.076  2.4205  0.1218  1.2107
 6342TIP3   OH240516   5.472   3.835  15.358  0.0026  0.4833  0.3363
 6342TIP3    H140517   5.538   3.780  15.401 -1.3547 -0.7850  0.8131
 6342TIP3    H240518   5.457   3.792  15.273  0.6800  1.4643 -0.2937
 6343TIP3   OH240519   3.122   0.776  13.194 -0.2100  0.8052  0.4130
 6343TIP3    H140520   3.103   0.722  13.271  0.1889 -0.9850 -0.6889
 6343TIP3    H240521   3.152   0.859  13.229 -1.2784  0.4668  2.1782
 6344TIP3   OH240522   5.619   1.014  14.753 -0.4903  0.0248  0.8610
 6344TIP3    H140523   5.614   0.988  14.661  1.6971 -1.4943  1.1286
 6344TIP3    H240524   5.532   0.994  14.788 -1.0043 -0.3995 -0.6162
 6345TIP3   OH240525   1.794   2.970  15.467  0.0485  0.3871 -0.4041
 6345TIP3    H140526   1.856   2.971  15.540  0.1116 -0.0914 -0.4504
 6345TIP3    H240527   1.710   2.950  15.507  0.0641  0.2349 -0.4471
 6346TIP3   OH240528   6.062   0.472  10.504  0.6861  0.1556 -0.6280
 6346TIP3    H140529   5.969   0.486  10.483  1.0746  1.2178 -1.6393
 6346TIP3    H240530   6.067   0.378  10.523 -0.3093 -0.2122 -2.0566
 6347TIP3   OH240531   2.164   5.711  12.037  0.8995  0.2876  0.4275
 6347TIP3    H140532   2.086   5.765  12.055  1.5112  1.0905  0.6900
 6347TIP3    H240533   2.132   5.621  12.044 -0.7243  0.5597 -2.5454
 6348TIP3   OH240534   5.518   4.258  13.866  0.2779 -0.1883  0.2130
 6348TIP3    H140535   5.504   4.164  13.877 -0.3612 -0.0197  0.8617
 6348TIP3    H240536   5.610   4.272  13.887  0.1219 -0.5166  1.1028
 6349TIP3   OH240537   3.513   5.481  13.240 -0.3435 -0.2888  0.3004
 6349TIP3    H140538   3.509   5.386  13.242  0.3846 -0.2873  1.8298
 6349TIP3    H240539   3.542   5.501  13.151 -1.0990 -1.4549 -0.2281
 6350TIP3   OH240540   3.296   5.634  10.641 -0.1663 -0.2465  0.6756
 6350TIP3    H140541   3.357   5.561  10.632 -0.7043 -0.7260  0.9171
 6350TIP3    H240542   3.221   5.609  10.586 -0.5818 -0.1207  1.1836
 6351TIP3   OH240543   6.388   6.326  15.583  0.1241 -0.7214 -0.4159
 6351TIP3    H140544   6.342   6.253  15.624 -2.4449  0.8543 -0.4123
 6351TIP3    H240545   6.356   6.327  15.493  2.4183 -1.4236 -1.2796
 6352TIP3   OH240546   4.191   0.836  13.805  0.2555 -0.6534  0.6148
 6352TIP3    H140547   4.180   0.812  13.897 -0.1522 -3.9253 -0.2287
 6352TIP3    H240548   4.185   0.753  13.758  0.6106  0.9535 -2.3641
 6353TIP3   OH240549   0.728   6.588  15.356  0.1220  0.4972 -0.6504
 6353TIP3    H140550   0.802   6.602  15.297  2.3171  0.0373  1.9539
 6353TIP3    H240551   0.750   6.508  15.404 -1.1224  1.4544  1.5775
 6354TIP3   OH240552   6.231   4.570  11.415  0.2480  0.2152 -0.6148
 6354TIP3    H140553   6.205   4.478  11.421 -0.8186  0.5650  0.4299
 6354TIP3    H240554   6.326   4.568  11.417  0.2127 -0.7627  1.6627
 6355TIP3   OH240555   5.426   0.170  12.037  0.5928  0.0994  0.3732
 6355TIP3    H140556   5.484   0.144  12.108  0.9589 -0.6709 -0.1978
 6355TIP3    H240557   5.446   0.262  12.021 -0.2628  0.5897  1.9927
 6356TIP3   OH240558   6.508   0.211  10.180 -0.5016 -0.3645  0.2077
 6356TIP3    H140559   6.582   0.152  10.200 -0.5131 -0.7730 -0.9464
 6356TIP3    H240560   6.529   0.247  10.094 -0.4277  1.4502  0.9697
 6357TIP3   OH240561   6.392   5.739  13.169  0.0243 -0.3024 -0.0163
 6357TIP3    H140562   6.365   5.712  13.081 -0.9216 -0.4552  0.3190
 6357TIP3    H240563   6.429   5.660  13.208  1.5271  0.0608 -0.6954
 6358TIP3   OH240564   3.369   1.110  12.577 -0.4189  0.1838 -0.1855
 6358TIP3    H140565   3.340   1.031  12.533 -2.5519  0.2686  0.9674
 6358TIP3    H240566   3.375   1.085  12.669 -0.8698  1.2726  0.1501
 6359TIP3   OH240567   2.568   0.013  12.582 -0.3176  0.2114 -0.2104
 6359TIP3    H140568   2.640   0.076  12.575 -0.7563  0.7186 -0.1384
 6359TIP3    H240569   2.563  -0.008  12.675 -0.2620  0.1714 -0.2166
 6360TIP3   OH240570   5.141   5.093  12.630 -0.5118 -0.1691  0.6130
 6360TIP3    H140571   5.189   5.025  12.583  0.0607  0.3745  0.3989
 6360TIP3    H240572   5.060   5.105  12.580 -0.6050 -0.6782  0.6435
 6361TIP3   OH240573   5.579   4.466  14.422 -0.1507  0.4783  0.2305
 6361TIP3    H140574   5.503   4.452  14.478 -0.6492  0.6161 -0.4072
 6361TIP3    H240575   5.617   4.378  14.411 -1.0825  0.1733 -0.6596
 6362TIP3   OH240576   2.974   4.350  12.743  0.1339  0.0286  0.0013
 6362TIP3    H140577   2.880   4.332  12.744  0.5669 -2.5985 -2.4836
 6362TIP3    H240578   3.016   4.266  12.764  1.9725  0.9625  0.2393
 6363TIP3   OH240579   6.874   2.237  11.680 -0.8224  0.0844 -0.0033
 6363TIP3    H140580   6.893   2.324  11.715 -1.4419 -0.8174  2.7162
 6363TIP3    H240581   6.784   2.243  11.648 -1.3398  0.1101  1.4094
 6364TIP3   OH240582   6.567   5.933  15.539 -0.0342  0.1606  0.2055
 6364TIP3    H140583   6.495   5.908  15.596 -0.1586  0.7453  0.3030
 6364TIP3    H240584   6.644   5.931  15.596 -0.2098  1.0987  0.4973
 6365TIP3   OH240585   1.314   4.930  12.490  0.5381 -0.1657  0.9890
 6365TIP3    H140586   1.263   5.007  12.464  2.0545  0.6081  0.2126
 6365TIP3    H240587   1.304   4.926  12.585 -0.9680 -0.0479  0.8548
 6366TIP3   OH240588   0.779   0.097  13.455 -0.1591 -0.3338  0.3772
 6366TIP3    H140589   0.744   0.066  13.539 -0.0859  2.3251  1.4492
 6366TIP3    H240590   0.707   0.086  13.393 -0.5353 -1.4343  0.9994
 6367TIP3   OH240591   4.092   4.559  11.849 -0.5039  0.3221  0.4626
 6367TIP3    H140592   4.112   4.636  11.796 -1.7650  1.4494  1.5954
 6367TIP3    H240593   4.044   4.501  11.791 -0.8814  1.0550  0.0430
 6368TIP3   OH240594   5.748   6.462  11.214 -0.3200  0.5814 -0.4977
 6368TIP3    H140595   5.838   6.493  11.215 -0.6838  1.7015 -0.7770
 6368TIP3    H240596   5.744   6.402  11.139 -0.5244  2.8616 -2.3895
 6369TIP3   OH240597   7.154   7.180  10.899  0.1579 -0.4093  0.2319
 6369TIP3    H140598   7.101   7.211  10.826  0.4779 -0.5684 -0.0690
 6369TIP3    H240599   7.130   7.088  10.910  0.9799 -0.7171 -0.4559
 6370TIP3   OH240600   6.332   7.178  14.153  0.7123  0.2709 -0.4698
 6370TIP3    H140601   6.318   7.206  14.244  2.3336  1.3255 -0.5305
 6370TIP3    H240602   6.251   7.204  14.108 -0.6756 -1.4843  0.9232
 6371TIP3   OH240603   5.911   3.084  11.527  0.2417  0.1574 -0.3623
 6371TIP3    H140604   5.832   3.063  11.477 -0.0420 -3.3184  1.3402
 6371TIP3    H240605   5.880   3.140  11.598 -0.3622  0.3633 -0.7830
 6372TIP3   OH240606   4.979   6.139  11.775 -0.4054 -0.0371 -0.5825
 6372TIP3    H140607   4.909   6.094  11.726  0.0232 -0.3840 -0.8741
 6372TIP3    H240608   4.954   6.231  11.771 -2.9939 -0.4958  2.7129
 6373TIP3   OH240609   0.949   6.883  15.506  0.2419  0.2825  0.3106
 6373TIP3    H140610   0.881   6.858  15.568 -0.9550  1.3076 -0.5700
 6373TIP3    H240611   0.974   6.801  15.463 -1.2772  0.0907 -0.2110
 6374TIP3   OH240612   1.686   1.411  11.007  0.1698 -0.1816  0.4879
 6374TIP3    H140613   1.739   1.436  10.931  0.5246 -0.6460  0.5817
 6374TIP3    H240614   1.750   1.381  11.072 -0.1747 -0.3302  0.7571
 6375TIP3   OH240615   1.005   6.144  12.996  0.1484  0.1557 -0.3828
 6375TIP3    H140616   1.028   6.236  13.008 -1.5425  0.6600 -0.8629
 6375TIP3    H240617   0.946   6.143  12.920 -0.2410 -1.2571 -0.0909
 6376TIP3   OH240618   0.193   3.175  14.282  0.0650  0.9403 -0.6238
 6376TIP3    H140619   0.221   3.109  14.346 -1.6656 -0.2483 -1.0675
 6376TIP3    H240620   0.248   3.158  14.205 -0.4909 -0.1054 -0.7962
 6377TIP3   OH240621   6.326   3.041  13.484  0.6867  0.3463 -0.5815
 6377TIP3    H140622   6.418   3.065  13.475  0.9109 -0.2196  0.1609
 6377TIP3    H240623   6.319   2.956  13.442  0.7534 -0.1417  0.3775
 6378TIP3   OH240624   6.849   5.860  12.743  0.1077 -0.0243  0.1633
 6378TIP3    H140625   6.869   5.767  12.756  3.4322  0.4319 -1.0474
 6378TIP3    H240626   6.908   5.887  12.672  0.1660  3.3323  1.4117
 6379TIP3   OH240627   0.337   1.077  14.244 -0.0649 -0.0856  0.4192
 6379TIP3    H140628   0.421   1.040  14.218  0.7661  1.8168  0.2736
 6379TIP3    H240629   0.272   1.020  14.205  1.1724 -0.8138 -0.6116
 6380TIP3   OH240630   5.859   2.661  13.013  0.1467 -0.0021  0.0832
 6380TIP3    H140631   5.889   2.729  13.073 -1.2088 -0.3813  1.2165
 6380TIP3    H240632   5.829   2.709  12.936  1.6027  0.5053 -0.2014
 6381TIP3   OH240633   4.785   5.261  14.004  0.4174  0.4088 -0.0325
 6381TIP3    H140634   4.741   5.312  14.071 -0.0776  0.5643 -0.4752
 6381TIP3    H240635   4.877   5.290  14.008  0.0057  1.8379 -0.7550
 6382TIP3   OH240636   5.296   1.351   1.489 -0.5191 -0.1044 -0.1174
 6382TIP3    H140637   5.254   1.437   1.498  1.1378  0.6750  0.2693
 6382TIP3    H240638   5.389   1.367   1.506 -0.1001 -1.8767 -0.5995
 6383TIP3   OH240639   4.387   7.049   9.550  0.0040 -0.1062  0.2286
 6383TIP3    H140640   4.357   7.108   9.619  0.8828 -0.0054  0.5342
 6383TIP3    H240641   4.472   7.084   9.524  1.0073 -1.8021  1.1300
 6384TIP3   OH240642   6.068   3.620  12.648  0.0399  0.7629 -0.2736
 6384TIP3    H140643   6.091   3.640  12.558  0.3658 -0.9367 -0.5892
 6384TIP3    H240644   6.008   3.689  12.674 -0.8179  0.7258 -2.1126
 6385TIP3   OH240645   1.262   6.415  13.198  0.1675 -0.1978 -0.5843
 6385TIP3    H140646   1.354   6.395  13.213 -0.5814 -1.8033  2.1941
 6385TIP3    H240647   1.231   6.450  13.282 -1.9146 -0.2785 -1.2832
 6386TIP3   OH240648   0.777   4.062  12.675  0.5972 -0.5693 -0.3312
 6386TIP3    H140649   0.851   4.034  12.730  1.1475 -1.6104 -1.5673
 6386TIP3    H240650   0.707   4.000  12.696  0.2961 -0.0114  0.3268
 6387TIP3   OH240651   3.451   1.739  12.440  0.0832 -0.4142  0.0630
 6387TIP3    H140652   3.480   1.811  12.496  2.3911 -1.2543  0.0076
 6387TIP3    H240653   3.525   1.679  12.438 -0.5511 -1.1691 -2.6179
 6388TIP3   OH240654   2.631   1.954  12.277  0.4278  0.2067 -0.0912
 6388TIP3    H140655   2.611   1.897  12.203 -1.1189  3.6345 -2.4084
 6388TIP3    H240656   2.554   1.947  12.334  0.5978 -0.6055  0.0511
 6389TIP3   OH240657   0.079   2.402  13.951  0.9233 -0.1520 -0.1909
 6389TIP3    H140658   0.134   2.464  13.998 -1.8340  2.4689 -0.3096
 6389TIP3    H240659   0.025   2.361  14.019 -1.5977  2.1250 -0.7601
 6390TIP3   OH240660   4.246   3.117  13.010 -0.4510 -0.1436  0.3366
 6390TIP3    H140661   4.156   3.150  13.000 -0.5776 -0.0841  1.6845
 6390TIP3    H240662   4.301   3.187  12.975 -0.9611 -0.6208 -1.5199
 6391TIP3   OH240663   3.953   7.058  11.408 -0.1803 -0.1746 -0.1900
 6391TIP3    H140664   3.877   7.104  11.444  0.2738 -0.3209  0.9465
 6391TIP3    H240665   3.954   6.974  11.454  0.7258 -0.1362 -0.1370
 6392TIP3   OH240666   4.387   5.711  13.215  0.4615 -0.7312  0.2476
 6392TIP3    H140667   4.347   5.629  13.183  1.1527 -0.4494 -1.3820
 6392TIP3    H240668   4.477   5.708  13.182  1.1907 -0.3864  2.1584
 6393TIP3   OH240669   5.683   2.924  10.440 -0.1443 -0.1620 -0.4664
 6393TIP3    H140670   5.710   2.869  10.514  0.6071  1.9971  0.9191
 6393TIP3    H240671   5.703   3.013  10.468  1.2397  0.6511 -3.7165
 6394TIP3   OH240672   5.096   6.568   9.965  0.3024 -0.5350 -0.2147
 6394TIP3    H140673   5.106   6.590   9.872 -1.7675  0.0213 -0.3239
 6394TIP3    H240674   5.074   6.475   9.966 -0.5375 -0.3344 -0.3242
 6395TIP3   OH240675   6.915   6.375  12.478  0.0034  0.0367 -0.3402
 6395TIP3    H140676   6.820   6.374  12.482  0.0845 -1.6458  3.8261
 6395TIP3    H240677   6.941   6.284  12.488  2.0716  0.6543  0.2464
 6396TIP3   OH240678   0.032   6.099  15.319  0.1931  0.3827 -0.8041
 6396TIP3    H140679  -0.015   6.167  15.272 -1.3319 -0.0423  0.0725
 6396TIP3    H240680  -0.036   6.054  15.369  1.2640 -1.3951 -0.9175
 6397TIP3   OH240681   2.745   4.016  12.973  0.7554 -0.5452 -0.2050
 6397TIP3    H140682   2.685   4.044  12.904  1.7999  1.1320 -0.4574
 6397TIP3    H240683   2.832   4.021  12.934  1.2529 -0.8636  0.8240
 6398TIP3   OH240684   2.396   6.338  10.378  0.1524  0.5762  0.0845
 6398TIP3    H140685   2.386   6.362  10.285  1.4281  1.2893  0.1167
 6398TIP3    H240686   2.336   6.265  10.390  0.8694 -0.3370 -1.6319
 6399TIP3   OH240687   6.281   3.425  15.411  0.6705 -0.0389  0.1303
 6399TIP3    H140688   6.253   3.460  15.326  0.2595 -0.9859 -0.1328
 6399TIP3    H240689   6.356   3.479  15.436 -0.5188  1.6375  0.1749
 6400TIP3   OH240690   5.516   5.997   9.758  0.0910 -0.3287 -0.2898
 6400TIP3    H140691   5.462   5.952   9.692  2.8501 -2.8431 -0.9202
 6400TIP3    H240692   5.560   5.927   9.804 -0.0013  1.5358  2.7500
 6401TIP3   OH240693   2.568   4.373  12.951  0.3191  0.2894 -0.4740
 6401TIP3    H140694   2.489   4.360  12.899  0.1832 -0.6964 -0.0353
 6401TIP3    H240695   2.620   4.436  12.900 -0.6596  0.8089 -0.8492
 6402TIP3   OH240696   1.763   1.765  13.056 -0.2544 -0.5995  0.2214
 6402TIP3    H140697   1.689   1.766  12.996 -0.7942  0.3123  0.9059
 6402TIP3    H240698   1.748   1.687  13.111 -0.6178 -0.5075  0.2541
 6403TIP3   OH240699   4.171   4.173  14.560 -0.3880  0.1572 -0.5278
 6403TIP3    H140700   4.264   4.195  14.559 -0.1670 -0.7305 -0.3342
 6403TIP3    H240701   4.159   4.115  14.484 -0.6876 -0.0719 -0.3101
 6404TIP3   OH240702   1.026   4.255  11.490 -0.2532  0.6097  0.0222
 6404TIP3    H140703   1.087   4.212  11.430 -0.4320 -1.1369  1.0469
 6404TIP3    H240704   0.995   4.184  11.547  0.8250  2.3927  2.9477
 6405TIP3   OH240705   7.175   3.305  14.459  0.0152  0.4470  0.7008
 6405TIP3    H140706   7.148   3.392  14.430 -0.5796  0.7870  2.2290
 6405TIP3    H240707   7.220   3.267  14.384 -2.7879  0.7132 -1.1821
 6406TIP3   OH240708   1.642   7.106  11.680 -0.0438  0.1377 -0.1981
 6406TIP3    H140709   1.717   7.070  11.633  0.4018 -0.4662  0.9463
 6406TIP3    H240710   1.613   7.179  11.627 -0.0436 -1.0112 -1.8120
 6407TIP3   OH240711   6.416   3.414  11.832  0.1283 -0.2221 -0.5838
 6407TIP3    H140712   6.350   3.482  11.841 -0.3381 -0.3564 -2.6175
 6407TIP3    H240713   6.384   3.341  11.885  0.0399  0.7081  0.6463
 6408TIP3   OH240714   5.661   0.603  10.625  0.1473  0.4820  0.1895
 6408TIP3    H140715   5.573   0.633  10.599 -0.7353 -1.3677  0.9416
 6408TIP3    H240716   5.690   0.549  10.551  0.8049  1.3371 -0.1916
 6409TIP3   OH240717   0.930   4.686  13.331 -0.0143  0.2996  0.1714
 6409TIP3    H140718   0.871   4.636  13.274  0.3315  0.7811 -0.6224
 6409TIP3    H240719   1.013   4.689  13.283  0.3499  0.4951  0.8136
 6410TIP3   OH240720   5.278   3.409  11.440 -0.0514 -0.6173 -0.1157
 6410TIP3    H140721   5.318   3.364  11.365  0.3117 -1.2450  0.4534
 6410TIP3    H240722   5.223   3.477  11.400 -1.8203 -2.5413 -1.0464
 6411TIP3   OH240723   3.637   6.907  11.914 -0.4172 -0.2040  0.2044
 6411TIP3    H140724   3.686   6.931  11.993  1.9911 -0.2731 -1.2290
 6411TIP3    H240725   3.628   6.988  11.866  0.9188 -0.7121 -0.9427
 6412TIP3   OH240726   6.371   1.751  11.120  0.4523  1.0631  0.1537
 6412TIP3    H140727   6.443   1.697  11.152 -0.6928 -0.5064  0.0888
 6412TIP3    H240728   6.393   1.770  11.029  1.3365  1.5454  0.4599
 6413TIP3   OH240729   1.025   0.678  11.141  0.3211 -0.0508  0.0076
 6413TIP3    H140730   0.943   0.727  11.151  1.2075  1.3756  0.4760
 6413TIP3    H240731   1.090   0.744  11.119  1.0897 -1.3664 -1.8120
 6414TIP3   OH240732   4.808   5.831  14.732 -0.3544  0.1566  0.3241
 6414TIP3    H140733   4.724   5.871  14.754 -0.8203 -0.4389 -0.3941
 6414TIP3    H240734   4.813   5.753  14.786  0.1495  0.6690  1.0386
 6415TIP3   OH240735   6.633   6.513  11.206 -0.0464 -0.1744  0.6644
 6415TIP3    H140736   6.584   6.506  11.289  0.8393  1.3876  1.3462
 6415TIP3    H240737   6.722   6.485  11.228  0.5657  1.6760  0.6187
 6416TIP3   OH240738   6.565   4.367   0.062 -0.0109 -0.6733  0.1080
 6416TIP3    H140739   6.575   4.282   0.104 -1.6710 -0.8345  0.1946
 6416TIP3    H240740   6.540   4.426   0.133 -0.5991 -0.4763 -0.2670
 6417TIP3   OH240741   0.557   3.219  11.393  0.4198  0.4723  0.1218
 6417TIP3    H140742   0.605   3.137  11.403  0.4947  0.3888 -0.7959
 6417TIP3    H240743   0.596   3.279  11.456  0.6835 -0.0650  0.4647
 6418TIP3   OH240744   0.656   4.804  10.739  0.3047 -0.1763  0.2892
 6418TIP3    H140745   0.568   4.833  10.713  0.1039 -0.2852  0.8434
 6418TIP3    H240746   0.695   4.771  10.658 -0.7221 -1.5439  0.3380
 6419TIP3   OH240747   0.405   6.177  11.881  0.0552  0.6066 -0.6513
 6419TIP3    H140748   0.428   6.267  11.859  0.1340  1.0727  1.2950
 6419TIP3    H240749   0.456   6.157  11.959 -0.0478 -1.0962 -0.9915
 6420TIP3   OH240750   1.060   4.358  13.297  0.1720  0.0753 -1.2036
 6420TIP3    H140751   1.127   4.424  13.275  0.5284 -0.5082 -1.8916
 6420TIP3    H240752   1.052   4.305  13.218 -0.0630 -0.7580 -0.6267
 6421TIP3   OH240753   5.015   4.621  13.789 -0.1553 -0.2038  0.1216
 6421TIP3    H140754   4.949   4.687  13.766 -0.0512  0.1778  0.8827
 6421TIP3    H240755   4.999   4.603  13.882  0.6223 -0.3293  0.2338
 6422TIP3   OH240756   0.004   4.342  13.082  0.4062  0.2375 -0.1939
 6422TIP3    H140757  -0.056   4.311  13.150 -1.6391  1.9944 -1.1366
 6422TIP3    H240758  -0.045   4.332  13.000  1.9021  0.4634 -1.1366
 6423TIP3   OH240759   5.618   1.298  13.213  0.3351 -0.8672  0.2873
 6423TIP3    H140760   5.582   1.299  13.124  0.0486 -0.1008  0.4136
 6423TIP3    H240761   5.583   1.377  13.254  2.3483  0.0130  0.3410
 6424TIP3   OH240762   6.119   2.771  11.652  0.3178 -0.3429  0.2369
 6424TIP3    H140763   6.180   2.841  11.627 -1.0280  0.4926 -0.7991
 6424TIP3    H240764   6.136   2.757  11.745  1.4811  0.4816  0.1621
 6425TIP3   OH240765   4.655   2.593  15.231 -0.5953 -0.3606  0.2450
 6425TIP3    H140766   4.566   2.589  15.267 -1.0562 -0.1676 -0.8475
 6425TIP3    H240767   4.668   2.507  15.191 -0.0495 -0.6085  0.9514
 6426TIP3   OH240768   4.235   2.250  14.020 -0.0227 -0.0017  0.3482
 6426TIP3    H140769   4.142   2.262  14.039  0.1662  2.6284 -0.1392
 6426TIP3    H240770   4.238   2.224  13.928 -0.3573 -1.8079  0.8425
 6427TIP3   OH240771   0.591   1.188  13.759  0.1508 -0.2259 -0.6601
 6427TIP3    H140772   0.581   1.283  13.750  1.7692  0.1659  1.1725
 6427TIP3    H240773   0.551   1.168  13.844 -0.7732 -1.2884 -1.3466
 6428TIP3   OH240774   1.539   3.982  13.349  0.1130  0.5169 -0.1986
 6428TIP3    H140775   1.609   4.047  13.348  0.8431 -0.2334  0.4953
 6428TIP3    H240776   1.475   4.017  13.411  0.3433  0.7433 -0.0851
 6429TIP3   OH240777   4.394   6.771  13.768  0.2901  0.8621  0.1680
 6429TIP3    H140778   4.453   6.708  13.809  0.2427  0.5099 -0.2983
 6429TIP3    H240779   4.307   6.735  13.780  0.1189  1.6101  1.2604
 6430TIP3   OH240780   1.665   0.764  13.886  0.8996  0.3001 -0.2854
 6430TIP3    H140781   1.663   0.854  13.921 -2.2133  0.8718 -1.7544
 6430TIP3    H240782   1.711   0.771  13.803  3.5828 -0.1158  1.1012
 6431TIP3   OH240783   6.522   5.760  11.834 -0.0612 -0.1524 -0.6142
 6431TIP3    H140784   6.473   5.781  11.913 -0.3752  1.4794 -1.2301
 6431TIP3    H240785   6.548   5.669  11.846 -1.3076 -0.3503  0.7300
 6432TIP3   OH240786   5.391   4.761  14.606  0.6417 -0.5532 -0.4231
 6432TIP3    H140787   5.430   4.713  14.679 -0.6585  2.4052  2.3187
 6432TIP3    H240788   5.319   4.705  14.576  1.2413 -1.8391  0.5098
 6433TIP3   OH240789   5.688   1.216  14.894  0.0907  0.3457 -0.6894
 6433TIP3    H140790   5.754   1.244  14.831  0.3583  0.1477 -0.5034
 6433TIP3    H240791   5.644   1.142  14.853  0.1861  0.2908 -0.6920
 6434TIP3   OH240792   5.006   6.259  10.626  0.8406  0.5080  0.5099
 6434TIP3    H140793   5.058   6.304  10.693  2.4795  0.1845 -0.4872
 6434TIP3    H240794   5.041   6.170  10.625 -0.3097  0.0579  0.3880
 6435TIP3   OH240795   6.808   6.122  12.302 -0.2526 -0.3679  0.0838
 6435TIP3    H140796   6.856   6.067  12.364 -1.6495 -1.2045  0.4324
 6435TIP3    H240797   6.797   6.067  12.225  0.0727  0.1260 -0.3248
 6436TIP3   OH240798   1.501   6.116  13.879 -0.1168  0.7431  0.3585
 6436TIP3    H140799   1.429   6.086  13.936  0.3382 -0.6589  0.2106
 6436TIP3    H240800   1.548   6.180  13.933 -0.8142  0.8488  0.8627
 6437TIP3   OH240801   2.683   1.358  12.257 -0.0860 -0.5417  0.3994
 6437TIP3    H140802   2.699   1.285  12.198 -0.8690  0.0524 -0.5721
 6437TIP3    H240803   2.755   1.355  12.320 -0.1359 -2.1502  0.3787
 6438TIP3   OH240804   7.099   5.307  12.374  0.1770  0.1796  0.3723
 6438TIP3    H140805   7.178   5.271  12.333  0.3125  0.4627  0.3840
 6438TIP3    H240806   7.030   5.292  12.309  0.5552  1.3819 -0.3221
 6439TIP3   OH240807   4.449   5.079  14.039  0.2540  0.0023 -0.2552
 6439TIP3    H140808   4.476   5.002  13.989 -1.2991 -0.7130 -0.0008
 6439TIP3    H240809   4.453   5.050  14.131  1.0382  0.6607 -0.0745
 6440TIP3   OH240810   1.362   2.559  12.907  0.5516  0.4956 -0.0049
 6440TIP3    H140811   1.401   2.539  12.992 -1.4068 -1.0997  0.5647
 6440TIP3    H240812   1.353   2.474  12.864 -2.2969  0.7939 -0.0947
 6441TIP3   OH240813   0.358   4.359  13.571 -0.3415  0.4244 -0.4273
 6441TIP3    H140814   0.414   4.364  13.649  0.0627 -0.0720 -0.6783
 6441TIP3    H240815   0.418   4.333  13.501 -0.3508  2.6666 -1.2811
 6442TIP3   OH240816   4.774   0.042  13.283 -0.2032  0.1754  0.2669
 6442TIP3    H140817   4.745  -0.039  13.324  0.0739 -0.1685 -0.2088
 6442TIP3    H240818   4.843   0.076  13.341 -0.5260  0.2235  0.6180
 6443TIP3   OH240819   0.845   5.142  13.256  0.2766 -0.7018 -0.3463
 6443TIP3    H140820   0.939   5.128  13.243  0.2411 -2.4389  1.0087
 6443TIP3    H240821   0.806   5.127  13.170  1.0252 -2.1466 -0.4555
 6444TIP3   OH240822   1.110   2.345  15.085 -1.0076  0.0324  0.1506
 6444TIP3    H140823   1.041   2.404  15.115  0.5490  1.3912  1.1792
 6444TIP3    H240824   1.190   2.383  15.120  0.1273 -2.2656  0.1375
 6445TIP3   OH240825   0.478   4.476  12.845 -0.2335 -0.6675  0.5672
 6445TIP3    H140826   0.486   4.474  12.940  0.5885 -0.3720  0.5023
 6445TIP3    H240827   0.563   4.447  12.813  0.0404  0.7944 -0.0826
 6446TIP3   OH240828   4.678   5.791  11.458  0.0179 -0.1701 -0.2150
 6446TIP3    H140829   4.743   5.745  11.405 -1.3614 -2.3402 -0.0934
 6446TIP3    H240830   4.603   5.804  11.399 -0.6130 -0.4591  0.5109
 6447TIP3   OH240831   0.363   3.667  12.721 -0.0386  0.5559  0.0835
 6447TIP3    H140832   0.289   3.695  12.776  0.0949  0.3033  0.3944
 6447TIP3    H240833   0.382   3.578  12.750  0.8972  0.9029  0.5573
 6448TIP3   OH240834   5.934   6.258  12.799  0.4184 -0.2985 -0.0837
 6448TIP3    H140835   5.866   6.248  12.732 -0.0401 -1.8027  0.5995
 6448TIP3    H240836   5.994   6.185  12.784  1.5598  0.6549 -0.2742
 6449TIP3   OH240837   3.258   2.533  14.666  0.1371  0.4788 -0.1137
 6449TIP3    H140838   3.248   2.533  14.761  0.4793 -0.7825 -0.0706
 6449TIP3    H240839   3.347   2.565  14.651 -0.0422  1.0277 -0.0352
 6450TIP3   OH240840   0.798   0.789   0.638  0.5584 -0.7294  0.7783
 6450TIP3    H140841   0.882   0.774   0.595  0.2997 -2.5419  0.8548
 6450TIP3    H240842   0.808   0.874   0.681  1.7123 -0.0935 -0.6929
 6451TIP3   OH240843   0.139   0.963   0.656  0.1184 -0.2166  0.2033
 6451TIP3    H140844   0.046   0.965   0.675 -0.0641 -0.5751 -0.6289
 6451TIP3    H240845   0.173   0.888   0.705 -0.1301 -0.3995  0.0979
 6452TIP3   OH240846   6.096   7.169  15.365  0.2115  0.3812  0.2153
 6452TIP3    H140847   6.179   7.204  15.333 -0.3125 -1.7135 -3.6805
 6452TIP3    H240848   6.120   7.088  15.411  0.2612 -0.8959 -2.0090
 6453TIP3   OH240849   0.639   3.160  15.607  0.5105 -0.0971  0.1669
 6453TIP3    H140850   0.594   3.210  15.675 -1.0211 -0.1759 -0.7484
 6453TIP3    H240851   0.621   3.068  15.628 -0.3253 -0.1106 -0.5509
 6454TIP3   OH240852   6.963   4.845  11.733  0.2470  0.0789 -1.2111
 6454TIP3    H140853   6.918   4.885  11.659  0.2235  0.1505 -1.1583
 6454TIP3    H240854   6.947   4.905  11.806 -1.2850 -0.9018 -0.7009
 6455TIP3   OH240855   4.295   3.748  11.528 -0.3624 -0.2038  0.2896
 6455TIP3    H140856   4.327   3.747  11.438 -2.1364  1.8405 -0.4082
 6455TIP3    H240857   4.369   3.780  11.579  0.9384 -2.1956 -0.2977
 6456TIP3   OH240858   0.989   5.923  10.433  0.4646  0.3389  0.0754
 6456TIP3    H140859   0.969   5.962  10.518 -1.2819  1.1657 -0.6900
 6456TIP3    H240860   0.907   5.881  10.406  1.2810 -0.7249 -0.7650
 6457TIP3   OH240861   3.922   6.112  11.573  0.1801 -0.3440 -0.2653
 6457TIP3    H140862   3.840   6.143  11.535  1.2497  1.1870 -1.3847
 6457TIP3    H240863   3.916   6.017  11.569 -1.5441 -0.2473 -0.3131
 6458TIP3   OH240864   6.915   6.100  15.306 -0.5399  0.1207  0.0766
 6458TIP3    H140865   6.959   6.076  15.387 -1.7126 -0.3706  0.5880
 6458TIP3    H240866   6.858   6.173  15.330 -1.0145 -0.1294 -0.2613
 6459TIP3   OH240867   4.106   3.133  12.296 -0.0342 -0.0829 -0.0044
 6459TIP3    H140868   4.086   3.088  12.214  0.6531  0.3961 -0.4449
 6459TIP3    H240869   4.023   3.136  12.343 -0.5882  0.2231 -0.9872
 6460TIP3   OH240870   2.322   2.550  12.489 -0.5530  0.1610 -0.0773
 6460TIP3    H140871   2.403   2.499  12.482  0.1334  1.3989 -1.2437
 6460TIP3    H240872   2.255   2.494  12.450 -0.3181 -0.9557  1.0727
 6461TIP3   OH240873   1.340   4.818  14.735 -0.1440  0.2525  0.0465
 6461TIP3    H140874   1.384   4.863  14.664  1.2156  0.3511  0.9388
 6461TIP3    H240875   1.385   4.733  14.742  0.1092  0.4650  1.1404
 6462TIP3   OH240876   3.241   3.256  12.226 -0.0433 -0.2882 -0.0107
 6462TIP3    H140877   3.180   3.251  12.153  0.7968 -0.7782 -0.6892
 6462TIP3    H240878   3.244   3.167  12.261  2.0468 -0.8151 -1.4533
 6463TIP3   OH240879   1.577   1.057  11.235 -0.3267 -0.0249 -0.6808
 6463TIP3    H140880   1.502   1.084  11.288  0.6532  0.2128  0.5971
 6463TIP3    H240881   1.642   1.125  11.250  0.3454 -0.5118 -1.3672
 6464TIP3   OH240882   2.686   1.494  12.936  0.0111 -0.0376 -0.4135
 6464TIP3    H140883   2.642   1.537  13.009  0.7848  0.0767 -0.0137
 6464TIP3    H240884   2.723   1.565  12.884 -1.2188 -0.0773 -1.3576
 6465TIP3   OH240885   1.174   6.984  13.023  0.0855 -0.0804 -0.0374
 6465TIP3    H140886   1.105   6.918  13.024  0.2894 -0.2941  0.6874
 6465TIP3    H240887   1.173   7.020  13.112 -0.2112  1.0943 -0.5097
 6466TIP3   OH240888   6.198   4.597  13.769 -0.4074  0.5828  0.0982
 6466TIP3    H140889   6.174   4.536  13.699 -0.6360 -1.4894  1.9335
 6466TIP3    H240890   6.294   4.595  13.770 -0.4321 -0.7955  1.0212
 6467TIP3   OH240891   5.154   6.174  13.336 -0.5435 -0.0440 -0.3429
 6467TIP3    H140892   5.201   6.234  13.393 -0.5655  0.5736 -0.9720
 6467TIP3    H240893   5.113   6.111  13.395 -1.6558  1.3675  0.3908
 6468TIP3   OH240894   6.879   0.240   0.008 -0.4859 -0.3183  0.5302
 6468TIP3    H140895   6.897   0.149  -0.015  0.2818  0.1604 -0.8170
 6468TIP3    H240896   6.909   0.248   0.098 -1.5775 -1.6803  1.0373
 6469TIP3   OH240897   2.070   4.470  12.813 -0.0801 -0.7549 -0.4324
 6469TIP3    H140898   2.112   4.536  12.758 -1.1353 -0.6122 -1.0971
 6469TIP3    H240899   1.986   4.454  12.770 -0.4457 -1.4675  0.5322
 6470TIP3   OH240900   5.581   2.768  14.867 -0.8119 -0.9333 -0.2306
 6470TIP3    H140901   5.513   2.729  14.922 -0.0284 -1.6231  0.2583
 6470TIP3    H240902   5.642   2.696  14.850  0.4154 -0.0291  0.3112
 6471TIP3   OH240903   1.876   6.513  14.816  0.5902  0.1837 -0.6052
 6471TIP3    H140904   1.794   6.473  14.787  0.8630 -1.5954  0.9686
 6471TIP3    H240905   1.938   6.440  14.820  2.0457  1.3750 -0.9975
 6472TIP3   OH240906   0.736   2.883  12.477  0.0693  0.2541 -0.4413
 6472TIP3    H140907   0.770   2.807  12.525  0.0599  1.3095  1.2720
 6472TIP3    H240908   0.654   2.905  12.521  0.3755  1.6284 -0.5309
 6473TIP3   OH240909   6.019   7.011  12.705 -0.1303 -0.4261  0.4938
 6473TIP3    H140910   5.942   7.068  12.709  0.6536  0.7231 -0.8765
 6473TIP3    H240911   5.998   6.948  12.636  1.2440  1.4923 -1.7016
 6474TIP3   OH240912   5.366   5.933  13.804 -0.0858  0.2168 -0.1172
 6474TIP3    H140913   5.331   5.877  13.735  0.8078 -1.2570  0.6171
 6474TIP3    H240914   5.341   5.890  13.886  1.8394  0.1064  0.4343
 6475TIP3   OH240915   2.723   3.241  10.603 -0.4059  0.1628 -0.1436
 6475TIP3    H140916   2.786   3.279  10.542  1.2099  0.3969  1.6654
 6475TIP3    H240917   2.712   3.151  10.573 -0.6171  0.6468 -1.5591
 6476TIP3   OH240918   5.492   6.492  11.295  0.3925  0.3294 -0.0669
 6476TIP3    H140919   5.585   6.485  11.272  0.7583 -0.0630  1.4648
 6476TIP3    H240920   5.464   6.575  11.255  0.4664 -1.2224 -3.5687
 6477TIP3   OH240921   3.391   7.006   3.328 -0.3050  1.5783 -0.8938
 6477TIP3    H140922   3.436   7.081   3.367  0.2796 -0.2417  2.0732
 6477TIP3    H240923   3.336   6.971   3.398 -0.3534 -0.9488 -2.1255
 6478TIP3   OH240924   0.315   6.717  12.708  0.0548 -0.0377 -0.2047
 6478TIP3    H140925   0.253   6.728  12.780 -0.6968 -1.0486 -0.6833
 6478TIP3    H240926   0.329   6.622  12.702  1.2375  0.1364 -0.4531
 6479TIP3   OH240927   1.778   0.299  14.723 -0.2352 -0.1384 -0.3638
 6479TIP3    H140928   1.735   0.366  14.670 -1.3080 -0.0845  0.5538
 6479TIP3    H240929   1.743   0.312  14.812  0.8790 -0.7770  0.1821
 6480TIP3   OH240930   6.913   6.294   0.020  0.3252  0.5856 -0.3030
 6480TIP3    H140931   6.891   6.294  -0.073  0.2478  0.5074 -0.2857
 6480TIP3    H240932   6.839   6.250   0.062 -0.3201  1.9018 -0.0385
 6481TIP3   OH240933   2.525   5.094  14.429  0.4251 -0.7922  0.2793
 6481TIP3    H140934   2.591   5.046  14.380 -0.6422  0.2010 -2.2380
 6481TIP3    H240935   2.520   5.179  14.385 -2.6538 -0.9290  0.2759
 6482TIP3   OH240936   1.158   5.555   3.420 -0.1486  0.0429 -0.1726
 6482TIP3    H140937   1.227   5.573   3.484  1.0175 -1.3120 -1.0201
 6482TIP3    H240938   1.158   5.460   3.410 -1.3091  0.1215 -1.1039
 6483TIP3   OH240939   2.547   1.203  11.292  0.0815  0.0727  0.3765
 6483TIP3    H140940   2.636   1.238  11.296 -0.0407  0.5101 -0.5182
 6483TIP3    H240941   2.497   1.271  11.246 -1.2987  1.0231  3.1525
 6484TIP3   OH240942   4.792   4.526   2.498  0.1933  0.1212 -0.0890
 6484TIP3    H140943   4.768   4.504   2.588  3.0652 -0.8650  0.4787
 6484TIP3    H240944   4.724   4.588   2.470 -0.4356  0.8705  2.9278
 6485TIP3   OH240945   1.154   6.494  15.149 -0.6344 -0.0389 -0.3543
 6485TIP3    H140946   1.135   6.546  15.071 -1.2170 -2.4798 -1.9249
 6485TIP3    H240947   1.248   6.504  15.162 -0.8516  1.9354 -0.2000
 6486TIP3   OH240948   6.256   0.627  13.850  0.4985 -0.3229  0.1308
 6486TIP3    H140949   6.295   0.543  13.875  1.5350  0.9875  3.1848
 6486TIP3    H240950   6.327   0.690  13.863 -1.5714  1.6283  2.2631
 6487TIP3   OH240951   2.651   1.202  12.825  0.7574  0.7433 -0.4736
 6487TIP3    H140952   2.604   1.193  12.742  0.4737  0.9409 -0.3337
 6487TIP3    H240953   2.687   1.291  12.822 -1.1209  1.5632  0.5881
 6488TIP3   OH240954   2.956   2.715  15.134  0.5811  0.2480 -0.3173
 6488TIP3    H140955   2.860   2.708  15.133  0.5248  0.7064  1.1996
 6488TIP3    H240956   2.984   2.656  15.064 -0.7990 -0.0897 -0.6186
 6489TIP3   OH240957   1.148   2.886   1.039  0.1850  0.3075 -0.0663
 6489TIP3    H140958   1.102   2.848   1.114 -1.3069  0.2790 -0.9599
 6489TIP3    H240959   1.212   2.819   1.014  1.9564  1.0714  2.2708
 6490TIP3   OH240960   0.142   0.553   1.504  0.1675  0.2799 -1.1898
 6490TIP3    H140961   0.060   0.598   1.485  0.0183 -0.5088 -2.4394
 6490TIP3    H240962   0.135   0.528   1.596 -1.4818 -0.7734 -1.5875
 6491TIP3   OH240963   7.079   6.561  11.669 -0.1974  0.5801 -0.0384
 6491TIP3    H140964   7.081   6.542  11.763  0.0301  2.3610  0.3360
 6491TIP3    H240965   7.147   6.505  11.632  0.2968  0.4883  0.9908
 6492TIP3   OH240966   5.253   2.254  11.998  0.0873 -0.4184 -0.2333
 6492TIP3    H140967   5.188   2.324  11.989 -1.3316 -1.8538 -1.5730
 6492TIP3    H240968   5.214   2.194  12.063  0.6119 -0.7039 -0.1828
 6493TIP3   OH240969   1.777   2.816   0.439 -0.0809 -0.7648 -0.3332
 6493TIP3    H140970   1.867   2.782   0.441  0.1952 -0.0230  0.1910
 6493TIP3    H240971   1.729   2.757   0.497  0.1868 -0.8463 -0.1883
 6494TIP3   OH240972   4.938   1.120  11.463 -0.1191 -0.5467 -0.0943
 6494TIP3    H140973   5.026   1.086  11.450  0.1934  0.4516 -0.6713
 6494TIP3    H240974   4.936   1.202  11.412 -1.2756 -0.4078  0.1523
 6495TIP3   OH240975   1.734   5.589  13.536 -0.0588  0.5796  0.0201
 6495TIP3    H140976   1.791   5.512  13.545 -0.8634  0.2113  2.3734
 6495TIP3    H240977   1.777   5.656  13.589 -1.1245  0.6993  0.7407
 6496TIP3   OH240978   5.169   5.140   0.796  0.1967 -0.5114  0.3069
 6496TIP3    H140979   5.111   5.067   0.774 -0.0715 -0.3042  0.3250
 6496TIP3    H240980   5.187   5.129   0.889  1.4911 -1.5014 -0.0512
 6497TIP3   OH240981   6.774   1.398   1.196  0.0238  0.1885 -0.3582
 6497TIP3    H140982   6.843   1.377   1.133 -0.9458  0.6170 -1.5809
 6497TIP3    H240983   6.747   1.313   1.231  1.4726  0.0484  0.4920
 6498TIP3   OH240984   2.200   2.741   1.484 -0.1647  0.3611 -0.3102
 6498TIP3    H140985   2.135   2.703   1.544  0.4738  1.0205  0.8086
 6498TIP3    H240986   2.282   2.742   1.534  0.5698  0.1431 -1.4847
 6499TIP3   OH240987   3.049   6.881  14.359  0.3535  0.0737 -0.3679
 6499TIP3    H140988   3.009   6.957  14.402 -1.1131 -1.5540  1.2267
 6499TIP3    H240989   3.124   6.918  14.312  0.5812  2.3000  1.6105
 6500TIP3   OH240990   4.811   0.631  14.167 -0.1372 -0.3128  0.3325
 6500TIP3    H140991   4.826   0.696  14.235 -1.6734 -1.5548  1.8869
 6500TIP3    H240992   4.728   0.656  14.127  0.4204  0.0123 -0.6465
 6501TIP3   OH240993   5.331   4.814  13.967 -0.4470 -0.0541 -0.0212
 6501TIP3    H140994   5.386   4.816  14.045  0.7764 -0.4544 -0.8483
 6501TIP3    H240995   5.342   4.725  13.933 -0.3807  0.3506 -1.0622
 6502TIP3   OH240996   6.155   6.561   0.944  0.6909  0.5755 -0.5721
 6502TIP3    H140997   6.132   6.652   0.962  1.9751  0.9799 -0.9072
 6502TIP3    H240998   6.191   6.528   1.027 -0.2428  0.2188 -0.3060
 6503TIP3   OH240999   0.264   6.489  11.825  0.0869  0.2057  0.3685
 6503TIP3    H141000   0.250   6.574  11.783  1.2534  0.1857 -0.0664
 6503TIP3    H241001   0.246   6.506  11.918 -1.8011  0.4112 -0.0082
 6504TIP3   OH241002   4.241   1.870   2.522  0.3746 -0.0723  0.3935
 6504TIP3    H141003   4.246   1.786   2.478  0.9757 -0.3240  0.9264
 6504TIP3    H241004   4.324   1.913   2.501 -0.5407  1.0164 -1.1082
 6505TIP3   OH241005   3.003   3.301  11.991 -0.4152 -0.0528  0.1155
 6505TIP3    H141006   3.001   3.390  12.025  2.1238  0.0434  0.1333
 6505TIP3    H241007   2.947   3.303  11.913 -1.6793  1.1221  1.0385
 6506TIP3   OH241008   1.847   4.250  13.727 -0.3947  0.0290  0.0494
 6506TIP3    H141009   1.821   4.330  13.774 -2.5648 -0.1942 -0.6956
 6506TIP3    H241010   1.936   4.232  13.758 -0.9460  1.1122  2.4071
 6507TIP3   OH241011   6.337   5.944   3.048  0.1104 -0.2413 -0.0630
 6507TIP3    H141012   6.354   6.034   3.076 -1.0743  0.2879 -1.0014
 6507TIP3    H241013   6.423   5.902   3.051  0.6612  0.8991  0.4706
 6508TIP3   OH241014   1.277   2.232  13.631  0.0696 -0.1391 -0.1761
 6508TIP3    H141015   1.249   2.243  13.722 -0.2964  1.2055 -0.4373
 6508TIP3    H241016   1.370   2.252  13.632 -0.0636  0.5082 -0.1949
 6509TIP3   OH241017   1.391   2.146   1.982 -0.0339  0.1219  0.0515
 6509TIP3    H141018   1.382   2.239   1.964 -0.7076 -0.3510 -2.3391
 6509TIP3    H241019   1.481   2.135   2.011  0.7909  1.2021 -1.9693
 6510TIP3   OH241020   6.973   2.290  12.751 -0.3543  0.3071 -0.6228
 6510TIP3    H141021   6.934   2.203  12.760  0.2644  0.1216  0.3497
 6510TIP3    H241022   7.063   2.274  12.726  0.1076  0.6166  0.7590
 6511TIP3   OH241023   2.591   6.180   2.825  0.1942  0.1858 -0.8049
 6511TIP3    H141024   2.659   6.237   2.789  0.8869 -0.1602 -0.0693
 6511TIP3    H241025   2.631   6.142   2.904 -0.6096 -0.5507 -0.7462
 6512TIP3   OH241026   2.088   0.545  13.004 -0.0462  0.2545  0.3947
 6512TIP3    H141027   1.993   0.559  13.004 -0.1569 -0.4361 -0.0674
 6512TIP3    H241028   2.122   0.602  12.935 -0.2212 -0.0440  0.0565
 6513TIP3   OH241029   6.287   7.171  11.432  0.0529 -0.1105  0.2928
 6513TIP3    H141030   6.223   7.153  11.363  1.5611 -1.2139 -0.8522
 6513TIP3    H241031   6.322   7.258  11.409  0.7504 -0.5932 -0.5162
 6514TIP3   OH241032   6.693   0.573  10.905 -0.5477  0.3595  0.3626
 6514TIP3    H141033   6.719   0.637  10.971 -0.7807  1.4378 -0.5864
 6514TIP3    H241034   6.706   0.488  10.947  0.2517  1.0181  1.4440
 6515TIP3   OH241035   0.213   0.338  14.009  0.3472  0.1600 -0.3013
 6515TIP3    H141036   0.215   0.356  13.915  0.1984  0.9791 -0.1556
 6515TIP3    H241037   0.127   0.299  14.024  0.9693 -1.4054 -0.7491
 6516TIP3   OH241038   6.079   0.372  15.408 -0.2074  0.0043 -0.3541
 6516TIP3    H141039   6.005   0.425  15.438  0.4306 -0.3939  2.0550
 6516TIP3    H241040   6.140   0.436  15.370 -0.3684  0.7372  0.5980
 6517TIP3   OH241041   2.743   5.535  14.616  0.0418  0.5737  0.6216
 6517TIP3    H141042   2.656   5.530  14.655 -0.6478  0.3478 -0.9171
 6517TIP3    H241043   2.785   5.453  14.640 -0.1322  0.7199  1.4444
 6518TIP3   OH241044   1.020   3.405   0.745 -0.4550 -0.0738  0.5438
 6518TIP3    H141045   0.948   3.345   0.722 -0.3482 -0.5341  1.4010
 6518TIP3    H241046   1.098   3.349   0.747 -0.3436  0.1010  1.2846
 6519TIP3   OH241047   4.038   5.393   2.666 -0.1383 -0.4390  0.4490
 6519TIP3    H141048   4.107   5.355   2.720  0.1863 -1.0027 -0.3560
 6519TIP3    H241049   4.079   5.469   2.624 -0.5139  0.2608  1.3113
 6520TIP3   OH241050   0.121   5.551   1.142 -0.6510  0.4358 -0.2220
 6520TIP3    H141051   0.179   5.475   1.139 -0.9259  0.1633  1.1290
 6520TIP3    H241052   0.035   5.515   1.165 -0.7221  1.1824  0.7320
 6521TIP3   OH241053   7.034   1.978   1.233  0.0103 -0.0463 -0.0666
 6521TIP3    H141054   7.107   1.922   1.262 -0.8179 -1.4553 -0.6825
 6521TIP3    H241055   7.048   2.060   1.280  2.1395 -0.2031 -0.3548
 6522TIP3   OH241056   4.950   3.240  11.468 -0.2669 -0.1522 -0.2418
 6522TIP3    H141057   4.959   3.321  11.417  1.5403 -0.2777 -0.1309
 6522TIP3    H241058   4.931   3.269  11.557  0.4754  0.1572 -0.1843
 6523TIP3   OH241059   2.614   0.939  12.926 -0.0300 -0.0075  0.2344
 6523TIP3    H141060   2.656   0.932  13.012  0.7029 -2.3511 -0.2639
 6523TIP3    H241061   2.640   1.025  12.893  2.2290 -0.3256  1.0915
 6524TIP3   OH241062   5.811   0.398  14.327 -0.2879  0.4464 -0.6370
 6524TIP3    H141063   5.847   0.422  14.413  2.7216  1.0126 -1.9951
 6524TIP3    H241064   5.760   0.474  14.301  0.4880  1.1242 -0.2238
 6525TIP3   OH241065   1.009   2.022   1.596 -0.1238 -0.4064  0.2615
 6525TIP3    H141066   1.101   2.048   1.595  0.0638 -1.0418  0.8123
 6525TIP3    H241067   0.965   2.088   1.542  0.8988 -1.0468 -1.4062
 6526TIP3   OH241068   1.904   4.131   3.697 -0.7353 -0.1569  0.0990
 6526TIP3    H141069   1.976   4.079   3.734 -0.0943  0.6768  0.0480
 6526TIP3    H241070   1.916   4.218   3.736 -1.8876 -0.0872  0.3042
 6527TIP3   OH241071   6.483   4.114   0.481 -0.0742 -0.1115  0.1854
 6527TIP3    H141072   6.391   4.102   0.457 -0.2302  1.9740 -0.3827
 6527TIP3    H241073   6.484   4.196   0.530  1.5045 -0.0635  0.0800
 6528TIP3   OH241074   6.873   1.139   1.670 -0.1843  0.0100  0.5998
 6528TIP3    H141075   6.934   1.213   1.665 -1.9462  1.3042 -2.7666
 6528TIP3    H241076   6.922   1.066   1.631  0.6166 -0.0162  1.6011
 6529TIP3   OH241077   4.314   4.289  12.067 -0.1528 -0.4157 -0.1977
 6529TIP3    H141078   4.384   4.315  12.008  2.0194  0.1043  2.4856
 6529TIP3    H241079   4.328   4.196  12.083  0.0111 -0.2882  0.4297
 6530TIP3   OH241080   2.274   6.140   0.303 -0.6126  0.3471 -0.1964
 6530TIP3    H141081   2.359   6.132   0.260 -1.3470  0.6591 -1.7296
 6530TIP3    H241082   2.211   6.124   0.233 -1.8278  0.9247  0.7699
 6531TIP3   OH241083   3.015   3.850  15.038  0.3830 -0.0377 -0.1049
 6531TIP3    H141084   3.022   3.763  15.075 -0.8341  0.2116  0.7614
 6531TIP3    H241085   2.922   3.859  15.015  0.8554  0.3034 -2.0164
 6532TIP3   OH241086   2.201   1.081  15.087 -0.2430  0.2424  0.2291
 6532TIP3    H141087   2.201   1.105  14.995 -1.7739 -1.6274 -0.2815
 6532TIP3    H241088   2.122   1.122  15.123 -1.6198 -1.9884 -0.1396
 6533TIP3   OH241089   0.913   0.123   3.929  0.1760 -0.2518 -0.6985
 6533TIP3    H141090   0.941   0.167   4.009  2.5456 -1.2616 -0.9194
 6533TIP3    H241091   0.941   0.180   3.859 -0.2874 -0.2303 -0.8678
 6534TIP3   OH241092   3.360   6.419   2.694  0.2782  0.0122  0.3919
 6534TIP3    H141093   3.324   6.339   2.731 -0.4298  0.0003 -0.3122
 6534TIP3    H241094   3.286   6.461   2.650  0.8770  0.5281 -0.1431
 6535TIP3   OH241095   5.318   0.873  12.642  0.8525 -0.4541  0.2867
 6535TIP3    H141096   5.360   0.959  12.638  0.0831  0.0810  3.0201
 6535TIP3    H241097   5.239   0.882  12.588  1.8157 -0.0987 -1.0974
 6536TIP3   OH241098   0.779   3.936  12.295  0.1849  0.6127  0.0149
 6536TIP3    H141099   0.770   3.993  12.371  0.0231  0.2992  0.2329
 6536TIP3    H241100   0.864   3.893  12.307 -1.4570 -2.2593  1.9731
 6537TIP3   OH241101   5.329   5.446  15.526  0.3885 -0.1084 -0.1922
 6537TIP3    H141102   5.297   5.356  15.521 -1.8199  0.5860  0.8939
 6537TIP3    H241103   5.392   5.445  15.598 -0.4129 -0.5713  0.5137
 6538TIP3   OH241104   0.764   3.853  11.737  0.4969  0.0396 -0.5798
 6538TIP3    H141105   0.728   3.851  11.826 -0.0650  1.7825 -0.7538
 6538TIP3    H241106   0.690   3.828  11.681  0.4944  0.2329 -0.6626
 6539TIP3   OH241107   6.778   5.183  12.589  0.2219  0.1786  0.1056
 6539TIP3    H141108   6.781   5.275  12.563 -1.0604  0.5513  1.2729
 6539TIP3    H241109   6.815   5.181  12.677  0.7486 -0.5087 -0.1245
 6540TIP3   OH241110   0.798   6.745  12.722  0.2711 -0.0755 -0.1461
 6540TIP3    H141111   0.865   6.804  12.757 -0.0672  1.0158 -1.3015
 6540TIP3    H241112   0.811   6.748  12.627  0.0089 -1.5806 -0.2438
 6541TIP3   OH241113   0.864   6.866   0.582 -0.1625 -0.1121  0.0776
 6541TIP3    H141114   0.845   6.784   0.536 -1.5429 -0.1369  0.6614
 6541TIP3    H241115   0.887   6.928   0.513  0.9577 -1.0044 -0.3625
 6542TIP3   OH241116   0.007   6.214   0.066  0.4492 -0.4340 -0.2359
 6542TIP3    H141117  -0.047   6.291   0.051  0.6761 -0.2454 -0.0895
 6542TIP3    H241118   0.082   6.226   0.008  0.5910 -0.4398 -0.0532
 6543TIP3   OH241119   2.439   0.119  10.265  0.4222 -0.0633  0.5327
 6543TIP3    H141120   2.470   0.064  10.193 -0.0179 -0.7096  0.8380
 6543TIP3    H241121   2.369   0.069  10.306  1.7091 -0.3692  2.3843
 6544TIP3   OH241122   0.021   5.900  15.109  0.0771  0.2174 -0.0189
 6544TIP3    H141123   0.065   5.962  15.167 -1.1310  1.9410 -0.8972
 6544TIP3    H241124   0.011   5.821  15.162  0.7184  1.1036  1.4761
 6545TIP3   OH241125   3.890   1.073   0.545  0.3119 -0.4986 -0.4653
 6545TIP3    H141126   3.871   1.045   0.635 -2.6073 -0.5898 -1.0454
 6545TIP3    H241127   3.890   1.168   0.549 -0.4779 -0.4930 -0.4717
 6546TIP3   OH241128   6.608   2.004  14.624 -0.3673  0.4587  0.2693
 6546TIP3    H141129   6.543   1.979  14.689  0.2849 -0.9133  0.4146
 6546TIP3    H241130   6.561   2.001  14.540  0.0435 -2.7614  0.1016
 6547TIP3   OH241131   1.452   6.665   1.904 -0.6472 -0.2126  0.0136
 6547TIP3    H141132   1.375   6.630   1.859 -0.4284 -1.7725  0.7941
 6547TIP3    H241133   1.520   6.665   1.837 -1.1356  0.4719 -0.4861
 6548TIP3   OH241134   5.565   0.751   0.925 -0.1386 -0.2613  0.2117
 6548TIP3    H141135   5.483   0.717   0.961 -0.9966 -0.0897 -1.5042
 6548TIP3    H241136   5.546   0.842   0.903  0.5636 -0.1621 -0.0102
 6549TIP3   OH241137   2.976   3.671  12.570  0.4020 -0.4730  0.4474
 6549TIP3    H141138   3.025   3.662  12.489 -1.2438  2.1788 -0.9106
 6549TIP3    H241139   2.885   3.659  12.544 -0.1381  0.3859  1.8892
 6550TIP3   OH241140   0.491   4.757  15.259  0.6932 -0.0927  0.0477
 6550TIP3    H141141   0.555   4.815  15.302  2.7624 -1.3546 -1.2396
 6550TIP3    H241142   0.463   4.805  15.181  0.5186  0.2063  0.2921
 6551TIP3   OH241143   4.492   1.400  10.688  0.5506 -0.1091  0.1909
 6551TIP3    H141144   4.530   1.363  10.768  0.1936  0.5768  0.6838
 6551TIP3    H241145   4.413   1.348  10.672  0.2238  0.2244  0.7042
 6552TIP3   OH241146   5.842   2.125  12.330 -0.0348  0.6937 -0.9867
 6552TIP3    H141147   5.885   2.085  12.254 -0.9278  1.1988 -1.7678
 6552TIP3    H241148   5.834   2.054  12.394  0.6397  0.2472 -1.3904
 6553TIP3   OH241149   0.758   4.973   9.765 -0.1329  0.2493 -0.1146
 6553TIP3    H141150   0.739   5.064   9.789  1.6188  0.6526 -0.1624
 6553TIP3    H241151   0.691   4.921   9.810 -2.9683  1.7660 -2.4416
 6554TIP3   OH241152   4.871   0.552   1.327  0.0726  0.8436  0.2720
 6554TIP3    H141153   4.796   0.529   1.382 -0.4732  1.2438 -0.3006
 6554TIP3    H241154   4.840   0.625   1.273  0.0234 -0.6866 -1.8371
 6555TIP3   OH241155   7.018   7.174  14.494 -0.1916 -0.0728 -0.4589
 6555TIP3    H141156   6.990   7.252  14.542  0.7166  0.8337 -1.3956
 6555TIP3    H241157   6.936   7.128  14.474 -0.8240  1.1802 -0.8159
 6556TIP3   OH241158   3.292   1.330  10.283 -0.7966  0.3907 -0.2891
 6556TIP3    H141159   3.315   1.264  10.218 -1.4089  0.2165 -0.3305
 6556TIP3    H241160   3.222   1.381  10.243 -1.4910 -0.0059  0.4181
 6557TIP3   OH241161   7.164   3.760  13.299 -0.1620  0.5351 -0.8825
 6557TIP3    H141162   7.106   3.727  13.230  1.8941 -0.1849 -2.3151
 6557TIP3    H241163   7.141   3.853  13.306 -1.4383  0.2752 -1.4925
 6558TIP3   OH241164   3.872   6.600  14.920  0.1708  0.2918 -0.4605
 6558TIP3    H141165   3.811   6.558  14.980  1.5998 -2.5358 -0.8632
 6558TIP3    H241166   3.821   6.614  14.840 -0.6832  0.4625  0.1120
 6559TIP3   OH241167   5.563   3.293  15.189  0.4783 -0.7539 -0.2247
 6559TIP3    H141168   5.568   3.294  15.285  1.6816  0.5639 -0.2952
 6559TIP3    H241169   5.477   3.331  15.169  1.5354  1.9743  0.2518
 6560TIP3   OH241170   2.027   5.561  13.035  0.5697 -0.0635 -0.1686
 6560TIP3    H141171   1.994   5.537  13.121  1.6631 -2.1687 -0.3144
 6560TIP3    H241172   1.959   5.533  12.974  0.1296  0.7427 -0.0500
 6561TIP3   OH241173   5.179   0.163  14.196  0.4889  0.2208 -0.0580
 6561TIP3    H141174   5.120   0.212  14.254 -1.6970 -0.1403 -1.8893
 6561TIP3    H241175   5.264   0.165  14.241 -0.2923  2.9452  1.4401
 6562TIP3   OH241176   2.496   5.708   5.417 -0.0143 -0.3142 -0.4309
 6562TIP3    H141177   2.429   5.642   5.435 -0.3035 -0.5161 -2.2323
 6562TIP3    H241178   2.449   5.792   5.419 -0.3587 -0.4724 -1.8921
 6563TIP3   OH241179   5.359   1.543   0.125 -0.1383  0.1256 -0.2174
 6563TIP3    H141180   5.275   1.515   0.087 -0.7831  0.4748  0.9216
 6563TIP3    H241181   5.335   1.582   0.209  1.2461 -0.4126  0.4392
 6564TIP3   OH241182   0.808   0.298   2.877  0.1687  0.1402  0.3952
 6564TIP3    H141183   0.840   0.356   2.946 -0.3261 -0.1367  0.8695
 6564TIP3    H241184   0.721   0.331   2.856  1.1950  1.5952 -1.7088
 6565TIP3   OH241185   3.214   3.391  14.628 -0.1852 -0.3623  0.3875
 6565TIP3    H141186   3.122   3.371  14.648 -1.7483  1.2774 -4.3797
 6565TIP3    H241187   3.226   3.480  14.660 -0.2118 -0.6545  1.2069
 6566TIP3   OH241188   6.208   2.663   1.506  0.2881 -0.0795  0.1228
 6566TIP3    H141189   6.130   2.621   1.542  0.5447 -0.1124  0.6440
 6566TIP3    H241190   6.189   2.756   1.508  0.1459 -0.1052 -0.0252
 6567TIP3   OH241191   6.813   5.367   0.318 -0.4484  0.6465 -0.0533
 6567TIP3    H141192   6.876   5.354   0.246  0.3419  1.6487  0.4409
 6567TIP3    H241193   6.823   5.288   0.372 -1.3529 -0.3174 -1.2494
 6568TIP3   OH241194   2.272   1.213  13.544 -0.8804 -0.4977  0.2907
 6568TIP3    H141195   2.366   1.197  13.551 -0.6416 -0.2205 -1.9108
 6568TIP3    H241196   2.260   1.304  13.572 -0.2088  0.0813 -1.2426
 6569TIP3   OH241197   6.117   6.600  10.007 -0.0085 -0.7079 -0.1282
 6569TIP3    H141198   6.125   6.505   9.996 -2.4131 -1.0107  0.4460
 6569TIP3    H241199   6.157   6.617  10.092  2.8894 -0.7957 -1.4255
 6570TIP3   OH241200   3.021   4.307   0.589  0.2601 -0.1709 -0.3805
 6570TIP3    H141201   3.110   4.288   0.619 -0.3727 -0.6867  1.2314
 6570TIP3    H241202   2.965   4.283   0.663 -1.0250  2.6937 -0.3377
 6571TIP3   OH241203   1.195   1.702  12.098  0.2029  0.4868 -0.0190
 6571TIP3    H141204   1.224   1.623  12.052  0.4646  0.3290  0.4103
 6571TIP3    H241205   1.243   1.773  12.055 -0.3594  0.4604 -0.6883
 6572TIP3   OH241206   0.021   4.319  15.423  0.1399 -0.0869  0.2525
 6572TIP3    H141207  -0.016   4.405  15.438  0.3216  0.4960 -2.3593
 6572TIP3    H241208   0.028   4.280  15.510 -1.9846  1.6699  1.2565
 6573TIP3   OH241209   3.016   2.587  14.533  0.4961  0.0147  0.1792
 6573TIP3    H141210   3.092   2.564  14.586  0.8086  1.1367  0.2282
 6573TIP3    H241211   3.010   2.517  14.467 -0.8267 -2.2708  2.5969
 6574TIP3   OH241212   0.331   4.996  15.369 -0.1360  0.0602 -0.3465
 6574TIP3    H141213   0.367   5.081  15.345 -0.1887  0.4114  0.8068
 6574TIP3    H241214   0.402   4.934  15.350  0.6445  0.6104  0.7604
 6575TIP3   OH241215   2.463   0.421   1.255  0.2611  0.1212 -0.3536
 6575TIP3    H141216   2.419   0.492   1.301  0.3642 -1.0301  1.5789
 6575TIP3    H241217   2.424   0.341   1.291  0.9427 -0.8257 -1.6762
 6576TIP3   OH241218   4.352   4.444   2.056 -0.0788  0.4932 -0.0204
 6576TIP3    H141219   4.337   4.527   2.011 -2.0840  1.3821  2.2118
 6576TIP3    H241220   4.300   4.381   2.007  0.1268  0.8515 -0.7166
 6577TIP3   OH241221   3.657   1.533  10.873 -0.1295 -0.2204  0.1944
 6577TIP3    H141222   3.743   1.542  10.832  0.4532 -1.0493  1.1896
 6577TIP3    H241223   3.671   1.563  10.963 -0.4766 -1.8801  0.8169
 6578TIP3   OH241224   0.571   0.003  10.221 -0.2782 -0.2409 -0.6239
 6578TIP3    H141225   0.561  -0.024  10.130 -0.1154  0.8056 -0.9513
 6578TIP3    H241226   0.555   0.097  10.220  1.1330  0.0097  0.2147
 6579TIP3   OH241227   1.730   2.730  11.603 -0.5276 -0.1034  0.5476
 6579TIP3    H141228   1.662   2.682  11.555  0.4315 -1.6826  0.7205
 6579TIP3    H241229   1.692   2.745  11.689 -0.9526 -0.2833  0.3923
 6580TIP3   OH241230   2.915   1.470  14.640 -0.6522 -0.0361  0.2785
 6580TIP3    H141231   2.984   1.510  14.693 -0.6781 -0.1685  0.4107
 6580TIP3    H241232   2.837   1.522  14.659 -0.6991 -0.1872  0.4952
 6581TIP3   OH241233   3.241   5.800   2.746 -0.5375 -0.1150  0.8599
 6581TIP3    H141234   3.148   5.815   2.764 -0.4904 -1.0742  1.8870
 6581TIP3    H241235   3.245   5.711   2.711  0.2096 -0.7214  2.4533
 6582TIP3   OH241236   0.475   6.734   2.161  0.2766  0.8808  0.1698
 6582TIP3    H141237   0.501   6.675   2.089 -0.5827  2.6719 -1.6584
 6582TIP3    H241238   0.417   6.681   2.215  1.4801 -0.7237 -0.0562
 6583TIP3   OH241239   0.041   1.552  12.328  1.0088  0.7600  0.5523
 6583TIP3    H141240  -0.040   1.520  12.368  0.5886  1.3558  0.1851
 6583TIP3    H241241   0.090   1.472  12.306  1.4366  0.4331  2.6072
 6584TIP3   OH241242   0.149   6.521  13.901 -0.2891 -0.0750 -0.3752
 6584TIP3    H141243   0.099   6.597  13.931 -1.1674 -1.3922  1.6391
 6584TIP3    H241244   0.239   6.552  13.894 -0.7195  1.2741 -0.0530
 6585TIP3   OH241245   4.956   6.361   0.051  0.2381  0.3283  0.2520
 6585TIP3    H141246   4.901   6.401  -0.017 -0.2504  0.0481  0.4786
 6585TIP3    H241247   5.045   6.388   0.028  0.0667  0.3511 -0.4243
 6586TIP3   OH241248   3.468   4.546  11.487 -0.3059 -0.0299 -0.2415
 6586TIP3    H141249   3.380   4.581  11.505 -0.5584 -1.1144  0.6331
 6586TIP3    H241250   3.493   4.588  11.405 -1.0814  1.3375  0.1923
 6587TIP3   OH241251   6.143   0.812  12.617 -0.8231 -0.6736  0.2869
 6587TIP3    H141252   6.206   0.789  12.685 -0.6160  1.1559  0.7680
 6587TIP3    H241253   6.116   0.729  12.579  1.5697 -1.5062  0.3405
 6588TIP3   OH241254   0.031   2.873   0.244 -0.0850  0.6739 -0.4996
 6588TIP3    H141255   0.002   2.816   0.314 -0.6244  1.2321 -0.2655
 6588TIP3    H241256   0.057   2.813   0.173 -0.5021  0.1400 -0.2038
 6589TIP3   OH241257   5.947   5.656  12.151  0.1750 -0.1888  0.4064
 6589TIP3    H141258   5.889   5.615  12.087  0.1119  0.3499  0.1165
 6589TIP3    H241259   5.904   5.739  12.173  0.3164 -0.2610  0.9652
 6590TIP3   OH241260   1.755   5.972  14.245  0.2584 -0.0849  0.2969
 6590TIP3    H141261   1.844   6.005  14.253  0.8036 -0.6934 -2.6023
 6590TIP3    H241262   1.747   5.906  14.313  1.4911  1.0760  1.5929
 6591TIP3   OH241263   3.078   1.901  14.198  0.0470  0.4682  0.6855
 6591TIP3    H141264   3.164   1.934  14.223  0.3301  0.7499 -0.6038
 6591TIP3    H241265   3.017   1.968  14.228  0.3182  0.4940  1.1820
 6592TIP3   OH241266   5.581   6.387  14.378  0.5594 -0.2795  0.2816
 6592TIP3    H141267   5.583   6.297  14.410 -1.1817 -1.4880 -2.7690
 6592TIP3    H241268   5.518   6.385  14.306  1.9256  2.9606 -1.0894
 6593TIP3   OH241269   3.748   4.276   0.619  0.6319 -0.4127  0.8777
 6593TIP3    H141270   3.678   4.330   0.655  0.5825  0.6695 -0.7954
 6593TIP3    H241271   3.828   4.326   0.637  0.6424 -0.0479 -0.1492
 6594TIP3   OH241272   6.316   2.244  10.775 -0.8701 -0.3698  0.4677
 6594TIP3    H141273   6.373   2.281  10.843 -2.0300  0.6111  0.9307
 6594TIP3    H241274   6.231   2.234  10.818 -1.3059 -0.8794 -0.5016
 6595TIP3   OH241275   6.111   2.264  11.820  0.0163  0.1113 -0.6694
 6595TIP3    H141276   6.042   2.245  11.756 -1.4563 -1.3896  1.2843
 6595TIP3    H241277   6.072   2.330  11.878 -0.4077 -1.8803  1.3730
 6596TIP3   OH241278   1.170   1.395   2.252  0.4553  0.2985  0.1860
 6596TIP3    H141279   1.121   1.335   2.195 -1.1939  3.2722 -1.6939
 6596TIP3    H241280   1.167   1.354   2.339 -0.5734 -2.3326 -1.0495
 6597TIP3   OH241281   0.905   2.679  14.832 -0.1435  0.1854  0.0276
 6597TIP3    H141282   0.972   2.720  14.887  1.1879 -2.6760  0.6465
 6597TIP3    H241283   0.934   2.697  14.743  1.3503 -0.8017  0.2887
 6598TIP3   OH241284   1.275   0.519   4.594  0.4149 -0.0007  0.1515
 6598TIP3    H141285   1.370   0.512   4.583  0.6996  3.3524  0.1789
 6598TIP3    H241286   1.249   0.588   4.534 -2.2206 -1.6575 -0.6897
 6599TIP3   OH241287   6.615   2.398  14.718 -0.4308  0.2640  0.1353
 6599TIP3    H141288   6.558   2.418  14.792  1.4219  1.0468  1.3608
 6599TIP3    H241289   6.702   2.389  14.756  0.0794 -2.2732 -1.5209
 6600TIP3   OH241290   0.400   5.972   0.309 -0.3236 -0.1282  0.3015
 6600TIP3    H141291   0.425   5.964   0.401  0.2724 -1.6645  0.0136
 6600TIP3    H241292   0.304   5.977   0.311 -0.1702  4.4616  1.3053
 6601TIP3   OH241293   3.903   5.982  12.759  0.8619 -0.2396 -0.4312
 6601TIP3    H141294   3.925   5.898  12.799  1.2394  0.9509  1.9706
 6601TIP3    H241295   3.987   6.028  12.753  0.4502  0.5415 -0.2904
 6602TIP3   OH241296   0.055   4.796  11.826 -0.1129  0.1822 -0.0919
 6602TIP3    H141297   0.073   4.878  11.871 -0.9266  0.2071  0.1964
 6602TIP3    H241298  -0.040   4.788  11.827 -0.0995 -0.1818 -1.1634
 6603TIP3   OH241299   3.370   6.990   0.306  0.7014  0.3313  0.3878
 6603TIP3    H141300   3.380   6.905   0.263  0.6900  1.1906 -1.3561
 6603TIP3    H241301   3.360   6.969   0.399  2.0126 -1.4978  0.1415
 6604TIP3   OH241302   6.219   6.199  13.589 -0.0566  1.0666  0.4540
 6604TIP3    H141303   6.279   6.127  13.607 -0.8586 -0.5801 -3.0243
 6604TIP3    H241304   6.149   6.189  13.653  0.0944 -0.9437  0.3299
 6605TIP3   OH241305   1.804   3.130  14.833 -0.3436  0.3591  0.6327
 6605TIP3    H141306   1.856   3.195  14.880 -0.0798  0.1523  0.6278
 6605TIP3    H241307   1.723   3.176  14.810 -0.4422  0.4860  1.2158
 6606TIP3   OH241308   3.896   2.324  15.174 -0.2384  0.3338 -0.0585
 6606TIP3    H141309   3.896   2.342  15.268  0.7063 -1.1809  0.2543
 6606TIP3    H241310   3.982   2.353  15.144  0.1374 -0.8312 -0.1141
 6607TIP3   OH241311   0.740   4.764   1.571 -0.4102  0.2443 -0.1432
 6607TIP3    H141312   0.741   4.669   1.584  0.6922  0.3574  0.6376
 6607TIP3    H241313   0.753   4.801   1.658 -1.4816  1.1371 -0.3442
 6608TIP3   OH241314   3.863   4.995   1.539 -0.1043  0.2892  0.2691
 6608TIP3    H141315   3.837   5.024   1.626 -1.9539  1.5512 -0.6744
 6608TIP3    H241316   3.891   5.075   1.494 -0.0418 -0.2063 -0.5967
 6609TIP3   OH241317   4.486   1.369  13.297 -0.3352  0.1946  0.2377
 6609TIP3    H141318   4.424   1.430  13.257  0.3349  0.2608 -0.7192
 6609TIP3    H241319   4.461   1.367  13.390 -1.1322  0.9809  0.0500
 6610TIP3   OH241320   3.524   2.311  14.629  0.3619 -0.0671  0.5949
 6610TIP3    H141321   3.480   2.346  14.551  0.3402  0.0494  0.6581
 6610TIP3    H241322   3.617   2.310  14.606  0.6332  2.2964  1.4229
 6611TIP3   OH241323   2.982   6.063   0.434  0.1311 -0.4076  0.3176
 6611TIP3    H141324   2.908   6.043   0.377  0.2465  0.8609 -0.2955
 6611TIP3    H241325   3.043   5.990   0.421 -0.5907 -0.9788  0.1059
 6612TIP3   OH241326   0.334   0.386  13.270 -0.3328 -0.0789 -0.1084
 6612TIP3    H141327   0.294   0.458  13.319  0.9342  0.4055  0.2353
 6612TIP3    H241328   0.334   0.415  13.179 -1.0767 -0.2434 -0.1718
 6613TIP3   OH241329   2.271   6.343   0.484 -0.3850 -0.0923 -0.3099
 6613TIP3    H141330   2.269   6.260   0.436  1.0418  0.1650 -0.8354
 6613TIP3    H241331   2.365   6.361   0.496 -0.7058  0.5163  1.4090
 6614TIP3   OH241332   1.527   2.284  12.386  0.2563  0.2566 -0.2324
 6614TIP3    H141333   1.558   2.221  12.321 -0.7263 -0.1110 -0.3466
 6614TIP3    H241334   1.522   2.367  12.338  1.3374  0.3940 -0.1368
 6615TIP3   OH241335   4.980   1.660  13.894 -0.4509  0.0540 -0.5639
 6615TIP3    H141336   4.897   1.635  13.935 -1.8786  2.4042 -1.8625
 6615TIP3    H241337   4.955   1.690  13.806  2.0059 -0.8082 -1.6183
 6616TIP3   OH241338   4.221   1.085  14.809  0.9933  0.4717  0.1439
 6616TIP3    H141339   4.284   1.140  14.764 -0.3481  1.1752 -0.9183
 6616TIP3    H241340   4.185   1.028  14.741  0.7398 -0.1546  0.7955
 6617TIP3   OH241341   0.439   0.440   3.154  0.4873  0.2700 -0.0639
 6617TIP3    H141342   0.479   0.454   3.068  0.5905 -1.6339 -0.3483
 6617TIP3    H241343   0.352   0.407   3.134  0.8862 -1.1798  0.5501
 6618TIP3   OH241344   6.044   3.853  14.650 -0.1803 -0.0557  0.3867
 6618TIP3    H141345   6.015   3.941  14.675 -3.1325 -0.7404 -0.4040
 6618TIP3    H241346   6.063   3.859  14.557  1.3242  0.1474  0.6977
 6619TIP3   OH241347   1.210   0.033   0.221 -0.2901  0.0997  0.4002
 6619TIP3    H141348   1.246   0.118   0.197  1.3324 -0.5201  0.5756
 6619TIP3    H241349   1.167   0.002   0.142 -0.9601  1.1218  0.3602
 6620TIP3   OH241350   6.208   4.205   2.180 -0.0150  0.3830 -0.1112
 6620TIP3    H141351   6.224   4.112   2.196 -0.5754  0.4245  0.7677
 6620TIP3    H241352   6.217   4.215   2.085 -1.0174 -0.7752 -0.3459
 6621TIP3   OH241353   0.505   2.947  15.113  0.0616  0.3694  0.4548
 6621TIP3    H141354   0.590   2.989  15.101 -0.2236  1.7851  3.0832
 6621TIP3    H241355   0.524   2.854  15.116  1.2036  0.5088 -1.2701
 6622TIP3   OH241356   4.698   0.351  13.678 -0.3343  0.7701 -0.1372
 6622TIP3    H141357   4.665   0.279  13.731  0.8328  1.7124  1.9301
 6622TIP3    H241358   4.633   0.421  13.688 -0.2247  0.8730 -0.1385
 6623TIP3   OH241359   6.509   0.200   0.428  0.3267 -0.0658 -0.4424
 6623TIP3    H141360   6.442   0.269   0.430 -0.1795 -0.5872  0.8866
 6623TIP3    H241361   6.559   0.212   0.508 -0.2301 -1.6805  0.1689
 6624TIP3   OH241362   1.633   3.281  10.446  0.0557  0.2866  0.0938
 6624TIP3    H141363   1.629   3.264  10.352 -1.3294 -0.7628  0.3248
 6624TIP3    H241364   1.723   3.310  10.461 -0.3497  2.8418 -1.9427
 6625TIP3   OH241365   1.469   5.176  13.475 -0.1711  0.1315 -0.2369
 6625TIP3    H141366   1.541   5.123  13.440  0.2917  0.5903  0.0043
 6625TIP3    H241367   1.485   5.264  13.440  0.0149  0.4815  0.7132
 6626TIP3   OH241368   7.078   1.260   3.084  0.1521 -0.1028  0.3699
 6626TIP3    H141369   7.015   1.314   3.036  0.4961 -0.3603 -0.3729
 6626TIP3    H241370   7.163   1.282   3.046  0.2252 -1.6581 -0.4052
 6627TIP3   OH241371   5.046   3.096   2.132  0.5823  0.4949 -0.3802
 6627TIP3    H141372   5.031   3.090   2.038 -2.2120 -1.7310  0.1476
 6627TIP3    H241373   5.136   3.065   2.144  0.8614  0.5224 -2.2461
 6628TIP3   OH241374   1.074   2.803  14.241  0.6099  0.7009 -0.0117
 6628TIP3    H141375   1.040   2.716  14.221 -0.1674  1.5595 -2.6649
 6628TIP3    H241376   1.167   2.790  14.257  0.2818 -0.7685  0.7251
 6629TIP3   OH241377   5.078   0.581  15.120  0.2386 -0.3519 -0.1389
 6629TIP3    H141378   5.158   0.632  15.132 -0.4844  1.1093 -1.2441
 6629TIP3    H241379   5.085   0.510  15.183  2.6177 -0.5251 -0.5467
 6630TIP3   OH241380   0.619   4.222   2.180  0.0300 -0.2390 -0.1386
 6630TIP3    H141381   0.648   4.275   2.105 -1.4678 -1.6998 -1.7944
 6630TIP3    H241382   0.603   4.286   2.249 -0.8952  1.4238 -1.8324
 6631TIP3   OH241383   5.647   6.713  13.921  0.3601 -0.3795  0.1632
 6631TIP3    H141384   5.585   6.732  13.992  0.3630  0.3208 -0.0156
 6631TIP3    H241385   5.651   6.618  13.917  0.8448 -0.4266  1.5376
 6632TIP3   OH241386   0.961   5.901   2.036  0.9615 -0.2699  0.1617
 6632TIP3    H141387   1.041   5.953   2.035  0.8259 -0.0711 -0.6152
 6632TIP3    H241388   0.981   5.825   1.981  0.4245  0.0764 -0.5270
 6633TIP3   OH241389   5.895   1.525  14.736 -0.2950  0.4689 -0.3228
 6633TIP3    H141390   5.862   1.489  14.654 -0.6325  0.7849 -0.3324
 6633TIP3    H241391   5.819   1.524  14.794  0.1346 -0.4759  0.2359
 6634TIP3   OH241392   2.119   2.644  10.903 -0.2518 -0.2179 -0.6595
 6634TIP3    H141393   2.116   2.566  10.959  1.7767  0.0611 -0.1115
 6634TIP3    H241394   2.139   2.610  10.816  1.3366 -0.2931 -0.2928
 6635TIP3   OH241395   6.451   0.612  13.569  0.3541 -0.6884  0.0139
 6635TIP3    H141396   6.452   0.516  13.567 -0.0701 -0.6893 -0.0295
 6635TIP3    H241397   6.474   0.633  13.660 -0.6047 -0.8435  0.2961
 6636TIP3   OH241398   0.772   1.632  12.206  0.0560 -0.1038 -0.0243
 6636TIP3    H141399   0.707   1.566  12.229 -0.3012 -0.3037 -1.5255
 6636TIP3    H241400   0.815   1.597  12.128  0.7545  0.8360 -0.0697
 6637TIP3   OH241401   3.844   6.812   2.627  0.0374 -0.2375  0.3891
 6637TIP3    H141402   3.933   6.780   2.610  0.1605 -1.0125  2.2827
 6637TIP3    H241403   3.787   6.751   2.580  0.4774 -0.1397 -0.2819
 6638TIP3   OH241404   4.718   2.585  10.338 -0.2771 -0.1707 -0.5068
 6638TIP3    H141405   4.718   2.628  10.423 -0.8806 -1.3128  0.0792
 6638TIP3    H241406   4.810   2.586  10.311 -0.1465  0.5896 -0.0525
 6639TIP3   OH241407   5.090   2.139   2.329 -0.3019  0.0031  0.0524
 6639TIP3    H141408   5.001   2.109   2.346  0.4570 -0.9432  2.7394
 6639TIP3    H241409   5.143   2.059   2.330  0.7694  0.6948  0.0782
 6640TIP3   OH241410   6.027   6.989   0.146  0.5165  0.1176 -0.0488
 6640TIP3    H141411   5.988   6.995   0.059  0.8086 -0.5750 -0.2293
 6640TIP3    H241412   6.023   7.078   0.180  1.3837  0.6124 -1.2040
 6641TIP3   OH241413   5.796   6.211  13.820  0.1030 -0.0631  0.3199
 6641TIP3    H141414   5.729   6.148  13.791 -0.1532  0.3999 -0.0934
 6641TIP3    H241415   5.746   6.282  13.859  0.3985 -0.1578  0.8703
 6642TIP3   OH241416   2.978   6.433  13.924 -0.1046 -0.2226  0.0873
 6642TIP3    H141417   2.921   6.461  13.995 -0.6906 -0.3448 -0.3383
 6642TIP3    H241418   2.920   6.395  13.859  0.6350 -1.9788  0.4302
 6643TIP3   OH241419   2.632   5.609   3.675 -0.0473 -0.0140 -0.3434
 6643TIP3    H141420   2.581   5.687   3.652 -2.8844 -1.7704 -0.2034
 6643TIP3    H241421   2.585   5.570   3.749  0.3750 -2.7737 -1.4778
 6644TIP3   OH241422   1.471   1.236  15.105  0.3093 -0.3633 -0.5198
 6644TIP3    H141423   1.518   1.299  15.161 -0.2689 -0.3737 -0.0215
 6644TIP3    H241424   1.513   1.152  15.123  1.2289 -0.1026 -1.3462
 6645TIP3   OH241425   6.171   6.643  12.521 -0.2770 -0.0550 -0.1424
 6645TIP3    H141426   6.188   6.582  12.593 -1.3210 -0.2811 -0.0785
 6645TIP3    H241427   6.250   6.697  12.516  0.3864 -0.9784  0.2322
 6646TIP3   OH241428   7.099   2.338  15.096  0.1045  0.6435 -0.3200
 6646TIP3    H141429   7.075   2.288  15.018  2.8059 -0.3980 -0.5570
 6646TIP3    H241430   7.017   2.376  15.127 -1.3540 -0.6565 -2.4591
 6647TIP3   OH241431   2.859   2.575  14.888  0.2073 -0.2753 -0.5888
 6647TIP3    H141432   2.805   2.498  14.870 -1.3286  0.9312 -1.2967
 6647TIP3    H241433   2.835   2.637  14.819  0.6934  1.1961  0.5402
 6648TIP3   OH241434   7.141   5.761  12.338  0.0523  0.5135  0.4543
 6648TIP3    H141435   7.188   5.840  12.311 -1.1896  1.2927  0.5079
 6648TIP3    H241436   7.154   5.699  12.266  0.4347  1.0262  0.0822
 6649TIP3   OH241437   1.925   0.957  12.666  0.2489 -0.3454 -0.4115
 6649TIP3    H141438   1.991   1.006  12.618 -0.2523 -0.0466 -0.7969
 6649TIP3    H241439   1.844   1.005  12.652 -0.1854 -1.0971 -0.5223
 6650TIP3   OH241440   0.098   3.026  12.335  0.1948  0.5443  0.2701
 6650TIP3    H141441   0.007   3.051  12.343 -0.0498 -0.2632  0.0650
 6650TIP3    H241442   0.147   3.106  12.354 -0.6191  1.9612 -3.2573
 6651TIP3   OH241443   0.103   2.167  14.680 -0.6470  0.2475  0.8314
 6651TIP3    H141444   0.082   2.073  14.683 -1.4082  0.4274  1.1545
 6651TIP3    H241445   0.026   2.208  14.642 -0.6564  0.8416  1.4849
 6652TIP3   OH241446   0.299   5.168   1.882  0.3292 -0.6016 -0.3858
 6652TIP3    H141447   0.280   5.227   1.809  0.3293 -0.0788  0.0398
 6652TIP3    H241448   0.391   5.145   1.871  0.5880  0.2324 -0.0050
 6653TIP3   OH241449   0.292   2.359   1.397  0.0784 -0.0966 -0.2810
 6653TIP3    H141450   0.214   2.320   1.358 -0.4810  1.2919 -0.5550
 6653TIP3    H241451   0.301   2.315   1.482  0.4471 -2.0505 -1.2989
 6654TIP3   OH241452   6.749   0.050  13.196 -0.2263  0.2554  0.0413
 6654TIP3    H141453   6.701  -0.031  13.178 -0.5179  0.2191  0.9499
 6654TIP3    H241454   6.743   0.061  13.291 -0.4046  1.4827 -0.1064
 6655TIP3   OH241455   4.233   6.780  14.370 -1.1880  0.1887 -0.2383
 6655TIP3    H141456   4.280   6.715  14.317 -0.1930 -0.3992  1.3345
 6655TIP3    H241457   4.238   6.860  14.318  2.0211  0.2743  0.0836
 6656TIP3   OH241458   4.130   6.480  15.380 -0.1643  0.1385  0.0620
 6656TIP3    H141459   4.080   6.398  15.376 -1.1780  0.8328 -1.9122
 6656TIP3    H241460   4.187   6.469  15.456 -2.4594 -1.1522  1.6731
 6657TIP3   OH241461   6.951   3.241  14.979  0.4011 -0.1203 -0.4941
 6657TIP3    H141462   6.888   3.261  15.048  0.6040 -1.7281  0.1854
 6657TIP3    H241463   6.994   3.324  14.960  0.0854  0.4063  1.0559
 6658TIP3   OH241464   6.505   5.613  14.643  0.8220 -0.1179  0.5624
 6658TIP3    H141465   6.443   5.648  14.707  2.0205 -1.8961  2.7787
 6658TIP3    H241466   6.591   5.632  14.680  1.5755  0.1330 -1.2554
 6659TIP3   OH241467   2.480   3.630  13.743  0.0891 -0.4458  0.0389
 6659TIP3    H141468   2.492   3.543  13.704  1.1125 -0.2301 -0.1253
 6659TIP3    H241469   2.550   3.637  13.808  0.7168  0.7059 -0.7487
 6660TIP3   OH241470   1.050   1.184   2.677 -0.6988  0.0958  0.4435
 6660TIP3    H141471   1.128   1.220   2.719  0.1674  2.9655 -3.2967
 6660TIP3    H241472   1.081   1.106   2.630 -0.4781  0.1524  0.4958
 6661TIP3   OH241473   5.552   4.417  12.784  0.2449  0.2023  0.1049
 6661TIP3    H141474   5.624   4.393  12.841  0.4478 -1.1309 -0.6812
 6661TIP3    H241475   5.594   4.455  12.707  0.1423 -0.8709 -0.4928
 6662TIP3   OH241476   3.341   4.147  12.237  0.5256  0.3306  0.3858
 6662TIP3    H141477   3.404   4.115  12.302  1.2046 -0.9071 -0.8640
 6662TIP3    H241478   3.373   4.113  12.154 -2.1634 -0.8513 -0.1834
 6663TIP3   OH241479   6.224   6.666  15.524 -0.0540  0.1988  0.1416
 6663TIP3    H141480   6.253   6.598  15.586 -0.8457 -0.0017  0.2938
 6663TIP3    H241481   6.132   6.645  15.506 -0.2751  1.1714  0.1031
 6664TIP3   OH241482   4.986   0.671  13.031 -0.0636  0.9156  0.3517
 6664TIP3    H141483   4.907   0.651  13.082 -1.5077  3.2977 -0.8605
 6664TIP3    H241484   4.972   0.627  12.947  0.3959  0.4440  0.5232
 6665TIP3   OH241485   6.875   1.908  14.529 -0.4032  0.7402 -0.7074
 6665TIP3    H141486   6.813   1.859  14.582 -0.2453  1.1976 -0.1034
 6665TIP3    H241487   6.837   1.995  14.521  0.0430  0.9525 -0.5412
 6666TIP3   OH241488   6.459   0.801  13.826 -0.1509  0.3174 -0.9792
 6666TIP3    H141489   6.547   0.772  13.851 -0.7071 -0.7897 -0.2673
 6666TIP3    H241490   6.460   0.895  13.842  0.2261 -0.0184  1.1208
 6667TIP3   OH241491   2.435   2.787  15.477 -0.3798  0.4152 -0.5635
 6667TIP3    H141492   2.458   2.864  15.528  0.8775  0.2926 -0.9255
 6667TIP3    H241493   2.485   2.716  15.517 -2.4975 -0.4886  0.5808
 6668TIP3   OH241494   3.965   1.062  10.968  0.6687  0.1535 -0.1025
 6668TIP3    H141495   3.965   1.071  10.873 -0.4767  2.5737  0.0975
 6668TIP3    H241496   3.970   1.152  11.001  1.8059 -0.6904  2.1330
 6669TIP3   OH241497   6.911   4.565  13.217 -0.0268  0.2323  0.2339
 6669TIP3    H141498   6.969   4.533  13.148  0.8021  0.2202  0.9289
 6669TIP3    H241499   6.848   4.621  13.171  1.2433  1.1920 -0.3816
 6670TIP3   OH241500   5.790   4.150  10.882  0.7159  0.1488 -0.5814
 6670TIP3    H141501   5.800   4.057  10.902  1.8916  0.4722  0.4127
 6670TIP3    H241502   5.816   4.158  10.790 -0.5946 -0.6869 -1.0458
 6671TIP3   OH241503   1.756   0.334  10.269  0.0825  0.3311 -0.1385
 6671TIP3    H141504   1.795   0.272  10.208  1.0302  2.2447 -1.5017
 6671TIP3    H241505   1.676   0.364  10.224  0.4961  1.3330 -0.2041
 6672TIP3   OH241506   6.260   3.707   2.101 -0.4284 -0.0475 -0.5664
 6672TIP3    H141507   6.303   3.743   2.023 -1.3305 -0.2687 -1.1727
 6672TIP3    H241508   6.173   3.747   2.101 -1.1356 -1.5728 -0.7708
 6673TIP3   OH241509   1.379   6.090  13.019  0.1371 -0.3960 -0.2444
 6673TIP3    H141510   1.341   6.122  12.937 -0.2435  1.3003  0.5939
 6673TIP3    H241511   1.304   6.074  13.076  0.4419 -0.9918  0.0008
 6674TIP3   OH241512   6.424   4.008  14.287 -0.2258  0.0863  1.0355
 6674TIP3    H141513   6.430   3.966  14.200 -0.4700 -0.8658  1.4679
 6674TIP3    H241514   6.436   4.101  14.269 -1.7511  0.0664 -0.2098
 6675TIP3   OH241515   4.064   1.208  12.579  0.3293  0.0438  0.3191
 6675TIP3    H141516   4.030   1.121  12.557 -2.1300  0.4152  2.3594
 6675TIP3    H241517   4.071   1.207  12.674 -0.4095  2.3034  0.4228
 6676TIP3   OH241518   1.992   2.253  12.877  0.3708 -0.1011 -0.5635
 6676TIP3    H141519   2.005   2.169  12.833 -0.8643 -0.3795 -0.3890
 6676TIP3    H241520   2.040   2.316  12.823  2.4305 -1.1117  0.0377
 6677TIP3   OH241521   4.196   5.783  12.281  0.5041 -0.9059  1.1125
 6677TIP3    H141522   4.204   5.702  12.230  0.7637 -0.9517  1.2270
 6677TIP3    H241523   4.107   5.781  12.315  0.5241 -1.1649  1.1510
 6678TIP3   OH241524   5.102   0.147  11.546 -0.2067 -0.0001  0.2834
 6678TIP3    H141525   5.098   0.065  11.595  0.6702  0.7333  1.6132
 6678TIP3    H241526   5.017   0.188  11.560 -2.1009 -2.3565 -3.4526
 6679TIP3   OH241527   4.017   2.985  12.094  0.2192  0.0894  0.4647
 6679TIP3    H141528   3.927   2.956  12.104 -1.1156  2.8316 -2.4954
 6679TIP3    H241529   4.064   2.909  12.060 -1.2029 -1.0504  1.0241
 6680TIP3   OH241530   6.550   3.073  10.734 -0.1981 -0.2956 -0.0135
 6680TIP3    H141531   6.563   2.978  10.736 -0.0951 -0.3445 -2.0795
 6680TIP3    H241532   6.627   3.109  10.776 -2.3644 -1.2486  5.1621
 6681TIP3   OH241533   0.974   0.379   0.738 -0.2287  0.0966 -0.1451
 6681TIP3    H141534   0.895   0.328   0.760  0.9783 -2.2950 -1.1521
 6681TIP3    H241535   1.042   0.342   0.793  0.6646  0.6366 -0.8854
 6682TIP3   OH241536   1.070   2.908   0.410 -0.5035 -0.4508 -0.8955
 6682TIP3    H141537   0.977   2.884   0.417 -0.2843 -0.7445  1.6398
 6682TIP3    H241538   1.071   3.003   0.414 -0.7027 -0.4382 -1.1321
 6683TIP3   OH241539   4.136   6.702  12.571 -0.5359 -0.6084 -0.0512
 6683TIP3    H141540   4.119   6.640  12.500  1.3372 -1.1700 -0.0208
 6683TIP3    H241541   4.196   6.766  12.532  1.3812 -1.5286  1.3158
 6684TIP3   OH241542   0.392   3.624   0.644  0.5569  0.0476  0.2108
 6684TIP3    H141543   0.369   3.533   0.625 -2.7406  1.0667 -1.0465
 6684TIP3    H241544   0.407   3.626   0.738 -1.4664 -1.3768  0.5779
 6685TIP3   OH241545   0.861   4.084  14.088  0.6707 -0.0640  0.1684
 6685TIP3    H141546   0.861   4.029  14.010  0.4473  0.2750 -0.0719
 6685TIP3    H241547   0.781   4.059  14.135  0.5359  0.1043  0.0259
 6686TIP3   OH241548   2.008   1.537  14.508  0.1356  0.4994  0.1673
 6686TIP3    H141549   1.988   1.457  14.459 -0.1340  1.4402 -1.2723
 6686TIP3    H241550   1.967   1.608  14.458 -0.0034  1.5140  1.6539
 6687TIP3   OH241551   2.406   3.524  11.294 -0.0156  0.6143  0.1708
 6687TIP3    H141552   2.347   3.457  11.330 -0.3498  1.5238  1.3608
 6687TIP3    H241553   2.350   3.579  11.240 -0.2704  1.4764  1.2979
 6688TIP3   OH241554   5.424   0.548   1.672  0.0400 -0.6285 -0.1243
 6688TIP3    H141555   5.471   0.624   1.636  1.1798 -0.7404  1.0920
 6688TIP3    H241556   5.408   0.492   1.596 -0.5870  0.7091 -0.9959
 6689TIP3   OH241557   0.180   3.085   0.322 -0.5036  0.2374  0.6033
 6689TIP3    H141558   0.140   3.171   0.310 -2.1960 -0.2651  2.3944
 6689TIP3    H241559   0.112   3.023   0.296  0.5879 -0.5685 -0.3418
 6690TIP3   OH241560   3.862   4.689  12.788 -0.0744 -0.5563  0.3184
 6690TIP3    H141561   3.902   4.703  12.702  0.7893  1.4287  1.0054
 6690TIP3    H241562   3.910   4.615  12.825  0.4904 -0.5318 -0.3564
 6691TIP3   OH241563   3.451   3.833  13.792 -0.0217  0.2904 -0.2194
 6691TIP3    H141564   3.365   3.791  13.799 -1.0779  2.5469  0.7614
 6691TIP3    H241565   3.444   3.911  13.847  1.3872  2.5734 -3.1520
 6692TIP3   OH241566   6.412   5.683  13.559  0.5311 -0.2456  0.4087
 6692TIP3    H141567   6.417   5.659  13.652 -2.4896 -0.5492  0.5543
 6692TIP3    H241568   6.444   5.607  13.512  3.3784  0.4069  1.2039
 6693TIP3   OH241569   2.190   4.265  15.200  0.2933  0.3907 -0.1431
 6693TIP3    H141570   2.235   4.210  15.136 -1.6268 -2.2770  0.7225
 6693TIP3    H241571   2.195   4.216  15.282 -0.6425  1.9764  0.8998
 6694TIP3   OH241572   6.254   3.717  11.731  0.0201  0.5485  0.1765
 6694TIP3    H141573   6.210   3.761  11.659 -1.3267  0.4654  0.9326
 6694TIP3    H241574   6.215   3.629  11.732 -0.3522  0.7246  1.3347
 6695TIP3   OH241575   2.925   6.690  15.363 -0.0975 -0.5097 -0.1710
 6695TIP3    H141576   2.979   6.759  15.325 -0.5878  0.9716  1.7601
 6695TIP3    H241577   2.836   6.708  15.332 -0.3148  0.0571  0.7650
 6696TIP3   OH241578   3.649   5.177  14.200  0.0289 -0.1058  0.1889
 6696TIP3    H141579   3.599   5.254  14.177  0.8083  0.5381  0.6251
 6696TIP3    H241580   3.719   5.173  14.134  0.5551  0.1123  0.7244
 6697TIP3   OH241581   6.780   4.961  14.179  0.6941  0.1893  0.0470
 6697TIP3    H141582   6.725   4.905  14.123 -0.2872  0.5440  0.6459
 6697TIP3    H241583   6.767   5.049  14.145 -0.5151  0.5192  1.2779
 6698TIP3   OH241584   4.503   1.935  10.333  0.1111  0.4105 -0.3614
 6698TIP3    H141585   4.412   1.908  10.321  0.6596 -1.0154 -1.2952
 6698TIP3    H241586   4.521   1.993  10.259  0.0229  0.5786 -0.2540
 6699TIP3   OH241587   2.210   5.557  14.966  0.2433  0.1305 -0.2832
 6699TIP3    H141588   2.206   5.574  15.060  1.0227  0.9405 -0.3921
 6699TIP3    H241589   2.246   5.468  14.958  0.6884  0.2730  0.1693
 6700TIP3   OH241590   0.198   3.000  10.501 -0.2212  0.7509  0.6734
 6700TIP3    H141591   0.150   3.021  10.421 -1.8616 -1.4140  1.0512
 6700TIP3    H241592   0.282   3.044  10.490 -1.1242  2.0694 -1.3752
 6701TIP3   OH241593   0.752   0.357   2.248  0.2049  0.1557 -0.4040
 6701TIP3    H141594   0.663   0.336   2.276  0.6003 -2.4190 -0.9772
 6701TIP3    H241595   0.798   0.379   2.330 -0.7839  0.8708 -0.0367
 6702TIP3   OH241596   4.316   4.134   0.898 -0.2169  0.1655 -0.1561
 6702TIP3    H141597   4.238   4.120   0.845  0.1482  0.4908 -0.7824
 6702TIP3    H241598   4.361   4.050   0.897 -1.6004 -0.6530  1.9369
 6703TIP3   OH241599   4.445   3.559  14.128 -0.3931 -0.2819 -0.3864
 6703TIP3    H141600   4.461   3.501  14.054 -0.4159  0.6695 -1.1353
 6703TIP3    H241601   4.349   3.561  14.136 -0.4270  0.2847 -0.8730
 6704TIP3   OH241602   2.428   3.821   0.396 -0.2054 -0.0977  0.1543
 6704TIP3    H141603   2.381   3.896   0.433 -0.0936  0.3119 -0.5298
 6704TIP3    H241604   2.373   3.792   0.323  1.0933  1.0475 -1.3295
 6705TIP3   OH241605   5.839   6.645   0.453  0.2093  0.0716 -0.2458
 6705TIP3    H141606   5.934   6.645   0.458  0.2153  1.6875 -0.0628
 6705TIP3    H241607   5.817   6.723   0.403 -1.0730  0.5570  1.0071
 6706TIP3   OH241608   0.958   4.887   1.263 -0.1096  0.2067 -0.2463
 6706TIP3    H141609   0.864   4.886   1.279  0.0595  1.3874  0.9736
 6706TIP3    H241610   0.967   4.908   1.170 -1.0333  0.8519 -0.1962
 6707TIP3   OH241611   3.799   1.557  14.311 -0.6818 -0.2434 -0.5497
 6707TIP3    H141612   3.707   1.565  14.284 -1.0058 -2.5028 -0.1531
 6707TIP3    H241613   3.799   1.487  14.376  1.2315  0.2457 -0.0008
 6708TIP3   OH241614   1.344   1.503  15.200  0.2202  0.4356  0.0510
 6708TIP3    H141615   1.281   1.432  15.186  0.6735  0.0453 -0.0305
 6708TIP3    H241616   1.418   1.460  15.243 -0.3756  1.2635  1.9087
 6709TIP3   OH241617   3.099   0.414   0.506 -0.0287  0.1936 -0.6693
 6709TIP3    H141618   3.177   0.428   0.560 -0.3114 -0.6234 -0.0360
 6709TIP3    H241619   3.061   0.333   0.539 -2.4472  1.7861  0.5748
 6710TIP3   OH241620   6.662   2.360   3.005  0.1473 -0.0055 -0.2765
 6710TIP3    H141621   6.679   2.431   3.067 -2.1249  0.0361  0.3336
 6710TIP3    H241622   6.646   2.405   2.922 -0.8419  0.1975  0.0116
 6711TIP3   OH241623   1.191   3.224  13.816 -0.0982 -0.4967 -0.0573
 6711TIP3    H141624   1.273   3.273  13.808  0.6026 -2.0142 -2.3913
 6711TIP3    H241625   1.137   3.254  13.743 -1.6514  0.4870  1.4629
 6712TIP3   OH241626   2.666   1.545  11.381 -0.5629 -0.0191  0.0313
 6712TIP3    H141627   2.683   1.631  11.419 -2.3188  0.3057  0.0935
 6712TIP3    H241628   2.648   1.563  11.289 -1.3055 -0.2718  0.1251
 6713TIP3   OH241629   5.669   4.761   2.142 -0.1976  0.0308  0.7722
 6713TIP3    H141630   5.654   4.832   2.204 -0.4981  0.0988  0.6191
 6713TIP3    H241631   5.663   4.802   2.056  0.7839  0.0534  0.7041
 6714TIP3   OH241632   3.560   4.381   0.819  0.5733  0.4593  0.6563
 6714TIP3    H141633   3.494   4.397   0.886  1.5265 -0.5664  1.8615
 6714TIP3    H241634   3.602   4.467   0.806 -2.1609  1.5558 -1.4589
 6715TIP3   OH241635   0.906   5.336   1.041 -0.3289 -0.2531  0.5799
 6715TIP3    H141636   0.938   5.256   1.083  0.8340 -0.8249 -1.3558
 6715TIP3    H241637   0.986   5.382   1.014 -1.0373  0.7761  0.1905
 6716TIP3   OH241638   2.608   7.121  11.867 -0.3605 -0.2835  0.8035
 6716TIP3    H141639   2.513   7.118  11.879 -0.5321 -0.5875 -0.5736
 6716TIP3    H241640   2.622   7.178  11.792  0.4725 -1.1587  0.2687
 6717TIP3   OH241641   4.595   3.087  13.121  0.1997  0.0939  0.0035
 6717TIP3    H141642   4.543   3.075  13.200  0.5885  0.3921  0.3041
 6717TIP3    H241643   4.567   3.015  13.063  0.3332 -0.4686  0.6332
 6718TIP3   OH241644   3.059   0.794   0.050 -0.1643  0.3609  0.2638
 6718TIP3    H141645   2.974   0.824   0.019  0.5065 -0.0229 -1.9982
 6718TIP3    H241646   3.048   0.699   0.059  0.8048 -0.0806 -2.7155
 6719TIP3   OH241647   2.196   6.017  13.686  0.2818  0.4388 -0.6300
 6719TIP3    H141648   2.134   5.953  13.720  0.0768  0.2015 -1.4241
 6719TIP3    H241649   2.144   6.072  13.627  1.0554 -0.4596 -2.1649
 6720TIP3   OH241650   2.686   1.826   0.801  0.0597  0.4384  0.4284
 6720TIP3    H141651   2.741   1.880   0.859  0.1985  1.9311 -1.0700
 6720TIP3    H241652   2.631   1.889   0.755 -0.3571 -0.7788 -0.7590
 6721TIP3   OH241653   6.047   1.942  11.308 -0.0333 -0.2366  0.3001
 6721TIP3    H141654   6.078   1.951  11.398  0.0173  1.6549  0.1044
 6721TIP3    H241655   5.954   1.964  11.312  0.3780  1.7304 -0.4071
 6722TIP3   OH241656   2.725   5.798   4.020  0.0643 -0.0189 -0.0814
 6722TIP3    H141657   2.715   5.794   4.115 -0.0974 -0.4330 -0.1118
 6722TIP3    H241658   2.820   5.801   4.006  0.1046 -0.5007  0.0770
 6723TIP3   OH241659   7.039   3.547  14.422  0.3553  0.0110  0.1408
 6723TIP3    H141660   6.968   3.508  14.472  0.5091 -0.0583  0.3061
 6723TIP3    H241661   7.008   3.635  14.401 -0.5255 -0.6238 -1.3373
 6724TIP3   OH241662   4.903   0.208  12.550  0.4313  0.0206 -0.4069
 6724TIP3    H141663   4.956   0.279  12.514  0.0859 -0.0632 -1.0812
 6724TIP3    H241664   4.906   0.221  12.645 -5.2197  4.9938 -0.6387
 6725TIP3   OH241665   5.322   6.963  13.386  0.0245 -0.4889 -0.0495
 6725TIP3    H141666   5.379   6.955  13.310 -1.1393 -1.7751 -0.8232
 6725TIP3    H241667   5.240   6.999  13.350 -0.3896 -0.7105  0.6641
 6726TIP3   OH241668   6.780   2.328  13.656 -0.3076  0.4862 -0.4706
 6726TIP3    H141669   6.707   2.371  13.612 -0.2027 -0.0369 -1.1555
 6726TIP3    H241670   6.834   2.400  13.690 -0.5419  0.8794 -0.9341
 6727TIP3   OH241671   2.809   2.009  14.355 -0.2286  0.5280 -0.0607
 6727TIP3    H141672   2.848   1.985  14.439  0.1992  1.6349  0.0665
 6727TIP3    H241673   2.729   1.957  14.349  0.3764 -0.4563  0.4731
 6728TIP3   OH241674   6.549   6.649   0.581 -0.6123 -0.0933 -0.3187
 6728TIP3    H141675   6.637   6.616   0.561 -1.0351 -1.3133 -0.1535
 6728TIP3    H241676   6.514   6.588   0.645 -1.7541  0.1360 -0.7166
 6729TIP3   OH241677   4.406   2.112  14.148  0.2777 -0.1649 -0.3353
 6729TIP3    H141678   4.336   2.159  14.102  3.1735  2.6621 -2.0693
 6729TIP3    H241679   4.423   2.166  14.226 -0.0679 -1.3541  0.5831
 6730TIP3   OH241680   1.431   1.176  14.633 -0.2306  0.2471  0.1069
 6730TIP3    H141681   1.384   1.113  14.688 -0.2909 -1.1536 -1.5096
 6730TIP3    H241682   1.491   1.122  14.581  1.5057  1.7792  0.4497
 6731TIP3   OH241683   3.857   2.219  13.944  0.4242  0.0377 -0.3511
 6731TIP3    H141684   3.914   2.261  14.009  0.5198  0.1742 -0.5232
 6731TIP3    H241685   3.808   2.154  13.994  1.8098 -1.1289 -0.4824
 6732TIP3   OH241686   4.941   1.577   0.753 -0.1350 -0.4144 -0.1919
 6732TIP3    H141687   4.976   1.642   0.813  0.8518 -0.9572 -0.1689
 6732TIP3    H241688   4.846   1.588   0.759 -0.0325 -0.0951  1.0515
 6733TIP3   OH241689   5.954   2.640  12.607 -0.3136  0.2343 -0.0054
 6733TIP3    H141690   5.923   2.556  12.573  0.3870  0.2771 -0.7573
 6733TIP3    H241691   6.019   2.669  12.543 -1.2212  1.8002 -0.2577
 6734TIP3   OH241692   3.889   7.073  13.498  0.6041 -0.1007  0.5947
 6734TIP3    H141693   3.879   6.984  13.531 -0.1922 -0.7248 -1.2574
 6734TIP3    H241694   3.800   7.103  13.482  0.8459  1.2820  1.8632
 6735TIP3   OH241695   0.708   1.992   0.829 -0.3728 -0.3957  0.2162
 6735TIP3    H141696   0.662   1.926   0.778 -0.9213 -0.2384  0.5081
 6735TIP3    H241697   0.659   1.998   0.911  1.7783 -2.3332  1.7499
 6736TIP3   OH241698   0.013   3.268  11.366 -0.0868 -0.2535  0.1447
 6736TIP3    H141699   0.005   3.252  11.272 -0.7234  0.1863  0.1267
 6736TIP3    H241700   0.107   3.261  11.383 -0.1497 -2.2491 -0.1829
 6737TIP3   OH241701   5.181   6.912   2.684 -0.3733  0.1267 -0.5815
 6737TIP3    H141702   5.164   6.817   2.681 -3.1020  0.5883 -1.0078
 6737TIP3    H241703   5.139   6.946   2.606 -1.3552  1.9605  0.7105
 6738TIP3   OH241704   1.794   6.449  11.393 -0.4297  0.2663  0.5850
 6738TIP3    H141705   1.792   6.442  11.298  0.2005  2.4227  0.3895
 6738TIP3    H241706   1.829   6.366  11.423  0.3293 -0.0382 -1.1287
 6739TIP3   OH241707   4.798   6.958  12.305  0.2316 -0.1118  0.8102
 6739TIP3    H141708   4.851   6.881  12.286  2.0586  1.3845 -0.3119
 6739TIP3    H241709   4.856   7.016  12.353 -1.2032  0.4784  1.8583
 6740TIP3   OH241710   2.507   2.434  12.329  0.4343 -0.8765  0.1491
 6740TIP3    H141711   2.512   2.502  12.262 -0.3671 -1.9213 -0.9776
 6740TIP3    H241712   2.556   2.360  12.293  3.0172 -0.2525  2.2073
 6741TIP3   OH241713   1.876   1.576   0.696  0.3568 -0.2687 -0.0992
 6741TIP3    H141714   1.887   1.561   0.602 -1.8475 -1.9626 -0.1234
 6741TIP3    H241715   1.914   1.499   0.738  0.3781 -0.0123  0.3563
 6742TIP3   OH241716   2.794   6.592  15.008  0.7296  0.3856 -0.6769
 6742TIP3    H141717   2.700   6.602  14.992  0.8973 -0.0098 -1.9684
 6742TIP3    H241718   2.807   6.497  15.018  1.2855  0.2274 -2.5835
 6743TIP3   OH241719   3.151   1.338  15.169 -0.0050  0.0902  0.0647
 6743TIP3    H141720   3.059   1.322  15.150  0.1938  0.9093 -1.7565
 6743TIP3    H241721   3.151   1.406  15.235 -0.7091 -0.8544  1.0591
 6744TIP3   OH241722   3.599   5.187  14.582 -0.1813  0.2077  0.0301
 6744TIP3    H141723   3.670   5.124  14.566 -0.5591 -0.1325 -0.2936
 6744TIP3    H241724   3.622   5.227  14.667  0.4957  0.2375 -0.1570
 6745TIP3   OH241725   1.681   0.482  14.520  0.0370 -0.2877  0.0034
 6745TIP3    H141726   1.627   0.410  14.487 -1.4401  0.6685  0.2475
 6745TIP3    H241727   1.758   0.482  14.463 -1.1495 -0.4539 -1.6744
 6746TIP3   OH241728   1.529   1.736   1.636 -0.3945 -0.0553  0.0158
 6746TIP3    H141729   1.500   1.814   1.684 -0.2047 -0.2650  0.4827
 6746TIP3    H241730   1.615   1.717   1.672  1.2696  1.7763 -2.8286
 6747TIP3   OH241731   1.907   4.424   0.432 -1.0211 -0.4421  0.5657
 6747TIP3    H141732   1.954   4.390   0.356 -0.0029 -0.5749  1.2522
 6747TIP3    H241733   1.908   4.352   0.495 -0.3323  0.2638  1.3777
 6748TIP3   OH241734   4.681   2.057  15.424  0.0332  0.5317  0.0055
 6748TIP3    H141735   4.674   2.052  15.519 -1.4081 -3.1078 -0.2227
 6748TIP3    H241736   4.591   2.052  15.393  0.6477 -1.1985 -1.6115
 6749TIP3   OH241737   5.568   7.193  12.834  0.7279  0.2729 -0.4085
 6749TIP3    H141738   5.546   7.282  12.859  1.0336 -0.0039  0.9009
 6749TIP3    H241739   5.661   7.184  12.857  0.6425 -0.4371 -0.3280
 6750TIP3   OH241740   1.346   4.070   0.295  0.2489 -0.6170  0.0323
 6750TIP3    H141741   1.438   4.074   0.267  1.0928  1.1178  2.9067
 6750TIP3    H241742   1.297   4.061   0.213  2.7743  1.8672 -1.8533
 6751TIP3   OH241743   0.904   3.133  14.883 -0.5342 -0.3655  0.0233
 6751TIP3    H141744   0.958   3.165  14.955 -0.6947  1.2856 -0.5681
 6751TIP3    H241745   0.864   3.053  14.917  0.2832 -0.2256  1.3566
 6752TIP3   OH241746   7.174   7.037  11.872 -0.0763  0.0888 -0.0150
 6752TIP3    H141747   7.191   7.043  11.966  2.8740  0.3419 -0.5241
 6752TIP3    H241748   7.089   6.992  11.866 -0.1200 -0.3070  2.7296
 6753TIP3   OH241749   3.639   4.848  14.618  0.1602 -0.3986  0.0825
 6753TIP3    H141750   3.564   4.808  14.574  0.8957 -0.8969 -0.7289
 6753TIP3    H241751   3.694   4.881  14.547 -0.0162  1.3217  0.7135
 6754TIP3   OH241752   4.038   6.542  12.359  0.0913  0.1880  0.2372
 6754TIP3    H141753   3.955   6.576  12.325  0.5965  0.5687 -0.6118
 6754TIP3    H241754   4.090   6.521  12.281  0.7705 -0.1189  0.7659
 6755TIP3   OH241755   0.404   3.126   0.138 -0.0159 -0.9000 -0.1703
 6755TIP3    H141756   0.377   3.048   0.090 -0.6907 -0.3522 -0.6789
 6755TIP3    H241757   0.358   3.120   0.222 -1.7904  0.0567 -1.0513
 6756TIP3   OH241758   3.691   4.604   0.749 -0.2388 -0.2430  0.9176
 6756TIP3    H141759   3.706   4.694   0.780  1.1248  0.0252 -0.4537
 6756TIP3    H241760   3.707   4.608   0.655 -1.1496 -1.7298  0.6829
 6757TIP3   OH241761   2.380   0.271  15.540 -0.0396  0.6077 -0.3186
 6757TIP3    H141762   2.456   0.232  15.583 -0.9132 -1.2320 -0.3991
 6757TIP3    H241763   2.372   0.224  15.457  0.4362  2.7604 -1.6268
 6758TIP3   OH241764   7.002   0.696  11.950  0.1209  0.4515 -0.0958
 6758TIP3    H141765   6.914   0.714  11.983 -0.0589  1.7744 -1.2217
 6758TIP3    H241766   7.024   0.775  11.900  2.6291  0.8907  1.6022
 6759TIP3   OH241767   2.058   0.487   2.450  0.1286  0.1687  0.2350
 6759TIP3    H141768   2.091   0.560   2.501 -1.4215  0.6016  0.6374
 6759TIP3    H241769   1.991   0.525   2.393  0.6693 -0.5979 -0.9414
 6760TIP3   OH241770   6.415   5.950  13.632  0.1214 -0.3505 -0.5000
 6760TIP3    H141771   6.431   5.876  13.574 -1.7055 -0.4017 -0.9532
 6760TIP3    H241772   6.378   5.912  13.712 -2.1968  0.1678 -1.2875
 6761TIP3   OH241773   0.090   4.343  10.740  0.0621  0.4507 -0.5634
 6761TIP3    H141774   0.178   4.381  10.741  0.2807  0.1304 -3.3944
 6761TIP3    H241775   0.044   4.390  10.671 -1.1857 -1.1083 -0.8232
 6762TIP3   OH241776   2.232   5.632  12.399  0.6694  0.0869  0.1917
 6762TIP3    H141777   2.315   5.629  12.447  1.1242 -1.1950 -0.6621
 6762TIP3    H241778   2.221   5.544  12.365  0.1413  0.8719 -1.6994
 6763TIP3   OH241779   1.108   3.677  14.097  0.3278 -0.2680 -0.2094
 6763TIP3    H141780   1.135   3.741  14.163 -0.3513  0.9735 -1.1083
 6763TIP3    H241781   1.123   3.720  14.013  0.7559 -1.6594 -0.8677
 6764TIP3   OH241782   1.761   3.699  12.129  0.0533  0.6483  0.2348
 6764TIP3    H141783   1.846   3.741  12.116  1.1659 -0.7129  2.7207
 6764TIP3    H241784   1.757   3.632  12.062  0.7149  1.0720 -0.2378
 6765TIP3   OH241785   3.154   6.892  12.882  0.2532  0.2779 -0.0292
 6765TIP3    H141786   3.121   6.879  12.793  0.4626  1.2633 -0.2473
 6765TIP3    H241787   3.201   6.811  12.901  1.5683  0.6968 -1.4176
 6766TIP3   OH241788   3.829   7.075  11.727  0.1853  0.2249 -0.9900
 6766TIP3    H141789   3.880   7.131  11.786 -1.1204 -0.0775  0.4470
 6766TIP3    H241790   3.743   7.116  11.724 -0.3325 -0.8569 -1.1190
 6767TIP3   OH241791   6.240   3.562  12.086  0.7289  0.2107  0.2001
 6767TIP3    H141792   6.323   3.525  12.116 -0.8973 -2.8784  1.1131
 6767TIP3    H241793   6.261   3.653  12.064  3.5739  0.5995  3.9117
 6768TIP3   OH241794   3.084   7.195  10.585  0.5080 -0.4437  0.3829
 6768TIP3    H141795   3.163   7.221  10.633 -0.3478  1.4166  0.8135
 6768TIP3    H241796   3.109   7.201  10.493  0.7779  0.4533  0.5127
 6769TIP3   OH241797   1.813   4.258   2.998  0.0343 -0.5843  0.2094
 6769TIP3    H141798   1.747   4.204   2.954 -0.8223 -0.5923  1.5070
 6769TIP3    H241799   1.875   4.195   3.035 -1.0177 -0.7038  1.8073
 6770TIP3   OH241800   3.438   1.697  13.240 -0.5024  0.2204  0.1122
 6770TIP3    H141801   3.470   1.708  13.329 -0.0412  0.5180 -0.0848
 6770TIP3    H241802   3.516   1.674  13.189 -0.0991  3.3737 -0.8347
 6771TIP3   OH241803   1.936   3.288  15.012  0.5182  0.0302 -0.2970
 6771TIP3    H141804   1.889   3.285  15.095 -0.3788  1.4299 -0.7361
 6771TIP3    H241805   1.952   3.381  14.996  2.4499 -0.3542 -0.7296
 6772TIP3   OH241806   2.934   0.935  11.345 -0.5247 -0.3119 -0.4608
 6772TIP3    H141807   2.966   0.996  11.411 -2.7335 -0.5945  0.9274
 6772TIP3    H241808   2.842   0.959  11.333 -1.1124 -2.5898 -0.7545
 6773TIP3   OH241809   1.843   1.227  10.428 -0.1151  0.5758 -0.2887
 6773TIP3    H141810   1.913   1.264  10.481 -0.6994  0.9877  0.1973
 6773TIP3    H241811   1.793   1.302  10.397 -0.5363  0.2683 -0.3675
 6774TIP3   OH241812   1.403   3.543   3.434  0.9084 -0.2477 -0.2700
 6774TIP3    H141813   1.377   3.465   3.483 -0.4193 -0.3655 -1.1325
 6774TIP3    H241814   1.401   3.613   3.498 -1.0815 -0.3536 -0.1846
 6775TIP3   OH241815   3.978   0.222  12.731  0.5678 -0.2441  0.0707
 6775TIP3    H141816   3.926   0.169  12.671 -0.0299  1.4933 -0.9752
 6775TIP3    H241817   3.914   0.272  12.781  1.2084  1.7272 -1.0511
 6776TIP3   OH241818   3.631   1.718   0.920 -0.6773  0.4203 -0.5295
 6776TIP3    H141819   3.667   1.780   0.983  0.2204  0.6621 -1.2719
 6776TIP3    H241820   3.577   1.772   0.862 -0.3572  0.4237 -0.8262
 6777TIP3   OH241821   0.988   0.729  12.993 -0.3872  0.6808 -0.6220
 6777TIP3    H141822   0.950   0.675  13.062  2.6986  0.0877  0.7232
 6777TIP3    H241823   0.948   0.815  13.003 -0.2977  0.4647  1.6451
 6778TIP3   OH241824   6.277   2.820  13.747 -0.2884 -0.0761 -0.0062
 6778TIP3    H141825   6.281   2.850  13.656  1.0893 -1.4503 -0.4142
 6778TIP3    H241826   6.321   2.888  13.797  1.2121 -0.5214 -0.7000
 6779TIP3   OH241827   4.133   2.592  14.173 -0.3457 -0.1826 -0.0265
 6779TIP3    H141828   4.101   2.682  14.162 -1.0309 -0.4092  0.0974
 6779TIP3    H241829   4.134   2.579  14.268 -1.3580 -0.6947 -0.0768
 6780TIP3   OH241830   3.060   2.277  14.719 -0.0997 -0.0973  0.7106
 6780TIP3    H141831   3.135   2.335  14.731  0.0239 -0.6522  2.8506
 6780TIP3    H241832   3.066   2.249  14.628  2.1557  0.0555  0.7773
 6781TIP3   OH241833   2.182   1.286   2.380 -0.2065 -0.2337  0.3223
 6781TIP3    H141834   2.140   1.360   2.423 -0.4646  0.2953 -0.8193
 6781TIP3    H241835   2.241   1.251   2.446  1.8963  2.6185  0.0762
 6782TIP3   OH241836   3.655   4.389  12.799 -0.4208  0.3687 -0.8538
 6782TIP3    H141837   3.682   4.469  12.844  1.2512 -0.9534  0.5360
 6782TIP3    H241838   3.723   4.374  12.733  0.2450 -0.8948  0.1074
 6783TIP3   OH241839   6.069   1.017   2.090 -0.1904 -0.5995 -0.1905
 6783TIP3    H141840   6.145   1.000   2.145 -0.3255 -3.8522 -0.9295
 6783TIP3    H241841   6.100   1.082   2.027  1.1625  0.1311  1.1981
 6784TIP3   OH241842   4.883   3.653  12.309 -0.1512 -0.3660  0.0259
 6784TIP3    H141843   4.829   3.627  12.234  0.6070  0.4975 -0.8415
 6784TIP3    H241844   4.966   3.608  12.296 -0.6327 -1.6816  1.3518
 6785TIP3   OH241845   5.878   3.179  13.551  0.7149 -0.1501  0.1195
 6785TIP3    H141846   5.940   3.126  13.501  0.3743 -0.4993  0.0649
 6785TIP3    H241847   5.850   3.121  13.623  0.1410 -0.1361 -0.0958
 6786TIP3   OH241848   1.090   1.931   0.600 -0.1797 -0.2016 -0.4389
 6786TIP3    H141849   1.124   1.864   0.659 -1.9198 -0.8729 -0.1727
 6786TIP3    H241850   1.167   1.966   0.557  0.7122 -2.8011 -1.0278
 6787TIP3   OH241851   6.532   4.415  10.442  0.2030  0.1449 -0.5598
 6787TIP3    H141852   6.454   4.465  10.468 -0.2426 -0.4989 -0.6544
 6787TIP3    H241853   6.558   4.454  10.359  0.6559  1.1179  0.0293
 6788TIP3   OH241854   4.962   5.796  13.108 -0.4868 -0.3844  0.2096
 6788TIP3    H141855   5.013   5.832  13.181 -0.8899 -0.6728  0.6339
 6788TIP3    H241856   4.956   5.702  13.127 -1.2810 -0.3303  0.2190
 6789TIP3   OH241857   3.202   2.517  14.274 -0.0847  0.4210  0.6949
 6789TIP3    H141858   3.189   2.607  14.246  0.6206  0.3603  0.1492
 6789TIP3    H241859   3.148   2.465  14.215 -0.5003  0.4794  1.0167
 6790TIP3   OH241860   1.346   0.298   0.184 -0.4403  0.1595 -0.1109
 6790TIP3    H141861   1.424   0.256   0.221 -0.0926 -0.9990 -2.0753
 6790TIP3    H241862   1.370   0.390   0.176  0.3473 -0.0069  0.2930
 6791TIP3   OH241863   2.130   1.288  13.330 -0.0039 -0.0491 -0.2978
 6791TIP3    H141864   2.181   1.235  13.269  1.8759  0.6631  0.6037
 6791TIP3    H241865   2.166   1.268  13.416  1.1857  3.0792  0.0121
 6792TIP3   OH241866   2.351   1.596  10.836  0.3226 -0.1680  0.0556
 6792TIP3    H141867   2.288   1.600  10.908  0.5621  0.2069  0.2453
 6792TIP3    H241868   2.408   1.522  10.858  1.4521  0.9893  1.1315
 6793TIP3   OH241869   0.264   3.361  13.030 -0.2921  0.0610 -0.0742
 6793TIP3    H141870   0.289   3.335  13.119  0.2871 -1.2088 -0.5823
 6793TIP3    H241871   0.169   3.366  13.032 -0.3480 -1.0298  0.3518
 6794TIP3   OH241872   5.815   3.232  15.017  0.0608 -0.5838 -0.0629
 6794TIP3    H141873   5.901   3.270  15.037 -1.4692  2.2184  1.3600
 6794TIP3    H241874   5.759   3.260  15.089 -2.3136 -1.5922 -1.4853
 6795TIP3   OH241875   2.048   5.932  14.596 -0.1236  0.3542 -0.1805
 6795TIP3    H141876   2.086   5.861  14.545 -0.4319 -0.3517  0.5552
 6795TIP3    H241877   2.053   5.902  14.687 -0.0248  1.3816  0.1652
 6796TIP3   OH241878   1.503   2.520  13.132  0.1710  0.2263  0.0058
 6796TIP3    H141879   1.572   2.535  13.068 -0.4478 -0.3667 -0.8049
 6796TIP3    H241880   1.533   2.566  13.211  0.9865  0.8541 -0.6647
 6797TIP3   OH241881   6.952   7.000   1.121 -0.4837  0.3641  0.1677
 6797TIP3    H141882   7.044   6.992   1.096 -0.4518 -0.2275  0.4661
 6797TIP3    H241883   6.903   6.973   1.043 -0.4235  1.6632 -0.3352
 6798TIP3   OH241884   0.500   5.130  10.306  0.1583 -0.2006 -0.2622
 6798TIP3    H141885   0.533   5.211  10.268 -0.9574  0.0281 -0.7747
 6798TIP3    H241886   0.449   5.090  10.235  0.4090 -1.1620  0.1073
 6799TIP3   OH241887   5.593   0.627  15.325 -0.3743  0.3975 -0.1989
 6799TIP3    H141888   5.627   0.541  15.301 -0.5715 -0.1397  1.4077
 6799TIP3    H241889   5.669   0.675  15.356 -0.2916  0.7486 -0.9493
 6800TIP3   OH241890   0.334   6.463  10.741 -0.1374  0.5666  0.2340
 6800TIP3    H141891   0.295   6.534  10.689  1.9590  1.3553 -0.3279
 6800TIP3    H241892   0.303   6.383  10.700 -3.5720  1.0794  1.6378
 6801TIP3   OH241893   2.869   0.936  13.565 -0.7459 -0.1093  0.2358
 6801TIP3    H141894   2.914   0.972  13.488 -1.4108  2.3504  0.9443
 6801TIP3    H241895   2.784   0.907  13.531 -0.4529 -0.4261 -0.2332
 6802TIP3   OH241896   1.910   6.106  10.273 -0.2514 -0.1515 -0.2289
 6802TIP3    H141897   1.847   6.151  10.216  1.0861  0.3102 -1.3730
 6802TIP3    H241898   1.866   6.024  10.297 -1.2983  0.1729 -0.9852
 6803TIP3   OH241899   2.383   0.823  14.166 -0.0491 -0.4753 -0.1208
 6803TIP3    H141900   2.351   0.895  14.113  2.7584  1.6685  1.0017
 6803TIP3    H241901   2.306   0.767  14.180 -2.5546  2.8955  0.0005
 6804TIP3   OH241902   4.171   6.067  12.731  0.3651  0.5239  0.4422
 6804TIP3    H141903   4.205   6.046  12.818 -0.1032 -0.0357  0.4966
 6804TIP3    H241904   4.237   6.035  12.671 -0.0520 -0.5785  0.5483
 6805TIP3   OH241905   3.584   6.985  15.161  0.1338  0.4022  0.4189
 6805TIP3    H141906   3.655   6.941  15.207  0.1030  1.1351  1.1748
 6805TIP3    H241907   3.562   6.927  15.088  0.4607 -0.5594  1.0894
 6806TIP3   OH241908   1.224   2.458   9.917 -0.2783 -0.1229 -0.1789
 6806TIP3    H141909   1.312   2.494   9.919 -0.5380  0.5309 -0.6233
 6806TIP3    H241910   1.197   2.455  10.009  1.1529 -2.6838  0.2123
 6807TIP3   OH241911   4.148   6.208  13.532 -0.1296 -0.2585 -0.3029
 6807TIP3    H141912   4.135   6.215  13.627 -0.4160  1.8528 -0.4791
 6807TIP3    H241913   4.149   6.299  13.501 -1.0596 -0.9568 -2.4573
 6808TIP3   OH241914   1.372   6.145   2.783 -0.3577 -0.4576 -0.0904
 6808TIP3    H141915   1.291   6.179   2.822  0.4307  0.4533  0.7804
 6808TIP3    H241916   1.437   6.214   2.799  0.5867 -1.1630 -0.8204
 6809TIP3   OH241917   2.297   3.304   1.491 -0.0195 -0.1751  0.2862
 6809TIP3    H141918   2.381   3.350   1.490 -0.9709  1.5865  0.4930
 6809TIP3    H241919   2.304   3.239   1.420  0.5919  1.6235 -1.3308
 6810TIP3   OH241920   5.094   0.537   0.831 -0.1817  0.4245  0.1530
 6810TIP3    H141921   5.087   0.624   0.871  1.3111  0.2565  0.7903
 6810TIP3    H241922   5.175   0.539   0.781  0.0580 -0.7289  0.4848
 6811TIP3   OH241923   0.519   1.186  14.650  0.0740  0.2832 -0.1510
 6811TIP3    H141924   0.587   1.130  14.688  1.0707  0.6474 -1.3863
 6811TIP3    H241925   0.563   1.269  14.632 -0.7121  0.5439 -0.9082
 6812TIP3   OH241926   1.662   2.370   2.468 -0.5390 -0.3093  0.0722
 6812TIP3    H141927   1.591   2.417   2.425 -0.6697 -1.3203 -0.8170
 6812TIP3    H241928   1.700   2.315   2.399 -0.1777 -1.2706  1.0339
 6813TIP3   OH241929   2.087   0.545  14.124  0.5940  0.0827 -0.3040
 6813TIP3    H141930   2.089   0.528  14.030  2.5383 -0.7356 -0.1459
 6813TIP3    H241931   2.104   0.639  14.132 -1.0803  0.4345 -0.8220
 6814TIP3   OH241932   6.597   1.299   0.823 -0.0954  0.2340 -0.2902
 6814TIP3    H141933   6.515   1.263   0.788  0.8494  0.2367 -2.6555
 6814TIP3    H241934   6.579   1.315   0.915 -1.8368 -2.5112 -0.0731
 6815TIP3   OH241935   1.610   1.308  12.933 -0.0255 -0.2266 -0.3157
 6815TIP3    H141936   1.553   1.341  12.863 -1.0943  1.1426  1.1807
 6815TIP3    H241937   1.690   1.280  12.887 -0.6812  0.6989 -2.0793
 6816TIP3   OH241938   6.671   1.167   1.956  0.2750 -0.0014  0.2670
 6816TIP3    H141939   6.747   1.173   1.899  1.0923 -0.8747  1.2458
 6816TIP3    H241940   6.633   1.254   1.954  0.9071  0.2604 -0.7664
 6817TIP3   OH241941   5.091   3.171   0.898 -0.4884 -0.5241  0.4795
 6817TIP3    H141942   5.090   3.262   0.868 -0.7240 -0.8710 -0.5977
 6817TIP3    H241943   5.075   3.177   0.992 -1.8607  0.4888  0.2098
 6818TIP3   OH241944   3.344   6.422  12.171 -0.1274 -0.4755 -0.2493
 6818TIP3    H141945   3.437   6.443  12.165  0.0572 -1.1599  0.1209
 6818TIP3    H241946   3.300   6.507  12.171  0.5776 -0.0891  0.8232
 6819TIP3   OH241947   0.104   1.541  13.783  0.0512  0.5873  0.2038
 6819TIP3    H141948   0.081   1.594  13.860 -0.6629 -1.2144  1.2622
 6819TIP3    H241949   0.088   1.599  13.709 -0.9462  1.7911  1.3330
 6820TIP3   OH241950   3.885   1.604  15.415  0.5228 -0.7454  0.4755
 6820TIP3    H141951   3.860   1.695  15.399  2.7707 -0.3154 -0.8411
 6820TIP3    H241952   3.818   1.571  15.474 -0.8038  1.5164  0.3124
 6821TIP3   OH241953   0.169   4.998   2.843 -0.3088 -0.2096  0.3695
 6821TIP3    H141954   0.175   5.050   2.763 -1.8552  0.7675  0.8620
 6821TIP3    H241955   0.115   5.051   2.901 -1.3502 -2.0794  1.1206
 6822TIP3   OH241956   2.764   0.446  11.183 -0.0244  0.1581  0.4840
 6822TIP3    H141957   2.792   0.385  11.114 -1.5912  0.9741 -0.9229
 6822TIP3    H241958   2.751   0.392  11.260  2.1253 -0.7327  0.2448
 6823TIP3   OH241959   5.772   1.399   1.149 -0.1595 -0.3786  0.5114
 6823TIP3    H141960   5.867   1.393   1.161 -0.0756 -1.1937 -0.4487
 6823TIP3    H241961   5.762   1.446   1.066 -0.5653 -1.3637 -0.0027
 6824TIP3   OH241962   2.954   2.723  12.136  0.0090  0.2854 -0.6704
 6824TIP3    H141963   2.932   2.662  12.065  0.6449  1.1885 -1.6555
 6824TIP3    H241964   2.869   2.756  12.166 -0.3164 -0.7901 -0.3890
 6825TIP3   OH241965   5.969   5.404  15.609 -0.4629 -0.4610  0.0539
 6825TIP3    H141966   5.907   5.436  15.543  0.1996 -0.1773 -0.4389
 6825TIP3    H241967   6.044   5.374  15.559  0.6544  1.0981  0.7380
 6826TIP3   OH241968   0.722   1.675  11.515 -0.5749  0.0283 -0.1261
 6826TIP3    H141969   0.785   1.674  11.443 -0.6408  1.0431 -0.2009
 6826TIP3    H241970   0.732   1.589  11.557 -0.2296 -0.3994 -1.0707
 6827TIP3   OH241971   1.830   0.369   0.654  0.0755  0.2842  0.5027
 6827TIP3    H141972   1.825   0.430   0.581  1.4454  1.7406  1.6053
 6827TIP3    H241973   1.858   0.422   0.729  0.1143 -1.4552  1.7701
 6828TIP3   OH241974   1.898   6.469  13.378 -0.6952  0.3774 -0.2203
 6828TIP3    H141975   1.859   6.549  13.341 -1.2166 -0.0066 -0.5082
 6828TIP3    H241976   1.929   6.420  13.301 -1.1712 -0.1098 -0.1003
 6829TIP3   OH241977   6.528   6.192  13.558 -0.0959 -0.0266  0.5344
 6829TIP3    H141978   6.529   6.164  13.466 -0.0282  0.9545  0.2243
 6829TIP3    H241979   6.489   6.119  13.605 -1.6402  0.0981 -0.5005
 6830TIP3   OH241980   2.244   1.492  12.132  0.4695  0.2752 -0.8877
 6830TIP3    H141981   2.293   1.484  12.050  0.0957 -0.1512 -1.0674
 6830TIP3    H241982   2.153   1.494  12.105  0.3081 -0.6126 -0.4221
 6831TIP3   OH241983   6.146   2.353  13.439  0.5775  0.9273 -0.2335
 6831TIP3    H141984   6.066   2.343  13.387 -0.0928  2.6143  0.4403
 6831TIP3    H241985   6.206   2.288  13.403 -1.9989 -2.2881  0.9881
 6832TIP3   OH241986   3.712   5.028   1.228 -0.0790  0.3115 -0.0920
 6832TIP3    H141987   3.696   4.943   1.187 -0.8624  0.1679  0.4997
 6832TIP3    H241988   3.799   5.054   1.197  1.7387 -2.3460  2.4966
 6833TIP3   OH241989   6.218   1.712  15.219  0.5335  0.2989 -1.1056
 6833TIP3    H141990   6.166   1.745  15.145  0.9919  1.6361 -0.8364
 6833TIP3    H241991   6.239   1.622  15.194 -3.5423 -0.9758 -0.3634
 6834TIP3   OH241992   0.699   0.269   0.633 -0.0721  0.4818 -0.6022
 6834TIP3    H141993   0.658   0.345   0.593 -1.4845 -0.5006 -1.0410
 6834TIP3    H241994   0.657   0.261   0.719 -0.3454 -0.1359 -0.7897
 6835TIP3   OH241995   3.738   6.680   9.793  0.3554 -0.4375 -0.3350
 6835TIP3    H141996   3.718   6.587   9.791  1.9756 -0.8057  0.2153
 6835TIP3    H241997   3.675   6.717   9.855 -0.8756 -1.0117 -1.2310
 6836TIP3   OH241998   3.384   5.115  15.146 -0.0941  0.5902  0.3373
 6836TIP3    H141999   3.404   5.037  15.197  0.5771  1.1994  1.0304
 6836TIP3    H242000   3.361   5.083  15.059  1.6827 -0.2749  0.1741
 6837TIP3   OH242001   1.194   5.057   2.733  0.7897 -0.3956 -0.5971
 6837TIP3    H142002   1.267   5.100   2.777  0.8880 -0.7300 -0.4319
 6837TIP3    H242003   1.233   5.023   2.652  0.4921  0.6695 -1.1951
 6838TIP3   OH242004   4.510   4.829   2.092 -0.2642 -0.2397  0.6239
 6838TIP3    H142005   4.502   4.855   2.000 -1.8554  2.0586  1.3451
 6838TIP3    H242006   4.443   4.762   2.104  1.0896 -1.7790 -0.2812
 6839TIP3   OH242007   3.061   4.817   0.166  0.1103  0.8544 -0.2513
 6839TIP3    H142008   3.109   4.821   0.248 -0.1413  0.2482 -0.0737
 6839TIP3    H242009   2.969   4.823   0.191 -0.0555 -0.8816 -0.3456
 6840TIP3   OH242010   3.676   5.491  12.398  0.0286  0.2028 -0.3450
 6840TIP3    H142011   3.708   5.402  12.412 -1.6891 -0.4653 -0.5765
 6840TIP3    H242012   3.685   5.533  12.483 -1.1272 -0.8413  0.3026
 6841TIP3   OH242013   4.529   6.974  14.542  0.1089  0.6963 -0.1540
 6841TIP3    H142014   4.502   6.882  14.542 -1.9149  1.2571  0.9367
 6841TIP3    H242015   4.559   6.990  14.452 -0.0554 -0.8750 -0.5069
 6842TIP3   OH242016   0.833   6.131  12.779 -0.8465  0.3305  0.0337
 6842TIP3    H142017   0.847   6.121  12.685 -1.4669 -1.4280  0.1085
 6842TIP3    H242018   0.740   6.151  12.788 -0.8666  0.1236  0.2962
 6843TIP3   OH242019   2.319   4.410   1.287  0.2280 -0.2226  0.4581
 6843TIP3    H142020   2.300   4.428   1.379 -0.7835 -0.5602  0.3143
 6843TIP3    H242021   2.241   4.367   1.253  0.3932  0.3365 -0.6875
 6844TIP3   OH242022   4.843   2.077  12.395  0.0110 -0.2383  0.5425
 6844TIP3    H142023   4.849   1.988  12.359 -2.7069 -0.2984  0.1801
 6844TIP3    H242024   4.798   2.128  12.327  0.1627  1.0520  1.3904
 6845TIP3   OH242025   2.637   5.862   0.747  0.1163  0.2767  1.0944
 6845TIP3    H142026   2.556   5.912   0.734  0.1777 -0.4132 -2.4804
 6845TIP3    H242027   2.706   5.920   0.714  1.0111  0.4911  3.2686
 6846TIP3   OH242028   2.786   6.564   2.377  0.3450  0.4220 -0.0963
 6846TIP3    H142029   2.839   6.625   2.427  1.3079 -0.5470  0.0851
 6846TIP3    H242030   2.696   6.584   2.403  0.6744  1.5347  0.1995
 6847TIP3   OH242031   3.534   1.695  11.787  0.5191  0.3951  0.4963
 6847TIP3    H142032   3.622   1.676  11.754  0.1090  1.9921 -1.6774
 6847TIP3    H242033   3.477   1.636  11.738  0.1694  0.9093  0.2794
 6848TIP3   OH242034   6.316   2.509  13.277 -0.3801  0.5057  0.6018
 6848TIP3    H142035   6.248   2.547  13.220 -0.7265  1.2850  1.5203
 6848TIP3    H242036   6.273   2.436  13.321 -1.1833  2.1301  2.5642
 6849TIP3   OH242037   4.007   4.152  15.552 -0.5104  0.0137  0.2843
 6849TIP3    H142038   4.011   4.056  15.551  2.9618  0.0456  3.2392
 6849TIP3    H242039   3.940   4.172  15.618  0.0334 -0.3668  0.9541
 6850TIP3   OH242040   4.639   4.754  13.560 -0.3005  0.0470  0.6399
 6850TIP3    H142041   4.654   4.668  13.519 -0.6602 -0.1628  0.9490
 6850TIP3    H242042   4.544   4.760  13.569 -0.2004 -0.0922  1.8443
 6851TIP3   OH242043   2.192   5.563   1.778  0.0395  0.4607  0.0340
 6851TIP3    H142044   2.265   5.569   1.716  0.2705 -1.9171  0.0308
 6851TIP3    H242045   2.117   5.596   1.729 -0.1369 -2.9704 -2.1999
 6852TIP3   OH242046   5.994   2.802  12.359 -0.3486  0.6618 -0.4425
 6852TIP3    H142047   6.089   2.800  12.357 -0.3361 -0.5706  0.4557
 6852TIP3    H242048   5.972   2.875  12.417  0.0547  0.4509 -0.0273
 6853TIP3   OH242049   2.461   5.558  14.077 -0.0290  0.3453  0.2808
 6853TIP3    H142050   2.529   5.610  14.121  1.2811 -0.4514 -0.7577
 6853TIP3    H242051   2.433   5.613  14.004 -0.6833  0.7691  0.8396
 6854TIP3   OH242052   3.388   1.549  12.183 -0.0543 -0.0310 -0.0975
 6854TIP3    H142053   3.340   1.592  12.253 -0.2022 -0.9378  0.3721
 6854TIP3    H242054   3.398   1.458  12.213 -0.0280 -0.4047 -1.1989
 6855TIP3   OH242055   5.436   4.566  14.786  0.3944 -0.2931 -0.4595
 6855TIP3    H142056   5.493   4.508  14.836 -0.4184  0.3608  1.2608
 6855TIP3    H242057   5.355   4.517  14.774 -0.2014  0.3660  0.7766
 6856TIP3   OH242058   1.598   6.867  14.657 -0.0727 -0.4194  0.6022
 6856TIP3    H142059   1.617   6.868  14.751  1.4568 -0.3677  0.2904
 6856TIP3    H242060   1.636   6.948  14.624  1.3942 -1.5277 -0.4564
 6857TIP3   OH242061   3.031   3.483  14.353 -0.1845  0.0458  0.2924
 6857TIP3    H142062   2.946   3.440  14.342  0.1747 -0.8170  0.8424
 6857TIP3    H242063   3.093   3.425  14.308  0.2663  0.1267  0.8024
 6858TIP3   OH242064   2.900   1.082  13.010 -0.4126 -0.2141  0.1963
 6858TIP3    H142065   2.913   1.085  12.915  0.8080 -0.7928  0.3299
 6858TIP3    H242066   2.858   1.165  13.032  0.8849  0.6674 -0.6231
 6859TIP3   OH242067   3.457   6.909   1.667  0.5033  0.6209  0.0983
 6859TIP3    H142068   3.468   6.996   1.628  2.0244 -0.1039 -1.1359
 6859TIP3    H242069   3.396   6.923   1.740  0.0589  2.5601 -0.6140
 6860TIP3   OH242070   1.742   1.134   0.148  0.4373 -0.5576 -0.0901
 6860TIP3    H142071   1.792   1.071   0.096  0.4728 -1.2400  0.7794
 6860TIP3    H242072   1.788   1.139   0.231  0.1652  0.2637  0.0161
 6861TIP3   OH242073   5.520   6.668  14.837 -0.0318  0.1947  0.0441
 6861TIP3    H142074   5.616   6.667  14.844  0.0651  1.5372 -0.9357
 6861TIP3    H242075   5.489   6.662  14.927  0.9530 -1.9159  0.2722
 6862TIP3   OH242076   5.792   6.507  14.516  0.0695  0.0030  0.0445
 6862TIP3    H142077   5.804   6.421  14.557  1.0419 -0.7247 -1.6745
 6862TIP3    H242078   5.713   6.498  14.463 -1.0629  0.8723  1.5424
 6863TIP3   OH242079   0.157   0.139  12.611 -0.1674  0.5797  0.1397
 6863TIP3    H142080   0.152   0.046  12.634 -0.0798  0.6276  0.3502
 6863TIP3    H242081   0.195   0.139  12.523  2.5771  0.5336  1.2579
 6864TIP3   OH242082   4.141   5.046  12.242 -0.3450 -0.1763  0.1031
 6864TIP3    H142083   4.115   5.053  12.334  2.2070 -0.1652  0.8640
 6864TIP3    H242084   4.168   4.955  12.231  0.5490  0.1290 -0.2913
 6865TIP3   OH242085   2.847   0.278  13.384 -0.7304 -0.0371  0.1370
 6865TIP3    H142086   2.859   0.257  13.476 -0.1595  3.8090  0.9927
 6865TIP3    H242087   2.755   0.302  13.376 -0.3337  1.5310  0.1338
 6866TIP3   OH242088   6.183   1.292  14.659  0.3656 -0.1437 -0.2938
 6866TIP3    H142089   6.160   1.378  14.693  3.1714  0.4932  0.0976
 6866TIP3    H242090   6.264   1.269  14.704 -0.9986 -3.5647  0.5531
 6867TIP3   OH242091   3.984   6.989  13.794  0.0864  0.1833 -0.0342
 6867TIP3    H142092   3.984   7.071  13.844 -1.1355 -0.9702  1.9126
 6867TIP3    H242093   3.893   6.975  13.771  0.1630 -1.1036  0.4426
 6868TIP3   OH242094   7.178   5.614  14.527 -0.1587 -0.4146 -0.1997
 6868TIP3    H142095   7.223   5.575  14.453 -0.5150 -0.4576 -0.3940
 6868TIP3    H242096   7.126   5.685  14.490  0.8078  0.5218  0.2092
 6869TIP3   OH242097   4.170   6.202   1.971  0.5045  0.0742 -0.2683
 6869TIP3    H142098   4.185   6.171   1.882 -0.0657  0.9523 -0.6836
 6869TIP3    H242099   4.205   6.133   2.028 -0.5601 -1.2323 -1.1656
 6870TIP3   OH242100   2.556   6.552  12.557 -0.1492  0.2535  0.0269
 6870TIP3    H142101   2.647   6.524  12.554 -0.3223 -0.4771  1.2008
 6870TIP3    H242102   2.524   6.542  12.468  0.7772  0.0079 -0.2768
 6871TIP3   OH242103   1.894   3.350  13.284  0.2642  0.1979 -0.4676
 6871TIP3    H142104   1.929   3.267  13.314 -1.2304 -0.8064 -1.4296
 6871TIP3    H242105   1.823   3.326  13.224  0.3488  2.1501 -1.3891
 6872TIP3   OH242106   2.755   0.133   0.556  0.1710 -0.1273 -1.0946
 6872TIP3    H142107   2.691   0.191   0.598 -0.2229 -1.5187  0.2370
 6872TIP3    H242108   2.782   0.073   0.625  2.3910 -0.0133 -1.8426
 6873TIP3   OH242109   2.624   5.802   0.401 -0.0601 -0.4833 -0.1278
 6873TIP3    H142110   2.595   5.777   0.488  1.0946 -1.3045  0.0291
 6873TIP3    H242111   2.550   5.780   0.344 -0.8672  0.1794  0.6407
 6874TIP3   OH242112   2.248   3.055  13.899 -0.0371 -0.2283  0.0445
 6874TIP3    H142113   2.250   3.127  13.836 -1.4226 -1.3090 -1.2779
 6874TIP3    H242114   2.221   3.097  13.981 -0.1533  0.8734 -0.5361
 6875TIP3   OH242115   3.602   4.286   0.229  0.0216  0.0253 -0.3229
 6875TIP3    H142116   3.593   4.254   0.319 -0.3642  0.0642 -0.3438
 6875TIP3    H242117   3.532   4.351   0.220 -0.2235 -0.2991 -0.7893
 6876TIP3   OH242118   4.486   1.398   1.410  0.4003 -0.4575  0.4600
 6876TIP3    H142119   4.505   1.336   1.339  0.3961  1.1533 -0.9730
 6876TIP3    H242120   4.569   1.408   1.456  0.3076 -1.8111  0.9414
 6877TIP3   OH242121   5.415   4.089   3.653  0.0152  0.1676 -0.2233
 6877TIP3    H142122   5.359   4.147   3.601 -1.5637 -1.7947 -0.7539
 6877TIP3    H242123   5.382   4.098   3.742 -2.0660 -1.9876 -0.7366
 6878TIP3   OH242124   1.065   0.617   0.677 -0.0386  0.0244 -0.6682
 6878TIP3    H142125   0.995   0.559   0.706 -1.1879  2.0760  0.7511
 6878TIP3    H242126   1.145   0.578   0.713 -1.0725  0.6281  2.3642
 6879TIP3   OH242127   3.668   1.322  14.070  0.0935 -0.1536  0.0940
 6879TIP3    H142128   3.656   1.395  14.130  0.0070 -0.3605  0.3288
 6879TIP3    H242129   3.580   1.284  14.061  0.2778 -0.7106  0.5841
 6880TIP3   OH242130   4.860   0.964  14.172  0.1579 -0.1216 -0.0297
 6880TIP3    H142131   4.923   0.919  14.229  1.5189 -0.9147 -2.0812
 6880TIP3    H242132   4.911   0.986  14.094 -1.3654  1.9990 -0.4419
 6881TIP3   OH242133   4.978   3.778   1.883  0.2888 -0.2561  0.5011
 6881TIP3    H142134   4.913   3.736   1.826  0.6709  0.2202 -0.2968
 6881TIP3    H242135   5.001   3.859   1.838  0.9592 -0.1052  1.0966
 6882TIP3   OH242136   3.974   0.187  14.982  0.0502 -0.0815 -0.2953
 6882TIP3    H142137   4.059   0.188  14.938  0.1413  3.2253 -0.2015
 6882TIP3    H242138   3.910   0.183  14.911  0.2314  3.7393 -0.7987
 6883TIP3   OH242139   0.294   0.984   1.876 -0.1314 -0.0922 -0.0649
 6883TIP3    H142140   0.320   0.894   1.857 -2.6352 -0.6066 -1.4085
 6883TIP3    H242141   0.360   1.038   1.834 -0.1758 -1.3181 -1.7453
 6884TIP3   OH242142   1.607   0.969  12.636 -0.5764 -0.2620  0.5003
 6884TIP3    H142143   1.536   1.004  12.583 -0.5336  0.9109  1.2021
 6884TIP3    H242144   1.623   0.882  12.601 -0.3104  0.6300 -1.6605
 6885TIP3   OH242145   2.696   7.105  13.970 -0.1495  0.4262  0.0460
 6885TIP3    H142146   2.668   7.146  13.888 -0.6306  0.2817  0.1376
 6885TIP3    H242147   2.694   7.011  13.951  2.0621  0.4544 -0.5352
 6886TIP3   OH242148   4.770   6.168   1.474  0.2192 -0.1158 -0.4598
 6886TIP3    H142149   4.832   6.108   1.432  0.2843 -0.7755  0.5659
 6886TIP3    H242150   4.686   6.146   1.435  0.4208 -0.1263 -0.8899
 6887TIP3   OH242151   3.041   4.346  14.736  0.4206 -0.1850  0.0987
 6887TIP3    H142152   3.105   4.399  14.784  0.8362 -0.0300 -0.6210
 6887TIP3    H242153   3.061   4.256  14.761 -1.7076  0.0786  3.0836
 6888TIP3   OH242154   3.667   1.120  10.397 -0.2809 -0.6763  0.4083
 6888TIP3    H142155   3.590   1.176  10.405 -0.3836 -0.7914  0.2218
 6888TIP3    H242156   3.656   1.055  10.466 -0.4563 -0.8195  0.2459
 6889TIP3   OH242157   0.452   1.213  14.013  0.0899 -0.0696 -0.0512
 6889TIP3    H142158   0.375   1.255  13.976  0.6987  1.2795  0.1777
 6889TIP3    H242159   0.420   1.167  14.091 -1.1545 -2.7159 -2.0324
 6890TIP3   OH242160   0.626   5.462  14.712  0.2644  0.0502  0.4106
 6890TIP3    H142161   0.612   5.505  14.796 -0.3894 -1.6440  1.1960
 6890TIP3    H242162   0.677   5.383  14.734  0.6225 -0.0874 -0.8627
 6891TIP3   OH242163   4.083   2.152  11.973  0.1716 -0.1147  0.5440
 6891TIP3    H142164   4.178   2.157  11.967  0.1619  0.3185  0.7547
 6891TIP3    H242165   4.051   2.206  11.900  0.0811  1.7405  1.9186
 6892TIP3   OH242166   6.933   5.481  15.368 -0.2901  0.1520 -0.1437
 6892TIP3    H142167   6.846   5.508  15.338 -0.4978  0.4285  0.6916
 6892TIP3    H242168   6.917   5.403  15.421 -0.0252  0.1851 -0.0154
 6893TIP3   OH242169   1.383   6.165  14.239  0.0364  0.0566  0.1120
 6893TIP3    H142170   1.400   6.153  14.333  0.0991 -0.0426  0.0888
 6893TIP3    H242171   1.468   6.188  14.202 -0.0441  0.3732  0.1238
 6894TIP3   OH242172   2.663   2.872   1.886 -0.0572  0.1225  0.1663
 6894TIP3    H142173   2.607   2.913   1.820  0.3150 -1.1972 -1.0073
 6894TIP3    H242174   2.749   2.867   1.844  0.4515  0.2865  1.1799
 6895TIP3   OH242175   5.539   1.984  12.815 -0.4562 -0.6461  0.1736
 6895TIP3    H142176   5.461   2.039  12.824 -0.7840 -0.7574 -1.8573
 6895TIP3    H242177   5.604   2.025  12.872 -1.2302  0.8414 -0.0009
 6896TIP3   OH242178   2.180   0.552  15.474  0.1589  0.6553 -0.4385
 6896TIP3    H142179   2.174   0.483  15.539  3.2767  0.1586 -0.6117
 6896TIP3    H242180   2.222   0.511  15.398  2.1430  2.7091 -0.5204
 6897TIP3   OH242181   5.287   5.669  14.379  0.4365 -0.9305  0.8187
 6897TIP3    H142182   5.192   5.659  14.381 -0.1486  2.1390 -3.3994
 6897TIP3    H242183   5.320   5.583  14.352 -1.3476 -1.4132  0.1213
 6898TIP3   OH242184   0.148   3.672  12.930  0.2800  0.4934 -0.0598
 6898TIP3    H142185   0.192   3.751  12.963  1.1208 -0.5158  1.3156
 6898TIP3    H242186   0.079   3.655  12.994  0.2973 -0.0427 -0.1843
 6899TIP3   OH242187   3.767   5.223  11.105  0.1749 -0.6050  0.3960
 6899TIP3    H142188   3.754   5.162  11.178 -1.2629 -0.7163  0.0427
 6899TIP3    H242189   3.849   5.194  11.065  0.9945 -0.5419  1.9624
 6900TIP3   OH242190   4.326   6.331   3.503 -0.3766  0.2327 -0.3139
 6900TIP3    H142191   4.290   6.394   3.441  1.4184  2.5472  0.9202
 6900TIP3    H242192   4.420   6.331   3.485 -0.1686 -0.9779  0.7027
 6901TIP3   OH242193   6.639   4.691  13.291 -0.4586  0.0339  0.6225
 6901TIP3    H142194   6.650   4.734  13.376 -0.2287  0.8996  0.1734
 6901TIP3    H242195   6.574   4.623  13.306 -0.7024  0.4287  1.4057
 6902TIP3   OH242196   5.479   1.684  13.463 -0.4909  0.0599 -0.5612
 6902TIP3    H142197   5.468   1.599  13.420 -0.2861  0.9014 -2.3187
 6902TIP3    H242198   5.398   1.731  13.443 -0.7711  0.1452  0.7467
 6903TIP3   OH242199   0.294   4.058  14.972  0.3328 -0.1718 -0.2030
 6903TIP3    H142200   0.307   4.039  15.065 -1.5795 -2.2546 -0.3068
 6903TIP3    H242201   0.369   4.112  14.947  1.3167 -0.3133  2.3337
 6904TIP3   OH242202   1.943   4.418   2.071 -0.5167 -0.0027 -0.3564
 6904TIP3    H142203   2.018   4.455   2.024 -0.7647 -2.3084 -2.6828
 6904TIP3    H242204   1.872   4.480   2.055 -0.3390 -0.2600 -2.2672
 6905TIP3   OH242205   3.609   4.080   1.345  0.0473 -0.2207  0.1975
 6905TIP3    H142206   3.611   3.995   1.303 -0.2601 -0.4174  0.5803
 6905TIP3    H242207   3.611   4.143   1.273 -0.7790 -0.5517 -0.1203
 6906TIP3   OH242208   4.689   6.477  11.986 -0.8397  0.2077  0.8622
 6906TIP3    H142209   4.749   6.403  11.995  1.0694  1.7388  1.1896
 6906TIP3    H242210   4.746   6.551  11.964 -2.4935  1.9365  2.2475
 6907TIP3   OH242211   3.111   1.952   0.298 -0.1734  0.4108 -0.2923
 6907TIP3    H142212   3.045   1.899   0.253 -0.4063  0.1373  0.3776
 6907TIP3    H242213   3.192   1.933   0.251 -0.0824 -1.2334  0.4965
 6908TIP3   OH242214   4.322   6.594   1.599 -0.2180 -0.0687  0.4508
 6908TIP3    H142215   4.329   6.528   1.668 -0.3200  0.4389  0.9521
 6908TIP3    H242216   4.409   6.596   1.559  0.0907  0.2487  1.1351
 6909TIP3   OH242217   6.672   2.653  13.505 -0.0418 -0.5875  0.2580
 6909TIP3    H142218   6.607   2.680  13.441 -0.3184  1.5672  1.4311
 6909TIP3    H242219   6.624   2.598  13.567 -0.3833 -0.3230  0.2251
 6910TIP3   OH242220   4.248   1.857  15.542  0.4685 -0.2556 -0.3734
 6910TIP3    H142221   4.295   1.894  15.616 -1.7415  0.2860  0.7997
 6910TIP3    H242222   4.204   1.780  15.577  1.8736 -1.7764 -1.8767
 6911TIP3   OH242223   6.096   4.020  11.170 -0.4003 -0.6644  0.4154
 6911TIP3    H142224   6.011   3.983  11.191 -0.7108 -1.6667 -2.3261
 6911TIP3    H242225   6.077   4.106  11.133 -0.0875 -0.1907  1.3326
 6912TIP3   OH242226   4.145   2.917   2.338  0.2449 -0.2023 -0.1575
 6912TIP3    H142227   4.076   2.950   2.397 -0.3426 -1.6876  0.0126
 6912TIP3    H242228   4.099   2.896   2.257  1.0644  1.8836 -1.2135
 6913TIP3   OH242229   3.568   4.382  14.804 -0.3400 -0.1122 -0.6861
 6913TIP3    H142230   3.511   4.419  14.736 -1.5609 -1.2569 -0.3096
 6913TIP3    H242231   3.581   4.454  14.866 -2.5587 -0.2201 -0.0467
 6914TIP3   OH242232   2.676   2.773   0.926  0.1386 -0.0636  0.1695
 6914TIP3    H142233   2.702   2.739   1.011  2.0327  1.5415  0.2783
 6914TIP3    H242234   2.581   2.783   0.931  0.3025  0.5772  2.2971
 6915TIP3   OH242235   0.182   0.817  15.233 -0.6161  0.0469 -0.5346
 6915TIP3    H142236   0.150   0.761  15.303 -0.5067  0.9065  0.2151
 6915TIP3    H242237   0.210   0.757  15.164 -1.3553 -0.7848 -0.1194
 6916TIP3   OH242238   5.904   0.382  11.377 -0.5351  0.1875  0.2319
 6916TIP3    H142239   5.810   0.399  11.369 -0.6491 -0.2663  0.5426
 6916TIP3    H242240   5.928   0.416  11.463 -0.0338  1.9463 -0.5942
 6917TIP3   OH242241   3.879   2.832   3.184  0.0512 -0.6956 -0.4401
 6917TIP3    H142242   3.947   2.769   3.209  0.3414 -0.8573 -1.5805
 6917TIP3    H242243   3.856   2.877   3.265  1.5975 -0.5812 -0.0549
 6918TIP3   OH242244   4.815   1.814  13.198  0.2420  0.0062  0.0187
 6918TIP3    H142245   4.819   1.835  13.105 -0.0459 -0.8260 -0.1811
 6918TIP3    H242246   4.906   1.806  13.225  0.3022 -0.6611 -0.3922
 6919TIP3   OH242247   5.863   6.841  10.841 -0.1798  0.3612 -0.7069
 6919TIP3    H142248   5.942   6.788  10.831  0.3562  1.2999 -1.3607
 6919TIP3    H242249   5.852   6.886  10.758 -2.0378 -0.6229 -1.0249
 6920TIP3   OH242250   0.776   5.598   0.051  0.4280 -0.3109 -0.2511
 6920TIP3    H142251   0.861   5.553   0.047  0.6581 -0.2844  2.9069
 6920TIP3    H242252   0.765   5.637  -0.035  3.3073 -0.8973 -0.9297
 6921TIP3   OH242253   4.323   6.061   0.723 -0.1534  0.4682 -0.1459
 6921TIP3    H142254   4.295   6.124   0.657 -1.2015 -0.5330 -0.6540
 6921TIP3    H242255   4.408   6.030   0.692  0.2399  1.4149 -0.0354
 6922TIP3   OH242256   4.028   0.494  12.847 -0.1418  0.6505 -0.5380
 6922TIP3    H142257   4.069   0.572  12.884  2.0405 -0.6661 -0.1309
 6922TIP3    H242258   4.046   0.424  12.910 -0.4035 -0.5988 -1.8158
 6923TIP3   OH242259   5.022   6.031  13.975  0.4389  0.1964  0.5528
 6923TIP3    H142260   5.067   6.003  14.055 -1.6444 -1.5446  1.1612
 6923TIP3    H242261   5.044   5.963  13.911  2.1140  1.5972 -0.3837
 6924TIP3   OH242262   5.860   1.731  15.211 -0.4035  0.2673 -0.0762
 6924TIP3    H142263   5.880   1.676  15.286 -1.0793  0.0997 -0.0106
 6924TIP3    H242264   5.932   1.793  15.206  0.7774 -1.1239 -0.6180
 6925TIP3   OH242265   6.835   0.593   1.511 -0.2717 -0.0761 -0.1532
 6925TIP3    H142266   6.851   0.498   1.514  1.7192  0.2142 -0.9812
 6925TIP3    H242267   6.876   0.627   1.590 -1.2935  0.0675  0.3244
 6926TIP3   OH242268   0.731   1.098  14.378 -0.2639  0.2747 -0.0014
 6926TIP3    H142269   0.747   1.121  14.470 -2.9196  0.4114  0.4767
 6926TIP3    H242270   0.753   1.005  14.373 -1.0927  0.0028  1.0576
 6927TIP3   OH242271   6.318   5.217   0.421  0.2100 -0.1669 -0.6034
 6927TIP3    H142272   6.390   5.238   0.480  0.5032 -0.4262 -0.8686
 6927TIP3    H242273   6.240   5.249   0.466  0.3391 -1.0958  0.2957
 6928TIP3   OH242274   6.001   4.821  13.016  0.5973  0.5613  0.8096
 6928TIP3    H142275   5.922   4.865  13.047 -0.0196  1.5498 -2.0756
 6928TIP3    H242276   6.072   4.883  13.032  0.6262  0.1803  2.2264
 6929TIP3   OH242277   6.600   2.813  10.795  0.4010  0.1497 -0.5824
 6929TIP3    H142278   6.553   2.742  10.839  0.5289 -0.2314 -1.0653
 6929TIP3    H242279   6.633   2.774  10.714  0.1777  0.8535 -1.0159
 6930TIP3   OH242280   0.304   3.928  14.392 -0.5911  0.4383 -0.4352
 6930TIP3    H142281   0.215   3.911  14.422 -0.3142  1.7895  1.2136
 6930TIP3    H242282   0.296   4.002  14.332 -0.9914 -1.5526 -2.9330
 6931TIP3   OH242283   6.198   4.120  12.470  0.1897  0.2861 -0.5650
 6931TIP3    H142284   6.134   4.054  12.444 -0.0756 -0.1350  1.1159
 6931TIP3    H242285   6.165   4.202  12.434 -0.8158 -0.0755 -0.4650
 6932TIP3   OH242286   2.165   1.659  14.988  0.6383  0.7836 -0.3076
 6932TIP3    H142287   2.115   1.740  14.995  1.0614  1.1582 -1.4845
 6932TIP3    H242288   2.107   1.591  15.022 -0.3018  1.3595 -0.7649
 6933TIP3   OH242289   6.992   4.808  14.255  0.2371  0.2553 -0.0917
 6933TIP3    H142290   6.916   4.866  14.264  0.6473  0.6495  0.9852
 6933TIP3    H242291   7.058   4.846  14.314  0.7847 -0.8696  0.0416
 6934TIP3   OH242292   4.233   1.009  12.384 -0.3856 -0.0435 -0.4755
 6934TIP3    H142293   4.317   1.035  12.345  0.1653 -0.7905  0.1840
 6934TIP3    H242294   4.176   1.084  12.370  0.6544  0.8186 -0.1710
 6935TIP3   OH242295   2.465   4.046  13.206  0.2596  0.1918 -0.1006
 6935TIP3    H142296   2.392   4.058  13.146 -0.5498 -0.1349  0.8036
 6935TIP3    H242297   2.530   3.996  13.156 -0.5234 -0.3202 -0.6057
 6936TIP3   OH242298   2.280   2.322  14.007 -0.4869  0.5087 -0.9519
 6936TIP3    H142299   2.190   2.348  14.027 -0.6040 -1.0626  0.6758
 6936TIP3    H242300   2.320   2.400  13.968 -2.2689  1.5126 -0.7831
 6937TIP3   OH242301   0.549   3.892   1.141  0.0521 -0.0727 -0.4063
 6937TIP3    H142302   0.617   3.908   1.075 -1.2454  1.6193 -1.3404
 6937TIP3    H242303   0.505   3.813   1.110 -0.5340  0.6937 -1.5639
 6938TIP3   OH242304   4.914   3.702  13.534  0.1344 -0.2761 -0.0654
 6938TIP3    H142305   4.849   3.636  13.557  1.2620 -1.5379 -0.4457
 6938TIP3    H242306   4.997   3.655  13.532  1.1059  1.3691  0.6428
 6939TIP3   OH242307   4.796   2.428  12.715 -0.1941  0.0964 -0.2091
 6939TIP3    H142308   4.843   2.362  12.767  1.4536 -0.8240 -2.7871
 6939TIP3    H242309   4.865   2.486  12.684 -1.0343  0.0147 -2.2505
 6940TIP3   OH242310   4.382   4.132   0.342  0.0865 -0.2371  0.1266
 6940TIP3    H142311   4.357   4.218   0.309  0.9465  0.9113  2.3169
 6940TIP3    H242312   4.298   4.088   0.360 -0.3731  0.7106  0.3514
 6941TIP3   OH242313   4.813   3.904  11.818  0.2421  0.1503 -0.3815
 6941TIP3    H142314   4.860   3.956  11.753 -0.4165  1.2941  0.0441
 6941TIP3    H242315   4.737   3.870  11.770  0.6391 -0.3630 -0.6435
 6942TIP3   OH242316   3.062   2.970   1.281 -0.0279 -0.1008 -0.0660
 6942TIP3    H142317   3.052   2.879   1.251 -0.0298 -0.2327  0.3302
 6942TIP3    H242318   3.157   2.985   1.278  0.1162 -0.6466  1.3979
 6943TIP3   OH242319   4.683   2.677  13.881 -0.1016  0.0387  0.2187
 6943TIP3    H142320   4.619   2.726  13.932 -1.2404  0.1653 -1.3049
 6943TIP3    H242321   4.633   2.604  13.844  0.9978 -0.7916  0.3503
 6944TIP3   OH242322   3.559   2.714   2.317 -0.1581  0.3181  0.1581
 6944TIP3    H142323   3.504   2.637   2.333 -0.9075  0.8654  0.2616
 6944TIP3    H242324   3.645   2.691   2.352 -0.6432 -0.1032  1.0744
 6945TIP3   OH242325   3.568   0.433  13.354  0.3002  0.3023 -0.1777
 6945TIP3    H142326   3.519   0.510  13.326  0.6595  0.0916 -1.4025
 6945TIP3    H242327   3.653   0.467  13.382  0.5117  0.3457 -0.8579
 6946TIP3   OH242328   6.007   1.129  10.184 -0.1063  0.1731  0.4051
 6946TIP3    H142329   5.915   1.140  10.160  0.5665  0.2450 -2.3293
 6946TIP3    H242330   6.037   1.055  10.131  1.8422  1.2554 -0.0588
 6947TIP3   OH242331   2.780   0.766  12.464  0.6088 -0.2039  0.1805
 6947TIP3    H142332   2.820   0.680  12.474  0.6766 -0.2864 -0.7458
 6947TIP3    H242333   2.807   0.795  12.376 -0.5731  0.1416 -0.0786
 6948TIP3   OH242334   1.872   2.277  13.558 -0.5206 -0.3018  0.0848
 6948TIP3    H142335   1.847   2.365  13.584 -0.4695 -0.3522  0.3064
 6948TIP3    H242336   1.953   2.287  13.508 -0.4777 -0.2298  0.1691
 6949TIP3   OH242337   2.204   2.379  11.693 -0.1252  0.5026 -0.1564
 6949TIP3    H142338   2.119   2.424  11.694 -0.0481  0.6783 -0.8295
 6949TIP3    H242339   2.196   2.311  11.759 -0.6644  0.7545  0.0449
 6950TIP3   OH242340   4.586   1.855  14.143 -0.4642 -0.2652 -0.2778
 6950TIP3    H142341   4.527   1.790  14.104 -1.0514 -0.1806  0.4498
 6950TIP3    H242342   4.528   1.926  14.172 -0.0129 -0.1897  0.4646
 6951TIP3   OH242343   5.924   2.806  13.745 -0.8746  0.2456 -0.0339
 6951TIP3    H142344   5.949   2.761  13.827 -1.5115  1.3117  0.7578
 6951TIP3    H242345   5.952   2.896  13.759  1.0686 -0.0442 -1.9125
 6952TIP3   OH242346   3.649   2.469  11.203  0.5527 -0.4902  0.0691
 6952TIP3    H142347   3.596   2.500  11.276  0.3727 -0.3841 -0.1088
 6952TIP3    H242348   3.632   2.530  11.132  0.2557 -0.9547 -0.2582
 6953TIP3   OH242349   5.014   1.436  11.685 -0.0901 -0.0913  0.2151
 6953TIP3    H142350   4.954   1.368  11.715  1.2542 -1.6391 -0.5413
 6953TIP3    H242351   5.066   1.395  11.617  2.1054  1.0724  1.1155
 6954TIP3   OH242352   2.670   2.886  13.725  0.1404 -0.1321 -0.6436
 6954TIP3    H142353   2.764   2.908  13.728  0.2820 -0.6357 -1.2451
 6954TIP3    H242354   2.640   2.923  13.643 -0.1985  0.0514 -0.4366
 6955TIP3   OH242355   7.159   2.573  12.554  0.0063 -0.0979  0.2868
 6955TIP3    H142356   7.131   2.640  12.617  2.2383 -0.4549  1.7096
 6955TIP3    H242357   7.207   2.621  12.487  0.1953 -0.0803  0.4362
 6956TIP3   OH242358   3.616   0.644  14.610 -0.0514 -0.0404  0.2596
 6956TIP3    H142359   3.695   0.696  14.593  0.7351 -1.1741  0.3708
 6956TIP3    H242360   3.565   0.651  14.530 -0.1228  1.1808  0.3958
 6957TIP3   OH242361   4.396   6.488   2.354  0.0038 -0.2270 -0.0528
 6957TIP3    H142362   4.381   6.424   2.424 -2.2886 -0.1130 -0.3984
 6957TIP3    H242363   4.491   6.496   2.348  0.2385 -0.9499  2.4044
 6958TIP3   OH242364   5.086   5.181   0.254  0.0848  0.8650  0.2719
 6958TIP3    H142365   5.093   5.169   0.349 -2.4569 -1.8944  0.1801
 6958TIP3    H242366   5.015   5.245   0.243 -3.7324 -3.1620  0.1970
 6959TIP3   OH242367   4.037   1.902   3.037 -0.0486 -0.3258  0.6010
 6959TIP3    H142368   4.075   1.819   3.063  0.4930  0.0713  1.1013
 6959TIP3    H242369   4.052   1.907   2.943  2.5305  0.5155  1.0331
 6960TIP3   OH242370   4.689   1.194   1.342 -0.4451  0.6832  0.5851
 6960TIP3    H142371   4.768   1.195   1.396  0.0235 -0.0675 -0.0912
 6960TIP3    H242372   4.719   1.168   1.255 -1.3014  1.2664  0.1079
 6961TIP3   OH242373   1.778   4.381  14.121 -0.3791 -0.1887 -0.2760
 6961TIP3    H142374   1.792   4.399  14.214  0.9392  1.9478 -0.8519
 6961TIP3    H242375   1.859   4.340  14.092 -0.9941 -1.3504 -0.3884
 6962TIP3   OH242376   4.845   3.826  10.223 -0.2704 -0.3396  0.3990
 6962TIP3    H142377   4.772   3.808  10.165 -2.1217  1.6695  2.0150
 6962TIP3    H242378   4.817   3.791  10.308  0.5606  0.6015  1.0664
 6963TIP3   OH242379   0.484   0.800   0.370  0.4181 -0.1690  0.0073
 6963TIP3    H142380   0.528   0.830   0.290  0.7134 -0.7929 -0.0682
 6963TIP3    H242381   0.402   0.762   0.339  1.2093 -1.7869 -0.1601
 6964TIP3   OH242382   4.927   5.326  15.555  0.4973  0.5679 -0.0712
 6964TIP3    H142383   4.843   5.295  15.591  0.1843 -0.0507 -1.3028
 6964TIP3    H242384   4.907   5.413  15.520 -0.0191 -0.1934 -1.7254
 6965TIP3   OH242385   2.132   3.169   1.305  0.2401 -0.2028  0.2550
 6965TIP3    H142386   2.098   3.099   1.248 -0.9927  0.1889  0.4974
 6965TIP3    H242387   2.127   3.132   1.393 -1.2053  0.4767  0.4758
 6966TIP3   OH242388   3.343   3.740  11.783 -0.2005  0.0424 -0.2628
 6966TIP3    H142389   3.297   3.783  11.855 -0.3783  0.0445 -0.3770
 6966TIP3    H242390   3.350   3.649  11.811  0.4803  0.2132  0.1319
 6967TIP3   OH242391   2.423   3.695  13.417 -0.3193 -0.1834 -0.0479
 6967TIP3    H142392   2.514   3.720  13.405 -1.1811  3.3681  0.0410
 6967TIP3    H242393   2.402   3.722  13.507 -1.4281 -1.0571 -0.0307
 6968TIP3   OH242394   0.626   4.981  15.354  0.1408 -0.1753 -0.3250
 6968TIP3    H142395   0.713   4.940  15.364  0.8217  0.9317 -1.4747
 6968TIP3    H242396   0.632   5.063  15.403  0.5064  0.9538 -2.1926
 6969TIP3   OH242397   4.580   4.469  11.503  0.0824  0.6318  0.1088
 6969TIP3    H142398   4.539   4.518  11.574  0.2855 -2.3870  2.3669
 6969TIP3    H242399   4.507   4.431  11.455  0.0604 -0.0139  0.6589
 6970TIP3   OH242400   5.521   1.806  12.344 -0.7747  0.0550  0.0080
 6970TIP3    H142401   5.541   1.832  12.254 -0.4496  2.8747  0.8523
 6970TIP3    H242402   5.441   1.855  12.366 -0.5546 -0.2078  1.4280
 6971TIP3   OH242403   4.055   0.917  14.623  0.0572  0.2213 -0.5357
 6971TIP3    H142404   3.983   0.978  14.608 -0.8499 -0.9417 -0.9310
 6971TIP3    H242405   4.049   0.854  14.552  0.0522 -1.2238  0.7233
 6972TIP3   OH242406   6.981   0.509  15.596 -0.1498 -0.4027  0.2078
 6972TIP3    H142407   6.919   0.437  15.605 -0.7755 -0.0038 -0.9133
 6972TIP3    H242408   6.945   0.580  15.650  0.7216 -1.0644  1.7178
 6973TIP3   OH242409   7.050   6.215  13.674  0.3132  0.1712 -0.6485
 6973TIP3    H142410   7.049   6.222  13.769 -0.5861  0.2312 -0.6607
 6973TIP3    H242411   7.141   6.192  13.653  1.2366  2.9855  0.0139
 6974TIP3   OH242412   2.777   3.731  13.779 -0.2244 -0.2627  0.3045
 6974TIP3    H142413   2.793   3.769  13.693  1.3607 -1.2740  0.1167
 6974TIP3    H242414   2.760   3.806  13.836  0.6220  0.5606 -0.5044
 6975TIP3   OH242415   5.096   2.354  13.218  0.2225 -0.4663 -0.3297
 6975TIP3    H142416   5.090   2.418  13.147  0.4722 -0.7975 -0.6515
 6975TIP3    H242417   5.154   2.394  13.282 -0.1037 -0.1099 -0.2563
 6976TIP3   OH242418   3.652   4.146  13.659 -0.0158  0.6271 -0.3130
 6976TIP3    H142419   3.579   4.138  13.598  0.0179 -0.7282 -0.2000
 6976TIP3    H242420   3.721   4.189  13.608  0.3642 -1.4089 -1.5629
 6977TIP3   OH242421   3.924   6.442  14.567 -0.6366  0.6621 -0.3508
 6977TIP3    H142422   3.934   6.427  14.661  0.2831 -1.3867 -0.7450
 6977TIP3    H242423   4.013   6.453  14.534 -0.7336 -1.3562 -1.3779
 6978TIP3   OH242424   6.930   3.005  15.246  0.0348 -0.3355  0.1586
 6978TIP3    H142425   6.888   3.091  15.250  0.7534 -0.0076  0.9423
 6978TIP3    H242426   7.013   3.021  15.201  0.6274 -0.4139  1.1980
 6979TIP3   OH242427   1.425   4.403  10.339 -0.2746  0.2852  0.0204
 6979TIP3    H142428   1.456   4.313  10.330 -1.6901 -0.0981 -1.2275
 6979TIP3    H242429   1.480   4.453  10.279 -0.7389 -0.0698 -0.7120
 6980TIP3   OH242430   5.137   2.756  13.802 -0.0148 -0.6149  0.0992
 6980TIP3    H142431   5.066   2.769  13.865  1.0066 -1.0974  1.3856
 6980TIP3    H242432   5.174   2.671  13.827  1.6421  0.0959  0.0869
 6981TIP3   OH242433   3.013   5.690  11.122  0.0788  0.5631  0.2910
 6981TIP3    H142434   2.951   5.722  11.057 -2.0840 -1.1264  1.4671
 6981TIP3    H242435   2.996   5.743  11.200 -0.8928 -0.8400  1.0542
 6982TIP3   OH242436   6.047   6.079  14.881  0.0872 -0.4804  0.1822
 6982TIP3    H142437   6.139   6.053  14.873  0.0851 -0.1286 -1.1613
 6982TIP3    H242438   6.001   6.026  14.816 -0.7370 -1.0107  1.1961
 6983TIP3   OH242439   6.009   5.209  14.554  0.3966 -0.2976  0.8122
 6983TIP3    H142440   6.080   5.152  14.526  0.8863 -0.1303  1.7040
 6983TIP3    H242441   5.981   5.254  14.475  2.9818  1.5304  0.8916
 6984TIP3   OH242442   4.601   2.721   0.648 -0.3964  0.0476  0.3246
 6984TIP3    H142443   4.559   2.766   0.574  0.4399 -0.2900 -0.3581
 6984TIP3    H242444   4.695   2.723   0.627 -0.2017 -0.4737  1.1434
 6985TIP3   OH242445   3.606   6.385  12.534  0.0138  0.1461 -0.3491
 6985TIP3    H142446   3.645   6.359  12.618 -2.5125 -0.7949  0.5914
 6985TIP3    H242447   3.665   6.349  12.468  0.6486 -1.4350  1.0341
 6986TIP3   OH242448   0.824   1.050   0.727  0.6739  0.2719  0.2517
 6986TIP3    H142449   0.814   1.095   0.643 -1.2379 -1.7513 -0.6589
 6986TIP3    H242450   0.777   1.106   0.789  0.2326  0.6637 -0.4239
 6987TIP3   OH242451   1.698   2.481   1.110  0.1431 -0.6161  0.5268
 6987TIP3    H142452   1.653   2.419   1.052  3.1607 -0.8382 -1.6986
 6987TIP3    H242453   1.668   2.457   1.198 -1.3701 -3.0065 -0.5698
 6988TIP3   OH242454   6.338   1.434  10.754 -0.0185 -0.1149  0.0524
 6988TIP3    H142455   6.255   1.419  10.709 -0.3017 -1.0997  0.9078
 6988TIP3    H242456   6.405   1.400  10.694 -0.0129  2.8066 -1.7043
 6989TIP3   OH242457   3.050   2.462  10.821  0.5245  0.3840 -0.0150
 6989TIP3    H142458   2.963   2.486  10.790  1.6100  2.8493 -1.2264
 6989TIP3    H242459   3.049   2.481  10.915  0.6289  3.0486 -0.5352
 6990TIP3   OH242460   2.743   1.136   0.095  0.4971  0.3693 -0.0058
 6990TIP3    H142461   2.655   1.100   0.098  1.1485 -1.0958  2.6593
 6990TIP3    H242462   2.751   1.173   0.007 -1.2999 -3.1867 -1.7512
 6991TIP3   OH242463   4.804   6.957  13.139  0.1498 -0.1084 -0.4901
 6991TIP3    H142464   4.802   6.962  13.235  1.4942  0.9693 -0.4947
 6991TIP3    H242465   4.725   7.003  13.111 -0.4208 -0.7122  0.1151
 6992TIP3   OH242466   2.375   1.965  14.709 -0.3009 -0.2580  0.5036
 6992TIP3    H142467   2.381   2.061  14.707  0.9219 -0.3426 -1.1007
 6992TIP3    H242468   2.312   1.943  14.641  0.6581 -0.6539 -0.2761
 6993TIP3   OH242469   2.716   2.128   1.039 -0.0806 -0.5385  0.1710
 6993TIP3    H142470   2.763   2.049   1.014  3.1749  1.3668 -0.0555
 6993TIP3    H242471   2.737   2.141   1.132 -0.2552  0.2296  0.1128
 6994TIP3   OH242472   0.234   5.417   2.019  0.0900 -0.3897  0.0550
 6994TIP3    H142473   0.271   5.349   2.075  1.4980  1.3065  1.2310
 6994TIP3    H242474   0.139   5.403   2.025  0.3334 -1.8776  0.7530
 6995TIP3   OH242475   5.175   0.357  14.851  0.0223 -0.4117  0.2011
 6995TIP3    H142476   5.115   0.325  14.918 -1.9114  0.2201 -1.1715
 6995TIP3    H242477   5.209   0.277  14.809  4.0921 -0.9982  4.1879
 6996TIP3   OH242478   4.059   3.249   0.150  0.4050  0.1422  0.1327
 6996TIP3    H142479   4.077   3.178   0.211  1.0986 -0.7940 -1.1387
 6996TIP3    H242480   4.034   3.323   0.206 -1.0754 -1.3090  1.4310
 6997TIP3   OH242481   2.170   2.683  15.457 -0.4356 -0.1315 -0.5421
 6997TIP3    H142482   2.192   2.603  15.409 -0.7655 -0.2464 -0.5040
 6997TIP3    H242483   2.248   2.702  15.509 -0.0909 -0.0304 -1.0925
 6998TIP3   OH242484   3.292   0.709  14.226 -0.4302 -0.4825 -0.6657
 6998TIP3    H142485   3.293   0.626  14.176 -1.9968 -0.5699 -0.5714
 6998TIP3    H242486   3.226   0.695  14.293  0.3449  0.3371  0.2660
 6999TIP3   OH242487   6.195   5.372  14.260  0.6451 -0.1362  0.1502
 6999TIP3    H142488   6.220   5.396  14.349 -0.9713  0.3665  0.4849
 6999TIP3    H242489   6.223   5.447  14.207  0.1081  0.3064  0.4836
 7000TIP3   OH242490   5.983   5.524   0.796 -0.2699  0.1313  0.5721
 7000TIP3    H142491   5.927   5.600   0.779 -1.3756 -0.8867 -0.4664
 7000TIP3    H242492   6.049   5.555   0.857 -0.0424  2.2295 -0.7150
 7001TIP3   OH242493   4.122   1.663  15.205  0.1025  0.3437 -0.3597
 7001TIP3    H142494   4.098   1.730  15.269 -0.8126  0.4477 -0.7933
 7001TIP3    H242495   4.079   1.584  15.237 -1.7685  0.7625 -1.7076
 7002TIP3   OH242496   1.216   2.243  14.285 -0.2523  0.0886 -0.6556
 7002TIP3    H142497   1.133   2.261  14.240 -0.7551 -0.6573 -0.0532
 7002TIP3    H242498   1.271   2.201  14.219 -0.9146 -0.8258 -0.6339
 7003TIP3   OH242499   4.141   3.504  10.235  0.5060  0.4173 -0.2824
 7003TIP3    H142500   4.144   3.586  10.283  0.7219  0.2177  0.0493
 7003TIP3    H242501   4.074   3.452  10.281  0.2875  0.4512 -0.5602
 7004TIP3   OH242502   5.041   2.386  14.696  0.3381  0.5305  0.0073
 7004TIP3    H142503   4.964   2.425  14.737 -0.4438 -0.2488 -0.6804
 7004TIP3    H242504   5.038   2.294  14.723  0.5960  0.3253 -0.6376
 7005TIP3   OH242505   5.650   3.073  11.331  0.4942 -0.3373 -0.2266
 7005TIP3    H142506   5.694   2.998  11.292  0.7803 -0.6569  0.6813
 7005TIP3    H242507   5.604   3.036  11.407  0.1879  0.3142 -0.0942
 7006TIP3   OH242508   0.413   3.089  15.360 -0.3650 -0.4577 -0.1166
 7006TIP3    H142509   0.421   3.062  15.268 -1.2412 -0.5472 -0.1755
 7006TIP3    H242510   0.465   3.025  15.408 -0.6451 -0.9641 -0.4714
 7007TIP3   OH242511   0.383   2.166   0.152  0.9700  1.2633 -0.2619
 7007TIP3    H142512   0.446   2.162   0.224 -0.6866 -0.8089  1.1530
 7007TIP3    H242513   0.311   2.108   0.180 -1.0449  2.6902 -2.2892
 7008TIP3   OH242514   4.754   0.019  15.033 -0.8666  0.6001  0.4181
 7008TIP3    H142515   4.717   0.047  15.117  0.3673  1.0786  0.8132
 7008TIP3    H242516   4.706   0.070  14.968 -2.3496 -0.3247  0.7741
 7009TIP3   OH242517   7.018   7.122  11.351  0.0776  0.4781 -0.2080
 7009TIP3    H142518   6.987   7.176  11.423  0.2291 -1.9309  1.7177
 7009TIP3    H242519   7.042   7.039  11.391 -1.8730 -1.7165 -3.3276
 7010TIP3   OH242520   7.119   6.485   0.722 -0.5695 -0.0364  0.5850
 7010TIP3    H142521   7.126   6.480   0.818  0.4145  0.8826  0.5695
 7010TIP3    H242522   7.027   6.504   0.706 -0.2360  2.6174  1.4941
 7011TIP3   OH242523   6.217   3.716   1.002 -0.3063  0.0646  0.2048
 7011TIP3    H142524   6.133   3.746   1.035 -0.3205  1.9762 -1.4392
 7011TIP3    H242525   6.281   3.752   1.063 -0.6526 -1.0937  1.2588
 7012TIP3   OH242526   3.602   6.443   0.070  0.2408 -0.1532 -0.5132
 7012TIP3    H142527   3.669   6.484   0.125 -0.5921  0.8759 -0.2452
 7012TIP3    H242528   3.644   6.366   0.034  0.6824 -1.1155  1.9557
 7013TIP3   OH242529   4.946   6.260  14.112 -0.4775 -0.0756  0.5088
 7013TIP3    H142530   4.889   6.281  14.038 -1.4427  0.0049  1.2574
 7013TIP3    H242531   4.989   6.178  14.086  1.5050  1.5218 -1.4082
 7014TIP3   OH242532   6.417   6.152  15.109  0.1481 -0.0230  0.1868
 7014TIP3    H142533   6.451   6.227  15.158 -0.2431 -0.2897  0.8879
 7014TIP3    H242534   6.458   6.075  15.151 -2.1572 -0.4282  1.8144
 7015TIP3   OH242535   6.307   6.902  13.346 -0.0132  0.2705  0.3845
 7015TIP3    H142536   6.308   6.998  13.357  0.4676  0.2114  0.8723
 7015TIP3    H242537   6.343   6.888  13.259 -0.6813  0.5666  0.0525
 7016TIP3   OH242538   0.975   5.249  14.535 -0.6874  0.2241 -0.4369
 7016TIP3    H142539   0.973   5.314  14.465 -0.4028  0.3902 -0.2931
 7016TIP3    H242540   0.920   5.177  14.503 -2.0645  1.0951 -0.0325
 7017TIP3   OH242541   6.480   6.040  13.318 -0.0076  0.3779 -0.1549
 7017TIP3    H142542   6.392   6.005  13.333 -0.4902  0.6651 -2.1835
 7017TIP3    H242543   6.528   5.968  13.278  0.3978  0.5346  0.0446
 7018TIP3   OH242544   3.467   0.715  11.074  0.1196 -0.4291 -0.3760
 7018TIP3    H142545   3.552   0.748  11.043 -0.5422 -0.2121 -2.0070
 7018TIP3    H242546   3.426   0.790  11.117 -0.0398  0.0168 -1.2832
 7019TIP3   OH242547   2.458   1.209  12.118 -0.0870 -0.2585  0.2404
 7019TIP3    H142548   2.547   1.191  12.087 -0.2521 -0.3791 -0.1784
 7019TIP3    H242549   2.406   1.213  12.037 -0.7124 -1.5900  0.5791
 7020TIP3   OH242550   6.031   4.745   1.259 -0.5950 -0.2158  0.0019
 7020TIP3    H142551   6.030   4.800   1.181  1.4919 -0.3696 -0.1621
 7020TIP3    H242552   6.077   4.666   1.232  0.8697  0.0724  1.5906
 7021TIP3   OH242553   6.580   2.114  14.301  0.1579 -0.2683  0.2140
 7021TIP3    H142554   6.530   2.033  14.291  0.3886 -0.2314 -1.4342
 7021TIP3    H242555   6.525   2.182  14.261  0.2151  0.2939  1.0801
 7022TIP3   OH242556   2.830   3.249  13.562 -0.8133  0.1200 -0.0404
 7022TIP3    H142557   2.829   3.240  13.467  0.7580  0.1241 -0.0787
 7022TIP3    H242558   2.819   3.342  13.578  0.3367  0.3070 -0.2832
 7023TIP3   OH242559   7.176   6.249  12.938  0.2360  0.1655  0.4070
 7023TIP3    H142560   7.179   6.158  12.967  0.0404 -0.8918 -2.6274
 7023TIP3    H242561   7.084   6.265  12.918  0.2028  1.1923  1.3410
 7024TIP3   OH242562   0.992   3.292  15.606 -0.3716  0.6890  0.1361
 7024TIP3    H142563   1.040   3.229  15.552 -0.3352 -0.3075  1.2913
 7024TIP3    H242564   0.923   3.326  15.549  0.0422  0.1155 -0.7134
 7025TIP3   OH242565   6.643   0.813  14.216  0.3305 -0.4682 -0.3450
 7025TIP3    H142566   6.645   0.907  14.202 -1.3648 -0.3608  0.0782
 7025TIP3    H242567   6.642   0.775  14.127 -0.7256 -0.0514 -0.5070
 7026TIP3   OH242568   2.846   5.660  14.945  0.2903  0.0715 -0.3276
 7026TIP3    H142569   2.938   5.653  14.920 -0.2168 -0.5072 -2.0870
 7026TIP3    H242570   2.817   5.570  14.955 -0.0775  0.2562  0.3184
 7027TIP3   OH242571   3.126   4.896  15.205  0.2174 -0.8109 -0.3408
 7027TIP3    H142572   3.141   4.951  15.129  0.5497 -1.3099 -0.6476
 7027TIP3    H242573   3.171   4.941  15.277 -0.3577 -0.1863 -0.3754
 7028TIP3   OH242574   2.412   6.646  14.107 -0.7454 -0.3061 -0.2880
 7028TIP3    H142575   2.480   6.579  14.103  0.4331  0.8746 -0.3189
 7028TIP3    H242576   2.387   6.650  14.200  0.8837  0.8669  0.1195
 7029TIP3   OH242577   5.481   6.056   0.857  0.5144 -0.4275 -0.0384
 7029TIP3    H142578   5.427   6.015   0.789  0.7053 -1.0092  0.1545
 7029TIP3    H242579   5.483   5.992   0.928  2.9321 -1.2054 -0.7552
 7030TIP3   OH242580   5.383   0.078   0.459  0.0416 -0.0831 -0.2593
 7030TIP3    H142581   5.425   0.142   0.516 -1.0355 -0.6833  1.2391
 7030TIP3    H242582   5.455   0.038   0.411  1.1749 -0.8189  1.9718
 7031TIP3   OH242583   4.923   3.290  11.720  0.2024  0.7185 -0.5567
 7031TIP3    H142584   4.877   3.284  11.804  0.0739 -1.3440 -0.7521
 7031TIP3    H242585   4.996   3.228  11.728  1.6310  2.2880 -1.0903
 7032TIP3   OH242586   1.554   0.409   1.280 -0.5051  0.4469  0.4018
 7032TIP3    H142587   1.507   0.328   1.302 -1.3760  0.7277 -0.3951
 7032TIP3    H242588   1.585   0.442   1.364  1.1474 -1.4972  0.5708
 7033TIP3   OH242589   4.254   6.121  14.932  0.7003 -0.0249 -0.1787
 7033TIP3    H142590   4.170   6.124  14.886  1.7490  0.3176 -2.1323
 7033TIP3    H242591   4.231   6.130  15.025 -1.5312 -1.5413 -0.5505
 7034TIP3   OH242592   0.862   6.157   5.294  0.1203  0.5093  0.1845
 7034TIP3    H142593   0.771   6.128   5.284 -0.5471  2.7494 -0.5696
 7034TIP3    H242594   0.868   6.186   5.385 -0.1572  1.0892  0.0226
 7035TIP3   OH242595   1.198   4.454  14.227  0.2127 -0.0329  0.5837
 7035TIP3    H142596   1.292   4.450  14.213  0.3526 -0.3844  1.5364
 7035TIP3    H242597   1.177   4.548  14.229  0.4162  0.0283 -0.4158
 7036TIP3   OH242598   3.909   0.137   0.355 -0.0720 -0.1558  0.2166
 7036TIP3    H142599   3.947   0.055   0.324  0.5573  0.3759 -0.4450
 7036TIP3    H242600   3.825   0.144   0.308 -1.0937 -1.4099  1.8014
 7037TIP3   OH242601   4.052   7.148   0.967 -0.5189  0.1509 -0.2557
 7037TIP3    H142602   3.987   7.191   1.023  1.2185  0.9561  1.2117
 7037TIP3    H242603   4.137   7.175   1.004  0.6369 -2.2968 -1.0161
 7038TIP3   OH242604   5.311   1.959  12.476 -0.5861  0.1310 -0.2050
 7038TIP3    H142605   5.234   2.002  12.512 -0.4607  1.6243 -1.6586
 7038TIP3    H242606   5.349   1.912  12.550 -2.3587  0.1419  0.7349
 7039TIP3   OH242607   4.684   0.142  14.411  0.4816  0.4068 -0.7551
 7039TIP3    H142608   4.695   0.193  14.331  0.0106  0.7502 -0.6037
 7039TIP3    H242609   4.746   0.181  14.473  0.9413  0.0568 -0.9861
 7040TIP3   OH242610   4.216   1.659  11.380 -0.0278 -0.1481  0.0293
 7040TIP3    H142611   4.127   1.622  11.380  0.5570 -1.6000 -0.7676
 7040TIP3    H242612   4.263   1.607  11.314  1.8334 -0.4053  1.5384
 7041TIP3   OH242613   1.615   0.013  13.090 -0.1470 -1.0630 -0.4819
 7041TIP3    H142614   1.535  -0.007  13.041  0.9474 -0.7362 -2.4422
 7041TIP3    H242615   1.651  -0.072  13.114 -1.4051 -1.2096  1.0078
 7042TIP3   OH242616   0.131   6.759  10.764 -0.5591 -0.4341  0.8548
 7042TIP3    H142617   0.157   6.851  10.756  1.5568 -0.7275  3.6827
 7042TIP3    H242618   0.154   6.720  10.680  0.0404  1.2489  0.2101
 7043TIP3   OH242619   5.292   6.235  14.861 -0.4847  0.4731 -0.5331
 7043TIP3    H142620   5.379   6.264  14.833  0.2396 -1.5069 -0.3530
 7043TIP3    H242621   5.305   6.204  14.951 -1.6046  1.1438 -0.1212
 7044TIP3   OH242622   3.537   1.263  12.955  0.2568 -0.0401 -0.3768
 7044TIP3    H142623   3.605   1.228  12.898 -0.2720 -0.1605 -0.9364
 7044TIP3    H242624   3.506   1.342  12.911 -1.0225 -0.8154 -0.8953
 7045TIP3   OH242625   5.914   5.910  14.655 -0.0832  0.3237 -0.3172
 7045TIP3    H142626   5.864   5.849  14.709 -0.4919  0.3339 -0.6767
 7045TIP3    H242627   5.847   5.960  14.608  0.2138  1.5428  0.4983
 7046TIP3   OH242628   5.201   1.692  14.613 -0.8458  0.0125  0.3661
 7046TIP3    H142629   5.189   1.778  14.573  0.5004  0.0338 -0.0020
 7046TIP3    H242630   5.113   1.653  14.612 -1.5076  1.4501  0.7131
 7047TIP3   OH242631   4.300   4.659   0.434 -0.2947  0.4656  0.9313
 7047TIP3    H142632   4.355   4.727   0.395  0.3337 -1.2652 -1.2583
 7047TIP3    H242633   4.221   4.658   0.381  0.0467 -1.0584  0.4202
 7048TIP3   OH242634   1.460   1.030   4.153  0.0784  0.1740  0.2952
 7048TIP3    H142635   1.473   0.936   4.138  0.0951  0.1291  0.5861
 7048TIP3    H242636   1.548   1.067   4.144  0.1331  0.1093  0.5367
 7049TIP3   OH242637   4.482   3.532  12.255  0.2877 -0.4904 -1.0148
 7049TIP3    H142638   4.397   3.489  12.245  0.6796 -0.9607 -2.4105
 7049TIP3    H242639   4.466   3.623  12.228  0.1193 -0.4536 -0.7940
 7050TIP3   OH242640   2.388   1.419  15.221  0.3600 -1.0113 -0.2398
 7050TIP3    H142641   2.300   1.441  15.253  0.3295 -2.3585  0.6149
 7050TIP3    H242642   2.375   1.399  15.128 -0.1988 -1.0504 -0.1558
 7051TIP3   OH242643   5.291   0.185  13.439 -0.2876 -0.2722  0.1678
 7051TIP3    H142644   5.212   0.188  13.492  0.4328 -0.5553  1.2777
 7051TIP3    H242645   5.351   0.128  13.487  0.2026 -0.9461 -1.2042
 7052TIP3   OH242646   1.159   3.756   0.337 -0.4856  0.2498  0.0446
 7052TIP3    H142647   1.211   3.833   0.315  0.2513 -0.1185  0.4598
 7052TIP3    H242648   1.115   3.779   0.419 -1.4951  0.8056 -0.6547
 7053TIP3   OH242649   2.538   6.702  13.089 -0.4238  0.2275 -0.3994
 7053TIP3    H142650   2.467   6.639  13.103  0.5581 -0.8032 -0.0013
 7053TIP3    H242651   2.493   6.783  13.064 -1.7260 -0.4938 -0.4572
 7054TIP3   OH242652   2.817   3.858  14.249 -0.2206 -0.6939  0.5487
 7054TIP3    H142653   2.880   3.929  14.236 -1.2008 -0.0006 -0.4478
 7054TIP3    H242654   2.854   3.807  14.322  0.9543  0.2995  0.6689
 7055TIP3   OH242655   1.360   5.586   0.558 -0.3834  0.1877 -0.6002
 7055TIP3    H142656   1.310   5.648   0.612 -0.8227 -1.3336  0.7886
 7055TIP3    H242657   1.293   5.536   0.512 -0.1621 -1.6612  1.0442
 7056TIP3   OH242658   2.763   7.131  15.188 -0.4902  0.1721 -0.0984
 7056TIP3    H142659   2.711   7.205  15.157 -0.9544  0.4681  1.3289
 7056TIP3    H242660   2.853   7.158  15.175 -0.6169  1.7800  2.1156
 7057TIP3   OH242661   5.107   2.604   2.831 -0.3304  0.5353 -0.2595
 7057TIP3    H142662   5.169   2.533   2.822 -1.4195 -0.4830  0.1346
 7057TIP3    H242663   5.150   2.680   2.791  2.1319  0.4654  2.1401
 7058TIP3   OH242664   6.585   2.696  12.334 -0.2322 -0.5608  0.0223
 7058TIP3    H142665   6.544   2.625  12.384 -2.9537 -0.4266 -1.8666
 7058TIP3    H242666   6.584   2.664  12.244  1.0473  0.7672 -0.4737
 7059TIP3   OH242667   7.191   6.022  12.193 -0.2103  0.1424 -0.6725
 7059TIP3    H142668   7.157   5.969  12.121  1.1429 -1.8848  0.1589
 7059TIP3    H242669   7.264   6.070  12.154  0.5615 -0.9993 -0.6335
 7060TIP3   OH242670   4.575   4.236  15.452 -0.0730 -0.1564  0.3297
 7060TIP3    H142671   4.517   4.237  15.529  0.3088 -0.5459  0.6226
 7060TIP3    H242672   4.516   4.220  15.378 -0.2568 -1.2029  0.7004
 7061TIP3   OH242673   0.609   1.819  12.012 -0.6329 -0.4176 -0.3299
 7061TIP3    H142674   0.588   1.748  12.073  2.3012 -1.7212 -0.7559
 7061TIP3    H242675   0.621   1.775  11.928 -2.7713  1.1424 -1.5164
 7062TIP3   OH242676   4.050   4.882   3.954 -0.8743  0.1938  0.0285
 7062TIP3    H142677   4.030   4.875   3.860  0.8289  0.5709 -0.3765
 7062TIP3    H242678   3.980   4.833   3.997 -1.7920  0.1864 -1.4275
 7063TIP3   OH242679   2.940   0.648  11.406 -0.1627  0.0758  0.1495
 7063TIP3    H142680   2.952   0.712  11.336 -1.6605  1.0713  0.7563
 7063TIP3    H242681   2.954   0.563  11.364 -0.5833  0.6822 -1.2445
 7064TIP3   OH242682   6.183   4.416  13.511  0.1641  0.2287  0.1546
 7064TIP3    H142683   6.091   4.394  13.497 -0.1412  0.2153  1.9492
 7064TIP3    H242684   6.220   4.338  13.554  1.7019 -0.8368 -2.9930
 7065TIP3   OH242685   2.189   0.473  12.245  0.0584  0.2596 -0.0124
 7065TIP3    H142686   2.283   0.467  12.230 -0.0259  0.3860 -0.5848
 7065TIP3    H242687   2.177   0.556  12.290  0.2568  0.0938  0.3492
 7066TIP3   OH242688   0.748   1.605  13.523  0.0050  0.1132 -0.0167
 7066TIP3    H142689   0.833   1.612  13.478  0.0753  0.5242  0.1797
 7066TIP3    H242690   0.695   1.674  13.484 -0.5098 -0.6830 -0.7298
 7067TIP3   OH242691   6.618   0.771  14.481  0.6667  0.1873 -0.0811
 7067TIP3    H142692   6.616   0.861  14.513  4.1166  1.1069 -2.2366
 7067TIP3    H242693   6.607   0.778  14.386 -0.5696 -1.8353 -0.1307
 7068TIP3   OH242694   1.293   6.687  10.258  0.1638  0.0449 -0.1310
 7068TIP3    H142695   1.331   6.714  10.341 -0.7494  0.9414 -0.0000
 7068TIP3    H242696   1.352   6.725  10.192 -0.1640  0.9488  0.0820
 7069TIP3   OH242697   1.036   2.797  11.718  0.8257  0.7001  0.1819
 7069TIP3    H142698   1.024   2.761  11.806 -0.7151 -1.5495 -0.8934
 7069TIP3    H242699   0.961   2.856  11.706 -0.2758 -0.7921 -0.4563
 7070TIP3   OH242700   3.024   6.900  15.531 -0.0069 -0.1995  0.4262
 7070TIP3    H142701   3.044   6.884  15.439  0.0478  0.1224  0.3849
 7070TIP3    H242702   3.097   6.953  15.563 -0.3566  0.2383  0.4938
 7071TIP3   OH242703   4.061   3.648   0.293  0.8490  0.1989 -0.7536
 7071TIP3    H142704   4.090   3.719   0.235 -0.0832  1.1337 -0.0910
 7071TIP3    H242705   3.973   3.674   0.321  1.2688 -0.2275  1.0670
 7072TIP3   OH242706   3.897   0.523   0.921  0.0918 -0.5997  0.0706
 7072TIP3    H142707   3.863   0.434   0.925  1.2662 -1.0363  0.3847
 7072TIP3    H242708   3.992   0.513   0.924  0.2340  0.6544 -0.0010
 7073TIP3   OH242709   0.719   0.327  11.543 -0.3280  0.2004 -0.2585
 7073TIP3    H142710   0.635   0.288  11.516 -0.1070 -0.1179 -0.4933
 7073TIP3    H242711   0.785   0.263  11.516 -0.1340 -0.3934  1.5609
 7074TIP3   OH242712   1.737   3.407   2.302 -0.2969  0.4647 -0.3524
 7074TIP3    H142713   1.725   3.490   2.255 -0.9818  0.0271 -0.9735
 7074TIP3    H242714   1.791   3.429   2.377 -2.8096  2.0433  1.0652
 7075TIP3   OH242715   3.963   0.126  12.236 -0.1913 -0.1549  0.3122
 7075TIP3    H142716   3.927   0.086  12.316 -2.0485 -1.4888 -1.1528
 7075TIP3    H242717   3.907   0.202  12.221 -0.6123 -0.6069 -0.4008
 7076TIP3   OH242718   6.911   3.159  13.483  0.1680 -0.1002  0.1504
 7076TIP3    H142719   6.881   3.076  13.447 -0.8141  0.5271 -0.4954
 7076TIP3    H242720   6.969   3.195  13.417  0.4181 -0.1645  0.3347
 7077TIP3   OH242721   5.807   0.334   0.069  0.1881  0.6854 -0.4815
 7077TIP3    H142722   5.768   0.296  -0.009  1.7408 -1.8447 -0.0942
 7077TIP3    H242723   5.763   0.290   0.142  1.3252  0.3104 -0.0059
 7078TIP3   OH242724   4.234   3.406  13.793  0.3209  0.0767  0.3061
 7078TIP3    H142725   4.328   3.406  13.813  0.3341 -3.2894  0.4627
 7078TIP3    H242726   4.228   3.363  13.708 -1.1749 -0.4894  0.6974
 7079TIP3   OH242727   5.568   4.097  13.589  0.1572  0.1787  0.2467
 7079TIP3    H142728   5.474   4.091  13.570 -0.2872  1.6007  1.8081
 7079TIP3    H242729   5.579   4.048  13.670  0.6859  0.3854  0.3017
 7080TIP3   OH242730   4.354   5.850  15.544  0.4647 -0.5478 -0.2176
 7080TIP3    H142731   4.335   5.876  15.454  2.6896 -0.6099 -0.7351
 7080TIP3    H242732   4.365   5.755  15.539  1.7484 -0.4046 -0.0942
 7081TIP3   OH242733   4.511   0.412  14.775  0.9083  0.3688  0.2683
 7081TIP3    H142734   4.429   0.381  14.813  0.5174  0.9857 -0.0721
 7081TIP3    H242735   4.548   0.469  14.842  0.8411  0.4440  0.2420
 7082TIP3   OH242736   2.457   3.232   1.001 -0.2236  0.6708 -0.4353
 7082TIP3    H142737   2.435   3.142   1.028  0.3436  0.9155  0.8953
 7082TIP3    H242738   2.492   3.273   1.081  1.1243  1.5583 -1.4585
 7083TIP3   OH242739   0.981   6.422  12.527  0.1402  0.0786  0.1222
 7083TIP3    H142740   0.914   6.463  12.472 -0.7606 -0.4498  0.8066
 7083TIP3    H242741   1.012   6.348  12.475 -1.2949 -0.9128  0.6294
 7084TIP3   OH242742   7.074   6.361   0.267 -0.0711  0.9488 -0.4187
 7084TIP3    H142743   7.011   6.388   0.334  1.0994 -0.8434  1.4867
 7084TIP3    H242744   7.031   6.291   0.220  0.3402 -0.0491  0.6655
 7085TIP3   OH242745   3.246   6.222  15.148 -0.5798 -0.3174  0.1580
 7085TIP3    H142746   3.244   6.205  15.054  0.0819  1.8482 -0.2855
 7085TIP3    H242747   3.154   6.235  15.172 -0.5666  1.3898 -0.6582
 7086TIP3   OH242748   2.626   6.742   0.899  0.5683 -0.2802 -0.1719
 7086TIP3    H142749   2.687   6.811   0.927  0.7785  0.1142 -1.5672
 7086TIP3    H242750   2.663   6.662   0.936  2.2160 -0.1118 -1.3639
 7087TIP3   OH242751   4.542   1.020   2.938  0.6513  0.8007 -0.3913
 7087TIP3    H142752   4.473   1.057   2.883  0.6911  2.5493  0.6861
 7087TIP3    H242753   4.621   1.068   2.914  1.3454 -0.6551 -1.0641
 7088TIP3   OH242754   4.506   7.137   0.841 -0.1599 -0.2424  0.2532
 7088TIP3    H142755   4.452   7.180   0.907 -0.2046  0.1312 -0.0189
 7088TIP3    H242756   4.519   7.048   0.874 -1.9883 -0.7363 -0.2868
 7089TIP3   OH242757   2.437   3.460   0.259 -0.1012  0.4553 -0.5020
 7089TIP3    H142758   2.398   3.454   0.346  0.3894  1.0388 -0.2384
 7089TIP3    H242759   2.527   3.427   0.271 -0.5526 -1.0722 -1.1417
 7090TIP3   OH242760   4.437   6.987   0.269 -0.0257 -0.0646  0.2541
 7090TIP3    H142761   4.477   6.945   0.345 -4.1525 -1.8834  1.6130
 7090TIP3    H242762   4.427   6.916   0.206 -0.7598  0.4089 -0.1609
 7091TIP3   OH242763   5.644   2.894  12.132  0.7886 -0.4507 -0.1067
 7091TIP3    H142764   5.645   2.802  12.157 -0.4760 -0.5769 -0.4772
 7091TIP3    H242765   5.603   2.895  12.046 -0.3369  0.5763  0.4249
 7092TIP3   OH242766   4.882   7.072  14.174 -0.2951  0.1089 -0.5333
 7092TIP3    H142767   4.842   7.159  14.167  0.2757  0.2672 -1.8663
 7092TIP3    H242768   4.906   7.065  14.267  0.2425  1.6406 -0.5372
 7093TIP3   OH242769   7.133   4.813  12.441 -0.1471  0.6571  0.2152
 7093TIP3    H142770   7.142   4.751  12.513  0.0364  0.9646  0.4547
 7093TIP3    H242771   7.124   4.898  12.483 -1.6565  0.6588 -0.0728
 7094TIP3   OH242772   1.485   6.095  14.466  0.2497  0.0719 -0.4812
 7094TIP3    H142773   1.477   6.066  14.557  0.1370  0.5139 -0.3506
 7094TIP3    H242774   1.569   6.058  14.437  0.2009 -0.2203 -0.2592
 7095TIP3   OH242775   5.399   4.002  12.578 -0.2076  1.0256 -0.5785
 7095TIP3    H142776   5.362   4.090  12.572  0.0527  0.9962 -3.1316
 7095TIP3    H242777   5.372   3.958  12.497  0.5953 -0.8870  0.1397
 7096TIP3   OH242778   3.524   4.201   0.467  0.5926  0.3381 -0.3903
 7096TIP3    H142779   3.586   4.204   0.540  1.4315  0.3950 -1.0936
 7096TIP3    H242780   3.440   4.221   0.506  1.3008  2.0954  0.2892
 7097TIP3   OH242781   6.035   3.493  14.958  0.4119  0.4945 -0.0019
 7097TIP3    H142782   6.023   3.471  14.866 -0.2411 -1.1805  0.4725
 7097TIP3    H242783   5.976   3.567  14.973  0.6161  0.8547 -0.9465
 7098TIP3   OH242784   5.040   2.423  12.035 -0.1133  0.0535  0.1964
 7098TIP3    H142785   5.045   2.513  12.003  1.4445 -0.4387 -1.0134
 7098TIP3    H242786   5.023   2.432  12.128 -0.6906  1.5964 -0.0426
 7099TIP3   OH242787   4.518   2.484  11.622 -0.0517 -0.0098 -0.2616
 7099TIP3    H142788   4.593   2.543  11.631  0.1273 -0.2230 -0.3328
 7099TIP3    H242789   4.476   2.486  11.708  1.2203 -1.4578  0.4185
 7100TIP3   OH242790   1.056   1.743  10.262 -1.0759  0.1794  0.7985
 7100TIP3    H142791   1.089   1.780  10.344 -0.4767 -0.0321  0.6631
 7100TIP3    H242792   0.964   1.723  10.279 -0.9922  0.2754  1.3692
 7101TIP3   OH242793   2.518   6.082  13.109  0.7928  0.1941 -0.4219
 7101TIP3    H142794   2.499   6.074  13.015 -0.1058 -2.2773 -0.0773
 7101TIP3    H242795   2.610   6.105  13.113  0.8593  0.2604 -1.9276
 7102TIP3   OH242796   6.195   6.952  14.908  0.3833  0.2788  0.0362
 7102TIP3    H142797   6.253   6.935  14.982  0.1622 -0.8245 -0.0339
 7102TIP3    H242798   6.255   6.960  14.833  0.7378  3.0442  0.5740
 7103TIP3   OH242799   2.508   1.198  13.074 -0.5104  0.0546  0.1018
 7103TIP3    H142800   2.539   1.199  12.984  1.0225  1.8898  0.6242
 7103TIP3    H242801   2.587   1.197  13.127 -1.3459  1.8829  1.4462
 7104TIP3   OH242802   1.463   2.556   2.589 -0.2405 -0.4464  0.3035
 7104TIP3    H142803   1.384   2.503   2.594 -0.3158 -0.3524  0.0887
 7104TIP3    H242804   1.518   2.523   2.660 -1.7829  1.6402  2.5597
 7105TIP3   OH242805   1.882   6.747  13.286  0.3128  0.2743  0.2656
 7105TIP3    H142806   1.790   6.718  13.283  0.3054  0.3229  0.0308
 7105TIP3    H242807   1.907   6.755  13.194  0.5435  0.2948  0.3321
 7106TIP3   OH242808   0.095   0.763   3.445 -0.3926 -0.2022 -0.0946
 7106TIP3    H142809   0.006   0.748   3.415 -0.0643  0.4137 -1.4103
 7106TIP3    H242810   0.150   0.743   3.369  0.5161  0.3586  0.3992
 7107TIP3   OH242811   0.356   4.310   2.954 -0.2966 -0.3402 -0.3997
 7107TIP3    H142812   0.306   4.390   2.965 -0.7443 -0.6573 -0.1375
 7107TIP3    H242813   0.412   4.327   2.878 -1.8324 -0.5129 -1.5759
 7108TIP3   OH242814   4.683   1.214   0.437 -0.2012  0.5128  0.1038
 7108TIP3    H142815   4.628   1.238   0.363 -1.4111 -0.8198  0.5555
 7108TIP3    H242816   4.724   1.132   0.411 -0.9213 -0.1601  1.0498
 7109TIP3   OH242817   4.322   4.055  12.589  0.0564  0.0565  0.1783
 7109TIP3    H142818   4.371   4.103  12.655  2.1097 -0.0953 -1.1881
 7109TIP3    H242819   4.375   3.977  12.572 -0.4750  0.0562 -1.5715
 7110TIP3   OH242820   1.587   6.714  12.360  0.0840 -0.3709 -0.4696
 7110TIP3    H142821   1.549   6.673  12.438 -0.3056 -0.3525 -0.6482
 7110TIP3    H242822   1.661   6.658  12.337  0.3202 -0.2661  0.0270
 7111TIP3   OH242823   3.761   3.672   0.951  0.2226 -0.5022  0.1103
 7111TIP3    H142824   3.831   3.619   0.989  0.4788  0.9701  1.7589
 7111TIP3    H242825   3.788   3.762   0.966 -1.8093  0.0992  0.3872
 7112TIP3   OH242826   5.186   0.769  13.205 -0.4588 -0.2120 -0.3498
 7112TIP3    H142827   5.100   0.750  13.169 -0.8270 -1.1096  0.9648
 7112TIP3    H242828   5.228   0.824  13.139 -2.0492  0.2821 -0.9743
 7113TIP3   OH242829   1.394   3.754   3.604 -0.1391 -0.5427 -0.1247
 7113TIP3    H142830   1.407   3.849   3.598 -2.8360 -0.0894  0.4795
 7113TIP3    H242831   1.434   3.729   3.687 -0.8319  0.3366  0.4820
 7114TIP3   OH242832   6.513   5.614   0.224 -0.2753  0.1259  0.1394
 7114TIP3    H142833   6.479   5.568   0.300 -2.6725 -0.2071 -1.1158
 7114TIP3    H242834   6.533   5.545   0.161 -1.4253  0.6001 -0.7640
 7115TIP3   OH242835   6.468   2.985   0.168 -0.5076 -0.1178 -0.2674
 7115TIP3    H142836   6.546   2.934   0.147 -0.6472 -0.4176 -0.0599
 7115TIP3    H242837   6.406   2.921   0.202 -1.1102 -0.0046 -1.1385
 7116TIP3   OH242838   4.633   5.580  12.711 -0.0858  0.0195  0.0607
 7116TIP3    H142839   4.604   5.537  12.631 -0.6566 -0.1453  0.3511
 7116TIP3    H242840   4.561   5.568  12.772  0.0388  0.7948  0.3666
 7117TIP3   OH242841   6.178   3.522  13.209  0.2875  0.4243  0.2090
 7117TIP3    H142842   6.110   3.569  13.161 -0.3360 -0.0854  0.5944
 7117TIP3    H242843   6.248   3.509  13.144  0.2959  1.5179 -0.0024
 7118TIP3   OH242844   6.476   1.375  10.103  0.2209  0.7725 -0.3862
 7118TIP3    H142845   6.466   1.306  10.037  2.1373 -0.2264  0.3155
 7118TIP3    H242846   6.428   1.341  10.179  0.3962  0.6189 -0.3436
 7119TIP3   OH242847   3.738   3.577  15.547 -0.1849 -0.4190  0.2593
 7119TIP3    H142848   3.833   3.562  15.555 -0.3962 -1.6392  0.5828
 7119TIP3    H242849   3.722   3.653  15.604  0.7449  0.4508 -0.6016
 7120TIP3   OH242850   5.845   1.824   2.804 -0.1142  0.0594  0.7883
 7120TIP3    H142851   5.753   1.816   2.776  0.0306  1.7606 -0.2672
 7120TIP3    H242852   5.895   1.815   2.722  0.5553  0.8445  1.1038
 7121TIP3   OH242853   5.964   5.627   0.201  0.6500  0.6947  0.4461
 7121TIP3    H142854   5.877   5.627   0.241  0.5318 -0.7260  0.1976
 7121TIP3    H242855   5.952   5.586   0.115  1.2019  2.2878 -0.4283
 7122TIP3   OH242856   3.566   0.311  15.446  1.0046  0.7935 -0.0641
 7122TIP3    H142857   3.563   0.399  15.407  0.8855  1.4467  1.3670
 7122TIP3    H242858   3.492   0.309  15.506  0.3525 -0.7021 -0.9059
 7123TIP3   OH242859   3.671   0.135  12.246  0.0482  0.4559 -0.2194
 7123TIP3    H142860   3.587   0.170  12.278  0.1067  0.0400  0.3966
 7123TIP3    H242861   3.721   0.212  12.220  0.1367  0.8372  1.0341
 7124TIP3   OH242862   2.041   1.997  14.705  0.2946 -0.0354 -0.4315
 7124TIP3    H142863   2.050   2.092  14.696  0.1448  0.3721  2.9232
 7124TIP3    H242864   2.091   1.961  14.633 -0.0878  2.5972 -2.0975
 7125TIP3   OH242865   2.531   0.790  15.158  0.4834 -0.0701  0.3152
 7125TIP3    H142866   2.527   0.881  15.185  0.0170 -0.7792  2.7682
 7125TIP3    H242867   2.444   0.755  15.178  0.9537 -1.2873  0.3129
 7126TIP3   OH242868   4.001   5.108  11.031 -0.1597 -0.1564 -0.5554
 7126TIP3    H142869   4.021   5.123  10.938  0.1649 -2.0042 -0.7999
 7126TIP3    H242870   4.006   5.013  11.041 -0.2353  0.0351  1.3535
 7127TIP3   OH242871   7.124   5.934   2.087  0.0050  0.4166  0.2931
 7127TIP3    H142872   7.049   5.915   2.143 -0.1403 -0.1527 -0.0959
 7127TIP3    H242873   7.168   5.850   2.075  1.2152  0.8885  1.2517
 7128TIP3   OH242874   6.496   4.916  12.699  0.4707  0.1675 -0.0615
 7128TIP3    H142875   6.434   4.849  12.728 -1.2901  1.8931  0.2529
 7128TIP3    H242876   6.581   4.871  12.697 -0.4304 -1.6630  1.5671
 7129TIP3   OH242877   4.669   1.430  14.635  0.2542  0.0582 -0.2509
 7129TIP3    H142878   4.622   1.386  14.565 -0.2780  0.9508 -0.4621
 7129TIP3    H242879   4.761   1.408  14.620 -0.0127 -1.0918 -0.2623
 7130TIP3   OH242880   5.131   5.807   2.774 -0.4286  0.1819  0.0910
 7130TIP3    H142881   5.183   5.867   2.721  0.0487  0.9083  1.3611
 7130TIP3    H242882   5.193   5.770   2.837 -0.9465 -0.8047  0.0240
 7131TIP3   OH242883   4.980   3.864  13.848 -0.0381 -0.4930 -0.4735
 7131TIP3    H142884   4.964   3.804  13.921  0.7610 -0.7554 -0.5130
 7131TIP3    H242885   4.904   3.855  13.792 -0.3245 -0.8206 -0.0346
 7132TIP3   OH242886   2.651   4.696  13.360 -0.0691 -0.5767  0.2467
 7132TIP3    H142887   2.585   4.749  13.405 -0.5413 -1.3076  0.4290
 7132TIP3    H242888   2.731   4.748  13.365 -0.7627  0.6088 -0.5038
 7133TIP3   OH242889   6.995   1.752  11.822  0.2911 -0.0854  0.2058
 7133TIP3    H142890   6.995   1.846  11.843  1.2558 -0.1634  0.5785
 7133TIP3    H242891   7.055   1.713  11.886  1.4925 -0.6541 -1.2460
 7134TIP3   OH242892   5.836   6.232  12.344 -0.6419  0.2783 -0.6978
 7134TIP3    H142893   5.907   6.261  12.286 -1.0191 -0.2779 -1.4383
 7134TIP3    H242894   5.865   6.148  12.377 -0.3999  0.6245 -0.0219
 7135TIP3   OH242895   6.448   2.914  14.010 -0.0177  0.1327 -0.1834
 7135TIP3    H142896   6.471   2.822  14.020 -1.2039 -0.2078 -0.4928
 7135TIP3    H242897   6.465   2.953  14.096 -1.2639 -0.7721  0.4886
 7136TIP3   OH242898   3.692   6.031  15.357 -0.0752  0.3625 -0.4856
 7136TIP3    H142899   3.670   6.049  15.265  1.1927 -0.6554 -0.9990
 7136TIP3    H242900   3.669   5.939  15.369 -0.4377  0.5490  0.2903
 7137TIP3   OH242901   5.661   2.330   0.356 -0.2450 -0.5401 -0.4957
 7137TIP3    H142902   5.687   2.255   0.410  0.4313 -0.1607 -0.2876
 7137TIP3    H242903   5.615   2.291   0.282 -1.0009 -1.0826  0.2384
 7138TIP3   OH242904   4.100   2.962  10.269  0.1105 -0.5259  0.9882
 7138TIP3    H142905   4.178   3.017  10.280 -0.8204  1.2138 -0.7722
 7138TIP3    H242906   4.047   2.979  10.347  0.4576  0.0278  1.1042
 7139TIP3   OH242907   3.740   1.727   0.103  0.4599  0.0495 -0.4320
 7139TIP3    H142908   3.769   1.786   0.033  0.8091  0.9236  0.4517
 7139TIP3    H242909   3.721   1.784   0.177 -1.2688 -0.7534 -0.2479
 7140TIP3   OH242910   2.142   6.604  13.491  0.1777  0.1605 -0.0068
 7140TIP3    H142911   2.082   6.570  13.425  0.9927  0.1265 -0.7332
 7140TIP3    H242912   2.143   6.699  13.477  1.1056  0.0558 -0.6912
 7141TIP3   OH242913   6.280   0.329   3.809 -0.0101  0.7770 -0.3327
 7141TIP3    H142914   6.303   0.236   3.812 -2.9909  0.0326  0.2511
 7141TIP3    H242915   6.313   0.365   3.891 -0.3674 -0.1303  0.2108
 7142TIP3   OH242916   1.202   1.852  14.074  0.4144  0.2528 -0.0531
 7142TIP3    H142917   1.117   1.826  14.109 -0.3816  1.7871 -0.8283
 7142TIP3    H242918   1.241   1.905  14.144  0.0599  0.8800 -0.3316
 7143TIP3   OH242919   5.352   5.201  13.607 -0.0665 -0.2054  1.0686
 7143TIP3    H142920   5.334   5.117  13.648 -1.5787 -0.0979  0.6527
 7143TIP3    H242921   5.305   5.265  13.660 -1.6596 -0.0130 -0.5285
 7144TIP3   OH242922   0.415   4.783  12.570 -1.1998 -0.3406  0.2176
 7144TIP3    H142923   0.498   4.774  12.617 -1.1871  0.8230  0.4545
 7144TIP3    H242924   0.392   4.694  12.543 -0.8768 -0.9509  1.8888
 7145TIP3   OH242925   1.229   3.448  11.873 -0.6035  0.0640 -0.5496
 7145TIP3    H142926   1.196   3.375  11.925 -0.2030  0.3059  0.0498
 7145TIP3    H242927   1.304   3.481  11.922  1.0467 -0.9724 -2.3011
 7146TIP3   OH242928   3.179   5.296  14.329  0.4249 -0.0441 -0.1032
 7146TIP3    H142929   3.140   5.209  14.328 -1.0877  0.6133 -1.1536
 7146TIP3    H242930   3.271   5.281  14.351  0.1757 -1.8985 -0.2308
 7147TIP3   OH242931   6.093   2.332   1.096 -0.1166  0.4173 -0.2179
 7147TIP3    H142932   6.032   2.368   1.161 -0.2123 -0.0951 -0.0156
 7147TIP3    H242933   6.036   2.296   1.028  0.0023  2.6316 -1.5319
 7148TIP3   OH242934   1.655   6.222  14.091  0.6686  0.3903 -0.1706
 7148TIP3    H142935   1.711   6.287  14.134  0.0457  0.3388  0.7472
 7148TIP3    H242936   1.711   6.146  14.079  0.8939  0.4622  0.4166
 7149TIP3   OH242937   4.211   1.358  10.673 -0.1380 -0.2108  0.6552
 7149TIP3    H142938   4.202   1.438  10.620  4.0284  0.7766  1.2702
 7149TIP3    H242939   4.257   1.297  10.616  0.7095 -0.5796  1.7244
 7150TIP3   OH242940   3.388   6.380   1.553  0.0945 -0.0560  0.2807
 7150TIP3    H142941   3.318   6.365   1.489  0.8047  4.0840 -1.6777
 7150TIP3    H242942   3.350   6.441   1.616  1.6305  1.7563 -0.4642
 7151TIP3   OH242943   4.781   0.163   0.973  0.1576 -0.6937 -0.0091
 7151TIP3    H142944   4.758   0.092   1.033  0.5492 -0.9271 -0.1329
 7151TIP3    H242945   4.853   0.209   1.016  0.2728 -0.7079 -0.1867
 7152TIP3   OH242946   2.373   4.685   0.288 -0.2393 -0.7618 -0.3040
 7152TIP3    H142947   2.337   4.762   0.245  0.5814 -0.0313  0.2965
 7152TIP3    H242948   2.382   4.711   0.379 -0.0520 -1.6002 -0.0852
 7153TIP3   OH242949   4.772   5.018   2.402 -0.3964 -0.2426 -0.1711
 7153TIP3    H142950   4.784   4.989   2.312 -0.7498  0.6097 -0.5000
 7153TIP3    H242951   4.677   5.020   2.414 -0.3808  1.0406 -0.2428
 7154TIP3   OH242952   2.076   1.645  10.374  0.0744  0.1445  0.1056
 7154TIP3    H142953   2.046   1.569  10.323 -0.0779  0.9347 -1.0059
 7154TIP3    H242954   2.122   1.607  10.448 -3.5653 -1.1173  1.8416
 7155TIP3   OH242955   4.730   1.620   1.333 -0.6676 -0.0986  0.4717
 7155TIP3    H142956   4.772   1.566   1.266  0.4568  0.3329  0.8255
 7155TIP3    H242957   4.765   1.586   1.415 -1.6801 -0.3082  0.8184
 7156TIP3   OH242958   6.773   0.639   0.162 -0.1419 -0.5621  0.0660
 7156TIP3    H142959   6.776   0.732   0.141  2.6740 -1.0452 -2.0961
 7156TIP3    H242960   6.693   0.607   0.121 -0.9668  0.8472  0.5718
 7157TIP3   OH242961   3.566   4.369  11.655 -0.1855  0.1003  0.9871
 7157TIP3    H142962   3.531   4.429  11.589 -1.1825  0.9011  2.2059
 7157TIP3    H242963   3.516   4.389  11.734 -0.1796 -1.9905  1.5641
 7158TIP3   OH242964   4.634   0.177  14.828 -0.4115  0.2212  0.3029
 7158TIP3    H142965   4.588   0.127  14.760  0.8155 -0.8373  0.2512
 7158TIP3    H242966   4.591   0.263  14.826 -1.3537 -0.2508 -0.8155
 7159TIP3   OH242967   5.785   5.873  12.143 -0.6718 -0.2740  0.0571
 7159TIP3    H142968   5.743   5.871  12.057 -1.1363 -1.0016  0.2968
 7159TIP3    H242969   5.714   5.858  12.204  0.0732 -2.5705  0.4168
 7160TIP3   OH242970   0.789   2.224  11.961 -0.2008 -0.1184 -0.0501
 7160TIP3    H142971   0.881   2.203  11.948 -0.2693 -1.2116  1.1706
 7160TIP3    H242972   0.747   2.140  11.979 -1.6794  0.1845 -1.8398
 7161TIP3   OH242973   4.459   5.486  14.841 -0.1288 -0.4703  0.4411
 7161TIP3    H142974   4.373   5.444  14.834 -0.1283 -0.3430 -0.3746
 7161TIP3    H242975   4.459   5.528  14.927 -2.0562  2.1200 -0.7623
 7162TIP3   OH242976   0.178   2.029  11.749 -0.1885 -0.7965  0.0587
 7162TIP3    H142977   0.176   2.107  11.804  0.6524 -0.3719 -0.4898
 7162TIP3    H242978   0.107   2.043  11.686  0.4357 -0.1124 -0.5058
 7163TIP3   OH242979   3.280   2.140   1.012  0.1439  0.0962  0.2461
 7163TIP3    H142980   3.369   2.107   1.000  0.1692  1.0317 -2.4341
 7163TIP3    H242981   3.234   2.115   0.932 -1.0755  2.5880  0.1162
 7164TIP3   OH242982   5.200   1.449  13.871 -0.2329 -0.2987 -0.6226
 7164TIP3    H142983   5.144   1.507  13.922  1.0206 -1.8201  2.6461
 7164TIP3    H242984   5.145   1.418  13.800 -4.1764 -3.0140  3.3645
 7165TIP3   OH242985   6.593   3.050  15.483 -0.1272 -0.5225 -0.3172
 7165TIP3    H142986   6.647   2.971  15.480  0.1196 -0.3503 -0.4017
 7165TIP3    H242987   6.560   3.053  15.573 -0.2022 -0.7650 -0.3360
 7166TIP3   OH242988   5.119   7.120  12.882 -0.3243 -0.4001 -0.1184
 7166TIP3    H142989   5.031   7.153  12.868  0.8482  1.6360 -3.2385
 7166TIP3    H242990   5.170   7.197  12.907  0.9037 -1.2626  0.0863
 7167TIP3   OH242991   6.283   2.549  10.365  0.2671 -0.0462  0.3458
 7167TIP3    H142992   6.338   2.505  10.430  1.1347  0.6098  0.0586
 7167TIP3    H242993   6.294   2.642  10.383  0.6457  0.1502 -0.8431
 7168TIP3   OH242994   5.114   6.245  13.793  0.3940 -0.2050  0.1577
 7168TIP3    H142995   5.110   6.172  13.855 -1.9407  0.6061  1.0364
 7168TIP3    H242996   5.073   6.210  13.713  0.1745 -0.1514  0.2467
 7169TIP3   OH242997   4.327   2.320  12.620 -0.0297 -0.1598 -0.1881
 7169TIP3    H142998   4.233   2.340  12.625  0.1547  0.9779 -0.9973
 7169TIP3    H242999   4.347   2.278  12.703 -1.4201 -1.0984 -0.3069
 7170TIP3   OH243000   6.407   0.488  13.006  0.3419 -0.5081  0.1224
 7170TIP3    H143001   6.487   0.436  13.008  0.2126 -0.6999  3.2052
 7170TIP3    H243002   6.434   0.574  13.040 -0.6316 -0.4247  0.6949
 7171TIP3   OH243003   3.603   2.902   4.028  0.6565 -0.1891 -0.0640
 7171TIP3    H143004   3.520   2.922   4.071  0.1017  1.2109 -1.7313
 7171TIP3    H243005   3.594   2.811   4.000 -0.1188 -0.2037  0.2067
 7172TIP3   OH243006   2.326   6.555  13.151  0.1221  0.1162  0.2964
 7172TIP3    H143007   2.240   6.566  13.111 -1.3665 -0.9901  3.0563
 7172TIP3    H243008   2.350   6.464  13.132  2.1965  1.2926 -3.1829
 7173TIP3   OH243009   7.114   1.257  15.160  0.8829 -0.1399 -0.0999
 7173TIP3    H143010   7.022   1.281  15.171  1.1121  0.4340  0.5422
 7173TIP3    H243011   7.159   1.297  15.234  1.9500  1.1584 -1.4218
 7174TIP3   OH243012   6.010   0.207  11.717  0.3404 -0.2803 -0.3516
 7174TIP3    H143013   6.008   0.248  11.804  0.5498  0.0710 -0.5121
 7174TIP3    H243014   6.097   0.168  11.710 -0.0556 -1.2478  0.0232
 7175TIP3   OH243015   5.420   3.000  13.222 -0.0300  0.8306 -0.1231
 7175TIP3    H143016   5.480   2.955  13.163 -0.4112  1.1061 -0.7226
 7175TIP3    H243017   5.416   2.944  13.300  0.9160  0.7566 -0.1203
 7176TIP3   OH243018   6.569   2.455  13.218 -0.3704 -0.1833  0.0831
 7176TIP3    H143019   6.480   2.442  13.249 -0.2251  0.1984  0.6885
 7176TIP3    H243020   6.586   2.548  13.234  0.2146 -0.3051  0.2021
 7177TIP3   OH243021   1.638   4.656   3.432 -0.1672  0.0280  0.7692
 7177TIP3    H143022   1.631   4.679   3.339  1.6662  1.0751  0.8716
 7177TIP3    H243023   1.596   4.729   3.478  2.1782  1.3198  0.9124
 7178TIP3   OH243024   2.570   3.848  12.133 -0.0704  0.2251 -0.5979
 7178TIP3    H143025   2.611   3.914  12.189 -0.0909 -0.0216 -0.2882
 7178TIP3    H243026   2.561   3.891  12.048 -2.5432  1.5766  0.2872
 7179TIP3   OH243027   3.902   6.877   0.005 -0.1947  0.2206  0.2888
 7179TIP3    H143028   3.817   6.921   0.011 -0.9679 -1.2545  0.2677
 7179TIP3    H243029   3.924   6.882  -0.087  0.5188  2.0154  0.5279
 7180TIP3   OH243030   2.988   1.358  11.789  0.0298  0.0945 -0.1028
 7180TIP3    H143031   3.014   1.430  11.732  1.7142 -0.9518 -0.7001
 7180TIP3    H243032   2.907   1.324  11.750  1.0635 -0.4912 -1.7961
 7181TIP3   OH243033   6.173   5.885  12.340  0.1565 -0.2735  0.5411
 7181TIP3    H143034   6.214   5.951  12.284 -1.9139  0.5428 -0.0517
 7181TIP3    H243035   6.084   5.917  12.354  0.4119 -0.8017  3.7625
 7182TIP3   OH243036   1.165   2.086  11.505  0.1239  0.2520  0.1726
 7182TIP3    H143037   1.203   2.172  11.487  0.8561 -0.0121  0.4653
 7182TIP3    H243038   1.212   2.026  11.448  1.0895 -0.2775  1.4876
 7183TIP3   OH243039   0.959   0.096  14.194 -0.3274  0.2757  0.2643
 7183TIP3    H143040   0.969   0.188  14.170  1.2966 -0.8158 -3.4711
 7183TIP3    H243041   1.022   0.082  14.265  1.6137  1.3258 -1.2214
 7184TIP3   OH243042   2.633   3.986   0.618  0.0751 -0.2325 -0.2127
 7184TIP3    H143043   2.612   4.079   0.627 -2.4523 -0.9031  1.4502
 7184TIP3    H243044   2.620   3.950   0.706  1.2358 -2.1141 -0.7935
 7185TIP3   OH243045   3.511   1.718  14.687  0.5746  0.0821 -0.3938
 7185TIP3    H143046   3.504   1.795  14.630  0.8727  1.0254  0.8281
 7185TIP3    H243047   3.592   1.676  14.660  1.9887  1.8692  0.9564
 7186TIP3   OH243048   4.218   1.891   0.781 -0.0855  0.0818  0.3226
 7186TIP3    H143049   4.206   1.797   0.774  0.4364  0.0669 -0.5196
 7186TIP3    H243050   4.300   1.908   0.734 -0.8250  1.1022 -0.6363
 7187TIP3   OH243051   0.368   4.893  11.649 -0.3218  0.1217 -0.1892
 7187TIP3    H143052   0.434   4.829  11.676  1.5263  2.2237  0.4471
 7187TIP3    H243053   0.288   4.842  11.638  1.2288 -2.3917 -0.2889
 7188TIP3   OH243054   4.366   0.897  12.047  0.3755 -0.2444 -0.3565
 7188TIP3    H143055   4.359   0.834  12.118 -0.2961 -0.3015 -0.4766
 7188TIP3    H243056   4.280   0.937  12.041  0.6293  0.2662 -0.6729
 7189TIP3   OH243057   0.561   0.260  14.080  0.3097 -0.2714 -0.1077
 7189TIP3    H143058   0.588   0.349  14.101 -0.0423 -0.2874  0.4168
 7189TIP3    H243059   0.641   0.208  14.087  0.1902 -0.2897  1.2567
 7190TIP3   OH243060   6.695   7.007  13.031 -0.0995  0.2373 -0.3565
 7190TIP3    H143061   6.622   6.993  12.971 -0.2590 -1.4179  0.1896
 7190TIP3    H243062   6.772   6.976  12.983  0.5170  3.3551 -1.5059
 7191TIP3   OH243063   1.457   4.181  14.924 -0.4503 -0.0201  0.2028
 7191TIP3    H143064   1.417   4.163  14.839 -1.3488 -0.1826  0.6462
 7191TIP3    H243065   1.529   4.242  14.905 -1.1727  0.6093 -0.5762
 7192TIP3   OH243066   7.141   6.791  15.235 -0.3192  0.1865  0.0524
 7192TIP3    H143067   7.097   6.740  15.167 -0.2568  1.9867 -1.3758
 7192TIP3    H243068   7.215   6.832  15.191  0.2463  0.6840  1.4183
 7193TIP3   OH243069   4.311   1.666  12.013 -0.2465 -0.2823  0.0620
 7193TIP3    H143070   4.334   1.630  11.928  4.0173  1.6524  0.2498
 7193TIP3    H243071   4.372   1.624  12.074 -1.6396  0.1455  1.7868
 7194TIP3   OH243072   5.483   2.266   0.155  0.2855  0.1509  0.3155
 7194TIP3    H143073   5.422   2.323   0.107  1.2125  1.7384  1.0066
 7194TIP3    H243074   5.493   2.189   0.098 -0.8218  0.7490 -0.7218
 7195TIP3   OH243075   2.031   6.417  10.549 -0.0202  0.3340  0.4765
 7195TIP3    H143076   2.084   6.399  10.627 -1.5981 -2.3473  0.9922
 7195TIP3    H243077   1.941   6.416  10.580 -0.5238  2.7292 -0.7866
 7196TIP3   OH243078   5.216   6.432  13.163 -0.3281 -0.2818 -0.5816
 7196TIP3    H143079   5.296   6.427  13.215 -0.3391 -1.4989 -0.6636
 7196TIP3    H243080   5.239   6.488  13.089  0.6600 -1.1889 -0.9749
 7197TIP3   OH243081   1.916   0.822  11.945  0.0326 -0.0699  0.8092
 7197TIP3    H143082   1.985   0.852  11.887 -0.6128 -1.5616 -0.7606
 7197TIP3    H243083   1.904   0.729  11.924 -1.8651 -0.0498  1.6262
 7198TIP3   OH243084   4.562   2.969  15.116 -0.0106  0.1524 -0.5654
 7198TIP3    H143085   4.597   2.943  15.031  0.1648  1.0337 -0.7671
 7198TIP3    H243086   4.515   2.892  15.147 -1.8236  0.4821 -2.3961
 7199TIP3   OH243087   1.401   4.398  14.662  0.1007 -0.5669  0.1156
 7199TIP3    H143088   1.453   4.452  14.603 -1.1913  1.4419  0.7411
 7199TIP3    H243089   1.314   4.396  14.623  0.0006 -1.7683  0.3822
 7200TIP3   OH243090   4.746   2.498   0.266 -0.1762 -0.3976 -0.0707
 7200TIP3    H143091   4.785   2.451   0.192 -1.5473  0.2077 -1.2012
 7200TIP3    H243092   4.725   2.430   0.330 -0.6138 -1.1260 -0.9854
 7201TIP3   OH243093   5.902   5.744  12.602  0.7704 -0.6460 -0.1140
 7201TIP3    H143094   5.875   5.702  12.520  0.6158 -0.5684 -0.1050
 7201TIP3    H243095   5.865   5.688  12.670  0.8302 -0.6651 -0.0977
 7202TIP3   OH243096   4.360   0.858   0.433  0.7943  0.1198  0.6084
 7202TIP3    H143097   4.345   0.773   0.475  0.0445 -0.3543 -0.6122
 7202TIP3    H243098   4.419   0.839   0.360 -1.6047  0.1635 -1.3931
 7203TIP3   OH243099   3.840   1.173   0.169 -0.2570 -0.4708  0.4328
 7203TIP3    H143100   3.879   1.201   0.251  1.9222  0.3212 -0.8214
 7203TIP3    H243101   3.871   1.083   0.157  0.6520 -0.0783 -0.2268
 7204TIP3   OH243102   6.812   2.027  12.857 -0.4182  0.4280 -0.0166
 7204TIP3    H143103   6.788   2.088  12.926  0.7213  1.3588 -0.4194
 7204TIP3    H243104   6.739   2.031  12.795 -0.0376  1.9263 -0.3868
 7205TIP3   OH243105   1.241   1.519   0.507 -0.0653 -0.3748  0.5476
 7205TIP3    H143106   1.227   1.608   0.540 -2.9701 -0.8979  0.9298
 7205TIP3    H243107   1.178   1.509   0.436  0.1920 -2.1329  0.5283
 7206TIP3   OH243108   4.979   6.119  13.545  0.0918  0.1291 -0.4876
 7206TIP3    H143109   4.942   6.033  13.563  0.5897 -0.0339 -0.2303
 7206TIP3    H243110   4.932   6.150  13.468  0.9170 -1.0152 -1.4816
 7207TIP3   OH243111   3.113   5.003  12.958  0.0300  0.0046  0.8750
 7207TIP3    H143112   3.066   5.083  12.934  0.5945  0.2796  0.6764
 7207TIP3    H243113   3.045   4.942  12.984 -0.5303 -0.0157 -0.6050
 7208TIP3   OH243114   0.733   1.490  15.317  0.6526 -0.0446 -0.3851
 7208TIP3    H143115   0.743   1.395  15.320  0.1264 -0.0997 -0.2178
 7208TIP3    H243116   0.717   1.516  15.408 -1.8510 -0.1192 -0.7703
 7209TIP3   OH243117   5.501   4.423   2.356  0.5539  0.0345  0.0936
 7209TIP3    H143118   5.486   4.374   2.437 -0.5762 -0.0753 -0.1699
 7209TIP3    H243119   5.494   4.515   2.382 -0.3420 -0.0093  0.0293
 7210TIP3   OH243120   4.007   2.619  13.419  0.5628 -0.4483  0.2775
 7210TIP3    H143121   3.949   2.551  13.385  1.5444 -1.6840  1.0370
 7210TIP3    H243122   3.957   2.659  13.491 -0.0340 -0.3315 -0.2000
 7211TIP3   OH243123   2.492   2.789   0.501  0.3056  0.2766 -0.2415
 7211TIP3    H143124   2.465   2.832   0.582 -0.5586 -1.1103  0.2203
 7211TIP3    H243125   2.449   2.704   0.503  1.6642 -0.4612 -1.3365
 7212TIP3   OH243126   3.005   6.577   0.008  0.5187 -0.3675  0.5299
 7212TIP3    H143127   2.951   6.618  -0.060 -0.6435  0.7105  2.0747
 7212TIP3    H243128   3.075   6.534  -0.041  0.8072  2.0066 -1.2546
 7213TIP3   OH243129   4.661   0.542   2.250 -0.3763  0.2317 -0.6154
 7213TIP3    H143130   4.604   0.608   2.210  1.5355  2.3046 -0.0034
 7213TIP3    H243131   4.749   0.564   2.220  0.6512 -0.2816  1.9074
 7214TIP3   OH243132   4.505   1.034   0.007  0.1631  0.0046 -0.0677
 7214TIP3    H143133   4.561   0.999   0.075  3.4288 -1.8144 -3.4833
 7214TIP3    H243134   4.476   0.956  -0.042 -1.6076  1.2945 -1.1422
 7215TIP3   OH243135   0.169   6.420  13.317 -0.1711 -0.6856 -0.3144
 7215TIP3    H143136   0.087   6.373  13.330  0.0631 -1.2981 -1.0470
 7215TIP3    H243137   0.203   6.388  13.234  0.8679 -0.5194  0.0387
 7216TIP3   OH243138   6.159   1.822  12.684  0.0924 -0.1523  0.8241
 7216TIP3    H143139   6.191   1.863  12.604 -2.6233 -1.1481 -0.8455
 7216TIP3    H243140   6.213   1.743  12.695 -1.2364 -1.4495 -1.5552
 7217TIP3   OH243141   3.197   1.645  14.669  0.0775  0.0227 -0.0223
 7217TIP3    H143142   3.293   1.640  14.666  0.1997  2.3210 -0.2072
 7217TIP3    H243143   3.177   1.738  14.662 -2.1549 -0.3590  0.8643
 7218TIP3   OH243144   2.316   6.987  14.372  0.0499  0.3932  0.1436
 7218TIP3    H143145   2.407   6.985  14.345 -0.1605 -1.9063 -0.5523
 7218TIP3    H243146   2.267   6.968  14.292 -0.8818 -0.8173  0.9779
 7219TIP3   OH243147   4.113   4.543  15.503  0.1679 -0.0711  0.2662
 7219TIP3    H143148   4.162   4.461  15.507 -0.0355 -0.2126 -0.1800
 7219TIP3    H243149   4.146   4.587  15.425 -2.1801 -1.2909 -1.4721
 7220TIP3   OH243150   3.584   1.049   1.906 -0.3378 -0.1710  0.3183
 7220TIP3    H143151   3.548   0.966   1.938  3.3680 -2.9698 -2.2815
 7220TIP3    H243152   3.553   1.055   1.816 -0.6206  1.3306  0.5048
 7221TIP3   OH243153   1.079   6.195  13.403  0.3073 -0.7062  0.1788
 7221TIP3    H143154   1.053   6.183  13.495  0.6651 -3.1443 -0.0179
 7221TIP3    H243155   1.013   6.255  13.368  1.9415  2.8249  2.7991
 7222TIP3   OH243156   1.939   5.922   0.263  0.7924  0.0117 -0.0317
 7222TIP3    H143157   1.847   5.917   0.237  0.2976 -0.6466  1.8486
 7222TIP3    H243158   1.961   5.834   0.293  1.3190  0.8085  1.9469
 7223TIP3   OH243159   5.005   4.760   0.496  0.1299 -0.0128 -0.1994
 7223TIP3    H143160   5.028   4.800   0.581  0.7516  0.2308 -0.4809
 7223TIP3    H243161   4.970   4.674   0.519 -0.1706  0.2479  0.3407
 7224TIP3   OH243162   1.742   5.606  10.412 -0.2750 -0.0371  0.0391
 7224TIP3    H143163   1.720   5.518  10.442 -0.9641  0.5255  1.1843
 7224TIP3    H243164   1.827   5.595  10.368  0.4007 -0.9923  1.5372
 7225TIP3   OH243165   0.125   0.465  11.491 -0.1630 -0.2174  0.7303
 7225TIP3    H143166   0.196   0.422  11.443  1.2866  3.9755 -1.1245
 7225TIP3    H243167   0.158   0.472  11.580  0.7916 -0.3263  0.3893
 7226TIP3   OH243168   3.922   1.996  13.059 -0.3987  0.0802  0.0615
 7226TIP3    H143169   3.835   2.027  13.034  0.3046  0.3414 -2.1277
 7226TIP3    H243170   3.928   1.908  13.020 -0.1730 -0.4767  1.3327
 7227TIP3   OH243171   4.797   3.953  13.013  0.2334  0.5437 -0.3725
 7227TIP3    H143172   4.703   3.968  12.999  0.0567  1.2642  1.5053
 7227TIP3    H243173   4.803   3.863  13.043  0.3492 -0.1097 -2.2637
 7228TIP3   OH243174   5.094   0.003   0.126 -0.0383 -0.2045 -0.3712
 7228TIP3    H143175   5.003  -0.001   0.156 -0.1368  2.2263 -0.2324
 7228TIP3    H243176   5.131  -0.083   0.149 -1.9585 -0.7954  0.6183
 7229TIP3   OH243177   0.536   4.180  12.408 -0.0493  0.3514 -0.2669
 7229TIP3    H143178   0.515   4.216  12.494  1.5198  0.0499  0.2533
 7229TIP3    H243179   0.543   4.086  12.422  0.4036  0.3219 -0.6756
 7230TIP3   OH243180   3.128   6.575   9.995  0.3404 -0.4862 -0.5348
 7230TIP3    H143181   3.187   6.514   9.951 -1.4506  0.1487 -3.9969
 7230TIP3    H243182   3.063   6.519  10.037  0.7927 -1.0474 -0.5722
 7231TIP3   OH243183   5.218   6.104   1.886 -0.5072 -0.4098  0.1868
 7231TIP3    H143184   5.210   6.165   1.959 -0.3495 -0.4098  0.2041
 7231TIP3    H243185   5.137   6.052   1.890 -1.3476  0.8276 -0.7861
 7232TIP3   OH243186   3.533   0.605   1.749  0.1815 -0.4780  0.2720
 7232TIP3    H143187   3.624   0.579   1.763  0.3051 -0.1423  0.1019
 7232TIP3    H243188   3.507   0.562   1.668 -0.2459 -1.6883  1.0463
 7233TIP3   OH243189   2.478   7.044  13.616 -0.4409  0.0192 -0.1820
 7233TIP3    H143190   2.501   7.130  13.652  1.2762  0.0623 -1.3310
 7233TIP3    H243191   2.546   7.027  13.550 -1.3846 -1.7378 -0.7156
 7234TIP3   OH243192   4.318   1.306  12.494 -0.1726 -0.1757  0.0486
 7234TIP3    H143193   4.315   1.357  12.575  2.1495  1.1940 -0.6780
 7234TIP3    H243194   4.233   1.263  12.489 -1.3162  1.8132  1.8763
 7235TIP3   OH243195   0.120   0.098  15.073 -0.2866  0.3317  0.3799
 7235TIP3    H143196   0.154   0.131  14.990 -0.3421  0.6382  0.4755
 7235TIP3    H243197   0.198   0.076  15.124 -0.2731 -2.4950 -0.7774
 7236TIP3   OH243198   6.080   2.381  12.244 -0.1457  0.0448 -0.1958
 7236TIP3    H143199   6.117   2.456  12.290  1.8827 -0.9289 -0.2231
 7236TIP3    H243200   6.106   2.305  12.296 -0.4124 -0.8111 -1.2998
 7237TIP3   OH243201   1.439   2.810  14.577  0.0357 -0.0539 -0.2322
 7237TIP3    H143202   1.393   2.891  14.600  0.3300 -0.0821  0.4659
 7237TIP3    H243203   1.371   2.743  14.582 -0.5434  0.3370 -2.2177
 7238TIP3   OH243204   1.286   2.972   0.718 -0.0753  0.5026  0.2980
 7238TIP3    H143205   1.373   2.994   0.751 -0.4117 -1.2249  2.4628
 7238TIP3    H243206   1.276   3.025   0.639  2.6551  1.2425  0.4012
 7239TIP3   OH243207   4.760   2.410  14.480 -0.0642  0.2780 -0.1022
 7239TIP3    H143208   4.851   2.393  14.458 -0.2884 -0.7765 -0.2435
 7239TIP3    H243209   4.728   2.328  14.517 -0.8015  0.8062  0.4614
 7240TIP3   OH243210   4.562   2.777   1.752  0.4545  0.3761  0.2684
 7240TIP3    H143211   4.557   2.868   1.780  1.4521  0.1853  1.1130
 7240TIP3    H243212   4.655   2.756   1.755  0.4641 -0.0719 -1.9233
 7241TIP3   OH243213   1.611   3.678   0.493  0.7808  0.2974 -0.2531
 7241TIP3    H143214   1.644   3.602   0.541  0.3229 -0.1837 -0.6998
 7241TIP3    H243215   1.571   3.733   0.560  0.1330 -0.3803 -0.0794
 7242TIP3   OH243216   6.138   5.760   3.820  0.6080  0.3986  0.4001
 7242TIP3    H143217   6.156   5.714   3.738 -0.0121 -0.4222  0.7110
 7242TIP3    H243218   6.192   5.715   3.885 -0.9744 -0.7624  0.9516
 7243TIP3   OH243219   6.386   6.139  12.464  0.4302 -0.3895 -0.3014
 7243TIP3    H143220   6.360   6.077  12.533 -3.9979 -0.7833 -2.1364
 7243TIP3    H243221   6.365   6.225  12.500  0.3908 -0.4213 -0.2469
 7244TIP3   OH243222   2.399   0.103  15.322 -0.1632 -0.0054 -0.6581
 7244TIP3    H143223   2.327   0.042  15.336 -0.1419 -0.1853 -1.3191
 7244TIP3    H243224   2.447   0.067  15.247  2.0567 -1.2507  1.2623
 7245TIP3   OH243225   3.407   0.301   0.404  0.3033  0.0636  0.3014
 7245TIP3    H143226   3.423   0.206   0.405 -0.2656 -0.0325  0.3173
 7245TIP3    H243227   3.317   0.311   0.434  0.7037  0.6882  1.2994
 7246TIP3   OH243228   6.043   1.530  15.083 -0.3544  0.8206 -0.2918
 7246TIP3    H143229   5.996   1.457  15.123  1.0122 -0.8457 -1.6607
 7246TIP3    H243230   5.986   1.606  15.096 -2.8914 -0.9277 -0.8877
 7247TIP3   OH243231   3.839   1.688   2.990 -0.3281  0.0945 -0.1915
 7247TIP3    H143232   3.822   1.595   3.001  0.6956 -0.2440 -1.4166
 7247TIP3    H243233   3.780   1.731   3.052 -2.9749 -1.2178 -1.7063
 7248TIP3   OH243234   5.034   3.115  14.047  0.3278 -0.1446 -0.2618
 7248TIP3    H143235   4.949   3.102  14.006  0.7766  2.1396 -2.0010
 7248TIP3    H243236   5.062   3.027  14.073 -1.8150 -1.1140 -1.1355
 7249TIP3   OH243237   3.452   0.308   0.765  0.3811  0.1172  0.0945
 7249TIP3    H143238   3.461   0.355   0.848  1.9468 -1.0371  0.6099
 7249TIP3    H243239   3.395   0.234   0.785 -0.9839  1.0183 -0.3921
 7250TIP3   OH243240   4.959   1.185  15.603  0.0208  0.1661 -0.1965
 7250TIP3    H143241   5.053   1.172  15.590 -0.1165 -0.6577 -0.3650
 7250TIP3    H243242   4.931   1.236  15.527 -0.0801 -1.4893 -1.2968
 7251TIP3   OH243243   6.203   1.574   1.050 -0.0900  0.0742 -0.2284
 7251TIP3    H143244   6.248   1.599   0.969 -2.6602  2.2304 -1.0744
 7251TIP3    H243245   6.257   1.612   1.120 -0.5200  2.5609 -1.2105
 7252TIP3   OH243246   3.276   1.363  10.784  0.6419  0.4809 -0.1533
 7252TIP3    H143247   3.356   1.363  10.731  2.1081  0.9938  1.9944
 7252TIP3    H243248   3.259   1.270  10.801 -0.2506  0.2602 -2.0461
 7253TIP3   OH243249   6.834   4.992   0.038 -0.8578 -0.2277 -0.4325
 7253TIP3    H143250   6.758   4.936   0.020 -0.3864 -0.5184 -1.5079
 7253TIP3    H243251   6.910   4.939   0.014 -0.1054 -1.0388  3.3300
 7254TIP3   OH243252   6.086   5.813  14.147 -0.3544  0.3429  0.0785
 7254TIP3    H143253   6.064   5.777  14.233 -1.6905  0.6071 -0.1513
 7254TIP3    H243254   6.035   5.894  14.141 -0.1435  0.4066 -0.8965
 7255TIP3   OH243255   3.853   1.017  15.088  0.2935 -0.1179 -0.6713
 7255TIP3    H143256   3.761   1.001  15.068  0.6785 -0.8985 -1.9230
 7255TIP3    H243257   3.876   0.949  15.152  0.0396 -0.0337 -0.4908
 7256TIP3   OH243258   5.592   5.883  14.961  0.3108 -0.1891  0.0916
 7256TIP3    H143259   5.611   5.930  14.879  0.2745  0.7004  0.5867
 7256TIP3    H243260   5.537   5.809  14.934 -1.0402  1.0023 -0.5058
 7257TIP3   OH243261   1.955   4.525   2.549 -0.6063 -0.1501  0.2732
 7257TIP3    H143262   1.865   4.504   2.571 -0.2784 -2.3860 -0.3231
 7257TIP3    H243263   1.973   4.473   2.470  1.4037 -0.3416  0.8219
 7258TIP3   OH243264   6.353   3.744  14.637  0.0555  0.6590  0.4131
 7258TIP3    H143265   6.269   3.768  14.598  1.0123  2.7884 -0.4159
 7258TIP3    H243266   6.331   3.712  14.724 -1.5915  1.6165  0.3667
 7259TIP3   OH243267   4.706   3.405   0.054  0.6388  0.1499 -0.5701
 7259TIP3    H143268   4.784   3.446   0.015  1.3662 -1.2135 -0.5844
 7259TIP3    H243269   4.727   3.399   0.147  0.1900  0.5441 -0.4394
 7260TIP3   OH243270   6.901   3.365  14.687 -0.1343 -0.0449  0.7247
 7260TIP3    H143271   6.854   3.448  14.683  1.4836  0.9063  0.9088
 7260TIP3    H243272   6.957   3.373  14.764  1.8117 -0.3193 -0.6108
 7261TIP3   OH243273   6.955   0.952  12.326 -0.1560 -0.2438  0.0785
 7261TIP3    H143274   6.924   1.018  12.264 -0.0255 -0.4049 -0.1581
 7261TIP3    H243275   7.018   0.900  12.276 -0.5784 -0.8133  0.1403
 7262TIP3   OH243276   5.461   1.192  15.437  0.2002  0.5037  0.5108
 7262TIP3    H143277   5.531   1.251  15.410  0.9418 -0.4353  0.3780
 7262TIP3    H243278   5.461   1.124  15.370  1.3913 -1.3245  2.3377
 7263TIP3   OH243279   6.838   6.920  14.976 -0.0415  0.1936 -0.2185
 7263TIP3    H143280   6.893   6.983  14.929  0.5128  1.2368  1.7726
 7263TIP3    H243281   6.751   6.960  14.974 -0.3986 -0.5960 -1.8011
 7264TIP3   OH243282   0.748   0.644  10.773 -0.3101 -0.0322 -0.3816
 7264TIP3    H143283   0.785   0.723  10.813  0.0137  0.9415 -2.5385
 7264TIP3    H243284   0.653   0.662  10.769 -0.2852  0.0744 -0.4983
 7265TIP3   OH243285   4.452   6.973  10.968 -0.2221 -0.2577 -0.2480
 7265TIP3    H143286   4.520   7.008  10.911 -0.0629  0.9245  0.6590
 7265TIP3    H243287   4.500   6.925  11.036 -0.3282 -0.1577 -0.1016
 7266TIP3   OH243288   2.070   2.232  12.585  0.0602  0.5782  1.1030
 7266TIP3    H143289   2.107   2.147  12.561 -1.1010 -0.2869  2.3259
 7266TIP3    H243290   2.131   2.266  12.651  1.1260  1.2084 -0.1853
 7267TIP3   OH243291   5.764   4.837   3.395 -0.4787  1.3003  0.3452
 7267TIP3    H143292   5.783   4.832   3.302 -1.0635 -1.7215  0.3237
 7267TIP3    H243293   5.845   4.807   3.437 -0.6152  1.5197  0.7689
 7268TIP3   OH243294   1.245   3.017   2.357 -0.1844 -0.3240  0.1489
 7268TIP3    H143295   1.289   3.099   2.375 -2.6375  0.7215  1.5729
 7268TIP3    H243296   1.178   3.009   2.425 -2.4533 -1.6442 -2.1077
 7269TIP3   OH243297   1.549   6.104  10.047  0.0220 -0.0430 -0.2291
 7269TIP3    H143298   1.490   6.112   9.972 -1.8049 -1.4386  1.0106
 7269TIP3    H243299   1.630   6.069  10.010 -0.7214 -0.3493 -1.6151
 7270TIP3   OH243300   3.769   5.608  15.214 -0.4370  0.1465 -0.1690
 7270TIP3    H143301   3.832   5.547  15.252 -1.1518 -0.7245 -0.3588
 7270TIP3    H243302   3.703   5.620  15.282 -2.2161 -2.1428 -1.3823
 7271TIP3   OH243303   6.125   1.897   0.109  0.3260  0.5153 -0.3656
 7271TIP3    H143304   6.153   1.988   0.119  0.1271  0.7437 -1.8722
 7271TIP3    H243305   6.088   1.875   0.195 -1.1015  2.3763 -0.4633
 7272TIP3   OH243306   3.957   0.238   2.194 -0.9588  0.8048  0.8342
 7272TIP3    H143307   3.980   0.324   2.230 -1.3047  1.2138  0.0905
 7272TIP3    H243308   3.910   0.258   2.113 -1.8961 -0.0570  1.1482
 7273TIP3   OH243309   2.711   0.513  11.759 -0.1894 -0.7015 -0.4182
 7273TIP3    H143310   2.725   0.598  11.802 -3.8140 -0.3031  0.1911
 7273TIP3    H243311   2.693   0.535  11.668  0.4261 -0.9338 -0.5927
 7274TIP3   OH243312   4.321   0.574  13.238 -0.0377  0.4982  0.9682
 7274TIP3    H143313   4.384   0.505  13.216  0.3838  0.4908  2.1609
 7274TIP3    H243314   4.310   0.622  13.156  1.5515  0.5043  0.7246
 7275TIP3   OH243315   5.627   6.302  10.565 -1.1908  0.1277 -0.1596
 7275TIP3    H143316   5.554   6.357  10.536 -0.2066  1.3943 -0.2374
 7275TIP3    H243317   5.655   6.257  10.485 -1.2797  0.3446 -0.3145
 7276TIP3   OH243318   3.163   2.326  10.588  0.5313  0.2406 -0.1479
 7276TIP3    H143319   3.154   2.378  10.668  0.7599  1.0136 -0.6235
 7276TIP3    H243320   3.080   2.337  10.543 -0.2033 -1.4885  0.7367
 7277TIP3   OH243321   4.499   6.504  12.914  0.0339 -0.1691  0.2837
 7277TIP3    H143322   4.538   6.476  12.831 -1.0310  0.6478 -0.4929
 7277TIP3    H243323   4.503   6.599  12.912 -1.1886 -0.1089  0.5989
 7278TIP3   OH243324   4.411   0.862  11.437  0.3667 -0.5092  0.4464
 7278TIP3    H143325   4.322   0.828  11.442 -0.6398  1.8848 -0.3994
 7278TIP3    H243326   4.412   0.936  11.497  1.8237 -0.6131  0.5623
 7279TIP3   OH243327   0.399   2.439   1.861  0.1886  0.5561  0.0402
 7279TIP3    H143328   0.426   2.355   1.900  0.5543 -0.2364 -1.8811
 7279TIP3    H243329   0.481   2.484   1.842  0.0870 -0.0018 -1.7986
 7280TIP3   OH243330   2.548   1.567  14.335 -0.2596 -0.2399 -0.1492
 7280TIP3    H143331   2.594   1.650  14.343  0.9357 -0.8575 -0.4930
 7280TIP3    H243332   2.455   1.591  14.327 -0.1385  0.9631  1.7892
 7281TIP3   OH243333   2.005   5.595  14.310  0.9893 -0.2637  0.2368
 7281TIP3    H143334   2.052   5.568  14.231  3.2996  0.2037  1.4054
 7281TIP3    H243335   1.947   5.522  14.329  0.8123 -0.6214 -1.5704
 7282TIP3   OH243336   2.735   5.135  14.119  0.0931  0.4750 -0.2627
 7282TIP3    H143337   2.794   5.071  14.160 -0.5927 -0.3975 -0.6328
 7282TIP3    H243338   2.754   5.217  14.164  1.3273  0.1176 -0.1108
 7283TIP3   OH243339   6.693   2.230   2.003 -0.6172 -0.2635  0.3963
 7283TIP3    H143340   6.775   2.243   2.050 -0.6955  1.1017  0.1734
 7283TIP3    H243341   6.665   2.318   1.978  0.0085 -0.9968 -3.2081
 7284TIP3   OH243342   3.752   1.037  15.473  0.3342 -0.1499  0.1274
 7284TIP3    H143343   3.777   1.129  15.473 -1.9121  0.5115 -1.3131
 7284TIP3    H243344   3.713   1.022  15.559 -0.3554  0.5762 -0.0518
 7285TIP3   OH243345   6.294   0.496  12.146 -0.0037  0.2022 -0.7126
 7285TIP3    H143346   6.292   0.480  12.241  0.6255  1.3872 -0.4885
 7285TIP3    H243347   6.387   0.511  12.127 -0.2419  0.8860 -1.3576
 7286TIP3   OH243348   4.566   7.169  15.469  0.6014  0.0984 -0.2946
 7286TIP3    H143349   4.541   7.108  15.399 -2.4258  1.6024 -0.6042
 7286TIP3    H243350   4.503   7.151  15.539  0.1775  2.2758 -0.0893
 7287TIP3   OH243351   6.424   0.806   2.221  0.6683  0.0788  0.2938
 7287TIP3    H143352   6.383   0.773   2.300  3.5492 -0.8526  1.4507
 7287TIP3    H243353   6.500   0.749   2.207  1.0197  1.1068 -2.3277
 7288TIP3   OH243354   2.922   1.060   0.276 -0.3426 -0.2258  0.2031
 7288TIP3    H143355   2.857   1.060   0.206  1.4579  0.4296 -1.5610
 7288TIP3    H243356   3.005   1.076   0.230  0.8608  0.4215  2.5324
 7289TIP3   OH243357   1.895   0.866   1.804 -0.4216  0.4577  0.3735
 7289TIP3    H143358   1.859   0.827   1.725 -1.8730  1.6280  0.4592
 7289TIP3    H243359   1.875   0.959   1.798  2.6393  1.1581  0.4021
 7290TIP3   OH243360   0.845   0.596  14.532  0.2170  0.4330  0.1089
 7290TIP3    H143361   0.828   0.603  14.626  1.2411  0.4503  0.3051
 7290TIP3    H243362   0.923   0.541  14.526  0.3740  0.7327 -0.7091
 7291TIP3   OH243363   0.472   0.999   4.740  0.0675  0.3130 -0.0563
 7291TIP3    H143364   0.387   0.974   4.777 -0.9071  1.0349 -1.7437
 7291TIP3    H243365   0.455   1.081   4.695  1.6728  0.4518 -0.4327
 7292TIP3   OH243366   4.416   5.566  15.428  0.2048 -0.2960 -0.4868
 7292TIP3    H143367   4.414   5.559  15.524  0.7117 -3.5386 -0.6323
 7292TIP3    H243368   4.330   5.602  15.405  0.4393  1.4433  1.2193
 7293TIP3   OH243369   5.944   0.522  10.180  0.5893 -0.0600 -0.0796
 7293TIP3    H143370   5.899   0.456  10.127 -0.1011  1.0048 -0.8397
 7293TIP3    H243371   6.035   0.493  10.183  0.4128 -0.7146 -0.9493
 7294TIP3   OH243372   0.926   2.732  10.233  0.5872  0.2798 -0.3299
 7294TIP3    H143373   0.946   2.722  10.140 -1.1943 -0.9195 -0.6088
 7294TIP3    H243374   0.834   2.759  10.235  0.7412  0.7398  1.0604
 7295TIP3   OH243375   6.639   3.238  14.909 -0.2008 -0.0254 -0.0049
 7295TIP3    H143376   6.616   3.320  14.952  0.2583  1.1822 -1.9994
 7295TIP3    H243377   6.734   3.231  14.919 -0.4116 -1.1016  1.4684
 7296TIP3   OH243378   1.841   5.504   1.816 -0.0125  0.0726  0.2579
 7296TIP3    H143379   1.877   5.571   1.758  0.2036 -0.5072 -0.2812
 7296TIP3    H243380   1.748   5.501   1.793  0.0080  0.0780  0.1717
 7297TIP3   OH243381   4.522   1.928  12.216 -0.2626 -0.5472 -0.6448
 7297TIP3    H143382   4.570   1.991  12.270  0.4388 -1.6997  0.1178
 7297TIP3    H243383   4.430   1.942  12.239  0.0352 -1.1269  1.0143
 7298TIP3   OH243384   5.662   1.887   9.413 -0.5439  0.5098  0.5244
 7298TIP3    H143385   5.610   1.875   9.334  1.0384 -0.6970 -0.3527
 7298TIP3    H243386   5.711   1.805   9.422  0.4874  1.2650  1.8600
 7299TIP3   OH243387   2.920   3.335   0.160 -0.4099  0.4443 -0.1700
 7299TIP3    H143388   2.862   3.295   0.095 -0.1793 -0.0303 -0.0816
 7299TIP3    H243389   2.898   3.291   0.242  0.9031 -0.5864 -0.3512
 7300TIP3   OH243390   0.537   5.989  15.289  0.0061  0.0386  0.5088
 7300TIP3    H143391   0.613   5.945  15.253 -1.1338 -0.7404 -0.9934
 7300TIP3    H243392   0.535   6.074  15.245  0.1781  0.1787  0.7713
 7301TIP3   OH243393   1.358   6.668  13.135  0.7366  0.7624 -0.3480
 7301TIP3    H143394   1.304   6.603  13.181 -0.8957  0.0592 -3.1019
 7301TIP3    H243395   1.351   6.643  13.043  0.8026  4.3223 -1.3972
 7302TIP3   OH243396   5.160   5.569  15.322  0.3094 -0.5822 -0.3882
 7302TIP3    H143397   5.095   5.541  15.387  0.5605 -1.0831 -0.3419
 7302TIP3    H243398   5.239   5.586  15.374  0.4430 -0.7504 -0.5351
 7303TIP3   OH243399   5.390   0.134  11.275  0.3257 -0.0219  0.7283
 7303TIP3    H143400   5.397   0.170  11.364  0.7374 -0.4899  0.8890
 7303TIP3    H243401   5.328   0.061  11.284  1.8660 -1.3321  1.0459
 7304TIP3   OH243402   6.655   6.131  13.098  0.1320  0.8418 -0.2394
 7304TIP3    H143403   6.671   6.037  13.100  2.6901  1.2270 -0.1943
 7304TIP3    H243404   6.565   6.141  13.127 -1.3304 -1.8013 -3.6001
 7305TIP3   OH243405   3.815   1.555  13.414 -0.0454  0.1251 -0.2084
 7305TIP3    H143406   3.900   1.564  13.371  0.5727  0.4176  1.0376
 7305TIP3    H243407   3.809   1.463  13.437  1.3769  0.6613  2.5325
 7306TIP3   OH243408   2.622   6.093  15.054 -0.3419  0.2992  0.0599
 7306TIP3    H143409   2.545   6.149  15.067 -1.9392 -1.9495  0.4576
 7306TIP3    H243410   2.588   6.012  15.017  1.9813 -0.3415 -0.8054
 7307TIP3   OH243411   5.473   0.456   0.170  0.1151 -0.6458  0.2199
 7307TIP3    H143412   5.379   0.441   0.161 -0.1261  0.1868  1.2171
 7307TIP3    H243413   5.507   0.450   0.081 -1.4456  2.6047 -0.6653
 7308TIP3   OH243414   6.069   6.567   1.261 -0.4933  0.0525  0.3378
 7308TIP3    H143415   5.993   6.579   1.318 -2.1886 -0.7394 -1.6833
 7308TIP3    H243416   6.090   6.655   1.230 -0.0708  0.3768  1.5190
 7309TIP3   OH243417   0.714   5.109  11.489 -0.3568 -0.3381  0.5639
 7309TIP3    H143418   0.710   5.200  11.516  0.7363 -0.5385  1.4180
 7309TIP3    H243419   0.626   5.090  11.455 -0.2307  1.3641 -0.7601
 7310TIP3   OH243420   1.548   4.982   0.363  0.0843  1.3217 -0.2980
 7310TIP3    H143421   1.556   5.076   0.345  0.4503  1.5656  1.0439
 7310TIP3    H243422   1.469   4.955   0.317 -0.5059  2.4798  0.0072
 7311TIP3   OH243423   0.482   2.320  14.236  0.0277 -0.0312 -0.4407
 7311TIP3    H143424   0.471   2.350  14.146 -1.2598  0.9349  0.0308
 7311TIP3    H243425   0.514   2.230  14.228  0.2893  0.1788 -1.8548
 7312TIP3   OH243426   2.624   3.102  13.109  0.2046 -0.1179 -0.1191
 7312TIP3    H143427   2.637   3.007  13.109 -1.3523 -0.3471  1.5923
 7312TIP3    H243428   2.551   3.116  13.048  2.3355  0.3153 -2.6918
 7313TIP3   OH243429   7.065   4.860  13.071 -0.2977  0.1261 -0.4028
 7313TIP3    H143430   6.979   4.869  13.113 -0.6261 -1.5330 -0.6839
 7313TIP3    H243431   7.058   4.779  13.020  1.2400  0.3022 -0.9070
 7314TIP3   OH243432   0.209   2.750  12.704  0.7990 -0.1867  0.1086
 7314TIP3    H143433   0.211   2.717  12.794  0.7189 -0.2539  0.0863
 7314TIP3    H243434   0.267   2.691  12.655 -1.1937 -1.7544 -0.4155
 7315TIP3   OH243435   7.016   3.324   1.324 -0.4807  0.6641  0.0812
 7315TIP3    H143436   6.973   3.265   1.385 -0.1064 -0.5939 -0.8593
 7315TIP3    H243437   6.944   3.371   1.282 -0.9288 -1.1363 -1.1898
 7316TIP3   OH243438   1.318   0.147   0.522 -0.0937 -0.3443 -0.1940
 7316TIP3    H143439   1.240   0.180   0.476 -1.3809 -1.4504  1.1208
 7316TIP3    H243440   1.354   0.224   0.566 -1.2546 -0.0650  0.2984
 7317TIP3   OH243441   0.354   3.507   1.182  0.4325  0.0440 -0.2681
 7317TIP3    H143442   0.282   3.516   1.244 -0.8528  1.3671 -1.9203
 7317TIP3    H243443   0.424   3.465   1.233 -1.3091 -0.8183  1.4884
 7318TIP3   OH243444   5.276   6.288  12.620 -0.0252  0.6004  0.3191
 7318TIP3    H143445   5.287   6.324  12.532  1.0606  0.4781  0.4001
 7318TIP3    H243446   5.221   6.352  12.665 -1.0780  0.3786 -0.6144
 7319TIP3   OH243447   6.515   0.310   1.640 -0.3492  0.1669  0.6605
 7319TIP3    H143448   6.531   0.384   1.582 -2.1847  0.3064  0.2919
 7319TIP3    H243449   6.543   0.233   1.590 -3.4014  0.1138 -1.1386
 7320TIP3   OH243450   1.903   0.010  14.032 -0.0576 -0.1693 -0.2530
 7320TIP3    H143451   1.821   0.019  13.985 -0.2457  2.3037  0.5214
 7320TIP3    H243452   1.896  -0.075  14.076 -1.3129 -0.9170 -1.8453
 7321TIP3   OH243453   0.283   3.086   0.574 -0.4552 -0.4561  0.1624
 7321TIP3    H143454   0.242   3.081   0.488 -2.2401 -1.6744  1.0583
 7321TIP3    H243455   0.311   2.996   0.593  0.3191 -0.1175  0.6671
 7322TIP3   OH243456   5.887   5.807  15.407  0.1705 -0.2125 -0.5518
 7322TIP3    H143457   5.848   5.888  15.374 -1.6389 -0.3540  1.1906
 7322TIP3    H243458   5.982   5.822  15.402 -0.1515  2.1863  0.2013
 7323TIP3   OH243459   0.105   2.025   0.699 -0.1833  0.3805 -0.5154
 7323TIP3    H143460   0.023   2.057   0.737 -0.7528 -0.8111 -0.6962
 7323TIP3    H243461   0.127   1.948   0.752  1.9682  1.8848  0.8857
 7324TIP3   OH243462   2.219   5.707  10.352  0.0769 -0.3656  0.0013
 7324TIP3    H143463   2.164   5.714  10.274 -0.2143 -1.6906  0.0808
 7324TIP3    H243464   2.275   5.632  10.335 -0.1212 -0.7806  1.1499
 7325TIP3   OH243465   6.954   3.305  11.594  0.6043  0.3844  0.0942
 7325TIP3    H143466   6.904   3.300  11.676  1.1505 -1.0064  0.3497
 7325TIP3    H243467   6.935   3.224  11.549  3.3433 -0.6190  0.6207
 7326TIP3   OH243468   0.128   0.710  15.507  0.1508 -0.1623  0.2487
 7326TIP3    H143469   0.076   0.691  15.586  0.9482 -1.3225  0.5171
 7326TIP3    H243470   0.135   0.805  15.505 -0.6832 -0.0702  1.0587
 7327TIP3   OH243471   5.262   4.340   1.330  0.1584 -0.2085  0.0305
 7327TIP3    H143472   5.237   4.325   1.239  2.0091  1.2929 -0.7608
 7327TIP3    H243473   5.194   4.296   1.382 -1.1042 -0.7629 -2.0642
 7328TIP3   OH243474   1.196   1.845  14.343  0.0902  0.2639  0.7300
 7328TIP3    H143475   1.108   1.823  14.314 -0.5665  0.6590  2.3774
 7328TIP3    H243476   1.253   1.783  14.297 -1.0826 -0.3112  0.0424
 7329TIP3   OH243477   4.363   2.798  14.661 -0.0925 -0.5792  0.4933
 7329TIP3    H143478   4.381   2.836  14.575  0.6683 -0.4217  0.7176
 7329TIP3    H243479   4.323   2.869  14.711 -0.9496 -0.8027  0.1280
 7330TIP3   OH243480   2.397   0.744   0.744  0.1208 -0.5251 -0.0980
 7330TIP3    H143481   2.438   0.749   0.658 -1.9608 -0.4778 -1.1126
 7330TIP3    H243482   2.422   0.826   0.787  1.1152 -0.5167 -0.6804
 7331TIP3   OH243483   2.867   3.321  14.001 -0.0218 -0.5174  0.7025
 7331TIP3    H143484   2.910   3.275  13.929  0.9904  0.6220  0.5735
 7331TIP3    H243485   2.806   3.256  14.038  1.7380 -2.1277  0.8525
 7332TIP3   OH243486   1.782   3.362  11.370 -0.3027 -0.0122  0.5830
 7332TIP3    H143487   1.704   3.378  11.317 -0.1018 -2.3098 -0.4438
 7332TIP3    H243488   1.837   3.306  11.315  1.8236  1.1254  1.5232
 7333TIP3   OH243489   0.093   1.765  15.566 -0.4922  0.0158  0.0985
 7333TIP3    H143490   0.083   1.703  15.638 -0.1558  0.2253  0.3262
 7333TIP3    H243491   0.111   1.849  15.609  1.2323 -0.1493 -0.2621
 7334TIP3   OH243492   5.200   2.225  10.010  0.3573 -0.0316  0.3431
 7334TIP3    H143493   5.212   2.141   9.966 -1.4637 -1.2746  2.1455
 7334TIP3    H243494   5.189   2.203  10.102  1.2649  2.3115  1.0527
 7335TIP3   OH243495   5.278   4.298  13.707  0.0798 -0.3503  0.2934
 7335TIP3    H143496   5.364   4.299  13.750  0.1464 -1.2255  0.1902
 7335TIP3    H243497   5.235   4.219  13.742 -0.4467 -0.2454 -0.1119
 7336TIP3   OH243498   4.989   4.945  13.029  0.1830 -0.0714  0.4415
 7336TIP3    H143499   4.987   4.895  12.948 -1.3113  1.6474 -0.6472
 7336TIP3    H243500   4.924   4.903  13.085  1.1885 -1.2374  0.7337
 7337TIP3   OH243501   6.045   0.579   1.842  0.0852  0.2562  0.4996
 7337TIP3    H143502   6.079   0.533   1.919  0.7175  0.2683  0.2385
 7337TIP3    H243503   6.068   0.521   1.769 -0.1822  0.4182  0.2879
 7338TIP3   OH243504   7.142   2.416  12.025  0.1593 -0.1973 -0.4167
 7338TIP3    H143505   7.162   2.497  12.071  2.1339  0.4481 -2.3185
 7338TIP3    H243506   7.075   2.440  11.961  1.9194  0.3544 -2.1013
 7339TIP3   OH243507   0.148   3.453   0.186  0.3407 -0.1385  0.2829
 7339TIP3    H143508   0.066   3.453   0.137  0.9713  0.6077 -0.7737
 7339TIP3    H243509   0.215   3.432   0.122  1.1368  0.5784  0.8619
 7340TIP3   OH243510   2.332   3.259   0.060  0.4182  0.2789  0.1746
 7340TIP3    H143511   2.267   3.244   0.128 -0.0571  0.9654 -0.1198
 7340TIP3    H243512   2.374   3.342   0.085  1.5843 -0.4424  0.6782
 7341TIP3   OH243513   0.184   5.223   1.053 -0.0682  0.1519 -0.4371
 7341TIP3    H143514   0.094   5.234   1.022  0.0386 -1.4632 -1.3850
 7341TIP3    H243515   0.234   5.204   0.974  1.1420  1.1919  0.0684
 7342TIP3   OH243516   0.880   7.187  14.894 -0.1576  0.5971 -0.0874
 7342TIP3    H143517   0.883   7.093  14.913 -1.4219  0.8032  1.1545
 7342TIP3    H243518   0.963   7.205  14.851 -0.2778 -1.2759 -1.1590
 7343TIP3   OH243519   2.563   2.155  13.223  0.2240 -0.0333  0.7847
 7343TIP3    H143520   2.484   2.209  13.226  0.6523  0.6557 -0.0240
 7343TIP3    H243521   2.597   2.156  13.313  0.4280  1.3561  0.7058
 7344TIP3   OH243522   4.823   3.112  12.929  0.3421  0.3606  0.4989
 7344TIP3    H143523   4.743   3.128  12.979 -0.2147 -0.0886 -0.2338
 7344TIP3    H243524   4.801   3.136  12.839  1.0774  0.3682  0.3129
 7345TIP3   OH243525   0.184   6.296  13.094 -0.4010 -0.0293 -0.5116
 7345TIP3    H143526   0.219   6.208  13.109 -0.7390  0.0986  1.0865
 7345TIP3    H243527   0.110   6.282  13.035 -0.7785 -0.8901  0.1528
 7346TIP3   OH243528   3.646   0.824  13.537 -0.0142 -0.8316  0.1226
 7346TIP3    H143529   3.670   0.872  13.616  2.5854 -1.4755 -0.2403
 7346TIP3    H243530   3.705   0.749  13.536  1.9299  0.6169 -3.8994
 7347TIP3   OH243531   5.883   4.478   3.411  0.3029 -0.2278  0.9836
 7347TIP3    H143532   5.930   4.543   3.464 -0.4164 -0.1320  1.5110
 7347TIP3    H243533   5.800   4.466   3.457 -0.3940 -0.0312 -0.2115
 7348TIP3   OH243534   1.712   2.145  15.030 -0.3476  0.1387 -0.0184
 7348TIP3    H143535   1.732   2.142  15.123 -3.2664 -0.0623  0.6529
 7348TIP3    H243536   1.680   2.058  15.009 -0.0070  0.2739 -1.1447
 7349TIP3   OH243537   5.451   5.424  15.224  0.0848 -0.1039  0.6497
 7349TIP3    H143538   5.503   5.353  15.187 -0.7532 -0.2106 -0.3335
 7349TIP3    H243539   5.440   5.400  15.316  0.1913 -1.0248  0.4230
 7350TIP3   OH243540   3.454   3.687   1.961 -0.3574  0.1284 -0.1572
 7350TIP3    H143541   3.440   3.748   1.890 -0.6181 -1.2724 -1.3336
 7350TIP3    H243542   3.533   3.639   1.937 -1.6369 -1.8237 -0.5875
 7351TIP3   OH243543   1.192   3.810   9.851  0.2597 -0.3497 -0.2730
 7351TIP3    H143544   1.275   3.772   9.821 -0.3557 -1.6810 -0.3105
 7351TIP3    H243545   1.180   3.888   9.797  1.3876 -0.2637 -0.4058
 7352TIP3   OH243546   3.667   3.874  15.482 -0.3524  0.0076 -0.2235
 7352TIP3    H143547   3.717   3.889  15.562 -1.1272  0.8105  0.1285
 7352TIP3    H243548   3.576   3.867  15.511 -0.9149  2.4186 -1.2072
 7353TIP3   OH243549   3.876   5.232  11.949  0.2365 -0.2545 -0.3023
 7353TIP3    H143550   3.839   5.312  11.912  0.3466  0.5187  1.2365
 7353TIP3    H243551   3.801   5.174  11.961 -0.2091  0.5762  0.9794
 7354TIP3   OH243552   3.208   3.336  13.848 -0.2557  0.4511  0.1639
 7354TIP3    H143553   3.196   3.401  13.779  0.2734  1.1150  0.6861
 7354TIP3    H243554   3.169   3.376  13.926 -1.6772 -0.6726  0.0573
 7355TIP3   OH243555   0.983   1.028  12.951 -0.6462  0.5172  0.2279
 7355TIP3    H143556   0.897   1.069  12.957 -1.0931 -0.2779 -0.5647
 7355TIP3    H243557   1.008   1.039  12.859 -1.5351 -2.4602 -0.4109
 7356TIP3   OH243558   3.663   2.881  12.434  0.0179  0.1601  0.6229
 7356TIP3    H143559   3.584   2.935  12.435 -1.2837 -1.7032  0.1201
 7356TIP3    H243560   3.726   2.931  12.487 -1.8639  1.0800  2.0705
 7357TIP3   OH243561   5.974   0.483  13.257  0.3196 -0.2533  0.7273
 7357TIP3    H143562   5.884   0.460  13.236 -0.0737  0.0652  2.0273
 7357TIP3    H243563   6.026   0.439  13.190 -0.7395 -1.2001  0.5112
 7358TIP3   OH243564   4.584   6.131   1.253  0.1319  0.0725 -0.1117
 7358TIP3    H143565   4.545   6.160   1.171 -0.6619  0.7364  0.4874
 7358TIP3    H243566   4.524   6.063   1.285 -0.9207  1.5576  1.1394
 7359TIP3   OH243567   1.906   0.148  10.808  0.0985 -0.0801 -0.4875
 7359TIP3    H143568   1.885   0.165  10.716 -0.4182 -0.4300 -0.4339
 7359TIP3    H243569   1.992   0.106  10.805  0.5680  0.8888 -0.7339
 7360TIP3   OH243570   1.660   1.904  15.345 -0.3387  0.1139  0.1520
 7360TIP3    H143571   1.699   1.964  15.409 -0.0771  1.0804 -0.9041
 7360TIP3    H243572   1.575   1.944  15.325  1.3161  2.1571 -3.2923
 7361TIP3   OH243573   0.551   5.444  12.109  0.2017  0.0896 -0.5539
 7361TIP3    H143574   0.614   5.420  12.177 -3.4482 -2.9613  1.9117
 7361TIP3    H243575   0.495   5.510  12.150 -1.3818 -0.9920 -0.9453
 7362TIP3   OH243576   1.316   4.418   0.566 -0.1980 -0.4716 -0.4303
 7362TIP3    H143577   1.232   4.445   0.529 -1.0030  0.0414  1.6842
 7362TIP3    H243578   1.379   4.479   0.528 -0.5993 -1.4482 -2.7615
 7363TIP3   OH243579   5.094   4.108  14.787  0.5043  0.8215  0.3322
 7363TIP3    H143580   5.139   4.045  14.844 -0.8060  0.2501  0.7565
 7363TIP3    H243581   5.013   4.064  14.762  0.0872  1.9164 -0.2657
 7364TIP3   OH243582   1.581   4.732   9.932  0.3443 -0.3018 -0.7887
 7364TIP3    H143583   1.570   4.826   9.947  1.4233 -0.1968 -0.6091
 7364TIP3    H243584   1.671   4.714   9.959 -0.1062 -1.5402 -0.0761
 7365TIP3   OH243585   4.097   3.790   1.234  0.2744 -0.1405 -0.3545
 7365TIP3    H143586   4.014   3.746   1.217  0.2825 -0.2814 -0.0269
 7365TIP3    H243587   4.074   3.865   1.289  0.7843 -2.1084  2.6722
 7366TIP3   OH243588   0.347   5.763  15.318 -0.1377 -0.4689  0.1281
 7366TIP3    H143589   0.379   5.719  15.239 -1.3661 -1.1954  0.0265
 7366TIP3    H243590   0.414   5.829  15.337  0.3797 -0.5697 -1.2674
 7367TIP3   OH243591   2.045   4.261   0.235  0.4103 -0.5368 -0.4703
 7367TIP3    H143592   2.005   4.255   0.148  0.7540 -1.8266 -0.5502
 7367TIP3    H243593   2.033   4.174   0.273  1.5591 -0.4144  0.1996
 7368TIP3   OH243594   1.836   0.134  12.967 -0.0873  0.3468 -0.2506
 7368TIP3    H143595   1.774   0.097  13.030  1.7144 -0.4483  1.0905
 7368TIP3    H243596   1.790   0.128  12.883 -1.4545 -1.1110  0.5654
 7369TIP3   OH243597   1.403   2.326  13.283  0.2456 -0.2426  0.7774
 7369TIP3    H143598   1.461   2.338  13.358 -0.0528  0.9760  0.8156
 7369TIP3    H243599   1.447   2.372  13.212  0.6382 -1.5781  0.1325
 7370TIP3   OH243600   6.363   2.044   0.273  0.1036  0.4559 -0.4365
 7370TIP3    H143601   6.392   2.024   0.362  1.7600 -0.0960 -1.0702
 7370TIP3    H243602   6.375   2.138   0.264 -0.2367  0.5394 -0.0162
 7371TIP3   OH243603   5.625   6.217   9.640 -0.2319  0.0145 -0.4173
 7371TIP3    H143604   5.560   6.155   9.673 -0.5573 -0.1993 -1.4209
 7371TIP3    H243605   5.709   6.176   9.657 -0.4512 -0.7731 -1.1848
 7372TIP3   OH243606   1.192   6.092   2.068 -0.4254 -0.2831 -0.6394
 7372TIP3    H143607   1.215   6.173   2.114 -0.8114 -1.2282  1.2908
 7372TIP3    H243608   1.167   6.120   1.980 -0.0708  1.6357 -0.1461
 7373TIP3   OH243609   6.343   0.936   0.873 -0.1294 -0.0128 -0.5086
 7373TIP3    H143610   6.273   1.001   0.875 -0.7859 -0.6741 -1.4366
 7373TIP3    H243611   6.340   0.900   0.784 -0.3905 -1.9405  0.2534
 7374TIP3   OH243612   3.143   1.651   1.334 -0.3009  0.0945 -0.5705
 7374TIP3    H143613   3.064   1.596   1.334 -0.4058  0.2046  0.9900
 7374TIP3    H243614   3.151   1.680   1.425  2.2585 -0.9503 -0.4222
 7375TIP3   OH243615   6.444   6.247  11.226  0.8422 -0.0623  0.3981
 7375TIP3    H143616   6.514   6.188  11.199 -0.7441 -3.8878  4.0745
 7375TIP3    H243617   6.473   6.281  11.311 -0.5470  0.4864  0.6621
 7376TIP3   OH243618   6.365   0.183   0.700  0.2877  0.5718 -0.1605
 7376TIP3    H143619   6.346   0.258   0.643 -0.5221  0.5500  0.0699
 7376TIP3    H243620   6.459   0.169   0.691  0.0429  0.0605 -2.1285
 7377TIP3   OH243621   1.909   2.804  10.047 -0.2075  0.0824  0.2948
 7377TIP3    H143622   1.842   2.872  10.043  0.0553  0.4788  2.1330
 7377TIP3    H243623   1.876   2.734   9.991 -0.8765  1.3680 -0.9507
 7378TIP3   OH243624   2.449   2.128  13.861 -0.1003  0.1163 -0.1734
 7378TIP3    H143625   2.358   2.156  13.852 -0.5377 -1.2154  0.0948
 7378TIP3    H243626   2.467   2.135  13.955 -0.8845 -2.5401  0.2019
 7379TIP3   OH243627   1.859   0.542  10.007 -0.2017  0.3407 -0.0409
 7379TIP3    H143628   1.925   0.498   9.955 -0.1238 -0.2168  0.5233
 7379TIP3    H243629   1.776   0.516   9.967 -0.2404 -1.6687  1.2999
 7380TIP3   OH243630   1.718   2.895  13.198  0.0556 -0.0537  0.6505
 7380TIP3    H143631   1.713   2.966  13.134  1.0541  0.8185  1.5255
 7380TIP3    H243632   1.735   2.817  13.145 -2.7824  0.0537 -0.4811
 7381TIP3   OH243633   0.518   0.916   9.579 -0.0189 -0.4553  0.1221
 7381TIP3    H143634   0.513   0.919   9.483 -0.7091  0.6009  0.1885
 7381TIP3    H243635   0.459   0.984   9.608 -0.4162 -1.3053  1.3285
 7382TIP3   OH243636   1.590   0.815  12.219 -0.2838 -0.3461 -0.1289
 7382TIP3    H143637   1.581   0.764  12.139 -0.4617 -0.6834  0.1096
 7382TIP3    H243638   1.519   0.879  12.215  0.1036  0.0672 -0.5624
 7383TIP3   OH243639   0.764   0.648   2.750 -0.0677 -0.4293 -0.1382
 7383TIP3    H143640   0.733   0.733   2.721  0.3945  0.1156  0.9580
 7383TIP3    H243641   0.844   0.667   2.798  0.6586 -1.5895 -0.8633
 7384TIP3   OH243642   4.467   2.559  13.385 -0.2207 -0.5939  0.2363
 7384TIP3    H143643   4.460   2.575  13.291 -0.0507  0.2722  0.3697
 7384TIP3    H243644   4.463   2.646  13.425  1.5632 -0.8025  0.9052
 7385TIP3   OH243645   5.573   2.020  13.513  0.3856 -0.7339  0.1026
 7385TIP3    H143646   5.531   1.968  13.582  1.2023 -2.8427 -0.9483
 7385TIP3    H243647   5.530   2.106  13.519 -0.0269 -1.0685  2.7863
 7386TIP3   OH243648   1.373   0.060  15.160  0.1375  0.4372 -0.1910
 7386TIP3    H143649   1.287   0.087  15.190  0.2413 -1.6676  2.2274
 7386TIP3    H243650   1.429   0.137  15.173 -1.1825  1.5556 -1.0554
 7387TIP3   OH243651   0.586   5.887  13.044  0.2657  0.0004 -0.1346
 7387TIP3    H143652   0.671   5.921  13.073  1.3820 -1.9415 -1.0505
 7387TIP3    H243653   0.570   5.811  13.100 -0.1188 -0.5609 -0.9949
 7388TIP3   OH243654   1.490   2.315  14.611  0.0365 -0.0401  0.5356
 7388TIP3    H143655   1.408   2.326  14.659  0.3365  1.4210  0.7400
 7388TIP3    H243656   1.472   2.354  14.525  0.3429 -0.1973  0.4020
 7389TIP3   OH243657   1.761   0.235   2.356  0.0905 -0.5158 -0.1884
 7389TIP3    H143658   1.745   0.154   2.404  1.9768 -0.0110  1.3587
 7389TIP3    H243659   1.847   0.264   2.385  0.2543  1.0737 -2.1307
 7390TIP3   OH243660   6.324   5.677  12.928 -0.2132 -0.0181 -0.0857
 7390TIP3    H143661   6.321   5.582  12.920  1.0774 -0.2552  1.7027
 7390TIP3    H243662   6.249   5.709  12.878 -0.7542 -1.9794 -0.5523
 7391TIP3   OH243663   5.794   4.726  15.560  0.0575  0.1358 -0.1601
 7391TIP3    H143664   5.852   4.755  15.630 -0.7142 -1.4337  1.1485
 7391TIP3    H243665   5.761   4.807  15.521  1.8730  1.0238  0.1122
 7392TIP3   OH243666   3.070   6.227   1.172 -0.3954  0.2399 -0.1379
 7392TIP3    H143667   3.069   6.134   1.193 -0.9016  0.8641  2.8596
 7392TIP3    H243668   3.070   6.230   1.076 -0.2283 -2.8186 -0.2887
 7393TIP3   OH243669   1.622   1.937  11.369 -0.0136 -0.0745 -0.0515
 7393TIP3    H143670   1.715   1.916  11.381 -0.5872 -1.8746  1.4862
 7393TIP3    H243671   1.598   1.895  11.287  0.1850 -0.8156  0.2664
 7394TIP3   OH243672   2.572   2.839  14.134 -0.1229  0.0428 -0.1626
 7394TIP3    H143673   2.484   2.802  14.135 -0.2126  0.2423  1.1303
 7394TIP3    H243674   2.616   2.798  14.209 -0.1978  2.4689  1.2546
 7395TIP3   OH243675   5.800   2.163   0.059 -0.3546 -0.0645 -0.0748
 7395TIP3    H143676   5.780   2.234  -0.003 -0.4312 -0.4597 -0.5087
 7395TIP3    H243677   5.838   2.095   0.004 -1.0654 -0.6921  0.2081
 7396TIP3   OH243678   5.123   4.134  12.249  0.1589 -0.0030  0.2346
 7396TIP3    H143679   5.146   4.192  12.176 -0.8433  0.3417  0.1850
 7396TIP3    H243680   5.047   4.176  12.290 -0.2752 -1.0194  0.4989
 7397TIP3   OH243681   5.152   4.337  15.052  0.6836  0.2720 -0.3004
 7397TIP3    H143682   5.109   4.328  15.137  0.2696  1.4729 -0.3890
 7397TIP3    H243683   5.244   4.314  15.070  0.8529  1.6877  0.7256
 7398TIP3   OH243684   4.789   2.832  15.352  0.2188 -0.0501 -0.5680
 7398TIP3    H143685   4.797   2.753  15.299  0.8454  0.0871 -0.6815
 7398TIP3    H243686   4.706   2.821  15.400  1.0504 -1.4689  0.5815
 7399TIP3   OH243687   2.911   2.562  13.023  0.7239  0.5392  0.3311
 7399TIP3    H143688   2.845   2.502  12.988  0.5884  1.1016 -0.3872
 7399TIP3    H243689   2.950   2.514  13.096  0.4121 -0.3041 -0.0470
 7400TIP3   OH243690   0.290   1.906  14.891 -0.1942 -0.1509  0.5437
 7400TIP3    H143691   0.315   1.993  14.861 -2.9234  0.3035 -0.5716
 7400TIP3    H243692   0.296   1.912  14.987  1.1483  0.7475  0.4238
 7401TIP3   OH243693   2.372   4.320  14.897  0.3991 -0.0503 -0.0745
 7401TIP3    H143694   2.462   4.317  14.863  0.0314 -0.3443 -1.0216
 7401TIP3    H243695   2.348   4.228  14.909  0.6039  0.0479  1.2176
 7402TIP3   OH243696   3.693   2.748  14.312 -0.2896 -0.3950  0.1069
 7402TIP3    H143697   3.612   2.794  14.290 -0.0804  0.4947  1.1523
 7402TIP3    H243698   3.677   2.658  14.286 -1.4967 -0.1590 -0.0023
 7403TIP3   OH243699   5.245   6.277  14.512  0.1196  0.3611 -0.1735
 7403TIP3    H143700   5.197   6.287  14.430 -1.1966 -1.1021  0.3879
 7403TIP3    H243701   5.178   6.282  14.580  0.8445 -0.9875  0.6707
 7404TIP3   OH243702   3.241   3.575   0.781 -0.5037  0.0261 -0.3591
 7404TIP3    H143703   3.311   3.633   0.812  0.1014 -1.7918  1.7657
 7404TIP3    H243704   3.263   3.559   0.689  1.1917  0.4537 -0.0461
 7405TIP3   OH243705   2.193   5.888  14.224  0.4410 -0.0635  0.1665
 7405TIP3    H143706   2.152   5.932  14.299  1.2526  0.9647  0.0153
 7405TIP3    H243707   2.268   5.842  14.262  0.4834 -0.0592  0.0880
 7406TIP3   OH243708   1.926   3.511  10.313  0.4020 -0.5683  0.1187
 7406TIP3    H143709   2.009   3.474  10.284 -0.7526  0.0292 -4.3144
 7406TIP3    H243710   1.859   3.457  10.271 -1.5179 -0.3669  2.7339
 7407TIP3   OH243711   1.408   0.788  14.550  0.3458  0.3652  0.5477
 7407TIP3    H143712   1.484   0.827  14.507 -0.3594  1.0863 -0.0572
 7407TIP3    H243713   1.347   0.860  14.561  0.2855  0.0711  2.2673
 7408TIP3   OH243714   1.927   5.833   1.932 -0.2343 -0.0135  0.7822
 7408TIP3    H143715   1.839   5.837   1.968 -0.2608  0.4446  0.6610
 7408TIP3    H243716   1.919   5.781   1.852 -0.7320  1.6848 -0.2720
 7409TIP3   OH243717   7.168   3.246   0.862  0.6357  0.0434  0.4912
 7409TIP3    H143718   7.103   3.191   0.904  0.5278 -1.7084 -1.8511
 7409TIP3    H243719   7.251   3.220   0.902  0.4736 -1.1964  0.0438
 7410TIP3   OH243720   6.821   3.591   3.351  0.0487 -0.1772 -0.3917
 7410TIP3    H143721   6.900   3.645   3.350 -0.4061  0.4794 -2.0662
 7410TIP3    H243722   6.762   3.636   3.413  0.9160 -0.5904  0.7453
 7411TIP3   OH243723   5.718   4.090  14.346 -0.3108 -0.3727 -0.5074
 7411TIP3    H143724   5.656   4.112  14.415 -0.6760 -1.5021 -0.4579
 7411TIP3    H243725   5.667   4.092  14.265  0.5524  2.8801 -1.0220
 7412TIP3   OH243726   6.934   3.999   2.263 -0.0539 -0.1475 -0.0583
 7412TIP3    H143727   6.874   4.073   2.276  0.4486 -0.1938  2.9526
 7412TIP3    H243728   6.934   3.954   2.348 -0.7289 -3.9267 -1.9518
 7413TIP3   OH243729   4.141   2.658  12.815  0.2980 -0.4756 -0.0583
 7413TIP3    H143730   4.216   2.602  12.835  1.1682  0.6935 -0.0433
 7413TIP3    H243731   4.108   2.685  12.901  1.0246  0.5479 -0.0971
 7414TIP3   OH243732   5.331   5.511  13.493 -0.4052  0.1892  0.9206
 7414TIP3    H143733   5.273   5.492  13.566 -1.3251 -4.4192 -0.8259
 7414TIP3    H243734   5.417   5.480  13.521 -0.3818  0.0413  0.6889
 7415TIP3   OH243735   1.989   3.557  12.632 -0.2797  0.4294 -0.0263
 7415TIP3    H143736   2.000   3.645  12.667  2.2428 -1.0497  3.1798
 7415TIP3    H243737   1.957   3.505  12.706 -0.5631 -1.5965 -1.5094
 7416TIP3   OH243738   3.932   5.968   0.578 -0.7059 -0.3059 -0.2655
 7416TIP3    H143739   3.872   5.937   0.509 -0.3427 -1.0459 -0.2507
 7416TIP3    H243740   4.015   5.982   0.533 -0.3078 -1.3459  0.1203
 7417TIP3   OH243741   1.186   4.114  12.481 -0.0328 -0.1152  0.2439
 7417TIP3    H143742   1.239   4.150  12.411 -1.5608 -0.7913 -1.2908
 7417TIP3    H243743   1.227   4.030  12.502 -0.0427 -0.2792 -0.3990
 7418TIP3   OH243744   3.554   4.046   2.032 -0.5412  0.6153  0.5114
 7418TIP3    H143745   3.617   3.994   2.081 -0.5134  0.6591  0.5220
 7418TIP3    H243746   3.605   4.119   1.996 -0.5062  0.4283  0.1839
 7419TIP3   OH243747   0.902   5.442  13.622  0.1092 -0.0837 -0.2431
 7419TIP3    H143748   0.989   5.447  13.583 -0.2111  1.1380 -0.8493
 7419TIP3    H243749   0.844   5.423  13.548 -0.4345  1.7103 -0.3073
 7420TIP3   OH243750   6.441   4.749  14.956 -0.1158  0.1865  0.3796
 7420TIP3    H143751   6.521   4.801  14.960 -1.5755  2.5650 -0.3792
 7420TIP3    H243752   6.439   4.700  15.038  1.5980  0.8445  0.8220
 7421TIP3   OH243753   2.849   2.015  15.395  0.4384  0.1891 -0.1628
 7421TIP3    H143754   2.775   1.998  15.336  0.0547 -0.1853  0.4218
 7421TIP3    H243755   2.914   1.948  15.372 -0.9146 -1.8893  1.8785
 7422TIP3   OH243756   0.894   1.918  11.936 -0.1187 -0.5230 -0.0865
 7422TIP3    H143757   0.847   1.885  12.012 -0.3190  0.5265  0.2537
 7422TIP3    H243758   0.832   1.908  11.863 -0.7358  0.5061  0.2920
 7423TIP3   OH243759   4.141   0.752   0.995  0.0008 -0.1899  1.2585
 7423TIP3    H143760   4.162   0.671   1.041  0.6634 -0.6919  0.0750
 7423TIP3    H243761   4.224   0.800   0.991 -0.0807 -0.0901  0.6961
 7424TIP3   OH243762   1.645   0.114  14.540  0.4555  0.6994 -0.1836
 7424TIP3    H143763   1.648   0.169  14.618 -0.9011 -0.1733  0.4980
 7424TIP3    H243764   1.731   0.125  14.500  1.1374  1.2168  1.3862
 7425TIP3   OH243765   2.873   0.019   0.866 -0.0317  0.7356 -0.6740
 7425TIP3    H143766   2.860   0.109   0.833  1.6708  1.4874  0.6381
 7425TIP3    H243767   2.848   0.024   0.958 -1.0220 -0.4295 -0.8736
 7426TIP3   OH243768   3.251   5.189  13.991 -0.2368  0.4514  0.2939
 7426TIP3    H143769   3.274   5.109  14.039  0.0583  0.1823 -0.2894
 7426TIP3    H243770   3.194   5.159  13.921 -1.9384  1.0508  1.4035
 7427TIP3   OH243771   3.745   0.370   0.542 -0.1024  0.0644 -0.7040
 7427TIP3    H143772   3.814   0.333   0.596 -1.7701  0.2276  1.6405
 7427TIP3    H243773   3.789   0.436   0.489  1.5762 -0.0082  0.5459
 7428TIP3   OH243774   0.780   3.444  15.484  0.6405 -0.0144 -0.1247
 7428TIP3    H143775   0.787   3.507  15.412  2.9147 -0.1033 -0.0458
 7428TIP3    H243776   0.744   3.495  15.557  1.0292  0.8154 -0.5043
 7429TIP3   OH243777   0.879   5.196  13.742  0.3683 -0.3180 -0.4549
 7429TIP3    H143778   0.873   5.133  13.670  1.4276 -0.7064 -0.2056
 7429TIP3    H243779   0.877   5.282  13.700 -0.4722 -0.5276 -0.8403
 7430TIP3   OH243780   5.703   4.204  11.896  0.0280 -0.0915 -0.1194
 7430TIP3    H143781   5.778   4.235  11.844 -0.2574  0.2743 -0.3165
 7430TIP3    H243782   5.741   4.142  11.958  0.2630 -1.0767 -1.2384
 7431TIP3   OH243783   3.443   4.458  14.556 -0.0840 -0.1082 -0.0797
 7431TIP3    H143784   3.528   4.424  14.528 -0.5084 -2.7472  1.6560
 7431TIP3    H243785   3.386   4.446  14.480  0.9786  1.4091 -1.1498
 7432TIP3   OH243786   0.922   1.234  15.132 -0.6970 -0.2520 -0.6736
 7432TIP3    H143787   1.015   1.238  15.154 -0.7682 -0.6071 -0.3171
 7432TIP3    H243788   0.880   1.196  15.209 -1.2724  0.8177 -0.4534
 7433TIP3   OH243789   1.990   3.354  10.852 -0.2454  0.2125 -0.6901
 7433TIP3    H143790   2.034   3.301  10.786  1.8234 -0.7285  1.3761
 7433TIP3    H243791   2.051   3.425  10.870 -1.3119  1.1280 -0.6437
 7434TIP3   OH243792   1.422   0.332  14.723  0.1091 -0.1221 -0.6240
 7434TIP3    H143793   1.395   0.423  14.732  0.6503  0.0129 -0.3379
 7434TIP3    H243794   1.344   0.286  14.693  0.2162  0.6765 -2.1391
 7435TIP3   OH243795   0.861   4.298   1.818  0.0308  0.3751  0.3482
 7435TIP3    H143796   0.954   4.278   1.830  0.1322  0.3416 -0.4645
 7435TIP3    H243797   0.815   4.222   1.853  0.3374 -0.0099 -0.0829
 7436TIP3   OH243798   6.986   0.672  13.977  0.4855 -0.1151  0.4872
 7436TIP3    H143799   7.069   0.623  13.977 -0.0237 -1.0371 -1.2680
 7436TIP3    H243800   6.988   0.722  14.059  0.2957 -4.3156  3.2319
 7437TIP3   OH243801   0.307   3.256  13.503 -0.2987 -0.3446  0.3391
 7437TIP3    H143802   0.235   3.309  13.469  0.0543  0.5210  0.9446
 7437TIP3    H243803   0.341   3.210  13.426  1.0734  2.2791 -0.6873
 7438TIP3   OH243804   6.430   3.283  12.798 -0.0859  0.0179  0.1679
 7438TIP3    H143805   6.360   3.327  12.750 -1.2450 -1.7219  0.1965
 7438TIP3    H243806   6.390   3.201  12.828  2.3911 -1.7163 -1.0991
 7439TIP3   OH243807   4.424   2.906  13.283  0.2129  0.1994 -0.0299
 7439TIP3    H143808   4.332   2.883  13.293  0.3842 -0.0608  0.8984
 7439TIP3    H243809   4.470   2.854  13.348  0.9051  1.0663  0.1879
 7440TIP3   OH243810   0.817   5.064   2.782 -0.1090 -0.4538  0.4845
 7440TIP3    H143811   0.732   5.067   2.739 -0.5462  2.2275  1.4525
 7440TIP3    H243812   0.881   5.069   2.711 -0.7549 -1.0944 -0.1472
 7441TIP3   OH243813   5.001   4.605  11.612  0.2396  0.0686  0.8265
 7441TIP3    H143814   5.008   4.540  11.542  1.3605  0.6052  0.4391
 7441TIP3    H243815   5.085   4.650  11.612  0.0045  0.5235  2.0861
 7442TIP3   OH243816   3.552   1.391   0.584  0.1042  0.4511  0.1692
 7442TIP3    H143817   3.593   1.455   0.527  0.2070 -1.0826 -1.5247
 7442TIP3    H243818   3.484   1.351   0.530  0.9438 -1.8167  0.7226
 7443TIP3   OH243819   2.781   2.822  11.417 -0.1775 -0.4413  0.0235
 7443TIP3    H143820   2.828   2.787  11.493 -0.8729  0.1065  0.7110
 7443TIP3    H243821   2.823   2.906  11.399 -1.4821  0.5046  1.2377
 7444TIP3   OH243822   1.775   0.826  14.659  0.1904 -0.9896  0.7891
 7444TIP3    H143823   1.732   0.741  14.671 -2.0173 -0.0249 -0.1202
 7444TIP3    H243824   1.829   0.836  14.737  0.1055 -2.9983  1.1449
 7445TIP3   OH243825   0.699   3.860  15.095 -0.4343  0.0733  0.2079
 7445TIP3    H143826   0.776   3.910  15.121 -0.3308 -1.5104  3.0989
 7445TIP3    H243827   0.685   3.884  15.003  2.7172  1.3589  0.0080
 7446TIP3   OH243828   4.031   3.033  11.574  0.2593  0.8347  0.1696
 7446TIP3    H143829   3.946   3.020  11.532  0.2107  1.9600 -0.0978
 7446TIP3    H243830   4.019   3.001  11.663 -0.3034  0.5289 -0.0174
 7447TIP3   OH243831   6.819   0.302   4.524 -0.1384  0.0526 -0.1024
 7447TIP3    H143832   6.763   0.337   4.455 -1.9045 -1.1710  0.6995
 7447TIP3    H243833   6.891   0.259   4.477 -0.5480  0.5084 -1.1448
 7448TIP3   OH243834   3.515   1.505  12.834  0.4062 -0.4965 -0.1190
 7448TIP3    H143835   3.515   1.490  12.739 -0.3060  2.5054 -0.6548
 7448TIP3    H243836   3.589   1.564  12.848 -0.1152 -0.1166  1.0571
 7449TIP3   OH243837   5.546   5.676  14.594  0.2071 -0.1700  0.0214
 7449TIP3    H143838   5.570   5.651  14.505  1.4320 -0.6911  0.4819
 7449TIP3    H243839   5.469   5.623  14.614 -0.3880  0.3213 -0.8914
 7450TIP3   OH243840   0.870   3.244  13.009  0.0595 -0.5653 -0.5342
 7450TIP3    H143841   0.901   3.194  12.933  0.6866 -1.2577  0.1682
 7450TIP3    H243842   0.931   3.318  13.015 -1.0537  0.4986 -1.7584
 7451TIP3   OH243843   1.104   6.013   1.789 -0.2917 -0.5734  0.2229
 7451TIP3    H143844   1.130   6.081   1.727  0.8143 -1.1000  0.1005
 7451TIP3    H243845   1.009   6.022   1.795 -0.2148  0.6455 -0.1822
 7452TIP3   OH243846   4.965   1.156  10.791 -0.7645  0.1808  0.4676
 7452TIP3    H143847   5.052   1.196  10.788 -0.3258 -0.7148  0.8822
 7452TIP3    H243848   4.981   1.063  10.774 -1.8431  0.2872 -1.2686
 7453TIP3   OH243849   3.207   4.524  11.517  0.4164 -0.2561 -0.1904
 7453TIP3    H143850   3.243   4.452  11.465  0.1664 -0.8152  0.3981
 7453TIP3    H243851   3.113   4.517  11.506  0.3269 -0.7731  0.8430
 7454TIP3   OH243852   1.722   3.584  13.070 -0.0829  0.4517 -0.1557
 7454TIP3    H143853   1.690   3.573  13.159 -0.2704  0.9056 -0.1678
 7454TIP3    H243854   1.793   3.649  13.078  0.8860 -0.5958 -0.1181
 7455TIP3   OH243855   2.120   6.688   1.756  0.3181  0.0538  0.1461
 7455TIP3    H143856   2.113   6.663   1.664  2.3933  1.7714 -0.5291
 7455TIP3    H243857   2.172   6.768   1.754  0.4745  0.0390  2.8374
 7456TIP3   OH243858   6.415   2.837  14.555  0.0647  0.2420 -0.9942
 7456TIP3    H143859   6.465   2.915  14.579  0.2817 -0.6117  1.5303
 7456TIP3    H243860   6.477   2.783  14.505  0.1791  1.2743 -1.9864
 7457TIP3   OH243861   3.607   4.795  12.763  0.3462  0.1255  0.0718
 7457TIP3    H143862   3.564   4.748  12.834  0.3022  0.9972  0.6274
 7457TIP3    H243863   3.694   4.756  12.758 -0.7636 -2.2589 -1.6443
 7458TIP3   OH243864   7.062   7.163  12.704 -0.6769 -0.1479 -0.0107
 7458TIP3    H143865   7.030   7.097  12.642  0.6788 -0.2389 -0.6308
 7458TIP3    H243866   7.053   7.246  12.657 -1.5031  0.0176  0.4215
 7459TIP3   OH243867   4.676   7.133   1.105 -0.0542  0.0758  0.1586
 7459TIP3    H143868   4.713   7.058   1.059 -0.6232  0.3694 -0.7962
 7459TIP3    H243869   4.585   7.110   1.119 -0.2918  0.6798 -0.3517
 7460TIP3   OH243870   0.186   0.345   3.187 -0.0879  0.0070  0.2965
 7460TIP3    H143871   0.200   0.337   3.282  1.3823 -0.3313  0.0538
 7460TIP3    H243872   0.138   0.265   3.164 -3.1985  1.5112  1.2453
 7461TIP3   OH243873   5.622   1.591  14.755  0.6104 -0.1645 -0.3148
 7461TIP3    H143874   5.586   1.503  14.769 -0.0895  0.4167  1.6887
 7461TIP3    H243875   5.582   1.621  14.673  1.5071 -2.0214 -1.4686
 7462TIP3   OH243876   6.181   1.884   5.407  0.4110  0.1451 -0.0063
 7462TIP3    H143877   6.260   1.857   5.454 -0.9507 -3.2009  0.5384
 7462TIP3    H243878   6.128   1.928   5.473  0.5229 -0.3427  0.4170
 7463TIP3   OH243879   4.506   2.505  14.816 -1.0556  0.3878  0.0588
 7463TIP3    H143880   4.484   2.550  14.734  2.4927  1.9028 -0.1217
 7463TIP3    H243881   4.466   2.558  14.884 -0.8421  1.2201 -0.4577
 7464TIP3   OH243882   1.404   5.540   4.353 -0.5218  0.2287 -0.1493
 7464TIP3    H143883   1.382   5.544   4.446 -0.6989  1.9192 -0.2464
 7464TIP3    H243884   1.486   5.491   4.349  0.0055  0.9995  1.0028
 7465TIP3   OH243885   5.856   5.656   3.027  0.1239  0.1527 -0.6285
 7465TIP3    H143886   5.887   5.566   3.014  0.3039  0.1099  0.0834
 7465TIP3    H243887   5.935   5.705   3.051  0.0032  0.4719 -0.8859
 7466TIP3   OH243888   6.106   6.313  10.677  0.2533 -0.0976  0.3015
 7466TIP3    H143889   6.040   6.292  10.743 -0.6636 -2.0635 -1.1753
 7466TIP3    H243890   6.057   6.321  10.596  1.4622  1.5993 -0.2875
 7467TIP3   OH243891   2.938   6.267  15.608  0.6866 -0.0877 -0.0601
 7467TIP3    H143892   3.021   6.312  15.628  0.1641  0.8227  0.1100
 7467TIP3    H243893   2.875   6.306  15.669 -0.5799  1.5381 -2.3203
 7468TIP3   OH243894   0.047   1.301   0.282  0.5929  0.0423  0.0943
 7468TIP3    H143895   0.109   1.373   0.289  0.6623  0.1213 -1.2034
 7468TIP3    H243896   0.082   1.234   0.340  1.4546  0.3971 -0.0026
 7469TIP3   OH243897   7.129   5.653   2.390  0.1732 -0.0491 -0.2285
 7469TIP3    H143898   7.157   5.664   2.299  1.9203  1.5063  0.4755
 7469TIP3    H243899   7.182   5.580   2.422 -1.1996 -1.2939 -0.7456
 7470TIP3   OH243900   3.852   6.096  14.333  0.1214 -0.5500  0.0612
 7470TIP3    H143901   3.832   6.002  14.340  0.6858 -0.5700  1.7178
 7470TIP3    H243902   3.946   6.102  14.350 -0.3216  0.5314  2.3293
 7471TIP3   OH243903   6.420   4.950   0.795  0.2542  0.4123  0.6158
 7471TIP3    H143904   6.455   4.896   0.866  0.7916 -0.6243 -0.3979
 7471TIP3    H243905   6.476   4.929   0.720 -1.8082 -0.3944 -0.7521
 7472TIP3   OH243906   0.282   2.183   0.498  0.2877 -0.2649 -0.1524
 7472TIP3    H143907   0.232   2.124   0.555 -0.1563  0.4633  0.2224
 7472TIP3    H243908   0.369   2.143   0.492  0.1587 -0.6576  0.5478
 7473TIP3   OH243909   3.539   2.648   1.138 -0.5371  0.1112  0.1037
 7473TIP3    H143910   3.464   2.608   1.182 -2.0337  0.2464 -2.1862
 7473TIP3    H243911   3.526   2.626   1.045  0.1394  3.4618 -0.8422
 7474TIP3   OH243912   0.963   6.624  13.793 -0.2243  0.0429  0.1782
 7474TIP3    H143913   1.015   6.573  13.855 -0.6852  0.3237  0.8069
 7474TIP3    H243914   0.964   6.573  13.712  2.3167  0.8020 -0.3061
 7475TIP3   OH243915   0.727   1.578   1.675  0.0039 -0.3758  0.2473
 7475TIP3    H143916   0.787   1.505   1.660 -1.3025 -1.1451 -1.3369
 7475TIP3    H243917   0.777   1.655   1.648  0.9887 -0.7831  0.8570
 7476TIP3   OH243918   2.005   3.733   0.799 -1.1042 -0.0028  0.8265
 7476TIP3    H143919   2.038   3.752   0.711  2.1962 -0.0486  1.9668
 7476TIP3    H243920   2.041   3.647   0.820 -0.8040  0.5476  2.6709
 7477TIP3   OH243921   3.263   3.313  15.178  0.0879  0.0654 -0.0548
 7477TIP3    H143922   3.179   3.275  15.203  0.0016 -0.7230 -1.5059
 7477TIP3    H243923   3.245   3.359  15.097  0.7730  1.0203  0.3301
 7478TIP3   OH243924   4.991   1.464  12.256  0.2335 -0.6306  0.5493
 7478TIP3    H143925   5.080   1.481  12.286 -0.0022  1.1028  0.3079
 7478TIP3    H243926   4.986   1.506  12.170 -0.7426 -0.9192  0.4529
 7479TIP3   OH243927   0.001   1.733  15.296 -0.2251  0.0066 -0.1207
 7479TIP3    H143928  -0.059   1.798  15.334  0.4495 -0.7842  2.4015
 7479TIP3    H243929   0.067   1.720  15.364  1.3386 -1.0708 -1.8414
 7480TIP3   OH243930   5.202   1.078  13.655 -0.1331  0.2439  0.0411
 7480TIP3    H143931   5.141   1.143  13.691 -1.1644 -1.1861  0.9273
 7480TIP3    H243932   5.252   1.047  13.731  0.3531  0.0179 -0.3724
 7481TIP3   OH243933   0.866   0.679   1.039  0.1287  0.1415  0.3153
 7481TIP3    H143934   0.952   0.702   1.004  0.3408 -0.7865  0.1994
 7481TIP3    H243935   0.837   0.757   1.086  0.6728  0.7443 -0.3363
 7482TIP3   OH243936   2.587   2.032  14.114 -0.0693 -0.1327 -0.3836
 7482TIP3    H143937   2.664   2.026  14.058 -0.2612  1.5001 -0.8396
 7482TIP3    H243938   2.591   2.120  14.152 -2.1004  0.2705 -1.0171
 7483TIP3   OH243939   2.570   2.564   0.030 -0.0270 -0.0352 -0.8216
 7483TIP3    H143940   2.618   2.495  -0.015 -0.2237 -1.4820  1.0809
 7483TIP3    H243941   2.499   2.518   0.075  0.6697  1.1847  1.6483
 7484TIP3   OH243942   5.283   3.160  13.624  0.2249  0.2568 -0.2434
 7484TIP3    H143943   5.206   3.214  13.639  2.2148  2.6915  1.7891
 7484TIP3    H243944   5.321   3.193  13.542  0.2707  0.5377 -0.1111
 7485TIP3   OH243945   3.187   6.793   1.655 -0.0947 -0.1834 -0.2528
 7485TIP3    H143946   3.166   6.873   1.704 -0.1196 -0.8012  0.7531
 7485TIP3    H243947   3.275   6.809   1.621 -0.5680  0.7599 -1.0697
 7486TIP3   OH243948   3.988   1.423   0.308 -0.3261  0.0360 -0.1228
 7486TIP3    H143949   3.939   1.432   0.390  1.1443  1.3243  0.6280
 7486TIP3    H243950   4.079   1.410   0.336  0.3166  1.4118 -1.5594
 7487TIP3   OH243951   3.365   3.899   2.814  0.2634 -0.4158 -0.3803
 7487TIP3    H143952   3.413   3.825   2.850 -0.9436 -1.9516 -1.8468
 7487TIP3    H243953   3.276   3.866   2.800 -0.3065  1.3134 -1.0742
 7488TIP3   OH243954   2.979   2.336   2.106  0.0941 -0.0729  0.4340
 7488TIP3    H143955   2.895   2.329   2.151  0.8941 -0.9797  1.8362
 7488TIP3    H243956   2.965   2.294   2.021 -0.8944 -0.0907  0.5976
 7489TIP3   OH243957   2.319   2.742  14.168 -0.5958  0.1812  0.1709
 7489TIP3    H143958   2.255   2.714  14.103  0.2454 -1.7181  0.1363
 7489TIP3    H243959   2.325   2.669  14.230  0.8952  0.6825  0.6487
 7490TIP3   OH243960   6.507   6.192  14.568  0.1604  0.6848 -0.1686
 7490TIP3    H143961   6.556   6.262  14.525 -0.8875  0.7017 -1.3671
 7490TIP3    H243962   6.574   6.132  14.600  1.0861  2.5045  1.3504
 7491TIP3   OH243963   4.052   1.697  12.664  0.1005  0.3196 -0.3790
 7491TIP3    H143964   4.015   1.730  12.746 -0.3620  1.4402 -1.0227
 7491TIP3    H243965   3.982   1.710  12.600  1.3463  1.8312 -1.4708
 7492TIP3   OH243966   5.688   0.760  15.579 -0.2554 -0.7205 -0.3844
 7492TIP3    H143967   5.745   0.831  15.548 -1.0739 -0.4744 -1.3174
 7492TIP3    H243968   5.617   0.804  15.626 -0.6202 -0.9372 -0.7308
 7493TIP3   OH243969   1.311   0.178  13.535 -0.0115  0.1527  0.3431
 7493TIP3    H143970   1.297   0.136  13.450  0.3793  1.3252 -0.3116
 7493TIP3    H243971   1.224   0.178  13.576 -0.6431  1.4309 -0.9271
 7494TIP3   OH243972   0.442   4.502  12.528 -0.1940  0.0585 -0.0877
 7494TIP3    H143973   0.527   4.479  12.490 -0.8412 -0.0986 -1.4668
 7494TIP3    H243974   0.459   4.510  12.622  1.0435 -1.3678 -0.1750
 7495TIP3   OH243975   2.877   2.007  14.926  0.4646 -0.1734 -0.1140
 7495TIP3    H143976   2.807   2.060  14.964  0.6030 -1.3366  1.8229
 7495TIP3    H243977   2.864   1.920  14.962  1.6714 -0.9055 -1.4002
 7496TIP3   OH243978   5.791   6.177  12.062 -0.1430  0.3016  0.3811
 7496TIP3    H143979   5.805   6.138  12.148 -1.9460 -2.5519 -0.5407
 7496TIP3    H243980   5.787   6.102  12.003  0.7569  2.2037 -2.1672
 7497TIP3   OH243981   5.770   2.128  14.239  0.3662 -0.3101  0.3110
 7497TIP3    H143982   5.766   2.199  14.303 -1.5655 -1.0224  1.0177
 7497TIP3    H243983   5.862   2.126  14.211  1.1757  0.2265  2.8022
 7498TIP3   OH243984   4.847   4.834  11.794  0.2598 -1.1024 -0.6049
 7498TIP3    H143985   4.889   4.888  11.727 -0.8136 -0.4750 -0.8003
 7498TIP3    H243986   4.833   4.750  11.751 -1.5133 -0.3404 -1.6256
 7499TIP3   OH243987   0.485   3.411  12.846 -0.2212  0.0129 -0.4032
 7499TIP3    H143988   0.421   3.404  12.917 -0.3292 -0.9943 -0.5934
 7499TIP3    H243989   0.553   3.347  12.868 -0.5891 -0.7966 -1.5378
 7500TIP3   OH243990   0.702   0.919   2.046  0.5444  0.3652  0.1677
 7500TIP3    H143991   0.645   0.932   1.970 -2.8463 -1.3843  2.2981
 7500TIP3    H243992   0.709   1.006   2.085  0.4033  0.8365 -0.8135
 7501TIP3   OH243993   3.404   2.389  15.143  0.3373 -0.1841 -0.5672
 7501TIP3    H143994   3.433   2.309  15.187 -0.2615 -0.2737 -0.3335
 7501TIP3    H243995   3.379   2.361  15.055 -1.5336 -0.5554  0.0739
 7502TIP3   OH243996   5.472   1.277   0.128  0.3362 -0.0930 -0.1109
 7502TIP3    H143997   5.502   1.247   0.042  3.0724 -1.0082  1.0987
 7502TIP3    H243998   5.456   1.371   0.116  1.6337 -0.0137 -1.4154
 7503TIP3   OH243999   6.153   1.174  10.912 -0.5801 -0.1928  0.0865
 7503TIP3    H144000   6.177   1.165  10.820 -1.3604 -1.0897 -0.0360
 7503TIP3    H244001   6.232   1.210  10.953  0.2475 -1.0702 -0.6914
 7504TIP3   OH244002   0.889   2.461  15.534  0.0587 -0.1655 -0.9718
 7504TIP3    H144003   0.811   2.451  15.588  0.1130  0.0458 -0.8534
 7504TIP3    H244004   0.954   2.405  15.575  0.7565  1.6212  0.4547
 7505TIP3   OH244005   3.031   0.675  15.164 -0.5797  0.2517 -0.1530
 7505TIP3    H144006   3.083   0.754  15.174  2.2099 -1.7012  1.6496
 7505TIP3    H244007   2.957   0.686  15.224  0.9623  0.6228  1.7391
 7506TIP3   OH244008   2.129   2.498  13.091 -0.2210 -0.0994 -0.7591
 7506TIP3    H144009   2.084   2.414  13.091  2.1342 -1.3972 -0.3745
 7506TIP3    H244010   2.221   2.476  13.079  0.2590  2.5480 -2.2538
 7507TIP3   OH244011   2.882   1.292  13.998 -1.2707  0.1766 -0.3740
 7507TIP3    H144012   2.946   1.231  14.034 -1.1761 -0.6359 -1.9014
 7507TIP3    H244013   2.922   1.379  14.010 -0.3094 -0.2485 -0.4604
 7508TIP3   OH244014   6.092   4.194  11.484  0.3508  0.2854 -0.4454
 7508TIP3    H144015   6.110   4.224  11.395  1.7846  0.8407  0.0161
 7508TIP3    H244016   6.176   4.160  11.515 -0.8899 -3.0698 -0.4921
 7509TIP3   OH244017   0.913   5.729  11.435 -0.2674  0.4605 -0.7594
 7509TIP3    H144018   0.874   5.702  11.352 -0.2285 -0.8346 -0.3707
 7509TIP3    H244019   0.852   5.695  11.502 -0.6137  1.9935 -0.2659
 7510TIP3   OH244020   3.030   7.136  13.324  1.0521  0.1029 -0.2182
 7510TIP3    H144021   3.024   7.226  13.355 -1.6896 -0.2296  0.3870
 7510TIP3    H244022   3.114   7.132  13.278  1.2909  2.9042 -0.1397
 7511TIP3   OH244023   5.579   6.787  15.146  0.1087 -0.0826 -0.3569
 7511TIP3    H144024   5.573   6.874  15.106  0.7954  0.4770  0.7150
 7511TIP3    H244025   5.496   6.745  15.126  0.1413  0.4662 -1.6952
 7512TIP3   OH244026   2.240   5.313   0.544 -0.1937 -0.1020 -0.0336
 7512TIP3    H144027   2.149   5.286   0.539  0.0050 -0.5499 -1.2948
 7512TIP3    H244028   2.277   5.261   0.615 -0.6912 -0.5945 -0.1325
 7513TIP3   OH244029   1.788   2.527  13.675  0.0701 -0.3153  0.1797
 7513TIP3    H144030   1.827   2.598  13.624 -0.1974 -0.5412 -0.3395
 7513TIP3    H244031   1.737   2.572  13.743  1.4174 -0.0150  1.0232
 7514TIP3   OH244032   5.931   1.618  11.429  0.0878  0.4803 -0.0825
 7514TIP3    H144033   5.885   1.553  11.377  0.1913 -0.1334  0.5895
 7514TIP3    H244034   5.894   1.702  11.401 -1.8252 -0.0327  0.8402
 7515TIP3   OH244035   3.260   2.538  12.343  0.2874  0.1082  0.2033
 7515TIP3    H144036   3.283   2.467  12.404  0.2401 -1.0419 -1.0865
 7515TIP3    H244037   3.333   2.600  12.350  0.3853 -0.1095  1.2583
 7516TIP3   OH244038   6.360   0.114  11.014 -0.1547 -0.0499  0.1260
 7516TIP3    H144039   6.442   0.155  10.989  0.2317  0.9183  2.8673
 7516TIP3    H244040   6.383   0.022  11.029  0.3010  0.1076  0.3843
 7517TIP3   OH244041   1.590   1.403  15.299  0.3538 -0.4928 -0.2493
 7517TIP3    H144042   1.596   1.488  15.344  0.8110  0.1979 -1.5933
 7517TIP3    H244043   1.596   1.339  15.370 -2.4288  0.5963  1.0734
 7518TIP3   OH244044   1.129   0.818  14.850 -0.3173  0.1614 -0.2039
 7518TIP3    H144045   1.066   0.872  14.898  0.7112  1.5443 -0.3586
 7518TIP3    H244046   1.173   0.766  14.917 -1.2126 -0.3658 -0.0284
 7519TIP3   OH244047   1.550   0.368  11.884 -0.0926  0.0033  0.1075
 7519TIP3    H144048   1.609   0.443  11.885  0.9200 -0.7754 -0.9599
 7519TIP3    H244049   1.466   0.404  11.857  0.0949  0.9515  0.7627
 7520TIP3   OH244050   6.188   0.643   3.042 -0.2974 -0.9159  0.2682
 7520TIP3    H144051   6.194   0.725   3.091 -0.5401 -0.3240 -0.6729
 7520TIP3    H244052   6.177   0.576   3.109  0.1932 -0.2137  1.0673
 7521TIP3   OH244053   4.499   2.670  13.132 -0.0594  0.2201 -0.4015
 7521TIP3    H144054   4.571   2.655  13.071 -0.3101 -0.7080 -0.4825
 7521TIP3    H244055   4.482   2.764  13.127  2.6040  0.8276  1.2656
 7522TIP3   OH244056   3.225   2.696  13.342  0.5147  0.5832  0.3217
 7522TIP3    H144057   3.284   2.621  13.331 -1.2900 -1.0389  1.3140
 7522TIP3    H244058   3.237   2.723  13.433 -0.6683 -0.1152  0.6929
 7523TIP3   OH244059   0.818   6.084   2.683 -0.6642 -0.4994  0.0261
 7523TIP3    H144060   0.814   6.115   2.773 -0.7171 -1.1865  0.2645
 7523TIP3    H244061   0.891   6.131   2.644 -2.3714  1.9091 -0.3811
 7524TIP3   OH244062   4.487   2.561  13.715 -0.2324 -0.0932 -0.0933
 7524TIP3    H144063   4.563   2.515  13.678  0.7779  0.4632  1.2677
 7524TIP3    H244064   4.438   2.494  13.761 -0.0786 -0.2792 -0.2025
 7525TIP3   OH244065   6.472   6.352  12.885  0.1074 -0.4411  0.5623
 7525TIP3    H144066   6.437   6.439  12.866  0.1660 -0.4070  0.6068
 7525TIP3    H244067   6.456   6.340  12.979  3.3083  1.0337  1.3702
 7526TIP3   OH244068   4.039   1.639  14.624 -0.1192 -0.4054  0.1314
 7526TIP3    H144069   4.083   1.590  14.553 -0.3602  2.5098 -2.1337
 7526TIP3    H244070   4.043   1.580  14.699  2.8300 -2.4262 -1.4816
 7527TIP3   OH244071   4.895   3.702  14.043 -0.2879 -0.1039 -0.1827
 7527TIP3    H144072   4.884   3.611  14.013  1.4991 -0.6149  0.6342
 7527TIP3    H244073   4.926   3.693  14.133  1.0899  1.3083 -0.5103
 7528TIP3   OH244074   6.016   4.649  10.666  0.2568 -0.0093 -0.5370
 7528TIP3    H144075   5.971   4.651  10.751  0.1478  0.7658 -0.6124
 7528TIP3    H244076   6.025   4.741  10.641 -0.7046 -0.2685 -1.8962
 7529TIP3   OH244077   5.459   5.268  13.283 -0.3179  0.1847  0.2263
 7529TIP3    H144078   5.412   5.292  13.203 -0.7791 -0.3027  0.3501
 7529TIP3    H244079   5.439   5.175  13.296  0.6066 -0.0052  0.3307
 7530TIP3   OH244080   4.035   4.079  14.063  0.2063  0.4322 -0.0995
 7530TIP3    H144081   4.024   4.022  14.138  2.1904  0.8650  0.5482
 7530TIP3    H244082   4.051   4.020  13.989  1.8054  0.0868  0.4894
 7531TIP3   OH244083   0.070   5.808   2.614 -0.4761 -0.4027 -0.3938
 7531TIP3    H144084   0.032   5.891   2.642 -0.6233 -0.8143  0.6334
 7531TIP3    H244085   0.018   5.783   2.537 -0.9229  0.0716 -0.2513
 7532TIP3   OH244086   6.039   6.521  11.378  0.0840 -0.7053 -0.0577
 7532TIP3    H144087   6.097   6.513  11.302  0.9040  0.8129  0.3705
 7532TIP3    H244088   6.028   6.432  11.410 -0.3422 -1.3846 -1.9987
 7533TIP3   OH244089   7.073   1.705  10.870 -0.4739 -0.3312  0.0455
 7533TIP3    H144090   6.992   1.697  10.819 -0.7124  0.9347  0.2092
 7533TIP3    H244091   7.043   1.710  10.961 -0.3560  2.1237 -0.0237
 7534TIP3   OH244092   5.270   1.079   4.155  0.2811 -0.1886 -0.2610
 7534TIP3    H144093   5.363   1.074   4.176  0.4418  0.8506 -0.7024
 7534TIP3    H244094   5.265   1.050   4.064  0.3190  0.7780 -0.5789
 7535TIP3   OH244095   4.486   1.400  14.398 -1.0167  0.2919  0.3453
 7535TIP3    H144096   4.469   1.305  14.397 -0.4678  0.1957 -1.9368
 7535TIP3    H244097   4.539   1.415  14.320 -0.9940  2.4745  0.7740
 7536TIP3   OH244098   1.667   3.626   0.802  0.5372 -0.4375  0.4465
 7536TIP3    H144099   1.677   3.544   0.849  1.4499 -0.2611  0.5629
 7536TIP3    H244100   1.738   3.681   0.834 -2.1346  1.6870  3.0607
 7537TIP3   OH244101   5.331   6.682  15.126  0.0292  0.7105  0.0423
 7537TIP3    H144102   5.261   6.740  15.157 -1.3383 -1.4454  1.0700
 7537TIP3    H244103   5.291   6.595  15.122  2.1939 -0.2726 -0.9717
 7538TIP3   OH244104   3.623   1.013  12.393  0.2316 -0.0534 -0.2388
 7538TIP3    H144105   3.665   0.944  12.342  0.5245  0.3958 -0.6138
 7538TIP3    H244106   3.672   1.092  12.369 -1.7617  0.7425 -1.8174
 7539TIP3   OH244107   4.377   5.596  13.911  0.2032 -0.2805 -0.1263
 7539TIP3    H144108   4.409   5.596  13.821  0.7664  1.2989  0.0730
 7539TIP3    H244109   4.426   5.525  13.953  1.0628 -0.0144 -0.6694
 7540TIP3   OH244110   1.233   4.980  13.960  0.2722  0.3881  0.2081
 7540TIP3    H144111   1.139   4.998  13.959  0.3124  0.5983  0.2826
 7540TIP3    H244112   1.266   5.023  13.881  0.3851  0.7231  0.4407
 7541TIP3   OH244113   6.178   5.836  15.467 -0.9119 -0.6034 -0.2402
 7541TIP3    H144114   6.270   5.831  15.494 -0.7079  1.7625 -0.3732
 7541TIP3    H244115   6.159   5.930  15.467 -3.4185 -1.0880  0.0802
 7542TIP3   OH244116   0.182   1.049   0.969  0.2459 -0.0502  0.1812
 7542TIP3    H144117   0.121   0.986   0.932 -0.2971  0.5780 -0.0103
 7542TIP3    H244118   0.258   1.046   0.910  0.3909 -0.8160  0.4088
 7543TIP3   OH244119   1.056   2.468  12.572  0.2315  0.2745 -0.0443
 7543TIP3    H144120   1.117   2.417  12.519  1.0116  0.9181  0.2327
 7543TIP3    H244121   1.023   2.406  12.637 -1.0019 -0.6160 -1.4731
 7544TIP3   OH244122   6.051   0.176  13.291  0.4052 -1.0974 -0.4469
 7544TIP3    H144123   6.012   0.123  13.360  0.1494  0.3422  0.5456
 7544TIP3    H244124   6.023   0.135  13.209 -0.0968 -2.2509  0.2987
 7545TIP3   OH244125   5.039   3.269  12.870 -1.0551  0.0392 -0.7182
 7545TIP3    H144126   4.958   3.219  12.883 -0.6117 -0.5377 -0.1308
 7545TIP3    H244127   5.069   3.289  12.958 -0.1097 -0.4739 -0.9198
 7546TIP3   OH244128   2.525   6.354  13.046  0.1883 -0.3313  0.0450
 7546TIP3    H144129   2.550   6.354  12.954 -2.0072  2.0786 -0.6025
 7546TIP3    H244130   2.501   6.263  13.064  0.3527 -0.7655 -1.8390
 7547TIP3   OH244131   1.538   2.756  11.831 -0.0701 -0.0734 -0.0891
 7547TIP3    H144132   1.526   2.849  11.809  1.0538 -0.8049 -4.1558
 7547TIP3    H244133   1.475   2.710  11.775  2.0802 -1.9943 -1.0053
 7548TIP3   OH244134   6.010   2.645  13.531  0.4153 -0.0989  0.1107
 7548TIP3    H144135   6.013   2.561  13.576 -2.6014 -0.6436 -0.5803
 7548TIP3    H244136   5.986   2.708  13.600  3.1398  0.3075  0.7232
 7549TIP3   OH244137   2.208   3.642  13.206  0.0997  0.6509  0.6072
 7549TIP3    H144138   2.289   3.626  13.253  0.3685  1.7976  0.5482
 7549TIP3    H244139   2.207   3.577  13.136  0.7213  0.3190  0.9054
 7550TIP3   OH244140   1.329   3.538  10.840  0.2437  0.5606  0.3543
 7550TIP3    H144141   1.423   3.522  10.839  0.2095  0.4190 -0.2705
 7550TIP3    H244142   1.311   3.589  10.761 -0.4218 -0.6783 -0.3139
 7551TIP3   OH244143   3.922   6.018  12.217  0.2286  0.2779 -0.2015
 7551TIP3    H144144   3.950   5.995  12.306 -0.7696 -0.0058  0.0438
 7551TIP3    H244145   3.857   5.951  12.195 -0.6166  1.2130 -0.5770
 7552TIP3   OH244146   6.510   3.603  15.448  0.2521  0.1563  0.0211
 7552TIP3    H144147   6.549   3.650  15.374 -1.1061 -1.9949 -2.1214
 7552TIP3    H244148   6.570   3.531  15.465  2.1181  2.3000  3.0418
 7553TIP3   OH244149   0.338   1.640   0.787 -0.3731 -0.0447  0.2874
 7553TIP3    H144150   0.320   1.576   0.855 -2.7382  0.5053  0.2427
 7553TIP3    H244151   0.263   1.633   0.728  1.4694 -0.2902 -2.1019
 7554TIP3   OH244152   6.642   3.108   9.935  0.7286 -0.2787 -0.0650
 7554TIP3    H144153   6.558   3.108   9.890  0.7998 -1.6412 -0.2303
 7554TIP3    H244154   6.633   3.175  10.003 -0.6895 -0.8009  0.2879
 7555TIP3   OH244155   4.527   4.977   1.243 -0.6201  0.4158  0.5193
 7555TIP3    H144156   4.608   4.939   1.278 -0.5209 -0.0170 -0.1619
 7555TIP3    H244157   4.462   4.908   1.250 -0.9327  0.7651  1.0652
 7556TIP3   OH244158   2.808   6.116  13.992  0.0893 -0.1356  0.0057
 7556TIP3    H144159   2.820   6.185  13.927  2.9964  0.3612  1.0376
 7556TIP3    H244160   2.843   6.152  14.073 -1.9886 -1.3751  1.5174
 7557TIP3   OH244161   1.445   0.433  14.080  0.1831 -0.2547 -0.3984
 7557TIP3    H144162   1.511   0.391  14.025 -2.1079 -0.0683 -3.4861
 7557TIP3    H244163   1.411   0.504  14.025 -1.9574  0.1694  1.4280
 7558TIP3   OH244164   3.900   4.276  15.338  0.0730 -0.1120  0.1383
 7558TIP3    H144165   3.825   4.220  15.362  0.7452 -0.3702  1.7172
 7558TIP3    H244166   3.956   4.275  15.416  1.7389  0.0706 -1.0371
 7559TIP3   OH244167   3.832   1.884  12.586  0.0781 -0.0287 -0.3594
 7559TIP3    H144168   3.900   1.927  12.534 -0.2338 -0.7609 -1.3821
 7559TIP3    H244169   3.752   1.932  12.566  0.1757  0.4565  0.3875
 7560TIP3   OH244170   3.710   2.332  12.988  0.1096  0.6550 -0.1910
 7560TIP3    H144171   3.714   2.426  12.972 -0.8016  0.3520 -2.4430
 7560TIP3    H244172   3.771   2.294  12.925  1.6422 -0.1738  1.7526
 7561TIP3   OH244173   5.261   0.247  12.368 -0.3107 -0.1788 -0.1301
 7561TIP3    H144174   5.297   0.161  12.388  0.8389  1.0982  3.8303
 7561TIP3    H244175   5.332   0.294  12.325 -0.2119 -0.5096 -0.3277
 7562TIP3   OH244176   1.416   5.219  15.611  0.2873  0.2978  0.2013
 7562TIP3    H144177   1.420   5.123  15.606  0.8241  0.3060  0.5003
 7562TIP3    H244178   1.435   5.248  15.522 -1.1621  0.0916 -0.1915
 7563TIP3   OH244179   1.609   3.239  13.293 -0.3225  0.2541  0.0468
 7563TIP3    H144180   1.591   3.196  13.377  0.6266  0.4360  0.3580
 7563TIP3    H244181   1.524   3.272  13.264 -0.4728  1.2240  1.5322
 7564TIP3   OH244182   5.217   3.656  12.665  0.2390 -0.2839  0.3285
 7564TIP3    H144183   5.295   3.655  12.609  0.4765 -0.3781  0.6615
 7564TIP3    H244184   5.169   3.577  12.640 -1.1840  1.2210 -1.8931
 7565TIP3   OH244185   3.469   1.095   1.085 -0.3788 -0.0128 -0.3240
 7565TIP3    H144186   3.393   1.139   1.046 -1.8338 -0.1007  2.3348
 7565TIP3    H244187   3.433   1.044   1.157  1.7532 -2.9817 -1.2899
 7566TIP3   OH244188   1.572   0.555   0.854  0.5038  0.0853 -0.1953
 7566TIP3    H144189   1.542   0.498   0.783 -0.2037  3.7167 -2.9044
 7566TIP3    H244190   1.664   0.530   0.867 -0.1090 -2.4585 -0.4994
 7567TIP3   OH244191   2.510   2.240  14.415 -0.3229 -0.1570  0.0479
 7567TIP3    H144192   2.486   2.313  14.473 -0.6346 -1.9980  2.3405
 7567TIP3    H244193   2.596   2.212  14.446 -0.5146 -1.1977 -0.3457
 7568TIP3   OH244194   3.109   0.582  13.670  0.5727  0.1308  0.3894
 7568TIP3    H144195   3.193   0.615  13.703  0.1315  1.7915 -0.0703
 7568TIP3    H244196   3.061   0.556  13.749  2.5191 -3.4356  0.5062
 7569TIP3   OH244197   4.454   3.475  13.520 -0.1719  0.5301  0.2964
 7569TIP3    H144198   4.470   3.387  13.552 -1.5100  0.3488  0.5122
 7569TIP3    H244199   4.380   3.466  13.460  1.4328  1.0822 -1.8308
 7570TIP3   OH244200   2.719   4.497   1.631 -0.2428 -0.1543 -0.0945
 7570TIP3    H144201   2.741   4.589   1.642 -0.1320 -0.1081 -0.6421
 7570TIP3    H244202   2.801   4.455   1.607 -0.4014 -0.2943 -0.4047
 7571TIP3   OH244203   5.498   3.496   0.767 -0.1393 -0.1187 -0.1239
 7571TIP3    H144204   5.442   3.573   0.776  0.0778  0.3083 -2.0846
 7571TIP3    H244205   5.533   3.482   0.855 -0.1286  2.0553  0.2638
 7572TIP3   OH244206   2.149   3.269  10.412  0.0512 -0.0730 -0.6424
 7572TIP3    H144207   2.144   3.233  10.324 -0.3917  1.2955 -1.1956
 7572TIP3    H244208   2.064   3.251  10.451  0.1780 -0.5010 -0.5597
 7573TIP3   OH244209   4.404   4.519  10.886  0.3223  0.1531 -0.2319
 7573TIP3    H144210   4.333   4.573  10.919  2.1652  1.6086  1.5169
 7573TIP3    H244211   4.370   4.479  10.806 -2.2319  1.2373  0.2860
 7574TIP3   OH244212   4.759   2.269   1.477  0.1036  0.9855 -0.5266
 7574TIP3    H144213   4.761   2.233   1.388  1.0700 -0.9579  0.2394
 7574TIP3    H244214   4.834   2.329   1.481  1.3795 -0.5703 -0.4028
 7575TIP3   OH244215   1.269   0.364  11.041  0.0212 -0.6133 -0.0072
 7575TIP3    H144216   1.216   0.307  10.986  0.0045 -0.7315  0.1335
 7575TIP3    H244217   1.216   0.379  11.119  1.0705 -2.4817  1.1098
 7576TIP3   OH244218   0.297   1.632  13.152  0.4852 -0.5924 -0.1959
 7576TIP3    H144219   0.378   1.593  13.184  1.4909  1.5801  0.0518
 7576TIP3    H244220   0.308   1.637  13.057  0.6440 -0.3074 -0.1626
 7577TIP3   OH244221   6.213   3.434  12.800 -0.3588  0.0130  0.3260
 7577TIP3    H144222   6.166   3.498  12.746 -0.8781  0.7975  1.7049
 7577TIP3    H244223   6.253   3.486  12.870 -0.4595 -1.1233  1.2360
 7578TIP3   OH244224   5.154   2.111  13.458 -0.4048 -0.1725  0.0455
 7578TIP3    H144225   5.140   2.067  13.374  1.9170  1.8496 -1.4848
 7578TIP3    H244226   5.094   2.186  13.456  1.0854  1.0209 -0.7275
 7579TIP3   OH244227   0.160   2.720   9.919 -0.1293  0.1020  0.3476
 7579TIP3    H144228   0.186   2.773   9.995 -0.1586 -1.0006  1.1292
 7579TIP3    H244229   0.241   2.708   9.869  0.2880 -0.8242  1.2340
 7580TIP3   OH244230   5.216   6.487  12.791 -0.1263  0.4600 -0.0730
 7580TIP3    H144231   5.305   6.507  12.762  0.1735 -1.7595 -0.7959
 7580TIP3    H244232   5.198   6.550  12.860  1.3979  1.9781 -1.0384
 7581TIP3   OH244233   3.624   5.236  15.259 -0.0784 -0.0702  0.4353
 7581TIP3    H144234   3.651   5.286  15.182  0.9669 -1.1384  0.0853
 7581TIP3    H244235   3.529   5.238  15.257 -0.1037 -1.4860 -1.8314
 7582TIP3   OH244236   5.115   0.888  10.867 -0.1246  0.2245 -0.0798
 7582TIP3    H144237   5.034   0.838  10.878  1.3251 -1.7925  1.8353
 7582TIP3    H244238   5.135   0.881  10.774 -1.4534 -0.3628 -0.3356
 7583TIP3   OH244239   3.698   3.199  11.784 -0.5439 -0.3101 -1.0766
 7583TIP3    H144240   3.670   3.185  11.693 -1.7669 -2.6708 -0.4067
 7583TIP3    H244241   3.625   3.165  11.836  0.4433  0.3565  0.7798
 7584TIP3   OH244242   2.745   3.904  14.740  0.1472 -0.5159 -0.3120
 7584TIP3    H144243   2.743   3.814  14.772  3.0029  0.0347  1.6959
 7584TIP3    H244244   2.839   3.925  14.733 -0.4551  2.1350 -1.1807
 7585TIP3   OH244245   3.434   3.000  13.528  0.0127  0.1739  0.1495
 7585TIP3    H144246   3.508   3.049  13.565  0.2314 -0.1697  0.1708
 7585TIP3    H244247   3.362   3.019  13.587 -0.0353  0.8920 -0.1387
 7586TIP3   OH244248   2.850   0.181  15.425 -0.4058  0.5490 -0.2083
 7586TIP3    H144249   2.851   0.274  15.406 -0.4356  0.4880 -0.5144
 7586TIP3    H244250   2.888   0.173  15.513 -0.1756  0.8242 -0.2856
 7587TIP3   OH244251   1.998   3.220  15.353 -0.4888  0.0325 -0.2309
 7587TIP3    H144252   2.001   3.208  15.448 -0.7529  1.7679  0.0202
 7587TIP3    H244253   1.904   3.219  15.332 -0.4877  0.8410 -0.2933
 7588TIP3   OH244254   2.388   6.303  14.145 -0.2170  0.0102 -0.1598
 7588TIP3    H144255   2.366   6.247  14.070 -2.8640 -0.5064  0.9773
 7588TIP3    H244256   2.318   6.369  14.148 -0.4926 -0.3482  2.2210
 7589TIP3   OH244257   2.376   6.383   2.771 -0.3054 -0.2841  0.6321
 7589TIP3    H144258   2.395   6.298   2.812  1.8519 -0.5365 -0.7809
 7589TIP3    H244259   2.355   6.441   2.844 -0.2699 -1.6387  1.7519
 7590TIP3   OH244260   0.825   6.496  13.398 -0.0732  0.1510  0.8985
 7590TIP3    H144261   0.867   6.580  13.382  0.7063 -0.1563  1.2734
 7590TIP3    H244262   0.738   6.518  13.431 -0.6479  0.7954 -0.9763
 7591TIP3   OH244263   5.434   3.576  13.563 -0.1965 -0.2440 -0.5219
 7591TIP3    H144264   5.467   3.655  13.607  0.9788 -1.0707  0.0993
 7591TIP3    H244265   5.499   3.509  13.582 -1.0667 -1.3138 -1.2600
 7592TIP3   OH244266   0.053   2.050   0.309  0.3811 -0.6742 -0.1300
 7592TIP3    H144267   0.004   1.988   0.254  1.3920 -0.2284 -1.5662
 7592TIP3    H244268   0.057   2.007   0.394  0.1237 -2.1054 -0.8098
 7593TIP3   OH244269   6.778   7.088  10.371  0.0116 -0.0435  0.2399
 7593TIP3    H144270   6.826   7.018  10.414  2.6826  0.9021 -1.1194
 7593TIP3    H244271   6.762   7.056  10.282 -0.8810  0.1090  0.3398
 7594TIP3   OH244272   3.099   2.510   0.318 -0.3205  0.0341  0.3435
 7594TIP3    H144273   3.005   2.492   0.323 -0.1320 -1.2913 -0.7925
 7594TIP3    H244274   3.138   2.449   0.381 -0.3410  1.6713  1.9871
 7595TIP3   OH244275   5.209   1.800  11.699  0.3134  0.2127  0.1719
 7595TIP3    H144276   5.267   1.866  11.662  2.4780 -1.5048  0.3891
 7595TIP3    H244277   5.195   1.738  11.628 -0.7523  0.2615  0.3307
 7596TIP3   OH244278   2.833   1.733  14.923  0.5153 -0.5031  0.2469
 7596TIP3    H144279   2.868   1.721  14.835  0.6440  0.8524  0.0970
 7596TIP3    H244280   2.896   1.690  14.980  0.5504 -1.1952 -0.3034
 7597TIP3   OH244281   5.880   6.707  14.365  0.1700 -0.1177 -0.1474
 7597TIP3    H144282   5.874   6.628  14.312  0.3920 -1.6322  2.0158
 7597TIP3    H244283   5.857   6.678  14.454 -1.1121  2.5293  0.4241
 7598TIP3   OH244284   3.900   3.234  14.453 -0.4847  0.3068 -0.2509
 7598TIP3    H144285   3.841   3.164  14.425  1.3543 -0.5925 -1.9929
 7598TIP3    H244286   3.958   3.248  14.379  2.8311 -0.2874  2.0802
 7599TIP3   OH244287   7.147   6.964  14.401 -0.5015 -0.4529  0.0469
 7599TIP3    H144288   7.109   7.048  14.426 -0.0339  0.1760 -1.3036
 7599TIP3    H244289   7.140   6.910  14.480 -0.8190  0.8443  0.9259
 7600TIP3   OH244290   6.749   2.246  13.124 -0.0075 -0.1592  0.6647
 7600TIP3    H144291   6.830   2.291  13.101 -0.2296  0.0059  0.1951
 7600TIP3    H244292   6.690   2.316  13.152 -0.3451 -0.1560 -0.0392
 7601TIP3   OH244293   4.344   3.420  12.505 -0.5825 -0.0105  0.2066
 7601TIP3    H144294   4.289   3.497  12.504 -2.1319 -1.0951  0.4776
 7601TIP3    H244295   4.339   3.385  12.416 -0.8764 -0.4769  0.4026
 7602TIP3   OH244296   5.864   2.858   1.787 -0.2232  0.5635 -0.3826
 7602TIP3    H144297   5.924   2.929   1.809  1.3107 -0.5739 -0.8687
 7602TIP3    H244298   5.883   2.790   1.851 -1.2757  0.3445 -0.2928
 7603TIP3   OH244299   0.579   1.324  10.963  0.0623  0.5951  0.4409
 7603TIP3    H144300   0.561   1.321  10.869  0.0365  0.9775  0.4324
 7603TIP3    H244301   0.514   1.384  10.999 -2.4617 -2.5466  1.3239
 7604TIP3   OH244302   5.443   2.135   0.672 -0.6682  0.7967 -0.6776
 7604TIP3    H144303   5.353   2.111   0.695 -0.9897 -0.8606 -3.4132
 7604TIP3    H244304   5.447   2.122   0.577  1.9919  2.4705 -0.8272
 7605TIP3   OH244305   3.133   3.659  14.105 -0.3500 -0.2689  0.2515
 7605TIP3    H144306   3.170   3.571  14.100 -0.4459 -0.2126 -4.3503
 7605TIP3    H244307   3.043   3.649  14.073 -1.0745  1.1736  1.7651
 7606TIP3   OH244308   4.309   4.549  12.522  0.2037 -0.1131 -0.0508
 7606TIP3    H144309   4.219   4.581  12.531 -0.3905 -1.7786 -0.0513
 7606TIP3    H244310   4.321   4.538  12.428  1.1367  2.0961 -0.2370
 7607TIP3   OH244311   7.129   1.851   0.473 -0.5169  0.2632  0.0515
 7607TIP3    H144312   7.061   1.865   0.539 -1.4405  0.5881 -0.9563
 7607TIP3    H244313   7.083   1.857   0.390  0.2693 -2.1483 -0.5954
 7608TIP3   OH244314   1.607   6.724  14.403  0.3769 -0.2356 -0.5306
 7608TIP3    H144315   1.634   6.770  14.482  0.2626 -1.8022  0.4397
 7608TIP3    H244316   1.558   6.648  14.435  2.0215 -1.9744 -2.0363
 7609TIP3   OH244317   3.630   3.940  11.417 -0.3559  0.0376  0.0669
 7609TIP3    H144318   3.680   3.860  11.402 -0.8855 -0.3014  0.0866
 7609TIP3    H244319   3.561   3.937  11.351  0.1911  0.9587 -0.5633
 7610TIP3   OH244320   6.625   2.551  11.591  0.0488  0.1980 -0.0800
 7610TIP3    H144321   6.580   2.633  11.570  0.6473  0.3425 -0.8542
 7610TIP3    H244322   6.689   2.541  11.520  0.3640 -0.6476  0.3215
 7611TIP3   OH244323   3.786   2.307  10.299  0.2846 -0.0612 -0.1306
 7611TIP3    H144324   3.741   2.235  10.255  1.6948 -1.0865  0.0803
 7611TIP3    H244325   3.753   2.303  10.389 -1.3196  0.9764 -0.6487
 7612TIP3   OH244326   7.048   2.715  13.470 -0.1576  0.0147 -0.2838
 7612TIP3    H144327   7.058   2.793  13.524  1.1662 -0.6988  0.5312
 7612TIP3    H244328   7.072   2.742  13.382  2.2054  0.0494  0.3569
 7613TIP3   OH244329   0.238   3.496  14.767  0.4471 -0.3546  0.3924
 7613TIP3    H144330   0.188   3.548  14.704 -1.1520  1.5585  3.1481
 7613TIP3    H244331   0.241   3.408  14.729  0.9411  1.1089 -3.0880
 7614TIP3   OH244332   2.759   5.773  13.511 -0.1171 -0.0510 -0.0990
 7614TIP3    H144333   2.744   5.681  13.536 -0.3873 -0.0971 -0.4312
 7614TIP3    H244334   2.826   5.803  13.573 -0.9372 -0.0942  0.8166
 7615TIP3   OH244335   2.313   2.198   4.926 -0.4363  0.4057 -0.5614
 7615TIP3    H144336   2.366   2.128   4.963 -0.8883 -1.2077 -2.8963
 7615TIP3    H244337   2.377   2.259   4.888 -0.0794  0.9732  0.8986
 7616TIP3   OH244338   1.770   2.733  15.238  0.1897 -0.6424 -0.6318
 7616TIP3    H144339   1.714   2.808  15.255  0.0931 -0.4749 -1.6361
 7616TIP3    H244340   1.859   2.763  15.259  0.0398 -0.5624 -0.0992
 7617TIP3   OH244341   1.462   6.164  15.569 -0.1000 -0.3309 -0.0708
 7617TIP3    H144342   1.393   6.099  15.585  1.9382 -2.7079 -0.5659
 7617TIP3    H244343   1.435   6.208  15.489 -0.4771 -2.0449 -0.9103
 7618TIP3   OH244344   4.387   5.646  15.073  0.4072  0.0761 -0.3168
 7618TIP3    H144345   4.393   5.728  15.024 -3.4900 -0.3608 -1.7323
 7618TIP3    H244346   4.330   5.667  15.147 -1.3247 -1.5130 -1.1602
 7619TIP3   OH244347   5.695   3.268  14.342  0.2459 -0.2031  0.1543
 7619TIP3    H144348   5.697   3.205  14.414 -0.2231  0.4728  0.7706
 7619TIP3    H244349   5.601   3.282  14.326  0.3179  2.2516  1.7269
 7620TIP3   OH244350   5.436   1.861  10.361 -0.0073 -0.2309  0.5125
 7620TIP3    H144351   5.407   1.872  10.451 -1.7861 -0.0248 -0.0592
 7620TIP3    H244352   5.357   1.838  10.313  0.7923  0.3137 -1.1129
 7621TIP3   OH244353   4.023   3.550   0.000  0.6987  0.1100  0.4339
 7621TIP3    H144354   4.034   3.490   0.074  1.0993 -0.0112  0.2750
 7621TIP3    H244355   4.074   3.511  -0.071 -0.0963 -0.0428 -0.0636
 7622TIP3   OH244356   2.403   2.103   3.616  0.6587 -0.0183  0.3813
 7622TIP3    H144357   2.398   2.112   3.521  0.5651  1.7819  0.5430
 7622TIP3    H244358   2.478   2.045   3.631  1.7558  1.0832 -0.7347
 7623TIP3   OH244359   5.361   2.510  12.410 -0.1805 -0.4829  0.3215
 7623TIP3    H144360   5.367   2.415  12.405 -0.1513 -0.5158  0.9540
 7623TIP3    H244361   5.439   2.537  12.459  0.3468 -0.0466 -0.7417
 7624TIP3   OH244362   3.510   4.439   9.938 -0.1097  1.1325  0.2137
 7624TIP3    H144363   3.562   4.359   9.933 -0.8503  0.7306 -1.3067
 7624TIP3    H244364   3.420   4.409   9.936 -0.3986  2.0418 -1.3089
 7625TIP3   OH244365   2.094   0.679  14.451 -0.3730 -0.5083 -0.2353
 7625TIP3    H144366   2.186   0.653  14.449 -0.7537 -1.9310  0.5579
 7625TIP3    H244367   2.091   0.758  14.398  0.9119 -1.7318 -2.1945
 7626TIP3   OH244368   1.550   2.674  13.350 -0.2968 -0.3246 -0.7751
 7626TIP3    H144369   1.490   2.744  13.376  0.1737 -0.8134  1.7394
 7626TIP3    H244370   1.630   2.719  13.324 -0.8498  0.1797 -1.6457
 7627TIP3   OH244371   4.209   3.905  13.469 -0.0731  0.2223 -0.1562
 7627TIP3    H144372   4.134   3.964  13.466 -0.1639  0.1769  0.8982
 7627TIP3    H244373   4.263   3.939  13.540  1.1005  0.4815 -1.1591
 7628TIP3   OH244374   4.986   0.413  12.825 -0.2606 -0.1459  0.1891
 7628TIP3    H144375   5.033   0.486  12.785 -0.4714 -0.8287 -1.3345
 7628TIP3    H244376   5.033   0.396  12.906  1.8732 -0.5193 -1.0944
 7629TIP3   OH244377   4.158   2.603  12.555 -0.5721  0.4123 -0.1142
 7629TIP3    H144378   4.140   2.626  12.646  0.2395  2.6535 -0.4872
 7629TIP3    H244379   4.250   2.575  12.555 -1.2714 -2.0165  0.1597
 7630TIP3   OH244380   5.163   5.287  13.360 -0.2802  0.0726 -0.3777
 7630TIP3    H144381   5.205   5.293  13.274 -0.7362  1.9561 -0.4943
 7630TIP3    H244382   5.236   5.278  13.422  0.1300  0.3261 -0.8252
 7631TIP3   OH244383   2.434   4.764  11.110 -0.3685  0.1853  0.1858
 7631TIP3    H144384   2.432   4.720  11.025 -0.8078 -0.1432  0.3631
 7631TIP3    H244385   2.472   4.699  11.169 -2.1572 -0.4178  0.7076
 7632TIP3   OH244386   2.526   1.878  13.445 -0.0258  0.1714  0.1140
 7632TIP3    H144387   2.552   1.815  13.512  0.4049  0.3003  0.0694
 7632TIP3    H244388   2.567   1.960  13.473  0.1790  0.2163 -0.3204
 7633TIP3   OH244389   4.311   2.022  14.428 -0.0099  0.0315  0.8623
 7633TIP3    H144390   4.227   1.996  14.467  0.2333 -2.1637 -0.0295
 7633TIP3    H244391   4.355   1.940  14.408  1.2190  1.1394 -1.1513
 7634TIP3   OH244392   4.352   0.747  15.025  0.2086  0.0890 -0.2339
 7634TIP3    H144393   4.277   0.723  15.079  0.1548 -1.3524 -0.9077
 7634TIP3    H244394   4.365   0.840  15.041 -1.5932  0.3087  0.0520
 7635TIP3   OH244395   4.713   4.937  13.372 -0.3559  0.2578  0.5791
 7635TIP3    H144396   4.699   4.877  13.446 -1.2226 -1.6719 -1.1001
 7635TIP3    H244397   4.694   4.884  13.295  1.0887  2.0882 -1.0679
 7636TIP3   OH244398   6.679   4.731  12.366  0.2372  0.0915  0.1086
 7636TIP3    H144399   6.664   4.647  12.322 -1.2848  1.6956 -2.5388
 7636TIP3    H244400   6.754   4.768  12.319 -0.9886  1.5263 -0.7466
 7637TIP3   OH244401   3.864   4.123  12.641  0.3373 -0.4771 -0.0537
 7637TIP3    H144402   3.827   4.057  12.581  0.4383 -0.1096 -0.5202
 7637TIP3    H244403   3.943   4.081  12.676  0.1829 -0.7635 -0.0427
 7638TIP3   OH244404   6.623   3.125   0.799  0.8561 -0.7735 -0.0783
 7638TIP3    H144405   6.676   3.169   0.732  2.3771 -0.9097  1.0327
 7638TIP3    H244406   6.537   3.168   0.792  1.4950  0.4236 -0.9343
 7639TIP3   OH244407   3.987   3.574  10.459 -0.1382 -0.0663  0.6097
 7639TIP3    H144408   3.896   3.584  10.431 -0.3096 -1.4133  0.6627
 7639TIP3    H244409   3.983   3.513  10.532  1.1285 -2.6348 -1.4012
 7640TIP3   OH244410   3.411   3.031  12.491 -0.2634 -0.3184 -0.2834
 7640TIP3    H144411   3.341   3.035  12.425  0.9571 -1.4978 -1.6873
 7640TIP3    H244412   3.364   3.032  12.574 -1.7586  2.8918 -1.0922
 7641TIP3   OH244413   4.137   6.299  14.142  0.0120 -0.2947  0.5356
 7641TIP3    H144414   4.050   6.316  14.179  0.2612 -3.0190  2.5450
 7641TIP3    H244415   4.121   6.234  14.073  0.2232  0.8132 -0.5769
 7642TIP3   OH244416   6.241   4.470   0.581  0.2539 -0.6660 -0.2319
 7642TIP3    H144417   6.207   4.494   0.495  0.7682  1.3517  0.0948
 7642TIP3    H244418   6.198   4.531   0.641 -0.6690 -2.5456  1.0442
 7643TIP3   OH244419   4.246   4.648   0.115  0.1182 -0.0960 -0.2966
 7643TIP3    H144420   4.196   4.608   0.044  0.6168 -0.8327 -0.2424
 7643TIP3    H244421   4.317   4.695   0.071 -0.1447  0.2668 -0.3329
 7644TIP3   OH244422   2.249   2.123  12.826 -0.4024 -0.2521 -0.9052
 7644TIP3    H144423   2.334   2.103  12.864 -0.0988  0.6137 -1.1283
 7644TIP3    H244424   2.200   2.041  12.834 -0.0080 -0.3738  0.4428
 7645TIP3   OH244425   2.413   2.031  11.001 -0.4777 -0.2642  0.1309
 7645TIP3    H144426   2.377   1.966  10.941 -0.5079  1.1170 -1.3753
 7645TIP3    H244427   2.442   1.980  11.077  0.7977 -2.1969 -1.6201
 7646TIP3   OH244428   5.542   7.008  14.970  0.2525  0.4480  0.6471
 7646TIP3    H144429   5.526   7.101  14.985  0.3112  0.4306  0.8111
 7646TIP3    H244430   5.612   7.006  14.904  0.4416  0.5177  0.8478
 7647TIP3   OH244431   6.770   4.002  10.364  0.0839 -0.3345 -0.4728
 7647TIP3    H144432   6.740   4.009  10.274 -1.2740 -0.9629 -0.0780
 7647TIP3    H244433   6.698   4.036  10.417  2.2196  3.4098  0.2374
 7648TIP3   OH244434   4.434   4.950   0.317 -0.6280 -0.3421  0.3510
 7648TIP3    H144435   4.386   4.937   0.399 -0.1732 -2.6822  0.2670
 7648TIP3    H244436   4.366   4.972   0.253 -1.1997 -0.3521  0.9476
 7649TIP3   OH244437   4.518   2.337  15.459  0.1621 -0.4577 -0.1413
 7649TIP3    H144438   4.457   2.265  15.477 -0.0266 -0.1301  0.5303
 7649TIP3    H244439   4.603   2.294  15.449 -0.2831 -0.9903 -1.7714
 7650TIP3   OH244440   1.871   0.025  11.053  0.3930  0.3347  0.2756
 7650TIP3    H144441   1.854   0.078  10.975 -1.0373 -0.0814  0.2973
 7650TIP3    H244442   1.937  -0.039  11.025 -1.1548 -0.7251 -0.9978
 7651TIP3   OH244443   1.002   7.023  13.490  0.4597  0.7246 -0.2181
 7651TIP3    H144444   1.015   6.992  13.579  1.4861  1.3002 -0.1703
 7651TIP3    H244445   0.920   7.072  13.494 -0.2602 -0.4742  0.0828
 7652TIP3   OH244446   0.788   0.466  13.849 -0.0133 -0.2450  0.3287
 7652TIP3    H144447   0.769   0.431  13.762 -1.8998 -0.9447  1.0127
 7652TIP3    H244448   0.727   0.539  13.859 -0.8723 -1.1360  1.6732
 7653TIP3   OH244449   0.904   3.814   0.007 -0.1759  0.2271 -0.1472
 7653TIP3    H144450   0.989   3.790   0.044 -0.2349  1.0577  0.5440
 7653TIP3    H244451   0.910   3.791  -0.085  1.1150  1.1377 -0.2958
 7654TIP3   OH244452   1.098   4.518   0.405 -0.0054 -0.1678 -0.0982
 7654TIP3    H144453   1.187   4.542   0.379  0.2875 -0.2784  0.7919
 7654TIP3    H244454   1.042   4.556   0.337  0.6834  0.3338 -0.3919
 7655TIP3   OH244455   4.713   4.087  11.459 -0.3291  0.9746  0.0337
 7655TIP3    H144456   4.642   4.035  11.495  0.2576 -0.6580 -1.1201
 7655TIP3    H244457   4.758   4.122  11.536 -0.8694 -0.0484  0.8290
 7656TIP3   OH244458   2.819   2.618  14.241  0.0436  0.0128 -0.6203
 7656TIP3    H144459   2.815   2.537  14.190  1.2080 -0.6178  0.2669
 7656TIP3    H244460   2.749   2.610  14.305  0.5304 -0.5738 -0.1505
 7657TIP3   OH244461   1.032   5.108  11.660  0.0112 -0.3188 -0.2266
 7657TIP3    H144462   1.054   5.167  11.588  1.7077  0.6476  1.0307
 7657TIP3    H244463   0.963   5.154  11.708 -0.0312 -0.2350 -0.3692
 7658TIP3   OH244464   3.689   5.837   2.203  0.0425  0.0384 -0.3212
 7658TIP3    H144465   3.642   5.754   2.198  0.1901  0.0696 -2.6107
 7658TIP3    H244466   3.642   5.895   2.144  1.5463  0.7685 -0.8289
 7659TIP3   OH244467   3.916   2.680  11.028  0.7993  0.2394 -0.5127
 7659TIP3    H144468   3.931   2.586  11.015 -0.5908  0.1687 -1.7547
 7659TIP3    H244469   3.983   2.723  10.974 -0.0651 -0.0573 -1.8458
 7660TIP3   OH244470   4.306   4.780  13.140 -0.4538  0.6141 -0.1390
 7660TIP3    H144471   4.227   4.728  13.125  0.3975 -0.5384 -0.7517
 7660TIP3    H244472   4.299   4.808  13.232 -0.8849 -0.6606  0.2272
 7661TIP3   OH244473   0.859   1.502  14.469 -0.0310  0.4440  0.3362
 7661TIP3    H144474   0.856   1.478  14.377 -1.5439  0.6377  0.3286
 7661TIP3    H244475   0.917   1.578  14.472  0.7358 -0.1080 -0.3217
 7662TIP3   OH244476   0.935   0.900  12.364  0.9556  0.1227 -0.0733
 7662TIP3    H144477   0.954   0.919  12.456 -0.2278 -1.1594  0.4472
 7662TIP3    H244478   0.903   0.983  12.329  1.8597  0.7384  0.5474
 7663TIP3   OH244479   1.958   2.118   0.731 -0.4043  0.0824  0.1561
 7663TIP3    H144480   1.984   2.168   0.809  1.8732  0.8113 -1.0415
 7663TIP3    H244481   1.872   2.152   0.709 -0.1050  1.4787  1.0309
 7664TIP3   OH244482   5.258   4.604  10.784 -0.0751  0.0198 -0.3709
 7664TIP3    H144483   5.317   4.615  10.710  1.5869 -1.8410  0.6571
 7664TIP3    H244484   5.274   4.515  10.816 -2.7805 -0.2115  0.4944
 7665TIP3   OH244485   4.640   4.935  11.920 -0.2774  0.2192  0.7100
 7665TIP3    H144486   4.684   5.013  11.952  0.2629 -1.0610  3.1344
 7665TIP3    H244487   4.709   4.883  11.880 -0.5999  0.8437 -0.6971
 7666TIP3   OH244488   1.600   2.261   0.159  0.1092  0.2610  0.2248
 7666TIP3    H144489   1.571   2.320   0.089 -1.2204 -1.1992 -0.4869
 7666TIP3    H244490   1.527   2.260   0.221  0.5411  0.1413  0.7304
 7667TIP3   OH244491   0.628   6.390   0.263 -0.3525  0.3262 -0.7569
 7667TIP3    H144492   0.545   6.372   0.308  0.3754  0.9661  0.8815
 7667TIP3    H244493   0.693   6.391   0.333  0.7980  1.4232 -1.8213
 7668TIP3   OH244494   3.101   1.203  12.547  0.1801 -0.0799  0.2796
 7668TIP3    H144495   3.089   1.270  12.614  0.4810 -0.7608  1.0230
 7668TIP3    H244496   3.192   1.175  12.557  0.1005 -0.4877 -0.1213
 7669TIP3   OH244497   4.069   6.972  14.504 -0.4282  0.0053  0.5662
 7669TIP3    H144498   4.074   6.901  14.441 -0.1059  1.0264 -0.5826
 7669TIP3    H244499   3.982   7.011  14.490  1.0226  2.6140 -1.9430
 7670TIP3   OH244500   3.034   5.064  13.636 -0.1476 -0.5372 -0.4015
 7670TIP3    H144501   3.009   5.044  13.726  1.3378  0.6068  0.2854
 7670TIP3    H244502   2.959   5.110  13.599 -0.5273 -0.4852  0.4266
 7671TIP3   OH244503   0.309   1.324  11.179  0.1997  0.0889 -0.0842
 7671TIP3    H144504   0.321   1.238  11.139  1.8032  0.0355  0.5069
 7671TIP3    H244505   0.232   1.314  11.235  1.3485 -1.4347  1.2603
 7672TIP3   OH244506   1.878   6.533   1.667 -0.1272 -0.1581  0.0579
 7672TIP3    H144507   1.914   6.448   1.640  0.0562 -0.1122  0.1564
 7672TIP3    H244508   1.865   6.524   1.762 -0.0256 -0.0465  0.0826
 7673TIP3   OH244509   6.011   3.179   0.847  0.1590 -0.7190  0.2322
 7673TIP3    H144510   5.934   3.195   0.791 -0.9343  0.6456  2.0835
 7673TIP3    H244511   6.019   3.084   0.848 -0.6090 -0.8215 -1.1883
 7674TIP3   OH244512   2.132   2.805  13.408  0.3694  0.3691  0.2237
 7674TIP3    H144513   2.059   2.789  13.468  0.6622  0.1837  0.5369
 7674TIP3    H244514   2.209   2.773  13.456  0.5306 -0.2825 -0.4722
 7675TIP3   OH244515   5.879   4.734   0.900  0.4103  0.5923  0.1515
 7675TIP3    H144516   5.859   4.825   0.924 -1.9453  0.1638 -0.0252
 7675TIP3    H244517   5.862   4.684   0.979  0.6565  0.1793 -0.0554
 7676TIP3   OH244518   6.989   0.651  12.644  0.2224  0.1765  0.2769
 7676TIP3    H144519   6.975   0.628  12.552 -1.8506 -0.9700  0.8534
 7676TIP3    H244520   6.979   0.746  12.646 -0.1318  0.1680 -0.6055
 7677TIP3   OH244521   0.450   3.393   0.098  0.1105 -0.1429  0.2594
 7677TIP3    H144522   0.456   3.402   0.003  1.8855 -0.2433  0.3573
 7677TIP3    H244523   0.412   3.306   0.112  0.4682 -0.3910 -0.3330
 7678TIP3   OH244524   3.022   1.672  13.089  0.4618 -0.3391 -0.6677
 7678TIP3    H144525   3.085   1.614  13.048  1.0116  0.0603 -0.3927
 7678TIP3    H244526   3.051   1.680  13.180  0.8627  0.9956 -0.9009
 7679TIP3   OH244527   0.464   4.633   0.919  0.4172  0.0731  0.3970
 7679TIP3    H144528   0.387   4.600   0.966  0.1292  1.9995  1.3259
 7679TIP3    H244529   0.503   4.696   0.979  2.2245 -0.2325 -0.4367
 7680TIP3   OH244530   2.131   0.262   0.430  0.1918  0.4774 -0.2193
 7680TIP3    H144531   2.083   0.201   0.485  0.5211 -0.5680 -1.0807
 7680TIP3    H244532   2.222   0.231   0.433  0.1798  0.2817 -1.5018
 7681TIP3   OH244533   2.492   6.014  15.313 -0.5029  0.4586 -0.4498
 7681TIP3    H144534   2.502   6.101  15.350 -0.2074  0.1659  0.1687
 7681TIP3    H244535   2.508   6.025  15.220 -1.5363  1.2529 -0.5412
 7682TIP3   OH244536   0.215   1.106  13.773  0.5495  0.6155  0.3396
 7682TIP3    H144537   0.156   1.033  13.788 -0.9088  1.7258  0.1179
 7682TIP3    H244538   0.236   1.102  13.680 -0.3134  1.0474  0.1211
 7683TIP3   OH244539   3.400   0.264  11.395  0.4347  0.0993  0.2092
 7683TIP3    H144540   3.495   0.265  11.390  0.6229  0.6562  2.9933
 7683TIP3    H244541   3.375   0.356  11.401 -0.2288 -0.0658  0.0545
 7684TIP3   OH244542   4.198   2.128  15.179  0.0400  0.4036 -0.0260
 7684TIP3    H144543   4.121   2.086  15.218 -0.2851 -0.5898 -1.7132
 7684TIP3    H244544   4.180   2.222  15.185 -1.1405  0.1807 -0.1115
 7685TIP3   OH244545   1.782   6.188  12.215 -0.6629  0.4318 -0.1566
 7685TIP3    H144546   1.753   6.100  12.238 -0.3563  0.1834 -0.6930
 7685TIP3    H244547   1.737   6.207  12.133  0.0946  0.3475 -0.5953
 7686TIP3   OH244548   3.280   6.383  13.490 -0.1129  0.4508  0.6087
 7686TIP3    H144549   3.298   6.443  13.562  0.5589  0.8593  0.1076
 7686TIP3    H244550   3.353   6.321  13.492 -1.3586 -1.0051  1.7941
 7687TIP3   OH244551   5.452   2.961   2.388 -0.2641 -0.7480 -0.3961
 7687TIP3    H144552   5.375   2.910   2.413 -1.2848  0.6687 -0.5757
 7687TIP3    H244553   5.420   3.019   2.319  0.2977  1.7404  1.3749
 7688TIP3   OH244554   3.982   0.834   2.005 -0.6217 -0.6675 -0.4305
 7688TIP3    H144555   4.063   0.847   2.056 -0.0919 -0.7679 -1.2384
 7688TIP3    H244556   3.927   0.780   2.062  0.1087 -1.0801 -0.1016
 7689TIP3   OH244557   0.469   6.715  15.254  0.2288  0.2520 -0.6044
 7689TIP3    H144558   0.425   6.696  15.337 -1.0970  0.2056 -1.3014
 7689TIP3    H244559   0.558   6.682  15.265 -0.8574 -2.6930 -0.3335
 7690TIP3   OH244560   0.434   6.755  14.196 -0.5499  0.2801 -0.3465
 7690TIP3    H144561   0.384   6.789  14.270  0.7711 -1.7558  1.5652
 7690TIP3    H244562   0.525   6.776  14.217 -0.0770 -1.1529 -0.8916
 7691TIP3   OH244563   4.903   5.668  14.107 -0.2678  0.1589 -0.7463
 7691TIP3    H144564   4.970   5.702  14.166 -1.2842  2.2150 -0.6985
 7691TIP3    H244565   4.936   5.688  14.019  0.4942 -1.4185 -0.8184
 7692TIP3   OH244566   1.076   4.892   2.942  0.1370 -0.3197  0.4593
 7692TIP3    H144567   1.081   4.901   3.037 -1.1605 -0.9920  0.6006
 7692TIP3    H244568   1.131   4.963   2.908  0.2718  0.1782  1.7020
 7693TIP3   OH244569   2.969   6.710   0.809 -0.1769 -0.1621  0.0894
 7693TIP3    H144570   3.030   6.710   0.735  1.3773  2.1595  1.3100
 7693TIP3    H244571   2.910   6.783   0.790 -1.8004 -1.5742 -0.4220
 7694TIP3   OH244572   6.965   0.335  13.611 -0.2902  0.1456  0.2591
 7694TIP3    H144573   6.960   0.338  13.515 -2.6077 -1.0761  0.2933
 7694TIP3    H244574   7.006   0.251  13.631 -4.5567 -2.0736  0.3367
 7695TIP3   OH244575   6.387   6.183  13.120 -0.1228  0.1767 -0.9419
 7695TIP3    H144576   6.331   6.110  13.095  3.6267 -2.7662 -1.1266
 7695TIP3    H244577   6.393   6.177  13.216 -0.0577  0.4708 -0.9263
 7696TIP3   OH244578   5.617   4.194   2.222 -0.1384  0.0815  0.1485
 7696TIP3    H144579   5.574   4.275   2.250  0.8447  0.1419  1.5622
 7696TIP3    H244580   5.710   4.212   2.234  0.0605 -1.4070  0.8937
 7697TIP3   OH244581   4.042   6.906  13.206 -0.1787 -0.2673 -1.0138
 7697TIP3    H144582   4.039   6.816  13.171 -0.2750 -0.4734 -0.4723
 7697TIP3    H244583   4.113   6.905  13.269 -2.7837 -1.0872  2.0636
 7698TIP3   OH244584   1.263   2.722   1.384  0.6480  0.0944 -0.1233
 7698TIP3    H144585   1.334   2.782   1.361  0.7570 -0.2861 -0.7685
 7698TIP3    H244586   1.300   2.665   1.451  0.6830  0.4449  0.1607
 7699TIP3   OH244587   2.074   2.241  14.307 -0.0558 -0.1399  0.2230
 7699TIP3    H144588   1.988   2.204  14.326 -0.0453 -0.8444 -1.0211
 7699TIP3    H244589   2.060   2.298  14.231  0.2635  1.0636  1.0470
 7700TIP3   OH244590   6.730   3.387  13.573 -0.3810 -0.3069  0.3132
 7700TIP3    H144591   6.781   3.322  13.524 -0.0795 -1.6974  2.4027
 7700TIP3    H244592   6.753   3.471  13.533  2.4324 -1.0519  0.2661
 7701TIP3   OH244593   4.255   5.696  14.414  0.1719 -0.1903 -0.3822
 7701TIP3    H144594   4.325   5.736  14.363 -0.1487  0.2592 -0.4668
 7701TIP3    H244595   4.300   5.640  14.476  0.5369 -1.8057 -2.0451
 7702TIP3   OH244596   3.900   2.732  10.341  0.3584 -0.6775  0.1120
 7702TIP3    H144597   3.907   2.782  10.260 -0.2903  2.3285  1.8249
 7702TIP3    H244598   3.811   2.697  10.340  0.8674 -1.9953 -1.1744
 7703TIP3   OH244599   1.715   4.270   3.291  0.0409  0.0007  0.4129
 7703TIP3    H144600   1.752   4.250   3.205 -1.0916 -0.2891 -0.0149
 7703TIP3    H244601   1.742   4.196   3.346 -0.2428 -0.4068  0.0027
 7704TIP3   OH244602   4.182   1.251   3.239  0.1173  0.5589  0.0968
 7704TIP3    H144603   4.264   1.297   3.258 -0.1282  0.5162  1.2802
 7704TIP3    H244604   4.147   1.227   3.325 -1.1929  0.6736 -0.3874
 7705TIP3   OH244605   6.190   5.166  11.159  0.3458  0.3331  0.3867
 7705TIP3    H144606   6.151   5.252  11.175  0.9144  0.5451  0.6175
 7705TIP3    H244607   6.166   5.114  11.236  1.5544  0.8222  1.0967
 7706TIP3   OH244608   5.463   6.317  10.880 -0.1085 -0.0653 -0.4519
 7706TIP3    H144609   5.511   6.258  10.938 -2.5352 -0.1209  1.5612
 7706TIP3    H244610   5.522   6.392  10.870  0.2341  0.1163  2.4077
 7707TIP3   OH244611   2.751   6.869  13.129  0.6586  1.2497 -0.3807
 7707TIP3    H144612   2.738   6.933  13.059 -0.3826  0.4147 -0.9686
 7707TIP3    H244613   2.674   6.812  13.124  0.7509  0.9597  1.2201
 7708TIP3   OH244614   1.596   2.578  11.387 -0.1312  0.1514 -0.0041
 7708TIP3    H144615   1.598   2.669  11.357  2.2503  0.0208 -0.3009
 7708TIP3    H244616   1.561   2.530  11.313  0.6894  0.5489 -0.6629
 7709TIP3   OH244617   2.047   4.695  11.786 -0.6068  0.1609  0.1298
 7709TIP3    H144618   1.995   4.615  11.782  0.1698 -0.4056  1.1269
 7709TIP3    H244619   2.094   4.697  11.702 -1.0169 -0.1665 -0.1083
 7710TIP3   OH244620   1.996   5.506   1.175 -0.5027 -0.2439  0.2906
 7710TIP3    H144621   1.949   5.425   1.157  0.6371 -0.7382 -0.5259
 7710TIP3    H244622   2.009   5.546   1.088  1.1057 -0.4190  0.4315
 7711TIP3   OH244623   4.047   5.541  14.065  0.8392 -0.0860  0.6731
 7711TIP3    H144624   4.041   5.589  14.147 -1.3071 -0.3034  0.6732
 7711TIP3    H244625   3.956   5.524  14.040  1.4090  0.5404 -2.0734
 7712TIP3   OH244626   0.834   5.097   1.573 -0.1964  0.2509 -0.2489
 7712TIP3    H144627   0.782   5.037   1.519  0.9023 -0.4351 -0.5571
 7712TIP3    H244628   0.835   5.056   1.659  1.4937 -0.7807 -0.7302
 7713TIP3   OH244629   5.453   4.970  15.256  0.2338 -0.0627 -0.2690
 7713TIP3    H144630   5.469   4.878  15.278 -0.7137  0.0936  1.1692
 7713TIP3    H244631   5.362   4.985  15.283  0.9773  1.8209  1.3186
 7714TIP3   OH244632   2.784   0.609  12.973  0.1746  0.7770 -0.4505
 7714TIP3    H144633   2.818   0.539  13.030 -0.4489  0.2036 -0.7673
 7714TIP3    H244634   2.845   0.681  12.985  1.2557 -0.0826 -0.6789
 7715TIP3   OH244635   1.631   1.249   0.522  0.0814  0.2200  0.4496
 7715TIP3    H144636   1.706   1.198   0.490  0.5004  0.1577  1.5223
 7715TIP3    H244637   1.560   1.185   0.530  0.0721  0.1688 -0.0091
 7716TIP3   OH244638   4.082   5.449   0.016 -0.2258 -0.4838 -0.1244
 7716TIP3    H144639   4.148   5.388   0.050  0.1702  0.7633  1.3995
 7716TIP3    H244640   4.125   5.492  -0.057  0.1961 -0.6094  0.0450
 7717TIP3   OH244641   1.938   2.071   1.338  0.3736 -0.1667  0.0502
 7717TIP3    H144642   1.948   2.163   1.363  0.2978  0.5658 -2.5475
 7717TIP3    H244643   2.015   2.028   1.374 -0.1621  0.6493  2.3084
 7718TIP3   OH244644   5.913   5.984   2.620  0.1251 -0.1719  0.7703
 7718TIP3    H144645   6.007   5.966   2.615 -0.0538 -1.7335  2.5932
 7718TIP3    H244646   5.908   6.077   2.645  1.1195  0.5607 -1.5521
 7719TIP3   OH244647   1.753   2.083  15.551  0.3175 -0.3859 -0.2833
 7719TIP3    H144648   1.835   2.050  15.590 -0.2243 -1.4611 -0.0288
 7719TIP3    H244649   1.758   2.178  15.563  1.0140 -0.5330  0.7529
 7720TIP3   OH244650   0.396   2.973  12.221  0.2392  0.1115  0.1940
 7720TIP3    H144651   0.364   2.942  12.305  1.9483 -0.0816  0.8006
 7720TIP3    H244652   0.426   3.062  12.238  1.1831 -0.1511 -0.0389
 7721TIP3   OH244653   1.611   3.304  14.054  0.1855  0.5221  0.1798
 7721TIP3    H144654   1.646   3.379  14.007 -2.2467  1.4640 -0.2087
 7721TIP3    H244655   1.521   3.294  14.022 -0.3841 -0.9717  2.0670
 7722TIP3   OH244656   6.145   2.086  13.225 -0.3367 -0.4819 -0.3573
 7722TIP3    H144657   6.098   2.167  13.204 -2.6734 -1.0867  2.1655
 7722TIP3    H244658   6.228   2.115  13.262 -0.6079  0.7396 -0.6824
 7723TIP3   OH244659   2.016   2.841   0.009  0.5406  0.2876 -0.6474
 7723TIP3    H144660   1.924   2.828   0.031  0.0024  1.7125 -1.9667
 7723TIP3    H244661   2.038   2.768  -0.049  1.1839 -1.8827  2.2146
 7724TIP3   OH244662   7.035   2.257   1.104  0.6062  0.3572  0.1299
 7724TIP3    H144663   7.057   2.348   1.124 -0.1443  0.7711 -0.8922
 7724TIP3    H244664   6.980   2.263   1.026  1.3025 -1.0404 -0.4661
 7725TIP3   OH244665   1.752   1.462   1.292 -0.1785  0.0916 -0.1684
 7725TIP3    H144666   1.730   1.401   1.362 -1.0168  1.5547  0.8655
 7725TIP3    H244667   1.667   1.488   1.255  0.1845  0.4326 -0.7743
 7726TIP3   OH244668   0.793   4.323  14.534 -0.3015  0.0949 -0.7629
 7726TIP3    H144669   0.887   4.340  14.520 -0.1631  0.7720  0.8237
 7726TIP3    H244670   0.764   4.396  14.589 -1.5065 -0.6974 -0.3344
 7727TIP3   OH244671   2.037   2.967  13.711 -0.1140 -0.0545 -0.3582
 7727TIP3    H144672   2.129   2.962  13.737 -0.5978 -0.8173  1.3031
 7727TIP3    H244673   2.016   3.060  13.715  0.8731  0.2488 -1.8529
 7728TIP3   OH244674   5.451   1.140  12.689 -0.1432  0.8781 -0.0950
 7728TIP3    H144675   5.482   1.144  12.779 -0.4734 -0.0980  0.0675
 7728TIP3    H244676   5.527   1.166  12.637  0.3097  0.6017  0.4170
 7729TIP3   OH244677   3.102   5.478   0.579  0.0424 -0.8759 -0.8253
 7729TIP3    H144678   3.032   5.468   0.515  0.0549 -1.3607 -0.7671
 7729TIP3    H244679   3.168   5.414   0.552 -0.3702 -1.7656  0.2116
 7730TIP3   OH244680   2.756   5.906   0.081  0.2098  0.6925  0.1103
 7730TIP3    H144681   2.674   5.857   0.075 -1.8858  3.9493  0.7481
 7730TIP3    H244682   2.750   5.972   0.012  1.6295  1.9140  1.1093
 7731TIP3   OH244683   5.285   5.976   0.594  0.1036  0.0668  0.1235
 7731TIP3    H144684   5.278   6.071   0.583  0.1546  0.1272  0.5960
 7731TIP3    H244685   5.218   5.940   0.536  0.7971  0.3457 -0.8637
 7732TIP3   OH244686   4.770   5.494   1.880  0.0689 -0.0571 -0.6090
 7732TIP3    H144687   4.733   5.538   1.957  0.8715 -0.6128  0.1058
 7732TIP3    H244688   4.855   5.461   1.910  0.0651 -0.9198 -1.5348
 7733TIP3   OH244689   6.572   6.401   0.174 -0.3065 -0.7529 -0.2424
 7733TIP3    H144690   6.637   6.331   0.178 -1.5442 -2.0030 -1.4773
 7733TIP3    H244691   6.501   6.365   0.121 -1.7623  0.7933  0.6116
 7734TIP3   OH244692   1.371   0.267  13.243 -0.1091  0.1302 -0.0683
 7734TIP3    H144693   1.335   0.285  13.156 -3.4814 -0.2068  1.1707
 7734TIP3    H244694   1.458   0.307  13.242 -1.9787  4.4200 -1.9906
 7735TIP3   OH244695   2.874   1.144   5.033 -0.1142  0.7867  0.0782
 7735TIP3    H144696   2.783   1.173   5.025 -0.3685 -0.2361 -0.9534
 7735TIP3    H244697   2.879   1.106   5.121 -0.4948  1.5048  0.4122
 7736TIP3   OH244698   1.262   0.409   2.265 -0.0264  0.6049  0.0918
 7736TIP3    H144699   1.231   0.350   2.333 -0.3982  0.4973 -0.1696
 7736TIP3    H244700   1.358   0.404   2.270 -0.0473 -0.9285 -0.7017
 7737TIP3   OH244701   5.738   5.751  11.306 -0.1172  0.1487 -0.2404
 7737TIP3    H144702   5.780   5.817  11.361 -1.1286  0.0883  0.6099
 7737TIP3    H244703   5.665   5.719  11.358 -0.6220 -0.4732 -1.3135
 7738TIP3   OH244704   5.298   4.948  15.532 -0.7837 -0.2254  0.6857
 7738TIP3    H144705   5.250   4.988  15.459 -2.7406 -0.0583  2.0114
 7738TIP3    H244706   5.323   5.023  15.587  1.4951 -0.2679 -0.2621
 7739TIP3   OH244707   7.040   0.656   0.728 -0.7784 -0.8098  1.1431
 7739TIP3    H144708   7.082   0.701   0.802 -0.8995 -2.6634  2.3856
 7739TIP3    H244709   6.949   0.684   0.732 -0.4538  0.3425  0.7072
 7740TIP3   OH244710   2.166   3.460  14.751  0.0016 -0.0529  0.1199
 7740TIP3    H144711   2.125   3.472  14.837 -0.7818 -0.4022 -0.2007
 7740TIP3    H244712   2.164   3.365  14.737  2.3046 -0.2408  0.7701
 7741TIP3   OH244713   6.930   0.515  11.202  0.3123  0.1389 -0.1738
 7741TIP3    H144714   6.903   0.431  11.239 -1.7999  0.3097 -1.2206
 7741TIP3    H244715   6.888   0.580  11.259 -0.2153  0.4432 -0.9117
 7742TIP3   OH244716   6.192   1.582   0.071 -0.3762  0.3892 -0.2767
 7742TIP3    H144717   6.216   1.673   0.052  1.5032 -0.1642 -0.6614
 7742TIP3    H244718   6.123   1.589   0.137  0.9189  2.0689  0.9637
 7743TIP3   OH244719   1.454   1.051   0.607 -0.1893  0.0860  0.5585
 7743TIP3    H144720   1.433   1.031   0.698  0.5185 -1.9050  0.3226
 7743TIP3    H244721   1.514   0.980   0.581  1.1043  1.6644 -0.8786
 7744TIP3   OH244722   3.297   4.237   0.942  0.7077 -0.2647  0.0941
 7744TIP3    H144723   3.292   4.154   0.991 -0.9011  0.0467  0.4786
 7744TIP3    H244724   3.223   4.288   0.973 -0.5776 -0.1922 -2.9365
 7745TIP3   OH244725   7.143   2.365  11.160  0.1010  0.1253  0.1582
 7745TIP3    H144726   7.213   2.362  11.225  0.9047  0.2971 -0.7008
 7745TIP3    H244727   7.168   2.299  11.095  0.1977  1.1748 -0.8815
 7746TIP3   OH244728   6.655   1.694  13.137 -0.2870 -0.3203  0.0621
 7746TIP3    H144729   6.700   1.766  13.180  0.0364 -0.8229  0.5682
 7746TIP3    H244730   6.600   1.736  13.071 -0.5957  0.4303  0.7968
 7747TIP3   OH244731   2.966   5.664  10.645 -0.0181 -0.3013 -0.1148
 7747TIP3    H144732   3.029   5.645  10.714  1.0032 -3.4517 -1.8261
 7747TIP3    H244733   2.900   5.596  10.652 -0.9898  0.5294 -0.9805
 7748TIP3   OH244734   4.410   6.339   2.622  0.0305 -0.0216  0.2176
 7748TIP3    H144735   4.384   6.278   2.553  0.1551  0.6539 -0.4419
 7748TIP3    H244736   4.378   6.300   2.703  2.9335 -2.5652  0.2036
 7749TIP3   OH244737   3.762   0.257   0.058 -0.3652 -0.5105 -0.2819
 7749TIP3    H144738   3.713   0.282  -0.020 -0.7071  0.0015  0.0939
 7749TIP3    H244739   3.854   0.270   0.034 -0.4570 -0.5974 -0.6821
 7750TIP3   OH244740   5.074   4.709   1.603  0.2184  0.1721 -0.5747
 7750TIP3    H144741   5.031   4.708   1.688  0.9806 -1.5593 -0.1853
 7750TIP3    H244742   5.037   4.633   1.557  1.3222 -0.1126 -1.0112
 7751TIP3   OH244743   0.716   7.158  12.964 -0.1348  0.3002 -0.2422
 7751TIP3    H144744   0.676   7.088  12.913 -1.5834  0.2706  0.8955
 7751TIP3    H244745   0.802   7.171  12.924  0.4808 -2.6399 -0.0063
 7752TIP3   OH244746   6.654   5.478  11.566  0.4471  0.3191  0.0387
 7752TIP3    H144747   6.679   5.390  11.537  2.5506  0.1684  2.2107
 7752TIP3    H244748   6.642   5.470  11.660 -0.7323  2.0824  0.0677
 7753TIP3   OH244749   5.916   6.422  10.908  0.0552 -0.1053 -0.0282
 7753TIP3    H144750   5.884   6.346  10.957  1.2529 -1.7746 -1.7748
 7753TIP3    H244751   5.838   6.459  10.869 -0.6696  0.1359  1.5860
 7754TIP3   OH244752   6.199   2.606  10.917  0.4025 -0.7184  0.0621
 7754TIP3    H144753   6.172   2.678  10.975 -0.3559 -2.0050  1.3315
 7754TIP3    H244754   6.162   2.528  10.958  2.0726 -1.9544 -0.7583
 7755TIP3   OH244755   3.945   1.419  14.831 -0.3165  0.0947  0.7964
 7755TIP3    H144756   3.896   1.481  14.886 -0.4306  0.8774 -0.1768
 7755TIP3    H244757   3.959   1.343  14.887 -1.4919  0.4032  1.5171
 7756TIP3   OH244758   5.151   3.787  14.735 -0.0486 -0.4096  0.3597
 7756TIP3    H144759   5.178   3.805  14.825  0.3512  1.9571 -0.2157
 7756TIP3    H244760   5.063   3.822  14.728  0.1141 -0.1212 -0.3028
 7757TIP3   OH244761   2.491   2.431   0.657 -0.8975 -0.0037  0.5019
 7757TIP3    H144762   2.559   2.497   0.671 -0.7230 -0.2667  0.9211
 7757TIP3    H244763   2.533   2.348   0.682 -0.3854 -0.5852 -2.1680
 7758TIP3   OH244764   6.005   1.138  15.189 -0.4545  0.3841 -0.6105
 7758TIP3    H144765   5.984   1.093  15.271  0.5918 -0.6402 -0.8839
 7758TIP3    H244766   5.932   1.199  15.175 -1.9916 -1.3640 -0.3323
 7759TIP3   OH244767   7.082   0.133  10.649  0.0567  0.1670  0.0008
 7759TIP3    H144768   7.157   0.190  10.666  0.6460 -0.7923  0.6753
 7759TIP3    H244769   7.085   0.117  10.555  1.0383 -0.3115  0.1071
 7760TIP3   OH244770   5.351   1.980  14.738 -0.5281 -0.2087 -0.6892
 7760TIP3    H144771   5.277   1.933  14.700  1.4270 -1.7562 -2.6950
 7760TIP3    H244772   5.366   1.935  14.822 -1.8407  0.1527 -0.2327
 7761TIP3   OH244773   6.178   3.502  11.134  0.3187 -0.1871 -0.3796
 7761TIP3    H144774   6.169   3.567  11.063 -0.1796 -1.2090 -1.2692
 7761TIP3    H244775   6.089   3.491  11.167  0.5368  0.2105  0.3365
 7762TIP3   OH244776   0.559   3.299   0.496 -0.4747 -0.6172  0.0343
 7762TIP3    H144777   0.475   3.286   0.540 -2.1655  0.7212 -2.6335
 7762TIP3    H244778   0.573   3.219   0.446  0.0813 -1.0338  0.8545
 7763TIP3   OH244779   4.238   6.586  15.159  0.0624  0.4479  1.3108
 7763TIP3    H144780   4.196   6.532  15.225 -0.9868 -0.4678 -0.0830
 7763TIP3    H244781   4.172   6.652  15.135 -0.9638 -1.4562 -1.4296
 7764TIP3   OH244782   0.735   3.124  15.115  0.3787 -0.5120 -0.0135
 7764TIP3    H144783   0.770   3.108  15.203  1.6886  0.8361 -0.2573
 7764TIP3    H244784   0.765   3.213  15.094 -0.7818 -0.4428 -1.4161
 7765TIP3   OH244785   4.293   2.769  11.649 -0.1678  0.0298 -0.3043
 7765TIP3    H144786   4.259   2.686  11.682  2.8200 -1.0529  0.2512
 7765TIP3    H244787   4.326   2.748  11.562 -1.6536  1.2314 -1.1588
 7766TIP3   OH244788   1.113   5.014   0.437 -0.9345 -0.4624  0.3747
 7766TIP3    H144789   1.022   5.039   0.423 -0.0571  1.9669 -1.4323
 7766TIP3    H244790   1.138   5.058   0.519 -1.6536 -2.0044  1.4469
 7767TIP3   OH244791   5.070   2.952  11.931  0.2305 -0.7559 -0.1845
 7767TIP3    H144792   5.058   2.992  11.845  3.6963 -2.4538 -1.5570
 7767TIP3    H244793   5.115   3.019  11.983  1.6642 -1.0799 -0.9698
 7768TIP3   OH244794   4.285   4.412   1.337  1.0805 -0.4847  0.2105
 7768TIP3    H144795   4.372   4.380   1.362  0.4713 -2.5764 -0.3090
 7768TIP3    H244796   4.241   4.427   1.421  1.5940 -0.3369  0.4623
 7769TIP3   OH244797   0.165   4.451  14.231  0.4276  0.4527  1.0158
 7769TIP3    H144798   0.105   4.378  14.224  0.6414  0.2780  1.0066
 7769TIP3    H244799   0.116   4.526  14.197  0.0338  0.4160  1.4935
 7770TIP3   OH244800   6.005   4.775  13.405 -0.6073 -0.3581  0.2131
 7770TIP3    H144801   5.959   4.808  13.328  0.5739 -1.8062 -1.1358
 7770TIP3    H244802   5.937   4.731  13.456 -1.6369  1.6779  0.6486
 7771TIP3   OH244803   6.699   0.693  13.928  0.6112  0.1609 -0.3727
 7771TIP3    H144804   6.724   0.613  13.881 -1.1374 -1.9330  2.1490
 7771TIP3    H244805   6.773   0.710  13.986 -0.3942 -1.5446  1.4487
 7772TIP3   OH244806   0.664   1.621   2.102  0.5551 -0.2806 -0.0887
 7772TIP3    H144807   0.638   1.634   2.011 -0.9130  1.2263  0.5107
 7772TIP3    H244808   0.587   1.648   2.153  2.1694  1.2044  1.6538
 7773TIP3   OH244809   5.522   4.025  11.733  0.3542  0.2515 -0.0284
 7773TIP3    H144810   5.569   4.096  11.775 -1.5338  0.2075  2.3226
 7773TIP3    H244811   5.432   4.033  11.766 -0.6103 -1.3625 -2.1238
 7774TIP3   OH244812   6.129   1.964  11.592  0.1229  0.1055  0.8437
 7774TIP3    H144813   6.180   1.894  11.633 -1.6226  0.1952  3.2855
 7774TIP3    H244814   6.195   2.027  11.562  1.7350 -2.5776 -1.5484
 7775TIP3   OH244815   3.001   3.380  12.991  0.2087 -0.4783  0.7279
 7775TIP3    H144816   2.957   3.425  12.919 -0.7997  0.4744  1.9214
 7775TIP3    H244817   2.974   3.288  12.982  1.5097 -0.7056 -1.1513
 7776TIP3   OH244818   6.999   2.080   0.684 -0.3735 -0.2317  0.2000
 7776TIP3    H144819   6.924   2.139   0.681  0.2096  0.4647 -0.7415
 7776TIP3    H244820   6.973   2.012   0.747 -1.2241  0.7628  0.9351
 7777TIP3   OH244821   4.792   2.379  13.941 -0.1366 -0.0669  0.2096
 7777TIP3    H144822   4.763   2.470  13.941 -0.3902 -0.1324 -1.6924
 7777TIP3    H244823   4.766   2.346  14.027 -0.2768  1.5733  0.8193
 7778TIP3   OH244824   1.322   2.906  14.828  1.0789  0.0678  0.4093
 7778TIP3    H144825   1.359   2.843  14.890  0.5661 -1.3964 -0.7615
 7778TIP3    H244826   1.229   2.883  14.823  1.1411  0.0986 -1.0057
 7779TIP3   OH244827   3.589   2.770   1.487 -0.3023 -0.0880  0.6327
 7779TIP3    H144828   3.576   2.717   1.566  0.9973  0.3312  1.1443
 7779TIP3    H244829   3.677   2.807   1.497 -0.0019 -0.2513 -1.1381
 7780TIP3   OH244830   0.647   1.227   0.890  0.2056 -1.4558 -0.8566
 7780TIP3    H144831   0.710   1.231   0.962  0.3227 -0.6839 -0.9934
 7780TIP3    H244832   0.641   1.317   0.859 -1.2068 -1.4625 -0.6414
 7781TIP3   OH244833   5.525   2.659  11.660  0.0631  0.2388 -0.1524
 7781TIP3    H144834   5.449   2.643  11.717 -0.3183  0.6674 -0.5344
 7781TIP3    H244835   5.599   2.664  11.720 -0.4417  1.4609  0.3947
 7782TIP3   OH244836   5.361   4.266  14.411 -0.3277 -0.2284 -0.1355
 7782TIP3    H144837   5.284   4.213  14.434 -0.3815 -0.3629 -0.6289
 7782TIP3    H244838   5.336   4.311  14.331  0.1369 -0.3297 -0.3393
 7783TIP3   OH244839   4.616   4.717  12.149  0.4619 -0.6979  0.0942
 7783TIP3    H144840   4.621   4.808  12.178  2.6351 -0.4071 -1.0625
 7783TIP3    H244841   4.706   4.686  12.149  0.3169 -1.4362 -3.7936
 7784TIP3   OH244842   5.347   5.523  11.737 -0.6484 -0.5484  0.4121
 7784TIP3    H144843   5.307   5.481  11.661 -0.0680 -1.3574  0.5574
 7784TIP3    H244844   5.395   5.453  11.781 -1.1091 -0.1231  1.6097
 7785TIP3   OH244845   4.937   3.509   0.587 -0.6880  0.5882 -0.1030
 7785TIP3    H144846   4.929   3.491   0.493 -0.0863 -0.1198 -0.0272
 7785TIP3    H244847   4.913   3.601   0.596 -1.5157  0.4535 -0.8416
 7786TIP3   OH244848   2.678   1.972  15.183 -0.1295 -0.4670 -0.7122
 7786TIP3    H144849   2.664   2.035  15.113  1.9950  0.1338 -0.6209
 7786TIP3    H244850   2.606   1.910  15.174 -0.9653  0.6897 -2.2159
 7787TIP3   OH244851   6.166   0.218   2.719 -0.5368  0.3789  0.5179
 7787TIP3    H144852   6.190   0.296   2.769 -1.5531  1.8349 -1.2051
 7787TIP3    H244853   6.091   0.245   2.666  1.4947 -0.5662 -3.0150
 7788TIP3   OH244854   1.408   1.605   0.849  0.5768  0.2530 -0.1880
 7788TIP3    H144855   1.402   1.509   0.857  3.2013  0.1220  0.5845
 7788TIP3    H244856   1.391   1.622   0.756  0.7896 -1.0236 -0.4754
 7789TIP3   OH244857   5.904   3.686  10.247 -0.5371  0.4333 -0.6891
 7789TIP3    H144858   5.949   3.693  10.332 -0.6533  2.0444 -0.7570
 7789TIP3    H244859   5.834   3.623  10.263  0.6380 -0.7730 -0.1154
 7790TIP3   OH244860   6.430   0.155  12.832 -0.4298 -0.4930  0.1736
 7790TIP3    H144861   6.397   0.095  12.766 -0.8582 -1.1208  0.9543
 7790TIP3    H244862   6.378   0.235  12.820 -0.1846 -0.4411 -0.5499
 7791TIP3   OH244863   4.025   5.279  12.669 -0.0355  0.1504 -0.0387
 7791TIP3    H144864   4.023   5.368  12.635  0.2335  0.3534  0.4750
 7791TIP3    H244865   4.099   5.277  12.729 -1.5943  0.3122  1.9529
 7792TIP3   OH244866   1.829   1.576   3.170 -0.2377  0.6187  0.6681
 7792TIP3    H144867   1.745   1.559   3.212 -0.2377  1.2056  0.8970
 7792TIP3    H244868   1.894   1.549   3.235 -0.2276 -2.3450 -0.4737
 7793TIP3   OH244869   1.615   5.588   0.669 -0.1261  0.0439  0.3095
 7793TIP3    H144870   1.648   5.530   0.600 -0.3343  0.2061  0.0745
 7793TIP3    H244871   1.522   5.596   0.652 -0.6675 -1.9251  2.0770
 7794TIP3   OH244872   4.730   3.677  10.455 -0.0163  0.8493 -0.2310
 7794TIP3    H144873   4.733   3.693  10.549  1.9215 -1.3770  0.1394
 7794TIP3    H244874   4.637   3.681  10.433 -0.4957  1.2751  1.8067
 7795TIP3   OH244875   1.115   4.980  12.984  0.1522 -0.2099 -0.5240
 7795TIP3    H144876   1.039   5.034  12.959  1.1749  0.8011 -1.5057
 7795TIP3    H244877   1.177   5.042  13.021  1.4094 -0.6869 -1.8095
 7796TIP3   OH244878   4.387   3.717  13.035 -0.1459  0.4527 -0.1300
 7796TIP3    H144879   4.427   3.709  12.949 -1.9911 -1.1675 -0.8681
 7796TIP3    H244880   4.434   3.654  13.090  0.3289  0.7319 -0.2173
 7797TIP3   OH244881   1.394   3.735  14.072  0.3659 -0.0797  0.3127
 7797TIP3    H144882   1.430   3.661  14.122  1.4326  0.1678 -0.0797
 7797TIP3    H244883   1.311   3.702  14.038  0.7483 -1.0398  0.2882
 7798TIP3   OH244884   1.287   4.814  13.413  0.6301 -0.6837 -0.4108
 7798TIP3    H144885   1.268   4.720  13.408 -0.8078 -0.4952  1.0598
 7798TIP3    H244886   1.214   4.851  13.464  0.4396  1.4389 -2.1376
 7799TIP3   OH244887   3.409   5.704  11.174  0.2952 -0.3813  0.5913
 7799TIP3    H144888   3.441   5.730  11.088  0.6867 -0.2485  0.7789
 7799TIP3    H244889   3.391   5.610  11.166  1.2345 -0.5707  0.6370
 7800TIP3   OH244890   0.623   4.446   1.991 -0.0060  0.0574  0.0734
 7800TIP3    H144891   0.695   4.487   1.943  0.5986 -0.6365  0.3593
 7800TIP3    H244892   0.590   4.514   2.049  0.2538  0.4557 -0.2454
 7801TIP3   OH244893   5.243   4.329  15.424  0.1772 -0.1932  0.6986
 7801TIP3    H144894   5.170   4.341  15.363  0.5495  1.2447  0.5115
 7801TIP3    H244895   5.279   4.243  15.403 -0.0080  0.0893 -0.7830
 7802TIP3   OH244896   4.466   5.253   2.966  0.1166 -0.3929 -0.8954
 7802TIP3    H144897   4.507   5.179   3.011  1.0071  0.6224 -0.0330
 7802TIP3    H244898   4.539   5.310   2.942 -0.5450  0.0877 -1.8039
 7803TIP3   OH244899   5.299   3.657  14.535  0.1293  0.0958 -0.1187
 7803TIP3    H144900   5.368   3.721  14.515  0.6106 -0.1085  0.8291
 7803TIP3    H244901   5.252   3.695  14.609 -0.3328 -0.0987 -0.3096
 7804TIP3   OH244902   4.756   4.193  13.144 -0.5239 -0.5524 -0.3497
 7804TIP3    H144903   4.755   4.124  13.078 -0.5445  0.8532 -1.8530
 7804TIP3    H244904   4.821   4.256  13.111 -1.2249  0.6140  0.4901
 7805TIP3   OH244905   3.194   2.825  13.940 -0.2965  0.0900 -0.0666
 7805TIP3    H144906   3.205   2.914  13.975 -0.7883  0.2041 -0.2028
 7805TIP3    H244907   3.106   2.799  13.967 -0.4747 -0.0285 -0.7449
 7806TIP3   OH244908   3.933   3.282  13.211  0.4398  0.7764  0.0567
 7806TIP3    H144909   3.884   3.347  13.261 -1.2198 -2.5400  2.9311
 7806TIP3    H244910   3.871   3.251  13.144 -0.0388 -0.4030  1.0193
 7807TIP3   OH244911   6.808   1.968  13.861  0.4377 -0.6635  0.3697
 7807TIP3    H144912   6.822   2.022  13.784  0.3177 -1.0370  0.0824
 7807TIP3    H244913   6.720   1.992  13.891  0.8087  0.0785  0.8735
 7808TIP3   OH244914   1.744   4.802  13.332  0.7134  0.0019  0.0312
 7808TIP3    H144915   1.771   4.823  13.242 -0.6831  0.2431 -0.3475
 7808TIP3    H244916   1.743   4.886  13.377 -2.5010  0.5140 -0.8326
 7809TIP3   OH244917   5.608   3.603  12.874 -0.4434 -0.3250 -0.5855
 7809TIP3    H144918   5.547   3.676  12.880 -2.0397 -1.6248 -0.6960
 7809TIP3    H244919   5.610   3.566  12.962 -2.9365 -2.7176 -1.4526
 7810TIP3   OH244920   3.477   5.780  10.911  0.9060 -0.2353 -0.2337
 7810TIP3    H144921   3.504   5.692  10.886 -3.0171 -1.7716  0.4826
 7810TIP3    H244922   3.458   5.825  10.829 -1.2709 -1.5798 -0.5144
 7811TIP3   OH244923   5.479   5.604  11.365  0.1382  0.5038 -0.3001
 7811TIP3    H144924   5.422   5.653  11.424  0.4789 -0.6631  1.0281
 7811TIP3    H244925   5.428   5.595  11.284 -1.3039  0.0311  0.6375
 7812TIP3   OH244926   0.534   0.215  11.895  0.1180  0.1253 -0.1775
 7812TIP3    H144927   0.523   0.264  11.976 -0.3820 -2.8927  1.6288
 7812TIP3    H244928   0.619   0.173  11.902 -0.1896 -0.6617 -0.9285
 7813TIP3   OH244929   6.828   0.096  10.785 -0.1074 -0.2333 -0.5614
 7813TIP3    H144930   6.887   0.069  10.715  1.7454 -1.1285  1.2531
 7813TIP3    H244931   6.884   0.144  10.846 -1.4693 -0.2146  0.7087
 7814TIP3   OH244932   1.640   0.375   0.342 -0.0798 -0.0978 -0.1242
 7814TIP3    H144933   1.646   0.293   0.292  0.7260  0.3765 -0.8159
 7814TIP3    H244934   1.727   0.415   0.334 -0.4386  0.7875  0.2890
 7815TIP3   OH244935   4.140   0.364  11.019  0.0237  0.2982 -0.1391
 7815TIP3    H144936   4.233   0.387  11.025  0.1071 -0.3845  1.4822
 7815TIP3    H244937   4.120   0.370  10.926  1.9356 -0.4890 -0.6315
 7816TIP3   OH244938   2.037   6.189  13.454  0.0575 -0.2383 -0.3488
 7816TIP3    H144939   1.983   6.142  13.391  1.0591 -0.9073 -0.7170
 7816TIP3    H244940   1.975   6.236  13.508 -0.8935 -0.9175 -0.8384
 7817TIP3   OH244941   0.985   4.236  13.046  0.1816 -0.1390 -0.1712
 7817TIP3    H144942   0.982   4.177  12.971  1.5717  0.7410 -0.9156
 7817TIP3    H244943   1.025   4.316  13.013  0.8188  0.2516  1.5104
 7818TIP3   OH244944   3.001   2.376  13.298  0.6048  0.7147 -0.3917
 7818TIP3    H144945   3.047   2.313  13.354  0.5300  0.5369 -0.5316
 7818TIP3    H244946   3.055   2.384  13.220  0.0457 -0.0280 -0.8642
 7819TIP3   OH244947   3.806   4.099  10.195 -0.1521  0.4559 -0.3441
 7819TIP3    H144948   3.785   4.014  10.234  0.4204  0.1650 -0.6541
 7819TIP3    H244949   3.815   4.080  10.101 -1.3871  1.1182 -0.6095
 7820TIP3   OH244950   5.637   3.295  10.162  0.3088 -0.3725 -0.4446
 7820TIP3    H144951   5.590   3.330  10.087  0.9318 -1.2522 -1.2523
 7820TIP3    H244952   5.727   3.286  10.132  0.4401 -1.2973  0.2168
 7821TIP3   OH244953   6.704   3.057  11.275 -0.1071 -0.2006  0.2002
 7821TIP3    H144954   6.763   3.132  11.266  0.5220 -0.4055  2.4167
 7821TIP3    H244955   6.628   3.080  11.221  0.9442  1.1330 -0.7514
 7822TIP3   OH244956   0.981   2.938  14.042 -0.4215  0.4087  1.0329
 7822TIP3    H144957   1.031   2.958  13.962 -2.7481 -1.0763 -0.8634
 7822TIP3    H244958   1.048   2.914  14.106  1.4435  0.1545 -0.9359
 7823TIP3   OH244959   4.103   3.316  11.617  0.3590  0.5852  0.0331
 7823TIP3    H144960   4.083   3.244  11.558 -0.8161  0.6527  0.3333
 7823TIP3    H244961   4.185   3.290  11.659  0.2886 -0.2731 -0.3420
 7824TIP3   OH244962   3.566   4.874   0.613  0.1685 -0.3711  0.3594
 7824TIP3    H144963   3.614   4.898   0.692  1.3770  0.1726 -0.5051
 7824TIP3    H244964   3.475   4.897   0.631 -0.2114 -3.4011  2.8580
 7825TIP3   OH244965   0.630   1.883  13.692  0.2401 -0.1355  0.2546
 7825TIP3    H144966   0.584   1.840  13.619 -1.3914  0.3011  1.0146
 7825TIP3    H244967   0.722   1.863  13.676 -0.0756  0.0263 -1.9949
 7826TIP3   OH244968   5.127   5.623  14.773  0.4684  0.1590  0.4149
 7826TIP3    H144969   5.103   5.684  14.844 -2.2232 -0.6439  0.2443
 7826TIP3    H244970   5.045   5.579  14.751  0.5438  2.5346 -5.2868
 7827TIP3   OH244971   4.241   4.485  13.895  0.2858 -0.4308 -0.2525
 7827TIP3    H144972   4.260   4.432  13.818 -0.2073 -1.6750  0.4774
 7827TIP3    H244973   4.206   4.424  13.960  0.1524  0.6899  0.7723
 7828TIP3   OH244974   6.068   3.457   0.006 -0.8688  0.6009 -0.3767
 7828TIP3    H144975   6.117   3.473  -0.075 -0.6789  1.3139 -0.1246
 7828TIP3    H244976   6.112   3.382   0.045 -0.3083  0.8956 -0.4245
 7829TIP3   OH244977   4.570   6.895  14.216  0.2311 -0.5801 -0.0359
 7829TIP3    H144978   4.589   6.807  14.185 -0.7435 -0.1626 -1.8440
 7829TIP3    H244979   4.633   6.951  14.170 -2.5721  0.3015 -2.9482
 7830TIP3   OH244980   5.990   0.991  13.971  0.0226 -0.0561 -0.1362
 7830TIP3    H144981   5.905   0.959  14.001 -0.3434  1.7519  0.8646
 7830TIP3    H244982   5.997   1.079  14.009  1.9731  0.1471 -0.8965
 7831TIP3   OH244983   4.784   5.127  14.908  0.2202  0.3235 -0.5242
 7831TIP3    H144984   4.742   5.046  14.880  2.3019  0.0931 -3.1688
 7831TIP3    H244985   4.872   5.101  14.934 -0.4052  1.1489  2.7740
 7832TIP3   OH244986   2.591   4.420  15.155 -0.0927  0.7219  0.3328
 7832TIP3    H144987   2.503   4.383  15.158 -0.1861  0.9357  0.1914
 7832TIP3    H244988   2.590   4.490  15.220 -0.3027  1.3322 -0.3230
 7833TIP3   OH244989   2.302   7.119   0.098 -0.7934 -0.1104 -0.0062
 7833TIP3    H144990   2.238   7.178   0.138  0.2943  2.6458 -2.1186
 7833TIP3    H244991   2.260   7.089   0.017 -0.8918 -1.3094  0.4920
 7834TIP3   OH244992   3.628   2.602  13.958 -0.3191  0.2438  0.2230
 7834TIP3    H144993   3.551   2.588  14.012 -0.5617 -0.9602 -0.4290
 7834TIP3    H244994   3.612   2.686  13.914 -0.4994  0.8055  1.3384
 7835TIP3   OH244995   4.264   6.139  15.202 -0.2040  0.0268 -0.9725
 7835TIP3    H144996   4.277   6.129  15.297 -0.9390 -0.0543 -0.8755
 7835TIP3    H244997   4.321   6.211  15.177  3.3690 -2.7239 -1.2391
 7836TIP3   OH244998   0.211   4.699  11.530 -0.1734 -0.1762 -0.5461
 7836TIP3    H144999   0.141   4.763  11.517  0.0618  0.6222  1.9082
 7836TIP3    H245000   0.166   4.617  11.550 -0.4293  0.1731  0.3354
 7837TIP3   OH245001   4.288   1.616  12.997  0.5105 -0.3513 -0.6363
 7837TIP3    H145002   4.380   1.617  13.022  0.3390 -0.1185  0.0010
 7837TIP3    H245003   4.242   1.650  13.074 -0.5063 -4.3074  0.5929
 7838TIP3   OH245004   0.610   2.665  11.214 -0.2560 -0.1699 -0.8908
 7838TIP3    H145005   0.543   2.715  11.261  1.2795  0.5157  0.6092
 7838TIP3    H245006   0.674   2.730  11.186  1.0783 -1.1035 -0.0662
 7839TIP3   OH245007   3.290   4.268   1.316  0.3888 -0.4192  0.4288
 7839TIP3    H145008   3.332   4.212   1.251  0.7367 -0.8575  1.0341
 7839TIP3    H245009   3.228   4.211   1.361  0.0869 -0.0939  0.4291
 7840TIP3   OH245010   2.707   6.572  13.626  0.2478  0.1900 -0.3695
 7840TIP3    H145011   2.697   6.491  13.676  0.6923  0.2605 -0.1642
 7840TIP3    H245012   2.759   6.547  13.549  0.4351  0.2908 -0.2768
 7841TIP3   OH245013   0.658   6.471  11.254  0.1436  0.0186 -0.4964
 7841TIP3    H145014   0.575   6.442  11.217 -0.5869  0.4746  0.7697
 7841TIP3    H245015   0.645   6.563  11.276  0.0886 -0.5746  2.1509
 7842TIP3   OH245016   4.942   3.788  14.322 -0.1100 -0.1402  0.0456
 7842TIP3    H145017   4.866   3.773  14.377 -0.8490  1.2159 -0.5890
 7842TIP3    H245018   4.992   3.706  14.327 -0.6291 -0.3557  1.9719
 7843TIP3   OH245019   0.219   3.885  14.755  0.5203 -0.6762 -0.3553
 7843TIP3    H145020   0.232   3.879  14.850 -1.3332 -1.4125 -0.1444
 7843TIP3    H245021   0.201   3.795  14.727 -1.0408 -0.1485 -1.0900
 7844TIP3   OH245022   1.691   2.996  14.370  0.2803 -1.2177 -0.1134
 7844TIP3    H145023   1.697   3.029  14.459  0.3500 -0.1405 -0.5064
 7844TIP3    H245024   1.623   2.928  14.373 -2.0198  1.0236  0.1261
 7845TIP3   OH245025   4.612   3.153  11.528 -0.0362  0.1179  0.1295
 7845TIP3    H145026   4.529   3.117  11.561  0.2996 -0.1862  0.6632
 7845TIP3    H245027   4.596   3.168  11.435 -0.6653 -0.0153  0.2102
 7846TIP3   OH245028   5.098   6.799   1.940 -0.1758 -0.3271 -0.4273
 7846TIP3    H145029   5.096   6.789   2.035  1.7094  0.7792 -0.2579
 7846TIP3    H245030   5.043   6.875   1.922 -0.3535 -0.4035 -0.2045
 7847TIP3   OH245031   1.715   3.616   2.876  0.4100  0.0639 -0.1216
 7847TIP3    H145032   1.719   3.684   2.943 -0.7985  1.8133 -1.7458
 7847TIP3    H245033   1.745   3.537   2.920 -0.1817  1.1936  2.4238
 7848TIP3   OH245034   7.151   5.669  15.251 -1.1619  1.0572 -0.2221
 7848TIP3    H145035   7.204   5.689  15.328  0.9317 -0.6571 -1.1586
 7848TIP3    H245036   7.073   5.626  15.287  0.6658 -1.5015  0.9009
 7849TIP3   OH245037   0.587   2.691  14.142 -0.1163 -0.3844 -0.2126
 7849TIP3    H145038   0.624   2.695  14.231 -0.5532 -0.8232 -0.0076
 7849TIP3    H245039   0.574   2.782  14.117 -1.5163 -0.2821  0.8150
 7850TIP3   OH245040   3.784   5.832  14.391 -0.5507 -0.1274 -0.0793
 7850TIP3    H145041   3.786   5.749  14.439 -1.4732  0.2429  0.6201
 7850TIP3    H245042   3.691   5.850  14.378 -0.3226 -0.0825 -1.7812
 7851TIP3   OH245043   1.218   3.004  11.872  0.1322  0.1335 -0.6291
 7851TIP3    H145044   1.170   2.922  11.874 -0.1112  0.2738 -0.7171
 7851TIP3    H245045   1.178   3.057  11.941  2.4863 -1.0528  1.7394
 7852TIP3   OH245046   2.128   3.509  14.272  0.1184  0.0794 -0.2399
 7852TIP3    H145047   2.103   3.542  14.186  0.5361 -2.0594 -1.2215
 7852TIP3    H245048   2.207   3.558  14.295 -0.5885  1.4025 -0.5879
 7853TIP3   OH245049   6.147   1.262  12.778 -0.3729 -0.1429 -0.3244
 7853TIP3    H145050   6.176   1.317  12.851 -2.0909  0.6928 -0.2641
 7853TIP3    H245051   6.167   1.172  12.806  1.9302  0.3672 -0.1852
 7854TIP3   OH245052   5.759   3.761  14.227  0.6152 -0.6242  0.1609
 7854TIP3    H145053   5.744   3.693  14.292  0.1688  0.5420  1.3006
 7854TIP3    H245054   5.677   3.768  14.179 -0.7359  1.9540  2.7725
 7855TIP3   OH245055   5.710   2.859  13.556  0.3114 -0.4025  0.0335
 7855TIP3    H145056   5.652   2.796  13.512  0.0930  0.2599 -0.6597
 7855TIP3    H245057   5.783   2.807  13.589  1.1124 -0.7756 -2.2178
 7856TIP3   OH245058   4.455   2.072   0.652 -0.4467 -0.6568 -0.2889
 7856TIP3    H145059   4.434   2.164   0.672 -0.0314 -0.9869  1.8129
 7856TIP3    H245060   4.550   2.066   0.664 -0.5746 -1.5289  0.2943
 7857TIP3   OH245061   5.475   1.802  12.643 -0.0542 -0.5885  0.0883
 7857TIP3    H145062   5.495   1.864  12.714  0.0685  0.8809 -1.1839
 7857TIP3    H245063   5.547   1.815  12.581 -0.3278 -1.6391 -0.4442
 7858TIP3   OH245064   2.372   3.164   1.804 -0.3199  0.6438  0.1207
 7858TIP3    H145065   2.303   3.099   1.823 -0.5062  0.8176  0.0447
 7858TIP3    H245066   2.335   3.218   1.734 -1.3856  2.6802  2.1812
 7859TIP3   OH245067   4.207   3.532  14.447  0.4100  0.5841 -0.2026
 7859TIP3    H145068   4.150   3.511  14.521 -0.2152 -0.5506 -0.9863
 7859TIP3    H245069   4.295   3.509  14.477  0.0179 -0.9450 -0.2110
 7860TIP3   OH245070   6.908   6.086  11.399  0.0242 -0.3074 -0.1164
 7860TIP3    H145071   6.931   6.179  11.394  2.8828 -0.9462  0.5529
 7860TIP3    H245072   6.849   6.072  11.324  1.4005  1.5348 -1.5993
 7861TIP3   OH245073   4.832   4.503  12.662 -0.4206 -0.0129  0.0756
 7861TIP3    H145074   4.895   4.432  12.646  1.7182  1.8731 -0.1267
 7861TIP3    H245075   4.772   4.499  12.587 -0.1867 -1.4300 -0.0584
 7862TIP3   OH245076   3.792   0.066   1.104  0.0489 -0.0042  0.0526
 7862TIP3    H145077   3.700   0.077   1.079  0.8208  1.8106 -2.0661
 7862TIP3    H245078   3.801   0.118   1.184 -0.8870 -0.6326  0.5740
 7863TIP3   OH245079   0.900   3.326  14.283 -0.2815 -0.2870  0.3434
 7863TIP3    H145080   0.829   3.268  14.256  0.6939 -1.0741 -0.5506
 7863TIP3    H245081   0.927   3.370  14.203  0.7485 -0.5496  0.5389
 7864TIP3   OH245082   6.419   3.872   0.826  0.5907 -0.3023 -0.0460
 7864TIP3    H145083   6.343   3.835   0.871 -0.3269  0.6817 -0.7657
 7864TIP3    H245084   6.408   3.967   0.832  0.7226 -0.1434 -1.8640
 7865TIP3   OH245085   4.822   4.204  14.364 -0.3068 -0.5718  0.0024
 7865TIP3    H145086   4.889   4.136  14.358  0.2656 -0.1432  1.2651
 7865TIP3    H245087   4.805   4.230  14.273  0.3192 -1.5669 -0.4030
 7866TIP3   OH245088   5.793   3.476  11.934  0.1236  0.3822 -0.1619
 7866TIP3    H145089   5.871   3.430  11.964 -0.2548 -0.7786 -0.9320
 7866TIP3    H245090   5.798   3.563  11.976  2.0946  0.5099 -0.6499
 7867TIP3   OH245091   1.594   4.750  14.096 -0.0764 -0.0155 -0.7052
 7867TIP3    H145092   1.572   4.726  14.006 -1.8225  2.3883 -0.9536
 7867TIP3    H245093   1.680   4.791  14.090  0.1138 -0.4719 -1.1623
 7868TIP3   OH245094   6.234   5.296  11.417  0.4560 -0.1143  0.0202
 7868TIP3    H145095   6.288   5.366  11.381  0.1361 -0.5714 -1.3841
 7868TIP3    H245096   6.295   5.223  11.429  0.6596  0.1973  0.8598
 7869TIP3   OH245097   0.175   0.912   3.887  0.1782 -0.1954 -0.0938
 7869TIP3    H145098   0.199   0.889   3.797 -0.3488 -0.7198 -0.1084
 7869TIP3    H245099   0.162   0.828   3.931 -1.5376  0.0489 -0.0792
 7870TIP3   OH245100   1.725   0.988  14.927  0.3324 -0.3491 -0.0901
 7870TIP3    H145101   1.769   1.056  14.876 -1.6809  0.4131 -0.8297
 7870TIP3    H245102   1.708   1.028  15.012 -0.6869  0.0011 -0.4625
 7871TIP3   OH245103   6.797   2.636  10.931 -0.1033  0.4992  0.0365
 7871TIP3    H145104   6.739   2.709  10.952  0.9462  1.0695  1.0324
 7871TIP3    H245105   6.873   2.649  10.988  0.2587 -1.1639 -0.0483
 7872TIP3   OH245106   0.602   3.892  13.000 -0.3355 -0.1808 -0.0747
 7872TIP3    H145107   0.643   3.844  12.928  1.6151  0.8566  0.3248
 7872TIP3    H245108   0.618   3.984  12.980  0.1540  0.1211  1.6393
 7873TIP3   OH245109   5.727   3.182  13.106 -0.2462  0.4033  0.6526
 7873TIP3    H145110   5.714   3.146  13.193  3.4430 -0.1305  1.0559
 7873TIP3    H245111   5.696   3.114  13.046  0.7883 -0.8177  1.5027
 7874TIP3   OH245112   0.678   4.155   1.262 -0.7606  0.4609 -0.1414
 7874TIP3    H145113   0.629   4.138   1.182 -1.0814  0.6503  0.0115
 7874TIP3    H245114   0.745   4.087   1.265 -0.8492  0.3604 -0.4884
 7875TIP3   OH245115   6.743   3.521   1.469 -0.1014 -0.1351  0.4581
 7875TIP3    H145116   6.686   3.459   1.513  1.1548 -1.9139 -0.3688
 7875TIP3    H245117   6.700   3.537   1.385 -0.0376 -0.4868  0.3575
 7876TIP3   OH245118   0.084   3.700  14.547  0.9357  0.2317  0.4018
 7876TIP3    H145119   0.058   3.789  14.524  1.2862  1.1622  3.4696
 7876TIP3    H245120   0.082   3.653  14.463 -0.6991  2.7229 -1.0385
 7877TIP3   OH245121   4.000   4.968   0.343  0.5517 -0.1863 -0.0253
 7877TIP3    H145122   3.912   4.933   0.332 -0.0657  1.2536  0.2094
 7877TIP3    H245123   4.038   4.916   0.414 -0.9489  0.7052  1.4674
 7878TIP3   OH245124   1.163   1.204  15.286 -0.6876  0.0558 -0.1797
 7878TIP3    H145125   1.222   1.129  15.279  0.1638  0.7794 -0.9480
 7878TIP3    H245126   1.191   1.249  15.366 -0.2763  0.3186 -0.4666
 7879TIP3   OH245127   2.118   3.881  11.611  0.2612  0.0277  0.4031
 7879TIP3    H145128   2.160   3.807  11.568 -3.2188 -1.3631 -0.7677
 7879TIP3    H245129   2.088   3.937  11.539 -1.2876  0.1683  1.1328
 7880TIP3   OH245130   6.920   6.462  15.222  0.2454 -0.0018  0.4700
 7880TIP3    H145131   6.878   6.519  15.285 -0.8655 -0.2979 -0.0010
 7880TIP3    H245132   6.943   6.519  15.148 -3.2481 -0.5752 -1.1747
 7881TIP3   OH245133   6.279   0.779  15.304  0.0599  0.4507  0.0122
 7881TIP3    H145134   6.184   0.782  15.290  0.0479  0.3049  0.0666
 7881TIP3    H245135   6.289   0.746  15.393  0.1490  1.0819  0.2377
 7882TIP3   OH245136   6.899   4.484  10.426  0.4442 -0.1831 -0.3340
 7882TIP3    H145137   6.843   4.561  10.430 -1.3866 -1.5580  1.9625
 7882TIP3    H245138   6.887   4.449  10.338  1.3488  2.1416 -1.4214
 7883TIP3   OH245139   1.820   2.632  13.070  0.1531 -0.2953  0.6594
 7883TIP3    H145140   1.820   2.538  13.087  0.3823 -0.5362 -0.6047
 7883TIP3    H245141   1.817   2.639  12.974 -1.0196  0.9861  0.7728
 7884TIP3   OH245142   3.728   6.343  11.878  0.0754 -0.4131  0.0423
 7884TIP3    H145143   3.808   6.395  11.873 -0.0752 -0.1737  0.1248
 7884TIP3    H245144   3.660   6.406  11.899  0.1253 -0.8609  1.6306
 7885TIP3   OH245145   6.619   3.202   0.379  0.8314 -0.3917 -0.0601
 7885TIP3    H145146   6.657   3.239   0.458 -0.0910  0.6588 -0.1126
 7885TIP3    H245147   6.691   3.205   0.315  0.7748  1.2920 -0.0619
 7886TIP3   OH245148   2.704   2.096  13.468 -0.4135  0.7736 -0.1222
 7886TIP3    H145149   2.776   2.058  13.519 -0.5128 -1.0554 -1.3242
 7886TIP3    H245150   2.708   2.190  13.488  1.1667  0.4444  1.2253
 7887TIP3   OH245151   3.634   1.352   0.152 -0.4417  0.7335  0.0722
 7887TIP3    H145152   3.711   1.298   0.169 -1.2858 -0.4506  0.2325
 7887TIP3    H245153   3.648   1.387   0.064 -0.7781 -1.3629 -0.8535
 7888TIP3   OH245154   5.832   2.285  13.935 -0.2417 -0.2600  0.1541
 7888TIP3    H145155   5.871   2.340  13.866 -0.3046 -1.5849 -0.9583
 7888TIP3    H245156   5.894   2.214  13.947  0.4890  0.7297  2.5463
 7889TIP3   OH245157   3.896   0.448  11.914  0.3257 -0.7351  0.5445
 7889TIP3    H145158   3.871   0.466  11.824 -0.3254 -0.3489  0.8043
 7889TIP3    H245159   3.920   0.533  11.950  1.2283 -0.9768  0.5460
 7890TIP3   OH245160   0.447   4.234  15.326 -0.3411  0.1600 -0.2839
 7890TIP3    H145161   0.423   4.315  15.282 -3.0320 -1.1041 -1.2893
 7890TIP3    H245162   0.369   4.179  15.319  1.1081 -2.1862  1.1553
 7891TIP3   OH245163   5.292   1.244   2.752 -0.0264  0.1084 -0.4761
 7891TIP3    H145164   5.273   1.157   2.788  0.7761  0.2027  0.1917
 7891TIP3    H245165   5.212   1.269   2.705 -0.7209 -0.4458  0.4049
 7892TIP3   OH245166   1.356   3.061   4.697  0.4076  0.1048  0.0023
 7892TIP3    H145167   1.273   3.075   4.650 -0.1154  0.2166  0.9387
 7892TIP3    H245168   1.400   3.145   4.694  1.1539 -0.3288 -1.7482
 7893TIP3   OH245169   4.305   4.624   1.727  0.0709 -0.1230 -0.7743
 7893TIP3    H145170   4.326   4.648   1.637 -0.4162  0.1394 -0.8211
 7893TIP3    H245171   4.334   4.533   1.736  2.1896  0.5463 -0.5155
 7894TIP3   OH245172   3.992   2.687  13.702  0.2572 -0.3928 -0.3043
 7894TIP3    H145173   3.940   2.617  13.663  0.2953 -0.4904 -0.1811
 7894TIP3    H245174   4.004   2.661  13.793  0.9453 -0.6154 -0.4573
 7895TIP3   OH245175   3.240   0.819   1.794  0.7048  0.4121  0.0711
 7895TIP3    H145176   3.291   0.773   1.860  1.0573 -0.9237 -1.1049
 7895TIP3    H245177   3.165   0.763   1.778  0.5708  0.7740 -0.5896
 7896TIP3   OH245178   0.051   4.208  14.208 -0.2051  0.3293 -0.0553
 7896TIP3    H145179   0.065   4.128  14.257  0.9179  1.0779  0.8718
 7896TIP3    H245180  -0.005   4.182  14.134  0.6208 -1.3875 -0.0867
 7897TIP3   OH245181   7.119   1.388   2.695  0.3700 -0.0924  0.5687
 7897TIP3    H145182   7.067   1.419   2.770  1.5556 -0.6842  1.6592
 7897TIP3    H245183   7.082   1.434   2.620  0.0616  1.6025  1.7150
 7898TIP3   OH245184   2.156   2.924  14.844  0.3949  0.1280 -0.4052
 7898TIP3    H145185   2.109   2.932  14.761 -0.2075  0.6205 -0.0148
 7898TIP3    H245186   2.190   3.012  14.861 -0.7338  0.3873  0.6059
 7899TIP3   OH245187   4.978   5.413  12.210 -0.3537  0.2034 -0.0837
 7899TIP3    H145188   5.041   5.422  12.138 -0.2332 -0.4504 -0.0659
 7899TIP3    H245189   5.003   5.481  12.272  1.8396 -1.5500  1.0172
 7900TIP3   OH245190   5.834   5.720  13.156 -0.3317  0.3362 -0.6030
 7900TIP3    H145191   5.825   5.815  13.151  0.2246  0.3948 -0.4709
 7900TIP3    H245192   5.803   5.697  13.243 -2.7865  0.1265 -1.4924
 7901TIP3   OH245193   4.745   6.619  10.165  0.1926  0.2794  0.2595
 7901TIP3    H145194   4.746   6.531  10.127  0.5011 -0.3252  1.6156
 7901TIP3    H245195   4.837   6.639  10.183 -0.0461  0.0262  1.8303
 7902TIP3   OH245196   4.914   0.046  10.889 -0.8003 -0.9280  0.9007
 7902TIP3    H145197   4.907   0.113  10.821 -3.1752 -1.4264  0.6031
 7902TIP3    H245198   5.008   0.026  10.894 -0.0041  2.4499  1.0591
 7903TIP3   OH245199   4.109   3.670  13.321 -0.3625  0.3421  0.0121
 7903TIP3    H145200   4.177   3.732  13.348 -0.8100  1.1862 -0.8068
 7903TIP3    H245201   4.157   3.589  13.304  0.3084  0.6352  0.4602
 7904TIP3   OH245202   6.605   1.194  13.029  0.2414 -0.2547  0.1448
 7904TIP3    H145203   6.580   1.131  13.096 -0.0775 -1.5116 -1.1354
 7904TIP3    H245204   6.619   1.276  13.077  0.5617 -1.2618  1.8093
 7905TIP3   OH245205   6.155   4.514  11.722  0.0452 -0.3733  0.3218
 7905TIP3    H145206   6.250   4.515  11.707  0.1413 -0.5208  0.9191
 7905TIP3    H245207   6.145   4.533  11.815 -0.6112  1.7044 -0.1443
 7906TIP3   OH245208   5.741   3.157   0.205 -0.6750 -0.1026  0.9606
 7906TIP3    H145209   5.780   3.204   0.132  0.6603 -1.3801  0.8055
 7906TIP3    H245210   5.725   3.224   0.271  1.5439  0.5315  0.9073
 7907TIP3   OH245211   3.018   1.503  15.362 -0.7781  0.5491 -0.1563
 7907TIP3    H145212   2.922   1.500  15.359 -0.9016  1.2841  2.1635
 7907TIP3    H245213   3.040   1.467  15.448  1.0342  0.3693 -0.6863
 7908TIP3   OH245214   2.272   2.546  15.030  0.2644  0.2357 -0.2673
 7908TIP3    H145215   2.274   2.635  15.063  2.6471  0.4639 -0.9365
 7908TIP3    H245216   2.250   2.555  14.937  1.8757  0.2453 -0.6560
 7909TIP3   OH245217   6.401   4.078  14.660 -0.3404 -0.8150  0.3421
 7909TIP3    H145218   6.473   4.043  14.713 -0.9488 -1.4933  0.7338
 7909TIP3    H245219   6.402   4.172  14.678  0.4286 -0.8226  0.3689
 7910TIP3   OH245220   6.796   3.025  14.055 -0.7398 -0.2435 -0.6240
 7910TIP3    H145221   6.791   2.936  14.088 -0.8300  0.4601  1.3696
 7910TIP3    H245222   6.830   3.017  13.966 -0.5054 -2.2348 -0.3606
 7911TIP3   OH245223   5.510   3.626   0.190  0.1093 -0.3198  0.0161
 7911TIP3    H145224   5.535   3.567   0.260 -0.5969 -2.3696 -1.4279
 7911TIP3    H245225   5.587   3.629   0.133  0.6345  1.2421  0.7615
 7912TIP3   OH245226   6.268   5.374  11.732  0.9163 -0.9631 -0.4588
 7912TIP3    H145227   6.246   5.323  11.654 -0.0687 -1.3191  0.0400
 7912TIP3    H245228   6.222   5.329  11.803  2.9828 -1.5137  0.5704
 7913TIP3   OH245229   4.549   4.181  11.259 -0.4822  0.0971 -0.1299
 7913TIP3    H145230   4.610   4.139  11.320  0.0414 -0.0730 -0.7648
 7913TIP3    H245231   4.603   4.206  11.185 -0.9474  1.1929 -0.1029
 7914TIP3   OH245232   3.944   5.421  15.322 -0.0680  0.2985  0.1899
 7914TIP3    H145233   3.963   5.417  15.228  0.8200  0.3819  0.3618
 7914TIP3    H245234   3.929   5.330  15.348  2.3546 -0.0240  0.5031
 7915TIP3   OH245235   6.691   2.098   2.754  0.4296  0.1799  0.0579
 7915TIP3    H145236   6.598   2.119   2.750  0.0568 -1.0943  1.9087
 7915TIP3    H245237   6.732   2.165   2.699 -1.6667  0.0640 -1.7468
 7916TIP3   OH245238   2.054   4.028   0.808 -0.0265 -0.2125  0.5351
 7916TIP3    H145239   2.092   3.961   0.865 -1.8666 -0.3876  1.6051
 7916TIP3    H245240   2.003   3.978   0.744  0.7699  0.0523 -0.3073
 7917TIP3   OH245241   6.407   4.349  14.728 -0.0240  0.0283 -0.4902
 7917TIP3    H145242   6.415   4.427  14.673 -2.6089 -1.3235 -2.9216
 7917TIP3    H245243   6.315   4.348  14.755  0.2091 -1.6749  0.3071
 7918TIP3   OH245244   3.754   5.844  11.434 -0.1288 -0.2395  0.5028
 7918TIP3    H145245   3.759   5.862  11.528  0.8385  0.5965  0.2920
 7918TIP3    H245246   3.661   5.851  11.413 -0.3448 -0.4150  1.3984
 7919TIP3   OH245247   5.950   1.653  13.859 -0.6892  0.5184  0.1701
 7919TIP3    H145248   5.860   1.683  13.872 -1.2151 -1.2185  0.6054
 7919TIP3    H245249   5.944   1.589  13.788  0.4314  1.4518 -0.7883
 7920TIP3   OH245250   5.371   2.527   1.781  0.3551 -0.1051 -0.7455
 7920TIP3    H145251   5.451   2.530   1.833 -0.6552 -0.1035  0.8267
 7920TIP3    H245252   5.355   2.618   1.757 -0.7096  0.2779  1.3324
 7921TIP3   OH245253   0.287   2.393  12.252 -0.2078 -0.3578  0.1869
 7921TIP3    H145254   0.335   2.371  12.332 -0.2916 -1.6275 -0.1015
 7921TIP3    H245255   0.296   2.488  12.244 -0.4916 -0.1766  1.8907
 7922TIP3   OH245256   5.365   1.451  14.954 -0.1136  0.0941  0.2375
 7922TIP3    H145257   5.381   1.535  14.996  1.6725 -0.0202 -0.1907
 7922TIP3    H245258   5.422   1.390  14.999 -1.0055 -0.7987  0.1871
 7923TIP3   OH245259   6.156   5.829  14.586 -0.3914 -0.5816  0.0456
 7923TIP3    H145260   6.070   5.869  14.602 -0.0673 -0.1661  0.7465
 7923TIP3    H245261   6.197   5.887  14.522  0.0750  0.2135  1.0567
 7924TIP3   OH245262   4.973   2.648   5.044  0.1464  0.0782  0.4769
 7924TIP3    H145263   5.051   2.691   5.008  0.9656 -1.1503  0.7330
 7924TIP3    H245264   4.963   2.685   5.131 -0.4007  1.2823 -0.0910
 7925TIP3   OH245265   3.612   7.198  12.724  0.0244  0.1323  0.2887
 7925TIP3    H145266   3.557   7.273  12.746  1.1185  0.7985  0.8195
 7925TIP3    H245267   3.680   7.235  12.667 -0.0528 -0.6704 -0.3352
 7926TIP3   OH245268   5.654   6.504   0.636  0.2306  0.6177  0.3964
 7926TIP3    H145269   5.653   6.411   0.614 -0.8450  0.7467 -0.1225
 7926TIP3    H245270   5.712   6.543   0.570  0.0573  0.4352  0.1335
 7927TIP3   OH245271   3.864   2.667  10.647  0.1627  0.7343  0.1168
 7927TIP3    H145272   3.798   2.671  10.578 -0.0476  0.8628  0.3233
 7927TIP3    H245273   3.945   2.694  10.604  0.2008 -0.0135 -0.2797
 7928TIP3   OH245274   3.165   3.243  14.368 -0.7827 -0.0199  0.2891
 7928TIP3    H145275   3.151   3.269  14.459  0.8590  1.4572  0.1345
 7928TIP3    H245276   3.092   3.184  14.349 -0.4366 -1.4063  2.9638
 7929TIP3   OH245277   3.228   1.336   0.149 -0.0422 -0.5911 -0.5852
 7929TIP3    H145278   3.299   1.319   0.211  0.6882 -2.3335 -1.8578
 7929TIP3    H245279   3.160   1.377   0.201  0.1071 -3.0484  1.6185
 7930TIP3   OH245280   4.582   3.161  15.287 -0.2572  0.4781  0.0637
 7930TIP3    H145281   4.575   3.097  15.216  0.6522  1.5099 -0.9798
 7930TIP3    H245282   4.493   3.166  15.323 -0.1640 -1.9735  0.7281
 7931TIP3   OH245283   6.049   0.538  12.560  0.3198  0.1611  0.0661
 7931TIP3    H145284   6.043   0.487  12.479  1.3576  0.9725 -0.5326
 7931TIP3    H245285   5.958   0.557  12.583  0.0197 -0.0976 -0.8955
 7932TIP3   OH245286   4.095   2.160  11.453 -0.4422  0.7221  0.4034
 7932TIP3    H145287   4.005   2.173  11.422 -0.0772 -0.7096 -1.3196
 7932TIP3    H245288   4.110   2.065  11.444  1.0728  0.8768  1.1432
 7933TIP3   OH245289   6.738   5.533  13.530  0.6563 -0.0133  0.5877
 7933TIP3    H145290   6.733   5.595  13.603 -0.0004 -0.9794  1.3781
 7933TIP3    H245291   6.659   5.479  13.539  0.8558 -0.5011 -0.5150
 7934TIP3   OH245292   6.450   1.060  11.195  0.0938 -0.4782 -0.0167
 7934TIP3    H145293   6.497   1.046  11.277 -0.3583  0.8699  0.4804
 7934TIP3    H245294   6.478   1.146  11.165 -2.0911  0.4125  0.3480
 7935TIP3   OH245295   6.380   5.151  10.944 -0.1371  0.3701  0.0994
 7935TIP3    H145296   6.300   5.181  10.902  0.0920  1.0509  0.1481
 7935TIP3    H245297   6.355   5.135  11.035 -0.8631 -2.0167 -0.4788
 7936TIP3   OH245298   7.066   3.726  13.964  0.2431  0.2283 -0.2155
 7936TIP3    H145299   7.120   3.804  13.976  0.5790 -0.0879  0.3331
 7936TIP3    H245300   7.124   3.662  13.924 -0.0001  0.2115 -0.5494
 7937TIP3   OH245301   6.084   4.309  12.080 -0.2626 -0.0250  0.0419
 7937TIP3    H145302   6.151   4.362  12.038  1.1923 -0.2218  2.0434
 7937TIP3    H245303   6.098   4.322  12.174 -2.1455 -1.1588  0.5159
 7938TIP3   OH245304   5.290   2.566  13.264 -0.3333  0.5283 -0.2994
 7938TIP3    H145305   5.216   2.622  13.243  0.3695  1.9257  0.8982
 7938TIP3    H245306   5.353   2.582  13.194 -0.1291  1.2651  0.0463
 7939TIP3   OH245307   2.410   5.579   0.464 -0.2857  0.1621  0.3360
 7939TIP3    H145308   2.433   5.608   0.553  0.4952 -0.5951  0.3813
 7939TIP3    H245309   2.395   5.485   0.473 -1.7523  0.3445 -0.0346
 7940TIP3   OH245310   5.555   1.388   1.523  0.1070  0.4391 -0.3351
 7940TIP3    H145311   5.583   1.391   1.431  2.3829 -1.3408  0.2565
 7940TIP3    H245312   5.629   1.424   1.572 -0.9197  0.9562  0.8569
 7941TIP3   OH245313   5.178   5.134  10.069  0.1728 -0.4328 -0.3071
 7941TIP3    H145314   5.165   5.168   9.980  0.1699 -2.3162 -1.0564
 7941TIP3    H245315   5.199   5.211  10.121  0.6955  0.6449 -2.0524
 7942TIP3   OH245316   3.280   3.889  14.146 -0.1036  0.2340 -0.3889
 7942TIP3    H145317   3.232   3.807  14.132 -2.9344  1.7994 -0.2931
 7942TIP3    H245318   3.216   3.957  14.125  1.7821  2.4349  0.8662
 7943TIP3   OH245319   2.412   1.552  13.079  0.2998 -0.0396  0.4374
 7943TIP3    H145320   2.358   1.543  13.158  0.1976  0.2025  0.3979
 7943TIP3    H245321   2.393   1.641  13.048 -0.1374 -0.3533 -0.2104
 7944TIP3   OH245322   4.209   2.297  13.093  0.0711 -0.5604  0.4334
 7944TIP3    H145323   4.140   2.274  13.154 -0.5248 -0.1031 -0.0677
 7944TIP3    H245324   4.179   2.264  13.008 -0.7599  1.9776 -0.2876
 7945TIP3   OH245325   2.337   4.724  11.790  0.1166  0.1788  0.7841
 7945TIP3    H145326   2.333   4.717  11.694  2.0061 -0.8290  0.7618
 7945TIP3    H245327   2.252   4.762  11.814 -1.1520 -1.3129 -1.1298
 7946TIP3   OH245328   4.311   6.510  13.623 -0.3783 -0.6502 -0.3197
 7946TIP3    H145329   4.294   6.433  13.678 -1.7683 -0.7990 -0.9243
 7946TIP3    H245330   4.398   6.539  13.649 -0.6221 -1.2823  1.2864
 7947TIP3   OH245331   6.287   2.542  12.086 -0.2474  0.0208  0.3026
 7947TIP3    H145332   6.355   2.474  12.091 -1.0242 -0.8775 -1.0063
 7947TIP3    H245333   6.206   2.492  12.075 -0.7005  1.2016 -1.8856
 7948TIP3   OH245334   4.564   3.599  11.810 -0.6902  0.0617  0.4514
 7948TIP3    H145335   4.598   3.543  11.740  0.6942 -0.1124  1.2448
 7948TIP3    H245336   4.575   3.688  11.777 -1.2600 -0.0660 -0.0912
 7949TIP3   OH245337   4.364   6.138  13.236 -0.5116 -0.3301 -0.0547
 7949TIP3    H145338   4.368   6.205  13.304  1.0867  0.4435 -0.8661
 7949TIP3    H245339   4.455   6.130  13.206 -1.2672 -0.2754 -2.4500
 7950TIP3   OH245340   4.127   1.774   1.534 -0.4937  1.0650  0.2567
 7950TIP3    H145341   4.172   1.690   1.529 -0.0232  1.3606 -0.5878
 7950TIP3    H245342   4.041   1.757   1.494 -0.1460  1.1477 -0.5371
 7951TIP3   OH245343   6.976   0.189  11.661  0.1439 -0.7611 -0.1485
 7951TIP3    H145344   6.996   0.185  11.755  0.4478 -1.0533 -0.2223
 7951TIP3    H245345   7.046   0.138  11.620  0.0918 -0.5108 -0.5474
 7952TIP3   OH245346   5.352   5.277   0.600 -0.0569 -0.2514 -0.0872
 7952TIP3    H145347   5.314   5.300   0.685  1.1753 -1.1108  0.7056
 7952TIP3    H245348   5.286   5.222   0.558  0.5294 -2.2630  1.5434
 7953TIP3   OH245349   2.242   4.615  13.808 -0.3882  0.1435 -0.1460
 7953TIP3    H145350   2.309   4.601  13.875  0.0713 -0.0846 -0.6469
 7953TIP3    H245351   2.260   4.548  13.742 -1.0882  0.1082 -0.3058
 7954TIP3   OH245352   2.741   3.787  10.817  0.5363  0.5844  0.2074
 7954TIP3    H145353   2.814   3.751  10.866  0.0096 -0.2936  0.3595
 7954TIP3    H245354   2.743   3.742  10.733 -0.5234 -0.3011  0.6428
 7955TIP3   OH245355   6.275   0.127  14.497  0.0294 -0.2384  0.4977
 7955TIP3    H145356   6.354   0.120  14.551 -0.3135 -0.9392  0.9151
 7955TIP3    H245357   6.300   0.187  14.426  0.3947  0.8863  1.5624
 7956TIP3   OH245358   2.372   6.660  12.325 -0.2423  0.1963 -0.1102
 7956TIP3    H145359   2.315   6.726  12.284  0.1319  0.0780 -0.8364
 7956TIP3    H245360   2.323   6.578  12.319 -2.4003  1.0324  4.2601
 7957TIP3   OH245361   2.156   7.035  14.166 -0.0644 -0.5886  0.0474
 7957TIP3    H145362   2.188   7.089  14.094 -3.5586  1.4226 -0.1285
 7957TIP3    H245363   2.068   7.008  14.138 -0.3855 -2.1053  2.3612
 7958TIP3   OH245364   4.707   1.513   1.943 -0.1394  0.0981 -0.0095
 7958TIP3    H145365   4.669   1.600   1.945 -1.7862 -0.5792 -0.5504
 7958TIP3    H245366   4.632   1.454   1.943  0.9602 -1.3576  1.7526
 7959TIP3   OH245367   3.338   1.240  12.283 -0.3537  0.1897  0.0570
 7959TIP3    H145368   3.295   1.320  12.313 -2.2740 -0.5372 -0.6558
 7959TIP3    H245369   3.350   1.188  12.362 -1.3206  0.1691  0.2023
 7960TIP3   OH245370   2.013   3.863   2.873  0.0738 -0.2385 -0.5091
 7960TIP3    H145371   1.936   3.885   2.821  0.0884 -0.0688 -0.4617
 7960TIP3    H245372   1.989   3.784   2.920 -0.0798 -0.1741 -0.4774
 7961TIP3   OH245373   6.993   1.745  10.375 -0.4155  0.0205  0.1664
 7961TIP3    H145374   6.968   1.654  10.358  0.7352 -0.2746  0.0642
 7961TIP3    H245375   6.941   1.796  10.313  0.2125 -0.6993 -0.9679
 7962TIP3   OH245376   7.144   5.083   0.355 -0.4090  0.4947 -0.0020
 7962TIP3    H145377   7.154   4.991   0.382  1.8256  0.4014 -1.0741
 7962TIP3    H245378   7.058   5.087   0.314 -0.1492 -1.3190 -0.7465
 7963TIP3   OH245379   0.708   5.206  14.798 -0.5387 -0.5594  0.3791
 7963TIP3    H145380   0.619   5.207  14.835 -1.2342 -1.1286 -1.2072
 7963TIP3    H245381   0.755   5.142  14.851 -0.9519  0.0454  1.4954
 7964TIP3   OH245382   1.593   2.845  11.313  0.4968 -0.5828  0.1369
 7964TIP3    H145383   1.556   2.861  11.226  0.8118 -0.8362 -0.0465
 7964TIP3    H245384   1.540   2.899  11.372  2.9155  2.9598 -0.7421
 7965TIP3   OH245385   6.257   0.913  11.854  0.1829 -0.2894 -0.2567
 7965TIP3    H145386   6.205   0.901  11.775  0.0759 -1.7678  0.0160
 7965TIP3    H245387   6.254   0.828  11.898  1.2479  0.1569  0.7219
 7966TIP3   OH245388   0.342   2.006  12.510 -0.0027  0.4915  0.0024
 7966TIP3    H145389   0.278   1.945  12.474  0.8480 -0.6539  0.3754
 7966TIP3    H245390   0.417   1.951  12.533 -0.1923  1.2845  2.7292
 7967TIP3   OH245391   5.991   3.481  14.667  0.3029 -0.0532  0.1946
 7967TIP3    H145392   6.001   3.396  14.625 -1.6088  0.2089 -0.8549
 7967TIP3    H245393   6.001   3.544  14.596  0.2957  0.5527  0.7210
 7968TIP3   OH245394   2.081   2.686  14.024 -0.1932 -0.1771  0.8799
 7968TIP3    H145395   2.073   2.634  13.944 -1.0379 -0.3581  1.0797
 7968TIP3    H245396   2.008   2.748  14.020  0.0874  0.1773  1.2417
 7969TIP3   OH245397   0.811   2.178  15.522 -0.2609 -0.1582 -0.4702
 7969TIP3    H145398   0.796   2.229  15.602 -0.7527  1.0773 -1.3394
 7969TIP3    H245399   0.723   2.159  15.489 -0.0508  0.1941 -1.2464
 7970TIP3   OH245400   2.475   4.012   0.871 -0.6250  0.2556  0.9083
 7970TIP3    H145401   2.513   4.100   0.879  2.0193 -0.9390  2.0033
 7970TIP3    H245402   2.439   3.994   0.957  0.1666 -0.3068  1.1280
 7971TIP3   OH245403   6.645   3.700  14.178  0.4183 -0.0643  0.3290
 7971TIP3    H145404   6.580   3.637  14.146  1.1558 -0.9734  0.5874
 7971TIP3    H245405   6.664   3.755  14.102 -0.1775 -0.1921  0.0777
 7972TIP3   OH245406   3.676   4.244  11.356 -0.4745  0.4871 -0.3688
 7972TIP3    H145407   3.603   4.229  11.416  0.5700  0.2877  0.8522
 7972TIP3    H245408   3.646   4.316  11.300 -2.8471 -1.5732 -1.9062
 7973TIP3   OH245409   4.245   2.209  10.564  0.3958 -0.3373 -0.1533
 7973TIP3    H145410   4.281   2.209  10.475  0.8229 -0.1508  0.0224
 7973TIP3    H245411   4.156   2.175  10.553  0.1519  0.5013 -0.7721
 7974TIP3   OH245412   5.058   1.737  11.355 -0.6484 -0.0470  0.3779
 7974TIP3    H145413   5.123   1.682  11.399 -1.2798 -0.5894  0.6303
 7974TIP3    H245414   4.986   1.744  11.417 -0.8688  0.4895  0.0661
 7975TIP3   OH245415   0.254   0.374  14.285 -0.9451 -0.2678 -0.7170
 7975TIP3    H145416   0.197   0.450  14.291 -1.7409 -0.8238 -1.1484
 7975TIP3    H245417   0.235   0.336  14.199  0.7371  0.0581 -1.2484
 7976TIP3   OH245418   1.933   3.907  13.404  0.0418  0.5515 -0.1339
 7976TIP3    H145419   1.952   3.931  13.314 -0.8836 -0.0004 -0.4796
 7976TIP3    H245420   1.914   3.813  13.401 -0.8498  0.7060  0.4925
 7977TIP3   OH245421   0.050   4.868   1.024  0.6079  0.3067  0.4164
 7977TIP3    H145422  -0.003   4.937   0.984 -1.1936 -2.2289 -1.7895
 7977TIP3    H245423   0.129   4.864   0.970 -0.0503 -0.4666 -0.5021
 7978TIP3   OH245424   4.305   5.403  11.929 -0.2746 -0.1356  0.3810
 7978TIP3    H145425   4.318   5.496  11.907  0.7199 -0.1833  0.7599
 7978TIP3    H245426   4.257   5.405  12.011  1.2238  0.0492  1.2599
 7979TIP3   OH245427   3.493   3.557  13.017  0.2243  0.9027  0.1762
 7979TIP3    H145428   3.564   3.620  13.005  1.4516 -0.6956 -1.1767
 7979TIP3    H245429   3.451   3.552  12.931 -0.7078  0.8441  0.6305
 7980TIP3   OH245430   4.840   2.713  10.832 -0.2584 -0.1482  0.1687
 7980TIP3    H145431   4.764   2.751  10.876 -0.4567 -0.4337  0.0736
 7980TIP3    H245432   4.887   2.668  10.902  0.7794  1.5146  0.5749
 7981TIP3   OH245433   0.037   1.663  11.524  0.2743 -0.1964 -0.0843
 7981TIP3    H145434  -0.009   1.743  11.499 -1.1245 -0.5722  1.2137
 7981TIP3    H245435   0.122   1.670  11.480 -0.6115  1.0006 -1.7019
 7982TIP3   OH245436   5.723   1.578  14.370  0.2583  0.0895 -0.0273
 7982TIP3    H145437   5.679   1.595  14.453  0.5669 -1.9013  0.5865
 7982TIP3    H245438   5.689   1.644  14.310 -1.1045  0.6128  1.2908
 7983TIP3   OH245439   3.943   1.340  14.512  0.2055 -0.3243  0.2091
 7983TIP3    H145440   3.965   1.370  14.601 -0.1561  2.0358 -0.4482
 7983TIP3    H245441   3.847   1.334  14.512  0.3676 -3.3698  0.8804
 7984TIP3   OH245442   0.934   4.843  12.476  0.6203  0.3150  0.3052
 7984TIP3    H145443   0.939   4.783  12.550  1.4438  1.5014  1.2434
 7984TIP3    H245444   0.891   4.793  12.407  1.6035 -1.4683  0.9417
 7985TIP3   OH245445   3.450   2.271   3.089  0.4400 -0.2542  0.0563
 7985TIP3    H145446   3.365   2.231   3.111 -0.0521  1.2441  1.0224
 7985TIP3    H245447   3.427   2.354   3.048  1.4521 -0.4394 -0.9125
 7986TIP3   OH245448   1.251   2.756  15.254  0.2955  0.2191 -0.0691
 7986TIP3    H145449   1.178   2.702  15.284 -1.0229  2.1628  0.2693
 7986TIP3    H245450   1.328   2.717  15.296 -0.7729 -0.6895  1.0706
 7987TIP3   OH245451   4.705   0.403  15.542 -0.2769 -0.0014  0.0286
 7987TIP3    H145452   4.617   0.374  15.516 -0.3858 -1.5241  1.9861
 7987TIP3    H245453   4.729   0.467  15.476 -2.1421 -0.8654 -1.5452
 7988TIP3   OH245454   3.312   2.312  12.482 -0.5928 -0.1396 -0.1257
 7988TIP3    H145455   3.407   2.310  12.468 -0.6918  0.9232 -0.9704
 7988TIP3    H245456   3.281   2.230  12.444 -0.0100 -0.5212  0.2079
 7989TIP3   OH245457   0.764   1.720  12.725  0.7334  0.1257  0.5160
 7989TIP3    H145458   0.747   1.660  12.798  0.6967 -0.2001  0.2435
 7989TIP3    H245459   0.824   1.785  12.760  3.1362 -1.7478 -0.0174
 7990TIP3   OH245460   1.297   4.182  13.803 -0.3873  0.0669 -0.5730
 7990TIP3    H145461   1.361   4.229  13.749 -0.2494  1.5439  0.8495
 7990TIP3    H245462   1.232   4.249  13.826 -0.5861 -0.6079  0.8665
 7991TIP3   OH245463   6.697   5.536  15.225 -0.1244  0.3226  0.4766
 7991TIP3    H145464   6.614   5.498  15.254 -0.4198 -0.5957 -1.5274
 7991TIP3    H245465   6.672   5.622  15.191 -0.6302 -0.8785 -2.2833
 7992TIP3   OH245466   0.081   3.820  12.681 -0.1940  0.2324 -0.5445
 7992TIP3    H145467   0.075   3.870  12.600  2.3852  0.9243 -0.3474
 7992TIP3    H245468   0.118   3.736  12.654 -1.3623 -0.3453 -0.3825
 7993TIP3   OH245469   0.958   3.366   1.731 -0.7606  0.4075  0.3503
 7993TIP3    H145470   0.976   3.320   1.648  0.2273  0.4950  0.5062
 7993TIP3    H245471   0.907   3.443   1.705  0.3785  0.9639 -0.3197
 7994TIP3   OH245472   3.677   5.637   0.760  0.6171 -0.5771 -0.0063
 7994TIP3    H145473   3.591   5.621   0.721  0.1506  1.6445  0.0503
 7994TIP3    H245474   3.667   5.611   0.851  0.6695 -2.4116 -0.5012
 7995TIP3   OH245475   1.537   3.986  13.709  0.1136 -0.5043 -0.0949
 7995TIP3    H145476   1.621   4.031  13.718  0.1534 -0.4719 -0.6247
 7995TIP3    H245477   1.535   3.924  13.782 -1.1322  2.2216  2.2831
 7996TIP3   OH245478   4.426   4.672  13.840 -0.8676  0.0287 -0.6861
 7996TIP3    H145479   4.383   4.754  13.863 -0.8424 -0.3833  0.8822
 7996TIP3    H245480   4.369   4.604  13.875 -0.5700 -0.6102 -1.4245
 7997TIP3   OH245481   1.859   1.049  15.166  0.1002  0.2937 -0.2566
 7997TIP3    H145482   1.835   1.116  15.230 -0.7002  0.2900 -0.5525
 7997TIP3    H245483   1.811   0.971  15.193 -0.0114  0.2102 -0.6941
 7998TIP3   OH245484   4.756   6.471  14.503  0.1154 -0.3690 -0.2584
 7998TIP3    H145485   4.677   6.465  14.557 -0.7324  0.5556 -1.3548
 7998TIP3    H245486   4.760   6.387  14.457 -1.7108  0.5037 -2.1361
 7999TIP3   OH245487   5.479   3.332  12.077  0.5151  0.2515  0.1859
 7999TIP3    H145488   5.558   3.328  12.131 -0.1020 -1.4059  1.0115
 7999TIP3    H245489   5.414   3.283  12.127 -0.7737  0.8060 -0.9220
 8000TIP3   OH245490   7.127   2.153  12.412 -0.2015 -0.1426  0.1465
 8000TIP3    H145491   7.055   2.181  12.355 -0.8889  1.5677  1.8056
 8000TIP3    H245492   7.204   2.153  12.355 -1.2330 -0.5861 -1.2996
 8001TIP3   OH245493   3.669   1.451  10.287 -0.2000  0.4336 -0.6859
 8001TIP3    H145494   3.638   1.538  10.264  1.4824  1.0384 -0.7442
 8001TIP3    H245495   3.641   1.395  10.215 -1.6628  0.8392 -0.4384
 8002TIP3   OH245496   0.138   2.974   1.491 -0.4014  0.0492  0.1181
 8002TIP3    H145497   0.102   2.951   1.406 -1.2810  0.9405  0.2414
 8002TIP3    H245498   0.114   3.066   1.504  0.7556  0.2707  0.7986
 8003TIP3   OH245499   3.557   6.165  14.128 -0.5830 -0.3163  0.1420
 8003TIP3    H145500   3.586   6.190  14.216  1.5162 -0.9393 -0.3447
 8003TIP3    H245501   3.588   6.075  14.117 -0.8407 -0.2483 -1.2306
 8004TIP3   OH245502   7.027   2.966  15.597  0.3888  0.3400 -0.8014
 8004TIP3    H145503   7.092   3.016  15.550  1.5648  1.0324  1.4730
 8004TIP3    H245504   6.974   3.031  15.643  0.3373 -0.3756  0.1792
 8005TIP3   OH245505   1.620   6.343  10.892  0.3010  0.1623 -0.3958
 8005TIP3    H145506   1.704   6.385  10.910  0.7207 -0.4031 -1.0089
 8005TIP3    H245507   1.582   6.394  10.820  0.2064  0.3041 -0.2452
 8006TIP3   OH245508   3.240   3.815   0.430  0.3642 -0.6862  0.1516
 8006TIP3    H145509   3.152   3.822   0.394  0.4651 -0.6880 -0.0972
 8006TIP3    H245510   3.268   3.727   0.408  0.5419 -0.5845 -0.0378
 8007TIP3   OH245511   0.154   4.874   0.196  0.0972  0.6164 -0.3281
 8007TIP3    H145512   0.182   4.929   0.123 -0.1169  1.1421 -0.0169
 8007TIP3    H245513   0.231   4.820   0.217  0.6208  1.4753 -0.0077
 8008TIP3   OH245514   5.895   4.067   0.215  1.3123  0.0238 -0.2936
 8008TIP3    H145515   5.857   3.985   0.247  1.3816 -0.5338 -1.5970
 8008TIP3    H245516   5.933   4.044   0.131  0.7145  1.5641 -0.9970
 8009TIP3   OH245517   1.690   1.487  14.086 -0.3293  0.4562 -0.0072
 8009TIP3    H145518   1.601   1.524  14.081 -0.4284  0.0551 -1.3555
 8009TIP3    H245519   1.736   1.527  14.013  0.7584  1.0296  0.9730
 8010TIP3   OH245520   1.014   5.916  13.939  0.2771 -0.2931 -0.3784
 8010TIP3    H145521   0.960   5.851  13.985 -0.1275  0.0604 -0.3420
 8010TIP3    H245522   0.950   5.968  13.888  0.7962 -1.1695 -1.9458
 8011TIP3   OH245523   6.315   4.664  12.228 -0.1925 -0.0809  0.3500
 8011TIP3    H145524   6.351   4.744  12.266 -1.3955  0.5860  0.1276
 8011TIP3    H245525   6.354   4.593  12.278  0.6053  0.6603  0.7927
 8012TIP3   OH245526   1.798   1.853   2.754  0.4640 -0.1702  0.9549
 8012TIP3    H145527   1.883   1.811   2.770  0.7923 -0.0946 -0.5803
 8012TIP3    H245528   1.819   1.946   2.743  0.2137 -0.1851  0.3530
 8013TIP3   OH245529   3.995   1.464  14.092  0.4475 -0.4306 -0.0411
 8013TIP3    H145530   3.944   1.473  14.173  0.6285 -0.8933  0.1277
 8013TIP3    H245531   4.004   1.553  14.059 -0.3958 -0.3365 -0.0297
 8014TIP3   OH245532   3.190   2.711  10.472 -0.0981 -0.0506 -0.2535
 8014TIP3    H145533   3.247   2.691  10.397 -0.0267 -0.7243 -0.0221
 8014TIP3    H245534   3.109   2.741  10.432  0.1073  0.0587 -0.5973
 8015TIP3   OH245535   5.242   6.093  15.476 -0.9431 -0.0569 -0.2273
 8015TIP3    H145536   5.212   6.004  15.459  1.1184 -0.8290  0.0006
 8015TIP3    H245537   5.282   6.089  15.563  0.1425  0.8199 -0.6707
 8016TIP3   OH245538   1.896   3.938  14.387  1.0360  0.0863  0.0636
 8016TIP3    H145539   1.858   3.937  14.299  1.8032 -1.0083 -0.2713
 8016TIP3    H245540   1.826   3.904  14.443  1.5630 -2.1490 -0.5892
 8017TIP3   OH245541   0.430   6.878  15.565 -0.5248  0.2023  1.3380
 8017TIP3    H145542   0.507   6.899  15.512 -0.0471 -1.8410  1.1725
 8017TIP3    H245543   0.356   6.894  15.507 -0.0319 -1.3822  0.2181
 8018TIP3   OH245544   7.171   7.038  10.346  0.0699  0.0691  0.4848
 8018TIP3    H145545   7.184   7.006  10.256 -0.9352 -0.3912  0.4822
 8018TIP3    H245546   7.106   7.108  10.337 -1.7745 -1.4888  1.0718
 8019TIP3   OH245547   5.072   2.742   0.850 -0.0864 -0.1241 -0.0801
 8019TIP3    H145548   5.034   2.822   0.813 -1.4793 -1.1373 -0.8716
 8019TIP3    H245549   5.009   2.673   0.829  1.2868 -1.5142  0.2548
 8020TIP3   OH245550   0.580   2.778  14.754 -0.0751  0.1109 -0.5974
 8020TIP3    H145551   0.634   2.823  14.688  0.4386  1.2386  0.5712
 8020TIP3    H245552   0.490   2.798  14.728  0.1330  1.0706 -0.6115
 8021TIP3   OH245553   0.498   1.773  12.601 -0.0260  0.2064 -0.0972
 8021TIP3    H145554   0.491   1.678  12.596 -1.6728  0.3185 -0.1254
 8021TIP3    H245555   0.571   1.789  12.660 -1.5016 -1.0823  2.1157
 8022TIP3   OH245556   7.135   0.435  13.834 -0.2623 -0.3686  0.8933
 8022TIP3    H145557   7.057   0.412  13.883 -0.5803 -0.2927  0.4271
 8022TIP3    H245558   7.126   0.389  13.751 -0.6262  0.9623  0.1834
 8023TIP3   OH245559   5.202   7.039  12.603  0.2261  0.0735  0.3247
 8023TIP3    H145560   5.186   7.065  12.694 -1.0961  0.3311  0.0197
 8023TIP3    H245561   5.143   6.965  12.588  0.2431  0.2026 -0.4073
 8024TIP3   OH245562   4.394   0.038  10.696  0.0044 -0.2594 -0.6015
 8024TIP3    H145563   4.479   0.060  10.660  0.9033 -0.8085  1.1184
 8024TIP3    H245564   4.345   0.120  10.697  0.7749  0.2011 -0.9081
 8025TIP3   OH245565   4.671   2.364  11.907 -0.3359  0.2042  0.1013
 8025TIP3    H145566   4.765   2.346  11.906 -0.5402 -0.9716  1.0245
 8025TIP3    H245567   4.663   2.445  11.958  0.1321  0.0108  0.4853
 8026TIP3   OH245568   5.184   3.140   3.155  0.2732 -0.1214  0.0565
 8026TIP3    H145569   5.091   3.156   3.142  0.3051  0.1554  0.1590
 8026TIP3    H245570   5.192   3.120   3.248  0.3020 -0.2391  0.0286
 8027TIP3   OH245571   2.819   2.785  14.688  0.1137 -0.8021 -0.0072
 8027TIP3    H145572   2.885   2.750  14.627  0.5594  0.5632 -0.3266
 8027TIP3    H245573   2.793   2.869  14.650 -0.4667 -0.4783  1.0742
 8028TIP3   OH245574   6.875   6.005  12.956  0.3107 -0.3814 -0.1030
 8028TIP3    H145575   6.879   5.950  12.878  0.2961 -1.9122  0.9445
 8028TIP3    H245576   6.810   5.962  13.012  1.1432  0.0565  1.2224
 8029TIP3   OH245577   1.777   5.471  12.940  0.3455  0.5842  0.0417
 8029TIP3    H145578   1.727   5.441  13.017  0.9981 -0.0948  0.2058
 8029TIP3    H245579   1.726   5.544  12.906 -1.3278 -0.7314 -0.3899
 8030TIP3   OH245580   4.422   1.361  11.244 -0.6683  0.0920  0.2118
 8030TIP3    H145581   4.329   1.371  11.223 -0.2261  0.9814 -1.3810
 8030TIP3    H245582   4.435   1.266  11.247 -1.7852 -0.0508  1.2541
 8031TIP3   OH245583   5.160   6.645   0.730  0.2701  0.2023  0.6182
 8031TIP3    H145584   5.175   6.662   0.823  0.2292  1.4981  0.4066
 8031TIP3    H245585   5.248   6.642   0.692  0.2700  0.1206  0.6245
 8032TIP3   OH245586   6.554   5.130  15.564  0.2666  0.1790 -0.1317
 8032TIP3    H145587   6.562   5.050  15.513 -1.7701  1.1677 -2.0594
 8032TIP3    H245588   6.539   5.099  15.654 -1.2830 -1.6037 -0.9793
 8033TIP3   OH245589   6.108   2.573  11.466 -0.1000  0.0272 -0.6089
 8033TIP3    H145590   6.160   2.585  11.387 -3.6833  1.5427 -2.8653
 8033TIP3    H245591   6.118   2.655  11.514  0.7400 -0.2653 -0.2610
 8034TIP3   OH245592   6.928   6.247  12.844  0.1563  0.9049  0.3749
 8034TIP3    H145593   6.901   6.179  12.905 -0.0511  1.8470  1.3497
 8034TIP3    H245594   6.847   6.285  12.812  0.2225 -0.4148 -1.4863
 8035TIP3   OH245595   1.675   2.374  12.595 -0.0765 -0.4626  0.0328
 8035TIP3    H145596   1.705   2.461  12.569  0.6290 -0.6943  0.0765
 8035TIP3    H245597   1.616   2.347  12.524 -0.4988  0.1479  0.1433
 8036TIP3   OH245598   6.863   6.658   0.220  0.4865  0.4931 -0.5689
 8036TIP3    H145599   6.884   6.738   0.173 -0.0053  0.8620 -0.1703
 8036TIP3    H245600   6.899   6.672   0.308  0.2438  0.3490 -0.4457
 8037TIP3   OH245601   3.925   4.042  13.369  0.6121  0.0792  0.3708
 8037TIP3    H145602   3.890   4.104  13.306  1.5075 -0.6131 -0.8483
 8037TIP3    H245603   3.852   3.983  13.388  0.3729  0.2101 -0.1326
 8038TIP3   OH245604   4.198   6.485  11.206 -0.2787  0.2073  0.4190
 8038TIP3    H145605   4.235   6.512  11.122  1.2010 -0.9839  0.6631
 8038TIP3    H245606   4.113   6.529  11.210 -0.6048 -0.1323 -1.9108
 8039TIP3   OH245607   5.136   0.627  15.462  0.1412  0.0767  0.1205
 8039TIP3    H145608   5.113   0.539  15.433  2.0167 -0.6838  0.8408
 8039TIP3    H245609   5.231   0.626  15.468  0.3087  2.6316 -1.2951
 8040TIP3   OH245610   5.597   0.978  11.801 -0.5196 -0.4146 -0.3367
 8040TIP3    H145611   5.520   0.951  11.752 -0.7684  1.3037 -0.9338
 8040TIP3    H245612   5.668   0.978  11.737 -0.3808 -0.3352 -0.1831
 8041TIP3   OH245613   4.160   0.598  13.674 -0.0331  0.0565 -0.5858
 8041TIP3    H145614   4.078   0.555  13.649  0.6759 -0.7928 -1.4664
 8041TIP3    H245615   4.204   0.615  13.591  0.2693  1.3547 -0.1663
 8042TIP3   OH245616   2.336   4.769   1.908 -0.2717  0.4856  0.2820
 8042TIP3    H145617   2.333   4.778   1.813  0.3473 -1.1437  0.0798
 8042TIP3    H245618   2.386   4.845   1.938  2.0953 -0.5129 -0.9881
 8043TIP3   OH245619   1.124   1.576  14.453 -0.3611  0.3822  0.2016
 8043TIP3    H145620   1.150   1.512  14.518 -0.3313  2.4467  2.3027
 8043TIP3    H245621   1.207   1.611  14.419 -0.2812  2.4933  2.3773
 8044TIP3   OH245622   2.230   2.219  12.236  0.1602  0.1069 -0.3005
 8044TIP3    H145623   2.280   2.167  12.299 -1.5319 -0.3857  0.6941
 8044TIP3    H245624   2.227   2.164  12.158  1.3756  0.2571 -0.4590
 8045TIP3   OH245625   2.957   4.535  12.936 -0.0895 -0.6606 -0.1768
 8045TIP3    H145626   2.975   4.484  12.857 -0.6329 -0.4937 -0.4125
 8045TIP3    H245627   2.942   4.470  13.004 -3.2983 -0.8895 -1.0290
 8046TIP3   OH245628   3.557   1.172  13.700  0.2861 -0.5013 -0.7404
 8046TIP3    H145629   3.484   1.191  13.759  1.2509  1.1343 -0.0219
 8046TIP3    H245630   3.575   1.079  13.713 -1.6468 -0.9038 -0.9051
 8047TIP3   OH245631   4.750   1.482  13.193  0.3694  0.0752 -0.2909
 8047TIP3    H145632   4.658   1.460  13.206  0.3729  0.6061  0.6980
 8047TIP3    H245633   4.754   1.516  13.104 -0.3448 -0.1984 -0.4344
 8048TIP3   OH245634   6.462   3.923  14.026  0.1623  0.9663 -0.2818
 8048TIP3    H145635   6.397   3.857  14.048  0.9751 -0.0177 -0.7982
 8048TIP3    H245636   6.485   3.905  13.935  1.5032  0.9953  0.0353
 8049TIP3   OH245637   7.032   1.080  15.497  0.2565 -0.4295 -0.0991
 8049TIP3    H145638   7.097   1.149  15.493 -0.8896  0.7386  0.8139
 8049TIP3    H245639   7.064   1.020  15.565  0.8496 -0.3657 -0.3272
 8050TIP3   OH245640   2.803   4.029  12.107  0.4384  0.1223  0.3543
 8050TIP3    H145641   2.819   3.979  12.028  0.4522  2.5110 -1.2059
 8050TIP3    H245642   2.888   4.036  12.149  0.5613 -0.5669  0.2120
 8051TIP3   OH245643   6.206   3.903   0.190  0.1076  0.1796  0.2275
 8051TIP3    H145644   6.223   3.952   0.270 -3.0429 -0.4094  1.3589
 8051TIP3    H245645   6.244   3.955   0.120 -0.0354  2.4274  1.7849
 8052TIP3   OH245646   3.795   1.382  13.818 -0.4086  0.0127 -0.2701
 8052TIP3    H145647   3.780   1.346  13.906 -0.8464 -0.2835 -0.4609
 8052TIP3    H245648   3.857   1.454  13.831 -0.6155  0.0885  0.3067
 8053TIP3   OH245649   0.704   4.921   0.549  0.0775 -0.0584  0.0945
 8053TIP3    H145650   0.642   4.862   0.591  0.9494 -0.6217  0.6124
 8053TIP3    H245651   0.788   4.902   0.592  0.6051  0.6862 -0.5935
 8054TIP3   OH245652   2.656   3.521   1.709 -0.4380 -0.1602  0.3141
 8054TIP3    H145653   2.665   3.456   1.639  1.1525 -0.7570  1.0453
 8054TIP3    H245654   2.603   3.477   1.776 -0.5836 -0.1774  0.1874
 8055TIP3   OH245655   0.346   5.749   1.185  0.7045 -0.2745  0.4791
 8055TIP3    H145656   0.293   5.761   1.263 -1.1830  1.3819 -0.9916
 8055TIP3    H245657   0.337   5.656   1.163 -0.9075 -0.1905  0.7501
 8056TIP3   OH245658   2.221   6.119  10.353 -0.0288 -0.4781  0.2843
 8056TIP3    H145659   2.222   6.062  10.430  0.7865  1.1361  1.5128
 8056TIP3    H245660   2.130   6.118  10.323 -0.4384 -0.7850  1.5123
 8057TIP3   OH245661   1.531   4.541  15.530 -0.1073 -0.0009 -0.1895
 8057TIP3    H145662   1.460   4.542  15.466 -2.2946 -2.6797  2.1148
 8057TIP3    H245663   1.601   4.490  15.488 -1.1627 -0.9278 -0.8274
 8058TIP3   OH245664   3.829   1.769   3.260 -0.5267 -0.0971 -0.0407
 8058TIP3    H145665   3.884   1.845   3.242 -1.6941  1.0059  0.8894
 8058TIP3    H245666   3.740   1.805   3.262 -1.0517 -1.4227  0.8533
 8059TIP3   OH245667   5.836   2.597  11.481  0.1258 -0.0010 -0.1354
 8059TIP3    H145668   5.805   2.648  11.555  0.2669  0.5799 -0.4673
 8059TIP3    H245669   5.928   2.579  11.500 -0.3088 -1.4044  0.6740
 8060TIP3   OH245670   5.997   5.352  12.944 -0.0173  0.1567 -0.4202
 8060TIP3    H145671   5.912   5.368  12.903 -0.3999  1.8087  0.9769
 8060TIP3    H245672   5.980   5.356  13.038  1.6415  0.6815 -0.1193
 8061TIP3   OH245673   4.745   3.355  13.604 -0.0521 -0.4251 -0.7643
 8061TIP3    H145674   4.732   3.300  13.526 -0.0285 -1.4685 -0.0406
 8061TIP3    H245675   4.669   3.337  13.659  0.2780 -0.2118 -0.2384
 8062TIP3   OH245676   0.279   6.325   0.848  0.1537 -0.0983 -0.1725
 8062TIP3    H145677   0.278   6.234   0.817 -0.8631 -0.3652  0.6205
 8062TIP3    H245678   0.237   6.375   0.778 -0.0032 -0.3532 -0.2603
 8063TIP3   OH245679   4.743   1.159  12.229 -0.2507 -1.4033  0.2957
 8063TIP3    H145680   4.697   1.112  12.160  0.6935 -0.9666 -0.6499
 8063TIP3    H245681   4.822   1.107  12.245  0.6771 -0.3039 -0.5908
 8064TIP3   OH245682   6.617   2.281  13.906 -0.1236 -0.4055  0.1548
 8064TIP3    H145683   6.673   2.301  13.831 -0.9764 -1.1329 -0.6734
 8064TIP3    H245684   6.668   2.312  13.981  1.5860 -1.4084 -0.5430
 8065TIP3   OH245685   6.473   1.287   1.140  0.0602  0.0416 -0.1318
 8065TIP3    H145686   6.516   1.201   1.139  0.9208  0.4326  1.4024
 8065TIP3    H245687   6.457   1.304   1.233  0.3536  1.7790 -0.3905
 8066TIP3   OH245688   3.567   1.677   0.482  0.3652  0.1156 -0.0665
 8066TIP3    H145689   3.491   1.728   0.453  0.7218 -0.1261 -1.4728
 8066TIP3    H245690   3.633   1.742   0.504  0.2561  0.3024 -0.2859
 8067TIP3   OH245691   5.433   6.800  11.703 -0.0929 -0.6005  0.4046
 8067TIP3    H145692   5.465   6.857  11.772  0.1478 -0.8548  0.5021
 8067TIP3    H245693   5.476   6.716  11.719  0.9940 -0.3062 -0.8194
 8068TIP3   OH245694   6.381   0.769   0.611 -0.5020 -0.2789 -0.0310
 8068TIP3    H145695   6.311   0.705   0.599 -1.4727  0.9387 -1.0202
 8068TIP3    H245696   6.456   0.717   0.640 -1.1359 -1.9332 -1.2373
 8069TIP3   OH245697   6.484   6.814  13.778  0.0795  0.7603  0.1518
 8069TIP3    H145698   6.563   6.860  13.750 -0.1311 -0.1604 -2.0856
 8069TIP3    H245699   6.450   6.773  13.698 -0.6166 -1.9395  1.7493
 8070TIP3   OH245700   4.405   4.009   1.643  0.2411  0.2836 -0.3201
 8070TIP3    H145701   4.395   4.028   1.737  0.5786  0.5702 -0.3412
 8070TIP3    H245702   4.482   3.953   1.638 -0.3958 -0.5936 -0.3221
 8071TIP3   OH245703   0.964   4.246  10.704 -0.1598  0.4908  0.6334
 8071TIP3    H145704   0.975   4.278  10.794 -2.9012  1.1040  0.7831
 8071TIP3    H245705   0.881   4.284  10.675  0.2390 -0.4605 -1.8490
 8072TIP3   OH245706   1.296   3.408  12.154 -0.0507  0.7281  0.2828
 8072TIP3    H145707   1.237   3.394  12.228 -0.3819  1.8075  0.2390
 8072TIP3    H245708   1.283   3.500  12.130 -1.5123 -0.1422 -2.4895
 8073TIP3   OH245709   3.675   0.338  14.292 -0.2353 -0.2087  0.2101
 8073TIP3    H145710   3.713   0.254  14.319 -0.2113 -0.4902 -0.6964
 8073TIP3    H245711   3.669   0.333  14.197 -0.2224  0.8241  0.1419
 8074TIP3   OH245712   7.001   3.082   0.595  0.3030 -0.2790  0.1318
 8074TIP3    H145713   7.002   3.012   0.661 -2.1367 -0.6051 -0.1157
 8074TIP3    H245714   7.063   3.147   0.628 -0.3617 -0.7509  2.4226
 8075TIP3   OH245715   0.548   0.829  14.947 -0.3767  0.1349  0.2447
 8075TIP3    H145716   0.558   0.795  14.858  0.3615  0.7282  0.0921
 8075TIP3    H245717   0.493   0.907  14.936 -0.1499  0.3007  0.2832
 8076TIP3   OH245718   0.097   3.587  11.509 -0.2946 -0.4775 -0.1761
 8076TIP3    H145719   0.122   3.574  11.417  0.8451 -0.2394  0.0891
 8076TIP3    H245720   0.180   3.599  11.555 -0.7705 -1.8315  1.0958
 8077TIP3   OH245721   2.260   2.030  14.355 -0.0194 -0.1100 -0.1433
 8077TIP3    H145722   2.198   1.973  14.310  1.5760 -1.6858 -0.3987
 8077TIP3    H245723   2.211   2.110  14.373 -2.2255 -1.4690  0.0160
 8078TIP3   OH245724   7.136   1.518  13.028  0.1177  0.2563 -0.5307
 8078TIP3    H145725   7.182   1.531  13.111  3.5940 -0.9212 -2.1768
 8078TIP3    H245726   7.173   1.585  12.970  0.5347 -1.3381 -2.1530
 8079TIP3   OH245727   0.546   4.271  13.396 -0.3762 -0.2730  0.0830
 8079TIP3    H145728   0.518   4.229  13.314  0.5775  0.9553 -0.8945
 8079TIP3    H245729   0.621   4.324  13.371  0.7248 -0.8802  2.0273
 8080TIP3   OH245730   5.177   4.580  13.071 -0.4120 -0.0481 -0.1117
 8080TIP3    H145731   5.101   4.639  13.076 -0.1551  0.1026  2.4194
 8080TIP3    H245732   5.243   4.630  13.024 -0.9234  0.9048  0.1681
 8081TIP3   OH245733   6.146   2.483   0.527 -0.7650  0.2807 -0.4034
 8081TIP3    H145734   6.230   2.477   0.482 -1.0722  0.0308 -0.9481
 8081TIP3    H245735   6.083   2.448   0.465 -1.1864 -0.1465  0.2607
 8082TIP3   OH245736   7.090   3.483  14.902  0.5921 -0.4677 -0.5128
 8082TIP3    H145737   7.172   3.453  14.942 -0.2821 -0.0934  1.5994
 8082TIP3    H245738   7.113   3.567  14.862  1.1478 -0.1530  0.4482
 8083TIP3   OH245739   0.260   3.827  15.463  0.2093 -0.1486 -0.1185
 8083TIP3    H145740   0.338   3.869  15.501 -1.4321  2.7363  0.2576
 8083TIP3    H245741   0.289   3.739  15.439  2.7580 -0.2141  2.8495
 8084TIP3   OH245742   5.791   4.378  12.926  0.3993  0.1865  0.5060
 8084TIP3    H145743   5.795   4.317  12.999 -0.3199 -0.2006  0.2261
 8084TIP3    H245744   5.855   4.446  12.948  1.4471 -0.8336  0.6494
 8085TIP3   OH245745   6.700   0.431  12.787  0.4718 -0.5030  0.0260
 8085TIP3    H145746   6.795   0.444  12.776  0.3283 -0.1535 -0.8434
 8085TIP3    H245747   6.690   0.408  12.879  1.1348  1.9836  0.7706
 8086TIP3   OH245748   6.488   6.467  13.512 -0.3253  0.5236 -0.2651
 8086TIP3    H145749   6.512   6.379  13.543  0.0533  0.0428 -1.9001
 8086TIP3    H245750   6.571   6.506  13.485 -0.8395  0.3039 -2.2510
 8087TIP3   OH245751   1.456   4.037  15.137 -0.9268 -0.4493  0.2226
 8087TIP3    H145752   1.436   4.090  15.060  1.7356  1.6523  0.9105
 8087TIP3    H245753   1.410   3.954  15.122 -1.2779  0.2926 -3.1237
 8088TIP3   OH245754   2.710   2.470  13.263  0.1800  0.4093 -0.0228
 8088TIP3    H145755   2.795   2.490  13.300  1.2270 -0.8903 -1.6427
 8088TIP3    H245756   2.664   2.423  13.332  1.7283 -1.1143 -0.0112
 8089TIP3   OH245757   4.186   2.637   4.669  0.2640 -0.3431 -0.8223
 8089TIP3    H145758   4.245   2.617   4.742  0.4215  1.8206 -0.3107
 8089TIP3    H245759   4.103   2.662   4.710 -0.1211 -0.6066 -1.4338
 8090TIP3   OH245760   5.466   0.394  12.251 -0.6624  0.5150  0.1300
 8090TIP3    H145761   5.524   0.469  12.248 -1.5011  1.2752  2.0671
 8090TIP3    H245762   5.524   0.318  12.241  0.3259  1.3584 -0.5922
 8091TIP3   OH245763   2.807   1.032  14.403 -0.1882 -0.5380  0.0217
 8091TIP3    H145764   2.791   1.122  14.374 -2.9029 -1.3425 -1.1451
 8091TIP3    H245765   2.855   0.992  14.330  1.0192 -0.0704  0.5412
 8092TIP3   OH245766   5.931   5.402  15.099  0.4691  0.6213 -0.5461
 8092TIP3    H145767   5.957   5.397  15.007  2.1242  0.7676 -0.1131
 8092TIP3    H245768   5.983   5.334  15.143  0.7147  1.4532  0.4913
 8093TIP3   OH245769   2.681   1.626  14.671 -0.0496 -0.4407  0.1457
 8093TIP3    H145770   2.657   1.717  14.656  0.9564 -0.0919  0.6307
 8093TIP3    H245771   2.598   1.579  14.669 -0.5369  0.4266 -0.4902
 8094TIP3   OH245772   0.122   6.880  13.548 -0.9388 -0.4240  0.0822
 8094TIP3    H145773   0.065   6.934  13.494  0.8281 -0.5550 -1.9748
 8094TIP3    H245774   0.169   6.942  13.604 -0.6903 -0.0167 -0.5674
 8095TIP3   OH245775   5.386   0.990  14.897  0.0300  0.4716  0.1294
 8095TIP3    H145776   5.330   0.928  14.942  0.9831 -0.6600 -0.2186
 8095TIP3    H245777   5.327   1.060  14.868 -0.8490  0.3874  1.6513
 8096TIP3   OH245778   2.221   0.957  14.394  0.1522 -0.0724 -0.0939
 8096TIP3    H145779   2.232   1.030  14.333 -0.8685  0.6044  0.5289
 8096TIP3    H245780   2.133   0.969  14.430  0.7094 -0.5346  1.4342
 8097TIP3   OH245781   6.941   2.002   1.961 -0.0390  0.2723  0.0551
 8097TIP3    H145782   6.987   2.037   2.037 -0.8919 -0.1107  0.7577
 8097TIP3    H245783   6.881   1.937   1.997  1.3476 -1.7632 -1.2028
 8098TIP3   OH245784   5.811   1.800  14.659 -0.3351 -0.3518  0.4000
 8098TIP3    H145785   5.852   1.716  14.681 -0.5560 -0.3110  0.9694
 8098TIP3    H245786   5.816   1.805  14.563  1.5635 -0.0635  0.4987
 8099TIP3   OH245787   6.128   2.107   0.415 -0.3232  0.6338  0.1041
 8099TIP3    H145788   6.125   2.143   0.326  2.1635  1.0976  0.1493
 8099TIP3    H245789   6.138   2.012   0.402 -1.8904  0.4769 -0.0659
 8100TIP3   OH245790   1.678   0.498   1.520 -0.1710 -0.6720 -0.1231
 8100TIP3    H145791   1.720   0.568   1.470  0.1250 -0.4954  0.3689
 8100TIP3    H245792   1.610   0.543   1.572  0.3861 -0.6629  0.6106
 8101TIP3   OH245793   0.850   6.928   0.848  0.3343 -0.4767  0.1520
 8101TIP3    H145794   0.907   7.002   0.868 -1.4090  0.6659  1.1109
 8101TIP3    H245795   0.883   6.893   0.765  1.8561  0.7012  0.2507
 8102TIP3   OH245796   6.932   0.133  13.012  0.5822  0.4591  0.5267
 8102TIP3    H145797   6.859   0.088  13.054  0.5688  0.9269  1.0108
 8102TIP3    H245798   6.948   0.084  12.932 -1.2122  1.2096 -0.3114
 8103TIP3   OH245799   4.893   5.393   3.340 -0.2592  0.1196  0.4215
 8103TIP3    H145800   4.897   5.474   3.289 -1.4576 -0.8589 -1.2772
 8103TIP3    H245801   4.984   5.374   3.363  0.1465  1.3236 -0.1484
 8104TIP3   OH245802   5.624   1.566   0.534 -0.4278  0.0816 -0.5247
 8104TIP3    H145803   5.654   1.493   0.588  1.0047  0.3956 -0.8907
 8104TIP3    H245804   5.668   1.643   0.572 -2.5770  0.9135  0.4118
 8105TIP3   OH245805   3.916   3.541  15.114  0.1921  0.5911 -0.2095
 8105TIP3    H145806   3.957   3.534  15.028 -0.0881 -0.9127 -0.2259
 8105TIP3    H245807   3.989   3.542  15.176  0.2988 -1.2316 -0.2901
 8106TIP3   OH245808   7.086   1.092  14.837 -0.4024  0.0413 -0.1605
 8106TIP3    H145809   7.011   1.082  14.896  0.8147 -1.1383  1.2340
 8106TIP3    H245810   7.088   1.186  14.817 -1.9337  0.1652  0.1746
 8107TIP3   OH245811   4.916   1.860   1.971 -0.9158 -0.6676 -0.2217
 8107TIP3    H145812   4.871   1.896   1.894  0.0473 -0.8065 -0.8516
 8107TIP3    H245813   4.870   1.900   2.046 -0.2662  1.3963 -0.8852
 8108TIP3   OH245814   2.292   3.113  12.302 -0.5269 -0.3929  0.0460
 8108TIP3    H145815   2.319   3.025  12.278  0.2509 -0.1702  0.1015
 8108TIP3    H245816   2.204   3.123  12.263 -2.1133 -2.4189  2.9480
 8109TIP3   OH245817   0.046   3.379   1.146  0.1411 -0.2934 -0.0023
 8109TIP3    H145818  -0.040   3.363   1.187 -0.0099 -0.4037 -0.3589
 8109TIP3    H245819   0.099   3.304   1.172  0.3599  0.1587  0.8514
 8110TIP3   OH245820   3.118   5.901  13.810  0.0521 -0.9701 -0.3903
 8110TIP3    H145821   3.172   5.854  13.746  0.0612 -0.0259 -1.0978
 8110TIP3    H245822   3.111   5.841  13.884  1.3316 -1.4587 -0.6489
 8111TIP3   OH245823   5.307   4.914  12.510 -0.0420 -0.2084  0.2361
 8111TIP3    H145824   5.296   4.826  12.474  0.0076 -0.2767  0.3829
 8111TIP3    H245825   5.383   4.906  12.569  0.2868  0.0620 -0.1544
 8112TIP3   OH245826   0.179   0.496  12.068 -0.1787  0.0968  0.1722
 8112TIP3    H145827   0.102   0.482  12.013 -0.8791 -0.1534  1.2058
 8112TIP3    H245828   0.191   0.591  12.069 -1.2191  0.2198  1.0249
 8113TIP3   OH245829   6.103   2.970   3.073  0.0077 -0.5522 -0.0676
 8113TIP3    H145830   6.015   2.939   3.093 -0.2446 -1.7603 -2.8966
 8113TIP3    H245831   6.089   3.058   3.036 -0.1372 -1.1759 -1.5380
 8114TIP3   OH245832   0.567   3.876  14.532 -0.1859  1.0631 -0.4299
 8114TIP3    H145833   0.475   3.901  14.524 -0.1671  1.6773  1.1060
 8114TIP3    H245834   0.613   3.934  14.471 -0.9447 -0.0799 -2.1051
 8115TIP3   OH245835   0.351   2.816  11.540  0.1499  0.2660  0.6684
 8115TIP3    H145836   0.394   2.871  11.606  1.7096 -0.2860  0.1102
 8115TIP3    H245837   0.394   2.838  11.458 -1.2309  0.3355 -0.0608
 8116TIP3   OH245838   4.303   7.070  14.660 -1.0923  0.5322  0.2519
 8116TIP3    H145839   4.380   7.035  14.615 -0.5370  2.3893 -0.2807
 8116TIP3    H245840   4.229   7.032  14.612 -0.5723 -2.3200  1.5930
 8117TIP3   OH245841   7.015   6.560  15.588 -0.1948 -0.3698 -0.2227
 8117TIP3    H145842   7.018   6.465  15.574 -1.7809 -0.2247 -1.8906
 8117TIP3    H245843   6.958   6.571  15.664 -0.9932 -0.7325 -0.7511
 8118TIP3   OH245844   6.113   6.864   2.124  0.0857 -0.1677  0.5389
 8118TIP3    H145845   6.096   6.771   2.112 -0.2680  0.0448 -0.6081
 8118TIP3    H245846   6.164   6.890   2.048  0.1808  0.5747  0.8515
 8119TIP3   OH245847   5.090   6.416  12.205 -0.2392  0.6192 -0.5308
 8119TIP3    H145848   5.112   6.497  12.160  2.0124  0.1773 -0.2881
 8119TIP3    H245849   5.108   6.347  12.141  0.8567  0.1324  0.2730
 8120TIP3   OH245850   4.900   2.594   1.120 -0.5479  0.1024  0.2036
 8120TIP3    H145851   4.861   2.636   1.043 -1.7292  0.7203  1.1101
 8120TIP3    H245852   4.825   2.558   1.168  0.2831 -1.3341  0.4597
 8121TIP3   OH245853   6.269   3.446  13.507  0.7161  0.2083  0.0679
 8121TIP3    H145854   6.223   3.372  13.549 -1.0168  1.0362 -0.3235
 8121TIP3    H245855   6.355   3.410  13.484 -0.2607 -1.8339 -0.5512
 8122TIP3   OH245856   4.208   0.504  14.191  0.4307  0.6771 -0.3076
 8122TIP3    H145857   4.237   0.420  14.154  1.3935  2.1046 -2.9857
 8122TIP3    H245858   4.131   0.482  14.243  2.0143 -2.1870  0.9849
 8123TIP3   OH245859   1.313   7.058  10.215  0.3949  0.1176 -0.4564
 8123TIP3    H145860   1.303   7.003  10.138 -1.1802 -0.4941  0.1630
 8123TIP3    H245861   1.375   7.126  10.188 -2.1549  1.4953 -3.1208
 8124TIP3   OH245862   1.000   4.688  15.390  0.1448  0.1472  0.0947
 8124TIP3    H145863   1.050   4.612  15.357 -0.8180 -0.9146  1.0399
 8124TIP3    H245864   0.910   4.670  15.365 -0.2693  0.3910  1.3719
 8125TIP3   OH245865   5.524   1.976  13.190  0.0224 -0.0173 -0.0478
 8125TIP3    H145866   5.595   2.019  13.237 -0.4754 -0.4376  1.1073
 8125TIP3    H245867   5.559   1.890  13.166  0.0545 -0.0491  0.1166
 8126TIP3   OH245868   2.372   2.786  13.082 -0.3048 -0.5975  0.2202
 8126TIP3    H145869   2.383   2.717  13.017 -1.5918 -0.8669  0.2644
 8126TIP3    H245870   2.277   2.799  13.087  0.0021  2.3841 -1.0208
 8127TIP3   OH245871   1.490   2.878   0.074 -0.2423 -0.1165  0.2094
 8127TIP3    H145872   1.434   2.948   0.040  0.3200 -0.0604 -0.6343
 8127TIP3    H245873   1.450   2.852   0.157 -1.5281 -0.0891 -0.3906
 8128TIP3   OH245874   0.032   3.537  11.033  0.5299  0.0778 -0.1412
 8128TIP3    H145875  -0.041   3.587  11.071 -0.8258  0.3068 -2.9198
 8128TIP3    H245876   0.082   3.602  10.983  0.6584 -0.7107 -1.0503
 8129TIP3   OH245877   6.205   6.914  15.428  0.0312 -0.8190 -1.1068
 8129TIP3    H145878   6.157   6.875  15.355  0.6147 -2.3628 -0.6869
 8129TIP3    H245879   6.206   6.846  15.495  1.6868 -0.3550 -0.6254
 8130TIP3   OH245880   2.797   3.361   2.919  0.2583 -0.1615 -0.2833
 8130TIP3    H145881   2.789   3.430   2.984  2.5775 -1.1963  1.1493
 8130TIP3    H245882   2.726   3.300   2.939 -0.1638  0.4373  0.0805
 8131TIP3   OH245883   5.635   1.919   0.499  0.0022  0.1267 -0.8347
 8131TIP3    H145884   5.595   1.922   0.412  1.7529 -0.5721 -1.6754
 8131TIP3    H245885   5.711   1.862   0.489  0.8563  0.9167  0.9036
 8132TIP3   OH245886   5.152   2.854  15.403 -1.2249  0.2500 -0.2228
 8132TIP3    H145887   5.091   2.852  15.477  0.1523  0.6039  0.9469
 8132TIP3    H245888   5.190   2.942  15.405  1.2012 -0.7610  0.6527
 8133TIP3   OH245889   0.798   5.087   0.776 -0.5256  0.1780  0.2698
 8133TIP3    H145890   0.849   5.161   0.744 -0.8214  1.9561  3.6750
 8133TIP3    H245891   0.857   5.040   0.835 -1.1580 -0.8046  0.1386
 8134TIP3   OH245892   1.394   0.816   0.402 -0.3574  0.1025  0.2342
 8134TIP3    H145893   1.324   0.851   0.458  1.3955  0.4456  2.2947
 8134TIP3    H245894   1.437   0.893   0.365 -0.4981 -0.0790 -0.3143
 8135TIP3   OH245895   0.505   3.120   1.343  0.5139  0.0967 -0.2927
 8135TIP3    H145896   0.511   3.214   1.326  1.8599  0.1732  0.4765
 8135TIP3    H245897   0.463   3.113   1.429 -1.2442 -0.0877 -1.1412
 8136TIP3   OH245898   6.072   0.220   0.430  0.2852  0.0017  0.2669
 8136TIP3    H145899   6.106   0.134   0.454 -1.2178 -1.2009 -1.7467
 8136TIP3    H245900   6.121   0.244   0.351 -0.3638  0.2898 -0.0538
 8137TIP3   OH245901   0.791   6.622   0.430  0.4452 -0.2354 -0.6694
 8137TIP3    H145902   0.869   6.569   0.413  0.6954 -0.0222 -0.2034
 8137TIP3    H245903   0.753   6.584   0.509  2.1587  1.9764  1.2674
 8138TIP3   OH245904   5.834   1.998  14.915 -0.2763 -0.2389 -0.5886
 8138TIP3    H145905   5.800   1.912  14.937 -2.7216  0.7184 -0.4493
 8138TIP3    H245906   5.787   2.024  14.836 -1.1518  1.8380  0.5699
 8139TIP3   OH245907   5.059   5.112  13.765 -0.1014 -0.6103  0.4473
 8139TIP3    H145908   5.092   5.177  13.827  0.1726 -1.0151  0.7264
 8139TIP3    H245909   5.135   5.058  13.744 -0.2456 -0.6227 -0.0605
 8140TIP3   OH245910   6.989   2.052   0.004  0.1618 -0.1109  0.1717
 8140TIP3    H145911   6.902   2.072   0.040 -0.8227 -1.7899 -1.2344
 8140TIP3    H245912   7.006   2.125  -0.057 -0.6522 -0.2267 -0.2064
 8141TIP3   OH245913   5.039   6.741  13.562  0.0773 -1.0485 -0.5755
 8141TIP3    H145914   5.134   6.734  13.562  0.0980 -0.9424  0.8566
 8141TIP3    H245915   5.017   6.762  13.653 -1.2571 -0.3886 -1.0388
 8142TIP3   OH245916   6.566   1.776  12.621  0.4375  0.2353  0.0564
 8142TIP3    H145917   6.657   1.755  12.601  0.4519  2.0285 -1.9629
 8142TIP3    H245918   6.519   1.694  12.605  1.4062 -0.1189 -1.0917
 8143TIP3   OH245919   6.872   4.683  10.773 -1.1363  0.5591 -0.0664
 8143TIP3    H145920   6.934   4.755  10.763  0.5567 -0.6919  1.0237
 8143TIP3    H245921   6.789   4.717  10.740  0.2131  2.1757 -1.9101
 8144TIP3   OH245922   2.185   6.341  10.776  0.0572 -0.4531 -0.0116
 8144TIP3    H145923   2.253   6.406  10.761 -0.1408 -0.5156 -1.3023
 8144TIP3    H245924   2.228   6.270  10.824  0.1186  0.8947  1.9770
 8145TIP3   OH245925   6.627   3.232  14.010  0.7787  0.0982  0.2079
 8145TIP3    H145926   6.682   3.155  14.024 -0.9842 -1.0719  0.8739
 8145TIP3    H245927   6.669   3.301  14.062  2.5248 -0.3343 -0.6128
 8146TIP3   OH245928   0.143   5.276  14.816 -0.1035  0.1755  0.2236
 8146TIP3    H145929   0.180   5.311  14.735  0.2886  0.5396  0.5584
 8146TIP3    H245930   0.056   5.315  14.822  0.4188  1.2738  0.7148
 8147TIP3   OH245931   5.015   2.863  12.809 -0.7871 -0.1618  0.2618
 8147TIP3    H145932   5.097   2.856  12.858 -0.8066  2.1331  0.6500
 8147TIP3    H245933   4.950   2.887  12.874 -1.1869  0.9928 -0.5578
 8148TIP3   OH245934   6.850   5.575  12.807  0.9367  0.6807  0.3345
 8148TIP3    H145935   6.779   5.558  12.869  0.3825 -1.9506 -0.9716
 8148TIP3    H245936   6.925   5.598  12.863 -0.1123  0.4865  1.8526
 8149TIP3   OH245937   1.776   2.305  11.681 -0.3592  0.3796  0.5099
 8149TIP3    H145938   1.792   2.382  11.736  1.2816  0.5161 -0.1329
 8149TIP3    H245939   1.798   2.334  11.593  2.9658 -1.5560  0.5990
 8150TIP3   OH245940   5.057   2.700  14.635 -0.2387  0.0956 -0.2278
 8150TIP3    H145941   4.971   2.708  14.593  0.1167  1.2266 -0.7488
 8150TIP3    H245942   5.049   2.622  14.690 -1.5436  0.0888 -0.4023
 8151TIP3   OH245943   5.436   2.225  13.422 -0.7432  0.5198 -0.2480
 8151TIP3    H145944   5.345   2.210  13.449 -0.6520  1.3655  0.5383
 8151TIP3    H245945   5.431   2.233  13.327 -1.4466  0.2501 -0.2382
 8152TIP3   OH245946   2.626   1.865   4.654 -0.5510  0.1728  0.2317
 8152TIP3    H145947   2.646   1.773   4.638 -2.8669 -0.1869 -0.8331
 8152TIP3    H245948   2.596   1.898   4.570 -2.1099  1.2437  1.1846
 8153TIP3   OH245949   6.601   1.212   0.216  0.2702  0.4712 -0.1414
 8153TIP3    H145950   6.696   1.196   0.222  0.0392 -0.7688  0.5132
 8153TIP3    H245951   6.592   1.276   0.146  1.6209  0.8066 -0.0270
 8154TIP3   OH245952   5.028   4.644  15.254  0.7819  0.0125  0.0769
 8154TIP3    H145953   4.943   4.673  15.287 -0.7485 -3.1292 -0.8334
 8154TIP3    H245954   5.015   4.632  15.160  1.9841 -1.2188  0.0402
 8155TIP3   OH245955   0.763   0.923  13.752  1.0344  0.2420 -0.0983
 8155TIP3    H145956   0.825   0.897  13.820  1.5686  1.7596  0.0234
 8155TIP3    H245957   0.738   1.013  13.775 -2.8578 -1.0230  1.0331
 8156TIP3   OH245958   2.682   4.881  14.925 -0.5829  0.3554  0.5717
 8156TIP3    H145959   2.739   4.830  14.983  0.6767 -0.3697 -1.2523
 8156TIP3    H245960   2.728   4.965  14.914  0.5004 -0.4536 -1.3885
 8157TIP3   OH245961   0.930   2.853  12.106 -0.2609  0.1672  0.6611
 8157TIP3    H145962   0.954   2.946  12.104  0.5461 -0.0470 -0.2261
 8157TIP3    H245963   0.836   2.852  12.087 -0.1964  0.7768  0.2943
 8158TIP3   OH245964   0.988   6.824  15.106 -0.1478 -0.3059  0.0644
 8158TIP3    H145965   1.051   6.846  15.175 -0.8147 -1.7086  1.1560
 8158TIP3    H245966   1.026   6.858  15.026  1.9469 -1.0359  0.7228
 8159TIP3   OH245967   6.898   5.983  13.521  0.3841  0.7166 -0.5738
 8159TIP3    H145968   6.831   5.950  13.581  2.0993 -0.1765  0.8631
 8159TIP3    H245969   6.879   6.077  13.514 -1.5887  0.3233 -0.9400
 8160TIP3   OH245970   0.362   1.780   1.386  0.1816  0.1385  0.4359
 8160TIP3    H145971   0.354   1.802   1.479 -1.1433  2.2709 -0.1384
 8160TIP3    H245972   0.351   1.864   1.341 -0.6885 -1.0851 -1.7014
 8161TIP3   OH245973   1.185   5.183  13.310 -0.1338 -0.0277  0.3816
 8161TIP3    H145974   1.205   5.151  13.222 -1.0579 -0.9818  0.4964
 8161TIP3    H245975   1.259   5.155  13.363  0.0546 -0.1394  0.0628
 8162TIP3   OH245976   1.766   3.090  12.956 -0.6204  0.1513  0.3016
 8162TIP3    H145977   1.745   3.121  12.868  0.0678 -1.0885 -0.3064
 8162TIP3    H245978   1.862   3.088  12.958 -0.6445 -1.4786  0.4880
 8163TIP3   OH245979   0.855   3.631  12.534 -0.0651  0.1551 -0.0191
 8163TIP3    H145980   0.851   3.625  12.438  0.2949 -0.3369 -0.0053
 8163TIP3    H245981   0.766   3.611  12.563 -0.9274  3.2536 -0.3859
 8164TIP3   OH245982   4.639   4.904   3.677  0.0696  0.3290 -0.1424
 8164TIP3    H145983   4.656   4.838   3.744 -1.4936  0.7776  0.7206
 8164TIP3    H245984   4.678   4.985   3.712 -0.8467  0.5899  0.3057
 8165TIP3   OH245985   2.148   2.403  14.520 -0.2484 -0.3454 -0.0267
 8165TIP3    H145986   2.126   2.338  14.453  0.4417 -1.0924  0.4618
 8165TIP3    H245987   2.080   2.393  14.586 -0.3554 -0.3113 -0.1304
 8166TIP3   OH245988   0.835   4.887  14.676  0.0676 -0.6462  0.3705
 8166TIP3    H145989   0.841   4.949  14.749  2.0503 -1.6161  1.0431
 8166TIP3    H245990   0.921   4.847  14.670 -0.4300 -1.4945 -1.7277
 8167TIP3   OH245991   1.936   4.446  12.446 -0.4204 -0.3283  0.5572
 8167TIP3    H145992   1.940   4.351  12.455 -1.3308 -0.3192  1.2350
 8167TIP3    H245993   2.026   4.474  12.433 -0.3228 -1.4242 -1.1404
 8168TIP3   OH245994   3.611   7.152  14.268 -0.0808  0.5732  0.0693
 8168TIP3    H145995   3.564   7.194  14.197  1.9719  0.0574 -1.6294
 8168TIP3    H245996   3.695   7.126  14.230 -0.4047 -3.0558  1.6728
 8169TIP3   OH245997   4.847   3.423   2.295 -0.2607  0.5581 -0.2877
 8169TIP3    H145998   4.910   3.470   2.350  0.0159  2.4100 -2.1189
 8169TIP3    H245999   4.762   3.442   2.333  0.0683  0.1845  0.6563
 8170TIP3   OH246000   5.585   1.422  14.174 -0.4224  0.2220 -0.1359
 8170TIP3    H146001   5.669   1.430  14.220 -0.8282 -1.3791  0.9300
 8170TIP3    H246002   5.546   1.509  14.179  0.1964  0.4303  1.3200
 8171TIP3   OH246003   2.310   4.918  14.770 -0.1437 -0.3786  0.2049
 8171TIP3    H146004   2.403   4.920  14.748 -0.1424  1.7703  0.2764
 8171TIP3    H246005   2.306   4.947  14.861 -0.7441 -2.3459  0.8356
 8172TIP3   OH246006   2.849   0.123  14.026  0.5992  0.5112  0.1220
 8172TIP3    H146007   2.813   0.035  14.016  1.3808  0.2628 -0.4995
 8172TIP3    H246008   2.819   0.151  14.113  2.2403 -1.2635  1.3044
 8173TIP3   OH246009   4.440   6.848   0.913  0.3946  0.3163  0.0355
 8173TIP3    H146010   4.367   6.812   0.962  0.2707  3.2983  2.2052
 8173TIP3    H246011   4.403   6.870   0.827 -1.1914  1.3843  0.9669
 8174TIP3   OH246012   0.067   0.548  15.104 -0.3966  0.7775 -0.5586
 8174TIP3    H146013   0.142   0.490  15.117 -1.7270 -1.2542 -1.6114
 8174TIP3    H246014   0.015   0.537  15.184 -1.1180 -0.2312 -1.1547
 8175TIP3   OH246015   0.704   0.974  10.390 -0.5922 -0.5352  0.5504
 8175TIP3    H146016   0.692   1.014  10.476  1.2585 -1.4470  1.2576
 8175TIP3    H246017   0.767   0.903  10.405  1.2234  0.4915 -1.8882
 8176TIP3   OH246018   1.028   5.463  14.007 -0.0018 -0.0639 -0.1970
 8176TIP3    H146019   1.098   5.528  14.004 -0.1847  0.0844 -3.1419
 8176TIP3    H246020   0.954   5.505  13.963 -1.5523 -0.6790  1.7718
 8177TIP3   OH246021   3.575   5.628  12.146  0.1253  0.0041  0.3785
 8177TIP3    H146022   3.481   5.649  12.149  0.2409  0.4194  1.5055
 8177TIP3    H246023   3.593   5.591  12.232  1.5168  2.2175  1.0714
 8178TIP3   OH246024   3.186   4.687  14.186  0.4537 -0.5599 -0.2661
 8178TIP3    H146025   3.201   4.631  14.109  0.8500 -3.5143  1.8776
 8178TIP3    H246026   3.274   4.714  14.213  0.3864 -0.3362 -0.2689
 8179TIP3   OH246027   1.563   0.810  13.463 -0.3233  0.1586  0.3242
 8179TIP3    H146028   1.475   0.845  13.479 -0.5104 -0.0182 -0.2945
 8179TIP3    H246029   1.612   0.884  13.426 -0.4943 -0.0151 -0.2514
 8180TIP3   OH246030   3.315   2.607  13.876 -0.1915 -0.1250  0.2538
 8180TIP3    H146031   3.346   2.602  13.967 -0.8053  1.9765  0.5857
 8180TIP3    H246032   3.252   2.678  13.875 -0.7618 -0.6165 -1.6822
 8181TIP3   OH246033   4.202   3.883   0.130 -0.2102  0.5180  0.2356
 8181TIP3    H146034   4.147   3.917   0.200 -1.1234  0.7695 -0.5926
 8181TIP3    H246035   4.270   3.950   0.119  0.8798 -0.2641  1.9373
 8182TIP3   OH246036   6.478   4.170  12.151 -0.2737 -0.1098 -0.4475
 8182TIP3    H146037   6.387   4.140  12.163  0.1235 -0.4743  1.8189
 8182TIP3    H246038   6.530   4.090  12.160  0.3940  0.3822  0.0279
 8183TIP3   OH246039   2.235   4.873  14.298 -0.0792  0.0966  0.0491
 8183TIP3    H146040   2.290   4.950  14.311 -1.2080  1.0796 -0.9246
 8183TIP3    H246041   2.232   4.861  14.203 -0.3472 -0.8318  0.1693
 8184TIP3   OH246042   3.476   6.674  12.705 -0.4098  0.1008 -0.2078
 8184TIP3    H146043   3.496   6.767  12.696 -0.6044  0.0272 -1.5543
 8184TIP3    H246044   3.405   6.658  12.642 -0.7401 -0.8491  0.3814
 8185TIP3   OH246045   6.483   6.828   0.342  0.1822  0.0623  0.1374
 8185TIP3    H146046   6.476   6.789   0.429  1.1780  1.2354  0.7627
 8185TIP3    H246047   6.394   6.826   0.307 -0.9122  2.6165  2.5521
 8186TIP3   OH246048   2.315   3.019  10.894 -0.3513 -0.1548 -0.0172
 8186TIP3    H146049   2.297   3.104  10.855  0.2298  0.0035  0.0580
 8186TIP3    H246050   2.359   2.970  10.824 -0.2015 -0.2119  0.1187
 8187TIP3   OH246051   6.150   3.583  15.186  0.0108  0.1739 -0.4169
 8187TIP3    H146052   6.067   3.586  15.232  0.0865  0.6693 -0.3063
 8187TIP3    H246053   6.128   3.554  15.098 -0.1558 -0.6160 -0.1189
 8188TIP3   OH246054   3.994   0.573  13.208 -0.2519  0.0137  0.5352
 8188TIP3    H146055   4.073   0.623  13.194 -0.3725  0.7277  2.2395
 8188TIP3    H246056   3.991   0.510  13.136  1.7574  0.1082  0.3570
 8189TIP3   OH246057   1.698   2.125   2.259 -0.0943  0.8025 -0.6234
 8189TIP3    H146058   1.686   2.066   2.185  0.2685 -0.6118  0.4144
 8189TIP3    H246059   1.642   2.088   2.328  1.7652  0.4101  0.7247
 8190TIP3   OH246060   2.772   0.636  15.218 -0.5669 -0.3863  0.1389
 8190TIP3    H146061   2.823   0.640  15.137  0.4200 -0.4490  0.7427
 8190TIP3    H246062   2.694   0.688  15.201  0.0152  0.2476 -0.5919
 8191TIP3   OH246063   3.010   4.285  13.090  0.1566  0.3336 -0.4096
 8191TIP3    H146064   2.991   4.201  13.047  0.6722  0.2785 -0.5408
 8191TIP3    H246065   2.963   4.281  13.173 -2.9886  1.5203 -2.0888
 8192TIP3   OH246066   5.567   6.381  13.012  0.5133  0.0597  0.0829
 8192TIP3    H146067   5.554   6.435  12.934  1.0012  2.4719  1.6222
 8192TIP3    H246068   5.509   6.419  13.078 -0.2119 -2.2180  0.7878
 8193TIP3   OH246069   2.765   6.420  11.605  0.3656 -0.4184  0.7607
 8193TIP3    H146070   2.815   6.501  11.612  1.0290 -0.4976 -2.4366
 8193TIP3    H246071   2.692   6.432  11.667 -0.1031  3.0390 -0.3290
 8194TIP3   OH246072   2.258   5.686  15.218 -0.2784  0.2551  0.6884
 8194TIP3    H146073   2.346   5.651  15.230 -0.7178 -0.1632  3.0912
 8194TIP3    H246074   2.217   5.678  15.305 -2.6708  0.4378 -0.3666
 8195TIP3   OH246075   4.778   6.134  14.706  0.0448  0.7321 -0.1136
 8195TIP3    H146076   4.851   6.084  14.743  0.6538  0.1490 -2.0875
 8195TIP3    H246077   4.748   6.083  14.632 -3.2986  0.2666  1.4419
 8196TIP3   OH246078   6.069   5.145  13.593  0.1464  0.2549  0.3344
 8196TIP3    H146079   6.053   5.197  13.672 -0.7573 -0.3140  0.5378
 8196TIP3    H246080   5.985   5.146  13.546 -0.2890 -2.1362  1.0133
 8197TIP3   OH246081   1.991   4.529  13.549  0.3818 -0.2303  0.5605
 8197TIP3    H146082   1.910   4.482  13.530  0.5919  0.0778 -1.1888
 8197TIP3    H246083   2.060   4.472  13.515  0.8117  0.0955  0.8804
 8198TIP3   OH246084   2.954   5.481  13.375 -0.0393  0.2120  0.2172
 8198TIP3    H146085   2.949   5.563  13.326 -0.2806  0.3765  0.5135
 8198TIP3    H246086   3.046   5.471  13.397 -0.0698  0.6035  0.5233
 8199TIP3   OH246087   0.095   3.277   1.750 -0.5400  0.1024  0.0688
 8199TIP3    H146088   0.006   3.281   1.784 -0.7009 -1.8077 -0.0311
 8199TIP3    H246089   0.148   3.248   1.824  0.0140  1.2966  0.1481
 8200TIP3   OH246090   1.693   4.498  13.869  0.6324 -0.6857  0.0657
 8200TIP3    H146091   1.705   4.500  13.964 -0.4055  0.1279  0.1877
 8200TIP3    H246092   1.703   4.589  13.841 -0.3665 -0.7162 -0.4280
 8201TIP3   OH246093   7.122   0.107  13.658  0.2870  0.0109  0.0756
 8201TIP3    H146094   7.120   0.043  13.587 -0.1827  1.1992 -1.0057
 8201TIP3    H246095   7.137   0.055  13.737  1.6780 -1.2379 -0.9913
 8202TIP3   OH246096   4.966   5.909  10.602  0.3918  0.0423  0.4058
 8202TIP3    H146097   4.908   5.868  10.538  0.4215 -0.1627  0.5114
 8202TIP3    H246098   4.919   5.901  10.685  0.7804 -0.5430  0.5698
 8203TIP3   OH246099   7.015   2.463  14.392 -0.0372  0.1297  0.5375
 8203TIP3    H146100   6.929   2.423  14.387  0.1112 -0.3013  1.3160
 8203TIP3    H246101   7.017   2.526  14.320 -0.0113 -1.7657 -1.1434
 8204TIP3   OH246102   5.530   6.792  13.154 -1.0281 -0.2159 -0.4981
 8204TIP3    H146103   5.572   6.878  13.159 -0.7949 -0.3399 -0.3182
 8204TIP3    H246104   5.449   6.808  13.105 -3.0513  0.8852  3.0446
 8205TIP3   OH246105   1.996   6.818  13.825  0.3582  0.1924  0.1823
 8205TIP3    H146106   2.084   6.796  13.856  0.2901  0.4074  0.5315
 8205TIP3    H246107   1.939   6.802  13.901  0.1654  0.5348  0.1118
 8206TIP3   OH246108   1.423   6.406  12.049 -0.4091 -0.3024  0.6394
 8206TIP3    H146109   1.366   6.403  11.971  1.0184  0.4177 -0.4406
 8206TIP3    H246110   1.501   6.453  12.020 -0.0281  0.3253  2.6340
 8207TIP3   OH246111   6.188   3.339  10.606 -0.7708  0.3878  0.2957
 8207TIP3    H146112   6.224   3.299  10.527 -1.5119 -1.6077  0.9328
 8207TIP3    H246113   6.264   3.374  10.652 -0.3658  1.8575 -1.4332
 8208TIP3   OH246114   0.010   6.722  14.034  0.2492  0.3295  0.3985
 8208TIP3    H146115   0.064   6.782  14.086  0.1194  0.1946  0.6903
 8208TIP3    H246116  -0.079   6.735  14.068 -0.1837  1.8039 -1.2305
 8209TIP3   OH246117   5.811   6.946  12.940  0.1387  0.5948 -0.0103
 8209TIP3    H146118   5.841   6.883  13.006 -1.4615 -0.5822 -0.3738
 8209TIP3    H246119   5.835   7.032  12.976  0.0113 -0.0786  1.7326
 8210TIP3   OH246120   1.013   2.649  11.950  0.4769 -0.0562 -0.2228
 8210TIP3    H146121   1.004   2.570  12.003 -0.7358  0.8617  0.9562
 8210TIP3    H246122   0.982   2.720  12.006 -0.0356  1.0486 -1.8572
 8211TIP3   OH246123   1.861   5.835  11.671  0.0149 -0.1292 -0.1684
 8211TIP3    H146124   1.812   5.906  11.712 -0.5962 -1.6571  1.8172
 8211TIP3    H246125   1.835   5.838  11.579 -2.3030  0.3059  0.4831
 8212TIP3   OH246126   1.977   0.923  14.479 -0.1003  0.1197 -0.1218
 8212TIP3    H146127   1.936   0.846  14.518 -0.9790  0.1159 -1.0266
 8212TIP3    H246128   1.995   0.982  14.552  0.7190 -1.0084  0.5886
 8213TIP3   OH246129   0.575   5.604  13.067  0.1383  0.4562 -0.1147
 8213TIP3    H146130   0.504   5.586  13.006 -0.1417  2.8958 -0.5929
 8213TIP3    H246131   0.544   5.572  13.151 -1.0347  0.4495 -0.5389
 8214TIP3   OH246132   1.286   3.034  15.272  0.0058 -0.0050 -0.5064
 8214TIP3    H146133   1.380   3.048  15.265  0.0053  2.0405  2.6422
 8214TIP3    H246134   1.276   2.939  15.273  2.3159 -0.2701  1.6759
 8215TIP3   OH246135   2.061   3.520  15.010 -0.5125 -0.6905  0.5823
 8215TIP3    H146136   2.095   3.550  15.094 -1.9006  0.5220  0.7263
 8215TIP3    H246137   1.975   3.560  15.003  0.4891  1.1417 -2.4511
 8216TIP3   OH246138   2.537   4.308  13.213  0.2721 -0.2117  0.3483
 8216TIP3    H146139   2.549   4.334  13.121  0.1197 -0.4812  0.2510
 8216TIP3    H246140   2.525   4.213  13.209 -0.6739 -0.1105  0.5560
 8217TIP3   OH246141   6.782   5.487  12.283  0.3742  0.2349  0.2888
 8217TIP3    H146142   6.689   5.470  12.269  0.6628 -1.7712  0.7553
 8217TIP3    H246143   6.825   5.403  12.269  2.0665  1.0037  0.6739
 8218TIP3   OH246144   0.720   2.656  14.406 -0.3039 -0.0020 -0.0238
 8218TIP3    H146145   0.653   2.661  14.474  0.3522  0.2267  0.6043
 8218TIP3    H246146   0.801   2.682  14.449  0.0412  0.5662 -1.0020
 8219TIP3   OH246147   2.954   0.387  14.817 -0.1303 -0.6184 -0.0822
 8219TIP3    H146148   2.955   0.478  14.847  0.0570 -0.7275  0.2397
 8219TIP3    H246149   2.972   0.336  14.895 -2.9054 -1.0822  0.3126
 8220TIP3   OH246150   3.379   1.047  12.869 -0.5117 -0.1281  0.0543
 8220TIP3    H146151   3.289   1.051  12.899 -0.0283 -1.2365  1.6779
 8220TIP3    H246152   3.425   1.112  12.922 -0.2844  0.2073 -0.5486
 8221TIP3   OH246153   1.396   4.748  12.273  0.1969  0.3683 -0.6660
 8221TIP3    H146154   1.382   4.797  12.354 -1.1593  1.0766 -1.2988
 8221TIP3    H246155   1.488   4.724  12.274  0.5804  1.8220  0.2878
 8222TIP3   OH246156   4.066   4.023  11.405  0.2767 -0.2399  0.3132
 8222TIP3    H146157   4.008   4.006  11.479 -1.1725  0.1362 -0.6896
 8222TIP3    H246158   4.148   4.052  11.444 -0.5698  0.2636  1.7601
 8223TIP3   OH246159   4.082   3.389   0.371  0.0460  0.1862  0.1811
 8223TIP3    H146160   4.089   3.482   0.349 -1.3436  0.3986  0.6115
 8223TIP3    H246161   4.150   3.375   0.438 -0.2197  1.0490  0.6364
 8224TIP3   OH246162   1.426   5.565  15.277  0.1099 -0.3164 -0.2029
 8224TIP3    H146163   1.359   5.559  15.345  2.0908 -1.1536  1.7255
 8224TIP3    H246164   1.468   5.649  15.292 -1.2013  0.7291 -2.1245
 8225TIP3   OH246165   1.705   0.072  11.269 -0.0699 -0.2338 -0.1703
 8225TIP3    H146166   1.762   0.054  11.194 -0.8987 -0.8666 -0.6589
 8225TIP3    H246167   1.765   0.093  11.341  0.7805 -1.2480 -0.5867
 8226TIP3   OH246168   1.157   4.350  14.487  0.2213  0.0257  0.4992
 8226TIP3    H146169   1.160   4.387  14.399  2.1919  1.6643  1.2088
 8226TIP3    H246170   1.099   4.407  14.536  1.0840  0.5957  0.8784
 8227TIP3   OH246171   2.790   4.231  13.712 -0.3140  0.2536 -0.2299
 8227TIP3    H146172   2.706   4.204  13.751 -0.0723  3.2016  2.4931
 8227TIP3    H246173   2.766   4.291  13.642 -0.5502 -0.5193 -0.8132
 8228TIP3   OH246174   5.721   3.970  15.478  0.0845 -0.0157 -0.1002
 8228TIP3    H146175   5.726   3.996  15.386 -0.9379 -0.6436 -0.3485
 8228TIP3    H246176   5.642   4.013  15.510  0.1929 -0.1633  0.3632
 8229TIP3   OH246177   3.005   1.446  12.055 -0.5336 -0.0021  0.0233
 8229TIP3    H146178   3.028   1.368  12.106 -0.9757  0.1397  0.4410
 8229TIP3    H246179   2.983   1.412  11.969  2.3586 -0.0362 -0.7518
 8230TIP3   OH246180   6.548   0.499   2.998 -0.3716  0.2126  0.1485
 8230TIP3    H146181   6.502   0.416   3.011 -0.3538  0.0855 -0.5509
 8230TIP3    H246182   6.619   0.497   3.061 -0.7102 -0.0526  0.5257
 8231TIP3   OH246183   5.934   3.227   3.099 -0.3320 -0.1260  0.7701
 8231TIP3    H146184   5.886   3.196   3.023 -0.0158 -1.0843  0.9591
 8231TIP3    H246185   5.867   3.239   3.166 -0.5085  0.0122  0.5704
 8232TIP3   OH246186   0.482   6.837  12.007  0.1826 -0.8901 -0.2626
 8232TIP3    H146187   0.449   6.823  12.095  0.8874 -0.9612 -0.0018
 8232TIP3    H246188   0.466   6.929  11.989 -0.0714 -0.9044 -0.1038
 8233TIP3   OH246189   2.014   4.434  15.350  0.0275  0.8290 -0.1033
 8233TIP3    H146190   2.025   4.371  15.421  0.2891  0.6435 -0.3078
 8233TIP3    H246191   2.056   4.392  15.275  0.0836  1.1879 -0.2706
 8234TIP3   OH246192   3.875   4.676  13.246 -0.2789 -0.0584 -0.5360
 8234TIP3    H146193   3.968   4.665  13.226  0.3409  2.1396  0.9336
 8234TIP3    H246194   3.843   4.737  13.180 -0.6397 -0.6328 -0.8999
 8235TIP3   OH246195   5.616   1.585   1.314  0.0874  0.0320  0.4076
 8235TIP3    H146196   5.663   1.662   1.346  0.1302 -0.2947  1.1350
 8235TIP3    H246197   5.670   1.552   1.243  0.5561  0.1115  0.7295
 8236TIP3   OH246198   7.120   5.850  12.699 -0.5675 -0.5206 -0.0483
 8236TIP3    H146199   7.215   5.842  12.703 -0.5121  0.5014  0.8261
 8236TIP3    H246200   7.103   5.902  12.620 -0.3030  0.6791  0.6701
 8237TIP3   OH246201   0.335   3.879  13.041  0.2880  0.2738  0.1361
 8237TIP3    H146202   0.294   3.962  13.060 -2.4351 -1.1224  0.5740
 8237TIP3    H246203   0.428   3.899  13.032 -0.0005  2.9478  2.5992
 8238TIP3   OH246204   6.159   4.840  13.620 -0.2864  0.4453  0.2734
 8238TIP3    H146205   6.125   4.825  13.532 -0.3895 -0.2055  0.4241
 8238TIP3    H246206   6.150   4.755  13.664  0.0348  0.6933  0.8180
 8239TIP3   OH246207   0.296   1.874  14.420 -0.1262 -0.8562  0.6315
 8239TIP3    H146208   0.319   1.967  14.423  0.3536 -0.9608  0.1914
 8239TIP3    H246209   0.243   1.860  14.498 -0.2849 -0.1858  0.6449
 8240TIP3   OH246210   4.291   4.825  12.265  0.2654 -0.1824  0.0839
 8240TIP3    H146211   4.371   4.872  12.241  1.2437 -0.2805  2.9071
 8240TIP3    H246212   4.311   4.733  12.249 -0.5415  0.0721 -2.4975
 8241TIP3   OH246213   4.071   4.032  10.444  0.4921 -0.1942  0.5208
 8241TIP3    H146214   4.087   4.096  10.375  0.1196 -0.4528  0.1907
 8241TIP3    H246215   4.001   4.072  10.497  0.8450  0.0475  0.8113
 8242TIP3   OH246216   1.472   2.731   0.329 -0.2597  0.4699 -0.2762
 8242TIP3    H146217   1.486   2.815   0.371  3.0473  1.2042 -2.6108
 8242TIP3    H246218   1.540   2.674   0.366 -0.8984 -0.4499 -0.5051
 8243TIP3   OH246219   1.928   1.446  15.535 -0.3241 -0.6798 -0.2773
 8243TIP3    H146220   1.951   1.457  15.628  1.0413  1.2500 -0.8092
 8243TIP3    H246221   1.861   1.513  15.519 -0.0002 -0.4910 -0.8662
 8244TIP3   OH246222   2.189   1.045  12.898 -0.4093 -0.3437 -0.1264
 8244TIP3    H146223   2.253   1.112  12.922 -0.0945  0.1879 -2.3506
 8244TIP3    H246224   2.234   0.962  12.914 -0.4012 -0.0334  1.5603
 8245TIP3   OH246225   1.156   0.763   0.075  0.3196 -0.2582 -0.7533
 8245TIP3    H146226   1.163   0.814   0.155  0.2836 -0.4193 -0.6472
 8245TIP3    H246227   1.245   0.761   0.040  0.0429  1.2135 -1.5920
 8246TIP3   OH246228   0.976   6.205  13.665 -0.0101 -0.2106 -0.7120
 8246TIP3    H146229   0.904   6.151  13.698  0.5343  0.1777  1.2221
 8246TIP3    H246230   1.054   6.166  13.704  0.4068  1.8118  0.5669
 8247TIP3   OH246231   3.663   4.643  15.431 -0.0257  0.2204  0.8677
 8247TIP3    H146232   3.736   4.639  15.369  1.3510 -0.5634  2.4953
 8247TIP3    H246233   3.635   4.734  15.430 -1.7396 -0.2717 -2.8059
 8248TIP3   OH246234   5.512   6.969  12.659  0.6862 -0.3641 -0.2386
 8248TIP3    H146235   5.521   7.018  12.578 -0.7347  0.0122 -0.1876
 8248TIP3    H246236   5.522   7.035  12.728  0.4088 -0.4220 -0.1420
 8249TIP3   OH246237   1.493   5.528   1.300 -0.0635  0.3224  0.0961
 8249TIP3    H146238   1.510   5.570   1.215  0.7383  1.0766  0.6207
 8249TIP3    H246239   1.539   5.444   1.294  1.5012  1.1289  0.4320
 8250TIP3   OH246240   0.371   3.119  14.058  0.7711  0.5072 -0.7676
 8250TIP3    H146241   0.424   3.196  14.078  1.1714  0.6578 -2.3311
 8250TIP3    H246242   0.349   3.129  13.965  0.6990 -1.1885 -0.9449
 8251TIP3   OH246243   6.849   4.963  11.534  0.0101  0.3540  0.3169
 8251TIP3    H146244   6.861   5.054  11.505  0.8858  0.6488  1.5725
 8251TIP3    H246245   6.784   4.927  11.473  0.7480  1.3806 -1.1127
 8252TIP3   OH246246   6.191   1.243   2.898  0.3837 -0.5762  0.6896
 8252TIP3    H146247   6.218   1.303   2.967  0.7175  0.4965 -0.3636
 8252TIP3    H246248   6.118   1.287   2.855  2.3422  0.3304 -1.8204
 8253TIP3   OH246249   1.793   3.747  10.320 -0.1967 -0.3793  0.2197
 8253TIP3    H146250   1.849   3.670  10.331  1.0930  0.5478  0.2359
 8253TIP3    H246251   1.725   3.719  10.259  0.3601 -1.4817  0.0934
 8254TIP3   OH246252   1.070   1.629  12.707  0.2396 -0.3041 -0.1025
 8254TIP3    H146253   1.034   1.564  12.767 -0.9387  1.3522  1.0556
 8254TIP3    H246254   1.010   1.631  12.633  1.2299 -1.7425 -0.9702
 8255TIP3   OH246255   3.130   5.572  10.870 -0.5069 -0.2246  0.1313
 8255TIP3    H146256   3.110   5.620  10.951 -0.2796 -0.7853  0.5272
 8255TIP3    H246257   3.199   5.624  10.829 -1.1883  0.4929 -0.1054
 8256TIP3   OH246258   2.725   6.120  13.507 -0.3322  0.3684  0.1994
 8256TIP3    H146259   2.781   6.047  13.532 -2.1895 -0.6745  1.5181
 8256TIP3    H246260   2.694   6.099  13.419  1.2783  0.9359 -0.5198
 8257TIP3   OH246261   0.353   1.842   1.063 -0.1510 -0.3298 -0.0345
 8257TIP3    H146262   0.334   1.766   1.118  2.3316 -1.8415 -1.1636
 8257TIP3    H246263   0.290   1.836   0.991 -1.4453 -0.0126  1.0499
 8258TIP3   OH246264   5.497   4.510   1.101 -0.1264  0.4906 -0.3544
 8258TIP3    H146265   5.427   4.459   1.061 -0.4449  0.1458  0.6411
 8258TIP3    H246266   5.464   4.600   1.099 -0.5064  0.3597 -0.0860
 8259TIP3   OH246267   7.039   0.305  15.371 -0.0197  0.3475 -0.4824
 8259TIP3    H146268   7.006   0.228  15.418  1.5372 -0.0740 -0.0241
 8259TIP3    H246269   7.026   0.283  15.279 -1.3242  0.3537 -0.3130
 8260TIP3   OH246270   6.684   2.719   0.329 -0.0519  0.0237 -0.3702
 8260TIP3    H146271   6.720   2.808   0.335 -1.1428  0.3465  1.9912
 8260TIP3    H246272   6.717   2.674   0.407 -0.1168 -1.4369 -1.1627
 8261TIP3   OH246273   0.570   6.168  11.550  0.5546 -0.4387  0.9304
 8261TIP3    H146274   0.506   6.231  11.581 -0.5132 -0.1037 -1.8514
 8261TIP3    H246275   0.533   6.083  11.573 -1.1356 -0.2622 -1.0688
 8262TIP3   OH246276   6.905   1.147  12.078 -0.2854 -0.7246  0.0017
 8262TIP3    H146277   6.834   1.210  12.074  0.7170  0.3812 -0.4262
 8262TIP3    H246278   6.984   1.200  12.080  0.5457 -1.9553  0.0898
 8263TIP3   OH246279   6.279   1.510  13.888  0.4935  0.2983 -0.1291
 8263TIP3    H146280   6.269   1.539  13.797 -0.4350 -1.9700 -0.7955
 8263TIP3    H246281   6.242   1.581  13.940 -0.7826  0.7754 -1.6487
 8264TIP3   OH246282   2.002   1.698   2.962  0.0405  0.4254  0.0387
 8264TIP3    H146283   1.931   1.650   3.003  0.3487  0.8850  1.1237
 8264TIP3    H246284   2.079   1.641   2.973 -0.1599 -0.1105 -1.2062
 8265TIP3   OH246285   2.127   5.299  15.478 -0.4092 -0.1905 -0.0679
 8265TIP3    H146286   2.118   5.244  15.556 -2.5142  1.2388  0.7362
 8265TIP3    H246287   2.038   5.323  15.455  0.3783  1.6260 -1.3187
 8266TIP3   OH246288   1.026   5.261  11.960  0.2788 -0.0518 -0.0816
 8266TIP3    H146289   0.984   5.205  12.025 -0.1762  0.0411 -0.3017
 8266TIP3    H246290   1.016   5.350  11.994  0.0490 -0.0040 -0.2758
 8267TIP3   OH246291   1.080   4.284  14.016  0.2181  0.3599  0.4000
 8267TIP3    H146292   1.113   4.322  14.098  2.0069 -1.2749  0.4765
 8267TIP3    H246293   0.998   4.242  14.040 -1.0072  2.7914  0.6285
 8268TIP3   OH246294   0.297   2.646  12.929 -0.4002 -0.3495  0.1339
 8268TIP3    H146295   0.384   2.627  12.962 -0.1106 -1.0772 -1.0189
 8268TIP3    H246296   0.253   2.560  12.927 -1.3787  0.1048  1.3709
 8269TIP3   OH246297   6.445   7.077  12.175  0.4411 -0.1996 -0.6142
 8269TIP3    H146298   6.474   7.123  12.096 -1.7802  0.9685 -0.7889
 8269TIP3    H246299   6.349   7.078  12.170  0.2857 -1.0463  1.5527
 8270TIP3   OH246300   0.732   4.962  12.281  0.1472 -0.4407 -0.5902
 8270TIP3    H146301   0.777   4.878  12.274 -1.6797 -1.6462  1.8462
 8270TIP3    H246302   0.640   4.940  12.295 -0.1141  1.9363  1.8133
 8271TIP3   OH246303   1.379   2.524   1.240 -0.3023  0.0572 -0.0150
 8271TIP3    H146304   1.367   2.562   1.327  0.5502 -0.5902  0.3965
 8271TIP3    H246305   1.474   2.520   1.229 -0.4096  0.3017 -1.0575
 8272TIP3   OH246306   2.129   5.784  14.860  0.0128  0.5880  0.5039
 8272TIP3    H146307   2.153   5.703  14.905  1.9336  0.4571 -0.7051
 8272TIP3    H246308   2.107   5.845  14.930  1.0655 -0.2050  1.5496
 8273TIP3   OH246309   6.863   5.217  12.237 -0.4551  0.5844  0.3328
 8273TIP3    H146310   6.837   5.132  12.273  2.1574 -0.0482  0.8036
 8273TIP3    H246311   6.876   5.202  12.144 -0.6954  0.6371  0.2904
 8274TIP3   OH246312   1.514   2.953  13.013  0.0697  0.1224 -0.8834
 8274TIP3    H146313   1.607   2.973  13.008  0.1563  0.5605  1.7259
 8274TIP3    H246314   1.483   2.955  12.923  2.8226 -1.2085 -1.8965
 8275TIP3   OH246315   1.018   3.192   0.407  0.3066 -0.1100 -0.0728
 8275TIP3    H146316   0.970   3.222   0.330  0.3408 -1.3818 -0.6000
 8275TIP3    H246317   0.955   3.201   0.479 -1.1633 -2.7772 -0.9243
 8276TIP3   OH246318   2.123   5.822  12.986 -0.0612  0.2587 -0.6860
 8276TIP3    H146319   2.122   5.823  12.891  1.8002 -0.4361 -0.7263
 8276TIP3    H246320   2.088   5.737  13.011  1.1479 -0.2739 -0.7936
 8277TIP3   OH246321   4.966   2.843  15.607  0.1571  0.0191  0.2763
 8277TIP3    H146322   4.930   2.774  15.551  1.1144 -1.6013  1.5990
 8277TIP3    H246323   4.889   2.886  15.645 -0.4519 -0.1356 -0.7702
 8278TIP3   OH246324   0.934   0.287  14.642  0.4233  0.3873  0.5566
 8278TIP3    H146325   0.925   0.356  14.707  1.2076  2.2095 -1.2156
 8278TIP3    H246326   0.872   0.312  14.573 -1.7329 -2.4667  1.3641
 8279TIP3   OH246327   0.374   2.360   4.605  0.4770 -0.4575 -0.3201
 8279TIP3    H146328   0.451   2.417   4.616 -0.2337  0.5704 -0.5548
 8279TIP3    H246329   0.300   2.421   4.603 -0.3810 -1.4723  0.3157
 8280TIP3   OH246330   5.726   3.786   2.211 -0.5948 -0.2996  0.4410
 8280TIP3    H146331   5.631   3.792   2.196 -0.1851  3.0296 -1.3483
 8280TIP3    H246332   5.735   3.783   2.306 -2.4772  1.6296  0.7448
 8281TIP3   OH246333   3.857   0.384  15.429  0.5518 -0.6971  0.0276
 8281TIP3    H146334   3.811   0.454  15.477  0.1902  0.7376 -2.3552
 8281TIP3    H246335   3.856   0.412  15.338  0.2057 -3.9369 -1.0359
 8282TIP3   OH246336   4.387   4.863   0.783 -0.1816  0.0688 -0.1839
 8282TIP3    H146337   4.389   4.776   0.824 -2.0580  0.7508  1.4006
 8282TIP3    H246338   4.452   4.914   0.832  0.4726 -0.2510 -0.7091
 8283TIP3   OH246339   3.359   3.736  12.247  0.5754  0.1664 -0.1561
 8283TIP3    H146340   3.320   3.648  12.252  0.5695  0.2426  1.3851
 8283TIP3    H246341   3.449   3.720  12.219 -0.0088 -0.1597 -1.9037
 8284TIP3   OH246342   6.326   4.025  13.557  0.0043  0.0358  0.3280
 8284TIP3    H146343   6.416   3.998  13.576  0.4228  0.3317 -1.1843
 8284TIP3    H246344   6.312   4.102  13.612  0.9526  0.4632 -0.0199
 8285TIP3   OH246345   1.720   6.937  13.133  0.2569 -0.0757 -1.1495
 8285TIP3    H146346   1.745   6.942  13.225 -0.2067 -0.4670 -1.0060
 8285TIP3    H246347   1.628   6.913  13.133  0.0758  0.5985 -1.7049
 8286TIP3   OH246348   0.623   0.521   0.540  0.0271  0.1955  0.1342
 8286TIP3    H146349   0.576   0.536   0.622  0.5763 -0.2625  0.5407
 8286TIP3    H246350   0.677   0.599   0.528 -0.1912  0.3438  0.1119
 8287TIP3   OH246351   5.151   1.219  14.068 -0.0067 -0.5915  0.3339
 8287TIP3    H146352   5.111   1.153  14.010  1.5104 -0.9049 -0.3824
 8287TIP3    H246353   5.187   1.284  14.008  3.1145 -1.7971  0.8333
 8288TIP3   OH246354   1.218   5.449  13.310  0.4104 -0.3571 -0.2655
 8288TIP3    H146355   1.213   5.358  13.281  0.2152 -1.0100  1.7257
 8288TIP3    H246356   1.215   5.444  13.405 -0.4827  1.7977 -0.1408
 8289TIP3   OH246357   2.096   4.805  12.268 -0.1439 -0.6487  0.5698
 8289TIP3    H146358   2.037   4.743  12.310 -1.7921  0.0406 -0.6306
 8289TIP3    H246359   2.153   4.751  12.214  1.3353 -1.4502  2.8678
 8290TIP3   OH246360   0.883   4.473  10.455 -0.0428  0.3947  0.5656
 8290TIP3    H146361   0.817   4.459  10.522 -0.5202  3.1419  0.7508
 8290TIP3    H246362   0.965   4.478  10.503 -0.0882  0.0568  0.6789
 8291TIP3   OH246363   4.262   3.218  13.554 -0.2895 -0.0479 -0.3106
 8291TIP3    H146364   4.187   3.277  13.550 -1.4069 -1.4076  0.2747
 8291TIP3    H246365   4.273   3.186  13.465  1.2509  2.1221 -0.9663
 8292TIP3   OH246366   5.762   5.485  10.330  0.0558  0.7092  0.0908
 8292TIP3    H146367   5.746   5.511  10.239  0.2354  2.8186  0.6418
 8292TIP3    H246368   5.826   5.548  10.363  0.6977 -0.6025  1.4108
 8293TIP3   OH246369   1.138   3.241   3.107  0.4302 -0.5448  0.1094
 8293TIP3    H146370   1.072   3.307   3.129 -0.1138  0.0892 -3.1476
 8293TIP3    H246371   1.164   3.262   3.017  0.4326 -4.5894 -0.9376
 8294TIP3   OH246372   4.448   2.195  11.886  0.0313  0.2442 -0.5245
 8294TIP3    H146373   4.431   2.219  11.977  0.2846 -0.8897 -0.1765
 8294TIP3    H246374   4.533   2.234  11.866 -0.2779  0.9639 -0.4558
 8295TIP3   OH246375   1.143   1.000   1.061  0.4058  0.2555 -0.3144
 8295TIP3    H146376   1.115   0.909   1.055  1.9900 -0.1985 -1.3108
 8295TIP3    H246377   1.173   1.010   1.151 -0.5762  0.0307  0.0331
 8296TIP3   OH246378   3.582   3.566  13.708 -0.3381  0.1324  0.0905
 8296TIP3    H146379   3.535   3.508  13.767  0.5608 -1.2280 -0.4928
 8296TIP3    H246380   3.528   3.645  13.703 -1.3173 -0.4477  1.3039
 8297TIP3   OH246381   2.768   2.841  13.239 -0.0646  0.5328  0.1141
 8297TIP3    H146382   2.834   2.772  13.240 -0.6329 -0.0630 -1.6958
 8297TIP3    H246383   2.739   2.846  13.148 -2.0726  1.2123  0.7540
 8298TIP3   OH246384   5.518   2.305   1.052 -0.1510 -0.6849  0.5053
 8298TIP3    H146385   5.486   2.261   1.131 -0.2443  0.5051  1.1472
 8298TIP3    H246386   5.524   2.397   1.077  0.9081 -0.4561 -0.5356
 8299TIP3   OH246387   1.192   2.497  13.266  0.2563  0.5589  0.4578
 8299TIP3    H146388   1.224   2.587  13.261  0.1352  0.5152 -1.2908
 8299TIP3    H246389   1.271   2.443  13.261  0.3363  0.5663  1.6000
 8300TIP3   OH246390   1.068   3.779  14.461 -0.3956 -0.3881  0.3159
 8300TIP3    H146391   0.996   3.763  14.522 -1.1315  0.7102 -0.2485
 8300TIP3    H246392   1.076   3.875  14.458  1.1332 -0.5042  0.4245
 8301TIP3   OH246393   2.053   4.182  14.367 -0.2001 -0.2978  0.6437
 8301TIP3    H146394   2.026   4.099  14.406 -0.4084  0.0592  1.2705
 8301TIP3    H246395   2.124   4.159  14.308 -1.5576 -1.1948 -0.6947
 8302TIP3   OH246396   2.718   1.393  15.286 -0.0126  0.0129  0.0807
 8302TIP3    H146397   2.733   1.405  15.192 -1.0674 -0.8261 -0.2048
 8302TIP3    H246398   2.623   1.393  15.295  0.0940  1.1304  1.3014
 8303TIP3   OH246399   4.919   4.315  14.634  0.5252  0.0573 -0.0192
 8303TIP3    H146400   4.848   4.266  14.593  0.9549 -1.2013  0.7014
 8303TIP3    H246401   4.919   4.286  14.726  0.6118  1.6221  0.4935
 8304TIP3   OH246402   6.283   5.223  13.434 -0.6419  0.0943 -0.6407
 8304TIP3    H146403   6.199   5.219  13.479 -0.1303  2.2356  0.5824
 8304TIP3    H246404   6.261   5.259  13.348 -1.0329  0.2153 -0.4924
 8305TIP3   OH246405   0.699   5.195   1.912  0.0470  0.0904  0.0467
 8305TIP3    H146406   0.781   5.237   1.885 -1.1089  2.7664  0.4858
 8305TIP3    H246407   0.631   5.243   1.864 -1.3987 -0.7845  1.1857
 8306TIP3   OH246408   7.016   3.935   0.656  0.2107  0.4111  0.4385
 8306TIP3    H146409   7.056   3.863   0.705  0.3123 -1.2920 -2.0339
 8306TIP3    H246410   7.089   3.979   0.613  0.0476  1.3406  1.1134
 8307TIP3   OH246411   2.087   7.062   1.060 -0.4118 -0.6540  0.1880
 8307TIP3    H146412   2.068   7.027   0.973  0.0377 -1.9641  0.6063
 8307TIP3    H246413   2.118   7.151   1.044 -4.0243  0.5374 -0.7173
 8308TIP3   OH246414   5.321   5.228  12.431  0.3516 -0.6521 -0.8300
 8308TIP3    H146415   5.357   5.143  12.409  0.1314 -0.5569 -1.5868
 8308TIP3    H246416   5.394   5.289  12.420  0.3676 -0.6704 -0.8210
 8309TIP3   OH246417   1.701   5.578  12.566 -0.0210 -0.9108  0.1882
 8309TIP3    H146418   1.774   5.624  12.525 -1.0683 -1.1703 -2.0698
 8309TIP3    H246419   1.672   5.516  12.500 -1.5748 -1.5964  1.4765
 8310TIP3   OH246420   2.010   3.637  14.014 -0.6265  0.2961  0.4612
 8310TIP3    H146421   2.082   3.699  14.002 -0.5279  0.2670  0.8902
 8310TIP3    H246422   1.977   3.622  13.926 -0.8932  1.2446  0.3905
 8311TIP3   OH246423   2.323   4.128  13.431  0.4036  0.3144  0.9489
 8311TIP3    H146424   2.410   4.160  13.456 -0.0695  1.3963  1.2439
 8311TIP3    H246425   2.338   4.079  13.350  1.1517  1.2525  0.5137
 8312TIP3   OH246426   4.822   2.055  13.548 -0.3338  0.1358  0.3517
 8312TIP3    H146427   4.858   2.003  13.620  0.0166  0.3604  0.3428
 8312TIP3    H246428   4.738   2.015  13.528 -0.5164  0.1931  1.0151
 8313TIP3   OH246429   4.351   6.975   3.383 -0.3009 -0.1464  0.5503
 8313TIP3    H146430   4.444   6.996   3.392  0.0793 -1.1036 -1.0477
 8313TIP3    H246431   4.306   7.053   3.414  1.0465  0.7279  0.3470
 8314TIP3   OH246432   0.988   1.219   2.081  0.1684 -0.0610 -0.3689
 8314TIP3    H146433   0.964   1.191   1.993 -2.4662  0.5846  0.0803
 8314TIP3    H246434   0.946   1.305   2.091 -2.1765 -1.4559  2.5273
 8315TIP3   OH246435   2.538   5.477  13.806  0.2781 -0.5607  0.3086
 8315TIP3    H146436   2.617   5.438  13.845  2.4121  1.4221 -1.8967
 8315TIP3    H246437   2.536   5.565  13.842  0.7887  0.3947 -1.9490
 8316TIP3   OH246438   6.121   0.251  12.596  0.2838  0.0549 -0.2773
 8316TIP3    H146439   6.198   0.252  12.540  1.5047 -0.6854  1.3469
 8316TIP3    H246440   6.146   0.304  12.672 -2.4025  3.6277 -1.7288
 8317TIP3   OH246441   6.953   2.991  14.848  0.2622 -0.0903  0.0372
 8317TIP3    H146442   6.944   3.083  14.874 -1.0285  0.1800 -1.3006
 8317TIP3    H246443   7.039   2.986  14.807  0.2957  0.5417  0.0259
 8318TIP3   OH246444   6.772   4.374  11.212  0.0793 -0.7575  0.1428
 8318TIP3    H146445   6.786   4.281  11.194 -0.1401 -0.9105  0.7372
 8318TIP3    H246446   6.754   4.413  11.126  0.7816 -1.1519 -0.1807
 8319TIP3   OH246447   3.872   5.180  15.415 -0.2863 -0.9111 -0.1278
 8319TIP3    H146448   3.794   5.176  15.359  0.3194 -1.7715 -0.9234
 8319TIP3    H246449   3.854   5.121  15.487 -0.2555 -1.3351 -0.4657
 8320TIP3   OH246450   0.098   4.859  12.233  0.2026  0.5205 -0.2467
 8320TIP3    H146451   0.065   4.825  12.317  0.5846  1.0122  0.1082
 8320TIP3    H246452   0.110   4.781  12.179 -1.6710  0.3281 -0.4450
 8321TIP3   OH246453   6.465   2.506  14.517 -0.1665 -0.1109  0.5359
 8321TIP3    H146454   6.384   2.535  14.558 -0.1885  0.5170  0.0418
 8321TIP3    H246455   6.519   2.475  14.591 -0.9074 -0.6851  0.8441
 8322TIP3   OH246456   6.711   1.351  12.035  0.0744 -0.3618  0.2041
 8322TIP3    H146457   6.724   1.426  11.978  0.4713 -0.3351  0.3270
 8322TIP3    H246458   6.619   1.355  12.060  0.1789  0.2916  0.4995
 8323TIP3   OH246459   1.229   5.322  10.952  0.3088  0.1394 -0.6105
 8323TIP3    H146460   1.255   5.316  10.860  0.1858 -1.3991 -0.5541
 8323TIP3    H246461   1.299   5.372  10.993  0.2732  1.0082 -1.5693
 8324TIP3   OH246462   6.888   2.722   9.880  0.0032  0.3707  0.0554
 8324TIP3    H146463   6.965   2.777   9.865  0.0912  0.5196  1.0036
 8324TIP3    H246464   6.816   2.768   9.837  0.5733 -0.1526 -1.4997
 8325TIP3   OH246465   2.674   0.233  12.690 -0.4095 -0.1322  0.1807
 8325TIP3    H146466   2.735   0.290  12.737 -0.7050  0.1582  0.2101
 8325TIP3    H246467   2.615   0.200  12.757 -1.3697  0.9635 -0.1160
 8326TIP3   OH246468   6.942   6.172   0.637  0.3524 -0.2827  0.2802
 8326TIP3    H146469   6.870   6.138   0.584  0.1899 -1.5298  1.2496
 8326TIP3    H246470   6.919   6.263   0.655 -0.6499 -0.4802  0.0120
 8327TIP3   OH246471   4.215   1.969  13.052 -0.3588 -0.1855 -0.6383
 8327TIP3    H146472   4.125   2.002  13.048 -0.2595  0.1069 -0.4413
 8327TIP3    H246473   4.249   2.001  13.136  0.0008 -0.1058 -0.8130
 8328TIP3   OH246474   6.327   5.353   0.052 -0.1643  0.5905  0.3203
 8328TIP3    H146475   6.299   5.402   0.129  0.9366  0.5049  0.7783
 8328TIP3    H246476   6.417   5.328   0.071 -0.0653  0.1117 -0.7689
 8329TIP3   OH246477   6.783   2.475   0.228  0.8500 -0.8203 -0.2631
 8329TIP3    H146478   6.810   2.421   0.302  0.4954 -1.8302 -0.8476
 8329TIP3    H246479   6.783   2.564   0.261  1.0756 -1.2244  0.8371
 8330TIP3   OH246480   5.090   5.571   2.641  0.1365 -0.0671  0.5130
 8330TIP3    H146481   5.160   5.511   2.665  0.1907 -0.5061 -0.6722
 8330TIP3    H246482   5.083   5.632   2.715  1.1743 -0.5498  1.0167
 8331TIP3   OH246483   1.993   4.460  14.309  0.8299 -0.2317  0.0020
 8331TIP3    H146484   2.021   4.380  14.353 -1.2488 -0.0106  1.8010
 8331TIP3    H246485   2.046   4.529  14.347 -0.9932 -0.0326  2.2814
 8332TIP3   OH246486   2.655   2.194  15.000 -0.0824  0.5124 -0.1255
 8332TIP3    H146487   2.574   2.244  15.010 -1.0511 -1.3884  2.2540
 8332TIP3    H246488   2.725   2.259  14.998 -1.4117  2.0098  1.5455
 8333TIP3   OH246489   2.980   3.450  13.249  0.2350 -0.5004 -0.1702
 8333TIP3    H146490   2.914   3.381  13.244 -0.7509  0.4660 -0.6701
 8333TIP3    H246491   3.005   3.466  13.158  0.0680  0.1843 -0.0956
 8334TIP3   OH246492   1.317   2.942  13.657  0.0126  0.6572 -0.3127
 8334TIP3    H146493   1.289   2.973  13.572 -0.8210  1.8456  0.3916
 8334TIP3    H246494   1.410   2.921  13.645 -0.4871 -0.7781 -1.9340
 8335TIP3   OH246495   3.893   1.726  11.884 -0.0726 -0.2837  0.2497
 8335TIP3    H146496   3.888   1.814  11.848  2.4893 -0.2196 -0.0484
 8335TIP3    H246497   3.851   1.670  11.819 -0.9050  0.5825  0.0320
 8336TIP3   OH246498   0.834   3.092  13.705 -0.6143 -0.5387  0.1020
 8336TIP3    H146499   0.920   3.061  13.734  0.0465  0.2157 -1.0305
 8336TIP3    H246500   0.821   3.175  13.752 -0.3687 -0.2511 -0.3377
 8337TIP3   OH246501   5.927   5.316  14.316 -0.0907  0.2956  0.2126
 8337TIP3    H146502   5.984   5.258  14.268 -0.1340  0.8309 -0.4936
 8337TIP3    H246503   5.844   5.315  14.268 -0.6433 -0.3810  1.1580
 8338TIP3   OH246504   3.676   2.480  14.283 -0.1122  0.1111 -0.6871
 8338TIP3    H146505   3.748   2.473  14.221  1.1974 -2.1165  1.0243
 8338TIP3    H246506   3.616   2.409  14.260  0.0011 -0.2456  0.0781
 8339TIP3   OH246507   1.123   0.702   4.017 -0.3844 -0.3235  0.1493
 8339TIP3    H146508   1.173   0.634   4.063  0.6142  1.0136  1.0989
 8339TIP3    H246509   1.041   0.708   4.065 -0.2722 -0.5236  0.3682
 8340TIP3   OH246510   2.200   4.303  11.492 -0.6046  0.0623 -0.0085
 8340TIP3    H146511   2.108   4.329  11.490 -0.3306  0.9552 -1.9263
 8340TIP3    H246512   2.248   4.385  11.479  0.3586 -0.8988 -2.7928
 8341TIP3   OH246513   6.985   4.351   2.536 -0.3312 -0.2503  0.1819
 8341TIP3    H146514   7.068   4.304   2.527 -0.3873 -0.0658 -1.4235
 8341TIP3    H246515   6.926   4.308   2.474 -0.7637  1.0888 -0.3458
 8342TIP3   OH246516   1.193   6.326   0.290  0.2417  0.3202 -0.3385
 8342TIP3    H146517   1.153   6.351   0.206  0.6283  0.2718 -0.5370
 8342TIP3    H246518   1.197   6.408   0.340  1.0755  0.5730 -0.8086
 8343TIP3   OH246519   1.608   3.109  13.565  0.0899  0.3762  0.1101
 8343TIP3    H146520   1.629   3.043  13.632 -0.9905  0.6370  0.7184
 8343TIP3    H246521   1.563   3.178  13.613  2.0322  2.0086 -0.3675
 8344TIP3   OH246522   3.461   6.066   1.335 -0.3090 -0.3162 -0.8992
 8344TIP3    H146523   3.377   6.021   1.336 -0.4233 -0.1036 -0.7391
 8344TIP3    H246524   3.494   6.053   1.246  0.1721 -1.6347 -0.5401
 8345TIP3   OH246525   3.596   2.851  13.812  0.0375 -0.0205  0.5416
 8345TIP3    H146526   3.540   2.928  13.817 -1.0352 -0.8089  0.6989
 8345TIP3    H246527   3.651   2.867  13.735  0.4400  1.3034  1.0849
 8346TIP3   OH246528   3.105   3.564  13.716  0.3966  0.3392 -0.1320
 8346TIP3    H146529   3.174   3.587  13.654  0.9463  1.9712  1.0437
 8346TIP3    H246530   3.102   3.638  13.777 -0.9632 -0.6728  1.0695
 8347TIP3   OH246531   4.524   1.952  13.470  0.3495 -0.3579  0.0827
 8347TIP3    H146532   4.519   1.885  13.402 -0.0237  0.4862 -0.7211
 8347TIP3    H246533   4.468   2.023  13.439  0.5247  0.2262  1.0587
 8348TIP3   OH246534   2.494   6.273  15.445 -0.0539 -0.3151  0.0097
 8348TIP3    H146535   2.547   6.349  15.421  0.6537  0.4575  3.7185
 8348TIP3    H246536   2.410   6.310  15.473 -0.6737 -1.1281 -0.7480
 8349TIP3   OH246537   7.085   6.649   3.731 -0.2242  0.0907 -0.1541
 8349TIP3    H146538   7.063   6.620   3.819 -0.1680  0.8034  0.1013
 8349TIP3    H246539   7.125   6.573   3.689  0.0693 -0.1424  0.5505
 8350TIP3   OH246540   1.665   4.389  13.480 -0.3653 -0.5547 -0.4939
 8350TIP3    H146541   1.588   4.378  13.537  0.5264  0.1491  0.8673
 8350TIP3    H246542   1.710   4.304  13.486 -0.2407 -0.4625 -0.0905
 8351TIP3   OH246543   0.628   4.354  14.259  0.1352 -0.1480  0.2198
 8351TIP3    H146544   0.692   4.423  14.279  0.7502 -0.9842  1.1594
 8351TIP3    H246545   0.594   4.328  14.344 -1.4087  0.2238 -0.2709
 8352TIP3   OH246546   0.606   0.530   0.165 -0.1033 -0.3067  0.0932
 8352TIP3    H146547   0.686   0.557   0.120  0.0507 -2.8812 -1.2946
 8352TIP3    H246548   0.621   0.551   0.257  0.8259  2.2532 -0.6199
 8353TIP3   OH246549   0.475   2.533  10.821 -0.2267 -0.2993 -0.0987
 8353TIP3    H146550   0.525   2.527  10.739 -0.2887 -1.3881 -0.0641
 8353TIP3    H246551   0.388   2.500  10.798 -0.7296  0.9003  0.0236
 8354TIP3   OH246552   4.426   2.872  14.395 -0.1717  0.1760  0.3314
 8354TIP3    H146553   4.479   2.796  14.372 -1.8109 -0.6994 -0.7070
 8354TIP3    H246554   4.383   2.897  14.313 -0.7675  1.3278  0.9770
 8355TIP3   OH246555   5.368   2.168   0.394  0.5686 -0.2182  0.3575
 8355TIP3    H146556   5.335   2.082   0.368 -0.8099 -0.2399  2.0880
 8355TIP3    H246557   5.412   2.201   0.316 -0.9342 -1.4867 -1.0667
 8356TIP3   OH246558   7.120   2.677  12.147 -0.0276 -0.4803  0.3203
 8356TIP3    H146559   7.174   2.711  12.218 -0.2808 -0.3348  0.4429
 8356TIP3    H246560   7.097   2.753  12.095  0.2031 -0.5951  0.0523
 8357TIP3   OH246561   1.841   1.067  13.443 -0.2514  0.5907 -0.2211
 8357TIP3    H146562   1.805   1.024  13.365 -1.4013  2.1190 -0.5496
 8357TIP3    H246563   1.919   1.016  13.465 -0.4200 -0.3863 -1.8375
 8358TIP3   OH246564   1.611   5.889  14.703 -0.5041  0.2873 -0.5626
 8358TIP3    H146565   1.658   5.861  14.781 -1.2130 -0.8075 -0.5228
 8358TIP3    H246566   1.523   5.854  14.713 -0.4312 -0.3904 -2.1331
 8359TIP3   OH246567   7.128   2.284  13.683  0.2653  0.0101 -0.1654
 8359TIP3    H146568   7.125   2.350  13.753  2.0877 -0.8582  0.7711
 8359TIP3    H246569   7.205   2.232  13.703 -0.7091 -1.9378 -1.3456
 8360TIP3   OH246570   1.716   4.271  14.447  0.5159 -0.1739 -0.2004
 8360TIP3    H146571   1.793   4.230  14.407  0.1837  0.0213 -1.0594
 8360TIP3    H246572   1.701   4.349  14.394 -2.3371 -2.0229 -2.2565
 8361TIP3   OH246573   1.606   3.313  12.476 -0.8998 -0.3598  0.0665
 8361TIP3    H146574   1.691   3.319  12.433 -1.1988 -1.1109 -0.6450
 8361TIP3    H246575   1.572   3.403  12.475 -0.2642 -0.1143  0.0728
 8362TIP3   OH246576   4.492   4.765  12.658  0.1987 -0.5265 -0.4597
 8362TIP3    H146577   4.452   4.689  12.616  1.2142 -1.8690  0.9492
 8362TIP3    H246578   4.497   4.742  12.751 -1.0172  1.9593  0.2639
 8363TIP3   OH246579   0.901   2.013  14.385 -0.0355 -0.5762 -0.1830
 8363TIP3    H146580   0.991   2.045  14.399 -0.0005 -0.4862 -0.5964
 8363TIP3    H246581   0.846   2.078  14.428  0.0635 -0.2287 -0.5720
 8364TIP3   OH246582   1.468   7.167  12.556 -0.5882 -0.1156  0.1948
 8364TIP3    H146583   1.484   7.247  12.506  0.5243 -0.5271 -0.1410
 8364TIP3    H246584   1.375   7.148  12.544 -0.3613 -0.1624 -1.6733
 8365TIP3   OH246585   6.629   0.799  11.516 -0.2064  0.1603  0.2924
 8365TIP3    H146586   6.586   0.877  11.483  1.8056 -0.0045 -2.8545
 8365TIP3    H246587   6.679   0.829  11.592 -0.5435  1.6443 -0.0730
 8366TIP3   OH246588   4.016   3.999  14.977  0.5431  0.4515 -0.6546
 8366TIP3    H146589   3.991   3.958  14.894  0.5460 -0.2019 -0.3349
 8366TIP3    H246590   3.983   3.940  15.045  0.8082  0.8270 -0.1908
 8367TIP3   OH246591   1.324   5.291  14.282 -0.0098 -0.0343 -0.0480
 8367TIP3    H146592   1.358   5.302  14.194 -2.0163  3.6457 -0.4562
 8367TIP3    H246593   1.229   5.299  14.273 -0.3276 -0.5809  2.3187
 8368TIP3   OH246594   3.881   3.679  14.267  0.9413  0.8940  0.2985
 8368TIP3    H146595   3.913   3.593  14.241  0.1857  0.6628  0.1260
 8368TIP3    H246596   3.818   3.703  14.199 -0.6989  0.4923  1.6354
 8369TIP3   OH246597   0.416   3.684   1.774 -0.1582 -0.2544 -0.0202
 8369TIP3    H146598   0.455   3.721   1.853 -1.9930 -1.0824  1.3326
 8369TIP3    H246599   0.369   3.756   1.734  1.1262  0.2721 -0.6019
 8370TIP3   OH246600   2.855   6.486  12.570  0.7456  0.4163  0.6062
 8370TIP3    H146601   2.913   6.474  12.494  1.4453 -2.3994  1.5220
 8370TIP3    H246602   2.909   6.461  12.645 -0.0794  2.7468  2.0490
 8371TIP3   OH246603   4.548   6.675   1.460 -0.0198  0.4731 -0.3836
 8371TIP3    H146604   4.614   6.745   1.461 -1.5357  1.9654 -2.0409
 8371TIP3    H246605   4.553   6.639   1.372 -1.0000  0.1957 -0.3296
 8372TIP3   OH246606   5.347   5.745   1.278 -0.1021  0.2813  0.2280
 8372TIP3    H146607   5.364   5.830   1.318 -0.6096  0.5096 -0.0389
 8372TIP3    H246608   5.434   5.712   1.255  0.1914  0.1068  1.5752
 8373TIP3   OH246609   2.036   5.970  12.159 -0.0207 -0.5740  0.1528
 8373TIP3    H146610   2.063   6.010  12.077 -1.2326  0.9482  0.4547
 8373TIP3    H246611   1.945   5.943  12.144  0.1701 -1.4456  0.5718
 8374TIP3   OH246612   4.896   6.386  13.087  0.3093  0.5868  0.1505
 8374TIP3    H146613   4.860   6.464  13.043  0.2582  0.3597 -0.2139
 8374TIP3    H246614   4.958   6.350  13.024  0.5855  0.5217  0.4579
 8375TIP3   OH246615   2.977   4.730  10.453  0.5188  0.1940  0.2259
 8375TIP3    H146616   2.898   4.728  10.507 -0.0116 -0.5098 -0.5767
 8375TIP3    H246617   2.946   4.718  10.364  1.4399  0.9025 -0.2011
 8376TIP3   OH246618   0.828   2.111  13.328 -0.3740 -0.1661 -0.1138
 8376TIP3    H146619   0.782   2.143  13.406  0.0692  0.0580  0.0576
 8376TIP3    H246620   0.882   2.185  13.300  1.6944 -1.1734  1.0872
 8377TIP3   OH246621   6.384   1.552  12.618 -0.2337  1.3244 -0.1131
 8377TIP3    H146622   6.451   1.487  12.597 -0.6355  0.8452  0.0799
 8377TIP3    H246623   6.301   1.507  12.600 -0.5554  1.3094  1.3332
 8378TIP3   OH246624   1.696   6.825  15.191 -0.3985 -0.4682  0.2821
 8378TIP3    H146625   1.611   6.798  15.226 -2.0266  0.9261 -2.4312
 8378TIP3    H246626   1.717   6.906  15.239 -0.1108 -1.3321  1.6355
 8379TIP3   OH246627   6.212   0.480  14.675  0.1730  0.6570 -0.0516
 8379TIP3    H146628   6.194   0.498  14.583  0.4377  1.6317  0.0900
 8379TIP3    H246629   6.240   0.564  14.712 -0.2459  0.3454  0.9970
 8380TIP3   OH246630   6.865   0.170  14.703 -0.4343 -0.7479 -0.4703
 8380TIP3    H146631   6.822   0.243  14.748 -0.5332 -0.9143 -0.2915
 8380TIP3    H246632   6.943   0.208  14.663 -1.6651 -0.0793 -2.2915
 8381TIP3   OH246633   0.819   2.059   9.756 -0.1381  0.2294 -1.1370
 8381TIP3    H146634   0.810   1.968   9.785 -0.8984 -0.2542 -2.8147
 8381TIP3    H246635   0.732   2.097   9.767  0.4066  1.0322  0.4470
 8382TIP3   OH246636   0.937   5.952  14.378 -0.2182 -0.2612 -0.5660
 8382TIP3    H146637   0.862   5.897  14.358  0.3225 -0.5772 -1.8134
 8382TIP3    H246638   1.012   5.905  14.340  0.5441  0.2735  0.2487
 8383TIP3   OH246639   2.685   5.380  13.113  0.4622  0.1560  0.1976
 8383TIP3    H146640   2.762   5.331  13.142  1.1446  0.0797 -1.6851
 8383TIP3    H246641   2.653   5.332  13.036  0.0428  1.5913 -0.5449
 8384TIP3   OH246642   5.907   3.591  15.384  0.3120  0.0728 -0.0042
 8384TIP3    H146643   5.846   3.611  15.454 -1.6780 -0.7715 -1.4659
 8384TIP3    H246644   5.889   3.500  15.361  0.1822  0.6488 -2.3203
 8385TIP3   OH246645   6.131   4.949   1.059 -0.2609 -0.5220 -0.2860
 8385TIP3    H146646   6.077   4.990   0.991 -0.1058  0.9940  0.4958
 8385TIP3    H246647   6.214   4.929   1.016 -0.3784 -0.1224 -0.6947
 8386TIP3   OH246648   3.968   6.062  11.089 -0.1000  0.0369  0.3899
 8386TIP3    H146649   4.028   6.010  11.037 -0.3706  0.0071  0.1107
 8386TIP3    H246650   3.918   5.998  11.140 -0.7326  0.0022 -0.2759
 8387TIP3   OH246651   4.158   2.410  15.104  0.3662  0.1159  0.1263
 8387TIP3    H146652   4.234   2.444  15.152 -0.0930  3.2854 -1.3124
 8387TIP3    H246653   4.194   2.382  15.020  0.6741 -2.8062  1.1471
 8388TIP3   OH246654   6.020   2.515  13.954 -0.6519  0.8989 -0.4514
 8388TIP3    H146655   5.950   2.503  14.017 -1.3848  1.2931 -1.1861
 8388TIP3    H246656   6.036   2.428  13.917 -1.1375  0.9114 -0.6883
 8389TIP3   OH246657   2.504   5.883  10.353 -0.1720  0.4288  0.5865
 8389TIP3    H146658   2.418   5.845  10.371 -0.1044 -0.2896 -0.5212
 8389TIP3    H246659   2.566   5.813  10.376 -0.0559 -0.2646 -1.6520
 8390TIP3   OH246660   0.367   4.904  10.930  0.2631  0.0315 -0.1851
 8390TIP3    H146661   0.299   4.837  10.926 -0.4580  0.7461  0.1035
 8390TIP3    H246662   0.384   4.927  10.839 -2.5195  2.5034 -0.1269
 8391TIP3   OH246663   0.908   2.085   0.349 -0.6931  0.2944 -0.0842
 8391TIP3    H146664   0.878   2.014   0.406  0.5256  0.7694  1.1433
 8391TIP3    H246665   0.832   2.104   0.294 -1.8320 -0.2457  1.2749
 8392TIP3   OH246666   4.903   4.592   2.240  0.5067  0.2153 -0.5245
 8392TIP3    H146667   4.848   4.551   2.307  0.3983  0.2071 -0.6183
 8392TIP3    H246668   4.921   4.680   2.274  0.3002  0.2752 -0.5706
 8393TIP3   OH246669   0.100   5.507  12.949  0.2900 -0.3946 -0.1490
 8393TIP3    H146670   0.045   5.461  13.013 -0.2679 -0.6915 -0.8349
 8393TIP3    H246671   0.083   5.461  12.866  0.6952  0.2481 -0.5873
 8394TIP3   OH246672   0.654   6.654  14.485 -0.1475 -0.8823 -0.6455
 8394TIP3    H146673   0.610   6.700  14.556  1.9312 -0.6826  0.5406
 8394TIP3    H246674   0.670   6.721  14.419 -0.6708 -0.7394 -0.6287
 8395TIP3   OH246675   1.982   3.326   2.762  0.6352 -0.3385  0.2410
 8395TIP3    H146676   1.916   3.306   2.828  0.1471 -0.8147 -0.3923
 8395TIP3    H246677   2.047   3.257   2.771  1.2974  0.3957  1.1874
 8396TIP3   OH246678   3.970   1.449  12.420 -0.0595 -0.5538 -0.5144
 8396TIP3    H146679   4.054   1.482  12.389  0.2921  0.7693  1.7876
 8396TIP3    H246680   3.992   1.399  12.499 -1.2679 -1.4025 -0.7071
 8397TIP3   OH246681   6.514   3.295  13.431  0.1489  0.0112  0.1662
 8397TIP3    H146682   6.579   3.334  13.489  0.6212 -0.2541 -0.1804
 8397TIP3    H246683   6.561   3.223  13.387 -1.4444 -2.7868  2.8371
 8398TIP3   OH246684   0.527   1.262  12.346  0.3284  0.0719  0.4667
 8398TIP3    H146685   0.534   1.177  12.304 -0.7119  0.1391  0.1537
 8398TIP3    H246686   0.525   1.325  12.273 -0.8339  0.2322  0.6395
 8399TIP3   OH246687   1.620   4.510  14.366 -0.2949 -0.0510  0.4627
 8399TIP3    H146688   1.549   4.545  14.312 -1.3162 -0.6840  1.3980
 8399TIP3    H246689   1.643   4.582  14.425  1.4139  0.9460 -1.3663
 8400TIP3   OH246690   3.066   4.535  12.550  0.1467 -0.8372  0.1893
 8400TIP3    H146691   3.119   4.507  12.475  0.8094  1.0463 -0.0780
 8400TIP3    H246692   3.000   4.467  12.559 -1.3122 -0.0363 -3.5038
 8401TIP3   OH246693   6.871   4.867  14.605  0.8098  0.0868 -0.1783
 8401TIP3    H146694   6.818   4.788  14.612  0.5716 -0.0099 -2.6858
 8401TIP3    H246695   6.809   4.939  14.619  1.0407 -0.1373  2.1763
 8402TIP3   OH246696   4.185   4.588  12.102  0.1070  0.5610 -0.0075
 8402TIP3    H146697   4.238   4.509  12.112  0.7051  0.9486 -0.0913
 8402TIP3    H246698   4.146   4.580  12.015  1.1100  0.9170 -0.5016
 8403TIP3   OH246699   1.090   2.093  15.005 -0.1795 -0.2197  0.5575
 8403TIP3    H146700   1.104   2.184  15.033 -1.4664  0.2444 -0.2909
 8403TIP3    H246701   1.079   2.099  14.910  1.8925 -1.5223  0.1960
 8404TIP3   OH246702   3.238   3.347  12.672  0.1579 -0.0948  0.1730
 8404TIP3    H146703   3.232   3.353  12.576 -0.5123  0.2466  0.2347
 8404TIP3    H246704   3.156   3.306  12.699 -0.5651  1.6762  0.7613
 8405TIP3   OH246705   6.021   5.187  11.722  0.3332  0.7163  0.2989
 8405TIP3    H146706   6.026   5.245  11.797 -2.2904  0.3092  0.8459
 8405TIP3    H246707   5.990   5.242  11.650 -0.4187  0.3876  0.3682
 8406TIP3   OH246708   0.401   1.145  10.486 -0.4449 -0.0089 -0.4889
 8406TIP3    H146709   0.478   1.116  10.437 -0.3672 -0.2653 -0.2126
 8406TIP3    H246710   0.327   1.105  10.439 -0.3408 -0.6285 -0.1328
 8407TIP3   OH246711   3.163   6.225  14.471  0.1109 -0.3854  0.2922
 8407TIP3    H146712   3.093   6.251  14.531 -0.2781  1.0135 -0.7215
 8407TIP3    H246713   3.163   6.130  14.474 -1.5785 -0.4030  0.6345
 8408TIP3   OH246714   4.705   5.314   2.859 -0.4294 -0.2375 -0.5167
 8408TIP3    H146715   4.705   5.403   2.825  2.0745 -0.3014 -0.8112
 8408TIP3    H246716   4.788   5.307   2.906 -1.2575 -1.9613  0.7460
 8409TIP3   OH246717   0.843   7.158  11.663  0.2532  0.2761  0.0506
 8409TIP3    H146718   0.823   7.064  11.664 -0.1711  0.3664  0.9464
 8409TIP3    H246719   0.938   7.162  11.664  0.2721 -0.1518  0.5748
 8410TIP3   OH246720   4.376   2.149  13.261 -0.9877 -0.2815  0.1933
 8410TIP3    H146721   4.346   2.217  13.201 -2.1871 -0.2154  0.8602
 8410TIP3    H246722   4.454   2.187  13.303 -0.7152  0.0423 -0.6108
 8411TIP3   OH246723   3.727   6.406  15.087  0.0628 -0.2983  0.0369
 8411TIP3    H146724   3.659   6.382  15.150 -0.0863  2.2835  0.8990
 8411TIP3    H246725   3.679   6.438  15.011  0.2872 -0.4864 -0.1850
 8412TIP3   OH246726   2.077   5.213  10.652 -0.2350 -0.5294  0.0477
 8412TIP3    H146727   2.022   5.174  10.584  0.6721  0.9194 -1.5539
 8412TIP3    H246728   2.060   5.307  10.645  2.0399 -0.1083 -0.0966
 8413TIP3   OH246729   1.928   1.258  14.515 -0.3498 -0.1022  0.1001
 8413TIP3    H146730   1.964   1.190  14.458  1.5722  1.3942 -0.5092
 8413TIP3    H246731   1.851   1.290  14.469 -0.6822 -1.1373 -0.0844
 8414TIP3   OH246732   4.795   5.160  13.716 -0.1040  0.2745  0.5857
 8414TIP3    H146733   4.882   5.120  13.719  0.0384  0.5286 -0.2315
 8414TIP3    H246734   4.777   5.184  13.807 -0.3354 -1.9539  1.1789
 8415TIP3   OH246735   2.522   5.695   1.329  0.1383 -0.0951 -0.3758
 8415TIP3    H146736   2.450   5.643   1.293 -0.0823  0.1164 -0.2473
 8415TIP3    H246737   2.595   5.681   1.269 -0.0329 -0.2519 -0.5478
 8416TIP3   OH246738   2.994   6.644  14.245 -0.3873 -0.1707  0.0575
 8416TIP3    H146739   2.962   6.585  14.313  1.1016 -1.4460 -0.3227
 8416TIP3    H246740   3.015   6.725  14.292  0.0201 -0.8279  1.0103
 8417TIP3   OH246741   5.948   5.847  13.695 -0.5848 -0.4614  0.7957
 8417TIP3    H146742   5.896   5.921  13.663 -0.3373 -0.1457  1.1157
 8417TIP3    H246743   5.984   5.878  13.779 -0.0565 -0.7536  0.6803
 8418TIP3   OH246744   0.239   6.422  12.569 -0.0247  0.4262  0.2900
 8418TIP3    H146745   0.262   6.426  12.661  0.3954  0.7048  0.1739
 8418TIP3    H246746   0.151   6.384  12.567  1.0262 -2.1088  0.6648
 8419TIP3   OH246747   3.307   0.096   0.813  0.0953 -0.2567  0.3108
 8419TIP3    H146748   3.326   0.022   0.756  0.6657 -0.5009  0.8124
 8419TIP3    H246749   3.268   0.057   0.892 -0.3033  0.0435  0.2684
 8420TIP3   OH246750   3.273   7.177  11.178  0.0467  0.6583  0.2574
 8420TIP3    H146751   3.291   7.160  11.085 -0.9499  0.7793  0.0306
 8420TIP3    H246752   3.204   7.244  11.176 -1.2459 -0.6279  1.0654
 8421TIP3   OH246753   1.004   0.364  11.882  0.7632 -0.2958 -0.4567
 8421TIP3    H146754   0.910   0.369  11.866  0.5959 -0.1892  0.5334
 8421TIP3    H246755   1.040   0.323  11.803  0.1283  1.4501 -1.6858
 8422TIP3   OH246756   2.348   7.079   9.812 -0.0788  0.7104 -0.0541
 8422TIP3    H146757   2.296   7.079   9.892  0.1200  0.6515  0.0751
 8422TIP3    H246758   2.415   7.145   9.826  0.6207 -0.0711  0.2586
 8423TIP3   OH246759   0.411   5.124  13.602 -0.3117 -0.3802  0.2755
 8423TIP3    H146760   0.339   5.084  13.553  0.5194 -0.7453 -0.6550
 8423TIP3    H246761   0.481   5.135  13.537  1.1789 -1.8412  1.6006
 8424TIP3   OH246762   2.461   5.176   2.194  0.5709  0.8294  0.2198
 8424TIP3    H146763   2.470   5.089   2.155  2.3472  2.1677 -2.4336
 8424TIP3    H246764   2.367   5.185   2.211  0.3057 -1.3728  0.0586
 8425TIP3   OH246765   2.940   4.589  14.257  0.1522 -0.0826  0.8322
 8425TIP3    H146766   3.027   4.613  14.226  0.4709 -0.5544  1.3511
 8425TIP3    H246767   2.955   4.550  14.343 -0.4649 -1.1358  0.4709
 8426TIP3   OH246768   0.835   5.504  10.880  0.5166  0.1412 -0.2580
 8426TIP3    H146769   0.741   5.517  10.889  0.4300 -0.0157 -0.8824
 8426TIP3    H246770   0.873   5.590  10.898  0.4310 -0.2995  2.2118
 8427TIP3   OH246771   2.067   0.276  14.990 -0.0197 -0.8003  0.6004
 8427TIP3    H146772   2.059   0.366  14.957 -0.3088 -1.8604 -2.3829
 8427TIP3    H246773   2.025   0.278  15.076 -0.0673  1.8924  0.5582
 8428TIP3   OH246774   2.770   5.097  11.391  0.1893 -0.2869  0.1051
 8428TIP3    H146775   2.795   5.156  11.462 -1.3401  0.3732  0.0978
 8428TIP3    H246776   2.736   5.020  11.435  0.4365 -0.4046  0.0916
 8429TIP3   OH246777   5.742   4.812  14.868 -0.3407 -0.2385 -0.6385
 8429TIP3    H146778   5.724   4.794  14.776  0.6919 -4.2443 -0.1589
 8429TIP3    H246779   5.657   4.804  14.912 -0.9085  2.1140 -1.2800
 8430TIP3   OH246780   6.013   4.319  12.706  0.0598  0.0140  0.2353
 8430TIP3    H146781   5.939   4.335  12.764  0.4641  0.1232  0.7246
 8430TIP3    H246782   6.070   4.260  12.756 -0.3435 -1.1534 -0.6676
 8431TIP3   OH246783   2.095   0.793  15.148 -0.2775  0.4593 -0.2354
 8431TIP3    H146784   2.148   0.736  15.092 -1.4119  1.0001 -1.8785
 8431TIP3    H246785   2.132   0.881  15.135 -2.2440  1.0295 -2.2707
 8432TIP3   OH246786   2.815   5.318  14.430  0.2739  0.0013  0.0089
 8432TIP3    H146787   2.843   5.305  14.521  1.0204 -0.2200 -0.2516
 8432TIP3    H246788   2.724   5.347  14.437  0.8261  1.5791  0.9075
 8433TIP3   OH246789   5.281   3.637   1.264 -0.0788  0.0170 -0.0243
 8433TIP3    H146790   5.236   3.576   1.205  0.8299 -0.9333  0.2380
 8433TIP3    H246791   5.255   3.608   1.352 -0.9248  1.0310  0.0665
 8434TIP3   OH246792   0.672   2.368   0.068  0.0733  0.2691  0.1319
 8434TIP3    H146793   0.683   2.295   0.127  0.7286  1.6636  1.7810
 8434TIP3    H246794   0.578   2.373   0.051 -0.1562  0.0818  1.3467
 8435TIP3   OH246795   2.130   0.135   9.976 -0.5487  0.2529 -0.3653
 8435TIP3    H146796   2.183   0.192   9.921  0.9384  0.1710  0.9625
 8435TIP3    H246797   2.184   0.058   9.991 -1.7323 -0.6157 -0.4195
 8436TIP3   OH246798   4.742   3.101  12.673 -1.2187 -0.2880 -0.0021
 8436TIP3    H146799   4.667   3.111  12.615 -0.7635  2.3569 -0.2035
 8436TIP3    H246800   4.818   3.113  12.616 -0.6560 -1.6963  0.4315
 8437TIP3   OH246801   6.306   6.283  14.394 -0.3093  1.1736  0.0497
 8437TIP3    H146802   6.374   6.263  14.458 -0.7136  0.2126  0.1894
 8437TIP3    H246803   6.354   6.294  14.311  0.0262  0.6222  0.1669
 8438TIP3   OH246804   6.662   3.102  12.826  0.0598  0.2753 -0.3208
 8438TIP3    H146805   6.693   3.061  12.745 -1.7910 -2.1999  0.1516
 8438TIP3    H246806   6.584   3.150  12.799  0.4704  0.9302 -0.3299
 8439TIP3   OH246807   0.895   3.926   1.267 -0.7542  0.6832 -0.7491
 8439TIP3    H146808   0.834   3.921   1.340  0.1168  0.1492 -0.0493
 8439TIP3    H246809   0.913   3.835   1.244  0.6996  0.8173 -0.1717
 8440TIP3   OH246810   1.772   2.930   0.944 -0.0963 -0.4878 -0.1737
 8440TIP3    H146811   1.740   2.879   1.019 -0.5597  0.6380  0.4042
 8440TIP3    H246812   1.809   2.865   0.885  0.3185 -1.3914  1.0632
 8441TIP3   OH246813   4.947   2.299  13.469  0.5994  0.1141  0.6784
 8441TIP3    H146814   4.899   2.217  13.480  0.7332 -0.0354  0.1477
 8441TIP3    H246815   4.969   2.302  13.376  0.9263  0.5663  0.7672
 8442TIP3   OH246816   0.561   3.397   1.310 -0.1905 -0.5257  0.2633
 8442TIP3    H146817   0.650   3.365   1.294  0.3433  1.9233 -2.1333
 8442TIP3    H246818   0.566   3.440   1.396  2.1155  3.1950 -1.5678
 8443TIP3   OH246819   6.978   0.198  12.593  0.3740 -0.5141 -0.1437
 8443TIP3    H146820   6.884   0.214  12.594  0.8288  2.8242 -1.9791
 8443TIP3    H246821   6.998   0.182  12.500  1.7223 -0.5828  0.1510
 8444TIP3   OH246822   0.930   3.400  13.377  0.2608  0.3258 -0.1300
 8444TIP3    H146823   0.999   3.433  13.320  1.0074  0.0881  0.6235
 8444TIP3    H246824   0.859   3.464  13.369  0.7800  0.8600 -0.4983
 8445TIP3   OH246825   2.838   0.542   0.455  0.2837 -1.1830  0.2512
 8445TIP3    H146826   2.924   0.578   0.431 -0.3601 -0.0709 -0.4849
 8445TIP3    H246827   2.855   0.451   0.476  1.3294 -1.5603 -2.0113
 8446TIP3   OH246828   1.709   5.685  15.298  0.0641 -0.4260  0.2973
 8446TIP3    H146829   1.723   5.745  15.371 -2.2268 -0.4501  0.7837
 8446TIP3    H246830   1.664   5.739  15.232 -0.2380 -1.1082 -0.0519
 8447TIP3   OH246831   6.298   7.055  12.715  0.3736 -0.1501 -0.3060
 8447TIP3    H146832   6.211   7.022  12.693  0.0602  0.2930  0.2722
 8447TIP3    H246833   6.343   7.062  12.630  0.2249 -1.4211 -0.4971
 8448TIP3   OH246834   3.683   2.284  10.584  0.5200 -0.1482 -0.4104
 8448TIP3    H146835   3.704   2.197  10.618  1.7328  0.3006  0.0274
 8448TIP3    H246836   3.591   2.298  10.606  1.4486  0.4569  3.4413
 8449TIP3   OH246837   2.345   3.741  15.396 -0.3332 -0.2572  0.1602
 8449TIP3    H146838   2.307   3.816  15.442  0.8456  0.9776 -0.8597
 8449TIP3    H246839   2.384   3.688  15.466  0.7991  1.2219  0.6629
 8450TIP3   OH246840   1.804   5.039  15.436  0.0932 -0.0663 -0.1923
 8450TIP3    H146841   1.735   4.978  15.462  0.9240 -2.1858 -2.6528
 8450TIP3    H246842   1.870   5.032  15.505 -0.3546 -1.1006  0.1449
 8451TIP3   OH246843   3.759   5.221  12.413  0.2249  0.0105 -0.3434
 8451TIP3    H146844   3.726   5.189  12.329 -0.0036 -0.8283  0.0604
 8451TIP3    H246845   3.815   5.150  12.445  0.0134  0.1705  0.3826
 8452TIP3   OH246846   6.719   0.120  13.479 -0.4834  0.6143  0.0261
 8452TIP3    H146847   6.796   0.176  13.465 -0.3629  0.7164  1.0269
 8452TIP3    H246848   6.702   0.126  13.573 -0.3071 -1.2375  0.1924
 8453TIP3   OH246849   5.799   0.330  12.048  0.4703  0.4126  0.5270
 8453TIP3    H146850   5.809   0.425  12.054 -0.1427  0.7341 -2.6274
 8453TIP3    H246851   5.881   0.299  12.010 -0.2046 -0.0397 -0.5797
 8454TIP3   OH246852   0.847   5.982  12.037  0.0742  0.1218 -0.5122
 8454TIP3    H146853   0.885   5.908  12.085 -0.0867 -0.4569 -1.2719
 8454TIP3    H246854   0.863   6.058  12.094 -0.0952 -0.5514  0.4416
 8455TIP3   OH246855   0.546   0.091  12.385  0.0340  0.3346 -0.0397
 8455TIP3    H146856   0.507   0.065  12.468  1.3560 -2.0418 -0.1185
 8455TIP3    H246857   0.604   0.163  12.407  0.4062 -0.3071  1.1226
 8456TIP3   OH246858   4.315   0.447  10.766 -0.6847  0.1512 -0.3019
 8456TIP3    H146859   4.410   0.445  10.760 -0.5169 -0.7877  2.1520
 8456TIP3    H246860   4.294   0.540  10.776 -0.2186  0.5838 -3.0767
 8457TIP3   OH246861   2.907   2.038  12.036  0.0032 -0.8058 -0.1085
 8457TIP3    H146862   2.923   2.085  12.118  0.4642 -0.8982 -0.1443
 8457TIP3    H246863   2.866   1.956  12.064  1.3246 -1.4000  0.1316
 8458TIP3   OH246864   6.658   3.895  15.600 -0.6434  0.1168  0.8466
 8458TIP3    H146865   6.615   3.867  15.680  0.7731 -1.9756  0.9266
 8458TIP3    H246866   6.701   3.816  15.567 -0.4082  1.1552 -1.4684
 8459TIP3   OH246867   0.221   4.132  14.636  0.2656  0.0915  0.4409
 8459TIP3    H146868   0.232   4.057  14.694 -0.8111  1.2086  2.1194
 8459TIP3    H246869   0.196   4.094  14.551  0.3872 -1.4644  1.0935
 8460TIP3   OH246870   3.712   5.447  11.872  0.2971  0.1743  0.4594
 8460TIP3    H146871   3.739   5.532  11.908 -1.0430  0.4653  0.8088
 8460TIP3    H246872   3.631   5.426  11.919 -0.8524  0.0101 -1.5445
 8461TIP3   OH246873   3.302   6.682  11.348  0.0728  0.1411  0.3471
 8461TIP3    H146874   3.319   6.776  11.341  1.4164 -0.1456 -0.5542
 8461TIP3    H246875   3.365   6.651  11.414  0.2047 -0.2527  0.0426
 8462TIP3   OH246876   4.103   2.861   4.379  0.3553 -0.0330  0.1927
 8462TIP3    H146877   4.021   2.886   4.421  0.4532  2.0994 -0.8439
 8462TIP3    H246878   4.120   2.772   4.412 -1.1571  0.3767  2.2091
 8463TIP3   OH246879   3.532   5.815  12.729 -0.2560 -0.4893 -0.1176
 8463TIP3    H146880   3.591   5.869  12.783  0.2870 -0.5781 -0.6229
 8463TIP3    H246881   3.572   5.816  12.642 -2.3059  1.5116 -1.0806
 8464TIP3   OH246882   1.831   4.706  11.462  0.0348 -0.2682 -0.2603
 8464TIP3    H146883   1.742   4.687  11.491  0.4890 -1.2884  0.4917
 8464TIP3    H246884   1.859   4.779  11.518 -0.8731  1.1030 -1.5586
 8465TIP3   OH246885   0.591   6.567  12.055  0.3121 -0.0450 -0.0074
 8465TIP3    H146886   0.674   6.610  12.032 -0.1029  0.0411 -1.3507
 8465TIP3    H246887   0.528   6.639  12.057  0.1165 -0.2267  0.2609
 8466TIP3   OH246888   0.585   1.466  13.725 -0.3944 -0.1633  0.2291
 8466TIP3    H146889   0.504   1.506  13.695 -0.1185 -0.0685 -0.3839
 8466TIP3    H246890   0.651   1.494  13.662 -0.1651 -1.4486 -0.1153
 8467TIP3   OH246891   2.726   3.556  13.323  0.0616  0.2298  0.1924
 8467TIP3    H146892   2.819   3.551  13.344 -0.1101 -1.3285  0.6435
 8467TIP3    H246893   2.682   3.534  13.405 -0.6877  0.1125 -0.2360
 8468TIP3   OH246894   3.363   2.891   1.160  0.3639 -0.4512  0.1859
 8468TIP3    H146895   3.339   2.910   1.069  2.6542  1.5997 -0.0517
 8468TIP3    H246896   3.438   2.831   1.152  0.9479  0.2115  0.7043
 8469TIP3   OH246897   0.143   0.915  14.120  0.5381  0.0969 -0.1937
 8469TIP3    H146898   0.123   0.894  14.029 -0.4802 -0.5613  0.1656
 8469TIP3    H246899   0.062   0.954  14.154  1.2049  1.1705  0.1900
 8470TIP3   OH246900   3.134   1.719  14.394  0.1875  0.1594 -0.2042
 8470TIP3    H146901   3.105   1.769  14.318  0.7346  0.5495 -0.1604
 8470TIP3    H246902   3.142   1.784  14.464  0.5668 -0.0456 -0.0521
 8471TIP3   OH246903   0.409   1.226  15.064 -1.1320 -0.0807  0.1131
 8471TIP3    H146904   0.404   1.156  15.000  1.2781  1.0355 -1.3651
 8471TIP3    H246905   0.492   1.212  15.110 -1.0708  1.2246  0.4483
 8472TIP3   OH246906   3.847   7.055  14.111 -0.0077  0.0980  0.1015
 8472TIP3    H146907   3.805   7.094  14.035  0.7526  1.2765  0.2728
 8472TIP3    H246908   3.917   7.116  14.134  1.3332 -1.4655  0.2663
 8473TIP3   OH246909   5.661   6.989  11.791 -0.4034  0.2206 -0.2653
 8473TIP3    H146910   5.673   7.012  11.699  0.0630 -2.3333 -0.8688
 8473TIP3    H246911   5.739   7.023  11.835 -1.2375  2.6075 -0.5566
 8474TIP3   OH246912   2.586   2.196  11.191 -0.7473 -0.3324  0.0291
 8474TIP3    H146913   2.668   2.227  11.230 -0.7966 -1.9154  1.5009
 8474TIP3    H246914   2.570   2.255  11.118  0.4852  1.4447  1.1393
 8475TIP3   OH246915   6.783   4.255  10.861  0.6746  0.0922 -0.2085
 8475TIP3    H146916   6.832   4.181  10.896  1.4725  0.6852 -0.0390
 8475TIP3    H246917   6.817   4.267  10.773 -0.0862 -0.2987 -0.5608
 8476TIP3   OH246918   5.793   2.989   0.630  0.5487 -0.1148 -0.0646
 8476TIP3    H146919   5.844   2.961   0.705  0.5923  1.5562  0.5444
 8476TIP3    H246920   5.763   3.077   0.652 -0.6895 -0.1870 -1.3706
 8477TIP3   OH246921   0.099   2.213  12.182 -0.3588 -0.1907 -0.7861
 8477TIP3    H146922   0.047   2.255  12.114  0.2458 -0.6228 -1.5111
 8477TIP3    H246923   0.148   2.285  12.223 -1.0956  0.1397 -0.4643
 8478TIP3   OH246924   1.583   0.648  13.257 -0.0208 -0.5454  0.2647
 8478TIP3    H146925   1.560   0.685  13.171  1.6853 -0.0295  0.0095
 8478TIP3    H246926   1.547   0.710  13.320  0.6906  0.2762 -0.1272
 8479TIP3   OH246927   7.119   2.412  13.361  0.3604 -0.8206 -0.0621
 8479TIP3    H146928   7.158   2.436  13.446  1.6302  2.5796 -1.5099
 8479TIP3    H246929   7.032   2.453  13.362  0.9712  0.5436 -0.9582
 8480TIP3   OH246930   2.476   4.753  13.906 -0.6237 -0.7630  0.0258
 8480TIP3    H146931   2.415   4.824  13.884  0.5394  0.3608  0.3288
 8480TIP3    H246932   2.549   4.797  13.950  0.7319 -1.9844 -0.9489
 8481TIP3   OH246933   5.414   5.693   0.080 -0.1372  0.0604  0.4819
 8481TIP3    H146934   5.484   5.731   0.025  0.8824 -2.7303 -0.2724
 8481TIP3    H246935   5.333   5.713   0.033  0.4865  0.1645 -0.5658
 8482TIP3   OH246936   2.377   5.434  11.762  0.2421  0.0941  0.2051
 8482TIP3    H146937   2.469   5.457  11.768  0.0617  0.6419  0.8838
 8482TIP3    H246938   2.352   5.409  11.851 -0.4257  0.5756  0.1607
 8483TIP3   OH246939   2.630   5.882  13.742 -0.3011 -0.4002  0.5750
 8483TIP3    H146940   2.689   5.807  13.734 -1.2308 -1.1742  0.8003
 8483TIP3    H246941   2.679   5.947  13.791  0.7417 -0.6303 -0.1579
 8484TIP3   OH246942   1.273   4.485  11.485  0.0012 -0.1274  0.2090
 8484TIP3    H146943   1.179   4.489  11.470 -0.2529  0.4887  1.7664
 8484TIP3    H246944   1.286   4.535  11.566  1.5351 -1.0511  0.5615
 8485TIP3   OH246945   1.802   0.594  13.046  0.4285 -0.3428 -0.1874
 8485TIP3    H146946   1.797   0.634  12.959 -0.3052 -0.3563 -0.1560
 8485TIP3    H246947   1.710   0.580  13.071  0.6474 -0.7177  0.4115
 8486TIP3   OH246948   2.190   1.189  11.630 -0.1570  1.1687  0.0548
 8486TIP3    H146949   2.125   1.153  11.689 -0.3583  0.9600 -0.2924
 8486TIP3    H246950   2.139   1.237  11.565  0.0779  1.6576  0.2239
 8487TIP3   OH246951   2.628   7.076   1.373 -0.0029 -0.2283 -0.1779
 8487TIP3    H146952   2.540   7.091   1.408  0.0963 -1.2490  0.5540
 8487TIP3    H246953   2.621   6.993   1.326  0.6311 -0.4693  0.1471
 8488TIP3   OH246954   2.056   1.055  14.702 -0.1520  0.4401  0.0396
 8488TIP3    H146955   2.035   0.972  14.746  0.7206  0.0318 -0.2970
 8488TIP3    H246956   2.132   1.089  14.749  2.1355 -1.0507 -2.3951
 8489TIP3   OH246957   6.542   2.658  12.032  0.1864 -0.0374  0.1568
 8489TIP3    H146958   6.456   2.616  12.031  0.0442  0.2577 -2.6434
 8489TIP3    H246959   6.524   2.752  12.030  0.5479  0.0111 -1.9856
 8490TIP3   OH246960   3.342   5.774   3.031 -0.0661 -0.1465 -0.5677
 8490TIP3    H146961   3.302   5.698   3.074 -0.8369  1.0749  0.9436
 8490TIP3    H246962   3.305   5.773   2.943  0.2592 -1.7601 -0.7049
 8491TIP3   OH246963   4.176   0.728  11.600  0.1431 -0.5339 -0.9071
 8491TIP3    H146964   4.208   0.757  11.686 -1.7376  0.0502 -0.3749
 8491TIP3    H246965   4.246   0.673  11.565  2.7433  2.5430 -0.8060
 8492TIP3   OH246966   6.508   5.560   0.770  0.0852  0.7676 -0.0812
 8492TIP3    H146967   6.494   5.473   0.807  1.0504  0.2589 -0.8602
 8492TIP3    H246968   6.423   5.585   0.733  0.0658 -0.3277 -0.8226
 8493TIP3   OH246969   6.813   4.842   0.420 -0.6484  0.0954 -0.3532
 8493TIP3    H146970   6.874   4.785   0.466 -0.8440  0.6747  0.6423
 8493TIP3    H246971   6.802   4.801   0.335 -0.3896 -1.0684  0.1615
 8494TIP3   OH246972   3.582   2.958  12.774  0.8636  0.0143 -0.2002
 8494TIP3    H146973   3.642   3.023  12.737 -0.8556  1.6991 -0.0791
 8494TIP3    H246974   3.497   3.002  12.776 -0.1554 -1.9462  0.7069
 8495TIP3   OH246975   1.431   0.174   1.313 -0.1242  0.1711  0.1127
 8495TIP3    H146976   1.349   0.127   1.320 -0.1397  0.1839  0.0133
 8495TIP3    H246977   1.454   0.196   1.403 -0.9589  1.4205  0.0421
 8496TIP3   OH246978   2.454   5.025  12.241 -0.3940 -0.6054 -0.1767
 8496TIP3    H146979   2.377   5.081  12.230 -0.7388 -1.2963 -1.3914
 8496TIP3    H246980   2.420   4.943  12.275 -0.0346 -0.4974  0.4544
 8497TIP3   OH246981   6.926   3.248  12.601 -0.8641 -0.0831 -0.3953
 8497TIP3    H146982   6.903   3.193  12.676 -0.6861  1.3977  0.7609
 8497TIP3    H246983   7.016   3.275  12.619 -0.6873 -0.0389 -1.3459
 8498TIP3   OH246984   5.359   5.258   2.028  0.4056  0.2779  0.3548
 8498TIP3    H146985   5.295   5.186   2.032 -1.1509  1.4970 -1.6576
 8498TIP3    H246986   5.432   5.227   2.081 -1.7368 -1.2722  2.5645
 8499TIP3   OH246987   4.193   6.438  14.902 -0.3532  0.1158 -0.2562
 8499TIP3    H146988   4.114   6.399  14.864 -0.6814  0.1609  0.3566
 8499TIP3    H246989   4.170   6.451  14.994  0.6474 -0.5957  0.1028
 8500TIP3   OH246990   1.467   6.461  14.052 -0.0776 -0.9184 -0.1597
 8500TIP3    H146991   1.533   6.509  14.002  0.7816 -0.4800  1.3635
 8500TIP3    H246992   1.439   6.391  13.992  0.1627  0.2132 -1.6312
 8501TIP3   OH246993   2.723   4.402  14.450 -0.1589 -0.2969 -0.1461
 8501TIP3    H146994   2.799   4.343  14.448 -0.6464 -0.9411  0.1655
 8501TIP3    H246995   2.735   4.453  14.530 -0.3739 -0.8290  0.2273
 8502TIP3   OH246996   1.047   2.442  14.477 -0.5686  0.0594  0.1180
 8502TIP3    H146997   0.971   2.384  14.470 -2.0360  2.0949 -1.2005
 8502TIP3    H246998   1.036   2.486  14.561 -1.0397  0.6205 -0.2383
 8503TIP3   OH246999   5.009   6.544  14.067 -0.5548  0.1270  0.7049
 8503TIP3    H147000   4.999   6.498  14.151  3.0295 -0.7558  0.7009
 8503TIP3    H247001   4.969   6.485  14.003  1.9469 -2.0096  1.0257
 8504TIP3   OH247002   2.212   2.504  14.771  0.6869 -0.5955 -0.1798
 8504TIP3    H147003   2.117   2.503  14.758  0.4591  0.5848  1.3227
 8504TIP3    H247004   2.248   2.503  14.682 -0.7072 -1.4699 -0.7635
 8505TIP3   OH247005   1.812   5.577   0.906  0.0400 -0.3649 -0.0263
 8505TIP3    H147006   1.767   5.595   0.824 -0.0756  0.8972  0.2957
 8505TIP3    H247007   1.755   5.514   0.951  0.3845 -1.4909 -1.1377
 8506TIP3   OH247008   3.249   6.757  14.563  0.3110  0.0705  0.1733
 8506TIP3    H147009   3.298   6.831  14.597  1.1938  0.4073 -1.7874
 8506TIP3    H247010   3.185   6.795  14.502 -0.0731 -0.6688  0.1000
 8507TIP3   OH247011   5.847   5.159  13.428 -0.3697  0.1798 -0.0831
 8507TIP3    H147012   5.790   5.117  13.493  0.1245 -1.2867 -0.5828
 8507TIP3    H247013   5.791   5.172  13.352 -0.6083  0.7130  0.1825
 8508TIP3   OH247014   1.609   6.648  13.306 -0.5483 -0.1026  0.3294
 8508TIP3    H147015   1.587   6.638  13.213  0.5009 -0.6782  0.1353
 8508TIP3    H247016   1.525   6.664  13.349 -1.1966 -1.0277 -0.5692
 8509TIP3   OH247017   0.536   2.325  15.098  0.2942 -0.5057  0.1595
 8509TIP3    H147018   0.505   2.409  15.064 -1.0330 -0.7616  0.7087
 8509TIP3    H247019   0.584   2.347  15.178  2.2653 -0.0338 -1.1166
 8510TIP3   OH247020   0.548   4.312   2.763 -0.2857  0.0432 -0.6011
 8510TIP3    H147021   0.574   4.289   2.673  0.9657  0.8816 -0.4667
 8510TIP3    H247022   0.630   4.333   2.807 -0.8276 -1.0089  0.9415
 8511TIP3   OH247023   1.990   2.584  14.284 -0.1719  0.3144 -0.5356
 8511TIP3    H147024   1.971   2.660  14.229  1.1189  0.1895 -1.1684
 8511TIP3    H247025   2.052   2.617  14.350 -0.0495 -0.0597 -0.4624
 8512TIP3   OH247026   3.352   3.724  15.286  0.9337  0.1379 -0.5743
 8512TIP3    H147027   3.338   3.816  15.310  0.7315  0.0705 -0.4308
 8512TIP3    H247028   3.366   3.725  15.192 -0.2937  0.1783 -0.7628
 8513TIP3   OH247029   6.499   5.015   1.182  0.2388  0.3856 -0.5417
 8513TIP3    H147030   6.515   4.921   1.174  1.6359  0.6584 -1.0714
 8513TIP3    H247031   6.560   5.055   1.120  1.1282  1.7754  1.2040
 8514TIP3   OH247032   0.940   0.229  12.959 -0.0121  0.5916  0.4377
 8514TIP3    H147033   0.851   0.256  12.934 -0.2933  0.5990  1.4338
 8514TIP3    H247034   0.964   0.287  13.031  0.7435  0.4764  0.2859
 8515TIP3   OH247035   1.584   4.885  11.999  1.1521 -0.1442 -0.1260
 8515TIP3    H147036   1.539   4.810  11.959 -0.2935 -0.7002  2.4551
 8515TIP3    H247037   1.666   4.849  12.033  0.4429 -0.5707  1.1403
 8516TIP3   OH247038   5.918   6.071   0.224 -0.5151 -0.2027  0.6743
 8516TIP3    H147039   5.847   6.058   0.288 -0.7794  1.9889  0.8705
 8516TIP3    H247040   5.971   6.141   0.262  0.9060 -0.7948 -0.2092
 8517TIP3   OH247041   5.295   6.048   1.223  0.4424  0.1887  0.0747
 8517TIP3    H147042   5.363   6.076   1.285  1.8384 -2.2000 -0.3389
 8517TIP3    H247043   5.245   6.128   1.205  2.7193  1.8483  0.9022
 8518TIP3   OH247044   5.252   6.093  13.081  0.6072  0.1344  0.3201
 8518TIP3    H147045   5.294   6.177  13.062  0.9771  0.1010  0.9841
 8518TIP3    H247046   5.221   6.102  13.171  0.1721 -0.2478  0.2125
 8519TIP3   OH247047   6.305   4.445   0.927 -0.4004 -0.3310 -0.2376
 8519TIP3    H147048   6.237   4.477   0.867 -1.2345 -3.5760 -1.1285
 8519TIP3    H247049   6.264   4.370   0.970  1.0279  0.5132  2.7087
 8520TIP3   OH247050   1.848   3.546   0.214  0.0183  0.3515 -0.3065
 8520TIP3    H147051   1.832   3.456   0.183 -0.3633  0.9984 -2.0185
 8520TIP3    H247052   1.776   3.597   0.177 -1.6517  0.8246  3.3583
 8521TIP3   OH247053   5.658   5.455   2.217  0.0852 -0.3520 -0.2422
 8521TIP3    H147054   5.619   5.453   2.130 -1.5630  2.0823  0.3616
 8521TIP3    H247055   5.590   5.493   2.273  1.6529 -0.4195  1.7926
 8522TIP3   OH247056   5.014   4.910   0.785  0.0959 -0.2031 -0.0541
 8522TIP3    H147057   5.021   4.855   0.863  1.0009 -0.6345 -0.4270
 8522TIP3    H247058   4.921   4.913   0.765 -0.1241 -0.2549  0.9242
 8523TIP3   OH247059   2.899   4.467   2.775 -0.0963 -0.8973 -0.3337
 8523TIP3    H147060   2.828   4.509   2.726 -1.8647 -1.1209  1.9680
 8523TIP3    H247061   2.979   4.512   2.746 -1.3921  0.7079 -1.4886
 8524TIP3   OH247062   3.446   4.613  14.255  0.4128  0.2331 -0.1326
 8524TIP3    H147063   3.496   4.532  14.257  1.4777  0.9043  2.3234
 8524TIP3    H247064   3.509   4.679  14.225  0.2257  0.5855  0.2405
 8525TIP3   OH247065   1.837   7.041  12.170  0.0165 -0.0903  0.0305
 8525TIP3    H147066   1.903   6.971  12.172 -1.0456 -1.0846  1.3199
 8525TIP3    H247067   1.775   7.013  12.103  0.4874  0.4615 -0.6386
 8526TIP3   OH247068   4.413   6.840  10.024  0.3477 -0.3279  0.6282
 8526TIP3    H147069   4.363   6.913   9.987 -0.4340 -0.3157  1.7002
 8526TIP3    H247070   4.444   6.792   9.947  0.2011  0.6709 -0.0787
 8527TIP3   OH247071   6.350   5.876  14.134  0.3610  0.1402  0.2474
 8527TIP3    H147072   6.254   5.876  14.136  0.3181 -2.3370 -0.6275
 8527TIP3    H247073   6.375   5.953  14.185 -2.0712  0.2887  1.2731
 8528TIP3   OH247074   1.948   4.450  11.424 -0.5061  0.0397  0.0418
 8528TIP3    H147075   1.893   4.526  11.439 -1.0870 -0.7053  1.9275
 8528TIP3    H247076   1.889   4.375  11.433  0.6640 -0.7452  1.6552
 8529TIP3   OH247077   4.830   2.003  12.661  0.4723  0.5573  0.1180
 8529TIP3    H147078   4.825   2.029  12.569  0.8532  0.9212  0.2028
 8529TIP3    H247079   4.841   1.908  12.658  1.7527  0.7148 -0.2338
 8530TIP3   OH247080   4.833   4.376  11.120 -0.1581  0.3426  0.6324
 8530TIP3    H147081   4.889   4.298  11.111  0.9191  1.1705  0.0178
 8530TIP3    H247082   4.753   4.354  11.072  2.0321  1.4002 -3.7228
 8531TIP3   OH247083   2.762   0.265  13.009  0.1669  0.2737 -0.2217
 8531TIP3    H147084   2.844   0.234  13.048 -0.3235  1.1792  1.6230
 8531TIP3    H247085   2.696   0.202  13.038 -0.0502  0.4243 -0.3889
 8532TIP3   OH247086   6.347   4.042  10.013  0.0589 -0.4758 -0.0685
 8532TIP3    H147087   6.273   4.102  10.020  0.3831  0.0234 -0.7545
 8532TIP3    H247088   6.308   3.957   9.990 -0.3608 -0.3946  0.3510
 8533TIP3   OH247089   1.360   4.453  13.454 -0.4550 -0.2410 -0.0881
 8533TIP3    H147090   1.305   4.388  13.498 -1.1779 -0.4140 -1.2434
 8533TIP3    H247091   1.368   4.525  13.517  1.1042 -1.8079  1.5777
 8534TIP3   OH247092   1.921   5.103  13.963 -0.4622  0.0568  0.1227
 8534TIP3    H147093   1.957   5.192  13.954 -3.7571  1.3688 -0.9559
 8534TIP3    H247094   1.908   5.092  14.057  1.5538 -0.0024  0.4276
 8535TIP3   OH247095   3.150   5.484  15.484 -0.0555  0.1865  0.0073
 8535TIP3    H147096   3.150   5.528  15.570  1.7067  2.0069 -0.9054
 8535TIP3    H247097   3.239   5.451  15.474 -0.8648 -1.9951 -0.1681
 8536TIP3   OH247098   2.253   1.409  14.490 -0.0608 -0.4022 -0.1012
 8536TIP3    H147099   2.179   1.454  14.531  0.2826 -0.8379  1.0100
 8536TIP3    H247100   2.216   1.328  14.457 -0.4771  0.2407 -1.2616
 8537TIP3   OH247101   1.309   3.352  14.998 -0.1780  0.6156  0.4542
 8537TIP3    H147102   1.276   3.408  14.929  1.3325  1.3389  0.3045
 8537TIP3    H247103   1.231   3.317  15.041 -1.1172  0.3324 -1.4595
 8538TIP3   OH247104   1.080   1.547  13.539  0.8528 -0.1220 -0.5526
 8538TIP3    H147105   1.082   1.632  13.495 -0.1730  0.4227  0.3890
 8538TIP3    H247106   1.157   1.501  13.507  2.0852  1.6258 -0.1964
 8539TIP3   OH247107   6.705   4.620   2.859  0.1804  0.1360  0.5460
 8539TIP3    H147108   6.758   4.700   2.862  2.0695 -1.0931  0.6341
 8539TIP3    H247109   6.769   4.550   2.847 -1.5054 -1.3197 -0.0555
 8540TIP3   OH247110   3.323   0.103  14.798  0.3505  0.7630  0.0351
 8540TIP3    H147111   3.338   0.188  14.839 -0.5237  0.7033  0.4932
 8540TIP3    H247112   3.274   0.123  14.718 -2.0076  0.5134  1.3704
 8541TIP3   OH247113   1.241   0.152  12.774 -0.1455 -0.2059 -0.0125
 8541TIP3    H147114   1.150   0.180  12.784  0.1582  0.9620 -0.4601
 8541TIP3    H247115   1.278   0.214  12.712  0.4554 -1.8249 -1.2852
 8542TIP3   OH247116   7.073   3.065  14.198  0.3551  0.4615 -0.5574
 8542TIP3    H147117   7.148   3.122  14.215  1.3539 -0.8134 -0.5806
 8542TIP3    H247118   7.032   3.101  14.120  0.9347  1.1795 -0.5328
 8543TIP3   OH247119   0.465   6.766  13.481 -0.1459  0.7926  0.2152
 8543TIP3    H147120   0.560   6.773  13.474 -0.2062 -0.3889 -2.4925
 8543TIP3    H247121   0.433   6.854  13.466  0.5135  1.3415  1.8659
 8544TIP3   OH247122   4.620   3.918  12.053 -0.8051 -0.0658 -0.7089
 8544TIP3    H147123   4.681   3.975  12.101 -2.1638 -1.6425  3.1641
 8544TIP3    H247124   4.668   3.836  12.044 -1.0814 -0.2181 -0.7616
 8545TIP3   OH247125   2.760   3.001  14.252 -0.1347 -0.0030 -0.2669
 8545TIP3    H147126   2.686   3.047  14.213  0.1836 -0.1309 -1.0277
 8545TIP3    H247127   2.726   2.913  14.272 -0.9980  0.8127  1.9979
 8546TIP3   OH247128   6.711   1.914   0.608  0.0795 -0.5218 -0.5877
 8546TIP3    H147129   6.724   1.896   0.702 -0.6635 -1.0810 -0.5843
 8546TIP3    H247130   6.719   1.828   0.566  0.1057 -0.3179 -1.0011
 8547TIP3   OH247131   1.829   4.462  10.796  0.0678  0.1543  0.5231
 8547TIP3    H147132   1.790   4.407  10.728 -1.3841 -1.1147  2.3368
 8547TIP3    H247133   1.911   4.418  10.818  0.4278  0.4392 -0.2101
 8548TIP3   OH247134   0.089   4.322   0.540  0.4376  0.8425  0.0542
 8548TIP3    H147135   0.127   4.376   0.470  0.0938 -1.0295 -1.5972
 8548TIP3    H247136   0.032   4.260   0.495 -1.3003  0.8610  2.1779
 8549TIP3   OH247137   4.812   5.914  13.774 -0.1525  0.0633 -0.2305
 8549TIP3    H147138   4.827   5.899  13.680  1.9283 -0.7522  0.2061
 8549TIP3    H247139   4.897   5.897  13.815 -1.2586 -0.4565  1.9244
 8550TIP3   OH247140   0.631   1.100   1.606  0.2065 -0.1462 -0.2959
 8550TIP3    H147141   0.718   1.060   1.613 -0.3912 -1.4405 -0.2083
 8550TIP3    H247142   0.623   1.125   1.514 -0.4525 -2.6235 -0.9361
 8551TIP3   OH247143   6.316   4.666  12.800 -0.2361 -0.3070  0.0077
 8551TIP3    H147144   6.300   4.598  12.735  1.7767 -1.2019  0.4430
 8551TIP3    H247145   6.299   4.624  12.884  2.8828 -0.8620  0.3961
 8552TIP3   OH247146   4.726   0.755   1.150  0.2856 -0.1281 -0.0394
 8552TIP3    H147147   4.703   0.666   1.122  0.3078 -0.0593 -0.2743
 8552TIP3    H247148   4.676   0.812   1.093  1.2208  0.0253 -0.7139
 8553TIP3   OH247149   4.713   6.909  15.348  0.1938 -0.4378 -0.0591
 8553TIP3    H147150   4.677   6.838  15.400 -0.5065  1.5614  2.2827
 8553TIP3    H247151   4.639   6.941  15.296  0.1876 -0.5531 -0.1226
 8554TIP3   OH247152   0.437   1.618  14.718  0.2405 -0.0279  0.1578
 8554TIP3    H147153   0.388   1.678  14.775 -0.3453  1.0306 -1.4278
 8554TIP3    H247154   0.375   1.548  14.698  0.1314  0.1043  0.0339
 8555TIP3   OH247155   4.719   6.239   4.363 -0.6157 -0.0847  0.2374
 8555TIP3    H147156   4.690   6.330   4.371  0.3561  0.3477 -0.8963
 8555TIP3    H247157   4.782   6.227   4.433 -1.3491 -0.1385  0.8925
 8556TIP3   OH247158   2.336   2.721  13.555 -0.3117  0.2767  0.2349
 8556TIP3    H147159   2.367   2.770  13.630  0.0024 -0.3168  0.5000
 8556TIP3    H247160   2.405   2.731  13.489  0.3611 -0.8690  0.7483
 8557TIP3   OH247161   2.913   6.247  14.225  0.2581  0.1369 -0.7316
 8557TIP3    H147162   2.944   6.327  14.267 -2.0134  0.9835 -0.6364
 8557TIP3    H247163   2.897   6.186  14.298 -0.2653  0.3831 -0.6467
 8558TIP3   OH247164   0.541   3.009  10.536 -0.4938  0.2549  0.0523
 8558TIP3    H147165   0.630   2.981  10.557 -0.7892  0.4590  1.6980
 8558TIP3    H247166   0.552   3.090  10.487  0.2418  0.0600 -0.1086
 8559TIP3   OH247167   2.422   3.523  14.231 -0.3928  0.5175  0.1640
 8559TIP3    H147168   2.409   3.502  14.323 -0.0127 -0.3621  0.0253
 8559TIP3    H247169   2.517   3.527  14.220 -0.4055 -0.4325 -0.4008
 8560TIP3   OH247170   6.244   4.288   2.445 -0.3668 -0.0999  0.0496
 8560TIP3    H147171   6.278   4.376   2.432  0.2036  0.0309  2.1366
 8560TIP3    H247172   6.219   4.258   2.358  0.6010  1.6421 -0.8496
 8561TIP3   OH247173   3.670   0.047   0.253 -0.2174 -0.2750  0.0862
 8561TIP3    H147174   3.590   0.057   0.305  0.4357  3.2810  0.4941
 8561TIP3    H247175   3.658   0.104   0.178  1.5041 -0.5557 -0.4330
 8562TIP3   OH247176   5.885   6.121   1.018 -0.3338 -0.2182  0.5038
 8562TIP3    H147177   5.917   6.047   1.070 -0.9222 -1.6041 -1.0688
 8562TIP3    H247178   5.962   6.178   1.008  0.3289 -0.9878  1.0817
 8563TIP3   OH247179   5.921   5.444  13.184 -0.3516  0.2766  0.0935
 8563TIP3    H147180   5.898   5.439  13.277 -0.3171 -0.6043  0.0634
 8563TIP3    H247181   5.931   5.537  13.167  1.0953  0.3855  1.3498
 8564TIP3   OH247182   5.054   2.660  13.543 -0.0719  0.3022  0.1179
 8564TIP3    H147183   5.134   2.624  13.506 -1.1817 -2.4427  0.2391
 8564TIP3    H247184   5.065   2.654  13.638 -0.0501  0.7548  0.1437
 8565TIP3   OH247185   0.680   4.436   3.965  0.2527 -0.8453 -0.0671
 8565TIP3    H147186   0.762   4.398   3.996  0.9661  0.3717 -0.4535
 8565TIP3    H247187   0.706   4.509   3.908 -1.0834 -0.2978 -0.0074
 8566TIP3   OH247188   1.180   0.152  12.393 -0.3628 -0.3190  0.2151
 8566TIP3    H147189   1.200   0.088  12.462  0.9512 -0.5160 -0.3343
 8566TIP3    H247190   1.216   0.234  12.425 -2.0479  0.1705  0.9173
 8567TIP3   OH247191   6.198   4.047   0.439  0.3339  0.1892 -0.3131
 8567TIP3    H147192   6.136   4.120   0.439 -1.4419 -1.2813 -1.4244
 8567TIP3    H247193   6.167   3.988   0.507 -1.1697 -1.8754 -2.6853
 8568TIP3   OH247194   2.397   5.667  13.387 -0.1350  0.3795 -0.0103
 8568TIP3    H147195   2.362   5.738  13.441 -1.2628  0.7621 -1.2277
 8568TIP3    H247196   2.337   5.594  13.402  0.2506  0.1001  0.1873
 8569TIP3   OH247197   6.304   5.654  10.935  0.3929  0.6506  0.3553
 8569TIP3    H147198   6.210   5.639  10.940  0.2862  1.5495  1.1432
 8569TIP3    H247199   6.326   5.639  10.843 -0.5078  0.4087  0.1756
 8570TIP3   OH247200   3.674   2.382  13.812  0.0706 -0.3014  0.4803
 8570TIP3    H147201   3.654   2.462  13.861 -1.9176  0.5458 -1.6396
 8570TIP3    H247202   3.743   2.340  13.863 -0.8838  1.2841  3.2246
 8571TIP3   OH247203   3.033   5.363  12.515  0.1176 -0.1524  0.3104
 8571TIP3    H147204   3.071   5.434  12.567 -0.0949 -1.6062  2.5164
 8571TIP3    H247205   2.948   5.346  12.557 -0.5298 -0.6743 -1.1654
 8572TIP3   OH247206   4.123   5.101  14.781  0.2643 -0.9457  0.1619
 8572TIP3    H147207   4.129   5.010  14.752 -1.3755 -0.5894 -1.3862
 8572TIP3    H247208   4.080   5.096  14.866 -1.2329 -1.5456 -0.5970
 8573TIP3   OH247209   3.289   3.877  11.336 -0.0780 -0.2153 -0.0821
 8573TIP3    H147210   3.353   3.893  11.405 -0.9110  1.6881  0.2810
 8573TIP3    H247211   3.207   3.861  11.382 -0.1984 -1.0719 -0.5851
 8574TIP3   OH247212   4.573   1.598  13.773 -0.4176  0.2237  0.2547
 8574TIP3    H147213   4.537   1.661  13.836 -1.7428 -0.7978  0.5506
 8574TIP3    H247214   4.558   1.513  13.813  0.1635 -0.3573 -0.7362
 8575TIP3   OH247215   5.453   2.362  11.528 -0.2278  0.2873  0.1549
 8575TIP3    H147216   5.544   2.347  11.555 -0.2886 -1.4774 -0.5440
 8575TIP3    H247217   5.401   2.309  11.587 -0.7391  0.5512 -0.0530
 8576TIP3   OH247218   6.624   5.374   0.102 -0.2995  0.1301  0.0082
 8576TIP3    H147219   6.689   5.384   0.171  1.4754  0.8427 -1.7177
 8576TIP3    H247220   6.634   5.283   0.072  1.2631  0.7613 -1.5155
 8577TIP3   OH247221   2.082   3.005  11.045 -0.3367  0.4612 -0.0922
 8577TIP3    H147222   2.062   2.960  10.963 -0.4385  0.9206 -0.3250
 8577TIP3    H247223   2.177   3.003  11.052 -0.4592 -2.3927  1.3913
 8578TIP3   OH247224   6.609   0.365   0.193  0.4827  0.3503 -0.0507
 8578TIP3    H147225   6.627   0.283   0.239 -1.6929 -0.1043  0.0305
 8578TIP3    H247226   6.584   0.426   0.262 -0.6160  0.2822 -0.3728
 8579TIP3   OH247227   3.433   6.624   1.911  0.5873  0.0989  0.4071
 8579TIP3    H147228   3.361   6.604   1.852 -0.3082 -1.5410  2.0049
 8579TIP3    H247229   3.510   6.585   1.869  0.2259  0.1715 -0.3401
 8580TIP3   OH247230   1.207   6.886  10.615 -0.4267 -0.0027 -0.8159
 8580TIP3    H147231   1.163   6.936  10.684 -1.5367  0.2333 -1.6910
 8580TIP3    H247232   1.299   6.913  10.621 -0.6348  0.5332  0.1154
 8581TIP3   OH247233   5.615   6.938   1.546  0.1942 -0.1987 -0.6570
 8581TIP3    H147234   5.552   6.974   1.609  0.6965  1.7830 -1.2412
 8581TIP3    H247235   5.652   6.861   1.590  0.1230  0.8205  1.2434
 8582TIP3   OH247236   6.800   3.557  12.456  0.1440  0.0640  0.5135
 8582TIP3    H147237   6.797   3.462  12.445  2.3951 -0.0878  1.0463
 8582TIP3    H247238   6.888   3.582  12.430 -0.0710  1.8823  1.4271
 8583TIP3   OH247239   7.173   2.898  11.017 -0.3142 -0.2400  0.3650
 8583TIP3    H147240   7.217   2.903  10.932 -1.2007 -0.0910 -0.0999
 8583TIP3    H247241   7.157   2.804  11.030 -0.3047 -0.2513  0.2968
 8584TIP3   OH247242   7.136   2.737  12.834  0.6090 -0.7304 -0.3431
 8584TIP3    H147243   7.214   2.735  12.779  0.4199 -0.5692 -0.6164
 8584TIP3    H247244   7.164   2.781  12.914  0.4866  0.4249 -0.9254
 8585TIP3   OH247245   1.787   5.403  14.370 -0.6818 -0.0881 -0.3700
 8585TIP3    H147246   1.772   5.323  14.320 -1.4369 -0.1835  0.0051
 8585TIP3    H247247   1.842   5.376  14.444 -1.6986 -0.4411  0.2651
 8586TIP3   OH247248   2.530   3.193  14.364  0.3924 -0.6459  0.3149
 8586TIP3    H147249   2.495   3.204  14.453 -0.3813  0.9980 -0.1661
 8586TIP3    H247250   2.479   3.121  14.327 -0.1638 -0.4994  0.7836
 8587TIP3   OH247251   4.363   6.466  15.544  0.0923 -0.0347  0.1672
 8587TIP3    H147252   4.445   6.418  15.553 -0.3163 -0.5527  1.2242
 8587TIP3    H247253   4.327   6.469  15.633 -0.3266  1.4473 -0.0280
 8588TIP3   OH247254   4.533   3.594  15.533  0.2576  0.6782  0.2194
 8588TIP3    H147255   4.566   3.524  15.590  0.7206  1.3227  0.7493
 8588TIP3    H247256   4.599   3.602  15.465  0.5361  1.0418  0.5266
 8589TIP3   OH247257   3.757   3.082   2.393 -0.0587 -0.4872  0.4609
 8589TIP3    H147258   3.677   3.062   2.442  0.3300 -0.7294  1.0012
 8589TIP3    H247259   3.736   3.058   2.303  0.1905 -2.8040  0.9838
 8590TIP3   OH247260   1.759   5.262   4.374 -0.3721  0.7350  0.1101
 8590TIP3    H147261   1.774   5.296   4.286  5.5885 -0.7063  0.4134
 8590TIP3    H247262   1.822   5.308   4.430 -0.6823 -1.8654  2.7532
 8591TIP3   OH247263   2.661   5.610  10.249  0.6065  0.5404 -0.7003
 8591TIP3    H147264   2.704   5.532  10.284  0.5441  0.4294 -0.8679
 8591TIP3    H247265   2.645   5.589  10.157 -2.7793 -0.7522  0.0950
 8592TIP3   OH247266   5.414   2.786  11.230 -0.3348  0.4825 -0.2499
 8592TIP3    H147267   5.475   2.743  11.291  0.6892 -2.0845 -2.9565
 8592TIP3    H247268   5.329   2.780  11.273 -0.1237 -3.8297 -0.2405
 8593TIP3   OH247269   1.047   5.500   0.648  0.0884  0.0301 -0.1571
 8593TIP3    H147270   1.049   5.588   0.610 -0.4642  1.1743  2.3799
 8593TIP3    H247271   0.962   5.495   0.692  0.1067 -1.8046 -0.2780
 8594TIP3   OH247272   3.825   2.876   1.517 -0.2876 -0.0604  0.0868
 8594TIP3    H147273   3.824   2.969   1.494 -1.1652  0.1942  1.0974
 8594TIP3    H247274   3.844   2.875   1.611  0.9612 -0.9715 -0.1575
 8595TIP3   OH247275   3.288   3.633  13.507  0.1069  0.0058  0.1378
 8595TIP3    H147276   3.322   3.565  13.449  0.2845 -0.4076  0.7259
 8595TIP3    H247277   3.359   3.697  13.513  0.9160 -0.9918  1.5831
 8596TIP3   OH247278   3.300   0.056  15.105 -0.0574  0.2213 -0.2240
 8596TIP3    H147279   3.313   0.143  15.069 -0.3274  0.4057  0.1266
 8596TIP3    H247280   3.305  -0.003  15.029  1.1869  0.4368 -0.3309
 8597TIP3   OH247281   7.127   1.010  12.953 -0.0370 -0.2168  0.0975
 8597TIP3    H147282   7.177   1.083  12.991 -0.8561  0.1451  0.4832
 8597TIP3    H247283   7.048   1.004  13.007 -0.8152 -0.2393 -1.0283
 8598TIP3   OH247284   4.585   3.267  12.266 -0.1208  0.1626  0.1172
 8598TIP3    H147285   4.582   3.211  12.343  3.4979  0.8122  0.8418
 8598TIP3    H247286   4.551   3.351  12.296 -0.0553  0.0154  0.6057
 8599TIP3   OH247287   3.436   5.307  13.571  0.1333  0.5156 -0.4441
 8599TIP3    H147288   3.457   5.325  13.662 -1.6388  2.1921 -0.3393
 8599TIP3    H247289   3.517   5.272  13.534  0.8407 -0.3002  1.7815
 8600TIP3   OH247290   6.237   5.045   1.364 -0.4534  0.6653  0.2993
 8600TIP3    H147291   6.198   4.964   1.333 -0.5314 -0.3747  3.0178
 8600TIP3    H247292   6.309   5.062   1.303  0.3248 -2.1002  0.4153
 8601TIP3   OH247293   4.915   5.180   1.841  0.6120  0.1291 -0.1545
 8601TIP3    H147294   4.930   5.244   1.911 -0.6356  0.4874 -0.1993
 8601TIP3    H247295   4.843   5.126   1.874  0.3451 -0.0060 -0.9601
 8602TIP3   OH247296   1.392   1.553  13.089  0.0901  0.3543 -0.1034
 8602TIP3    H147297   1.423   1.600  13.167 -1.7385  2.5237 -0.6525
 8602TIP3    H247298   1.297   1.551  13.099 -0.0581 -0.5375 -1.6292
 8603TIP3   OH247299   3.680   5.156   0.506 -0.2659 -0.1900  0.2728
 8603TIP3    H147300   3.747   5.140   0.573 -1.3392  0.3785  1.5257
 8603TIP3    H247301   3.599   5.168   0.557 -0.9513  1.0896 -1.0922
 8604TIP3   OH247302   6.725   6.858  12.711 -0.0730  0.2793  0.2794
 8604TIP3    H147303   6.770   6.784  12.670 -0.9610  0.2333 -0.6261
 8604TIP3    H247304   6.788   6.892  12.774  1.3832  0.4598 -1.2569
 8605TIP3   OH247305   1.070   7.122  15.595 -0.2145 -0.4407  0.4156
 8605TIP3    H147306   1.159   7.090  15.588 -0.2772 -1.2416  2.6210
 8605TIP3    H247307   1.015   7.052  15.560  0.0511  0.3796 -1.6737
 8606TIP3   OH247308   2.910   2.133  12.571 -0.3474 -0.5574 -0.3765
 8606TIP3    H147309   2.861   2.092  12.642 -0.3514 -1.1162 -0.7037
 8606TIP3    H247310   2.988   2.169  12.613 -0.8366 -0.0099  0.0783
 8607TIP3   OH247311   6.241   2.742  13.448  0.1609 -0.1617 -0.9550
 8607TIP3    H147312   6.274   2.656  13.422 -0.0881  0.0541 -1.9824
 8607TIP3    H247313   6.151   2.725  13.474  0.3432 -0.3368 -0.4176
 8608TIP3   OH247314   3.722   4.170  14.036  0.0070  0.2621  0.0156
 8608TIP3    H147315   3.646   4.120  14.005  0.8771 -0.0551 -1.6418
 8608TIP3    H247316   3.797   4.112  14.020  0.8815  1.5753 -0.6825
 8609TIP3   OH247317   4.448   3.613  14.764 -0.5539 -0.5190  0.4331
 8609TIP3    H147318   4.399   3.619  14.846  0.7978 -2.8152  1.4500
 8609TIP3    H247319   4.518   3.678  14.772 -0.1332 -1.0748  1.3228
 8610TIP3   OH247320   5.819   0.609  12.632  0.5526  0.6551  0.1901
 8610TIP3    H147321   5.736   0.656  12.627 -1.2868 -2.4451  0.2003
 8610TIP3    H247322   5.842   0.611  12.725 -0.6252 -0.2327  0.5248
 8611TIP3   OH247323   2.633   0.436  13.425 -0.8363 -0.2912  0.2042
 8611TIP3    H147324   2.670   0.492  13.493 -2.1584  1.7786 -0.7372
 8611TIP3    H247325   2.593   0.496  13.363 -0.2051 -2.1803 -2.1054
 8612TIP3   OH247326   7.046   3.071  12.390 -0.1030 -0.6701  0.1444
 8612TIP3    H147327   7.029   3.117  12.472  2.3525 -3.6602  2.4498
 8612TIP3    H247328   6.964   3.026  12.370 -0.7793  0.2403  0.7902
 8613TIP3   OH247329   4.454   2.770  13.549  0.7407  0.4211 -0.4834
 8613TIP3    H147330   4.477   2.694  13.602 -0.2366 -0.1169 -0.8199
 8613TIP3    H247331   4.465   2.845  13.609 -0.6413 -0.2048  0.5847
 8614TIP3   OH247332   0.982   3.301   1.453  0.4820 -0.0390  0.4170
 8614TIP3    H147333   1.042   3.327   1.383 -0.4282  0.9572  0.0016
 8614TIP3    H247334   0.991   3.206   1.457  0.8410 -0.0721 -0.7887
 8615TIP3   OH247335   3.703   6.648  13.050  0.4060 -0.0693  0.3377
 8615TIP3    H147336   3.621   6.650  13.099 -0.5235  0.4698 -1.1967
 8615TIP3    H247337   3.757   6.584  13.096 -0.4747  0.3398  1.9776
 8616TIP3   OH247338   1.215   4.554   0.051 -0.0798  0.5612 -0.1174
 8616TIP3    H147339   1.300   4.511   0.061 -0.3180  0.2296  0.5369
 8616TIP3    H247340   1.225   4.611  -0.025  0.2192 -0.7074 -1.0418
 8617TIP3   OH247341   0.220   6.886   2.820  0.2226  0.0690  0.4744
 8617TIP3    H147342   0.212   6.934   2.902  0.3764 -0.5294  0.8454
 8617TIP3    H247343   0.155   6.816   2.826 -0.0148  0.2346 -0.0702
 8618TIP3   OH247344   2.037   6.076  14.365  0.0581  0.0069  0.4847
 8618TIP3    H147345   2.047   6.165  14.398 -0.6175  0.0966  0.4580
 8618TIP3    H247346   2.067   6.020  14.437 -1.5117  0.1989  1.3167
 8619TIP3   OH247347   5.389   4.069   0.433 -0.2304  0.5974 -0.4717
 8619TIP3    H147348   5.472   4.031   0.464  0.0237  0.6552 -1.0810
 8619TIP3    H247349   5.364   4.013   0.360 -0.8715  0.4204 -0.1224
 8620TIP3   OH247350   4.081   6.581  12.835 -0.1372 -0.7841  0.5649
 8620TIP3    H147351   4.111   6.580  12.926  1.2796 -1.7998  0.1146
 8620TIP3    H247352   4.096   6.491  12.805 -0.8093 -0.5074 -0.5984
 8621TIP3   OH247353   4.152   3.106  15.217  0.5893 -0.0508 -0.1486
 8621TIP3    H147354   4.067   3.065  15.232  1.1358 -0.6499  1.4564
 8621TIP3    H247355   4.183   3.130  15.304  2.2399 -0.1950 -0.6756
 8622TIP3   OH247356   6.572   3.690  12.977 -0.2637  0.9401  0.2533
 8622TIP3    H147357   6.580   3.627  12.906  0.6990  0.1853  1.0150
 8622TIP3    H247358   6.593   3.775  12.937 -1.0155  0.7053 -0.6488
 8623TIP3   OH247359   1.297   4.110  14.713  0.4748  0.3524 -0.3902
 8623TIP3    H147360   1.273   4.088  14.623 -0.4050  0.8777 -0.2990
 8623TIP3    H247361   1.245   4.189  14.733 -0.6619 -0.7532  1.1527
 8624TIP3   OH247362   6.001   0.341   2.007 -0.0861  0.0364 -0.0881
 8624TIP3    H147363   5.958   0.386   2.080 -0.6202 -1.3925  0.4855
 8624TIP3    H247364   6.079   0.301   2.046 -0.3091 -0.6291 -0.3219
 8625TIP3   OH247365   0.401   6.420  14.616 -0.0203  0.1859 -0.1306
 8625TIP3    H147366   0.457   6.345  14.596 -1.3607 -1.1587  1.0356
 8625TIP3    H247367   0.440   6.460  14.694  1.5331  1.6031 -1.6040
 8626TIP3   OH247368   0.489   3.784  12.050  0.0732  0.3846 -0.1073
 8626TIP3    H147369   0.466   3.720  11.982 -0.2356  0.2853  0.0905
 8626TIP3    H247370   0.406   3.827  12.071  0.0605 -0.0060  0.6429
 8627TIP3   OH247371   0.105   2.634  10.378  0.3758 -0.2887 -0.1765
 8627TIP3    H147372   0.048   2.593  10.443 -1.2835  0.7015 -0.9838
 8627TIP3    H247373   0.155   2.698  10.428 -2.0185  1.5876 -0.0895
 8628TIP3   OH247374   5.504   4.471  13.241 -0.3888  0.6539 -0.4251
 8628TIP3    H147375   5.511   4.466  13.336  2.3207  1.7798 -0.5357
 8628TIP3    H247376   5.483   4.381  13.214 -0.1142  0.0991  1.1367
 8629TIP3   OH247377   0.850   1.855   0.515 -0.0437 -0.3280  0.4053
 8629TIP3    H147378   0.903   1.893   0.585 -0.1921 -0.0096  0.3443
 8629TIP3    H247379   0.775   1.914   0.507 -0.9596 -1.3513  1.2294
 8630TIP3   OH247380   4.142   2.848  13.346 -0.2195  0.2674 -0.0897
 8630TIP3    H147381   4.140   2.777  13.410  0.2162 -0.5508 -0.9667
 8630TIP3    H247382   4.059   2.894  13.358 -0.3337 -0.1506  0.7588
 8631TIP3   OH247383   3.918   2.693  14.671 -0.2528  0.6209 -0.4764
 8631TIP3    H147384   4.002   2.660  14.705 -0.4763  1.2702  0.7608
 8631TIP3    H247385   3.853   2.657  14.732 -0.9225 -0.2533 -1.6979
 8632TIP3   OH247386   3.289   5.573  11.535 -0.0534 -0.6237 -0.5025
 8632TIP3    H147387   3.230   5.536  11.470 -1.0465 -0.5885  0.3602
 8632TIP3    H247388   3.260   5.535  11.618 -0.3248  1.1308  0.2286
 8633TIP3   OH247389   5.814   3.373   0.072 -0.2076  0.0756  0.3682
 8633TIP3    H147390   5.880   3.399   0.009 -0.8216 -1.3096 -0.8670
 8633TIP3    H247391   5.733   3.365   0.021 -0.9351 -0.0708  1.5167
 8634TIP3   OH247392   2.472   0.212  13.005  0.0944 -0.6420  0.1627
 8634TIP3    H147393   2.518   0.144  12.956  1.2159 -0.6007  1.1349
 8634TIP3    H247394   2.427   0.165  13.075  1.4876 -0.3451  1.2982
 8635TIP3   OH247395   7.099   4.867   0.115  0.2703  0.0604 -0.1541
 8635TIP3    H147396   7.121   4.774   0.114  1.1550  0.2675 -0.1276
 8635TIP3    H247397   7.183   4.912   0.114 -0.1569  0.8659 -0.4329
 8636TIP3   OH247398   5.158   0.815   0.060  0.0622 -0.3774  1.2974
 8636TIP3    H147399   5.187   0.772   0.140  1.8100  0.6868  1.2568
 8636TIP3    H247400   5.184   0.754  -0.010 -0.5379 -0.8286  1.4635
 8637TIP3   OH247401   5.816   4.602  10.469 -0.5114 -0.6663 -0.0515
 8637TIP3    H147402   5.745   4.663  10.492 -0.1604  0.1059 -1.0076
 8637TIP3    H247403   5.881   4.614  10.538 -0.3389  0.2008 -0.3701
 8638TIP3   OH247404   2.833   3.352   1.926  0.5709 -0.2762 -0.0795
 8638TIP3    H147405   2.738   3.351   1.919  0.5407 -1.5963  0.5065
 8638TIP3    H247406   2.864   3.342   1.836  0.1727  0.7171 -0.3421
 8639TIP3   OH247407   4.486   3.392  14.538 -0.7451 -0.3998  0.6977
 8639TIP3    H147408   4.486   3.301  14.511  0.3831 -0.2302  0.0941
 8639TIP3    H247409   4.534   3.438  14.469 -0.2594  0.4662  1.5979
 8640TIP3   OH247410   2.355   1.708  14.804  0.0783 -0.0975 -0.0338
 8640TIP3    H147411   2.350   1.801  14.781 -0.8602 -0.4274 -1.2374
 8640TIP3    H247412   2.296   1.697  14.878  0.3039  0.3020  0.2006
 8641TIP3   OH247413   6.620   4.701   0.821  0.2981 -0.4170 -0.3787
 8641TIP3    H147414   6.713   4.718   0.806  0.2147 -0.2407 -0.6858
 8641TIP3    H247415   6.578   4.722   0.738 -0.2156  0.9854  0.2299
 8642TIP3   OH247416   7.163   3.461  13.826 -0.1048  0.2566 -0.4998
 8642TIP3    H147417   7.075   3.423  13.829  0.7764 -1.9116 -1.2257
 8642TIP3    H247418   7.218   3.397  13.872  1.0559  1.7086  0.1747
 8643TIP3   OH247419   3.274   3.729   1.048  0.1443 -0.4337 -0.5237
 8643TIP3    H147420   3.356   3.693   1.081 -0.3862  0.4404  1.8840
 8643TIP3    H247421   3.208   3.665   1.073 -0.1006 -0.4202 -1.1354
 8644TIP3   OH247422   2.611   2.267   0.352 -0.2023 -0.0039  0.4680
 8644TIP3    H147423   2.580   2.357   0.355 -0.2477  0.1448 -2.6685
 8644TIP3    H247424   2.532   2.214   0.362 -0.5218  0.3168 -0.3917
 8645TIP3   OH247425   5.611   5.600  13.852  0.2228 -0.3798 -0.3940
 8645TIP3    H147426   5.573   5.514  13.868  1.0283 -0.6669  0.0104
 8645TIP3    H247427   5.584   5.622  13.763 -3.7762  0.9570  1.0594
 8646TIP3   OH247428   3.801   3.686  13.998 -0.0654 -0.4670 -0.6994
 8646TIP3    H147429   3.789   3.734  13.916  0.6419 -0.1164 -0.6001
 8646TIP3    H247430   3.877   3.630  13.981 -1.0893 -1.8115 -0.9379
 8647TIP3   OH247431   2.624   6.904  13.431 -0.3755 -0.3403 -0.6114
 8647TIP3    H147432   2.589   6.945  13.352 -0.8119 -1.0224 -0.7776
 8647TIP3    H247433   2.719   6.905  13.419 -0.3839  0.6235 -0.6075
 8648TIP3   OH247434   5.254   4.241  12.021  0.1276  0.5770  0.1826
 8648TIP3    H147435   5.253   4.320  11.966  0.2228  0.2427 -0.2994
 8648TIP3    H247436   5.347   4.222  12.032  0.0898 -0.0444 -0.5330
 8649TIP3   OH247437   0.649   5.096  12.508 -0.1438  0.4535 -0.4434
 8649TIP3    H147438   0.679   5.032  12.444  2.5002  0.2142  0.9744
 8649TIP3    H247439   0.697   5.074  12.588  0.0892  3.6060  0.3254
 8650TIP3   OH247440   0.729   2.350  15.307 -0.0558 -0.0854 -0.3781
 8650TIP3    H147441   0.743   2.257  15.292  0.5092 -0.1963  0.7408
 8650TIP3    H247442   0.786   2.371  15.381 -1.4099  0.7805  0.4506
 8651TIP3   OH247443   0.673   2.863  10.226  0.2726  0.1296  0.2931
 8651TIP3    H147444   0.578   2.869  10.240  0.1532 -0.8394 -0.0463
 8651TIP3    H247445   0.685   2.883  10.133  0.3636 -0.1108  0.2524
 8652TIP3   OH247446   6.975   6.869  13.560 -0.0918 -0.6809  0.2100
 8652TIP3    H147447   7.007   6.959  13.558  0.5534 -0.9423 -2.0577
 8652TIP3    H247448   6.880   6.877  13.560 -0.0460 -0.0075 -1.7203
 8653TIP3   OH247449   1.423   2.144  10.192 -0.5341  0.2418 -0.6747
 8653TIP3    H147450   1.504   2.193  10.207 -0.5596  0.1509 -0.2284
 8653TIP3    H247451   1.385   2.183  10.113  0.7638 -0.7920 -1.8438
 8654TIP3   OH247452   4.372   1.689  11.652  0.8218 -0.2387 -0.1448
 8654TIP3    H147453   4.296   1.633  11.639 -0.0238  0.9215 -0.3328
 8654TIP3    H247454   4.447   1.635  11.629 -0.0706 -0.8460 -1.6569
 8655TIP3   OH247455   1.633   4.006   0.533  0.4087  0.4501 -0.0675
 8655TIP3    H147456   1.555   4.050   0.567  0.2309 -0.6277  0.9676
 8655TIP3    H247457   1.650   4.048   0.448 -1.9086 -0.0206 -0.7867
 8656TIP3   OH247458   6.544   3.463  12.118 -0.0191  0.3326  0.1695
 8656TIP3    H147459   6.603   3.519  12.067 -0.7251  1.2469  0.3454
 8656TIP3    H247460   6.572   3.374  12.097  2.4976  0.7680  1.4950
 8657TIP3   OH247461   2.952   1.061  12.738  0.1201 -0.6252  0.1203
 8657TIP3    H147462   2.883   1.021  12.685  1.9959 -3.8388 -0.0532
 8657TIP3    H247463   3.010   1.103  12.675 -0.4828  0.1655  0.0864
 8658TIP3   OH247464   3.066   6.900  15.230  0.4871  0.1222 -1.0914
 8658TIP3    H147465   3.023   6.985  15.236  1.4388  0.5984 -0.8577
 8658TIP3    H247466   3.115   6.905  15.147  1.7204  0.3661 -0.3537
 8659TIP3   OH247467   3.795   5.554  14.256  0.1261 -0.8259  0.2664
 8659TIP3    H147468   3.855   5.558  14.331  1.8114 -1.6947 -1.0179
 8659TIP3    H247469   3.797   5.642  14.219 -0.4487 -0.4874  1.0186
 8660TIP3   OH247470   4.469   4.815  14.409 -0.6301  0.0535 -0.3127
 8660TIP3    H147471   4.551   4.840  14.367 -1.2250  1.4493 -0.6917
 8660TIP3    H247472   4.433   4.746  14.353 -1.3724  1.8313 -2.0957
 8661TIP3   OH247473   5.468   0.962  14.347  0.0874 -0.1531 -0.1248
 8661TIP3    H147474   5.488   1.056  14.352  1.2024 -0.3557 -0.6798
 8661TIP3    H247475   5.539   0.920  14.395 -1.4876 -0.5964  1.8598
 8662TIP3   OH247476   5.093   3.843  15.340 -0.1962  0.2805 -0.2365
 8662TIP3    H147477   5.009   3.827  15.383 -0.3487 -1.8593 -1.2760
 8662TIP3    H247478   5.084   3.803  15.254  1.3958  1.3085 -0.9094
 8663TIP3   OH247479   4.145   5.969   1.411 -0.5247  0.0341  0.3447
 8663TIP3    H147480   4.122   5.942   1.500  0.3451 -0.0122  0.5657
 8663TIP3    H247481   4.104   5.904   1.354 -0.8613 -0.0902  0.7271
 8664TIP3   OH247482   5.356   6.638  10.461 -0.8239 -0.1031  0.1111
 8664TIP3    H147483   5.394   6.691  10.391 -0.0049 -0.9153 -0.0691
 8664TIP3    H247484   5.401   6.668  10.540  0.2876 -1.1194 -0.1123
 8665TIP3   OH247485   3.691   4.692  13.678 -0.1109 -0.0902  0.2846
 8665TIP3    H147486   3.672   4.700  13.585  1.7060  1.5875  0.0187
 8665TIP3    H247487   3.639   4.761  13.720 -0.2006 -0.2301  0.4052
 8666TIP3   OH247488   3.970   5.697  13.760 -0.1429 -0.5420  0.2375
 8666TIP3    H147489   4.050   5.662  13.799 -0.2623  0.2283  1.1757
 8666TIP3    H247490   3.900   5.644  13.798 -0.2440  0.0889  0.9357
 8667TIP3   OH247491   2.341   5.941  11.250  0.2249  0.0677  0.4254
 8667TIP3    H147492   2.410   6.004  11.269  0.4661  0.3193 -1.2447
 8667TIP3    H247493   2.370   5.896  11.171 -0.1494 -1.8391  1.3488
 8668TIP3   OH247494   3.440   2.058  14.712 -0.1469  0.0772 -0.3561
 8668TIP3    H147495   3.432   2.143  14.670 -0.3364 -0.3697 -1.2476
 8668TIP3    H247496   3.533   2.036  14.705 -0.4103 -0.6609 -1.9133
 8669TIP3   OH247497   0.528   3.405  13.567 -0.2973 -0.8086  0.1468
 8669TIP3    H147498   0.470   3.330  13.553  0.0021 -0.8552 -0.8717
 8669TIP3    H247499   0.480   3.479  13.532 -1.3343 -0.2147  2.7175
 8670TIP3   OH247500   5.572   2.860   4.301 -0.0279 -0.2231  0.0867
 8670TIP3    H147501   5.588   2.777   4.256  2.3227  0.4926 -0.4495
 8670TIP3    H247502   5.628   2.856   4.379 -0.4270  0.5702  0.4134
 8671TIP3   OH247503   0.862   4.794   2.784  0.3939 -0.1191 -0.4436
 8671TIP3    H147504   0.954   4.800   2.812  0.1016  0.6797  0.3877
 8671TIP3    H247505   0.827   4.882   2.800 -1.4765 -1.3752  2.7079
 8672TIP3   OH247506   3.935   3.439  10.016  0.5391 -0.2255 -0.0645
 8672TIP3    H147507   3.890   3.445   9.931 -0.4564  0.4227  0.5006
 8672TIP3    H247508   3.993   3.516  10.018  2.2754 -1.4581 -1.1116
 8673TIP3   OH247509   2.588   2.085  15.500  0.4276  0.4764  0.1933
 8673TIP3    H147510   2.670   2.122  15.532 -0.0585  1.6555  0.1075
 8673TIP3    H247511   2.574   2.128  15.415  0.3714 -0.6660 -0.3800
 8674TIP3   OH247512   4.099   2.317   0.247  0.2422 -0.0908 -0.1410
 8674TIP3    H147513   4.049   2.240   0.221  2.9371 -2.3917  1.1596
 8674TIP3    H247514   4.061   2.344   0.331 -0.5430 -0.1761 -0.4724
 8675TIP3   OH247515   5.640   1.465  12.960  0.3248 -0.1547 -0.1144
 8675TIP3    H147516   5.611   1.505  12.878 -0.3235  2.5884  1.3773
 8675TIP3    H247517   5.735   1.461  12.952  0.2915  0.3666 -0.8978
 8676TIP3   OH247518   1.672   6.637   1.277  0.5945 -0.0653  0.8451
 8676TIP3    H147519   1.676   6.547   1.245  1.0425  0.6624 -1.1973
 8676TIP3    H247520   1.650   6.689   1.200  0.2045  1.5768  2.0341
 8677TIP3   OH247521   0.448   3.745  13.263  0.6477 -0.5661 -0.6906
 8677TIP3    H147522   0.410   3.786  13.186 -0.4167  0.2231  0.2518
 8677TIP3    H247523   0.378   3.745  13.328  2.4744  1.6781  1.3513
 8678TIP3   OH247524   6.405   5.938  14.869  1.0068 -0.8318 -0.2041
 8678TIP3    H147525   6.393   6.016  14.923 -0.0476 -2.0355  1.3534
 8678TIP3    H247526   6.475   5.961  14.808  0.8579  1.2377  0.3877
 8679TIP3   OH247527   0.245   3.515  15.041 -0.2395 -0.0013 -0.8719
 8679TIP3    H147528   0.319   3.463  15.072  0.2743 -0.3367 -2.5985
 8679TIP3    H247529   0.257   3.518  14.946 -0.3228  3.1356 -0.8274
 8680TIP3   OH247530   4.060   2.260  15.431 -0.5846 -0.3776 -0.0647
 8680TIP3    H147531   4.142   2.281  15.474 -0.1735  0.3042 -1.1661
 8680TIP3    H247532   4.005   2.337  15.445 -1.1480 -0.9426  0.9117
 8681TIP3   OH247533   4.622   6.403  14.076  0.0347  0.3295  0.4394
 8681TIP3    H147534   4.620   6.314  14.042 -6.3567  0.4233 -0.1026
 8681TIP3    H247535   4.625   6.459  13.999  1.3420  0.5906  0.6723
 8682TIP3   OH247536   4.730   4.155  13.449 -0.5358 -0.0180 -0.5764
 8682TIP3    H147537   4.729   4.060  13.464  0.1876  0.3047  1.8097
 8682TIP3    H247538   4.731   4.165  13.354 -0.3400 -2.4161 -0.8468
 8683TIP3   OH247539   6.708   6.380  13.983 -0.1699  0.0735 -0.2481
 8683TIP3    H147540   6.761   6.378  13.903 -0.1817  0.0314 -0.2544
 8683TIP3    H247541   6.644   6.310  13.971  0.0703 -0.1893 -0.0342
 8684TIP3   OH247542   1.629   5.040   1.419  0.0252 -0.2761  0.1287
 8684TIP3    H147543   1.578   4.981   1.474  1.3533 -0.9997  0.6148
 8684TIP3    H247544   1.638   4.994   1.336 -1.7400  0.6938 -0.6266
 8685TIP3   OH247545   6.778   4.641   1.219 -0.7582  0.1409  0.3296
 8685TIP3    H147546   6.811   4.594   1.142  0.6260  0.0288  0.9749
 8685TIP3    H247547   6.762   4.730   1.188 -3.5754 -0.7613 -0.9515
 8686TIP3   OH247548   3.348   6.358   1.054 -0.6675 -0.0421 -0.2831
 8686TIP3    H147549   3.277   6.296   1.071  0.4569 -1.0774  0.7311
 8686TIP3    H247550   3.365   6.400   1.138  0.0657  0.0233 -0.4588
 8687TIP3   OH247551   6.480   3.492  15.035 -0.2639  0.6271 -0.4403
 8687TIP3    H147552   6.405   3.545  15.008 -2.1448 -0.9594  1.5541
 8687TIP3    H247553   6.443   3.406  15.056  2.0536 -0.0831  0.9062
 8688TIP3   OH247554   2.395   0.304  11.535  0.0098  0.7397 -0.0783
 8688TIP3    H147555   2.309   0.294  11.495  0.2869  2.1627 -1.0566
 8688TIP3    H247556   2.423   0.392  11.512  1.0869  0.8391  1.5083
 8689TIP3   OH247557   0.637   2.771  11.790  0.0145  0.4233 -0.2577
 8689TIP3    H147558   0.645   2.706  11.721  0.7526  0.1264  0.1066
 8689TIP3    H247559   0.568   2.831  11.758  0.4317  0.3634 -1.2997
 8690TIP3   OH247560   5.091   3.001  13.097  0.3988  0.2885 -0.3110
 8690TIP3    H147561   5.010   3.038  13.060  1.1141  0.9936 -1.2050
 8690TIP3    H247562   5.081   3.011  13.191 -0.8485 -0.2390 -0.3711
 8691TIP3   OH247563   0.698   2.387  11.320  0.6694  0.4086 -0.2750
 8691TIP3    H147564   0.671   2.463  11.269 -0.7283 -0.5021 -0.9202
 8691TIP3    H247565   0.676   2.410  11.411  2.8383  1.8855 -0.0824
 8692TIP3   OH247566   6.457   6.424  12.574 -0.6564 -0.4317 -0.5272
 8692TIP3    H147567   6.431   6.477  12.649 -1.3535 -2.0593  0.3996
 8692TIP3    H247568   6.523   6.477  12.529 -0.2175  0.5488  1.2323
 8693TIP3   OH247569   1.872   2.539  12.126 -0.1366  0.2268 -0.1398
 8693TIP3    H147570   1.807   2.541  12.055 -0.3156  1.6056  0.0475
 8693TIP3    H247571   1.930   2.466  12.103 -2.7346 -2.1564  0.5744
 8694TIP3   OH247572   3.227   6.351  10.849 -0.2941 -0.0617 -0.2382
 8694TIP3    H147573   3.255   6.382  10.763  3.0558 -3.3104 -0.4565
 8694TIP3    H247574   3.165   6.281  10.831  1.7288 -1.9395 -0.1455
 8695TIP3   OH247575   4.884   4.264  14.916  0.1216  0.9678 -0.3154
 8695TIP3    H147576   4.972   4.273  14.953 -0.7044  0.0044  1.9992
 8695TIP3    H247577   4.826   4.303  14.981 -1.4214 -1.2299 -0.2873
 8696TIP3   OH247578   4.183   4.319  14.118 -0.2135  0.6342 -0.2706
 8696TIP3    H147579   4.137   4.236  14.111  0.6699  0.3065 -2.9210
 8696TIP3    H247580   4.145   4.362  14.194 -1.4789 -1.6979  0.4410
 8697TIP3   OH247581   5.758   2.776  14.248 -0.1359 -0.9208  0.3359
 8697TIP3    H147582   5.822   2.835  14.207  1.1881 -1.8366  1.0494
 8697TIP3    H247583   5.778   2.690  14.211 -1.4155 -1.0932  0.0466
 8698TIP3   OH247584   6.572   4.900  13.990  0.0562  0.2859 -0.3037
 8698TIP3    H147585   6.618   4.942  13.918  0.3437  0.0826 -0.2414
 8698TIP3    H247586   6.502   4.851  13.949  0.6023 -0.3396 -0.5066
 8699TIP3   OH247587   1.284   6.933  15.609  0.2906 -0.2272 -0.0840
 8699TIP3    H147588   1.312   6.931  15.518 -0.6399  2.4514 -0.4764
 8699TIP3    H247589   1.363   6.913  15.659  0.8240 -1.6428 -1.4633
 8700TIP3   OH247590   1.614   4.574  13.315  0.0227  0.1123  0.1971
 8700TIP3    H147591   1.636   4.500  13.372 -0.9938  0.6810  1.3295
 8700TIP3    H247592   1.656   4.650  13.356 -0.8149  0.5453  0.2605
 8701TIP3   OH247593   6.184   2.835  11.057  0.0054  0.5062  0.7462
 8701TIP3    H147594   6.238   2.891  11.001 -0.2064 -0.8763 -0.9117
 8701TIP3    H247595   6.099   2.878  11.059 -0.1574  0.2665 -0.5198
 8702TIP3   OH247596   0.358   1.277   0.336 -0.4439 -0.6081  0.0273
 8702TIP3    H147597   0.399   1.353   0.294 -0.2825 -0.4661  0.4400
 8702TIP3    H247598   0.394   1.202   0.288 -2.7641 -0.3133 -2.2445
 8703TIP3   OH247599   1.356   7.177  14.499 -0.4650  0.2156  0.4957
 8703TIP3    H147600   1.422   7.171  14.430  0.2631 -1.2974  1.2959
 8703TIP3    H247601   1.325   7.087  14.510 -3.0006  0.9543 -0.1750
 8704TIP3   OH247602   3.184   1.942   1.310  1.0284  0.1804  0.1522
 8704TIP3    H147603   3.241   1.873   1.344  1.7321  1.1130  0.8792
 8704TIP3    H247604   3.139   1.901   1.236  0.5554 -1.4287  1.2892
 8705TIP3   OH247605   1.540   6.791  12.108 -0.0474  0.0001  0.6819
 8705TIP3    H147606   1.610   6.853  12.086 -1.0534  0.7442 -0.4639
 8705TIP3    H247607   1.569   6.751  12.190  0.5517  2.0919  1.5194
 8706TIP3   OH247608   1.636   6.174  15.331 -0.0609  0.3726 -0.0016
 8706TIP3    H147609   1.659   6.081  15.324 -1.3170  0.0777 -0.5032
 8706TIP3    H247610   1.704   6.220  15.283 -0.6925 -0.4974 -1.7649
 8707TIP3   OH247611   5.698   5.203  12.586  0.7168  0.1417  0.1671
 8707TIP3    H147612   5.648   5.199  12.668 -1.8528 -1.2228 -1.3912
 8707TIP3    H247613   5.657   5.275  12.537  1.0013 -0.2501 -0.6590
 8708TIP3   OH247614   6.510   4.725  14.325  0.0637 -0.5750 -0.2016
 8708TIP3    H147615   6.495   4.750  14.234 -1.3973 -2.4876 -0.5232
 8708TIP3    H247616   6.506   4.629  14.324  0.0749 -0.6106  1.8734
 8709TIP3   OH247617   1.781   0.847  11.609 -0.7377 -0.1901 -0.2017
 8709TIP3    H147618   1.799   0.755  11.590  1.7884  0.3004 -0.3794
 8709TIP3    H247619   1.722   0.875  11.538  0.0792 -1.1536 -1.2824
 8710TIP3   OH247620   2.659   3.763   0.862  0.4557 -0.3551 -0.0763
 8710TIP3    H147621   2.754   3.751   0.861  0.4035 -0.7291 -0.4571
 8710TIP3    H247622   2.643   3.819   0.938  0.7366 -2.3630  1.5060
 8711TIP3   OH247623   1.806   3.876   2.683  0.5858 -0.2103 -0.3778
 8711TIP3    H147624   1.830   3.911   2.597 -1.4097  0.4503 -0.7074
 8711TIP3    H247625   1.809   3.781   2.672  0.1891 -0.1297 -1.2286
 8712TIP3   OH247626   4.765   5.737  10.498 -0.8541 -0.3115 -0.3128
 8712TIP3    H147627   4.702   5.760  10.565 -0.7137  1.7048 -0.8287
 8712TIP3    H247628   4.725   5.767  10.416 -0.4507 -1.5302 -0.9628
 8713TIP3   OH247629   6.122   2.035  12.936  0.2268  0.3404  0.4159
 8713TIP3    H147630   6.101   1.948  12.968  1.9654 -0.4893 -0.6413
 8713TIP3    H247631   6.187   2.069  12.999 -0.9217  1.1419  1.1885
 8714TIP3   OH247632   6.567   3.309   1.082 -0.7461 -0.3827  0.2361
 8714TIP3    H147633   6.532   3.372   1.018 -2.2853  2.6760  3.8827
 8714TIP3    H247634   6.655   3.340   1.100 -0.8452 -0.3650  0.6841
 8715TIP3   OH247635   0.860   5.525  12.966  0.2942 -0.3877 -0.1961
 8715TIP3    H147636   0.917   5.542  13.041  0.3890 -1.5054 -0.0030
 8715TIP3    H247637   0.775   5.562  12.991  1.1228  1.9528 -0.7947
 8716TIP3   OH247638   3.371   3.587  11.148 -0.7481  0.6738 -0.1974
 8716TIP3    H147639   3.446   3.623  11.100 -0.9350  0.1806 -0.8664
 8716TIP3    H247640   3.408   3.517  11.201 -0.5120  1.3305  0.5158
 8717TIP3   OH247641   5.092   3.818  10.539  0.7470 -0.0665  0.2139
 8717TIP3    H147642   5.120   3.864  10.459  2.7073 -0.0984  0.8575
 8717TIP3    H247643   5.003   3.849  10.555  0.3936  0.0813 -1.8835
 8718TIP3   OH247644   5.143   6.410  13.489 -0.1092 -0.1841 -0.2801
 8718TIP3    H147645   5.071   6.444  13.543 -1.5839  0.4929 -2.5763
 8718TIP3    H247646   5.209   6.479  13.491 -1.7450  1.5300 -2.3145
 8719TIP3   OH247647   2.064   6.867   4.933 -0.1578  0.0536  0.0812
 8719TIP3    H147648   1.997   6.893   4.996 -1.2185 -1.0962 -0.5667
 8719TIP3    H247649   2.081   6.947   4.882 -0.8559  0.4061  0.4005
 8720TIP3   OH247650   6.599   5.486  11.848  0.1285 -0.1733 -0.1494
 8720TIP3    H147651   6.536   5.444  11.906 -0.9451 -0.1247 -1.2574
 8720TIP3    H247652   6.679   5.494  11.900  0.0628 -2.7139  0.3956
 8721TIP3   OH247653   2.211   3.830  14.056 -0.3915  0.1457  0.2594
 8721TIP3    H147654   2.147   3.901  14.045 -0.0871  0.3920  0.0795
 8721TIP3    H247655   2.288   3.860  14.008 -0.9638 -1.1959 -1.5227
 8722TIP3   OH247656   6.301   3.674  12.954  0.0531  0.5566  0.2301
 8722TIP3    H147657   6.300   3.759  12.910  0.6515  0.4100 -0.0771
 8722TIP3    H247658   6.379   3.676  13.009 -0.4946  0.5993  1.0106
 8723TIP3   OH247659   0.152   0.071   0.680  0.7430  0.3362  0.0015
 8723TIP3    H147660   0.160   0.142   0.616 -0.4609  0.9279  0.4942
 8723TIP3    H247661   0.059   0.053   0.684  0.8357  0.1047  1.3701
 8724TIP3   OH247662   5.006   7.115  14.781  0.5121  0.0897  0.3122
 8724TIP3    H147663   5.095   7.109  14.816  0.2798  4.1316  1.8300
 8724TIP3    H247664   5.015   7.171  14.704 -0.6043 -0.0512  0.0826
 8725TIP3   OH247665   0.530   4.955   0.850  0.4397  0.1080 -0.1414
 8725TIP3    H147666   0.585   5.023   0.811 -0.1095  0.0900 -0.9445
 8725TIP3    H247667   0.517   4.891   0.780 -1.8636  0.8752 -0.4308
 8726TIP3   OH247668   4.435   5.577  11.491 -0.1599 -0.5872 -0.1318
 8726TIP3    H147669   4.507   5.556  11.433 -1.4773 -1.7327 -1.3821
 8726TIP3    H247670   4.417   5.670  11.474 -0.1272 -0.7561 -1.0762
 8727TIP3   OH247671   6.625   4.884  15.470 -0.0507  0.3602 -0.4834
 8727TIP3    H147672   6.690   4.833  15.422 -0.3727  0.0262 -0.5646
 8727TIP3    H247673   6.545   4.878  15.418  0.0025  1.2553 -0.6846
 8728TIP3   OH247674   0.159   0.387  15.348  0.5076  0.6258 -0.2525
 8728TIP3    H147675   0.254   0.396  15.356  0.6256 -0.3338 -0.4770
 8728TIP3    H247676   0.142   0.295  15.367 -0.3741  0.7736 -0.2989
 8729TIP3   OH247677   7.078   5.351  12.039  0.3079 -0.6257 -0.3974
 8729TIP3    H147678   7.028   5.270  12.031  0.4364 -0.7072 -0.3736
 8729TIP3    H247679   7.139   5.348  11.965  0.0379 -0.3589 -0.6274
 8730TIP3   OH247680   4.386   5.596   0.092  0.5707 -0.4699 -0.0379
 8730TIP3    H147681   4.460   5.654   0.072  0.4354 -0.6014 -0.9791
 8730TIP3    H247682   4.342   5.638   0.166  0.1411  0.9613 -1.0630
 8731TIP3   OH247683   0.621   5.634   0.525  0.0990  0.3169 -0.5466
 8731TIP3    H147684   0.530   5.640   0.495 -0.2884 -0.5560  0.4158
 8731TIP3    H247685   0.647   5.544   0.504  0.7561  0.5845 -0.8741
 8732TIP3   OH247686   3.280   4.914  13.616  0.3137 -0.0041  0.4136
 8732TIP3    H147687   3.188   4.935  13.636  0.6446  1.8615  0.0388
 8732TIP3    H247688   3.293   4.827  13.655 -2.0120 -0.9422 -0.7406
 8733TIP3   OH247689   0.291   0.535  12.330  0.7187  0.0457 -0.1162
 8733TIP3    H147690   0.234   0.522  12.405  2.7893  0.3458  1.5481
 8733TIP3    H247691   0.232   0.559  12.259 -0.9706  3.6349  2.3744
 8734TIP3   OH247692   2.410   2.893  13.733  0.3829 -0.7609 -0.4985
 8734TIP3    H147693   2.378   2.946  13.806  0.3917  0.6245 -1.4798
 8734TIP3    H247694   2.504   2.884  13.749  0.6153  0.6469 -1.0083
 8735TIP3   OH247695   0.921   4.630  10.242  0.1789  0.9209 -0.4574
 8735TIP3    H147696   1.017   4.627  10.240  0.1906 -2.1473  1.5507
 8735TIP3    H247697   0.897   4.582  10.321 -3.0644  0.9931 -1.3261
 8736TIP3   OH247698   6.155   6.126   2.541  0.4609 -0.2596 -0.1094
 8736TIP3    H147699   6.215   6.127   2.466  1.1360 -0.4279  0.4154
 8736TIP3    H247700   6.213   6.125   2.617 -0.2216  0.2397  0.4190
 8737TIP3   OH247701   2.269   5.022  13.820 -0.0343 -0.2767  0.0490
 8737TIP3    H147702   2.222   4.990  13.743 -0.0595 -0.4181  0.1242
 8737TIP3    H247703   2.315   5.100  13.789  0.0413 -0.3950 -0.1349
 8738TIP3   OH247704   5.403   1.190   1.731  0.1974 -0.2051 -0.2577
 8738TIP3    H147705   5.483   1.176   1.680 -0.1463 -1.5746 -0.4424
 8738TIP3    H247706   5.401   1.284   1.747  1.9491 -0.1788 -0.0797
 8739TIP3   OH247707   2.751   4.945  14.363 -0.0031  0.2282 -0.0865
 8739TIP3    H147708   2.772   4.871  14.420 -0.7336 -0.5262 -0.7902
 8739TIP3    H247709   2.829   5.001  14.366  1.9689 -2.2758 -2.2730
 8740TIP3   OH247710   4.356   0.249  14.470 -0.2686 -0.2325 -0.2405
 8740TIP3    H147711   4.414   0.177  14.498  0.4017 -0.8698 -3.1487
 8740TIP3    H247712   4.412   0.327  14.474 -0.9963  0.2298  2.9189
 8741TIP3   OH247713   4.888   5.757  10.852 -1.0081 -0.7024  0.7016
 8741TIP3    H147714   4.939   5.688  10.894 -0.4042 -0.5124  0.2983
 8741TIP3    H247715   4.800   5.720  10.842 -0.2416 -2.1051 -1.1497
 8742TIP3   OH247716   2.536   0.493  13.010 -0.0404 -0.4823 -0.0485
 8742TIP3    H147717   2.620   0.501  12.965 -0.6647 -1.5436 -1.4565
 8742TIP3    H247718   2.520   0.399  13.016 -0.4595 -0.3290  1.5003
 8743TIP3   OH247719   6.823   1.732  12.845  0.3961 -0.0998  0.1065
 8743TIP3    H147720   6.739   1.725  12.891 -0.5182  0.2462 -1.4625
 8743TIP3    H247721   6.840   1.826  12.841 -0.0019 -0.0631 -1.0515
 8744TIP3   OH247722   2.197   5.727  14.472 -0.6967  0.2503  0.4186
 8744TIP3    H147723   2.288   5.749  14.452 -0.5218 -0.3301  0.5874
 8744TIP3    H247724   2.172   5.666  14.403 -0.1883 -1.5329  1.7779
 8745TIP3   OH247725   5.458   5.530   2.000  0.0126  0.0468 -0.2381
 8745TIP3    H147726   5.440   5.602   2.060  0.8777 -1.9536  2.5344
 8745TIP3    H247727   5.394   5.462   2.023  1.7518 -1.5788 -0.0717
 8746TIP3   OH247728   6.722   4.088  14.002 -0.2258 -0.3900  0.4648
 8746TIP3    H147729   6.639   4.061  14.042 -1.0855  1.2579 -0.1601
 8746TIP3    H247730   6.698   4.161  13.945  1.5634 -0.3303 -0.2213
 8747TIP3   OH247731   6.696   4.035  12.405  0.0156  0.4560 -0.8000
 8747TIP3    H147732   6.734   3.974  12.467  2.0075  0.8405 -1.6050
 8747TIP3    H247733   6.602   4.028  12.419  0.4042  0.3383  2.0570
 8748TIP3   OH247734   5.269   5.387  12.764 -0.0251  0.4897 -0.2598
 8748TIP3    H147735   5.237   5.458  12.820 -1.3701 -0.0054 -0.3886
 8748TIP3    H247736   5.322   5.333  12.822 -1.3469  0.0248  0.5328
 8749TIP3   OH247737   4.800   3.415   0.866  0.1473  0.6568 -0.1922
 8749TIP3    H147738   4.807   3.433   0.772 -0.3497  1.0191 -0.1660
 8749TIP3    H247739   4.873   3.463   0.905 -0.4202  1.5926 -0.2604
 8750TIP3   OH247740   0.569   0.790  12.503  0.3280 -0.1508 -0.0014
 8750TIP3    H147741   0.490   0.837  12.529 -0.0317  0.5394 -2.2622
 8750TIP3    H247742   0.608   0.844  12.435  0.9212 -2.1974 -1.3355
 8751TIP3   OH247743   2.948   2.360   0.006 -0.4451  0.3627  0.1506
 8751TIP3    H147744   3.030   2.376  -0.041 -0.2355  0.2480  0.4795
 8751TIP3    H247745   2.956   2.410   0.087 -0.5731  0.1045  0.3229
 8752TIP3   OH247746   4.667   6.179  13.106  0.1250  0.3191  0.4165
 8752TIP3    H147747   4.755   6.183  13.070 -0.0278 -0.1694 -0.0205
 8752TIP3    H247748   4.642   6.270  13.120  0.2291  0.5139 -0.6188
 8753TIP3   OH247749   6.327   3.561  11.400  0.8494 -0.4691 -0.1080
 8753TIP3    H147750   6.298   3.514  11.322  2.7968  0.3664 -1.3789
 8753TIP3    H247751   6.372   3.494  11.452  1.5051 -0.5630 -0.7768
 8754TIP3   OH247752   0.825   4.809  14.419  0.5860  0.4226 -0.5140
 8754TIP3    H147753   0.850   4.857  14.498 -0.8005  0.0152  0.1881
 8754TIP3    H247754   0.743   4.765  14.443 -0.6437  1.4728 -2.6628
 8755TIP3   OH247755   0.613   5.410   1.326  0.2838  0.3483 -0.4117
 8755TIP3    H147756   0.665   5.479   1.284 -0.5194  1.1271 -0.1327
 8755TIP3    H247757   0.678   5.345   1.353  0.9023  0.2918 -1.9957
 8756TIP3   OH247758   1.896   5.976   0.771 -0.4460  0.0754 -0.5435
 8756TIP3    H147759   1.841   5.929   0.709 -1.8200 -0.7462  1.2511
 8756TIP3    H247760   1.877   6.068   0.754 -0.3974 -0.1297 -1.7158
 8757TIP3   OH247761   6.707   5.901   1.008  0.5713 -0.6407  0.3662
 8757TIP3    H147762   6.699   5.981   1.060 -0.0777 -1.0227  0.8667
 8757TIP3    H247763   6.760   5.926   0.932 -0.4177  0.4874  0.0471
 8758TIP3   OH247764   3.465   1.698   1.983 -0.0998 -1.2143  0.4277
 8758TIP3    H147765   3.551   1.667   2.012  0.9682  0.1796 -1.1358
 8758TIP3    H247766   3.435   1.630   1.923  0.4101 -1.1838  0.1307
 8759TIP3   OH247767   1.957   4.976  12.627  0.1242 -0.6138  0.2038
 8759TIP3    H147768   1.928   4.995  12.716  0.8165  1.1257  0.0784
 8759TIP3    H247769   2.041   4.930  12.639  0.6002  0.3059  0.4398
 8760TIP3   OH247770   3.178   0.707  14.863  0.0663  0.4375  0.4868
 8760TIP3    H147771   3.141   0.751  14.786 -2.7780 -0.0720  1.4919
 8760TIP3    H247772   3.210   0.624  14.830  0.9389  1.1689 -0.5406
 8761TIP3   OH247773   6.408   4.589  15.182  0.6055  0.8682 -0.8210
 8761TIP3    H147774   6.472   4.549  15.241 -0.2255  1.2276  0.3372
 8761TIP3    H247775   6.359   4.515  15.146 -0.4470  0.7720  0.7590
 8762TIP3   OH247776   6.826   0.469   2.437 -0.3029  0.4802 -0.2959
 8762TIP3    H147777   6.824   0.465   2.341  0.7893 -0.8545 -0.2849
 8762TIP3    H247778   6.895   0.407   2.462 -2.3149 -1.1422  1.4786
 8763TIP3   OH247779   3.743   3.975  14.441 -0.3037  0.0455  0.2705
 8763TIP3    H147780   3.658   3.959  14.400 -0.8010 -0.4878  1.4917
 8763TIP3    H247781   3.774   3.889  14.467  1.2678  0.0730 -1.4109
 8764TIP3   OH247782   7.036   1.470  13.736 -0.2662 -0.0245  0.2025
 8764TIP3    H147783   7.131   1.470  13.748 -0.5408  1.4623  2.6978
 8764TIP3    H247784   7.024   1.462  13.641  2.3548  0.8742 -0.2503
 8765TIP3   OH247785   3.258   6.228   0.174 -0.4530 -0.3060 -0.8813
 8765TIP3    H147786   3.242   6.319   0.196  0.5360 -0.7431  1.8158
 8765TIP3    H247787   3.184   6.181   0.212 -0.1006 -0.8081 -0.8105
 8766TIP3   OH247788   0.455   4.157   1.813  0.5121  0.6219  0.1960
 8766TIP3    H147789   0.362   4.136   1.803  0.9409 -0.5366 -1.5810
 8766TIP3    H247790   0.457   4.253   1.813 -0.7099  0.6610  0.5142
 8767TIP3   OH247791   6.964   0.857  13.747  0.0214 -0.5957  0.1708
 8767TIP3    H147792   6.938   0.820  13.663 -2.0711  1.7890 -0.2785
 8767TIP3    H247793   6.937   0.792  13.812 -1.7755 -0.7652 -0.7304
 8768TIP3   OH247794   2.485   5.592  11.386 -1.0677  0.1284  0.5123
 8768TIP3    H147795   2.542   5.548  11.449 -1.0200  1.1824  1.2235
 8768TIP3    H247796   2.543   5.619  11.315 -1.0828 -0.8690  0.1204
 8769TIP3   OH247797   6.685   2.805  15.122 -0.1353  1.1298  0.3993
 8769TIP3    H147798   6.769   2.759  15.128 -1.2704 -0.7874  2.3123
 8769TIP3    H247799   6.680   2.833  15.030  1.1353 -1.5757 -0.5588
 8770TIP3   OH247800   0.958   7.129  12.805  0.4066  0.2718 -0.4660
 8770TIP3    H147801   1.026   7.062  12.812  1.2960  1.0377 -1.5371
 8770TIP3    H247802   0.957   7.153  12.712 -1.9421 -0.3493 -0.6441
 8771TIP3   OH247803   5.500   4.844  14.999  0.4347  0.0194  0.1135
 8771TIP3    H147804   5.430   4.784  15.027  1.2157 -1.0653 -0.2427
 8771TIP3    H247805   5.511   4.904  15.073 -1.4801  0.7756 -0.1716
 8772TIP3   OH247806   2.461   5.665   3.965 -0.2552  0.2515 -0.0232
 8772TIP3    H147807   2.378   5.713   3.963 -0.7631 -0.6346 -0.5386
 8772TIP3    H247808   2.520   5.721   4.015 -1.0976  1.0034  0.1372
 8773TIP3   OH247809   6.146   1.444  12.561 -0.2791 -0.0117  0.1740
 8773TIP3    H147810   6.159   1.370  12.620 -0.4160  0.3865  0.7094
 8773TIP3    H247811   6.137   1.404  12.474  0.2781 -0.5757  0.3685
 8774TIP3   OH247812   5.975   7.086  10.428 -0.0988  0.1487  0.0413
 8774TIP3    H147813   6.011   7.114  10.344  1.0908  1.9922  1.1300
 8774TIP3    H247814   6.050   7.048  10.475  0.0761  2.2853  1.5795
 8775TIP3   OH247815   1.473   4.095   1.352  0.2676 -0.3827  0.2267
 8775TIP3    H147816   1.378   4.104   1.343  0.3475  0.2633 -0.0115
 8775TIP3    H247817   1.507   4.112   1.264  0.6438 -0.0342  0.4373
 8776TIP3   OH247818   1.778   2.836   0.124  0.2730  0.4531 -0.4124
 8776TIP3    H147819   1.756   2.847   0.216 -2.1410 -2.7691 -0.5282
 8776TIP3    H247820   1.694   2.822   0.080  1.6238 -1.2307 -2.6021
 8777TIP3   OH247821   0.195   5.835  12.719  0.2537  0.3948 -1.3224
 8777TIP3    H147822   0.277   5.815  12.763  0.0233 -1.8213 -1.8359
 8777TIP3    H247823   0.213   5.915  12.669  1.2260  1.5378  0.8030
 8778TIP3   OH247824   6.656   4.106   2.337 -0.1375  0.0967  0.0279
 8778TIP3    H147825   6.590   4.053   2.290  1.4640 -0.5773 -1.5326
 8778TIP3    H247826   6.664   4.063   2.422 -1.1096 -0.3159 -0.0760
 8779TIP3   OH247827   2.665   5.853   1.917 -0.0901  0.1317  0.0166
 8779TIP3    H147828   2.658   5.886   1.828  3.1786 -2.7972 -1.4390
 8779TIP3    H247829   2.730   5.910   1.958 -0.2516  0.3349 -0.0031
 8780TIP3   OH247830   4.473   0.440   0.127 -0.0636  0.1035 -0.8502
 8780TIP3    H147831   4.422   0.517   0.153 -0.5760  0.1150 -1.8721
 8780TIP3    H247832   4.563   0.472   0.118  0.6349 -0.4205  3.3620
 8781TIP3   OH247833   2.561   0.801  14.848 -0.1094  0.1563  0.0075
 8781TIP3    H147834   2.525   0.794  14.937 -0.5329 -0.7282 -0.2272
 8781TIP3    H247835   2.617   0.878  14.851 -2.0211  1.5630  0.3869
 8782TIP3   OH247836   6.563   5.161   2.176  0.5062 -0.8030  0.4678
 8782TIP3    H147837   6.653   5.148   2.147  0.4352 -2.8461  1.0909
 8782TIP3    H247838   6.512   5.100   2.123 -0.5639  0.5479 -0.0834
 8783TIP3   OH247839   4.673   5.701  15.135  0.4704  0.2267 -0.1374
 8783TIP3    H147840   4.677   5.623  15.190 -0.8487  1.2281  1.4024
 8783TIP3    H247841   4.582   5.705  15.105  0.9446  0.2244 -1.6364
 8784TIP3   OH247842   5.514   1.278  11.671 -0.2627 -0.2131  0.7309
 8784TIP3    H147843   5.455   1.211  11.704 -1.5367 -0.0794 -1.1818
 8784TIP3    H247844   5.474   1.306  11.589  1.6899  0.9547  0.1577
 8785TIP3   OH247845   2.746   3.656  12.951  0.0786  0.0578  0.3862
 8785TIP3    H147846   2.691   3.580  12.970  0.9233 -0.3602  1.1772
 8785TIP3    H247847   2.722   3.720  13.018  0.7395 -0.2186  0.8865
 8786TIP3   OH247848   1.382   6.419  14.877 -0.2609  1.1119  0.1460
 8786TIP3    H147849   1.438   6.370  14.937 -0.8720  1.0576  0.6795
 8786TIP3    H247850   1.339   6.353  14.823  0.9423  1.2054 -0.9394
 8787TIP3   OH247851   1.130   6.468  10.193  0.1309  0.1908 -0.3845
 8787TIP3    H147852   1.125   6.409  10.268 -0.1577  0.6551 -0.0325
 8787TIP3    H247853   1.201   6.528  10.213  0.7616 -0.3503 -0.9747
 8788TIP3   OH247854   6.267   3.666  14.329 -0.1968 -0.7103 -0.0081
 8788TIP3    H147855   6.277   3.672  14.234 -0.9132  2.9620  0.0718
 8788TIP3    H247856   6.348   3.704  14.364 -0.7171 -0.3604  0.8286
 8789TIP3   OH247857   6.444   6.514  14.838  0.4748 -0.5200  0.0689
 8789TIP3    H147858   6.531   6.489  14.810  0.9213 -0.2298  1.1582
 8789TIP3    H247859   6.456   6.548  14.927 -1.0106 -2.2313  0.9484
 8790TIP3   OH247860   5.764   5.629  12.404 -0.4062 -0.4774  0.1404
 8790TIP3    H147861   5.807   5.601  12.323 -1.5325 -2.3247  0.1541
 8790TIP3    H247862   5.693   5.567  12.416 -1.4955  0.9903  1.4980
 8791TIP3   OH247863   6.198   4.921  10.490 -0.8614 -0.4831 -0.3220
 8791TIP3    H147864   6.225   4.944  10.579 -1.0495 -0.6445 -0.2230
 8791TIP3    H247865   6.102   4.926  10.491 -0.8455 -0.0373 -0.6394
 8792TIP3   OH247866   2.839   5.784  12.905 -0.2870 -0.0882 -0.0981
 8792TIP3    H147867   2.801   5.750  12.987  1.6565 -0.6060  0.6112
 8792TIP3    H247868   2.763   5.796  12.848 -1.4396 -2.1284  0.9072
 8793TIP3   OH247869   5.677   3.027  12.857  0.1963 -0.8558  0.8576
 8793TIP3    H147870   5.675   2.959  12.791 -0.1736 -0.2280  0.2080
 8793TIP3    H247871   5.601   3.082  12.836  1.0419  0.2954  0.7803
 8794TIP3   OH247872   6.011   4.251   0.416 -0.2218  0.2022  0.1850
 8794TIP3    H147873   5.965   4.244   0.332 -0.2021  0.1222  0.1808
 8794TIP3    H247874   5.979   4.333   0.454  0.8812  1.0306 -0.5967
 8795TIP3   OH247875   5.582   5.294  11.295  0.0618  0.0810 -0.2841
 8795TIP3    H147876   5.601   5.307  11.388  2.3730  0.4652 -0.7730
 8795TIP3    H247877   5.490   5.268  11.292 -0.3396  1.1823  2.0041
 8796TIP3   OH247878   5.628   6.043  13.710 -0.2609  0.0532 -0.4773
 8796TIP3    H147879   5.623   5.996  13.627  0.0714  1.1344 -1.1181
 8796TIP3    H247880   5.578   5.989  13.771 -0.2091 -0.9302 -1.2917
 8797TIP3   OH247881   2.824   6.578   0.509 -0.1202 -0.5222  0.3524
 8797TIP3    H147882   2.909   6.560   0.549  0.2481  2.6497  1.1717
 8797TIP3    H247883   2.829   6.670   0.483 -3.3065 -0.2683  0.4413
 8798TIP3   OH247884   5.532   0.013  14.599 -0.5288  0.3821 -0.4628
 8798TIP3    H147885   5.577   0.028  14.681 -1.9532 -0.6474  0.5466
 8798TIP3    H247886   5.590   0.049  14.532  1.6947 -0.7759  0.7893
 8799TIP3   OH247887   3.410   6.183  12.496 -0.6055  0.1121  0.3558
 8799TIP3    H147888   3.334   6.229  12.531 -0.1110 -0.3056  2.0467
 8799TIP3    H247889   3.478   6.250  12.489  0.1763 -0.3147  3.0069
 8800TIP3   OH247890   6.090   5.070   0.444  0.3901 -0.0339  0.3363
 8800TIP3    H147891   6.068   5.144   0.501 -1.5423 -0.0427 -0.3366
 8800TIP3    H247892   6.090   5.107   0.356 -1.5876 -1.0039 -0.1034
 8801TIP3   OH247893   7.148   6.619  13.613 -0.5814 -0.9602  0.4204
 8801TIP3    H147894   7.238   6.651  13.613  0.2900 -3.3194 -0.2147
 8801TIP3    H247895   7.095   6.697  13.597  1.3758  0.3618  0.1746
 8802TIP3   OH247896   1.425   6.402  15.203  0.4788 -0.1791  0.1644
 8802TIP3    H147897   1.477   6.378  15.280 -1.2321  0.8612  1.6753
 8802TIP3    H247898   1.454   6.341  15.135  1.7549 -1.3627  1.7309
 8803TIP3   OH247899   4.889   3.201  12.243 -0.0307  0.0376  0.4252
 8803TIP3    H147900   4.794   3.205  12.243 -0.0011  1.4192  1.9228
 8803TIP3    H247901   4.916   3.274  12.186  0.1374 -1.0284 -0.8895
 8804TIP3   OH247902   3.210   1.096  13.450 -0.2055  0.1471 -0.0146
 8804TIP3    H147903   3.207   1.191  13.460  2.2517  0.0569  1.9003
 8804TIP3    H247904   3.200   1.062  13.539 -3.3902 -1.4930 -0.9353
 8805TIP3   OH247905   2.507   1.151  12.583  0.2472  0.8532  0.0542
 8805TIP3    H147906   2.437   1.208  12.614  0.3731  1.4337 -0.7112
 8805TIP3    H247907   2.495   1.149  12.488 -1.6069 -2.7846  0.2717
 8806TIP3   OH247908   0.019   3.440  11.765 -0.6141  0.2949  0.2759
 8806TIP3    H147909   0.055   3.505  11.824 -0.6285 -0.6375  1.3251
 8806TIP3    H247910  -0.031   3.381  11.821  0.9920 -1.7593 -0.3555
 8807TIP3   OH247911   5.212   5.093   1.075 -0.8359  0.7562  0.1949
 8807TIP3    H147912   5.302   5.079   1.046 -0.4277 -1.6502  2.3902
 8807TIP3    H247913   5.220   5.121   1.166 -2.2999  0.3397  0.4639
 8808TIP3   OH247914   1.636   3.218   3.483  0.5791  0.0931 -0.0080
 8808TIP3    H147915   1.557   3.172   3.455  1.3830 -1.6230  0.4367
 8808TIP3    H247916   1.676   3.248   3.401  0.2647 -0.3935 -0.3450
 8809TIP3   OH247917   1.654   2.930  10.601  0.1972  0.0084  0.4687
 8809TIP3    H147918   1.716   2.899  10.667  0.1086  0.4099  0.7437
 8809TIP3    H247919   1.680   2.885  10.521  0.6868 -0.0247  0.6403
 8810TIP3   OH247920   2.515   2.438  14.639 -0.2091 -0.1046 -0.3173
 8810TIP3    H147921   2.609   2.425  14.653 -0.3570 -1.2238 -0.2693
 8810TIP3    H247922   2.504   2.533  14.633  0.9897  0.0179 -0.7623
 8811TIP3   OH247923   1.750   3.626  14.163 -0.3413 -0.0224  0.2718
 8811TIP3    H147924   1.785   3.603  14.249 -0.0160  0.5114  0.2893
 8811TIP3    H247925   1.819   3.601  14.101 -0.1220  0.5998  0.2632
 8812TIP3   OH247926   5.969   0.805  15.260 -0.1509  0.0489  0.0385
 8812TIP3    H147927   5.945   0.837  15.347 -1.3854  0.5002 -0.4609
 8812TIP3    H247928   5.936   0.715  15.258  0.2068 -0.0830  0.1785
 8813TIP3   OH247929   1.687   3.189  12.725  0.0195 -0.6269 -0.1661
 8813TIP3    H147930   1.629   3.114  12.709 -1.8202  0.5876  0.5558
 8813TIP3    H247931   1.658   3.256  12.663  1.0460 -0.1960 -0.1962
 8814TIP3   OH247932   1.051   1.214   0.383 -0.2792  0.1613  0.7453
 8814TIP3    H147933   1.054   1.238   0.476  2.2348  0.9221  0.5117
 8814TIP3    H247934   1.068   1.296   0.337  0.5993 -0.6002 -0.3057
 8815TIP3   OH247935   6.754   4.073  14.400  0.3650 -0.2409  0.1503
 8815TIP3    H147936   6.676   4.080  14.455 -0.1903  0.0947 -0.6843
 8815TIP3    H247937   6.722   4.040  14.317  0.4959  3.6192 -1.5438
 8816TIP3   OH247938   1.579   3.867  15.319  0.0210 -0.2485 -0.1526
 8816TIP3    H147939   1.669   3.852  15.290 -0.3801 -1.9710 -0.5925
 8816TIP3    H247940   1.542   3.925  15.252  0.8547  0.6778  0.1647
 8817TIP3   OH247941   6.971   1.321   1.040 -0.0457 -0.1610  0.1203
 8817TIP3    H147942   6.972   1.226   1.025  1.5151 -0.2057  0.3690
 8817TIP3    H247943   7.062   1.342   1.060 -0.7217  1.0902  1.9753
 8818TIP3   OH247944   2.303   3.479   1.746 -0.2656 -0.4886 -0.3919
 8818TIP3    H147945   2.374   3.508   1.689  1.0406 -0.2313  1.3126
 8818TIP3    H247946   2.268   3.560   1.784 -0.4683 -0.7254 -0.0700
 8819TIP3   OH247947   6.514   2.733  13.279 -0.1358 -0.1749  0.1145
 8819TIP3    H147948   6.424   2.700  13.273 -0.7002  1.2462  0.4158
 8819TIP3    H247949   6.520   2.799  13.210  1.2142 -1.4218 -0.9821
 8820TIP3   OH247950   5.597   2.963   1.772  0.5539  0.3639  0.4097
 8820TIP3    H147951   5.690   2.959   1.794  0.6865 -0.9110 -0.3855
 8820TIP3    H247952   5.594   2.952   1.677 -0.5349 -1.3355  0.6377
 8821TIP3   OH247953   2.101   5.523  10.592 -0.0021 -0.0131 -0.6926
 8821TIP3    H147954   2.023   5.568  10.626  0.5512 -0.2362  0.9337
 8821TIP3    H247955   2.091   5.526  10.497 -1.6498  0.5785 -0.5225
 8822TIP3   OH247956   0.935   4.318   2.696  0.2226 -0.9510  1.0090
 8822TIP3    H147957   0.898   4.328   2.784 -2.1203  2.4533 -0.2767
 8822TIP3    H247958   0.859   4.324   2.638  2.1280  0.2792 -1.4288
 8823TIP3   OH247959   3.604   4.627   0.472 -0.3193  0.2382  0.0984
 8823TIP3    H147960   3.569   4.646   0.385 -1.5633  0.8478  0.7195
 8823TIP3    H247961   3.558   4.687   0.531 -0.3794 -0.9792  1.3457
 8824TIP3   OH247962   0.831   2.950  14.319  0.3406  0.9682  0.2398
 8824TIP3    H147963   0.762   2.975  14.257  0.4704  0.7245 -0.0027
 8824TIP3    H247964   0.899   2.909  14.265 -0.7461 -1.7612  0.8306
 8825TIP3   OH247965   6.820   0.973   0.566 -0.7962  0.6500 -0.0280
 8825TIP3    H147966   6.866   1.055   0.547 -0.5822  0.0348 -2.2995
 8825TIP3    H247967   6.728   0.992   0.546 -0.4290 -0.2970 -2.8287
 8826TIP3   OH247968   5.764   0.346  13.150 -0.6422  0.1128  0.2756
 8826TIP3    H147969   5.674   0.318  13.168 -0.0415 -0.9937  1.7106
 8826TIP3    H247970   5.816   0.267  13.164  0.4459  0.4690 -1.6365
 8827TIP3   OH247971   4.577   6.591   0.785  0.1731 -0.6272 -0.0802
 8827TIP3    H147972   4.601   6.596   0.878  1.4483 -0.5401 -0.3993
 8827TIP3    H247973   4.617   6.669   0.746  1.1400 -1.5719 -1.0143
 8828TIP3   OH247974   5.596   3.334   1.594  0.2223  0.0624  0.1323
 8828TIP3    H147975   5.690   3.318   1.582  0.1108 -1.6382  1.4974
 8828TIP3    H247976   5.584   3.342   1.689 -1.2391 -1.2064  0.0803
 8829TIP3   OH247977   5.543   5.214  12.149 -0.3628 -0.6662  0.3122
 8829TIP3    H147978   5.558   5.284  12.214  3.4840 -0.9140 -0.2211
 8829TIP3    H247979   5.561   5.133  12.197  0.2687 -0.9767 -0.4509
 8830TIP3   OH247980   0.628   5.407  11.218 -0.1727 -0.0887 -0.6435
 8830TIP3    H147981   0.534   5.389  11.222 -0.2847  0.0264 -2.4885
 8830TIP3    H247982   0.664   5.334  11.168  0.3649  1.1629 -2.0902
 8831TIP3   OH247983   1.660   6.533  13.885  0.4072  0.6352  0.1813
 8831TIP3    H147984   1.725   6.524  13.955  1.1420  0.1497 -0.5594
 8831TIP3    H247985   1.708   6.515  13.805 -0.9976 -1.2419 -0.2541
 8832TIP3   OH247986   6.672   4.231  13.779  0.0232  0.0140  0.2622
 8832TIP3    H147987   6.581   4.252  13.758  0.5528  0.9225 -1.2240
 8832TIP3    H247988   6.715   4.316  13.786  0.9601 -0.4316 -0.0053
 8833TIP3   OH247989   2.105   2.426  12.380  0.2060 -0.4830  0.5505
 8833TIP3    H147990   2.132   2.361  12.315  2.4882 -0.8655  1.8226
 8833TIP3    H247991   2.073   2.374  12.454 -0.3796 -0.0929  0.5764
 8834TIP3   OH247992   6.265   0.385   1.708 -0.3551 -0.1813 -0.5778
 8834TIP3    H147993   6.285   0.325   1.780 -0.6196  1.3341  0.7672
 8834TIP3    H247994   6.344   0.384   1.654 -0.1399 -1.2967 -0.2703
 8835TIP3   OH247995   0.696   5.875   0.625  0.6838 -0.3567  0.3043
 8835TIP3    H147996   0.675   5.789   0.588  0.3002 -0.6199  1.1193
 8835TIP3    H247997   0.630   5.934   0.588 -1.8530 -1.2456  3.1288
 8836TIP3   OH247998   4.210   5.777  12.592  0.0439 -0.0735 -0.0444
 8836TIP3    H147999   4.273   5.737  12.652 -0.0359 -0.8421 -0.4602
 8836TIP3    H248000   4.239   5.748  12.505 -1.3887 -1.1439 -0.1735
 8837TIP3   OH248001   7.027   5.768   1.785 -0.3248 -0.7377 -0.2606
 8837TIP3    H148002   6.965   5.695   1.786  0.1630 -1.1539  0.3125
 8837TIP3    H248003   7.112   5.726   1.797  0.1341 -0.2303 -1.6018
 8838TIP3   OH248004   3.905   5.614  12.874  0.0929 -0.0487  0.3319
 8838TIP3    H148005   3.875   5.582  12.959  0.3409  2.5126  1.4105
 8838TIP3    H248006   3.996   5.641  12.888  0.4427 -0.4690 -0.9890
 8839TIP3   OH248007   2.874   1.948  13.619  0.1674 -0.0146 -0.4238
 8839TIP3    H148008   2.932   1.900  13.676  1.1131  0.5510 -0.8935
 8839TIP3    H248009   2.824   1.881  13.572 -0.3695 -0.4761  0.8031
 8840TIP3   OH248010   5.977   3.484  10.532 -0.4116 -0.1551 -0.2365
 8840TIP3    H148011   6.058   3.436  10.553 -1.6220 -2.2184 -0.1325
 8840TIP3    H248012   5.938   3.434  10.460 -2.0634  0.2607  0.3615
 8841TIP3   OH248013   2.767   2.751   0.120 -0.0161  0.3763  0.0950
 8841TIP3    H148014   2.729   2.833   0.151  1.3443  1.4032 -0.9120
 8841TIP3    H248015   2.692   2.691   0.116 -1.6151  2.3863 -1.9321
 8842TIP3   OH248016   5.405   0.652  15.547 -0.4653  0.3936  0.4567
 8842TIP3    H148017   5.427   0.728  15.600 -0.0025 -0.4941  1.5793
 8842TIP3    H248018   5.476   0.646  15.483 -0.7137  1.1374  0.1170
 8843TIP3   OH248019   0.745   2.882  12.891 -0.5044 -0.2866 -0.4936
 8843TIP3    H148020   0.697   2.801  12.879  1.8521 -1.7432 -0.4635
 8843TIP3    H248021   0.688   2.937  12.945 -1.9255 -2.1043 -0.1193
 8844TIP3   OH248022   2.043   2.382  13.365 -0.0487 -0.5407  0.3971
 8844TIP3    H148023   2.027   2.473  13.342  4.6408  0.4935  0.7501
 8844TIP3    H248024   2.056   2.338  13.281 -0.5262 -0.4823  0.2953
 8845TIP3   OH248025   5.205   6.485  14.758  0.2559 -0.7100  0.3301
 8845TIP3    H148026   5.242   6.397  14.768  1.5084 -0.4149 -1.5022
 8845TIP3    H248027   5.277   6.538  14.723 -0.5242  1.0242  1.2845
 8846TIP3   OH248028   5.682   0.901   0.325  0.1437 -0.2410  0.0263
 8846TIP3    H148029   5.594   0.890   0.362  0.5353  0.7212  1.2646
 8846TIP3    H248030   5.667   0.920   0.233 -1.0616  2.0991  0.6596
 8847TIP3   OH248031   1.134   4.395  12.242 -0.5979  0.0977  0.0474
 8847TIP3    H148032   1.195   4.446  12.188  0.3287  0.9245  1.8393
 8847TIP3    H248033   1.139   4.435  12.328 -2.7312 -0.6596  0.5493
 8848TIP3   OH248034   2.162   3.895  11.914  0.2183  0.0579 -0.5034
 8848TIP3    H148035   2.161   3.989  11.930  2.5896  0.3803 -2.0458
 8848TIP3    H248036   2.133   3.886  11.823 -0.4674 -0.7532 -0.2174
 8849TIP3   OH248037   6.395   0.486   1.275 -0.3158  0.0350  0.2362
 8849TIP3    H148038   6.439   0.451   1.197 -0.6219 -3.6988  1.6043
 8849TIP3    H248039   6.465   0.491   1.341 -1.1923 -2.7789  1.4578
 8850TIP3   OH248040   6.766   3.806  13.946 -0.8211  0.5801  0.6703
 8850TIP3    H148041   6.777   3.900  13.958 -0.4108  0.6590 -0.3055
 8850TIP3    H248042   6.840   3.767  13.992 -1.0717  0.7181  1.2025
 8851TIP3   OH248043   2.344   3.746   1.901  0.2589  0.3602 -0.3253
 8851TIP3    H148044   2.255   3.738   1.935  0.2770 -1.8877 -0.7190
 8851TIP3    H248045   2.399   3.750   1.979  0.1045 -2.4007 -0.0068
 8852TIP3   OH248046   1.482   6.685  15.282  0.0255 -0.1173 -0.1529
 8852TIP3    H148047   1.466   6.592  15.297 -0.6349  0.0960  0.4730
 8852TIP3    H248048   1.418   6.709  15.214 -2.4296  0.7518  2.3997
 8853TIP3   OH248049   5.104   3.552  14.360 -0.1958  0.2725  0.1285
 8853TIP3    H148050   5.167   3.608  14.406  0.6543 -2.0377  1.8862
 8853TIP3    H248051   5.157   3.479  14.327 -1.2694  0.4716 -2.1450
 8854TIP3   OH248052   6.807   6.104  14.487  0.0607 -0.1001  0.0069
 8854TIP3    H148053   6.878   6.077  14.547  0.6362 -0.8385 -0.9896
 8854TIP3    H248054   6.817   6.198  14.480 -0.2881  0.0616  1.4238
 8855TIP3   OH248055   1.769   4.375   1.753  0.4850  0.0231 -0.4598
 8855TIP3    H148056   1.744   4.414   1.669  1.8056  1.2956 -0.3032
 8855TIP3    H248057   1.726   4.430   1.818 -1.5692 -1.7361 -0.3163
 8856TIP3   OH248058   0.505   6.026  13.335  0.3056  0.1156 -0.3770
 8856TIP3    H148059   0.449   5.962  13.290  0.9355 -0.4147 -0.4182
 8856TIP3    H248060   0.582   6.034  13.278  0.2399  0.8923 -0.3571
 8857TIP3   OH248061   6.666   1.975  13.212 -0.2025  0.4905  0.2732
 8857TIP3    H148062   6.678   2.064  13.178 -0.8667  0.5537  0.1849
 8857TIP3    H248063   6.746   1.956  13.260 -0.2726  1.3447  0.7387
 8858TIP3   OH248064   2.575   5.109   1.490 -0.0873  0.1286 -0.3038
 8858TIP3    H148065   2.642   5.042   1.500 -1.0360 -0.8106 -0.1579
 8858TIP3    H248066   2.518   5.098   1.566 -1.1548  0.0381 -1.0970
 8859TIP3   OH248067   7.164   4.969  11.553 -0.1905 -0.1299  0.2444
 8859TIP3    H148068   7.101   4.915  11.601 -0.6511  0.8900  0.8119
 8859TIP3    H248069   7.197   5.030  11.619  1.2337 -0.5057 -0.1112
 8860TIP3   OH248070   1.137   2.116   2.953 -0.3644  0.3154  0.6945
 8860TIP3    H148071   1.085   2.195   2.966 -1.0829 -0.2269  1.1219
 8860TIP3    H248072   1.206   2.122   3.018 -1.0989  0.0180  1.5034
 8861TIP3   OH248073   0.041   2.836  13.063 -0.0143  0.3345  0.6197
 8861TIP3    H148074   0.031   2.745  13.091 -1.8035  0.6798  1.1445
 8861TIP3    H248075   0.013   2.887  13.139 -1.4054  1.3047 -0.5247
 8862TIP3   OH248076   6.095   5.777  15.188  0.1213 -0.0572 -0.4567
 8862TIP3    H148077   6.005   5.751  15.171 -0.7223  1.7784  1.0186
 8862TIP3    H248078   6.098   5.870  15.168  1.3087  0.2039  0.8371
 8863TIP3   OH248079   6.488   1.728  10.445  0.0252 -0.1873  0.1055
 8863TIP3    H148080   6.405   1.761  10.479  0.4632 -0.9892  1.9858
 8863TIP3    H248081   6.554   1.761  10.506  0.9685 -0.5172 -0.7241
 8864TIP3   OH248082   0.672   2.607  12.801 -0.0484  0.5868 -0.0124
 8864TIP3    H148083   0.725   2.656  12.738 -0.1766  0.6458 -0.0737
 8864TIP3    H248084   0.731   2.538  12.833  0.2257  0.9645  0.3029
 8865TIP3   OH248085   1.813   5.989  12.711  0.1754  0.2265  0.4365
 8865TIP3    H148086   1.903   5.978  12.741  0.4848  0.0823 -0.5315
 8865TIP3    H248087   1.770   6.036  12.782  1.5281  2.1408  0.0289
 8866TIP3   OH248088   2.917   0.079  11.138  0.2773  0.3083 -0.1136
 8866TIP3    H148089   2.941   0.088  11.231 -0.1244  0.6126 -0.0391
 8866TIP3    H248090   2.878  -0.008  11.132 -0.7858  0.7484  0.2444
 8867TIP3   OH248091   1.142   3.923  12.142 -0.0813 -0.1370 -0.0182
 8867TIP3    H148092   1.117   3.959  12.057  0.3243  0.5033  0.1286
 8867TIP3    H248093   1.232   3.953  12.156 -0.2989  0.1393  0.8436
 8868TIP3   OH248094   0.909   3.808  13.018 -0.7243  0.4166  0.5078
 8868TIP3    H148095   0.930   3.769  13.103  1.0794 -1.4412 -0.7436
 8868TIP3    H248096   0.826   3.766  12.994 -0.9506  0.5193  1.0889
 8869TIP3   OH248097   6.993   4.205  14.418 -0.1571  0.3603  0.3543
 8869TIP3    H148098   7.041   4.125  14.395 -0.1546  0.5735 -0.3898
 8869TIP3    H248099   6.901   4.179  14.416 -0.1630  0.4190 -0.0359
 8870TIP3   OH248100   2.703   1.849  11.375 -0.1224 -0.2076 -0.3654
 8870TIP3    H148101   2.779   1.822  11.323 -0.5719  0.5800 -1.4560
 8870TIP3    H248102   2.670   1.926  11.329 -0.1881  0.8424  1.4359
 8871TIP3   OH248103   3.874   6.333  14.202 -0.2595 -0.1414  0.3990
 8871TIP3    H148104   3.789   6.376  14.205 -0.5397 -0.8090  2.4322
 8871TIP3    H248105   3.858   6.244  14.233  1.4475  0.2241  2.4388
 8872TIP3   OH248106   5.213   2.047  13.729  0.3907  0.2742  0.2036
 8872TIP3    H148107   5.219   2.050  13.634  2.1419 -0.2340  0.2703
 8872TIP3    H248108   5.119   2.042  13.748  0.0646 -0.2560 -1.5094
 8873TIP3   OH248109   1.889   6.881   2.459  0.2038  0.1171  0.2442
 8873TIP3    H148110   1.913   6.954   2.515  1.2873  0.8078 -1.1144
 8873TIP3    H248111   1.832   6.919   2.392 -0.1375 -0.4875  0.1823
 8874TIP3   OH248112   0.405   1.856  11.805 -0.1401  0.4321 -0.1146
 8874TIP3    H148113   0.321   1.893  11.781 -0.9018  1.1984  3.3815
 8874TIP3    H248114   0.441   1.918  11.869  1.8503 -1.2316  0.4397
 8875TIP3   OH248115   3.497   4.861  15.192  0.3766  0.0935  0.4761
 8875TIP3    H148116   3.558   4.866  15.266  0.9055  0.3483  0.0225
 8875TIP3    H248117   3.523   4.783  15.144 -0.9956 -0.9811  1.4611
 8876TIP3   OH248118   7.188   2.757   0.920  0.3296 -0.4988  0.6189
 8876TIP3    H148119   7.229   2.789   1.000 -1.3933  1.1641  0.8902
 8876TIP3    H248120   7.257   2.760   0.854  1.1572  0.3671  1.5127
 8877TIP3   OH248121   0.050   2.502  14.662 -0.3739 -0.2513  0.1477
 8877TIP3    H148122  -0.007   2.426  14.672  0.5507 -0.8908  0.5205
 8877TIP3    H248123   0.004   2.558  14.598 -0.0033 -2.1041 -1.7811
 8878TIP3   OH248124   6.713   6.596  13.418 -0.5815 -0.4839  0.6618
 8878TIP3    H148125   6.803   6.627  13.431 -1.1451  0.8421  1.4821
 8878TIP3    H248126   6.715   6.555  13.331  0.5394  0.5808  0.1557
 8879TIP3   OH248127   2.197   3.782   0.241  0.4263  0.4584 -0.3856
 8879TIP3    H148128   2.158   3.737   0.316  0.6735 -0.4822 -0.8179
 8879TIP3    H248129   2.171   3.730   0.165 -1.7389  2.6466 -1.2435
 8880TIP3   OH248130   1.067   2.247  12.888 -0.1369 -0.7549 -0.3110
 8880TIP3    H148131   1.163   2.247  12.884 -0.0636 -2.9456  0.5592
 8880TIP3    H248132   1.045   2.158  12.917 -2.4146 -0.1374 -0.0924
 8881TIP3   OH248133   3.369   4.624  13.775 -0.6806  0.2450  0.4435
 8881TIP3    H148134   3.413   4.708  13.785  0.2269 -0.1499 -0.1435
 8881TIP3    H248135   3.440   4.561  13.763 -1.4250 -0.2516 -1.5357
 8882TIP3   OH248136   2.047   6.225  12.283 -0.0572  0.2451 -0.3819
 8882TIP3    H148137   1.958   6.241  12.314  0.2228 -1.0987  1.1782
 8882TIP3    H248138   2.046   6.135  12.250  1.0089 -0.2340  0.8096
 8883TIP3   OH248139   3.288   3.986  13.245 -0.3598 -0.3808  0.8672
 8883TIP3    H148140   3.380   3.962  13.233 -0.5073 -0.3894 -0.3940
 8883TIP3    H248141   3.287   4.082  13.238 -0.6849 -0.4988 -1.0799
 8884TIP3   OH248142   7.066   1.562   0.433  0.0536  0.1990 -0.1564
 8884TIP3    H148143   7.142   1.521   0.474 -0.1250  1.0170  1.0156
 8884TIP3    H248144   7.093   1.652   0.417 -0.4113  0.2910 -0.4328
 8885TIP3   OH248145   4.275   6.303   2.881  0.6129  0.7157  0.3407
 8885TIP3    H148146   4.304   6.348   2.960  0.0028  1.6880  0.0156
 8885TIP3    H248147   4.238   6.221   2.912 -1.4890  1.9737  1.2427
 8886TIP3   OH248148   0.771   0.680  15.222 -0.1391 -0.1449  0.4328
 8886TIP3    H148149   0.696   0.669  15.281 -0.9786 -1.2421 -0.8038
 8886TIP3    H248150   0.748   0.628  15.145  2.4819 -1.5170  0.5355
 8887TIP3   OH248151   4.164   2.116  12.834 -0.2584  0.1505 -0.0966
 8887TIP3    H148152   4.187   2.063  12.910  2.3268  0.9813 -0.2393
 8887TIP3    H248153   4.163   2.055  12.760  2.8739  0.2637 -0.2890
 8888TIP3   OH248154   1.313   1.009  14.163  0.7007 -0.1138  0.0977
 8888TIP3    H148155   1.347   0.937  14.215 -0.6835  0.5882  2.0485
 8888TIP3    H248156   1.337   1.088  14.212 -0.9591  0.5384 -0.0894
 8889TIP3   OH248157   0.915   0.965   0.069 -0.1749  0.5851  0.3633
 8889TIP3    H148158   0.905   1.028   0.139 -0.5521  1.5353 -0.5284
 8889TIP3    H248159   0.994   0.916   0.091 -0.4016  0.7392  1.5394
 8890TIP3   OH248160   5.563   5.979  12.789  0.4719  0.1006  0.4913
 8890TIP3    H148161   5.542   5.902  12.737 -1.4171  0.3595  0.8079
 8890TIP3    H248162   5.656   5.972  12.807 -0.0657 -3.1981  2.2989
 8891TIP3   OH248163   2.679   3.201  12.385  0.2499 -0.0384  0.4117
 8891TIP3    H148164   2.615   3.152  12.438 -0.0920  0.6359  0.6256
 8891TIP3    H248165   2.646   3.195  12.296 -0.8616  1.4633  0.7022
 8892TIP3   OH248166   6.292   2.904   1.239 -0.3186  0.0547  0.2469
 8892TIP3    H148167   6.277   2.816   1.203  0.0631  0.3727 -0.6886
 8892TIP3    H248168   6.204   2.941   1.248 -0.4196 -0.0524 -0.2909
 8893TIP3   OH248169   5.359   5.058   2.553  0.4480  0.0439 -0.4547
 8893TIP3    H148170   5.299   5.129   2.575 -1.1140 -0.9047 -1.5367
 8893TIP3    H248171   5.372   5.011   2.635  1.1853  1.3436  0.1801
 8894TIP3   OH248172   4.134   2.059  12.562 -0.0288  0.0804  0.4413
 8894TIP3    H148173   4.091   2.142  12.541 -0.0447  0.2211  1.0172
 8894TIP3    H248174   4.098   1.997  12.499  0.7339  0.7295 -0.6596
 8895TIP3   OH248175   4.884   1.141   0.751 -0.2241  0.6677 -0.1721
 8895TIP3    H148176   4.822   1.208   0.720 -0.3295  0.7602  0.2301
 8895TIP3    H248177   4.902   1.166   0.842  0.9919  1.0780 -0.5141
 8896TIP3   OH248178   5.179   5.224  15.608  0.7629  0.7447 -0.2973
 8896TIP3    H148179   5.179   5.195  15.700 -0.3995  0.0842 -0.4943
 8896TIP3    H248180   5.086   5.238  15.588  0.7156 -1.8636 -2.2237
 8897TIP3   OH248181   1.585   3.867  12.814 -0.2868  0.3897 -0.2201
 8897TIP3    H148182   1.496   3.901  12.809 -0.5769 -0.2702  0.2938
 8897TIP3    H248183   1.610   3.880  12.906 -0.5640 -1.1579  0.0893
 8898TIP3   OH248184   7.055   4.344  13.935 -0.2564  0.2078 -0.1733
 8898TIP3    H148185   7.067   4.439  13.925 -2.0724  0.4854  0.0640
 8898TIP3    H248186   7.108   4.306  13.864  0.3565  1.3963 -0.3724
 8899TIP3   OH248187   1.275   6.614   0.238  0.3236 -0.5284  0.0275
 8899TIP3    H148188   1.192   6.656   0.214  0.9097  0.1025 -0.9001
 8899TIP3    H248189   1.270   6.605   0.333 -0.5268  0.1194  0.0502
 8900TIP3   OH248190   3.070   6.167   0.904 -0.2264 -0.0822 -0.4519
 8900TIP3    H148191   3.091   6.248   0.857  0.6960  0.1325  0.3098
 8900TIP3    H248192   3.007   6.123   0.848  1.0691  0.0312 -2.0474
 8901TIP3   OH248193   6.088   5.227  13.861  0.0107 -0.3780  0.1633
 8901TIP3    H148194   6.176   5.263  13.851 -0.4031  0.6667  0.2614
 8901TIP3    H248195   6.031   5.304  13.870 -0.5770 -1.0723  2.7828
 8902TIP3   OH248196   5.902   3.848  14.008  0.1039 -0.1266  0.6160
 8902TIP3    H148197   5.861   3.791  14.073  0.6243 -1.6211 -0.3673
 8902TIP3    H248198   5.988   3.810  13.993  1.7719  2.7378  2.3300
 8903TIP3   OH248199   1.567   5.648   1.050 -0.4999 -0.4122  0.8034
 8903TIP3    H148200   1.642   5.670   1.105  0.2711  0.3930 -0.5471
 8903TIP3    H248201   1.544   5.731   1.007 -1.3005 -0.9533  0.1773
 8904TIP3   OH248202   0.707   4.136  14.914  0.5669  0.0496  0.4858
 8904TIP3    H148203   0.803   4.139  14.912  0.5906 -1.3440 -2.6013
 8904TIP3    H248204   0.679   4.208  14.857 -0.1451 -1.5424 -1.2100
 8905TIP3   OH248205   1.480   3.520  15.519 -0.1505  0.7616 -0.6489
 8905TIP3    H148206   1.419   3.488  15.585 -1.2986  0.4220 -1.8289
 8905TIP3    H248207   1.429   3.586  15.471  0.2191  0.0847 -2.0026
 8906TIP3   OH248208   5.002   2.372  14.377 -0.0046  0.2967 -0.0959
 8906TIP3    H148209   4.999   2.279  14.355  1.3936  0.3666 -0.6164
 8906TIP3    H248210   5.087   2.384  14.420 -0.1674  1.3347 -0.0535
 8907TIP3   OH248211   6.814   4.023  13.661 -0.5713 -0.4597 -0.0490
 8907TIP3    H148212   6.908   4.023  13.680 -0.0623  0.3013 -2.3977
 8907TIP3    H248213   6.780   4.099  13.708  0.4744  0.8493 -1.3733
 8908TIP3   OH248214   4.043   5.973  12.484 -0.2499 -0.4401  0.2505
 8908TIP3    H148215   3.973   5.961  12.549  1.4593  1.3949  2.5293
 8908TIP3    H248216   4.122   5.941  12.528  1.2757  2.5806 -0.1746
 8909TIP3   OH248217   1.882   2.783  13.571  0.4742  0.0982  0.6402
 8909TIP3    H148218   1.921   2.818  13.651  2.1164  0.6035 -0.3560
 8909TIP3    H248219   1.839   2.858  13.530 -0.2875 -0.1404  0.9935
 8910TIP3   OH248220   6.486   6.619  11.026 -0.3748 -0.1171 -0.7443
 8910TIP3    H148221   6.555   6.662  10.975 -1.4440 -0.2034 -2.2887
 8910TIP3    H248222   6.533   6.574  11.097  1.0937  0.3048 -1.4286
 8911TIP3   OH248223   2.232   6.934  13.598 -0.1447  0.1606  0.3878
 8911TIP3    H148224   2.306   6.994  13.607 -0.0573  0.0922  0.1512
 8911TIP3    H248225   2.192   6.931  13.684  0.9010 -0.8014  0.8441
 8912TIP3   OH248226   4.591   3.093  14.361  0.4268  0.2542  0.5575
 8912TIP3    H148227   4.617   3.030  14.294 -1.1621 -0.0102  0.1645
 8912TIP3    H248228   4.498   3.075  14.376  0.5418  0.8996  2.1980
 8913TIP3   OH248229   0.522   2.675  15.197  1.0088 -0.2555 -0.7830
 8913TIP3    H148230   0.576   2.663  15.275  0.6284  0.0454 -0.4703
 8913TIP3    H248231   0.568   2.627  15.128 -0.2115 -3.1608  0.3241
 8914TIP3   OH248232   1.049   6.135  15.496  0.0929 -0.3442 -0.1750
 8914TIP3    H148233   1.051   6.040  15.487  1.2547 -0.3454  0.0487
 8914TIP3    H248234   1.118   6.166  15.438  1.0004  0.2378  1.1898
 8915TIP3   OH248235   2.002   4.772  13.445 -0.0577 -0.9594 -0.0166
 8915TIP3    H148236   1.994   4.678  13.464  0.3224 -0.9347  0.2631
 8915TIP3    H248237   1.919   4.794  13.402 -0.5038 -1.2483  0.6712
 8916TIP3   OH248238   2.468   0.820  14.485  0.0070 -0.3865  0.0617
 8916TIP3    H148239   2.395   0.853  14.432  0.0340 -0.9413 -0.3210
 8916TIP3    H248240   2.531   0.892  14.485 -2.2775  1.8387  3.8961
 8917TIP3   OH248241   0.740   3.381  13.773 -0.4818 -0.1239 -0.0231
 8917TIP3    H148242   0.802   3.453  13.762 -0.9628  0.5687  1.6343
 8917TIP3    H248243   0.680   3.390  13.699 -1.1044  1.7953  0.6557
 8918TIP3   OH248244   1.793   3.406  13.809  0.1609  1.0868  0.4716
 8918TIP3    H148245   1.863   3.359  13.763 -0.0819  0.3254  0.8615
 8918TIP3    H248246   1.807   3.498  13.787  0.0270  0.7333 -1.1650
 8919TIP3   OH248247   2.981   3.752  14.426 -0.2739  0.4433 -1.0959
 8919TIP3    H148248   3.036   3.683  14.389 -2.0976 -1.2922 -0.5976
 8919TIP3    H248249   2.903   3.707  14.458 -2.6275  3.0019 -2.9771
 8920TIP3   OH248250   0.786   2.049   1.216 -0.4030 -0.0557  0.3922
 8920TIP3    H148251   0.859   2.104   1.189 -0.9574  0.5628  0.1267
 8920TIP3    H248252   0.785   2.054   1.311  0.6456 -1.0472  0.4640
 8921TIP3   OH248253   1.239   0.567  14.773  0.1350 -0.0819 -0.6636
 8921TIP3    H148254   1.287   0.594  14.851 -2.0499 -0.9437  1.0413
 8921TIP3    H248255   1.239   0.644  14.716  0.8964  0.8723  0.6067
 8922TIP3   OH248256   6.769   7.093  13.869  0.4343 -0.4654  0.2830
 8922TIP3    H148257   6.815   7.012  13.891  0.7330 -0.4036 -0.1058
 8922TIP3    H248258   6.773   7.099  13.773 -1.1187 -0.8830  0.1768
 8923TIP3   OH248259   3.254   2.827  14.496 -0.1268 -0.2629 -0.4103
 8923TIP3    H148260   3.276   2.761  14.562 -3.2985 -1.2682 -0.3013
 8923TIP3    H248261   3.244   2.908  14.546 -2.9241 -1.1029  0.4478
 8924TIP3   OH248262   0.216   2.854   2.653  0.5916 -0.0971  0.1040
 8924TIP3    H148263   0.241   2.878   2.742  0.3710 -0.4853  0.2720
 8924TIP3    H248264   0.142   2.911   2.633  0.3297 -0.3456  0.3516
 8925TIP3   OH248265   6.944   6.508  14.039  0.5184 -0.0041 -0.4298
 8925TIP3    H148266   6.876   6.449  14.071  1.0478 -0.3503  0.0681
 8925TIP3    H248267   7.025   6.476  14.080  1.1660 -0.2688 -1.8722
 8926TIP3   OH248268   1.888   2.708   0.794  0.6713 -0.1738  0.4594
 8926TIP3    H148269   1.969   2.750   0.765 -0.4545  0.8200 -1.4053
 8926TIP3    H248270   1.852   2.669   0.714 -1.3013  0.4977  0.9852
 8927TIP3   OH248271   1.368   1.761   0.597 -0.0642 -0.1335  0.1938
 8927TIP3    H148272   1.430   1.757   0.524 -2.0244 -0.7137 -1.4711
 8927TIP3    H248273   1.348   1.854   0.607 -2.5943 -0.3134 -2.4798
 8928TIP3   OH248274   5.412   3.540  12.460 -0.3058 -0.1479  0.7321
 8928TIP3    H148275   5.386   3.471  12.398 -1.2441 -0.3781  1.3655
 8928TIP3    H248276   5.490   3.505  12.502  0.2073 -0.0914 -0.1517
 8929TIP3   OH248277   0.067   2.388  12.961  0.4601  0.6416 -0.5334
 8929TIP3    H148278   0.076   2.395  12.866  0.5127  0.5132 -0.5380
 8929TIP3    H248279   0.080   2.296  12.980  0.0239  0.5949 -0.4465
 8930TIP3   OH248280   0.036   4.701  14.191  0.7455  0.3031 -0.6014
 8930TIP3    H148281   0.053   4.793  14.170  0.7099  0.9185  1.9782
 8930TIP3    H248282  -0.045   4.680  14.145  0.7322  1.5691 -1.1752
 8931TIP3   OH248283   1.284   4.404  11.126  0.0197  0.7148 -0.6052
 8931TIP3    H148284   1.340   4.410  11.048 -0.0904  2.3004 -0.5874
 8931TIP3    H248285   1.312   4.477  11.181 -1.4422  0.9628 -0.1692
 8932TIP3   OH248286   0.472   7.022  13.983 -0.0936 -0.0600 -0.3434
 8932TIP3    H148287   0.449   7.115  13.981  2.3340  0.5667 -1.5700
 8932TIP3    H248288   0.407   6.982  14.041 -0.3496  2.6309  1.3204
 8933TIP3   OH248289   1.939   0.390   0.260  0.0398 -0.2439 -0.1437
 8933TIP3    H148290   2.006   0.373   0.327 -0.4664  0.5744  0.5754
 8933TIP3    H248291   1.989   0.401   0.179  0.6233 -1.7045  0.0078
 8934TIP3   OH248292   5.295   5.855  14.880 -0.8505  0.0238 -0.4183
 8934TIP3    H148293   5.278   5.848  14.786 -2.1828 -2.4787 -0.0258
 8934TIP3    H248294   5.373   5.803  14.895 -1.6183 -0.9995  0.1025
 8935TIP3   OH248295   2.790   3.540   1.174  0.0432 -0.0860 -0.3710
 8935TIP3    H148296   2.844   3.593   1.115 -0.8394  1.0256 -0.1908
 8935TIP3    H248297   2.849   3.519   1.247  1.1163 -1.4142 -1.5820
 8936TIP3   OH248298   1.614   2.015   1.118 -0.1453 -0.3079 -0.2436
 8936TIP3    H148299   1.521   2.013   1.140 -0.4141  2.0031 -1.1228
 8936TIP3    H248300   1.628   1.935   1.068 -1.3993 -1.2325  0.8290
 8937TIP3   OH248301   4.729   4.862   0.563 -0.4503 -0.8811  0.5632
 8937TIP3    H148302   4.688   4.947   0.552 -0.2812 -0.8974 -0.2763
 8937TIP3    H248303   4.818   4.874   0.529 -0.0405 -1.0777  1.5455
 8938TIP3   OH248304   4.516   7.188  11.171 -0.5545  0.1480  0.1719
 8938TIP3    H148305   4.450   7.123  11.147 -0.9061  1.3621 -2.3388
 8938TIP3    H248306   4.467   7.259  11.211 -0.4286 -0.1803  0.9100
 8939TIP3   OH248307   0.379   0.431  11.234 -0.2373 -0.0145  0.2959
 8939TIP3    H148308   0.296   0.390  11.209 -1.2435  1.6957  0.7408
 8939TIP3    H248309   0.400   0.393  11.319 -0.6759 -0.2977  0.2785
 8940TIP3   OH248310   4.815   1.499  15.044  0.4333 -0.1977  0.3643
 8940TIP3    H148311   4.765   1.514  15.124 -0.0911  0.5712 -0.1097
 8940TIP3    H248312   4.800   1.577  14.990 -0.9203 -1.6164 -1.3732
 8941TIP3   OH248313   5.464   3.923  13.309 -0.1158  0.0127 -0.4277
 8941TIP3    H148314   5.448   3.840  13.265  0.3870  1.2602 -3.0632
 8941TIP3    H248315   5.418   3.915  13.393 -0.2836 -2.8003 -0.7386
 8942TIP3   OH248316   6.124   7.199  12.474 -0.3285  0.1776 -0.1951
 8942TIP3    H148317   6.104   7.274  12.529  1.2230  0.3854  0.1049
 8942TIP3    H248318   6.064   7.131  12.504 -1.5397  1.1942 -0.2705
 8943TIP3   OH248319   0.223   4.419  15.027  0.1947 -0.1641 -0.1851
 8943TIP3    H148320   0.194   4.332  15.000 -0.1398  0.0568 -0.5467
 8943TIP3    H248321   0.154   4.477  14.997  0.8309  0.3266 -0.7089
 8944TIP3   OH248322   0.495   3.343  15.445 -0.0257 -0.0675 -0.0301
 8944TIP3    H148323   0.587   3.339  15.471 -0.0530  0.8151  0.2261
 8944TIP3    H248324   0.466   3.252  15.444  1.4804 -0.5672 -2.3749
 8945TIP3   OH248325   1.075   0.200   0.926 -0.4347 -0.0045 -0.8897
 8945TIP3    H148326   1.161   0.218   0.889 -0.6552 -1.7043 -2.2485
 8945TIP3    H248327   1.092   0.180   1.018  0.5239  0.4453 -0.9646
 8946TIP3   OH248328   1.482   2.182  11.635 -0.1248  0.3134 -0.7669
 8946TIP3    H148329   1.512   2.091  11.641  3.1888  1.3310 -0.8746
 8946TIP3    H248330   1.520   2.214  11.553 -0.4450  2.0759 -0.2484
 8947TIP3   OH248331   5.797   3.799  13.110  0.1486  0.9988 -0.3004
 8947TIP3    H148332   5.780   3.717  13.157 -2.0746  0.1715 -2.4425
 8947TIP3    H248333   5.781   3.868  13.175 -2.5279 -0.1270  0.3040
 8948TIP3   OH248334   3.033   4.795   2.215  0.0716  0.1741 -0.3963
 8948TIP3    H148335   3.000   4.769   2.129 -0.6376  0.7979 -0.3221
 8948TIP3    H248336   3.112   4.845   2.196 -2.0357  3.4553 -0.9448
 8949TIP3   OH248337   0.968   5.709  13.373 -0.4657 -0.1521 -0.4351
 8949TIP3    H148338   0.915   5.724  13.450  0.2213 -2.0205  0.4363
 8949TIP3    H248339   0.960   5.615  13.356  1.5504 -0.2541 -0.9986
 8950TIP3   OH248340   5.378   0.022  10.920  0.1672 -0.0542  0.6429
 8950TIP3    H148341   5.300  -0.031  10.905 -0.2431  0.2801  1.5814
 8950TIP3    H248342   5.365   0.100  10.866 -0.1555  0.0029  0.8007
 8951TIP3   OH248343   4.958   5.011   0.055  0.4582  0.3580 -0.4885
 8951TIP3    H148344   4.999   5.059   0.126  0.7175 -0.2694 -0.2078
 8951TIP3    H248345   4.868   4.996   0.085  0.2463  1.0504 -0.7683
 8952TIP3   OH248346   0.233   4.000  15.233 -0.3506  0.3821  0.2139
 8952TIP3    H148347   0.266   3.925  15.282 -0.2142  0.3950  0.1394
 8952TIP3    H248348   0.145   4.014  15.269 -0.0213  0.7726  0.8902
 8953TIP3   OH248349   3.539   6.012  11.051  0.0327  0.0940  0.6126
 8953TIP3    H148350   3.505   6.076  10.989 -0.7714  0.0935  1.0449
 8953TIP3    H248351   3.498   5.930  11.026  0.2235 -0.0371  0.7299
 8954TIP3   OH248352   5.591   3.740  11.751  0.2111  0.0917 -0.5784
 8954TIP3    H148353   5.551   3.823  11.725 -0.1261  0.1128  0.0019
 8954TIP3    H248354   5.681   3.763  11.774  0.8908 -0.1179 -2.8632
 8955TIP3   OH248355   5.445   7.030   1.735  0.4939  0.0457 -0.2356
 8955TIP3    H148356   5.389   7.107   1.727  0.8474  0.3446  0.1653
 8955TIP3    H248357   5.396   6.971   1.794  0.8032  0.4967  0.4806
 8956TIP3   OH248358   5.448   0.726  12.070 -0.3053 -0.1836  0.0286
 8956TIP3    H148359   5.454   0.703  12.163 -0.5478  1.3583  0.4399
 8956TIP3    H248360   5.539   0.744  12.045 -0.1967 -0.9433 -0.1268
 8957TIP3   OH248361   7.085   3.575  10.276 -0.5384 -0.4135 -0.4892
 8957TIP3    H148362   7.048   3.499  10.321 -0.7340 -0.1804 -0.2539
 8957TIP3    H248363   7.087   3.550  10.184 -0.6335 -0.6893 -0.4168
 8958TIP3   OH248364   0.342   5.338  11.245 -0.3449  0.0152 -0.1699
 8958TIP3    H148365   0.286   5.280  11.193  0.5076 -1.6490  0.7227
 8958TIP3    H248366   0.310   5.327  11.335  0.0823  0.6389  0.0585
 8959TIP3   OH248367   6.490   5.121  12.152 -0.2246  0.2434 -0.3256
 8959TIP3    H148368   6.406   5.116  12.197  0.6232 -1.3386  1.1282
 8959TIP3    H248369   6.503   5.033  12.115  1.6523 -0.1107  1.0889
 8960TIP3   OH248370   0.136   4.483  13.728 -0.3838 -0.3475  0.2494
 8960TIP3    H148371   0.188   4.558  13.758 -0.1148  1.0782 -3.5432
 8960TIP3    H248372   0.201   4.417  13.703 -0.4924 -0.0468 -0.8345
 8961TIP3   OH248373   2.708   2.393  15.451 -0.9199 -0.1009 -0.2918
 8961TIP3    H148374   2.767   2.355  15.516 -1.2948 -1.2629 -0.6312
 8961TIP3    H248375   2.766   2.435  15.387 -0.4610 -1.2967 -0.6643
 8962TIP3   OH248376   4.134   0.053  14.785 -0.2818 -0.3488  0.1431
 8962TIP3    H148377   4.076  -0.022  14.798 -1.6888  0.7685  0.3644
 8962TIP3    H248378   4.216   0.014  14.756 -0.9948 -1.9826  0.2437
 8963TIP3   OH248379   0.605   2.614   0.742  0.4117  0.3790  0.4013
 8963TIP3    H148380   0.685   2.632   0.693  0.3884  0.4488  0.3891
 8963TIP3    H248381   0.628   2.632   0.833  0.0892  1.4587  0.2669
 8964TIP3   OH248382   6.670   3.920  12.852 -0.1943 -0.5223 -0.2388
 8964TIP3    H148383   6.703   4.006  12.877  0.1018 -0.8408  0.4840
 8964TIP3    H248384   6.575   3.927  12.861 -0.1548 -0.3420  0.0551
 8965TIP3   OH248385   3.764   0.101  15.359 -0.8185 -0.1214 -0.4273
 8965TIP3    H148386   3.784   0.190  15.387  0.7360 -0.1999 -1.2484
 8965TIP3    H248387   3.671   0.091  15.378 -1.2368  1.9989 -1.2009
 8966TIP3   OH248388   2.357   3.348  13.294  0.1572 -0.1526  0.0414
 8966TIP3    H148389   2.287   3.316  13.238  2.1717 -2.7086 -1.1347
 8966TIP3    H248390   2.360   3.287  13.367  1.3253 -0.2427 -0.0642
 8967TIP3   OH248391   5.119   2.422   0.788 -0.1420 -0.1290 -0.2407
 8967TIP3    H148392   5.187   2.485   0.814 -0.9418  1.3007 -1.5614
 8967TIP3    H248393   5.152   2.384   0.707 -0.2335 -0.5188 -0.0936
 8968TIP3   OH248394   0.760   4.186  13.759  0.3643  0.2331  0.0286
 8968TIP3    H148395   0.830   4.219  13.702  0.2722  0.9007  0.3032
 8968TIP3    H248396   0.772   4.232  13.842 -0.7772  0.8232 -0.1141
 8969TIP3   OH248397   4.882   6.531   2.463 -0.1796  0.1872  0.1305
 8969TIP3    H148398   4.853   6.620   2.482 -2.2849 -0.4670  0.0424
 8969TIP3    H248399   4.845   6.477   2.532  0.8185 -0.6740  0.0072
 8970TIP3   OH248400   4.855   0.497  12.243 -0.0634  0.2454 -0.3594
 8970TIP3    H148401   4.882   0.583  12.213  0.1706  0.8702  1.6097
 8970TIP3    H248402   4.855   0.503  12.339  3.2176 -2.8995 -0.0481
 8971TIP3   OH248403   3.989   4.322  14.729  0.1936 -0.0985  0.2530
 8971TIP3    H148404   3.902   4.290  14.705 -0.9644  2.3172  1.0693
 8971TIP3    H248405   4.049   4.271  14.675 -1.8775 -0.2686 -1.9889
 8972TIP3   OH248406   3.919   3.822   0.029 -0.2874 -0.2385 -0.0051
 8972TIP3    H148407   4.003   3.867   0.025  0.1207 -0.7464  2.0805
 8972TIP3    H248408   3.942   3.729   0.033 -1.0100 -0.4640 -0.8959
 8973TIP3   OH248409   5.124   5.126   2.094 -0.1459  0.5492  0.3102
 8973TIP3    H148410   5.095   5.089   2.177 -0.5464  1.4963  0.5980
 8973TIP3    H248411   5.125   5.052   2.033 -1.3865  0.1533  0.7580
 8974TIP3   OH248412   6.531   2.545   1.889 -0.1690 -0.0512  0.2594
 8974TIP3    H148413   6.620   2.579   1.901  0.0869 -0.2023 -1.1601
 8974TIP3    H248414   6.485   2.614   1.841 -0.4622 -0.4950 -0.0998
 8975TIP3   OH248415   5.889   2.395  13.641  0.0312 -0.3344 -0.2250
 8975TIP3    H148416   5.858   2.475  13.682 -0.2521 -0.6403  0.1673
 8975TIP3    H248417   5.814   2.360  13.594  0.5622  0.4078 -1.6423
 8976TIP3   OH248418   6.136   4.256  14.027  0.1699  0.3672  0.2072
 8976TIP3    H148419   6.091   4.195  14.086  1.5865 -1.6714 -0.7419
 8976TIP3    H248420   6.148   4.335  14.079 -3.4892  0.6178  0.8398
 8977TIP3   OH248421   0.828   2.389  12.853  0.6597  0.0872  0.4622
 8977TIP3    H148422   0.905   2.337  12.830 -0.8010 -1.1649 -1.8205
 8977TIP3    H248423   0.786   2.341  12.924  0.3749 -0.8127 -0.3115
 8978TIP3   OH248424   6.862   5.877  12.403  0.1337  0.6611 -0.2741
 8978TIP3    H148425   6.798   5.807  12.405 -0.0126  0.8278  2.3890
 8978TIP3    H248426   6.942   5.836  12.372  0.1549 -0.8114  1.6410
 8979TIP3   OH248427   1.007   3.429  14.061 -0.0523 -0.1979 -0.4061
 8979TIP3    H148428   1.038   3.517  14.082  1.0603 -0.4199 -1.0994
 8979TIP3    H248429   0.979   3.434  13.970  1.3983 -0.9227 -0.9049
 8980TIP3   OH248430   1.571   3.319  14.998 -0.0210  0.0956  0.1053
 8980TIP3    H148431   1.482   3.328  15.034 -0.2665 -0.5301 -0.3298
 8980TIP3    H248432   1.560   3.335  14.905  0.0225 -1.6987 -0.2231
 8981TIP3   OH248433   3.265   5.682  14.687  0.0653  0.0937 -0.8012
 8981TIP3    H148434   3.175   5.659  14.662 -0.9146  3.0642 -0.1661
 8981TIP3    H248435   3.265   5.678  14.782  0.2780  1.2083 -0.7491
 8982TIP3   OH248436   6.638   2.470  11.862 -0.4184  0.1516  0.0750
 8982TIP3    H148437   6.601   2.530  11.926 -2.7174  0.3737 -1.4073
 8982TIP3    H248438   6.636   2.519  11.779  2.2772 -0.2114 -0.2487
 8983TIP3   OH248439   3.801   7.056  13.212 -0.2987 -0.8171  0.6265
 8983TIP3    H148440   3.743   7.063  13.288 -2.1898 -3.1352 -0.5414
 8983TIP3    H248441   3.873   7.000  13.242 -0.5567 -0.9608  0.9841
 8984TIP3   OH248442   5.651   2.287  15.037  0.7019 -0.3540  0.3082
 8984TIP3    H148443   5.624   2.263  15.126  0.7652  2.5697  1.1575
 8984TIP3    H248444   5.587   2.243  14.981 -0.5999 -0.5711  1.9030
 8985TIP3   OH248445   0.276   3.715  10.574  0.5155 -0.3081 -0.0188
 8985TIP3    H148446   0.212   3.651  10.541  0.3969 -1.1276  1.7834
 8985TIP3    H248447   0.246   3.799  10.538 -2.2615 -0.4929  1.7096
 8986TIP3   OH248448   0.698   2.307  14.832 -0.7785  0.3307  0.0863
 8986TIP3    H148449   0.674   2.216  14.849  0.6808 -0.2183 -0.6759
 8986TIP3    H248450   0.697   2.348  14.918  0.4192 -0.8805  0.7025
 8987TIP3   OH248451   0.029   3.234   1.450 -0.6014 -0.6689 -0.1793
 8987TIP3    H148452  -0.034   3.258   1.381 -0.6591  0.0168  0.1160
 8987TIP3    H248453  -0.023   3.234   1.530 -0.0160  0.8200  0.2023
 8988TIP3   OH248454   1.334   1.562  13.687  0.2134 -0.2886  0.1823
 8988TIP3    H148455   1.276   1.488  13.704 -0.3861 -0.1656 -1.2735
 8988TIP3    H248456   1.294   1.635  13.736 -0.7483 -0.2546 -0.6418
 8989TIP3   OH248457   6.659   6.192  15.410  0.5164  0.3584 -0.7204
 8989TIP3    H148458   6.614   6.274  15.390  0.5243  0.7986  1.0519
 8989TIP3    H248459   6.591   6.135  15.445  0.5545 -0.3323 -1.7490
 8990TIP3   OH248460   4.839   3.692   4.271 -0.0798 -0.5313  0.4856
 8990TIP3    H148461   4.876   3.769   4.229 -1.8424  0.5817  0.9456
 8990TIP3    H248462   4.765   3.667   4.215  0.3753 -1.8085  0.4269
 8991TIP3   OH248463   7.105   1.675  15.063  0.1543  0.1102 -0.2585
 8991TIP3    H148464   7.133   1.669  15.154  0.0089 -1.5795 -0.3042
 8991TIP3    H248465   7.094   1.768  15.047 -0.4195  0.3871  1.6330
 8992TIP3   OH248466   4.378   2.195   2.869 -0.2980 -0.8840  1.0653
 8992TIP3    H148467   4.392   2.275   2.920 -1.8426 -0.0550  0.2033
 8992TIP3    H248468   4.306   2.150   2.915 -0.2914 -1.1523  0.8095
 8993TIP3   OH248469   5.921   1.359  13.262 -0.3258 -0.0742 -0.0850
 8993TIP3    H148470   5.907   1.322  13.175  0.5486  1.1938 -0.7740
 8993TIP3    H248471   5.855   1.428  13.270 -0.8758 -0.6661  0.5475
 8994TIP3   OH248472   2.836   2.901   0.498  0.9167 -0.2756  0.1883
 8994TIP3    H148473   2.757   2.892   0.444  1.2388  0.3284 -0.3841
 8994TIP3    H248474   2.849   2.995   0.506  0.3134 -0.3338  2.1422
 8995TIP3   OH248475   0.278   1.614   0.293  0.0400 -0.2492  0.1924
 8995TIP3    H148476   0.367   1.581   0.288  0.0436 -0.5389  1.8615
 8995TIP3    H248477   0.282   1.687   0.355 -0.6637  0.4696 -0.6025
 8996TIP3   OH248478   3.747   4.963  14.374 -0.6040 -0.0382  0.1071
 8996TIP3    H148479   3.796   4.922  14.303  1.2372 -1.2599  2.0050
 8996TIP3    H248480   3.695   5.032  14.332  0.9363 -0.2926 -2.2823
 8997TIP3   OH248481   4.695   6.162  13.847  0.1167  0.4243  1.3164
 8997TIP3    H148482   4.722   6.214  13.771 -1.8079  0.2753  0.4942
 8997TIP3    H248483   4.743   6.080  13.838  1.3090  1.1101  1.2841
 8998TIP3   OH248484   5.833   5.745   0.700  0.4221  0.5036 -0.1241
 8998TIP3    H148485   5.747   5.764   0.664  0.4604  0.1948 -0.3897
 8998TIP3    H248486   5.881   5.707   0.626  0.6554  0.3023  0.1311
 8999TIP3   OH248487   5.971   1.532  15.399 -0.1846  0.5174  0.6447
 8999TIP3    H148488   6.041   1.549  15.462  1.0712 -1.3879 -0.1906
 8999TIP3    H248489   5.890   1.543  15.450  0.7571  1.0972  2.0466
 9000TIP3   OH248490   3.959   6.775  14.106  0.0201 -0.3667  0.1913
 9000TIP3    H148491   3.909   6.855  14.124 -0.6126 -0.5494 -0.6755
 9000TIP3    H248492   3.892   6.707  14.095  0.4651 -0.6469 -0.8324
 9001TIP3   OH248493   7.040   1.934  15.084 -0.0474 -0.1764  0.2318
 9001TIP3    H148494   6.958   1.971  15.116  0.3222  1.1302 -0.3258
 9001TIP3    H248495   7.108   1.982  15.131  0.4314 -0.2277 -0.4056
 9002TIP3   OH248496   1.805   0.935   2.685  0.2859  0.0243 -0.0751
 9002TIP3    H148497   1.794   1.023   2.722 -0.9524  0.2792 -1.0076
 9002TIP3    H248498   1.734   0.885   2.725  1.9736 -1.0056  1.7300
 9003TIP3   OH248499   6.072   6.599   2.015  0.0651  0.1580  0.5623
 9003TIP3    H148500   6.066   6.512   2.053  0.5464  0.6106  1.6963
 9003TIP3    H248501   5.986   6.638   2.029 -0.6498 -0.6967 -1.3578
 9004TIP3   OH248502   0.768   6.926   0.173 -0.4870 -0.2495  0.5878
 9004TIP3    H148503   0.843   6.962   0.221  1.2029 -1.8116 -0.7945
 9004TIP3    H248504   0.708   7.000   0.163  2.7757  2.2211 -2.0129
 9005TIP3   OH248505   0.201   0.536  11.748 -0.4601  0.2009  0.3932
 9005TIP3    H148506   0.146   0.599  11.793  0.5259  1.0708  0.4042
 9005TIP3    H248507   0.195   0.456  11.801 -2.1956  0.0818  0.0402
 9006TIP3   OH248508   3.508   2.527   0.585  0.0884  0.0116 -0.5424
 9006TIP3    H148509   3.487   2.619   0.600 -0.7177 -0.6283  2.8739
 9006TIP3    H248510   3.422   2.483   0.586  0.5343 -0.8778 -1.1489
 9007TIP3   OH248511   0.201   6.129  13.696  0.0752  0.0924 -0.2885
 9007TIP3    H148512   0.187   6.221  13.676  1.0305  0.4399  0.6246
 9007TIP3    H248513   0.209   6.087  13.610 -0.4034  0.8468 -0.7094
 9008TIP3   OH248514   2.543   6.642  13.419  0.4013 -0.2174  0.1710
 9008TIP3    H148515   2.471   6.685  13.372 -0.0766 -1.5044 -0.3103
 9008TIP3    H248516   2.595   6.714  13.455 -1.0720  0.7331  0.4292
 9009TIP3   OH248517   7.197   5.654  14.067 -0.4761 -1.0422 -0.0406
 9009TIP3    H148518   7.153   5.708  14.001 -0.8156 -0.9536  0.2511
 9009TIP3    H248519   7.270   5.613  14.021  1.2296  1.5395  0.3107
 9010TIP3   OH248520   3.102   4.699  12.775 -0.3308  0.0706  0.4675
 9010TIP3    H148521   3.077   4.638  12.845 -0.9455  1.2691  1.3157
 9010TIP3    H248522   3.094   4.648  12.695 -0.5055 -1.0667  1.1850
 9011TIP3   OH248523   1.502   1.685  14.537  0.5342 -0.4349 -0.0920
 9011TIP3    H148524   1.463   1.757  14.586 -2.1899 -0.9537 -1.4263
 9011TIP3    H248525   1.474   1.606  14.584  2.9342 -0.7045  0.9661
 9012TIP3   OH248526   1.331   0.802  15.253  0.0054  0.3283  0.0901
 9012TIP3    H148527   1.260   0.755  15.296 -0.5242  0.4069 -0.7028
 9012TIP3    H248528   1.367   0.859  15.322 -1.2644  0.9486  0.2606
 9013TIP3   OH248529   1.506   1.442  14.642  0.3965  0.3569 -0.2374
 9013TIP3    H148530   1.600   1.459  14.654  0.7281 -0.5406 -1.4248
 9013TIP3    H248531   1.500   1.347  14.634 -0.4878  0.4784 -1.1830
 9014TIP3   OH248532   0.596   2.580  13.566 -0.2423 -0.1329  0.1898
 9014TIP3    H148533   0.634   2.620  13.487 -2.0257 -0.7446 -1.0063
 9014TIP3    H248534   0.671   2.567  13.624  1.2992 -0.7179 -1.8361
 9015TIP3   OH248535   0.097   6.308   1.768  0.2495  0.1033  0.3797
 9015TIP3    H148536   0.170   6.282   1.713  0.4234 -0.9876  1.1069
 9015TIP3    H248537   0.131   6.306   1.857 -0.3506  0.7041  0.6355
 9016TIP3   OH248538   1.973   1.456  12.075  0.1334 -0.2952  0.0293
 9016TIP3    H148539   1.896   1.493  12.119 -0.7167 -1.3797 -0.5121
 9016TIP3    H248540   1.967   1.362  12.092  1.4423 -0.3645  0.1262
 9017TIP3   OH248541   5.956   6.804  12.527  0.3312 -0.4276 -0.3978
 9017TIP3    H148542   6.018   6.732  12.542  0.7778  0.3693  1.7455
 9017TIP3    H248543   5.879   6.780  12.579 -0.0201  0.0320 -0.7072
 9018TIP3   OH248544   7.149   5.797  10.838  0.7134 -0.2561  0.8634
 9018TIP3    H148545   7.202   5.737  10.890 -0.0877 -0.2988  1.6546
 9018TIP3    H248546   7.073   5.745  10.811 -0.4580  0.6532  2.3555
 9019TIP3   OH248547   2.677   5.757  14.484  0.2415 -0.5900 -0.0281
 9019TIP3    H148548   2.715   5.680  14.525  2.1977  0.1920 -0.3503
 9019TIP3    H248549   2.619   5.794  14.552  0.4421 -1.4902  0.6359
 9020TIP3   OH248550   4.264   6.177   4.708  0.5815 -0.7402 -0.1307
 9020TIP3    H148551   4.314   6.186   4.627 -0.5569 -0.7304 -0.8417
 9020TIP3    H248552   4.285   6.088   4.739  0.3272 -1.0797 -0.9080
 9021TIP3   OH248553   3.281   5.940  14.602 -0.2259 -0.1629  0.6116
 9021TIP3    H148554   3.234   5.952  14.519  0.8087  0.1821  0.0487
 9021TIP3    H248555   3.242   5.863  14.642 -0.1833 -0.8400 -0.6145
 9022TIP3   OH248556   4.663   5.444  13.139 -0.1198  0.0022  0.8336
 9022TIP3    H148557   4.714   5.404  13.210 -0.0326  0.9419  1.3046
 9022TIP3    H248558   4.588   5.386  13.128  0.1523 -0.4480  1.3166
 9023TIP3   OH248559   3.410   0.267   0.090 -0.4441 -0.0927  0.3709
 9023TIP3    H148560   3.440   0.268   0.181 -1.1025  0.2589  0.5901
 9023TIP3    H248561   3.315   0.277   0.096 -0.4577  0.2844 -0.3671
 9024TIP3   OH248562   0.167   2.966  11.247  0.1698  1.1346 -0.1443
 9024TIP3    H148563   0.247   2.913  11.247  0.1427  1.0556  1.7885
 9024TIP3    H248564   0.115   2.930  11.175  0.8030 -0.4692  0.1793
 9025TIP3   OH248565   0.464   0.329  10.751  1.1529 -0.1264  0.2627
 9025TIP3    H148566   0.494   0.393  10.815  0.7947  2.0462 -1.6680
 9025TIP3    H248567   0.374   0.309  10.777  0.5370  1.7900 -0.3044
 9026TIP3   OH248568   2.020   6.067  13.043  0.1226 -0.1142 -0.0675
 9026TIP3    H148569   2.076   6.085  12.967  0.0659  0.0387 -0.0739
 9026TIP3    H248570   2.023   5.972  13.053  1.7332  0.0190  0.9432
 9027TIP3   OH248571   0.014   0.899  13.844  0.6225 -0.4928 -0.2848
 9027TIP3    H148572  -0.066   0.916  13.795  1.3036  1.1527 -0.8615
 9027TIP3    H248573  -0.003   0.818  13.891 -2.1692  0.9450  1.2818
 9028TIP3   OH248574   0.618   4.543   0.011 -0.4775 -0.5933 -0.4432
 9028TIP3    H148575   0.699   4.517  -0.031 -0.7207  0.0244 -1.3155
 9028TIP3    H248576   0.551   4.487  -0.028 -0.9440  1.0333 -2.0533
 9029TIP3   OH248577   4.767   0.850   0.702 -0.3289  0.8481  0.4692
 9029TIP3    H148578   4.857   0.883   0.698  0.5310 -1.2904  1.1504
 9029TIP3    H248579   4.747   0.825   0.612 -0.4250  1.7662  0.2311
 9030TIP3   OH248580   6.482   4.248  10.781  0.1423  0.2034  0.1796
 9030TIP3    H148581   6.481   4.209  10.868 -0.2087  0.0212  0.0948
 9030TIP3    H248582   6.555   4.206  10.736  0.7496  0.7799  0.6019
 9031TIP3   OH248583   1.267   1.424  13.372  0.6711 -0.3246  0.2660
 9031TIP3    H148584   1.229   1.466  13.295 -1.2209 -2.1133  0.1808
 9031TIP3    H248585   1.266   1.330  13.351  1.0494 -0.7458  2.0684
 9032TIP3   OH248586   6.159   1.878   3.342 -0.4822 -0.0930 -0.4083
 9032TIP3    H148587   6.228   1.943   3.355  0.1199 -0.7232 -0.4500
 9032TIP3    H248588   6.097   1.922   3.283  0.0977  0.3221 -0.7225
 9033TIP3   OH248589   3.996   0.883  13.122 -0.0064  0.1033 -0.1598
 9033TIP3    H148590   4.045   0.953  13.165 -0.1802 -0.5198  1.0811
 9033TIP3    H248591   3.967   0.826  13.194 -0.5208 -0.8232 -1.0821
 9034TIP3   OH248592   7.197   6.200   0.874  0.1851  0.4273 -0.0985
 9034TIP3    H148593   7.192   6.293   0.896  1.3692  0.3582  0.4843
 9034TIP3    H248594   7.283   6.189   0.834  0.0323 -0.4124 -0.2063
 9035TIP3   OH248595   1.219   6.409  14.277  0.2727 -0.0951 -0.1226
 9035TIP3    H148596   1.203   6.316  14.260 -0.1977  0.3076 -1.8707
 9035TIP3    H248597   1.314   6.415  14.289  0.4639 -0.5934 -1.3335
 9036TIP3   OH248598   3.390   3.608  15.007  0.1252  0.5053 -0.9903
 9036TIP3    H148599   3.474   3.575  15.038  0.3496  0.6842 -1.3997
 9036TIP3    H248600   3.406   3.700  14.985  0.2776  0.1010 -2.6890
 9037TIP3   OH248601   1.591   1.819   0.919  0.1191  0.3704 -0.4655
 9037TIP3    H148602   1.556   1.735   0.888  1.1056 -0.7157  1.2360
 9037TIP3    H248603   1.676   1.827   0.875  1.0470 -0.6567  1.1024
 9038TIP3   OH248604   6.316   1.896  14.587  0.5074 -0.9409  0.1431
 9038TIP3    H148605   6.255   1.891  14.514  0.7360 -0.9284 -0.0498
 9038TIP3    H248606   6.263   1.922  14.662  0.6857  1.4626 -0.5125
 9039TIP3   OH248607   0.925   1.181  13.830 -0.1617  0.6575  0.4956
 9039TIP3    H148608   0.904   1.169  13.923 -0.6566  1.7339  0.5270
 9039TIP3    H248609   0.902   1.272  13.812  1.9028  1.0761 -0.1706
 9040TIP3   OH248610   2.323   3.011  14.275  0.0101 -0.3159 -0.8802
 9040TIP3    H148611   2.235   3.049  14.267 -1.8873 -3.6468  2.3788
 9040TIP3    H248612   2.325   2.942  14.209  0.3133  0.0405 -1.2393
 9041TIP3   OH248613   6.533   2.055  15.272 -0.3637  0.0464  0.4416
 9041TIP3    H148614   6.450   2.086  15.236 -0.8379 -0.4014  1.1466
 9041TIP3    H248615   6.525   2.066  15.366 -0.5143 -2.1034  0.7140
 9042TIP3   OH248616   0.170   6.275  10.614 -0.0732  0.5790 -0.1732
 9042TIP3    H148617   0.085   6.269  10.570  0.1881 -2.3381 -0.3372
 9042TIP3    H248618   0.153   6.245  10.703  0.8524 -0.2723 -0.2825
 9043TIP3   OH248619   0.690   2.096   0.157 -0.2791  0.4128 -0.8672
 9043TIP3    H148620   0.618   2.065   0.213  1.2913 -0.1720  0.8743
 9043TIP3    H248621   0.714   2.021   0.104  0.0470  0.1753 -0.3806
 9044TIP3   OH248622   6.434   5.909   1.238 -0.1680  0.0461 -0.1160
 9044TIP3    H148623   6.529   5.901   1.229 -0.1341 -0.1713  0.4622
 9044TIP3    H248624   6.419   5.919   1.332 -0.5981  1.6335 -0.3287
 9045TIP3   OH248625   2.885   5.068   0.229  0.4644  0.7084  0.3724
 9045TIP3    H148626   2.798   5.105   0.243 -0.0091  0.1783 -1.0894
 9045TIP3    H248627   2.884   5.038   0.138  0.8933 -2.6623  1.3844
 9046TIP3   OH248628   3.663   0.541  13.012 -0.8645 -0.3790 -0.2238
 9046TIP3    H148629   3.724   0.614  13.003 -1.5961  0.4316  1.1875
 9046TIP3    H248630   3.578   0.577  12.988 -1.0759 -1.0452 -0.5025
 9047TIP3   OH248631   2.699   6.114  15.532 -0.1217 -0.3536 -0.0712
 9047TIP3    H148632   2.633   6.177  15.503  0.9958  1.3679  1.0956
 9047TIP3    H248633   2.783   6.158  15.518  0.6137 -1.0453  1.9392
 9048TIP3   OH248634   1.346   4.603  13.739  0.2655 -0.4979  0.6535
 9048TIP3    H148635   1.401   4.681  13.741 -0.1513 -0.1886  0.4142
 9048TIP3    H248636   1.300   4.603  13.823 -0.3370 -0.0350  0.3294
 9049TIP3   OH248637   6.167   1.315   0.042  0.3312 -1.0376 -0.2361
 9049TIP3    H148638   6.154   1.409   0.057 -0.5997 -1.4033  1.4204
 9049TIP3    H248639   6.261   1.302   0.047  0.3554 -0.4325  1.1603
 9050TIP3   OH248640   4.353   4.768  15.503  0.6810 -0.2344  0.2571
 9050TIP3    H148641   4.364   4.844  15.445  0.7228 -0.3072  0.1676
 9050TIP3    H248642   4.338   4.695  15.443 -0.0623 -0.1761  0.3724
 9051TIP3   OH248643   6.180   7.055  14.495 -0.2292  0.2437  0.4540
 9051TIP3    H148644   6.187   7.150  14.486 -3.0484  0.3039 -1.5843
 9051TIP3    H248645   6.241   7.033  14.565  1.4577  3.3907  0.0532
 9052TIP3   OH248646   5.381   7.026  13.662 -0.0452 -0.1785 -0.6829
 9052TIP3    H148647   5.411   7.116  13.649  1.0297 -0.2872  0.8531
 9052TIP3    H248648   5.344   7.000  13.578  0.3585  1.4258 -1.3703
 9053TIP3   OH248649   2.639   6.885  15.015 -0.0703  0.7607 -0.3151
 9053TIP3    H148650   2.544   6.882  15.003 -0.3618  0.2069  1.9248
 9053TIP3    H248651   2.656   6.972  15.050  0.2419  0.8079 -0.5806
 9054TIP3   OH248652   1.086   0.561   1.392 -0.6787  0.2644  0.2162
 9054TIP3    H148653   1.086   0.618   1.468 -1.2561 -1.0080  1.1968
 9054TIP3    H248654   1.001   0.517   1.394 -0.8021  0.3979 -1.3042
 9055TIP3   OH248655   5.980   5.774   2.154 -0.1226 -0.1752  0.4416
 9055TIP3    H148656   5.935   5.848   2.112 -1.9951 -2.2063 -1.2783
 9055TIP3    H248657   5.940   5.768   2.241 -1.3639 -0.3437 -0.1223
 9056TIP3   OH248658   2.315   2.610  10.237 -0.0308  0.2224  0.2775
 9056TIP3    H148659   2.298   2.656  10.155 -0.2847 -0.1067  0.1432
 9056TIP3    H248660   2.230   2.574  10.263  0.0031  0.5200  0.8049
 9057TIP3   OH248661   0.304   7.004  13.708 -0.2686 -0.3502 -0.3219
 9057TIP3    H148662   0.342   7.088  13.734  0.8262 -0.9354  0.0020
 9057TIP3    H248663   0.297   6.954  13.790 -0.9524 -0.5724 -0.5061
 9058TIP3   OH248664   1.589   3.741  13.856  0.4653 -0.3162 -0.3314
 9058TIP3    H148665   1.645   3.683  13.909  2.1273  1.0507 -0.5421
 9058TIP3    H248666   1.506   3.744  13.903  1.3347 -0.5407  1.2582
 9059TIP3   OH248667   1.003   6.487   2.859  0.4977  0.0654  0.2021
 9059TIP3    H148668   0.976   6.511   2.771 -0.2924 -1.1150  0.1065
 9059TIP3    H248669   0.951   6.544   2.916 -1.8026 -1.7354 -0.0026
 9060TIP3   OH248670   1.393   4.923   0.010  0.0104 -0.0725 -0.0947
 9060TIP3    H148671   1.328   4.863  -0.026 -0.1975 -0.0030  0.1699
 9060TIP3    H248672   1.366   4.937   0.100  0.3844 -0.0323  0.0118
 9061TIP3   OH248673   6.122   3.648   0.740  0.3650  0.2252  0.6026
 9061TIP3    H148674   6.142   3.555   0.730 -0.9350 -0.1167  0.9919
 9061TIP3    H248675   6.141   3.667   0.832 -1.1840 -0.1432  1.0176
 9062TIP3   OH248676   3.061   4.591   1.277 -0.4347  0.0586  0.2630
 9062TIP3    H148677   2.966   4.584   1.279 -0.4667  0.6827  0.9008
 9062TIP3    H248678   3.078   4.682   1.256  0.0225 -0.2972 -0.9621
 9063TIP3   OH248679   4.747   4.176   1.056 -0.2787 -0.8990  0.0115
 9063TIP3    H148680   4.728   4.228   0.978  0.3797 -0.2505  0.2779
 9063TIP3    H248681   4.661   4.159   1.096 -0.3351  2.0126  1.2141
 9064TIP3   OH248682   4.519   4.164  12.358  0.2772  0.4951  0.1226
 9064TIP3    H148683   4.587   4.119  12.308 -0.4464  0.3153 -0.7253
 9064TIP3    H248684   4.496   4.103  12.428 -0.9801 -0.6594 -1.2558
 9065TIP3   OH248685   1.071   6.663  15.364 -0.1192  0.5380  0.4412
 9065TIP3    H148686   1.140   6.658  15.430  0.9714  1.7702 -0.5762
 9065TIP3    H248687   1.100   6.603  15.295  0.2581  1.5212 -0.2664
 9066TIP3   OH248688   4.839   5.812  12.129  0.5078 -0.2887  0.7580
 9066TIP3    H148689   4.925   5.770  12.118 -0.1427 -1.2553 -0.7405
 9066TIP3    H248690   4.854   5.904  12.106  0.5846 -0.9945 -2.2039
 9067TIP3   OH248691   6.620   5.205  11.925 -0.3789  0.3613 -0.2907
 9067TIP3    H148692   6.707   5.173  11.951 -0.8039 -3.1365 -2.8692
 9067TIP3    H248693   6.567   5.194  12.004  1.0133  0.6129  0.7081
 9068TIP3   OH248694   3.084   4.489  14.460 -0.2855 -0.6484 -0.1714
 9068TIP3    H148695   3.112   4.534  14.540 -0.8599  0.8977 -0.8214
 9068TIP3    H248696   3.166   4.457  14.421  0.4745  2.3188 -1.1524
 9069TIP3   OH248697   4.678   4.407  14.534 -0.2605  0.2904 -0.1050
 9069TIP3    H148698   4.708   4.463  14.462  0.5805  0.0947  0.0814
 9069TIP3    H248699   4.623   4.341  14.492  1.9405 -1.1205 -0.9179
 9070TIP3   OH248700   1.233   1.618   4.347  0.1043  0.3048  0.0560
 9070TIP3    H148701   1.156   1.666   4.316 -0.2137  0.2445  0.7323
 9070TIP3    H248702   1.224   1.617   4.443  2.6891  3.2332  0.4133
 9071TIP3   OH248703   4.004   1.538  13.710 -0.6561 -0.1394 -0.4275
 9071TIP3    H148704   4.083   1.512  13.758 -0.3284  1.4679 -0.0808
 9071TIP3    H248705   3.973   1.457  13.671 -0.9588 -1.5261  2.5327
 9072TIP3   OH248706   6.406   4.833   1.612 -0.4017  0.0482 -0.1199
 9072TIP3    H148707   6.433   4.840   1.521 -0.6178 -1.9940 -0.3767
 9072TIP3    H248708   6.447   4.908   1.656 -1.8263  2.1130 -2.2351
 9073TIP3   OH248709   0.815   4.131  11.877 -0.2343 -0.0908 -0.2491
 9073TIP3    H148710   0.905   4.104  11.859 -0.0276 -0.3395  1.1667
 9073TIP3    H248711   0.779   4.061  11.931 -1.0750  0.3426 -0.2352
 9074TIP3   OH248712   5.865   5.952  12.801 -0.2490  0.0623  0.0059
 9074TIP3    H148713   5.882   5.944  12.895 -0.0177  0.8250  0.0305
 9074TIP3    H248714   5.952   5.954  12.761 -0.3548 -1.8132 -0.3665
 9075TIP3   OH248715   2.270   6.906  12.218  0.0482  0.0601 -0.3853
 9075TIP3    H148716   2.228   6.986  12.188 -1.4155  0.1926  1.8857
 9075TIP3    H248717   2.364   6.924  12.212 -0.2625  2.3926  1.2086
 9076TIP3   OH248718   5.655   2.302  12.364  0.2424  0.0713 -0.4397
 9076TIP3    H148719   5.591   2.235  12.342  0.8450 -1.1590  1.4673
 9076TIP3    H248720   5.740   2.258  12.358  0.7141  0.9101 -0.1040
 9077TIP3   OH248721   1.098   0.097  13.732 -0.0488 -0.2851 -0.2598
 9077TIP3    H148722   1.071   0.077  13.822 -1.1822  0.3601 -0.4465
 9077TIP3    H248723   1.045   0.040  13.678  0.6360 -0.6731 -0.5288
 9078TIP3   OH248724   6.893   6.736  10.202  0.1266 -0.5423  0.4824
 9078TIP3    H148725   6.858   6.770  10.120  0.4612 -2.8966 -0.6608
 9078TIP3    H248726   6.820   6.690  10.243  0.0340  0.3913  1.3895
 9079TIP3   OH248727   5.145   4.919   1.914  0.2372 -0.0867  0.7146
 9079TIP3    H148728   5.228   4.873   1.921  0.3992 -0.0726 -0.8506
 9079TIP3    H248729   5.128   4.923   1.820 -0.5940  1.5696  0.9154
 9080TIP3   OH248730   0.701   3.361  12.373  0.0817 -0.6396 -0.1154
 9080TIP3    H148731   0.633   3.345  12.439 -0.0951 -0.8249 -0.3392
 9080TIP3    H248732   0.738   3.275  12.355  1.1578 -0.3916  0.8266
 9081TIP3   OH248733   1.458   7.173  13.311 -0.8490 -0.1777  0.2423
 9081TIP3    H148734   1.428   7.092  13.272 -0.7819 -0.9628  1.7616
 9081TIP3    H248735   1.464   7.235  13.238 -3.2558 -0.8314 -0.5602
 9082TIP3   OH248736   0.911   5.096  14.256 -0.2353  0.0311  0.6226
 9082TIP3    H148737   0.909   5.012  14.303  1.7227  0.1902  1.0399
 9082TIP3    H248738   0.936   5.072  14.167 -0.1314  0.1251  0.6274
 9083TIP3   OH248739   1.513   3.357   0.293 -0.0282  0.5382  0.3100
 9083TIP3    H148740   1.561   3.394   0.367 -0.8257 -0.7087  1.4673
 9083TIP3    H248741   1.439   3.418   0.280 -0.4619  0.2073  1.2063
 9084TIP3   OH248742   0.467   5.285   2.588  0.4786 -0.1994 -0.0531
 9084TIP3    H148743   0.500   5.291   2.498  2.3977 -0.2831  0.6388
 9084TIP3    H248744   0.399   5.353   2.592 -0.3406 -0.8718 -1.8516
 9085TIP3   OH248745   5.471   1.887  14.275 -0.0183 -0.3549  0.6260
 9085TIP3    H148746   5.377   1.869  14.269 -0.1202  0.9196 -2.2416
 9085TIP3    H248747   5.478   1.962  14.334 -0.8769  0.0725  0.1833
 9086TIP3   OH248748   5.200   6.749  14.098  0.2753 -0.3338 -0.4171
 9086TIP3    H148749   5.122   6.695  14.110  1.6933 -2.3046  0.2528
 9086TIP3    H248750   5.206   6.800  14.179 -0.4161 -0.0307 -0.5531
 9087TIP3   OH248751   3.122   2.952  14.941 -0.5851 -0.1354 -0.1363
 9087TIP3    H148752   3.103   2.915  15.027 -2.3726  2.0891  0.4823
 9087TIP3    H248753   3.217   2.958  14.937 -0.4849 -0.3485  1.6449
 9088TIP3   OH248754   2.670   3.461   0.455  0.1996 -0.4138  0.4856
 9088TIP3    H148755   2.714   3.519   0.393  0.0449 -1.5097 -0.6681
 9088TIP3    H248756   2.725   3.383   0.459  0.6150 -0.0479  2.3353
 9089TIP3   OH248757   0.594   2.488  14.663 -0.3858  0.1959  0.1044
 9089TIP3    H148758   0.611   2.572  14.706 -0.2946  0.2329 -0.0055
 9089TIP3    H248759   0.629   2.423  14.724  1.8177  0.3535 -0.9462
 9090TIP3   OH248760   1.556   5.214  14.592 -0.3209 -0.0784  0.4873
 9090TIP3    H148761   1.535   5.307  14.579  0.5629 -0.1033 -1.2729
 9090TIP3    H248762   1.503   5.169  14.526  1.5539 -0.5556 -0.7053
 9091TIP3   OH248763   2.896   5.392  15.042 -0.0808 -0.7181  0.3554
 9091TIP3    H148764   2.967   5.387  15.106  1.7106 -0.8390 -1.5832
 9091TIP3    H248765   2.909   5.315  14.986 -0.9683 -0.0612 -0.7904
 9092TIP3   OH248766   2.749   5.407   0.857  0.3154 -0.6025  0.3853
 9092TIP3    H148767   2.703   5.482   0.894 -0.7491 -0.4270 -1.2148
 9092TIP3    H248768   2.680   5.341   0.844  0.7640 -0.8712 -0.6822
 9093TIP3   OH248769   4.951   4.513   1.419  0.3761  0.2293 -0.6111
 9093TIP3    H148770   4.860   4.500   1.444  0.2078 -0.7606 -1.7081
 9093TIP3    H248771   4.964   4.455   1.343  2.3468 -0.7906  0.4760
 9094TIP3   OH248772   6.782   0.093  14.117 -0.0920  0.2917 -0.4852
 9094TIP3    H148773   6.863   0.138  14.091  0.3576  0.2537  0.8042
 9094TIP3    H248774   6.804   0.000  14.110  0.6403  0.2643  1.7774
 9095TIP3   OH248775   1.274   6.021   3.151  0.6898  0.1853  0.3097
 9095TIP3    H148776   1.204   6.036   3.087  0.7016  1.4507  0.5848
 9095TIP3    H248777   1.230   6.025   3.236  0.6313 -1.7374  0.3981
 9096TIP3   OH248778   6.648   1.637  13.598  0.4820  0.5502 -0.0990
 9096TIP3    H148779   6.733   1.650  13.554  1.9960 -0.5379  2.4150
 9096TIP3    H248780   6.609   1.564  13.550  2.3586 -0.9935  0.6458
 9097TIP3   OH248781   5.038   1.154   2.063  0.0555  0.7850 -0.0026
 9097TIP3    H148782   4.958   1.131   2.015  0.0469  2.7193 -0.9708
 9097TIP3    H248783   5.106   1.099   2.025 -0.6207 -0.2276  0.2101
 9098TIP3   OH248784   1.447   0.315  14.318 -0.2954 -0.4837  0.4075
 9098TIP3    H148785   1.504   0.245  14.287 -1.8171 -2.0766  1.0992
 9098TIP3    H248786   1.434   0.372  14.243  2.7445  0.2843  0.4350
 9099TIP3   OH248787   7.005   3.938  14.929  0.1285 -0.2775  0.2988
 9099TIP3    H148788   6.921   3.981  14.945  1.1235  0.6333  3.5062
 9099TIP3    H248789   7.066   4.011  14.916  0.9105 -0.8683  0.6949
 9100TIP3   OH248790   2.036   0.510  10.232  1.3036  0.1684 -0.6174
 9100TIP3    H148791   1.971   0.444  10.255  0.3689  1.5725  0.9170
 9100TIP3    H248792   2.006   0.544  10.148  1.8129 -1.3843 -1.4272
 9101TIP3   OH248793   4.027   6.024  13.736  0.0039 -0.0946 -0.1972
 9101TIP3    H148794   3.951   5.969  13.752  0.6875 -1.0836 -0.2871
 9101TIP3    H248795   4.070   5.985  13.660  0.2886  0.7919 -0.4996
 9102TIP3   OH248796   1.733   4.534  12.286 -0.3280 -0.0068  0.0886
 9102TIP3    H148797   1.813   4.497  12.324  0.4982  0.8804 -0.7421
 9102TIP3    H248798   1.693   4.584  12.357  0.5162  0.5695  0.1692
 9103TIP3   OH248799   0.578   2.081  12.964 -0.3308 -0.0853  0.0471
 9103TIP3    H148800   0.640   2.141  13.006  0.1173  0.4044 -1.2962
 9103TIP3    H248801   0.497   2.131  12.960 -0.4700 -0.2594  0.6378
 9104TIP3   OH248802   4.652   3.864  13.994  0.2557  0.2186  0.5364
 9104TIP3    H148803   4.732   3.815  14.008  0.0757  0.2110  1.5511
 9104TIP3    H248804   4.681   3.952  13.971  0.5778 -0.3722 -1.4179
 9105TIP3   OH248805   3.600   7.069  13.417  0.4999  0.4992 -0.2655
 9105TIP3    H148806   3.525   7.076  13.358  0.9234  1.4600 -0.7145
 9105TIP3    H248807   3.602   6.977  13.443  0.2861  0.0678 -1.7243
 9106TIP3   OH248808   3.720   3.562  12.555  0.3988  0.0625  0.3243
 9106TIP3    H148809   3.745   3.529  12.469  0.4934  0.6549  0.1209
 9106TIP3    H248810   3.657   3.632  12.538  2.5909  2.1654  0.5687
 9107TIP3   OH248811   2.659   5.203  12.306 -0.0403 -0.3912  0.3466
 9107TIP3    H148812   2.591   5.143  12.275 -0.6397  0.0968  0.7177
 9107TIP3    H248813   2.720   5.146  12.354 -0.5618 -0.7137  0.6274
 9108TIP3   OH248814   0.270   0.093   2.201  0.1028 -0.1306 -0.5798
 9108TIP3    H148815   0.248   0.009   2.241  0.2159  0.3558  0.5145
 9108TIP3    H248816   0.202   0.153   2.232  0.1779  0.2473 -1.1345
 9109TIP3   OH248817   6.654   3.963  14.768 -0.6771 -0.3160 -0.7079
 9109TIP3    H148818   6.674   3.932  14.856 -0.3133  1.9827  0.0305
 9109TIP3    H248819   6.734   4.007  14.739  0.1308 -3.2482 -3.2116
 9110TIP3   OH248820   4.771   2.248   0.439  0.6130  0.2327  0.1918
 9110TIP3    H148821   4.831   2.184   0.400 -1.0656 -1.9179  1.0345
 9110TIP3    H248822   4.811   2.272   0.522 -0.0354 -1.7585  1.0935
 9111TIP3   OH248823   2.897   0.919  14.845 -0.1608  0.4989 -0.8669
 9111TIP3    H148824   2.839   0.985  14.805 -0.6806 -0.4397 -1.6942
 9111TIP3    H248825   2.955   0.892  14.774 -1.0055 -1.0944 -0.9809
 9112TIP3   OH248826   3.079   0.524  15.584  0.3875  0.2346  0.1439
 9112TIP3    H148827   3.082   0.450  15.646  1.1258 -0.1319 -0.3187
 9112TIP3    H248828   2.996   0.514  15.539  0.0883  0.1896  0.6978
 9113TIP3   OH248829   4.544   4.534  15.164 -0.1603  0.4760  0.3563
 9113TIP3    H148830   4.580   4.601  15.222 -1.7265  0.3722  1.4806
 9113TIP3    H248831   4.450   4.554  15.161 -0.5112 -1.1937  0.0751
 9114TIP3   OH248832   7.036   4.922  11.094 -0.0532  0.4806  0.3453
 9114TIP3    H148833   7.081   4.979  11.156  1.7739  0.7935 -1.2139
 9114TIP3    H248834   7.028   4.838  11.140  0.0941  1.0821  1.4765
 9115TIP3   OH248835   6.560   1.597  12.163 -0.9194  0.2270 -0.5156
 9115TIP3    H148836   6.505   1.570  12.090 -0.5740 -1.9450  0.0051
 9115TIP3    H248837   6.645   1.615  12.123 -0.4476 -1.9490 -0.5201
 9116TIP3   OH248838   4.407   0.704  14.480 -0.3983  0.6806  0.5435
 9116TIP3    H148839   4.451   0.620  14.469 -3.2140 -0.7287 -0.5692
 9116TIP3    H248840   4.419   0.726  14.572 -0.6931 -1.6070  1.1535
 9117TIP3   OH248841   4.824   1.805  12.301 -0.1606  0.2831  0.3487
 9117TIP3    H148842   4.831   1.727  12.246  0.8694  0.0770  0.7684
 9117TIP3    H248843   4.758   1.782  12.366 -1.2359  0.4542 -0.6690
 9118TIP3   OH248844   2.486   0.508  11.362 -0.1386  0.8603  0.2603
 9118TIP3    H148845   2.443   0.435  11.317 -1.4051  0.5273  1.9617
 9118TIP3    H248846   2.508   0.570  11.292 -0.3192 -0.5160 -1.0323
 9119TIP3   OH248847   2.580   6.907  14.297 -0.0078  0.3757  0.1938
 9119TIP3    H148848   2.620   6.930  14.213 -0.4895  1.3911  0.2280
 9119TIP3    H248849   2.603   6.815  14.311 -0.8402 -0.1133 -1.5583
 9120TIP3   OH248850   1.321   1.912  12.378  0.0660 -0.2847  0.4235
 9120TIP3    H148851   1.301   2.005  12.390 -2.4839 -0.6799 -0.5302
 9120TIP3    H248852   1.237   1.871  12.360  1.3418 -2.5616 -0.6403
 9121TIP3   OH248853   2.067   5.125  13.328  0.5214 -0.2753 -0.6856
 9121TIP3    H148854   2.145   5.122  13.382  1.0355  2.3859 -1.2486
 9121TIP3    H248855   2.087   5.067  13.255  0.9160 -1.6702  0.5019
 9122TIP3   OH248856   0.401   3.984  11.605 -0.3908  0.0568 -0.8718
 9122TIP3    H148857   0.480   4.036  11.618 -1.1770  0.7669  1.4673
 9122TIP3    H248858   0.431   3.894  11.598  0.7548  0.5109 -1.8842
 9123TIP3   OH248859   6.526   5.730  12.615  0.1108 -0.5454 -0.0670
 9123TIP3    H148860   6.438   5.768  12.621  0.7422  0.6207  2.5389
 9123TIP3    H248861   6.511   5.635  12.620 -1.0397 -0.3987 -0.4663
 9124TIP3   OH248862   0.999   2.508   1.926  0.5856 -0.2300  0.0176
 9124TIP3    H148863   0.930   2.564   1.964  1.4443  1.5074 -0.9155
 9124TIP3    H248864   0.951   2.442   1.876 -0.4296  1.8596 -1.8719
 9125TIP3   OH248865   1.383   1.649  11.476  0.4204 -0.2218 -0.7728
 9125TIP3    H148866   1.319   1.581  11.495 -1.1711  1.6732  0.8993
 9125TIP3    H248867   1.426   1.666  11.560  0.4556  1.1559 -1.0503
 9126TIP3   OH248868   2.954   6.071   2.595 -0.0143 -0.3148 -0.0907
 9126TIP3    H148869   2.881   6.029   2.641 -0.4650  1.7241  1.0850
 9126TIP3    H248870   2.919   6.154   2.565  3.2427  3.2086  5.1285
 9127TIP3   OH248871   3.686   6.244  12.177 -0.1156 -0.0528  0.4324
 9127TIP3    H148872   3.701   6.173  12.114  0.7558  0.6003 -0.1139
 9127TIP3    H248873   3.735   6.218  12.255  1.0328  0.4126 -0.1196
 9128TIP3   OH248874   2.726   4.764  14.173 -0.0246  0.5347 -0.7731
 9128TIP3    H148875   2.804   4.719  14.204 -1.0093 -0.8700 -0.2367
 9128TIP3    H248876   2.723   4.845  14.223  0.9565  0.4979 -0.6461
 9129TIP3   OH248877   0.870   4.303  12.248  0.1806 -0.8813 -0.5814
 9129TIP3    H148878   0.868   4.226  12.305  2.8143 -0.0079  0.7622
 9129TIP3    H248879   0.963   4.327  12.243 -0.2105  0.1107 -3.8524
 9130TIP3   OH248880   2.370   4.549  10.543 -0.0291 -0.0601 -0.5326
 9130TIP3    H148881   2.283   4.563  10.506 -0.3887 -0.1525  0.2677
 9130TIP3    H248882   2.425   4.530  10.467 -0.5665  0.6467 -1.1137
 9131TIP3   OH248883   2.565   2.635   2.446  0.3931 -0.1619 -0.4416
 9131TIP3    H148884   2.524   2.705   2.496  1.2330 -0.3668  0.5623
 9131TIP3    H248885   2.522   2.637   2.361  0.6274  1.7978 -0.5414
 9132TIP3   OH248886   0.701   4.352  13.987 -0.6873 -0.6561 -0.1615
 9132TIP3    H148887   0.702   4.367  14.082 -0.0455 -3.0688  0.2566
 9132TIP3    H248888   0.626   4.294  13.972 -2.0961  1.4433 -1.4578
 9133TIP3   OH248889   5.583   5.018  12.926  0.2989  0.2954  0.8914
 9133TIP3    H148890   5.639   4.952  12.886 -0.2439 -0.0169  0.6509
 9133TIP3    H248891   5.511   4.969  12.966 -0.6999  0.8138 -0.2384
 9134TIP3   OH248892   0.187   0.193  14.494 -0.3918  0.6157  0.0997
 9134TIP3    H148893   0.206   0.269  14.439 -2.2894 -0.2487 -1.8116
 9134TIP3    H248894   0.195   0.118  14.435  0.5806 -0.6114  1.7499
 9135TIP3   OH248895   0.052   4.989  11.993 -0.4125  0.6876 -0.2991
 9135TIP3    H148896   0.078   4.965  12.082 -0.9011  0.4926 -0.2063
 9135TIP3    H248897  -0.044   4.991  11.995 -0.4993 -1.0748 -1.2636
 9136TIP3   OH248898   6.341   5.580  14.165 -0.1537 -0.4558  0.1448
 9136TIP3    H148899   6.288   5.659  14.179  0.8340  0.3841 -0.8838
 9136TIP3    H248900   6.370   5.585  14.074  2.1812 -0.6108  0.8441
 9137TIP3   OH248901   6.674   3.356   2.355 -0.4028 -0.0439 -0.7978
 9137TIP3    H148902   6.713   3.384   2.272 -1.3244  1.1595 -0.8481
 9137TIP3    H248903   6.678   3.434   2.410 -0.3629 -0.6569  0.0767
 9138TIP3   OH248904   0.589   5.103   2.149  0.1471  0.0390  0.0418
 9138TIP3    H148905   0.651   5.041   2.187  0.1648 -1.6532 -2.5730
 9138TIP3    H248906   0.631   5.134   2.069 -1.4672  0.5026 -0.6605
 9139TIP3   OH248907   4.900   1.362   0.985 -0.1300 -0.2001  0.6231
 9139TIP3    H148908   4.976   1.376   1.043 -0.7123  0.2269  1.2960
 9139TIP3    H248909   4.913   1.423   0.913 -0.2911  0.5335  1.2049
 9140TIP3   OH248910   3.400   3.020   0.084  0.3028  0.7929  0.3346
 9140TIP3    H148911   3.418   2.956   0.015  1.2193  0.1873  1.1176
 9140TIP3    H248912   3.316   3.057   0.061 -1.4214 -2.4101  1.1224
 9141TIP3   OH248913   2.008   1.343   0.722 -0.1574 -0.2047 -0.4967
 9141TIP3    H148914   2.087   1.385   0.755  0.7444 -1.8629 -0.5336
 9141TIP3    H248915   2.006   1.258   0.765 -0.8678 -0.9601 -2.0095
 9142TIP3   OH248916   5.195   0.556   3.593  0.1901 -0.2759 -0.0359
 9142TIP3    H148917   5.227   0.585   3.507  1.6504  1.4029  1.0449
 9142TIP3    H248918   5.218   0.462   3.596  1.4491 -0.0182 -0.9143
 9143TIP3   OH248919   0.743   6.997   2.559 -0.3241  0.2117  0.5846
 9143TIP3    H148920   0.806   6.926   2.548 -1.4367 -0.7970  0.6002
 9143TIP3    H248921   0.677   6.961   2.619 -0.7270  1.3785  0.8535
 9144TIP3   OH248922   5.671   2.869  12.459 -0.1340  0.1613 -0.2469
 9144TIP3    H148923   5.661   2.784  12.501  3.0360 -0.5077 -0.7328
 9144TIP3    H248924   5.746   2.909  12.502 -1.0084  2.3423 -0.6552
 9145TIP3   OH248925   5.788   0.324  13.631  0.0507 -0.0660 -0.3634
 9145TIP3    H148926   5.713   0.368  13.670  0.2751 -0.1808  0.2015
 9145TIP3    H248927   5.848   0.394  13.608 -0.0953  0.0038 -0.5331
 9146TIP3   OH248928   4.248   2.204  13.513 -0.0504 -0.5536 -0.0982
 9146TIP3    H148929   4.263   2.293  13.544  1.0502 -1.2784  1.5636
 9146TIP3    H248930   4.272   2.206  13.421 -0.4466  0.9589 -0.1852
 9147TIP3   OH248931   3.419   0.513  13.727 -0.0025  0.0328  0.3135
 9147TIP3    H148932   3.514   0.508  13.739  0.0315  0.5890  0.3078
 9147TIP3    H248933   3.384   0.439  13.776  0.3856  0.2384  0.9034
 9148TIP3   OH248934   4.871   5.335  13.318 -0.0533  0.3344  0.1183
 9148TIP3    H148935   4.808   5.273  13.354  0.7541 -2.1388 -2.5422
 9148TIP3    H248936   4.957   5.297  13.340  0.4461  0.4847 -1.4983
 9149TIP3   OH248937   2.862   1.744   0.245  0.3569 -0.0786  0.3913
 9149TIP3    H148938   2.840   1.651   0.257  3.3679 -0.7063  1.5288
 9149TIP3    H248939   2.851   1.759   0.151 -0.7836 -1.4108  0.2932
 9150TIP3   OH248940   0.803   0.257  14.922  0.4268 -0.9376 -0.6087
 9150TIP3    H148941   0.894   0.278  14.944  0.1366 -1.3914  1.1435
 9150TIP3    H248942   0.804   0.164  14.900  0.0597 -1.4816  1.5350
 9151TIP3   OH248943   6.807   5.060   2.072  0.0787 -0.3573 -0.3319
 9151TIP3    H148944   6.766   4.983   2.113 -0.3562 -0.0383 -0.1597
 9151TIP3    H248945   6.901   5.043   2.077 -0.0127 -0.8667 -0.2712
 9152TIP3   OH248946   3.441   4.974   0.216 -0.3423  0.4788 -0.0977
 9152TIP3    H148947   3.527   4.938   0.237 -1.0480 -0.8171  0.5558
 9152TIP3    H248948   3.379   4.917   0.260 -1.5689  1.1796 -0.8914
 9153TIP3   OH248949   6.453   5.964   0.619  0.2395  0.2867 -0.0278
 9153TIP3    H148950   6.432   5.874   0.642  0.5265 -0.1590 -1.4685
 9153TIP3    H248951   6.386   5.989   0.555  0.0925  1.1375  0.4412
 9154TIP3   OH248952   5.656   6.383  13.993  0.3120 -0.2911 -0.3128
 9154TIP3    H148953   5.587   6.349  14.050  0.6259 -0.1592  0.1456
 9154TIP3    H248954   5.736   6.378  14.046  0.6186 -0.2528 -0.7705
 9155TIP3   OH248955   0.505   2.857   0.204  0.3031  0.6337 -0.3053
 9155TIP3    H148956   0.595   2.824   0.197  0.2967  0.9248 -1.9133
 9155TIP3    H248957   0.459   2.816   0.132 -0.4339  1.8510 -0.5410
 9156TIP3   OH248958   5.320   4.651  12.418 -0.4271 -0.4425  0.0873
 9156TIP3    H148959   5.414   4.645  12.405 -0.4248  0.3659 -0.3392
 9156TIP3    H248960   5.284   4.576  12.370  0.0780 -1.4428  1.2636
 9157TIP3   OH248961   2.375   5.472   1.046  0.1865  0.0873  0.4153
 9157TIP3    H148962   2.308   5.529   1.082 -0.7887 -0.4803 -0.4708
 9157TIP3    H248963   2.338   5.384   1.052 -0.5388  0.0742 -3.0378
 9158TIP3   OH248964   1.493   3.275  14.328  0.2803 -0.6960  0.0040
 9158TIP3    H148965   1.495   3.181  14.349  1.7042 -0.4358  1.1101
 9158TIP3    H248966   1.494   3.318  14.413  0.2105  0.3404 -0.5161
 9159TIP3   OH248967   0.401   2.086  11.976  0.5853  0.4775 -0.3521
 9159TIP3    H148968   0.373   2.167  11.935 -1.5489  0.2418  0.5819
 9159TIP3    H248969   0.482   2.109  12.022  0.2709  1.9435 -0.5065
 9160TIP3   OH248970   2.266   5.533  12.859  0.1641 -0.0011  0.4784
 9160TIP3    H148971   2.208   5.502  12.928 -0.6917 -1.7325 -0.9979
 9160TIP3    H248972   2.209   5.578  12.797  0.6709 -0.0373 -0.0197
 9161TIP3   OH248973   5.799   4.397  10.298  0.0301  0.6043  0.3624
 9161TIP3    H148974   5.871   4.406  10.235 -0.7209  0.5056 -0.5189
 9161TIP3    H248975   5.821   4.459  10.368  1.5620 -0.2644  0.6765
 9162TIP3   OH248976   5.836   0.012  12.697  0.2683 -0.5195  0.6663
 9162TIP3    H148977   5.824   0.087  12.639  1.9434  0.3405  1.4043
 9162TIP3    H248978   5.846   0.050  12.784  1.5736 -1.5487  0.9901
 9163TIP3   OH248979   1.564   2.742  14.890 -0.0224  0.1119 -0.2444
 9163TIP3    H148980   1.591   2.762  14.800  0.2717  1.0047  0.0383
 9163TIP3    H248981   1.606   2.809  14.943  0.9542 -1.2370  0.7385
 9164TIP3   OH248982   2.417   2.106  11.687  0.2212  0.1681 -0.5715
 9164TIP3    H148983   2.347   2.105  11.753 -0.6532  0.5565 -1.4799
 9164TIP3    H248984   2.488   2.055  11.727 -0.3410  0.2981  0.6161
 9165TIP3   OH248985   4.111   6.061  13.977  0.7970 -0.0784  0.4358
 9165TIP3    H148986   4.078   6.059  13.887 -1.9299 -1.8170  1.4094
 9165TIP3    H248987   4.162   5.981  13.986  2.3966  0.8537  0.0307
 9166TIP3   OH248988   6.718   3.309  12.368 -0.4128 -0.0321 -0.7955
 9166TIP3    H148989   6.718   3.231  12.423 -1.6077  0.2890 -0.3280
 9166TIP3    H248990   6.644   3.361  12.400 -0.4462  0.6669 -1.9760
 9167TIP3   OH248991   6.475   5.931  15.266 -0.1844  0.4445 -0.1025
 9167TIP3    H148992   6.456   5.840  15.244  3.2738 -0.0265 -1.4492
 9167TIP3    H248993   6.499   5.928  15.359  1.3431 -0.2769 -0.5060
 9168TIP3   OH248994   6.309   1.216  15.381  0.0724 -0.3676  0.5684
 9168TIP3    H148995   6.329   1.204  15.473 -0.8307  0.9272  0.9422
 9168TIP3    H248996   6.295   1.310  15.371 -0.4043 -0.5665 -0.7628
 9169TIP3   OH248997   3.201   2.172  13.763  0.1850  0.4669  0.4906
 9169TIP3    H148998   3.204   2.151  13.857  0.0352 -1.0006  0.1705
 9169TIP3    H248999   3.293   2.180  13.737  0.2254  0.9600  0.7786
 9170TIP3   OH249000   6.981   0.618  15.046 -0.0093  0.0685 -0.2838
 9170TIP3    H149001   6.935   0.673  14.983 -1.5853 -1.3486 -0.4306
 9170TIP3    H249002   7.065   0.599  15.005  1.5999  4.3232  0.8531
 9171TIP3   OH249003   1.683   4.782  14.495 -0.0156  0.5818  0.2129
 9171TIP3    H149004   1.645   4.870  14.500  0.1022  0.6154  0.5699
 9171TIP3    H249005   1.732   4.781  14.413 -0.7313  0.5583 -0.2199
 9172TIP3   OH249006   6.138   5.466  12.210  0.2889  0.0516 -0.0716
 9172TIP3    H149007   6.100   5.415  12.281 -1.9900  0.9846 -0.5551
 9172TIP3    H249008   6.075   5.536  12.195  1.9768  1.3434 -1.3150
 9173TIP3   OH249009   2.446   2.911  10.675 -0.4127  0.1894 -0.0972
 9173TIP3    H149010   2.420   2.837  10.619  1.0795 -0.8775  0.5678
 9173TIP3    H249011   2.456   2.984  10.615 -2.0513 -0.1059 -0.7549
 9174TIP3   OH249012   4.584   0.904   0.250 -0.0995  0.5634  0.0091
 9174TIP3    H149013   4.599   0.809   0.248 -0.2890  0.5472 -0.4530
 9174TIP3    H249014   4.668   0.940   0.280  0.2528  0.3167 -0.6831
 9175TIP3   OH249015   6.434   1.877  13.305 -0.0326 -0.2174 -0.8576
 9175TIP3    H149016   6.378   1.865  13.228 -1.4242  1.7155 -0.1779
 9175TIP3    H249017   6.517   1.909  13.269 -0.6190  0.5281 -1.5934
 9176TIP3   OH249018   6.805   0.232   2.039  0.3013 -0.0931  0.2914
 9176TIP3    H149019   6.763   0.256   1.957 -1.6565  1.4448  1.6817
 9176TIP3    H249020   6.835   0.143   2.026 -1.9396 -0.6486 -1.3659
 9177TIP3   OH249021   4.703   0.096  13.881  0.6231 -0.1087  0.4720
 9177TIP3    H149022   4.721   0.019  13.827 -0.0971 -0.6122  0.9528
 9177TIP3    H249023   4.774   0.097  13.945  0.6644 -0.3373  0.4293
 9178TIP3   OH249024   3.727   6.176  13.573  0.0090  1.1821  0.6450
 9178TIP3    H149025   3.702   6.093  13.614  0.8129  0.5581 -0.1354
 9178TIP3    H249026   3.785   6.218  13.636  0.4779  0.6538  0.5677
 9179TIP3   OH249027   2.362   2.279  13.370 -0.2875  0.4755  0.0761
 9179TIP3    H149028   2.325   2.345  13.312  2.0147  2.7226  1.0702
 9179TIP3    H249029   2.371   2.323  13.454 -0.0239 -1.5546  1.1487
 9180TIP3   OH249030   2.074   0.013  12.948 -0.4701 -0.6374 -0.1624
 9180TIP3    H149031   1.997   0.070  12.954  0.2899  0.2632  1.4662
 9180TIP3    H249032   2.047  -0.058  12.891 -1.7996  0.7934 -1.3651
 9181TIP3   OH249033   3.688   4.772   1.567  0.7432 -0.0428  0.3055
 9181TIP3    H149034   3.614   4.759   1.508 -1.0687  1.2934  2.2359
 9181TIP3    H249035   3.745   4.833   1.521 -1.6752  2.6542  0.7447
 9182TIP3   OH249036   6.504   1.657  15.517 -0.1809  0.4772  0.5201
 9182TIP3    H149037   6.415   1.689  15.529  0.4841  2.7330 -0.1989
 9182TIP3    H249038   6.558   1.717  15.568  1.1773  1.0408 -1.4870
 9183TIP3   OH249039   0.369   4.257   0.747  0.2247  0.1468 -0.4426
 9183TIP3    H149040   0.465   4.266   0.748  0.2292  0.0275  0.4547
 9183TIP3    H249041   0.344   4.287   0.660  1.1874 -0.9716 -1.1337
 9184TIP3   OH249042   2.434   7.081  13.229  0.2136  0.1037 -0.2393
 9184TIP3    H149043   2.517   7.121  13.256 -0.1547  0.5863  0.1679
 9184TIP3    H249044   2.385   7.152  13.188 -1.0693  0.4525  1.8308
 9185TIP3   OH249045   6.533   5.313  14.547 -0.4087  0.7818  0.4048
 9185TIP3    H149046   6.552   5.235  14.599  0.6897  0.5711 -0.2857
 9185TIP3    H249047   6.580   5.384  14.592 -1.3379  1.0260  0.9866
 9186TIP3   OH249048   5.072   7.074   1.524  0.1279  0.4651  0.0758
 9186TIP3    H149049   4.980   7.049   1.520  0.5924 -1.0632 -2.3110
 9186TIP3    H249050   5.115   7.002   1.571  0.4350  0.0060 -0.8840
 9187TIP3   OH249051   2.378   1.409  11.260  0.1066  0.2121 -0.1043
 9187TIP3    H149052   2.295   1.387  11.303 -0.2851  0.8001 -0.5490
 9187TIP3    H249053   2.404   1.493  11.299  1.0733 -0.5154  0.8519
 9188TIP3   OH249054   5.317   0.206  15.094  0.0963 -0.1856 -0.0254
 9188TIP3    H149055   5.299   0.299  15.109  0.5731 -0.0381 -0.3578
 9188TIP3    H249056   5.235   0.171  15.058 -0.6623 -0.2827  1.7605
 9189TIP3   OH249057   1.599   6.400  11.774 -0.2328 -0.2188 -0.0093
 9189TIP3    H149058   1.603   6.424  11.866  0.2785 -1.4397  0.2808
 9189TIP3    H249059   1.668   6.335  11.762 -0.3825 -0.1697 -1.2237
 9190TIP3   OH249060   2.402   5.127  13.222  0.5467  0.4209  0.3849
 9190TIP3    H149061   2.360   5.213  13.210 -1.1481 -0.2526  1.3500
 9190TIP3    H249062   2.346   5.067  13.173  2.7620  0.1071 -1.8396
 9191TIP3   OH249063   1.891   6.646  15.084 -0.1112 -0.5320 -0.0127
 9191TIP3    H149064   1.844   6.727  15.103  3.3143  1.7831 -0.9534
 9191TIP3    H249065   1.862   6.621  14.996  1.1554  1.4640 -1.0308
 9192TIP3   OH249066   3.139   0.892  12.555  0.2107 -0.0977  0.0192
 9192TIP3    H149067   3.102   0.857  12.474  2.1063  0.9147 -1.3402
 9192TIP3    H249068   3.084   0.855  12.624 -2.4011  0.2168 -1.7935
 9193TIP3   OH249069   1.903   0.821  12.255  0.2771  0.0503 -0.4784
 9193TIP3    H149070   1.835   0.759  12.281 -0.9405  1.5591 -0.0355
 9193TIP3    H249071   1.900   0.823  12.159 -0.7086  0.5536 -0.4405
 9194TIP3   OH249072   2.692   5.677  13.106  0.0222 -0.1663  0.5490
 9194TIP3    H149073   2.602   5.707  13.114  0.2992  0.3139  1.8322
 9194TIP3    H249074   2.684   5.581  13.101 -0.6550 -0.0563 -0.9215
 9195TIP3   OH249075   3.790   6.312  12.763  0.0487 -0.1427 -0.2909
 9195TIP3    H149076   3.797   6.225  12.723  1.1358  0.6397 -1.8514
 9195TIP3    H249077   3.821   6.300  12.853 -0.3719 -1.4817 -0.3110
 9196TIP3   OH249078   3.998   5.156  15.081 -0.0401  0.1275 -0.6986
 9196TIP3    H149079   3.919   5.210  15.072  2.1359  3.3614 -1.0220
 9196TIP3    H249080   3.969   5.081  15.134 -3.0537  1.8118  0.1633
 9197TIP3   OH249081   0.709   0.335  12.439 -0.2278 -0.0172  0.2265
 9197TIP3    H149082   0.634   0.378  12.397  0.7371  0.4687 -1.0249
 9197TIP3    H249083   0.730   0.392  12.514  0.0299  0.8423 -0.4836
 9198TIP3   OH249084   1.447   2.611  13.650  0.5620 -0.4679  0.4298
 9198TIP3    H149085   1.477   2.604  13.559 -0.7752 -1.3095  0.0424
 9198TIP3    H249086   1.356   2.580  13.648  0.6128 -0.7716  2.1049
 9199TIP3   OH249087   4.327   0.726  10.723  0.0156 -0.5055  0.3790
 9199TIP3    H149088   4.348   0.726  10.817  0.7479 -1.9909  0.2314
 9199TIP3    H249089   4.319   0.818  10.701  1.0251 -0.0876  1.6522
 9200TIP3   OH249090   2.438   5.867  14.361  0.2500 -0.0248  0.0013
 9200TIP3    H149091   2.477   5.953  14.343 -0.1385  0.2891  0.6276
 9200TIP3    H249092   2.511   5.815  14.393  0.5989 -0.0923 -0.8859
 9201TIP3   OH249093   2.611   4.507   0.953  0.5216  0.1785 -0.0725
 9201TIP3    H149094   2.605   4.545   1.040 -0.7522  2.1218 -0.9593
 9201TIP3    H249095   2.557   4.427   0.958  2.0607 -0.8034  1.4166
 9202TIP3   OH249096   3.311   0.536   0.639  0.1559 -0.2971 -0.2732
 9202TIP3    H149097   3.287   0.569   0.726  0.6998  0.0781 -0.2623
 9202TIP3    H249098   3.290   0.608   0.579 -0.4604 -0.6506 -0.4893
 9203TIP3   OH249099   2.077   4.891  14.519  0.3097  0.1224  0.3457
 9203TIP3    H149100   1.988   4.882  14.486  0.3763 -1.0548  0.4345
 9203TIP3    H249101   2.133   4.883  14.442  0.4152 -1.3911  0.5608
 9204TIP3   OH249102   0.736   6.939  13.954 -0.2937 -0.0762 -0.0102
 9204TIP3    H149103   0.736   6.851  13.990  1.0776 -0.3626 -0.6540
 9204TIP3    H249104   0.644   6.958  13.934 -0.4390 -1.8590 -1.0888
 9205TIP3   OH249105   4.105   6.765  11.206  0.2934 -0.3996  0.0407
 9205TIP3    H149106   4.198   6.750  11.227 -0.1652  0.3279  2.8485
 9205TIP3    H249107   4.068   6.799  11.288 -2.0785  0.9880 -1.5578
 9206TIP3   OH249108   3.720   0.758   2.695 -0.0444  0.1436 -0.6810
 9206TIP3    H149109   3.666   0.833   2.668 -0.8470 -1.2377 -3.0834
 9206TIP3    H249110   3.669   0.715   2.763  0.9157  2.3492  1.5041
 9207TIP3   OH249111   1.498   1.324   0.972  0.0234  0.2667 -0.2544
 9207TIP3    H149112   1.448   1.256   0.927 -1.6378  1.7971 -0.7916
 9207TIP3    H249113   1.580   1.329   0.924 -0.0218 -1.0509 -0.4776
 9208TIP3   OH249114   6.569   1.070  13.832 -0.4959  0.0210  0.5430
 9208TIP3    H149115   6.653   1.115  13.826  0.4650 -1.7476  0.3835
 9208TIP3    H249116   6.534   1.072  13.742  0.0812 -0.5645  0.3055
 9209TIP3   OH249117   3.701   1.535  12.462 -0.0254  0.9332 -0.1029
 9209TIP3    H149118   3.656   1.468  12.515  0.1645  2.1175  1.5957
 9209TIP3    H249119   3.785   1.495  12.440 -0.3011  0.2400  0.0910
 9210TIP3   OH249120   3.860   1.484   0.068 -0.6529  0.6216  0.1370
 9210TIP3    H149121   3.841   1.578   0.065  2.9147  1.4006 -0.6101
 9210TIP3    H249122   3.892   1.469   0.157 -0.7748  0.2177  0.1131
 9211TIP3   OH249123   6.868   1.060  14.995  0.4934 -0.0256  0.0580
 9211TIP3    H149124   6.829   1.005  15.062 -0.3463  1.5027  0.8406
 9211TIP3    H249125   6.835   1.148  15.013  1.0903  0.5891 -1.7169
 9212TIP3   OH249126   4.097   2.499  13.897  0.0724 -0.2463  0.5174
 9212TIP3    H149127   4.118   2.478  13.988  2.0640  0.3394  0.2161
 9212TIP3    H249128   4.102   2.415  13.851 -0.4374 -0.4580  0.8317
 9213TIP3   OH249129   1.672   5.396  14.953 -0.1870 -0.4659  0.1777
 9213TIP3    H149130   1.687   5.326  15.017  0.1037  0.8559  1.5825
 9213TIP3    H249131   1.755   5.444  14.951 -0.4602 -0.0231 -0.6316
 9214TIP3   OH249132   0.630   6.966  15.397  0.0642 -0.1006 -0.0549
 9214TIP3    H149133   0.579   7.046  15.402 -0.3171 -0.3103 -0.5628
 9214TIP3    H249134   0.661   6.962  15.306 -1.9029 -1.7275 -0.6904
 9215TIP3   OH249135   4.451   6.385  12.037  0.8881  0.4652  0.4628
 9215TIP3    H149136   4.544   6.400  12.021  0.8834  0.7869  0.7433
 9215TIP3    H249137   4.407   6.463  12.004  0.7819  0.6445  1.0385
 9216TIP3   OH249138   1.982   5.664   1.653  0.4556 -0.3542 -0.4530
 9216TIP3    H149139   1.952   5.639   1.566 -1.9803 -0.7795  0.4663
 9216TIP3    H249140   2.046   5.733   1.638 -1.8059  1.3697 -2.5041
 9217TIP3   OH249141   6.142   1.444  13.046  0.1140  0.2346 -0.4999
 9217TIP3    H149142   6.183   1.379  13.103 -0.2262 -0.0622 -0.5922
 9217TIP3    H249143   6.060   1.466  13.089  1.4175  2.6038  0.9181
 9218TIP3   OH249144   1.336   3.067  14.429 -0.6480 -0.1610  0.0979
 9218TIP3    H149145   1.277   3.136  14.400  0.6299  1.0992  0.4296
 9218TIP3    H249146   1.281   2.989  14.436 -1.9274  0.6145 -1.1239
 9219TIP3   OH249147   3.103   0.224  14.015  0.4175  0.1182  0.0719
 9219TIP3    H149148   3.109   0.243  14.109  0.5401  2.6302 -0.4254
 9219TIP3    H249149   3.019   0.179  14.005 -0.3866  1.3427  1.1592
 9220TIP3   OH249150   1.174   1.304  13.749  0.4497 -0.6230 -0.1699
 9220TIP3    H149151   1.097   1.359  13.733  0.5298 -0.5462 -0.2911
 9220TIP3    H249152   1.142   1.234  13.806  0.5905  0.1197  0.8310
 9221TIP3   OH249153   5.840   1.752   0.123  0.3038  0.3593  0.6426
 9221TIP3    H149154   5.798   1.820   0.175 -0.4259 -0.2845  0.8894
 9221TIP3    H249155   5.892   1.801   0.058 -1.5059  1.1636 -0.2349
 9222TIP3   OH249156   1.211   0.778  12.192 -0.2922 -0.2832  0.0531
 9222TIP3    H149157   1.211   0.761  12.287 -0.4451 -0.4788  0.0195
 9222TIP3    H249158   1.123   0.755  12.164 -0.8284  1.5728  0.1755
 9223TIP3   OH249159   1.715   0.360  14.984 -0.1288 -0.2811 -0.1130
 9223TIP3    H149160   1.626   0.356  15.020 -0.3574  3.8076  0.1106
 9223TIP3    H249161   1.770   0.384  15.059  0.6515  0.2414 -0.8417
 9224TIP3   OH249162   1.560   2.028  14.638 -0.0191 -0.5376 -0.2871
 9224TIP3    H149163   1.510   2.109  14.632  0.7140 -0.1127 -0.7078
 9224TIP3    H249164   1.494   1.958  14.639 -0.5870 -0.0351 -1.7125
 9225TIP3   OH249165   1.446   3.003  10.768  0.4366 -0.0231 -0.2740
 9225TIP3    H149166   1.523   2.969  10.723  1.0424 -0.4670  1.0611
 9225TIP3    H249167   1.429   3.087  10.727  1.5230 -0.0148 -0.7232
 9226TIP3   OH249168   5.055   4.072  12.573  0.0155 -0.4734 -0.6082
 9226TIP3    H149169   5.012   4.028  12.500  1.3205 -1.2541 -0.9115
 9226TIP3    H249170   5.120   4.010  12.604 -0.5486 -0.1657  1.2600
 9227TIP3   OH249171   1.515   7.199  13.575  0.3994 -0.5843 -0.1060
 9227TIP3    H149172   1.481   7.288  13.582 -0.2042 -0.8585  0.4522
 9227TIP3    H249173   1.507   7.177  13.482  1.6473  0.3705 -0.4721
 9228TIP3   OH249174   4.659   0.107   3.999 -0.1169  0.3847  0.2865
 9228TIP3    H149175   4.603   0.133   4.072 -0.9551 -0.4716 -0.0575
 9228TIP3    H249176   4.684   0.017   4.019 -0.7297 -0.0119 -0.7240
 9229TIP3   OH249177   5.213   5.961  10.967 -0.1097 -0.0303 -0.4504
 9229TIP3    H149178   5.121   5.976  10.946  0.1015  2.5503  0.3011
 9229TIP3    H249179   5.215   5.949  11.062  0.3537  0.2027 -0.4266
 9230TIP3   OH249180   2.993   2.925   9.942 -0.1300 -0.3501 -0.7352
 9230TIP3    H149181   2.924   2.956   9.882  1.3442  0.1988 -2.1697
 9230TIP3    H249182   3.040   2.858   9.891 -0.3952 -1.6584  0.7006
 9231TIP3   OH249183   0.121   3.640   0.520 -0.4874  0.3764 -0.2328
 9231TIP3    H149184   0.203   3.646   0.471 -0.8695  0.5206 -0.8601
 9231TIP3    H249185   0.143   3.673   0.607 -0.3875  2.5119 -1.0200
 9232TIP3   OH249186   4.252   0.362  14.856  0.1167 -0.2451  0.0573
 9232TIP3    H149187   4.189   0.427  14.886  1.3853  0.3915  1.4479
 9232TIP3    H249188   4.205   0.310  14.792 -1.8249  0.2134  1.0762
 9233TIP3   OH249189   5.634   3.519  13.870  0.0072  0.7833  0.0408
 9233TIP3    H149190   5.589   3.587  13.921 -1.4944 -0.6381  0.6932
 9233TIP3    H249191   5.695   3.480  13.932 -2.5325 -1.6210  1.1434
 9234TIP3   OH249192   3.581   1.988  12.572  0.6201  0.1254 -0.0167
 9234TIP3    H149193   3.515   2.033  12.624  1.7189  0.6335  0.9517
 9234TIP3    H249194   3.583   2.035  12.488  0.8872  1.1078  0.5378
 9235TIP3   OH249195   6.538   6.310   0.534 -0.0344 -0.6478 -0.4955
 9235TIP3    H149196   6.592   6.234   0.513  1.6443  0.8341 -1.7815
 9235TIP3    H249197   6.503   6.292   0.621  2.7207 -1.6050  0.4802
 9236TIP3   OH249198   2.080   6.016  14.022  0.0636 -0.4963 -0.5787
 9236TIP3    H149199   2.088   5.988  14.113  1.2490 -0.9556 -0.8211
 9236TIP3    H249200   2.015   5.957  13.984  0.5001 -1.1243 -0.3577
 9237TIP3   OH249201   3.496   5.902  14.381 -0.1456  0.4267 -0.8249
 9237TIP3    H149202   3.484   5.899  14.476 -1.2477 -3.2227 -1.0157
 9237TIP3    H249203   3.474   5.992  14.357 -1.8756  0.8552  2.1323
 9238TIP3   OH249204   3.043   7.179  15.237 -0.3944  0.1913  0.1189
 9238TIP3    H149205   3.047   7.229  15.318  1.8265 -1.1992  0.9266
 9238TIP3    H249206   3.104   7.223  15.178 -0.1379 -0.2339  0.0629
 9239TIP3   OH249207   6.144   7.191  13.543 -0.3780 -0.3442  0.3966
 9239TIP3    H149208   6.060   7.235  13.541 -0.5753 -0.7594 -1.5977
 9239TIP3    H249209   6.130   7.112  13.596 -1.0551 -0.0745  0.6145
 9240TIP3   OH249210   3.769   1.613  14.966 -0.2138 -0.1912  0.1764
 9240TIP3    H149211   3.704   1.556  14.924 -0.1664  1.3879 -2.1095
 9240TIP3    H249212   3.718   1.670  15.023 -0.9752  1.6510 -2.2979
 9241TIP3   OH249213   5.208   3.528   0.093 -0.6006 -0.3654 -0.0688
 9241TIP3    H149214   5.293   3.487   0.110  0.0434  0.8731 -0.2552
 9241TIP3    H249215   5.229   3.616   0.061 -1.9507 -0.0442 -0.1208
 9242TIP3   OH249216   4.008   4.455  12.905 -0.5826  0.3856 -0.3983
 9242TIP3    H149217   4.094   4.459  12.864 -0.1456  1.2149  0.5804
 9242TIP3    H249218   3.977   4.366  12.888  1.1125 -0.3968  0.5129
 9243TIP3   OH249219   5.261   4.005  13.033 -0.6223 -0.1695 -0.1449
 9243TIP3    H149220   5.197   3.999  12.962  0.9943  2.1842 -1.8391
 9243TIP3    H249221   5.229   4.078  13.087 -0.0571  0.2018 -0.3098
 9244TIP3   OH249222   3.134   5.163  12.289 -0.3476  0.2492 -0.4812
 9244TIP3    H149223   3.100   5.233  12.346 -0.6491  0.2117 -0.6157
 9244TIP3    H249224   3.105   5.187  12.201 -0.8135 -0.2740 -0.4696
 9245TIP3   OH249225   2.196   0.021  10.847 -0.3615 -0.8329 -0.4930
 9245TIP3    H149226   2.266  -0.010  10.788  0.8008  2.3639 -0.8714
 9245TIP3    H249227   2.238   0.025  10.933 -0.8620 -1.3956 -0.2150
 9246TIP3   OH249228   3.830   4.926  12.588  0.3500  0.3282  0.3442
 9246TIP3    H149229   3.754   4.930  12.647  0.5413 -0.1217  0.6203
 9246TIP3    H249230   3.817   4.846  12.537 -0.2152  1.1203 -0.7740
 9247TIP3   OH249231   6.160   1.495  14.861 -0.4742  0.3478 -0.0231
 9247TIP3    H149232   6.148   1.499  14.956 -0.7762  2.9222 -0.1311
 9247TIP3    H249233   6.071   1.496  14.826 -0.3969 -1.5996 -0.3466
 9248TIP3   OH249234   2.776   2.426  14.031  0.2274  0.0011  0.5970
 9248TIP3    H149235   2.743   2.477  13.957 -1.6116 -0.7260  0.8767
 9248TIP3    H249236   2.697   2.388  14.070  1.2028  0.1469  2.7651
 9249TIP3   OH249237   2.939   5.423  12.790 -0.3072 -0.4662 -0.1639
 9249TIP3    H149238   2.985   5.464  12.864  1.3748 -1.3577 -0.6697
 9249TIP3    H249239   2.923   5.333  12.819 -2.3958  0.0220  0.2673
 9250TIP3   OH249240   1.359   5.641  13.713  0.0226 -0.1123  0.4140
 9250TIP3    H149241   1.444   5.645  13.756  0.3897 -1.1271 -0.2173
 9250TIP3    H249242   1.359   5.716  13.653  1.2703 -1.2529 -1.0413
 9251TIP3   OH249243   3.716   3.281  10.130  0.8567  0.2635 -0.5542
 9251TIP3    H149244   3.689   3.273  10.039 -1.8273  2.9774 -0.0741
 9251TIP3    H249245   3.798   3.331  10.126  0.8392  0.2322 -1.4859
 9252TIP3   OH249246   4.670   5.547   2.699  0.1946  0.1633  0.0300
 9252TIP3    H149247   4.591   5.599   2.712 -1.1410 -1.5118 -1.1335
 9252TIP3    H249248   4.658   5.507   2.613  2.8127  0.7452 -0.6333
 9253TIP3   OH249249   5.761   4.509   1.007  0.5080 -0.0138  0.2353
 9253TIP3    H149250   5.677   4.476   1.037  0.3684  1.1061  1.1173
 9253TIP3    H249251   5.787   4.449   0.937 -1.0314 -0.3416 -0.0640
 9254TIP3   OH249252   4.384   6.795   0.004  0.1054 -0.1305 -0.1414
 9254TIP3    H149253   4.316   6.762   0.063  0.8471  0.5493  1.1299
 9254TIP3    H249254   4.348   6.782  -0.084 -0.7066 -1.8550  0.4275
 9255TIP3   OH249255   1.599   6.162  11.111  0.0226 -0.2287  0.0761
 9255TIP3    H149256   1.664   6.096  11.088 -0.6382 -0.8189 -0.1178
 9255TIP3    H249257   1.606   6.228  11.041 -0.1642 -0.7074 -0.3972
 9256TIP3   OH249258   3.265   0.623  12.492  0.0536  0.4997 -0.1057
 9256TIP3    H149259   3.280   0.669  12.574  2.9882 -0.7400  0.1158
 9256TIP3    H249260   3.305   0.679  12.425  1.5892 -0.5779 -0.1130
 9257TIP3   OH249261   2.676   3.725  15.581  0.1711  0.8934  0.4896
 9257TIP3    H149262   2.700   3.817  15.587  2.7904  0.2056  1.0574
 9257TIP3    H249263   2.754   3.681  15.548  0.4171 -1.6958  4.1643
 9258TIP3   OH249264   4.743   3.734  14.530  0.0286 -0.0738 -0.5030
 9258TIP3    H149265   4.683   3.681  14.476 -2.9200  2.7875 -0.1631
 9258TIP3    H249266   4.720   3.711  14.620  1.3477 -0.9489 -0.3727
 9259TIP3   OH249267   2.113   0.636   0.761 -0.9641 -0.0793  0.0115
 9259TIP3    H149268   2.159   0.644   0.844  2.8970  0.1322 -2.0287
 9259TIP3    H249269   2.112   0.726   0.726  2.1765 -0.9020 -2.4624
 9260TIP3   OH249270   3.808   6.818  11.222 -0.6580 -0.0827  0.5268
 9260TIP3    H149271   3.780   6.753  11.157  1.3204  0.9050 -1.3742
 9260TIP3    H249272   3.883   6.778  11.266  0.3602  0.7630 -0.4229
 9261TIP3   OH249273   0.867   1.624   0.388  0.1057 -0.0768  0.3813
 9261TIP3    H149274   0.859   1.715   0.419 -0.0872  0.3427 -0.8760
 9261TIP3    H249275   0.793   1.579   0.428  0.9949 -0.0193  2.1477
 9262TIP3   OH249276   4.178   1.085  13.289  0.2340 -0.5071  0.0166
 9262TIP3    H149277   4.139   1.156  13.340 -1.8110 -1.6489  0.0691
 9262TIP3    H249278   4.228   1.034  13.353 -0.6834 -0.7699  0.5434
 9263TIP3   OH249279   2.152   7.099  12.095 -0.0212  0.4050 -0.0606
 9263TIP3    H149280   2.152   7.167  12.162 -0.5764  0.2699  0.0789
 9263TIP3    H249281   2.074   7.117  12.042 -0.2286 -0.1842  0.0433
 9264TIP3   OH249282   5.346   0.195  14.665  0.1400 -0.5456 -0.3971
 9264TIP3    H149283   5.403   0.271  14.678 -1.6501  0.8379 -0.4782
 9264TIP3    H249284   5.406   0.120  14.663  1.7234  0.6247  1.8833
 9265TIP3   OH249285   0.003   5.335  15.345  0.1290 -0.1284 -0.0900
 9265TIP3    H149286  -0.053   5.343  15.268  0.1203  1.1929  0.0392
 9265TIP3    H249287   0.071   5.401  15.332  1.7079 -1.7279 -0.2595
 9266TIP3   OH249288   2.546   2.633  14.329  0.2807  1.0417  0.0370
 9266TIP3    H149289   2.520   2.664  14.415 -1.0629 -0.0519  0.0365
 9266TIP3    H249290   2.480   2.568  14.305  1.0816  0.7457 -1.4709
 9267TIP3   OH249291   4.385   4.634   2.748 -0.7147 -0.1366  0.4057
 9267TIP3    H149292   4.469   4.592   2.770 -0.3737 -0.2365 -1.0905
 9267TIP3    H249293   4.407   4.726   2.736 -0.8940 -0.0991  0.3680
 9268TIP3   OH249294   5.078   0.649  11.853  0.4727 -0.2926 -0.2284
 9268TIP3    H149295   5.157   0.598  11.870  0.4777 -1.0302 -2.3700
 9268TIP3    H249296   5.071   0.652  11.758 -1.4206  0.8031 -0.0811
 9269TIP3   OH249297   1.412   4.140   2.188 -0.0475 -0.3672  0.2293
 9269TIP3    H149298   1.379   4.051   2.179  2.4401 -1.3119  0.1096
 9269TIP3    H249299   1.342   4.196   2.153 -1.4673 -2.2772 -0.0267
 9270TIP3   OH249300   6.375   4.656  15.571 -0.5736 -0.0582  0.0267
 9270TIP3    H149301   6.405   4.607  15.494 -0.1233  3.0934 -1.9007
 9270TIP3    H249302   6.284   4.630  15.582 -0.8614 -0.0149 -2.0493
 9271TIP3   OH249303   5.010   4.061   1.136  0.2860 -0.3655 -0.5379
 9271TIP3    H149304   5.102   4.034   1.134  0.4572  0.2818 -1.6957
 9271TIP3    H249305   4.997   4.097   1.224  1.2124 -0.2106 -0.4637
 9272TIP3   OH249306   4.777   4.360  11.841 -0.2989  0.5355  0.0639
 9272TIP3    H149307   4.803   4.286  11.785 -1.2553  1.2897 -1.4104
 9272TIP3    H249308   4.859   4.408  11.856  0.0092  0.1935 -0.4845
 9273TIP3   OH249309   3.705   0.987  11.352 -0.4184  0.2599  0.6158
 9273TIP3    H149310   3.783   0.931  11.363 -0.6566  0.1002  1.5410
 9273TIP3    H249311   3.725   1.040  11.276 -0.3231 -1.3371 -0.5094
 9274TIP3   OH249312   4.044   6.317   0.207  0.0750  0.3868  0.4075
 9274TIP3    H149313   4.052   6.240   0.151 -0.0441  3.2726 -3.8081
 9274TIP3    H249314   3.995   6.286   0.284  0.1065 -3.6917 -1.0824
 9275TIP3   OH249315   4.210   4.857  15.194 -0.2641 -0.6513  0.4120
 9275TIP3    H149316   4.285   4.895  15.239  0.3108 -0.5330 -0.6465
 9275TIP3    H249317   4.153   4.827  15.265  0.2951  0.1875  1.2299
 9276TIP3   OH249318   5.812   1.066  11.630  0.1204 -0.0413  0.1786
 9276TIP3    H149319   5.896   1.024  11.609 -0.0780 -0.6580  0.5722
 9276TIP3    H249320   5.836   1.154  11.660  0.7115 -0.5039  1.1173
 9277TIP3   OH249321   3.367   2.852  15.464 -0.1249 -0.1759 -0.5292
 9277TIP3    H149322   3.311   2.900  15.404 -0.6184  0.8565  0.7229
 9277TIP3    H249323   3.337   2.762  15.458 -2.8425  0.5694  1.1040
 9278TIP3   OH249324   2.071   5.641  12.700 -0.8089  0.1465  0.1820
 9278TIP3    H149325   2.034   5.678  12.620  0.0357  0.2531 -0.1617
 9278TIP3    H249326   2.071   5.546  12.684 -0.7554  0.1589  0.1128
 9279TIP3   OH249327   2.129   0.311   0.758  0.3662 -0.2009 -0.2768
 9279TIP3    H149328   2.068   0.379   0.728 -1.7943 -1.3943  1.3139
 9279TIP3    H249329   2.210   0.358   0.775 -0.3113  1.5500 -1.6754
 9280TIP3   OH249330   1.942   1.266   3.769  0.3439 -0.6260  0.3530
 9280TIP3    H149331   2.030   1.302   3.780  0.1133  0.5006 -1.4331
 9280TIP3    H249332   1.897   1.286   3.851  1.3065  0.0569  0.7150
 9281TIP3   OH249333   3.744   3.000  14.025 -0.3109 -0.2363 -0.2310
 9281TIP3    H149334   3.809   3.012  13.956  0.4987 -2.1632  0.1584
 9281TIP3    H249335   3.698   2.919  14.000  0.2518 -1.1663  1.6592
 9282TIP3   OH249336   5.297   2.620   0.946  0.5457  0.0479 -0.4308
 9282TIP3    H149337   5.341   2.576   0.874  0.0719  0.1057 -0.7629
 9282TIP3    H249338   5.249   2.692   0.904 -0.0387 -0.1488 -0.1113
 9283TIP3   OH249339   1.172   1.725   3.522 -0.1830 -0.0995  0.1782
 9283TIP3    H149340   1.195   1.812   3.555  2.1364 -0.8647  0.6094
 9283TIP3    H249341   1.192   1.665   3.593  0.2893 -1.2372 -0.8940
 9284TIP3   OH249342   2.395   4.937   0.115 -0.3523  0.3022  0.0796
 9284TIP3    H149343   2.303   4.956   0.094 -0.5182 -1.8117 -1.2832
 9284TIP3    H249344   2.445   4.979   0.046 -0.2160  2.1605  1.2809
 9285TIP3   OH249345   5.954   4.497  14.444 -0.6222  0.0230 -0.0058
 9285TIP3    H149346   5.888   4.552  14.404 -0.1949  1.0873  0.7381
 9285TIP3    H249347   6.002   4.555  14.502 -0.8767 -1.3635  1.6340
 9286TIP3   OH249348   2.642   3.906   1.131  0.4461 -0.1084  0.2210
 9286TIP3    H149349   2.592   3.841   1.179 -0.3500  1.6116  1.7772
 9286TIP3    H249350   2.624   3.988   1.176  0.4698  1.4015 -2.4287
 9287TIP3   OH249351   3.259   3.975  12.707 -0.6040  0.1984 -0.2109
 9287TIP3    H149352   3.262   4.059  12.754 -2.3932 -0.2523  0.7591
 9287TIP3    H249353   3.293   3.995  12.620  0.5759  1.5589  0.5354
 9288TIP3   OH249354   3.423   1.211  14.056 -0.3839 -0.0051  0.2881
 9288TIP3    H149355   3.346   1.266  14.071 -0.1573  0.4071 -0.0240
 9288TIP3    H249356   3.396   1.123  14.081 -1.3920 -0.1057 -1.0880
 9289TIP3   OH249357   1.184   0.533  13.509 -0.5083  0.6322 -0.0505
 9289TIP3    H149358   1.147   0.445  13.512 -0.3648  0.5361 -0.8630
 9289TIP3    H249359   1.156   0.574  13.590  0.6605 -0.6592  1.0275
 9290TIP3   OH249360   3.603   4.393  14.181 -0.5253 -0.7254 -0.1809
 9290TIP3    H149361   3.574   4.386  14.090 -0.5347 -1.9414 -0.0899
 9290TIP3    H249362   3.661   4.318  14.193  0.4478  0.1144  0.4612
 9291TIP3   OH249363   2.900   0.905  11.735 -0.5184 -0.3226  0.0754
 9291TIP3    H149364   2.865   0.827  11.692 -0.1407 -0.0363 -0.7587
 9291TIP3    H249365   2.849   0.978  11.698  0.3512  0.0075 -0.4946
 9292TIP3   OH249366   0.179   0.149  11.384  0.3625  0.4502  0.9548
 9292TIP3    H149367   0.155   0.135  11.476 -0.1947  2.7942  1.2069
 9292TIP3    H249368   0.096   0.143  11.336  0.4553  0.5202  0.7812
 9293TIP3   OH249369   1.228   5.625  13.084  0.3993 -0.0426  0.1664
 9293TIP3    H149370   1.150   5.678  13.098 -0.7283 -1.4366 -0.7544
 9293TIP3    H249371   1.240   5.578  13.166  0.7556  0.7764  0.5927
 9294TIP3   OH249372   4.574   4.768   2.993 -0.3662 -0.4444  0.2940
 9294TIP3    H149373   4.559   4.807   2.907  0.5791  0.5215  0.5582
 9294TIP3    H249374   4.585   4.842   3.052 -0.0341 -1.1002  1.0768
 9295TIP3   OH249375   2.919   1.581  14.057 -0.1163 -0.1077 -0.4775
 9295TIP3    H149376   2.950   1.544  14.139 -1.4505  0.3956  0.2577
 9295TIP3    H249377   2.999   1.610  14.013  0.7060 -1.4843  0.0885
 9296TIP3   OH249378   1.061   2.692   1.208  0.3841 -0.4753 -0.7099
 9296TIP3    H149379   1.125   2.684   1.278 -0.4245 -0.1514  0.0639
 9296TIP3    H249380   1.082   2.620   1.149 -0.0544 -1.8039  0.7527
 9297TIP3   OH249381   4.157   0.240  14.169 -0.0706  0.3844 -0.4310
 9297TIP3    H149382   4.239   0.215  14.213 -0.4897  0.4090  0.3641
 9297TIP3    H249383   4.098   0.167  14.186 -0.6999  1.0633  0.2994
 9298TIP3   OH249384   3.332   0.446  12.080  0.4574  0.2699 -0.5142
 9298TIP3    H149385   3.265   0.382  12.056  2.2005 -1.5317 -0.7896
 9298TIP3    H249386   3.398   0.438  12.011  1.3576  1.3727  0.2097
 9299TIP3   OH249387   2.031   4.072  15.356  0.6712 -0.1554 -0.0559
 9299TIP3    H149388   2.098   4.010  15.384  1.5380  0.8904  0.2543
 9299TIP3    H249389   1.958   4.018  15.328  2.0868 -1.3460 -1.5449
 9300TIP3   OH249390   4.155   7.103  13.512  0.3251 -0.1659  0.2085
 9300TIP3    H149391   4.176   7.017  13.476 -0.1782 -0.5582  0.8516
 9300TIP3    H249392   4.060   7.108  13.511  0.3716  0.8188 -0.8264
 9301TIP3   OH249393   1.691   5.333   0.910  0.3578  0.4562 -0.3909
 9301TIP3    H149394   1.630   5.259   0.919  1.0187 -0.1750 -1.0094
 9301TIP3    H249395   1.778   5.293   0.912  0.7121  1.1737 -1.1388
 9302TIP3   OH249396   3.523   7.179   1.585  0.5366 -0.4474 -0.1442
 9302TIP3    H149397   3.488   7.181   1.496  1.4391 -2.7560 -0.6036
 9302TIP3    H249398   3.618   7.170   1.573  0.7473  0.1043  1.0494
 9303TIP3   OH249399   2.873   6.988  11.050  0.3995  0.0019 -0.2870
 9303TIP3    H149400   2.861   6.893  11.055  1.1716 -0.2462 -2.9195
 9303TIP3    H249401   2.965   7.001  11.027  0.7521  1.4664  1.7588
 9304TIP3   OH249402   3.845   3.625   1.282  0.2018 -0.2722  0.2991
 9304TIP3    H149403   3.889   3.631   1.368 -0.3342 -1.8463  0.7021
 9304TIP3    H249404   3.842   3.531   1.264 -0.1296  0.0277 -1.2342
 9305TIP3   OH249405   2.109   1.243  13.975  0.2100 -0.0111 -1.2600
 9305TIP3    H149406   2.016   1.263  13.963 -0.2090  0.4196  2.1883
 9305TIP3    H249407   2.152   1.328  13.978 -0.0247  0.0622  2.0683
 9306TIP3   OH249408   5.317   0.362   2.695 -0.1925  0.0614 -0.7018
 9306TIP3    H149409   5.387   0.356   2.760  0.0025 -3.7856 -1.1222
 9306TIP3    H249410   5.258   0.429   2.730  3.4673  3.2135 -0.1992
 9307TIP3   OH249411   1.074   5.376   1.307 -0.7474 -0.1342  0.3368
 9307TIP3    H149412   1.121   5.455   1.282 -1.1843 -0.0946 -0.3965
 9307TIP3    H249413   1.070   5.325   1.226  0.0207 -1.1617  0.9267
 9308TIP3   OH249414   1.063   6.395   0.001  0.0513  0.0830  0.0358
 9308TIP3    H149415   1.121   6.433  -0.064  1.3689 -0.8922  0.5868
 9308TIP3    H249416   1.060   6.302  -0.022 -1.8541  0.2415 -0.3806
 9309TIP3   OH249417   5.950   1.835  13.547  0.0481  0.0787  0.2115
 9309TIP3    H149418   6.044   1.827  13.535 -0.0416  0.5099 -0.8926
 9309TIP3    H249419   5.915   1.751  13.518  0.2343 -0.7541  2.3801
 9310TIP3   OH249420   1.275   6.561  15.530  0.4290 -0.0173  0.0988
 9310TIP3    H149421   1.364   6.534  15.507  0.5393  1.4230 -1.1538
 9310TIP3    H249422   1.277   6.567  15.626  1.0572 -2.0999  0.2555
 9311TIP3   OH249423   4.291   5.013  14.335  0.1442 -0.4033  0.3668
 9311TIP3    H149424   4.338   4.931  14.347  0.8149 -0.3196 -1.4638
 9311TIP3    H249425   4.359   5.077  14.316 -0.4533  0.3754  0.8130
 9312TIP3   OH249426   3.220   1.112  15.522 -0.0723 -0.3011  0.2211
 9312TIP3    H149427   3.236   1.178  15.454  0.0907  1.7082  2.1244
 9312TIP3    H249428   3.307   1.085  15.550 -0.0584  1.2980  1.8401
 9313TIP3   OH249429   7.029   5.690   0.858 -0.4522 -0.1135  1.0604
 9313TIP3    H149430   6.971   5.755   0.819 -0.6899 -1.9946 -1.8561
 9313TIP3    H249431   7.117   5.722   0.840 -0.5670 -0.3247  0.1434
 9314TIP3   OH249432   5.099   1.611   2.287 -0.0252 -0.0274 -0.6089
 9314TIP3    H149433   5.128   1.523   2.312 -0.8721 -0.2890 -0.5235
 9314TIP3    H249434   5.049   1.598   2.206 -0.1636  0.3705 -0.5887
 9315TIP3   OH249435   2.683   7.179   1.787 -0.1630 -0.3509  0.2284
 9315TIP3    H149436   2.602   7.150   1.829  0.1523 -1.2628  0.2042
 9315TIP3    H249437   2.751   7.164   1.853 -0.0769  0.9220  0.4559
 9316TIP3   OH249438   3.216   2.163  13.488  0.4166 -0.2963  0.0397
 9316TIP3    H149439   3.186   2.174  13.578 -0.7576 -0.5906 -0.3106
 9316TIP3    H249440   3.311   2.173  13.493  0.2210  1.1429  1.0807
 9317TIP3   OH249441   3.619   5.415   3.463  0.3665 -0.1684  0.3805
 9317TIP3    H149442   3.534   5.417   3.420  1.1954  2.3230 -1.2635
 9317TIP3    H249443   3.605   5.460   3.546 -0.6160 -2.5770  1.5506
 9318TIP3   OH249444   1.682   6.355  13.038  0.4065 -0.0778  0.2243
 9318TIP3    H149445   1.675   6.436  13.088 -1.7949  0.1148 -0.3506
 9318TIP3    H249446   1.751   6.373  12.974 -1.7151  2.2113 -1.4869
 9319TIP3   OH249447   6.237   0.520  15.245 -0.5491  0.0426 -0.0420
 9319TIP3    H149448   6.186   0.547  15.169 -0.7303  1.0164  0.4156
 9319TIP3    H249449   6.287   0.598  15.270  1.0849 -0.8661 -0.4043
 9320TIP3   OH249450   0.452   0.408   0.729 -0.1093 -0.1822 -0.0059
 9320TIP3    H149451   0.374   0.390   0.676  0.4089 -0.9253 -0.5258
 9320TIP3    H249452   0.432   0.373   0.815  0.2562 -1.8214 -0.5653
 9321TIP3   OH249453   6.821   6.965   1.396  0.0010  0.4532  0.3606
 9321TIP3    H149454   6.734   6.949   1.360 -0.0236  0.4228  0.4324
 9321TIP3    H249455   6.875   6.987   1.320  0.4185 -1.6161  0.0253
 9322TIP3   OH249456   0.216   4.140  13.039  0.3918  0.0852  0.7310
 9322TIP3    H149457   0.243   4.113  12.951  0.7564  1.2305  0.4787
 9322TIP3    H249458   0.137   4.193  13.025  0.5093  0.3550  1.0824
 9323TIP3   OH249459   5.452   0.778   1.320 -0.4437  0.4328  0.2729
 9323TIP3    H149460   5.468   0.749   1.231 -1.2132  2.4050 -0.5251
 9323TIP3    H249461   5.363   0.813   1.319 -0.4461  0.5261  1.8017
 9324TIP3   OH249462   2.227   3.858   2.658  0.1923 -0.1574 -0.1637
 9324TIP3    H149463   2.145   3.845   2.706  0.0013 -0.3299 -0.5384
 9324TIP3    H249464   2.286   3.900   2.722  0.1576 -1.0096  0.4314
 9325TIP3   OH249465   3.215   2.136  15.180 -0.0944 -0.1666  0.3074
 9325TIP3    H149466   3.187   2.188  15.105  1.9893  1.3412  0.5228
 9325TIP3    H249467   3.134   2.113  15.225 -1.1283  2.3654 -0.1649
 9326TIP3   OH249468   5.501   0.091  12.569 -0.2911 -0.2101  0.2032
 9326TIP3    H149469   5.583   0.122  12.532 -1.2362  3.4471  1.0009
 9326TIP3    H249470   5.527   0.047  12.650  0.9765 -0.1082 -0.1367
 9327TIP3   OH249471   2.597   4.105  15.388 -0.4612 -0.2494 -0.1204
 9327TIP3    H149472   2.533   4.044  15.352  0.3154 -1.3388  0.3167
 9327TIP3    H249473   2.678   4.053  15.395  0.3306  0.9588 -0.1802
 9328TIP3   OH249474   2.348   1.081  12.318 -0.0652 -0.2906  0.0031
 9328TIP3    H149475   2.342   1.131  12.237 -2.2744 -2.8032 -1.4814
 9328TIP3    H249476   2.430   1.032  12.310  0.9023  1.2551  0.3814
 9329TIP3   OH249477   2.315   5.985   0.851  0.1966  1.2381 -0.3520
 9329TIP3    H149478   2.286   6.074   0.872 -0.9074  0.8109 -0.0550
 9329TIP3    H249479   2.332   5.988   0.757 -0.6711  1.5414 -0.5045
 9330TIP3   OH249480   2.792   3.941   1.608 -0.2118  0.1585  0.2458
 9330TIP3    H149481   2.749   3.905   1.685 -0.5140 -0.6955 -0.3052
 9330TIP3    H249482   2.785   3.871   1.543  1.3725  0.2769 -0.0707
 9331TIP3   OH249483   5.244   5.810  12.511  0.1905  0.1046 -0.3752
 9331TIP3    H149484   5.223   5.868  12.585 -1.4785 -1.4492  0.4126
 9331TIP3    H249485   5.215   5.859  12.434 -0.5412  0.6474  0.2264
 9332TIP3   OH249486   6.636   1.154   9.979 -0.2832  0.5378  0.5168
 9332TIP3    H149487   6.663   1.222   9.918  0.6510 -0.9800 -0.7882
 9332TIP3    H249488   6.718   1.112  10.006 -1.0274 -1.7887 -0.7392
 9333TIP3   OH249489   2.312   0.715  13.841  0.2308 -0.2064 -0.8239
 9333TIP3    H149490   2.277   0.736  13.754 -1.3060  1.1871  0.1084
 9333TIP3    H249491   2.378   0.783  13.857 -0.3958  0.2948 -0.3666
 9334TIP3   OH249492   7.078   0.080  15.519  0.7325 -0.1416 -0.0319
 9334TIP3    H149493   7.120   0.003  15.557  1.0140  0.1119  0.1726
 9334TIP3    H249494   7.139   0.109  15.451  0.8143  0.1356  0.1602
 9335TIP3   OH249495   5.884   1.804  12.741  0.0788 -0.6029  0.2985
 9335TIP3    H149496   5.854   1.889  12.774 -0.2884  0.3108 -2.3147
 9335TIP3    H249497   5.979   1.815  12.731 -0.3626  0.6476 -3.1254
 9336TIP3   OH249498   2.995   0.822  13.867 -0.1767  0.0719 -0.2150
 9336TIP3    H149499   2.985   0.732  13.899  0.1729  0.2233  0.3168
 9336TIP3    H249500   3.064   0.816  13.800  1.0063  0.2256  0.9736
 9337TIP3   OH249501   1.011   0.929  11.900 -0.1864  0.1454 -0.6628
 9337TIP3    H149502   1.083   0.894  11.848  0.0875  0.3881 -0.4528
 9337TIP3    H249503   0.992   0.861  11.964  3.4192  2.1467  2.7433
 9338TIP3   OH249504   0.480   0.095   0.454  0.2013 -0.2162 -0.1983
 9338TIP3    H149505   0.576   0.101   0.451  0.1415  0.2113 -1.7248
 9338TIP3    H249506   0.463   0.019   0.509  1.3792  0.6720  1.4662
 9339TIP3   OH249507   2.235   4.957  11.621 -0.0483 -0.4098  0.1689
 9339TIP3    H149508   2.213   4.899  11.548 -0.0610  0.0261 -0.1769
 9339TIP3    H249509   2.301   5.017  11.584 -1.3418  0.9467 -0.0015
 9340TIP3   OH249510   5.887   5.417  13.905  0.0629  0.5015  0.4107
 9340TIP3    H149511   5.894   5.505  13.867  1.4975  0.6204  0.9078
 9340TIP3    H249512   5.880   5.432  13.999 -2.2930  0.1588  0.3363
 9341TIP3   OH249513   0.451   6.809  14.940 -0.2003 -0.2368 -0.0112
 9341TIP3    H149514   0.498   6.773  15.015  2.2260  1.8637 -0.4472
 9341TIP3    H249515   0.390   6.872  14.978 -0.2300 -0.4655  0.3211
 9342TIP3   OH249516   0.931   0.369  13.526  0.0849 -0.4234 -0.5112
 9342TIP3    H149517   0.915   0.277  13.504  0.2083 -0.7582  0.8105
 9342TIP3    H249518   0.857   0.416  13.486 -0.2727 -1.1569 -0.7167
 9343TIP3   OH249519   2.542   5.397  14.375 -0.0644  0.0797  0.7246
 9343TIP3    H149520   2.447   5.411  14.370 -0.0178  0.1740  0.0651
 9343TIP3    H249521   2.577   5.442  14.298  0.5382  0.2196  1.0775
 9344TIP3   OH249522   6.160   1.260  14.106  0.0080 -0.1257  0.1656
 9344TIP3    H149523   6.218   1.304  14.167  0.1678 -0.3247  0.1570
 9344TIP3    H249524   6.104   1.330  14.071  0.9317  0.2280 -0.6089
 9345TIP3   OH249525   1.363   5.389  14.027 -0.0158  0.0911  0.0121
 9345TIP3    H149526   1.310   5.451  13.976  0.4962 -0.2463 -0.9515
 9345TIP3    H249527   1.438   5.440  14.056  0.0106  0.1237 -0.1128
 9346TIP3   OH249528   1.634   4.378   0.522 -0.7912 -0.0524  0.1633
 9346TIP3    H149529   1.701   4.311   0.534 -0.8904 -0.3623 -0.9008
 9346TIP3    H249530   1.659   4.423   0.441 -1.5959  0.1457  0.0173
 9347TIP3   OH249531   1.924   5.396  13.239 -0.4517 -0.3509  0.1835
 9347TIP3    H149532   1.850   5.363  13.188 -0.1173  0.2795 -0.7194
 9347TIP3    H249533   1.933   5.334  13.312 -0.5640 -1.5775 -0.8414
 9348TIP3   OH249534   4.981   5.810   0.981 -0.1853 -0.5332 -0.1984
 9348TIP3    H149535   4.894   5.773   0.964 -0.7325  0.1318  1.0517
 9348TIP3    H249536   5.028   5.740   1.027 -0.8028 -0.1447  1.0572
 9349TIP3   OH249537   5.549   3.567  15.395 -0.1119 -0.3512  0.2875
 9349TIP3    H149538   5.473   3.531  15.350  0.1696 -1.4954  0.7169
 9349TIP3    H249539   5.560   3.511  15.472  2.7059 -1.8220 -1.0917
 9350TIP3   OH249540   1.429   3.424  14.568 -0.2032  0.3505 -0.5232
 9350TIP3    H149541   1.337   3.399  14.572  0.3771 -1.7596  0.7098
 9350TIP3    H249542   1.464   3.401  14.654  1.1319  2.6449 -0.4041
 9351TIP3   OH249543   3.708   6.064  11.913  0.0973  0.1193  0.0615
 9351TIP3    H149544   3.612   6.059  11.915  0.0703  0.0020 -1.0289
 9351TIP3    H249545   3.727   6.157  11.905  0.1530  0.3878  3.0231
 9352TIP3   OH249546   4.663   2.096   0.091  0.1596 -0.3638  0.2306
 9352TIP3    H149547   4.728   2.161   0.119 -0.4679 -0.1440  1.1767
 9352TIP3    H249548   4.630   2.059   0.172 -2.2189  0.8181 -0.1561
 9353TIP3   OH249549   0.883   5.027  13.510  0.2182  0.4868  0.8504
 9353TIP3    H149550   0.884   5.075  13.427 -0.0205  0.8232  1.0365
 9353TIP3    H249551   0.815   4.961  13.500  0.1369  0.5777  0.8067
 9354TIP3   OH249552   5.695   5.666   0.327  0.2905 -0.1191  0.6230
 9354TIP3    H149553   5.667   5.694   0.414  2.1523  0.8699  0.9396
 9354TIP3    H249554   5.676   5.740   0.270  2.0414  0.5129  0.8163
 9355TIP3   OH249555   0.209   5.921  14.611 -0.3140 -0.6864 -0.0280
 9355TIP3    H149556   0.248   5.907  14.525  0.0913 -0.1369  0.0611
 9355TIP3    H249557   0.198   5.834  14.647  1.7064 -0.8152  0.3338
 9356TIP3   OH249558   2.959   0.364  10.418 -0.4092  1.1409 -0.5710
 9356TIP3    H149559   2.963   0.348  10.324 -0.8515 -0.5522 -0.3159
 9356TIP3    H249560   2.956   0.277  10.457 -1.5461  1.8317  0.9491
 9357TIP3   OH249561   2.639   6.221   1.531  0.3384  0.3894  0.0660
 9357TIP3    H149562   2.687   6.162   1.473 -2.0959 -1.2677 -0.3278
 9357TIP3    H249563   2.597   6.285   1.473 -0.9304 -0.4092  0.0829
 9358TIP3   OH249564   3.545   0.843  11.523 -0.1716  0.3121 -0.2174
 9358TIP3    H149565   3.465   0.826  11.473 -0.9276  2.2891  0.2578
 9358TIP3    H249566   3.606   0.881  11.460  0.4504 -1.2792 -0.6011
 9359TIP3   OH249567   2.018   3.486  13.550  0.7396  0.0489 -0.1536
 9359TIP3    H149568   2.008   3.555  13.484  0.1498  0.7564  0.6534
 9359TIP3    H249569   2.032   3.406  13.500 -0.7321  0.4047 -1.1657
 9360TIP3   OH249570   2.889   4.438  11.081  0.2099 -0.6024  0.3033
 9360TIP3    H149571   2.868   4.368  11.143 -0.7046 -0.0677  0.6082
 9360TIP3    H249572   2.827   4.426  11.009 -0.6806  0.5294  0.8558
 9361TIP3   OH249573   6.150   4.342  15.208  0.1344 -0.4087 -0.4428
 9361TIP3    H149574   6.184   4.261  15.170  0.0002 -1.0139  0.6905
 9361TIP3    H249575   6.067   4.357  15.163 -0.0249 -1.1159 -0.3867
 9362TIP3   OH249576   1.948   5.355   2.024 -0.1639 -0.4257  0.5833
 9362TIP3    H149577   1.898   5.392   2.096 -0.9509 -0.7488  0.2023
 9362TIP3    H249578   1.918   5.403   1.946 -1.6328 -2.2344 -0.0166
 9363TIP3   OH249579   4.353   6.406  12.437  0.6407  0.0266  0.5231
 9363TIP3    H149580   4.299   6.439  12.365  1.0948 -1.1810 -0.3954
 9363TIP3    H249581   4.391   6.484  12.476 -0.3450  0.7687  0.0447
 9364TIP3   OH249582   5.195   5.329  15.188  0.2741  0.4226  0.7099
 9364TIP3    H149583   5.149   5.389  15.247 -0.3311 -0.1563  0.8218
 9364TIP3    H249584   5.277   5.375  15.168 -1.2636  2.4754 -1.2442
 9365TIP3   OH249585   5.152   6.479  15.192 -0.5846 -0.3094  0.2345
 9365TIP3    H149586   5.093   6.548  15.221  0.5553  1.3359 -1.1939
 9365TIP3    H249587   5.099   6.400  15.190 -3.1524  1.3695 -2.3740
 9366TIP3   OH249588   2.276   0.806  12.586  0.7505  0.2805 -0.0265
 9366TIP3    H149589   2.363   0.835  12.611  1.9318 -2.1301 -1.1395
 9366TIP3    H249590   2.261   0.727  12.638 -0.3545  0.1597 -0.5110
 9367TIP3   OH249591   2.655   6.217  10.331 -1.2865  0.4371 -0.7460
 9367TIP3    H149592   2.670   6.147  10.395  2.0552  1.2677 -0.5189
 9367TIP3    H249593   2.578   6.263  10.364  0.8242  1.3528  3.2554
 9368TIP3   OH249594   0.147   5.747  10.631 -0.3192  0.3061  0.0055
 9368TIP3    H149595   0.191   5.664  10.652 -1.8170 -0.9510 -1.6437
 9368TIP3    H249596   0.098   5.770  10.710 -1.9755 -1.7681 -0.3782
 9369TIP3   OH249597   3.228   4.389  12.315  0.4264 -0.2838  0.2714
 9369TIP3    H149598   3.260   4.299  12.308  1.7519  0.1366  0.7584
 9369TIP3    H249599   3.162   4.396  12.246  0.5831 -1.5227 -0.0174
 9370TIP3   OH249600   6.020   0.733  13.759  0.7442 -0.2105  0.4812
 9370TIP3    H149601   6.017   0.815  13.809 -0.9557  0.6572 -0.9907
 9370TIP3    H249602   6.108   0.698  13.775  1.2487  1.5490  1.6730
 9371TIP3   OH249603   3.352   5.124  12.957  0.5999 -0.7208  0.4880
 9371TIP3    H149604   3.381   5.071  12.882  2.2244 -2.4247  2.2570
 9371TIP3    H249605   3.263   5.095  12.974 -0.5013  1.0679 -1.9643
 9372TIP3   OH249606   2.145   6.335  11.541  0.3266 -0.0528 -0.5110
 9372TIP3    H149607   2.142   6.344  11.446  1.2770  1.0056 -0.4385
 9372TIP3    H249608   2.156   6.241  11.555 -2.9723 -0.6473 -1.3661
 9373TIP3   OH249609   2.080   4.227  10.392  0.3025 -0.0965  0.2848
 9373TIP3    H149610   2.082   4.151  10.450  2.7739 -0.8061 -0.6805
 9373TIP3    H249611   2.095   4.191  10.304  0.8682  1.4129 -0.2574
 9374TIP3   OH249612   7.046   0.895  15.293 -0.7785  0.2895  0.2373
 9374TIP3    H149613   7.124   0.930  15.251 -0.3198  0.2530  1.0383
 9374TIP3    H249614   7.036   0.948  15.372 -1.2314 -0.0823  0.4304
 9375TIP3   OH249615   5.516   4.383   1.341  0.3800 -0.1190 -0.0255
 9375TIP3    H149616   5.525   4.447   1.270 -0.3314  0.5939  0.5190
 9375TIP3    H249617   5.427   4.349   1.333 -0.3200  1.2511  1.5715
 9376TIP3   OH249618   2.083   3.442   0.194  0.2157  0.4542 -0.3702
 9376TIP3    H149619   2.026   3.517   0.210  0.3355  0.5680 -0.4700
 9376TIP3    H249620   2.030   3.380   0.145  0.8959  1.5562 -2.5402
 9377TIP3   OH249621   5.940   6.511  13.665 -0.4022 -0.3063 -0.3229
 9377TIP3    H149622   5.934   6.579  13.732  1.1616 -2.5044  2.1584
 9377TIP3    H249623   6.019   6.462  13.688 -0.3468 -1.7138 -3.2514
 9378TIP3   OH249624   5.735   3.920  15.036  0.4373 -0.5817 -0.2861
 9378TIP3    H149625   5.742   3.914  14.941 -0.1622  1.2083 -0.4596
 9378TIP3    H249626   5.757   3.832  15.067  0.7429 -1.1562 -2.0639
 9379TIP3   OH249627   4.924   1.588  13.413 -0.0023  0.1371  0.5744
 9379TIP3    H149628   4.839   1.632  13.402  0.0727  0.4995  1.4020
 9379TIP3    H249629   4.978   1.653  13.459  0.5590 -0.2890  0.5137
 9380TIP3   OH249630   6.355   5.812  12.043 -0.6258  0.4996 -0.5568
 9380TIP3    H149631   6.378   5.893  12.089  0.6808  0.2453 -0.7398
 9380TIP3    H249632   6.353   5.745  12.112  0.5755  0.2632 -0.7403
 9381TIP3   OH249633   0.036   1.474  14.625 -0.2753  0.7972 -0.9298
 9381TIP3    H149634   0.037   1.563  14.660  0.3886  0.0820  0.9576
 9381TIP3    H249635   0.128   1.455  14.607 -0.1935 -0.1488  0.4233
 9382TIP3   OH249636   6.140   1.759  14.044 -0.3755  0.3100  0.5839
 9382TIP3    H149637   6.069   1.735  13.985  1.5288 -2.7193 -0.6104
 9382TIP3    H249638   6.171   1.844  14.011 -0.1632 -0.7370 -2.0211
 9383TIP3   OH249639   0.123   2.076  13.721 -0.1261 -0.1608 -0.4160
 9383TIP3    H149640   0.186   2.003  13.727 -0.9759 -0.8569  0.1498
 9383TIP3    H249641   0.044   2.043  13.763 -2.1316 -0.6229 -4.2897
 9384TIP3   OH249642   1.574   4.342  12.085  0.0809  0.3013 -0.2103
 9384TIP3    H149643   1.609   4.275  12.025 -0.3765 -0.6119  0.5347
 9384TIP3    H249644   1.645   4.357  12.147  0.5801  1.2968 -1.0023
 9385TIP3   OH249645   6.028   2.991  13.416  0.2616  0.4723  0.2593
 9385TIP3    H149646   6.042   2.897  13.428 -0.7369  0.4206  1.0201
 9385TIP3    H249647   6.115   3.030  13.430  0.9382 -0.4290 -1.2180
 9386TIP3   OH249648   5.810   2.618  15.478 -0.1720  0.1511 -0.3535
 9386TIP3    H149649   5.831   2.693  15.534 -0.4817  0.1638 -0.2493
 9386TIP3    H249650   5.818   2.651  15.389 -0.7601  0.4432 -0.3063
 9387TIP3   OH249651   5.435   6.200  15.127 -1.2764  0.3501 -0.0166
 9387TIP3    H149652   5.457   6.165  15.214 -1.5918  0.1001 -0.0392
 9387TIP3    H249653   5.517   6.240  15.097 -1.1640  0.4344  0.3930
 9388TIP3   OH249654   1.422   1.682  13.352 -0.3403 -0.2623 -0.2555
 9388TIP3    H149655   1.356   1.647  13.411 -1.4314 -0.2621 -1.4556
 9388TIP3    H249656   1.474   1.742  13.406 -0.0045 -1.8293  1.1991
 9389TIP3   OH249657   0.593   5.212   0.585  0.0725  0.2867 -0.1297
 9389TIP3    H149658   0.623   5.156   0.657 -1.6685 -0.3498  0.1036
 9389TIP3    H249659   0.674   5.247   0.547  1.0460 -0.1078  1.5407
 9390TIP3   OH249660   6.106   4.076  13.359 -0.1664 -0.0598 -0.1043
 9390TIP3    H149661   6.197   4.072  13.390  0.3045 -0.1890 -1.4548
 9390TIP3    H249662   6.058   4.115  13.431  1.0093  0.2129  0.5495
 9391TIP3   OH249663   3.766   5.350   1.726 -0.1900  0.6592 -0.4438
 9391TIP3    H149664   3.793   5.356   1.634  0.8337 -2.0269 -0.3736
 9391TIP3    H249665   3.844   5.372   1.776 -0.2190  0.2933 -0.2314
 9392TIP3   OH249666   0.753   2.605   2.921  0.3079  0.1031  0.7244
 9392TIP3    H149667   0.682   2.577   2.977 -1.5355  2.7136 -0.2008
 9392TIP3    H249668   0.740   2.557   2.839 -0.4824  0.6585  0.5189
 9393TIP3   OH249669   2.980   3.550  14.716 -0.2033 -0.2636 -0.0981
 9393TIP3    H149670   2.899   3.536  14.667  0.3067 -0.0383 -1.0221
 9393TIP3    H249671   3.021   3.625  14.674  0.2203 -0.0268  0.7168
 9394TIP3   OH249672   6.005   6.979  12.008 -0.2271  0.1239  0.2340
 9394TIP3    H149673   6.024   6.888  11.984 -0.0913  0.0120  0.7453
 9394TIP3    H249674   6.065   7.031  11.955  0.0796 -0.1194  0.3368
 9395TIP3   OH249675   6.141   2.750  11.941  0.0248 -0.3722  0.2373
 9395TIP3    H149676   6.073   2.818  11.945 -0.1898 -0.5620 -0.1181
 9395TIP3    H249677   6.098   2.671  11.973  0.0864 -0.4886  0.0312
 9396TIP3   OH249678   2.890   0.522  13.250 -0.3099 -0.3753  0.3068
 9396TIP3    H149679   2.863   0.442  13.295  1.3683 -1.0740  0.1188
 9396TIP3    H249680   2.972   0.547  13.292 -0.5511  0.9720  0.0179
 9397TIP3   OH249681   2.132   1.949  13.094  0.4919  0.2984  0.4072
 9397TIP3    H149682   2.154   1.917  13.007 -1.5834  2.1009 -0.8330
 9397TIP3    H249683   2.193   1.904  13.152  0.0436 -3.0940 -1.6352
 9398TIP3   OH249684   2.747   2.993  14.567 -0.4331 -0.0448  0.3848
 9398TIP3    H149685   2.683   3.061  14.587  1.0098  1.1563  1.0142
 9398TIP3    H249686   2.832   3.038  14.572  0.3581 -1.1086 -2.4485
 9399TIP3   OH249687   0.215   6.248  13.949  0.3047 -0.0292  0.5802
 9399TIP3    H149688   0.212   6.210  13.861 -0.0124  0.3427  0.4289
 9399TIP3    H249689   0.198   6.341  13.936 -2.1498 -0.3587  1.2740
 9400TIP3   OH249690   6.828   5.078  10.384  0.3654 -0.3659 -0.6824
 9400TIP3    H149691   6.740   5.062  10.419  0.7654  0.3425  0.7208
 9400TIP3    H249692   6.840   5.013  10.315 -1.1806 -0.6029 -0.7355
 9401TIP3   OH249693   6.402   3.663   0.095 -0.2643  0.4461 -0.2150
 9401TIP3    H149694   6.450   3.636   0.017 -1.2250 -0.5816 -0.4641
 9401TIP3    H249695   6.356   3.743   0.068 -0.8575 -0.0892 -0.8083
 9402TIP3   OH249696   0.454   6.481  14.280  0.0113 -0.0564 -0.5200
 9402TIP3    H149697   0.448   6.559  14.224 -1.9157  0.4040  0.3113
 9402TIP3    H249698   0.438   6.514  14.368  0.9334 -1.1294  0.0530
 9403TIP3   OH249699   5.327   0.620  15.210  0.0706 -0.7934  0.1616
 9403TIP3    H149700   5.335   0.563  15.134 -1.4257 -2.1033  0.9480
 9403TIP3    H249701   5.415   0.625  15.247  0.6439 -0.7674 -1.1949
 9404TIP3   OH249702   2.698   2.042   1.840  0.0595  0.3718  0.1335
 9404TIP3    H149703   2.726   1.955   1.868 -0.2211 -0.0346 -0.8297
 9404TIP3    H249704   2.633   2.068   1.905 -0.7187 -0.6327 -0.2291
 9405TIP3   OH249705   0.323   6.540   2.316  0.2266  0.3244  0.5233
 9405TIP3    H149706   0.257   6.512   2.379  1.4318 -0.0334  1.6579
 9405TIP3    H249707   0.373   6.461   2.297  0.6177  0.6863  0.0179
 9406TIP3   OH249708   4.325   5.590   1.861 -0.0805 -0.6551 -0.1494
 9406TIP3    H149709   4.398   5.588   1.799  0.2091 -1.3414  0.1992
 9406TIP3    H249710   4.339   5.512   1.915  0.0047  0.2656  1.1615
 9407TIP3   OH249711   3.139   0.979  14.973  0.2907  0.1586 -0.6139
 9407TIP3    H149712   3.045   0.957  14.971  0.0417  0.9071  1.2871
 9407TIP3    H249713   3.182   0.895  14.992 -0.0479 -0.0953 -0.9654
 9408TIP3   OH249714   0.477   3.762  15.175 -0.1919 -0.5858  0.3046
 9408TIP3    H149715   0.567   3.790  15.159 -0.9747  1.8955 -0.0341
 9408TIP3    H249716   0.429   3.790  15.096 -1.4846 -0.7380  1.0192
 9409TIP3   OH249717   4.763   3.327  13.245  0.1223 -0.4305 -0.1288
 9409TIP3    H149718   4.735   3.336  13.154 -0.1023 -2.6588 -0.3007
 9409TIP3    H249719   4.732   3.241  13.272  1.8007 -0.5773  1.4688
 9410TIP3   OH249720   4.882   1.972   0.618  0.1218  0.1679 -0.4902
 9410TIP3    H149721   4.961   2.003   0.663  1.4226 -2.6967 -0.7069
 9410TIP3    H249722   4.916   1.931   0.538 -1.6189 -0.9332 -0.6669
 9411TIP3   OH249723   3.677   5.930   0.823  1.2431 -0.1035 -0.2243
 9411TIP3    H149724   3.673   5.840   0.791  1.4438 -0.3827  0.5294
 9411TIP3    H249725   3.750   5.930   0.885  1.1300  0.5347 -0.0925
 9412TIP3   OH249726   2.727   5.048  11.134 -0.4208  0.1424  0.7134
 9412TIP3    H149727   2.752   5.069  11.224 -0.4240 -2.1183  1.2659
 9412TIP3    H249728   2.736   4.953  11.128 -1.5181  0.1412 -1.3435
 9413TIP3   OH249729   0.177   5.583   0.750 -0.1479  0.3902 -0.1474
 9413TIP3    H149730   0.109   5.532   0.706 -0.4861  0.4333  0.3164
 9413TIP3    H249731   0.129   5.635   0.814  0.4493 -0.4859  1.0285
 9414TIP3   OH249732   0.174   2.640   1.202 -0.6855  0.0847 -0.0571
 9414TIP3    H149733   0.144   2.645   1.293 -1.2961 -1.3582 -0.1642
 9414TIP3    H249734   0.183   2.731   1.174 -0.0829  0.5361  1.5797
 9415TIP3   OH249735   1.602   2.390   4.223 -0.1781  0.1368 -0.4376
 9415TIP3    H149736   1.548   2.316   4.197  0.9962 -0.3612 -1.4749
 9415TIP3    H249737   1.565   2.465   4.177  0.3037 -0.2940 -1.5488
 9416TIP3   OH249738   4.634   6.258  13.552  0.2442  0.1966  0.1584
 9416TIP3    H149739   4.550   6.250  13.506 -0.2982  1.3017  0.9366
 9416TIP3    H249740   4.624   6.335  13.607  2.0588  0.8005 -0.3134
 9417TIP3   OH249741   5.988   5.656  13.892  0.1373  0.3489  0.8472
 9417TIP3    H149742   5.903   5.694  13.917  1.0332  2.1804  1.1727
 9417TIP3    H249743   6.041   5.661  13.971  1.3230  1.4155  0.0026
 9418TIP3   OH249744   6.087   0.665  14.158 -0.9118 -0.1729 -0.0388
 9418TIP3    H149745   6.030   0.697  14.088 -0.9380 -1.3055 -0.5480
 9418TIP3    H249746   6.171   0.708  14.142 -1.0036 -0.1913 -0.5837
 9419TIP3   OH249747   4.824   1.379  12.703 -0.5878  0.3740 -0.1581
 9419TIP3    H149748   4.872   1.340  12.631  3.7234  1.4992  1.9415
 9419TIP3    H249749   4.847   1.325  12.779 -3.7205  0.1912  0.7110
 9420TIP3   OH249750   4.580   6.242  15.493  0.2598 -0.3740 -0.2786
 9420TIP3    H149751   4.642   6.315  15.488  1.4540 -1.3875 -0.5910
 9420TIP3    H249752   4.612   6.189  15.566 -0.7676 -0.4408  0.1222
 9421TIP3   OH249753   2.175   5.547   0.095  0.5035 -0.0009  0.2501
 9421TIP3    H149754   2.137   5.509   0.016 -1.7821  1.0094  0.8162
 9421TIP3    H249755   2.171   5.476   0.159 -0.7604  0.1850  0.3923
 9422TIP3   OH249756   2.294   1.227  11.887 -1.0577  0.5117 -0.2956
 9422TIP3    H149757   2.298   1.319  11.862  1.4254  0.3725 -0.4653
 9422TIP3    H249758   2.281   1.180  11.804  1.9604  0.4215 -0.7416
 9423TIP3   OH249759   4.884   3.974   0.478  0.5996 -0.0884 -0.5494
 9423TIP3    H149760   4.952   4.016   0.531  2.1662 -2.4353 -0.5993
 9423TIP3    H249761   4.844   4.046   0.428  1.7947  1.5934  0.8513
 9424TIP3   OH249762   6.638   6.355   2.314 -0.4851  0.3938 -0.9445
 9424TIP3    H149763   6.706   6.407   2.358 -1.7242  0.3399  1.0765
 9424TIP3    H249764   6.587   6.419   2.264  0.5964  0.5254 -1.9049
 9425TIP3   OH249765   4.438   3.213  11.079  0.0880 -0.1831  0.6946
 9425TIP3    H149766   4.505   3.174  11.135 -1.3232 -1.6516  1.3984
 9425TIP3    H249767   4.409   3.291  11.126  2.0439  1.0634 -0.1226
 9426TIP3   OH249768   0.336   4.441  11.742 -0.3668 -0.2698  0.0729
 9426TIP3    H149769   0.322   4.357  11.697  0.3619 -0.2867 -0.1270
 9426TIP3    H249770   0.248   4.467  11.771 -0.4649 -1.6300  1.0778
 9427TIP3   OH249771   1.714   0.961   0.744  0.0176  0.0860  0.1103
 9427TIP3    H149772   1.772   1.036   0.733 -0.7397  0.5847 -0.4736
 9427TIP3    H249773   1.730   0.932   0.834  0.9368  0.4087  0.0625
 9428TIP3   OH249774   1.203   1.298  14.552 -0.0483  0.3055 -0.1890
 9428TIP3    H149775   1.136   1.297  14.620 -1.1310  0.6163 -1.2394
 9428TIP3    H249776   1.282   1.266  14.595 -0.5414  1.1984  1.4015
 9429TIP3   OH249777   0.515   0.782  14.693 -0.0947  0.6182  0.2170
 9429TIP3    H149778   0.563   0.728  14.631 -0.8173 -0.6243  0.7302
 9429TIP3    H249779   0.452   0.830  14.639 -2.4074 -2.2763  0.2068
 9430TIP3   OH249780   1.195   1.108  14.898 -0.1974  0.2655  0.4591
 9430TIP3    H149781   1.225   1.199  14.891  0.4852  0.2753  2.9205
 9430TIP3    H249782   1.275   1.056  14.899 -0.4345 -0.1065  2.0199
 9431TIP3   OH249783   4.666   5.204  13.448 -0.4941  0.4009  0.2976
 9431TIP3    H149784   4.644   5.115  13.420  0.1121  0.2221  0.3987
 9431TIP3    H249785   4.699   5.194  13.537  1.2285  0.5255 -0.3131
 9432TIP3   OH249786   5.122   4.755  12.220  0.1755 -0.1350  0.0515
 9432TIP3    H149787   5.202   4.804  12.201  0.2296 -0.8358 -1.6788
 9432TIP3    H249788   5.123   4.743  12.314  2.0040  0.0534  0.0824
 9433TIP3   OH249789   4.471   3.813  14.215 -0.2126  0.1041 -0.1647
 9433TIP3    H149790   4.446   3.727  14.180  2.4232 -0.8751  0.2065
 9433TIP3    H249791   4.536   3.846  14.153  0.1636  0.9897  0.6953
 9434TIP3   OH249792   6.919   1.583   1.804  0.3548 -0.2495  0.9953
 9434TIP3    H149793   6.831   1.616   1.827  0.4777  0.8386 -0.0181
 9434TIP3    H249794   6.943   1.633   1.725  0.7531 -2.4787 -0.3341
 9435TIP3   OH249795   0.902   3.982   0.476 -0.6638  0.0227  0.2100
 9435TIP3    H149796   0.995   4.001   0.484 -0.7836  0.7765 -0.0846
 9435TIP3    H249797   0.898   3.903   0.424 -0.1948  0.1458 -0.0161
 9436TIP3   OH249798   1.799   6.263   0.719  0.0617  0.1225  0.2714
 9436TIP3    H149799   1.891   6.280   0.699 -0.4044 -0.1620 -2.3774
 9436TIP3    H249800   1.753   6.282   0.637 -2.3939  1.3295  1.8626
 9437TIP3   OH249801   5.600   1.234   1.273 -0.4270 -0.1346 -0.1249
 9437TIP3    H149802   5.647   1.291   1.211 -1.2287 -1.0160 -1.5452
 9437TIP3    H249803   5.660   1.160   1.287  0.1417  0.4978  0.8750
 9438TIP3   OH249804   0.636   6.541  14.762 -0.4467  0.3565 -0.0758
 9438TIP3    H149805   0.725   6.576  14.765 -0.2471 -0.2044  1.0846
 9438TIP3    H249806   0.619   6.525  14.669  0.0914  1.8857 -0.4473
 9439TIP3   OH249807   6.863   0.105   1.485 -0.0667 -0.7790 -0.1184
 9439TIP3    H149808   6.921   0.055   1.427  2.6649  1.2407  0.7696
 9439TIP3    H249809   6.922   0.158   1.538 -2.7272  0.7995  1.3842
 9440TIP3   OH249810   1.908   0.119  12.558 -0.7434 -0.0236 -0.5176
 9440TIP3    H149811   1.979   0.058  12.534 -1.3681 -0.2020 -1.9749
 9440TIP3    H249812   1.943   0.169  12.631 -0.4793 -2.6340  1.2022
 9441TIP3   OH249813   3.881   0.291  10.892 -0.1843  0.6015  0.9060
 9441TIP3    H149814   3.915   0.271  10.980  1.0027  0.8491  0.5157
 9441TIP3    H249815   3.901   0.212  10.841  1.5565  1.4887  0.1898
 9442TIP3   OH249816   6.032   6.118  13.778  0.0405  0.0002  0.9097
 9442TIP3    H149817   5.957   6.164  13.815 -0.5687  0.9915 -1.4764
 9442TIP3    H249818   6.088   6.099  13.854 -1.9808  0.3890  2.5538
 9443TIP3   OH249819   5.160   1.415  15.555 -0.6122  0.1246 -0.3996
 9443TIP3    H149820   5.230   1.436  15.493 -1.8406  1.0274 -1.5141
 9443TIP3    H249821   5.105   1.352  15.509  0.1025 -1.5294  0.9311
 9444TIP3   OH249822   3.892   0.752  10.554 -0.3206  0.2152  0.6449
 9444TIP3    H149823   3.837   0.706  10.491  1.0911 -1.4541  0.5807
 9444TIP3    H249824   3.879   0.704  10.636  0.6746  0.1077  0.7388
 9445TIP3   OH249825   6.730   6.016  15.127 -0.2218  0.2607  0.4833
 9445TIP3    H149826   6.674   5.983  15.197  0.8453  0.2117  1.3393
 9445TIP3    H249827   6.796   6.068  15.173  2.6700 -2.7469 -0.0507
 9446TIP3   OH249828   5.746   2.224  13.471  0.6175  0.2371 -0.1868
 9446TIP3    H149829   5.708   2.136  13.478 -0.7493  0.8413  0.0288
 9446TIP3    H249830   5.689   2.270  13.410  0.8391  1.2538  0.3717
 9447TIP3   OH249831   1.895   5.676  12.189  0.6840  0.8795 -0.2790
 9447TIP3    H149832   1.874   5.717  12.106  1.6042 -0.3049 -1.1207
 9447TIP3    H249833   1.860   5.587  12.181 -2.0859  1.7115  1.8499
 9448TIP3   OH249834   4.041   6.850   0.960 -0.4756 -0.6595  0.0729
 9448TIP3    H149835   4.028   6.938   0.994 -0.1730 -0.1922 -1.0112
 9448TIP3    H249836   4.116   6.816   1.009 -1.1959 -0.6850  1.1781
 9449TIP3   OH249837   3.969   5.160   0.135 -0.0192 -0.4169  0.2684
 9449TIP3    H149838   4.039   5.224   0.124  0.3058 -0.6320  1.0040
 9449TIP3    H249839   4.012   5.083   0.172 -0.6531 -0.5066  0.8481
 9450TIP3   OH249840   4.683   3.878  13.707  0.8116  0.5051  0.1390
 9450TIP3    H149841   4.639   3.798  13.736 -1.0688  0.6928 -2.1070
 9450TIP3    H249842   4.685   3.871  13.612 -0.7515  3.8484 -0.1786
 9451TIP3   OH249843   2.958   5.373  14.108 -0.2738 -0.4651  0.2461
 9451TIP3    H149844   3.000   5.303  14.158  0.7888 -0.4768 -0.6384
 9451TIP3    H249845   2.964   5.450  14.165 -1.1955 -1.0231  1.1057
 9452TIP3   OH249846   5.820   0.283  15.143  0.0044  0.3347  0.2655
 9452TIP3    H149847   5.888   0.216  15.133 -0.5998 -0.0922 -1.1664
 9452TIP3    H249848   5.770   0.255  15.219  1.3255  0.5732  1.2434
 9453TIP3   OH249849   3.564   4.063   2.926 -0.1720 -0.1316 -0.3653
 9453TIP3    H149850   3.638   4.065   2.866  0.0813 -0.8633 -0.0875
 9453TIP3    H249851   3.499   4.008   2.883  0.3675 -1.3968  0.4315
 9454TIP3   OH249852   0.380   7.064  14.725 -0.3187 -0.0183  0.1162
 9454TIP3    H149853   0.359   6.980  14.765 -1.7744 -0.1406 -0.8672
 9454TIP3    H249854   0.354   7.129  14.790 -0.3397 -0.2972  0.3847
 9455TIP3   OH249855   0.190   4.775  10.466  0.2304 -0.1158 -0.6240
 9455TIP3    H149856   0.284   4.757  10.471  0.2654 -0.2502 -1.7116
 9455TIP3    H249857   0.178   4.821  10.383 -0.4163  1.5790  0.3862
 9456TIP3   OH249858   5.725   5.958   2.096  0.0920 -0.2597  0.5690
 9456TIP3    H149859   5.771   6.001   2.168  1.8537 -0.9196 -0.1316
 9456TIP3    H249860   5.637   5.997   2.097  0.6090  0.9330  2.0124
 9457TIP3   OH249861   2.725   3.882  15.059 -0.1538  0.0205 -0.4780
 9457TIP3    H149862   2.722   3.928  14.975  2.7858 -1.5217 -1.5231
 9457TIP3    H249863   2.694   3.794  15.039 -0.3895 -0.0610  0.2560
 9458TIP3   OH249864   6.050   4.546  13.991  0.0024  0.6069 -0.2515
 9458TIP3    H149865   6.041   4.616  14.056  1.7673  0.6936 -0.0676
 9458TIP3    H249866   6.119   4.577  13.932 -0.2985 -0.2979 -1.0930
 9459TIP3   OH249867   2.554   5.133   0.717 -0.3092  0.3922 -0.0838
 9459TIP3    H149868   2.459   5.120   0.708 -0.3923 -0.1715  1.4118
 9459TIP3    H249869   2.583   5.060   0.772  0.9931  0.5729 -0.5198
 9460TIP3   OH249870   2.182   4.881  12.742  0.3528 -0.5037  0.1180
 9460TIP3    H149871   2.203   4.899  12.834  0.0586  0.8496 -0.0741
 9460TIP3    H249872   2.215   4.792  12.727  0.8653 -0.5379  1.3878
 9461TIP3   OH249873   5.013   5.886  14.576 -0.4395 -0.2916  0.1843
 9461TIP3    H149874   5.036   5.961  14.631 -0.8862 -0.6270  0.8355
 9461TIP3    H249875   4.933   5.852  14.614 -0.2543 -1.0851 -0.1287
 9462TIP3   OH249876   5.440   1.238  12.132  0.2428 -0.6459  0.9417
 9462TIP3    H149877   5.494   1.309  12.097 -1.3664  0.3850  0.4261
 9462TIP3    H249878   5.375   1.222  12.063 -2.1007  0.4274  2.8167
 9463TIP3   OH249879   1.544   3.589  12.858  0.1379 -0.7706  0.3266
 9463TIP3    H149880   1.619   3.594  12.917  1.4125  0.4019 -1.3541
 9463TIP3    H249881   1.538   3.676  12.818 -1.7989 -1.0006  0.0378
 9464TIP3   OH249882   6.314   5.737   1.720  0.2802 -0.5591 -0.0810
 9464TIP3    H149883   6.226   5.734   1.685 -0.0619  0.4156  0.6856
 9464TIP3    H249884   6.302   5.748   1.814  1.2107 -0.9100  0.0838
 9465TIP3   OH249885   0.935   1.176  12.620 -0.0801 -0.1274 -0.2048
 9465TIP3    H149886   1.010   1.118  12.632 -0.4338 -0.2878  1.3868
 9465TIP3    H249887   0.885   1.167  12.701 -1.2828  0.7531 -0.8342
 9466TIP3   OH249888   4.012   6.929  12.861 -0.8567  0.0443 -0.4053
 9466TIP3    H149889   3.918   6.913  12.861 -0.6357 -1.3811  1.5530
 9466TIP3    H249890   4.025   7.002  12.921 -0.7791  0.6812 -1.1941
 9467TIP3   OH249891   2.457   6.056   0.556 -0.4699  0.0145 -0.2863
 9467TIP3    H149892   2.445   6.137   0.605  1.1449 -0.2486  0.5723
 9467TIP3    H249893   2.495   6.083   0.473 -0.0990  0.1608 -0.0701
 9468TIP3   OH249894   5.373   6.374  10.519 -0.1787 -0.1027  0.0185
 9468TIP3    H149895   5.355   6.466  10.500  0.0374 -0.5275 -2.4293
 9468TIP3    H249896   5.287   6.332  10.524 -0.4542  0.7256  4.2347
 9469TIP3   OH249897   3.758   5.050   0.002 -0.5940 -0.1006 -0.0313
 9469TIP3    H149898   3.830   5.096   0.045  0.0801  0.9023 -2.1278
 9469TIP3    H249899   3.751   4.967   0.048  1.6403 -0.0424  0.4929
 9470TIP3   OH249900   6.348   3.010   0.928  0.2350  0.5632  0.5206
 9470TIP3    H149901   6.298   2.953   0.868  0.2779  0.6502  0.4014
 9470TIP3    H249902   6.437   3.006   0.895 -0.2431  2.9059 -1.1875
 9471TIP3   OH249903   4.828   0.260  14.648  0.1340  0.1939 -0.0182
 9471TIP3    H149904   4.763   0.232  14.712 -0.8161 -0.3594 -1.1865
 9471TIP3    H249905   4.901   0.200  14.660 -0.0367  0.1048  0.5654
 9472TIP3   OH249906   6.326   5.378   1.081  0.0486  0.1631  0.4891
 9472TIP3    H149907   6.239   5.407   1.056  0.1863 -1.0350 -1.4493
 9472TIP3    H249908   6.378   5.458   1.085 -1.2499  0.9500  2.2420
 9473TIP3   OH249909   2.160   3.194  14.892 -0.3378 -0.0984 -0.4800
 9473TIP3    H149910   2.083   3.224  14.940 -0.2882 -0.2704 -0.2909
 9473TIP3    H249911   2.234   3.224  14.944 -0.2486  1.1411 -1.2962
 9474TIP3   OH249912   0.585   3.290  14.002  0.9207 -0.3629 -0.0718
 9474TIP3    H149913   0.571   3.365  13.944  1.0055  0.3319  0.7837
 9474TIP3    H249914   0.680   3.282  14.009  0.9384  1.0961  1.8773
 9475TIP3   OH249915   5.027   5.382  14.393 -0.4499 -0.0514 -0.3606
 9475TIP3    H149916   4.969   5.313  14.425  0.2401 -0.6055 -0.3065
 9475TIP3    H249917   5.015   5.380  14.298 -0.8889  0.1647 -0.3123
 9476TIP3   OH249918   2.741   0.720  13.890 -0.5194  0.2846 -0.1213
 9476TIP3    H149919   2.823   0.768  13.897 -0.2265 -0.4728  2.0844
 9476TIP3    H249920   2.708   0.716  13.979 -1.6761 -1.6308 -0.6009
 9477TIP3   OH249921   5.605   3.291  15.520  0.0316 -0.5409 -0.8167
 9477TIP3    H149922   5.641   3.203  15.515  0.5988 -0.5314  2.4534
 9477TIP3    H249923   5.519   3.280  15.561  0.2923  0.4727  0.0232
 9478TIP3   OH249924   6.330   4.257  15.587 -0.2044 -0.1780  0.1905
 9478TIP3    H149925   6.254   4.313  15.595 -0.9556 -1.2240  0.4525
 9478TIP3    H249926   6.403   4.310  15.621 -0.9986  0.4275  0.9686
 9479TIP3   OH249927   3.256   6.501  15.474 -0.0991 -0.3873 -0.2660
 9479TIP3    H149928   3.301   6.574  15.517  0.4733 -1.1168  0.3946
 9479TIP3    H249929   3.219   6.539  15.395 -1.6688  1.0972  1.1623
 9480TIP3   OH249930   3.798   4.405  13.664 -0.0094  0.2843  0.4431
 9480TIP3    H149931   3.736   4.478  13.661  0.4990  0.6926 -1.0850
 9480TIP3    H249932   3.853   4.418  13.586 -0.2095 -1.9810 -0.1249
 9481TIP3   OH249933   0.665   4.640  10.964 -0.2629 -0.0906  0.1706
 9481TIP3    H149934   0.676   4.699  10.889 -0.6967  0.2161  0.3393
 9481TIP3    H249935   0.661   4.699  11.040 -0.1141 -0.3793  0.4024
 9482TIP3   OH249936   0.484   0.155  13.444 -0.4865 -0.2517 -0.3585
 9482TIP3    H149937   0.400   0.135  13.485  0.0862 -2.7455 -0.3350
 9482TIP3    H249938   0.461   0.187  13.357 -1.4763 -0.8027 -0.3088
 9483TIP3   OH249939   1.839   1.222  12.819  0.8517  0.1322 -0.0220
 9483TIP3    H149940   1.921   1.239  12.772  0.1996 -1.5127 -1.8200
 9483TIP3    H249941   1.856   1.143  12.870  1.1821  1.2573  1.6506
 9484TIP3   OH249942   4.721   3.875  13.419 -0.2890 -0.0053 -0.7402
 9484TIP3    H149943   4.654   3.832  13.366 -0.4177 -0.5945 -0.1093
 9484TIP3    H249944   4.795   3.813  13.419 -0.8394 -0.6931  0.9799
 9485TIP3   OH249945   5.310   6.444   2.908 -0.2031  0.4330 -0.0357
 9485TIP3    H149946   5.223   6.408   2.924  0.4078 -0.7619  0.6686
 9485TIP3    H249947   5.354   6.380   2.853  0.3428  0.8813 -0.1342
 9486TIP3   OH249948   6.630   0.623   2.251  0.0431  0.0005 -0.6951
 9486TIP3    H149949   6.668   0.615   2.339 -0.6576  1.5608 -0.2359
 9486TIP3    H249950   6.707   0.631   2.194  0.4923 -0.4290 -0.1682
 9487TIP3   OH249951   1.618   0.566  11.260 -0.0084 -0.2501  0.0845
 9487TIP3    H149952   1.617   0.473  11.236 -0.8895 -0.8237  2.2584
 9487TIP3    H249953   1.688   0.604  11.207  0.9675 -2.3383 -0.1394
 9488TIP3   OH249954   4.146   2.551  11.788 -0.6237 -0.3619  0.7025
 9488TIP3    H149955   4.073   2.522  11.733 -1.1444  1.3597  0.4398
 9488TIP3    H249956   4.108   2.620  11.842  0.9793  1.0530  0.0562
 9489TIP3   OH249957   0.381   0.038   4.452  0.8922 -0.0252 -0.0763
 9489TIP3    H149958   0.417   0.047   4.540  2.1388  2.0598 -0.7515
 9489TIP3    H249959   0.436  -0.027   4.409  1.1533 -0.0191  0.2495
 9490TIP3   OH249960   1.415   2.124  14.161  0.2701 -0.2389  0.1946
 9490TIP3    H149961   1.444   2.040  14.196  0.2203 -0.3205  0.0410
 9490TIP3    H249962   1.491   2.182  14.170  0.2811 -0.2810  0.3672
 9491TIP3   OH249963   0.424   4.328  10.565  0.1543 -0.3034 -0.1545
 9491TIP3    H149964   0.375   4.372  10.496 -0.6441  0.0252  0.5992
 9491TIP3    H249965   0.433   4.237  10.535 -0.2016 -0.1682 -0.6712
 9492TIP3   OH249966   6.219   1.720  12.120 -0.2976 -0.3301 -0.3987
 9492TIP3    H149967   6.312   1.740  12.133  0.3556 -2.1957 -1.8597
 9492TIP3    H249968   6.200   1.749  12.031 -0.8624 -0.7638 -0.4251
 9493TIP3   OH249969   0.084   1.738  13.986  0.8191 -0.0639 -0.2855
 9493TIP3    H149970   0.171   1.777  13.993  0.6518  0.0911  1.1805
 9493TIP3    H249971   0.055   1.729  14.077 -0.4474 -0.6730 -0.7406
 9494TIP3   OH249972   2.896   5.348  10.906  0.0738 -0.0860 -0.7836
 9494TIP3    H149973   2.982   5.331  10.868 -0.5741 -1.5779 -1.6246
 9494TIP3    H249974   2.845   5.387  10.834  0.3091  1.7113 -0.0182
 9495TIP3   OH249975   1.996   6.795  12.492 -0.2654 -0.6365 -0.9864
 9495TIP3    H149976   1.986   6.858  12.421  0.9850  1.0809  0.3097
 9495TIP3    H249977   2.091   6.786  12.503 -0.4312 -0.6549  0.6251
 9496TIP3   OH249978   3.793   0.594  12.707  0.1747 -0.7698  0.1954
 9496TIP3    H149979   3.838   0.541  12.641 -0.3178 -0.5586 -0.3159
 9496TIP3    H249980   3.855   0.601  12.779  1.2608  0.1285 -0.8064
 9497TIP3   OH249981   6.975   0.769  14.214  1.0611 -0.0863  0.3019
 9497TIP3    H149982   6.918   0.821  14.271 -0.3171  0.6217 -1.6929
 9497TIP3    H249983   7.045   0.829  14.189  0.6493  0.1547 -0.2630
 9498TIP3   OH249984   0.153   5.834  14.205 -0.3901  0.0333  0.0441
 9498TIP3    H149985   0.097   5.782  14.147 -0.7674 -0.2214  0.6387
 9498TIP3    H249986   0.191   5.901  14.148  2.2328 -2.5386 -1.3419
 9499TIP3   OH249987   2.949   7.168  14.930 -0.1596  0.2080  0.5386
 9499TIP3    H149988   2.855   7.155  14.917 -0.2551  1.1906  0.2731
 9499TIP3    H249989   2.956   7.250  14.979  0.5292 -0.1904  1.1330
 9500TIP3   OH249990   4.660   0.640  11.037  0.1875  0.1181 -0.1111
 9500TIP3    H149991   4.643   0.569  10.975 -0.8502  1.5132 -1.4385
 9500TIP3    H249992   4.584   0.640  11.095  0.4174 -0.1581  0.1940
 9501TIP3   OH249993   0.240   5.625   0.190 -0.0147 -0.3354  0.5295
 9501TIP3    H149994   0.217   5.541   0.231 -0.6372 -0.2223  0.4035
 9501TIP3    H249995   0.336   5.625   0.189  0.0137 -0.4707  1.7359
 9502TIP3   OH249996   3.427   6.721  10.773  0.5199  0.3394 -0.3001
 9502TIP3    H149997   3.395   6.632  10.780  1.0145  0.0700 -1.3956
 9502TIP3    H249998   3.396   6.752  10.688 -2.7070  2.4710  1.5158
 9503TIP3   OH249999   0.655   5.773  14.920 -0.2389 -0.2573 -0.2199
 9503TIP3    H150000   0.725   5.835  14.898 -0.6432 -0.1835 -1.3051
 9503TIP3    H250001   0.576   5.827  14.924 -0.8701 -0.9296 -2.7482
 9504TIP3   OH250002   5.902   4.411  15.097  0.8060  0.1473 -0.1105
 9504TIP3    H150003   5.861   4.429  15.181  3.4816  0.3654  1.2110
 9504TIP3    H250004   5.933   4.497  15.067  3.4335 -0.4707  0.6837
 9505TIP3   OH250005   5.579   6.006   0.486  0.6363 -0.0365  0.1642
 9505TIP3    H150006   5.562   6.018   0.392  2.2546 -2.2427 -0.4704
 9505TIP3    H250007   5.675   6.012   0.493  0.6612 -1.5723  1.3858
 9506TIP3   OH250008   5.886   1.072  12.277 -0.3070  0.2519 -0.0197
 9506TIP3    H150009   5.794   1.084  12.303 -0.1097  3.8254 -0.8061
 9506TIP3    H250010   5.882   1.064  12.181  0.3345  1.9145 -0.1880
 9507TIP3   OH250011   0.585   4.223   1.510 -0.3634 -0.1540 -0.4629
 9507TIP3    H150012   0.596   4.130   1.533 -1.0351 -0.2038 -0.3085
 9507TIP3    H250013   0.625   4.231   1.424 -0.3357 -0.6035 -0.4967
 9508TIP3   OH250014   4.134   5.283  13.308 -0.1040  0.0315  0.0641
 9508TIP3    H150015   4.198   5.321  13.369  0.9210  0.3014 -1.1558
 9508TIP3    H250016   4.115   5.197  13.345 -0.2666  0.5872  1.3114
 9509TIP3   OH250017   4.686   5.038   0.273  0.1928  0.3285  0.1029
 9509TIP3    H150018   4.606   5.026   0.325  1.2695 -0.6904  1.5359
 9509TIP3    H250019   4.663   5.004   0.187 -0.5456 -1.0929  0.8480
 9510TIP3   OH250020   2.685   5.646  14.232  0.1103 -0.1827  0.5202
 9510TIP3    H150021   2.699   5.686  14.318 -1.9639  2.3210 -0.2338
 9510TIP3    H250022   2.739   5.697  14.172 -0.6701 -0.0313 -0.0736
 9511TIP3   OH250023   4.497   4.059  11.823 -0.2167  0.4126  0.3232
 9511TIP3    H150024   4.523   4.027  11.910 -0.8524 -1.1109 -0.0350
 9511TIP3    H250025   4.541   4.001  11.762 -0.1017  1.2347 -0.3887
 9512TIP3   OH250026   5.863   5.901   4.200 -0.4981 -0.3178  0.6707
 9512TIP3    H150027   5.818   5.848   4.266 -0.8099  1.7002  2.1371
 9512TIP3    H250028   5.862   5.848   4.121 -0.2213 -2.7651  2.2611
 9513TIP3   OH250029   3.598   4.234   1.850 -0.6600 -0.0091 -0.3705
 9513TIP3    H150030   3.510   4.205   1.826 -0.6173 -1.3647  1.0231
 9513TIP3    H250031   3.652   4.212   1.774 -1.4472  0.5937 -1.1286
 9514TIP3   OH250032   4.203   3.499   1.031 -0.5814  0.3471 -0.1203
 9514TIP3    H150033   4.293   3.524   1.052 -0.2581  0.0151 -1.1165
 9514TIP3    H250034   4.198   3.406   1.052 -0.6566  0.3352 -0.1892
 9515TIP3   OH250035   7.159   6.134   2.862 -0.1413  0.1694  0.2240
 9515TIP3    H150036   7.198   6.111   2.946 -0.2526 -1.1043 -0.0601
 9515TIP3    H250037   7.159   6.052   2.812 -1.3555  0.5930 -0.5002
 9516TIP3   OH250038   5.378   5.824  15.175  0.0791 -0.3664  0.2484
 9516TIP3    H150039   5.329   5.742  15.166 -0.3146 -0.2517  1.2750
 9516TIP3    H250040   5.338   5.883  15.112 -0.4701 -0.5722  0.4019
 9517TIP3   OH250041   4.394   4.065  13.978 -0.0748 -0.1089  0.1187
 9517TIP3    H150042   4.363   4.035  14.064  1.7742 -0.5741  0.6516
 9517TIP3    H250043   4.345   4.012  13.915 -3.1552  1.8390  0.7798
 9518TIP3   OH250044   6.407   4.662  11.882 -0.2195  0.3625  0.7128
 9518TIP3    H150045   6.457   4.585  11.908 -0.0775 -0.0279 -0.6800
 9518TIP3    H250046   6.441   4.732  11.937 -0.8225 -0.6916  2.4817
 9519TIP3   OH250047   6.730   6.120   2.195  0.4718 -1.1509  0.4689
 9519TIP3    H150048   6.703   6.206   2.225  2.5972 -0.7301  1.2734
 9519TIP3    H250049   6.680   6.105   2.114  0.1999  0.8756  0.2511
 9520TIP3   OH250050   2.376   2.086  12.424  0.0810  0.1163  0.3367
 9520TIP3    H150051   2.380   2.155  12.490 -1.9367  0.0133  0.5743
 9520TIP3    H250052   2.403   2.007  12.471  0.8731  0.4404  0.4467
 9521TIP3   OH250053   5.850   6.321  14.717  0.2096 -0.1612  0.7212
 9521TIP3    H150054   5.926   6.373  14.690 -0.6474  0.1600 -1.1069
 9521TIP3    H250055   5.881   6.274  14.795  1.8646  0.9660  0.7814
 9522TIP3   OH250056   7.175   6.572   1.718 -0.3410  0.6650  0.4434
 9522TIP3    H150057   7.137   6.547   1.633  0.8539 -0.2783  0.1677
 9522TIP3    H250058   7.216   6.492   1.749  1.6388  1.7369  0.6198
 9523TIP3   OH250059   4.794   6.230  14.387  0.3580  0.5113  0.1407
 9523TIP3    H150060   4.857   6.254  14.319 -1.4058  2.0811 -0.9980
 9523TIP3    H250061   4.785   6.136  14.379  0.8182  0.5737 -1.2475
 9524TIP3   OH250062   1.597   0.092   0.217 -0.3452 -0.5595 -0.8162
 9524TIP3    H150063   1.531   0.026   0.200 -0.3745 -0.7153 -0.1338
 9524TIP3    H250064   1.662   0.080   0.148 -0.0868 -1.6559 -0.3861
 9525TIP3   OH250065   6.773   1.033  15.441 -0.1224 -0.4960  0.0629
 9525TIP3    H150066   6.762   1.004  15.351  0.9885 -0.9759  0.0742
 9525TIP3    H250067   6.838   1.103  15.437 -0.2613 -0.3419  0.4502
 9526TIP3   OH250068   6.210   4.889  14.000 -0.1701  0.2253  0.2396
 9526TIP3    H150069   6.282   4.915  13.943 -0.4781 -0.7221 -0.5925
 9526TIP3    H250070   6.131   4.897  13.946 -0.4269 -1.0082  0.4004
 9527TIP3   OH250071   3.871   1.057  14.447  0.0433  0.1022  0.0253
 9527TIP3    H150072   3.906   1.146  14.458 -1.1492  0.8177 -1.6990
 9527TIP3    H250073   3.777   1.070  14.434 -0.1212 -1.4048 -0.4068
 9528TIP3   OH250074   5.881   6.045  14.172  0.3177 -0.4411  0.5544
 9528TIP3    H150075   5.888   6.045  14.267 -1.6021 -0.7926  0.7245
 9528TIP3    H250076   5.792   6.013  14.155  0.9712 -1.3067 -1.3811
 9529TIP3   OH250077   2.013   4.608  13.963  0.3339 -0.2239  0.3534
 9529TIP3    H150078   1.982   4.522  13.936  2.7909 -1.2197  0.5206
 9529TIP3    H250079   2.082   4.630  13.900 -1.1739  2.2684 -0.5123
 9530TIP3   OH250080   6.158   4.325   1.692 -0.4428  0.1006  0.8570
 9530TIP3    H150081   6.214   4.354   1.620  1.1300 -0.7846  1.6979
 9530TIP3    H250082   6.075   4.302   1.650  0.0516  0.7323 -0.5110
 9531TIP3   OH250083   0.957   7.135  12.508 -0.9449  0.5117 -0.2305
 9531TIP3    H150084   0.881   7.082  12.534 -1.8074  0.9416 -1.7881
 9531TIP3    H250085   0.924   7.225  12.506 -0.6002  0.6178 -1.6283
 9532TIP3   OH250086   4.338   4.616   0.919  0.3903  0.6794 -0.0739
 9532TIP3    H150087   4.295   4.572   0.992  2.3358  0.7553  1.1727
 9532TIP3    H250088   4.352   4.547   0.855  0.2048  0.2345  0.3581
 9533TIP3   OH250089   0.481   3.558  11.843  0.2806 -0.3144 -0.5730
 9533TIP3    H150090   0.435   3.486  11.801 -3.8277  1.0035  1.3531
 9533TIP3    H250091   0.511   3.522  11.927  0.2784 -0.4198 -0.6171
 9534TIP3   OH250092   6.448   6.530   2.241 -0.2336 -0.1503 -0.0147
 9534TIP3    H150093   6.469   6.588   2.314 -0.8352  2.2001 -1.6585
 9534TIP3    H250094   6.429   6.589   2.168 -3.4897 -2.3636 -1.0583
 9535TIP3   OH250095   4.061   5.855   0.786  0.3853  0.2718 -0.1005
 9535TIP3    H150096   4.002   5.899   0.724  0.2466  0.0400 -0.1325
 9535TIP3    H250097   4.147   5.894   0.768  0.1999  0.7747  0.1076
 9536TIP3   OH250098   5.892   2.630  14.545  0.2561  0.8276  0.4456
 9536TIP3    H150099   5.881   2.592  14.632 -0.0052  1.6566  0.7788
 9536TIP3    H250100   5.973   2.590  14.512 -0.0740 -0.1034  0.7328
 9537TIP3   OH250101   6.141   0.965  13.317  0.8021  0.2431 -0.0301
 9537TIP3    H150102   6.116   0.921  13.398  1.4102  0.6972  0.4097
 9537TIP3    H250103   6.103   0.911  13.248 -0.0644  0.0731  0.5660
 9538TIP3   OH250104   6.538   5.406  12.203  0.4862  0.3058  0.0736
 9538TIP3    H150105   6.527   5.312  12.218  1.9890 -0.0022 -0.7038
 9538TIP3    H250106   6.469   5.429  12.141 -1.1006  0.1179  1.7191
 9539TIP3   OH250107   5.774   4.963   0.511 -0.2288 -0.0491 -0.0567
 9539TIP3    H150108   5.821   4.959   0.594 -0.9129 -2.3846  0.2823
 9539TIP3    H250109   5.736   5.051   0.508  1.1637  0.6105  1.3246
 9540TIP3   OH250110   3.432   5.711  13.725 -0.6264  0.4261  0.0313
 9540TIP3    H150111   3.393   5.627  13.750 -0.8180  0.7386  0.8243
 9540TIP3    H250112   3.523   5.691  13.707 -1.0207 -0.2244 -1.3242
 9541TIP3   OH250113   2.940   1.370  13.035 -0.0096 -0.0390 -0.6197
 9541TIP3    H150114   2.940   1.388  13.129  0.9526  0.0655 -0.6339
 9541TIP3    H250115   2.914   1.452  12.995  1.0600  0.3630 -0.5138
 9542TIP3   OH250116   5.776   5.427   1.063 -0.1727 -0.0321 -0.1080
 9542TIP3    H150117   5.737   5.382   1.138  0.5487 -0.0565  0.2628
 9542TIP3    H250118   5.702   5.450   1.007 -0.8012  0.6919  0.9991
 9543TIP3   OH250119   2.609   2.098  12.631  0.6106  0.0533  0.1900
 9543TIP3    H150120   2.606   2.193  12.623  2.2176  0.1239  0.2788
 9543TIP3    H250121   2.666   2.082  12.706 -0.2010 -0.9715  0.6026
 9544TIP3   OH250122   4.618   0.431  10.673  0.3043  1.2844  0.2307
 9544TIP3    H150123   4.680   0.458  10.604  0.7479  1.5128  0.7148
 9544TIP3    H250124   4.667   0.440  10.754  0.2270 -0.3107  0.4743
 9545TIP3   OH250125   4.585   4.449   2.867 -0.1146 -0.0264  0.2972
 9545TIP3    H150126   4.580   4.489   2.954 -1.9373  0.4774 -0.0361
 9545TIP3    H250127   4.528   4.372   2.872 -2.2450  1.4113 -1.1900
 9546TIP3   OH250128   1.829   5.772  14.431  0.1081  0.1317 -0.2928
 9546TIP3    H150129   1.900   5.717  14.397  0.1206 -0.5657  0.8297
 9546TIP3    H250130   1.829   5.755  14.526 -2.0479 -0.4752 -0.3670
 9547TIP3   OH250131   3.502   6.477  12.887  0.7700  0.1844 -0.8462
 9547TIP3    H150132   3.515   6.526  12.806  1.1640  0.1167 -0.8261
 9547TIP3    H250133   3.588   6.476  12.928  0.4734  0.5865 -0.2105
 9548TIP3   OH250134   4.634   5.144  15.390  0.3984  0.1456  0.1840
 9548TIP3    H150135   4.620   5.156  15.484  2.0526 -0.7254  0.5546
 9548TIP3    H250136   4.722   5.178  15.374 -0.5389  1.9214 -1.3827
 9549TIP3   OH250137   0.568   2.895   0.714  0.5189 -0.0320  0.1154
 9549TIP3    H150138   0.544   2.802   0.714  0.5794 -0.0454 -1.6275
 9549TIP3    H250139   0.517   2.933   0.643  0.8225  1.2060  0.5508
 9550TIP3   OH250140   4.588   1.047  10.361  0.0119  0.0719 -0.1009
 9550TIP3    H150141   4.673   1.089  10.347 -0.3497  1.0532  0.6062
 9550TIP3    H250142   4.529   1.119  10.385 -1.0342 -0.5848 -0.6393
 9551TIP3   OH250143   3.940   5.535   0.238 -0.7789 -0.5861 -0.2553
 9551TIP3    H150144   4.004   5.543   0.167  0.7113 -1.4027  0.9523
 9551TIP3    H250145   3.957   5.448   0.275  0.3521  0.8663  2.8318
 9552TIP3   OH250146   1.331   7.106   0.684  0.4746  0.1777  0.2387
 9552TIP3    H150147   1.410   7.091   0.736  1.5399 -0.1253 -1.4568
 9552TIP3    H250148   1.339   7.197   0.655  0.6361 -0.1219 -0.6629
 9553TIP3   OH250149   0.805   3.079  15.396 -0.6123 -0.3681  0.1881
 9553TIP3    H150150   0.894   3.076  15.434  0.0411 -4.1913 -1.3542
 9553TIP3    H250151   0.750   3.110  15.468  1.9036  1.8455  1.2688
 9554TIP3   OH250152   2.276   3.180  14.644 -0.0447  0.2059  0.5281
 9554TIP3    H150153   2.243   3.181  14.734  0.7639 -0.3016  0.8354
 9554TIP3    H250154   2.208   3.223  14.593 -1.1520 -0.7545  1.1721
 9555TIP3   OH250155   2.535   5.877  14.682  0.9158 -0.7049  0.1116
 9555TIP3    H150156   2.566   5.836  14.763 -3.0376 -2.4209  0.8531
 9555TIP3    H250157   2.467   5.938  14.710  0.8594  0.1193 -1.7589
 9556TIP3   OH250158   6.305   3.217   1.145  0.0257  0.2465  0.3230
 9556TIP3    H150159   6.302   3.143   1.084 -0.6620 -0.9013  1.7211
 9556TIP3    H250160   6.391   3.257   1.130 -0.2700  0.2016 -1.6363
 9557TIP3   OH250161   6.551   7.198  11.975 -0.0432  0.0600  0.0812
 9557TIP3    H150162   6.628   7.223  11.923 -0.1466 -0.2668 -0.2387
 9557TIP3    H250163   6.486   7.265  11.955 -0.2269 -0.3024 -0.5547
 9558TIP3   OH250164   6.821   5.928   0.047 -0.1336 -0.4189  0.1171
 9558TIP3    H150165   6.861   5.868   0.111  0.1067  1.4590  1.7697
 9558TIP3    H250166   6.889   5.939  -0.019  0.1670 -1.2448  0.2701
 9559TIP3   OH250167   3.858   4.661  14.546  0.3777  0.1639  0.1772
 9559TIP3    H150168   3.808   4.590  14.506 -0.3384  0.9774 -0.3870
 9559TIP3    H250169   3.816   4.674  14.631  1.2640 -0.8855  0.7873
 9560TIP3   OH250170   3.008   3.999  15.268 -0.0543 -0.6530 -0.0486
 9560TIP3    H150171   3.086   4.055  15.269  0.7050 -1.7144  1.7364
 9560TIP3    H250172   3.018   3.946  15.189  1.1423 -0.9069  0.2649
 9561TIP3   OH250173   2.054   5.437  11.962 -0.4529 -0.8184 -0.4702
 9561TIP3    H150174   2.078   5.353  11.921 -0.5648 -0.6422 -0.8987
 9561TIP3    H250175   2.006   5.484  11.894  1.0627  0.2875 -0.7894
 9562TIP3   OH250176   4.981   0.846  14.729 -0.3834 -0.1807 -0.1322
 9562TIP3    H150177   5.028   0.772  14.689 -0.7974 -0.4493 -0.1296
 9562TIP3    H250178   4.911   0.804  14.779  0.6051  0.0951  1.5327
 9563TIP3   OH250179   2.903   4.819  13.013 -0.1875  0.6489  0.2015
 9563TIP3    H150180   2.810   4.821  12.991 -0.5766 -0.1788  1.6779
 9563TIP3    H250181   2.941   4.758  12.950 -1.0048 -0.5221  0.8190
 9564TIP3   OH250182   1.147   2.123  15.268 -0.0344 -0.0817 -0.1675
 9564TIP3    H150183   1.114   2.212  15.274 -1.4726 -0.5809 -0.3494
 9564TIP3    H250184   1.141   2.102  15.174 -1.0717 -0.8588  0.0630
 9565TIP3   OH250185   4.627   3.584  14.348 -0.8546 -0.1772 -0.0035
 9565TIP3    H150186   4.567   3.596  14.274 -0.9559  0.7575  0.2207
 9565TIP3    H250187   4.712   3.569  14.307 -1.3198 -1.9649 -0.3244
 9566TIP3   OH250188   2.398   4.798  15.025 -0.4027 -0.2208  0.7800
 9566TIP3    H150189   2.391   4.736  14.953 -0.5691  0.5056  0.1606
 9566TIP3    H250190   2.492   4.812  15.036 -0.3228 -1.4163  1.6492
 9567TIP3   OH250191   2.347   0.933  11.145  0.1664  0.0347  0.2017
 9567TIP3    H150192   2.375   1.004  11.087 -0.2916  0.1673  0.1369
 9567TIP3    H250193   2.262   0.963  11.179 -0.9692 -1.3387 -1.3487
 9568TIP3   OH250194   3.291   4.229   0.638 -0.1002 -0.0315 -0.0825
 9568TIP3    H150195   3.302   4.266   0.725  1.5702 -0.1436 -0.2315
 9568TIP3    H250196   3.252   4.143   0.652 -1.4294  0.6384  0.4309
 9569TIP3   OH250197   5.778   1.625  13.491 -0.1793 -0.3405 -0.0781
 9569TIP3    H150198   5.770   1.548  13.547 -0.1208  1.0999  1.9758
 9569TIP3    H250199   5.689   1.660  13.487  0.0549  0.2842  0.1683
 9570TIP3   OH250200   1.685   4.262   0.054  0.3319 -0.4377  0.2509
 9570TIP3    H150201   1.726   4.326  -0.004  3.3201 -0.8946  1.7152
 9570TIP3    H250202   1.662   4.189  -0.004 -1.1252  1.0319 -1.0737
 9571TIP3   OH250203   5.115   3.150   0.407  0.1271  0.5230 -0.3500
 9571TIP3    H150204   5.152   3.125   0.492 -1.0128  1.2192  0.3762
 9571TIP3    H250205   5.113   3.069   0.356  3.0989  0.5597 -0.6093
 9572TIP3   OH250206   5.769   3.668  15.168 -0.1017  0.8647 -0.0735
 9572TIP3    H150207   5.806   3.630  15.248 -0.6477 -1.4076 -0.8735
 9572TIP3    H250208   5.674   3.662  15.180 -0.1926  1.3190 -0.5305
 9573TIP3   OH250209   5.319   4.071  15.146 -0.2847  0.3145 -0.8783
 9573TIP3    H150210   5.376   4.142  15.175  1.3065 -1.0300 -0.6533
 9573TIP3    H250211   5.282   4.035  15.227 -0.7347  0.5903 -0.9594
 9574TIP3   OH250212   0.513   3.093  11.092 -0.7726  0.4283  0.4752
 9574TIP3    H150213   0.543   3.183  11.106  1.7878 -0.2124 -0.6575
 9574TIP3    H250214   0.534   3.075  11.001 -2.6208 -0.8624  0.2739
 9575TIP3   OH250215   2.495   6.349  11.723  0.0107 -0.5374  0.1084
 9575TIP3    H150216   2.564   6.339  11.788 -0.0876  1.5466  0.5788
 9575TIP3    H250217   2.464   6.260  11.706  3.5428 -1.6569 -0.9356
 9576TIP3   OH250218   2.346   0.454   0.678  0.3696 -1.0185 -0.6789
 9576TIP3    H150219   2.345   0.548   0.693  1.4432 -1.3049  1.2794
 9576TIP3    H250220   2.288   0.442   0.602  0.4192  1.2201 -1.1174
 9577TIP3   OH250221   0.097   1.686  13.544 -0.2833  0.2571 -0.5756
 9577TIP3    H150222   0.028   1.753  13.547 -0.3816  0.1015  0.8209
 9577TIP3    H250223   0.178   1.735  13.531 -0.4878  0.5461 -0.7739
 9578TIP3   OH250224   1.259   6.200  15.307 -0.5361  0.0814 -0.5500
 9578TIP3    H150225   1.290   6.146  15.234  1.1359 -1.0058  0.9314
 9578TIP3    H250226   1.298   6.286  15.291  1.2698 -0.6161 -0.0387
 9579TIP3   OH250227   6.405   5.534   0.476  0.2361  0.4467 -0.1815
 9579TIP3    H150228   6.345   5.558   0.546  1.6879  1.4236  0.7607
 9579TIP3    H250229   6.450   5.455   0.508  0.3994  0.4889 -0.3034
 9580TIP3   OH250230   4.070   0.417  13.461  0.2047  0.7361 -0.5720
 9580TIP3    H150231   4.080   0.322  13.449 -0.8244  0.7063 -1.2245
 9580TIP3    H250232   4.034   0.448  13.378  0.5727  1.7086 -0.3691
 9581TIP3   OH250233   6.739   6.484   0.430 -0.1153 -0.2379  0.3464
 9581TIP3    H150234   6.762   6.493   0.337 -0.3305  0.4362  0.3594
 9581TIP3    H250235   6.659   6.431   0.429 -0.0266 -0.3703  0.1556
 9582TIP3   OH250236   6.904   5.739  13.195 -0.4267 -0.0200 -0.3402
 9582TIP3    H150237   6.949   5.806  13.246  0.5478 -0.6326 -0.3720
 9582TIP3    H250238   6.969   5.709  13.131 -1.1588 -0.3036 -0.9688
 9583TIP3   OH250239   2.074   3.246   2.299  0.1784 -0.1551  0.1723
 9583TIP3    H150240   2.131   3.319   2.274 -2.6454  1.6961 -1.0364
 9583TIP3    H250241   2.072   3.190   2.221  0.3398 -0.2234  0.2172
 9584TIP3   OH250242   6.034   3.901   0.612  0.0789  0.3609  0.1894
 9584TIP3    H150243   6.025   3.831   0.676  1.1673 -0.2818 -0.3277
 9584TIP3    H250244   5.956   3.955   0.622 -0.7055 -0.8664  0.6776
 9585TIP3   OH250245   4.249   6.870  13.400 -0.8843  0.4839 -0.3908
 9585TIP3    H150246   4.274   6.807  13.332  1.1221  1.8293 -0.9495
 9585TIP3    H250247   4.296   6.841  13.478 -0.4349  0.9298 -0.4919
 9586TIP3   OH250248   3.036   2.963   2.848 -0.3035 -0.5381 -0.4150
 9586TIP3    H150249   2.945   2.958   2.821 -0.7956  0.6879  0.9326
 9586TIP3    H250250   3.083   2.990   2.769 -1.3799  0.6286 -0.6708
 9587TIP3   OH250251   0.017   2.124  15.266  0.1575  0.1045 -0.3065
 9587TIP3    H150252  -0.008   2.155  15.353 -0.6467 -1.6806  0.1146
 9587TIP3    H250253  -0.009   2.195  15.207 -2.5547 -0.1268  0.5238
 9588TIP3   OH250254   0.898   2.297  13.699  0.0521  0.1117  0.4542
 9588TIP3    H150255   0.825   2.260  13.650 -0.4320 -0.3440  1.4922
 9588TIP3    H250256   0.876   2.390  13.708 -0.1838  0.0650  0.3711
 9589TIP3   OH250257   1.238   2.533  14.008 -0.7978 -0.1927  0.2542
 9589TIP3    H150258   1.244   2.628  13.998  0.0620 -0.3065 -0.2645
 9589TIP3    H250259   1.172   2.521  14.077  0.0673  0.8134  1.2818
 9590TIP3   OH250260   0.571   0.240   0.008 -1.0617  0.2610 -0.1477
 9590TIP3    H150261   0.508   0.300   0.050 -1.4950  1.0025 -1.8141
 9590TIP3    H250262   0.648   0.244   0.065 -1.8551  0.7706  0.9200
 9591TIP3   OH250263   0.538   0.581  15.360  0.0005 -0.0906  0.5120
 9591TIP3    H150264   0.504   0.594  15.448 -1.5045 -1.0083  0.0943
 9591TIP3    H250265   0.546   0.486  15.351  0.0616 -0.0056 -0.3756
 9592TIP3   OH250266   3.177   1.152  13.021 -0.0809 -0.5751  0.7040
 9592TIP3    H150267   3.086   1.137  13.048  1.2718 -2.5048  4.5881
 9592TIP3    H250268   3.194   1.243  13.045 -0.6091 -0.5922  1.1660
 9593TIP3   OH250269   1.693   2.751  14.646 -0.1312  0.3817  1.0931
 9593TIP3    H150270   1.606   2.783  14.620  0.4002  1.7348  0.9225
 9593TIP3    H250271   1.710   2.677  14.589 -1.0763  0.2604  0.9568
 9594TIP3   OH250272   0.454   4.663  13.492  0.3011  0.3277 -0.3978
 9594TIP3    H150273   0.514   4.611  13.545 -0.1052 -0.2450 -0.4876
 9594TIP3    H250274   0.375   4.672  13.546  1.2432  2.9076  0.5875
 9595TIP3   OH250275   2.325   6.016  14.979 -0.3294  0.5614  0.1340
 9595TIP3    H150276   2.319   6.110  14.996 -0.6660  0.5919 -0.1349
 9595TIP3    H250277   2.247   5.980  15.021 -0.9509  0.5855 -0.9658
 9596TIP3   OH250278   6.150   6.067  15.182  0.0684 -0.4662  0.3324
 9596TIP3    H150279   6.243   6.087  15.175  0.3225 -1.0775  1.8857
 9596TIP3    H250280   6.128   6.084  15.274 -1.5975  0.6930 -0.2429
 9597TIP3   OH250281   0.712   1.198  13.343 -0.4011  0.0382  0.3117
 9597TIP3    H150282   0.788   1.193  13.402  0.7426 -1.2489 -1.2378
 9597TIP3    H250283   0.637   1.204  13.402  0.8551  0.8840  1.8889
 9598TIP3   OH250284   6.279   1.098  12.249  0.3504  0.6648 -0.0148
 9598TIP3    H150285   6.245   1.012  12.223  0.3573  0.4999  0.4927
 9598TIP3    H250286   6.297   1.143  12.167  1.1370 -0.1366 -0.2983
 9599TIP3   OH250287   3.095   6.495  13.278  0.0093 -0.4175 -0.8386
 9599TIP3    H150288   3.040   6.475  13.353 -0.5691 -0.4413 -1.2681
 9599TIP3    H250289   3.184   6.500  13.314 -0.4867  1.5536  0.1961
 9600TIP3   OH250290   2.967   5.701  14.640  0.3446 -0.7343  0.1024
 9600TIP3    H150291   2.923   5.786  14.645 -0.1936 -1.0626  1.1004
 9600TIP3    H250292   2.899   5.640  14.612  0.3467 -1.1100  0.9013
 9601TIP3   OH250293   5.541   0.255  12.852  0.1946 -0.4064 -0.3046
 9601TIP3    H150294   5.508   0.309  12.780 -1.7929  0.6090  1.3222
 9601TIP3    H250295   5.633   0.280  12.859  0.2644 -0.0386 -2.0518
 9602TIP3   OH250296   1.587   5.576  13.850  0.0703 -0.4760  0.1265
 9602TIP3    H150297   1.680   5.565  13.834 -0.0008 -1.7286  0.4941
 9602TIP3    H250298   1.582   5.642  13.919  0.7244 -0.8275  0.5207
 9603TIP3   OH250299   0.930   5.009   0.098  0.2870  0.0017  0.0420
 9603TIP3    H150300   0.861   5.053   0.049  0.5904  1.6890  1.1131
 9603TIP3    H250301   0.900   5.010   0.189  1.4252  0.1799  0.4229
 9604TIP3   OH250302   0.468   5.629  15.565 -0.2180 -0.2915 -0.0923
 9604TIP3    H150303   0.391   5.645  15.511 -1.0083  1.0755  1.3709
 9604TIP3    H250304   0.541   5.662  15.513 -1.0167  1.3745 -0.2024
 9605TIP3   OH250305   6.688   5.699  14.370  0.1587  0.0601 -0.6793
 9605TIP3    H150306   6.603   5.730  14.400  1.3711  2.4872  0.4478
 9605TIP3    H250307   6.673   5.667  14.281 -1.8209  0.8775 -0.6480
 9606TIP3   OH250308   0.377   3.506  10.822 -0.0096  0.4339  0.3894
 9606TIP3    H150309   0.468   3.481  10.830  0.2330  0.1309 -2.6458
 9606TIP3    H250310   0.339   3.442  10.761 -1.8136  1.5218  0.3137
 9607TIP3   OH250311   4.229   2.477  13.515  0.3055 -0.5188 -0.3117
 9607TIP3    H150312   4.302   2.523  13.472  1.1589 -2.2461 -0.7781
 9607TIP3    H250313   4.169   2.547  13.541  1.4510  0.8415 -1.1887
 9608TIP3   OH250314   6.269   0.545  13.325 -0.2782 -0.1117 -0.1524
 9608TIP3    H150315   6.179   0.578  13.323 -0.1864  0.1461 -0.1194
 9608TIP3    H250316   6.307   0.582  13.405  0.0929  0.4291 -0.5708
 9609TIP3   OH250317   0.280   5.878   1.724  0.4482  0.6824  0.2829
 9609TIP3    H150318   0.221   5.924   1.784 -0.5360  0.9623 -0.8944
 9609TIP3    H250319   0.302   5.797   1.770 -0.3326  0.8710  1.0085
 9610TIP3   OH250320   0.169   5.165  12.771 -0.5416  0.1402 -0.2990
 9610TIP3    H150321   0.120   5.245  12.786 -1.2518 -0.4375  0.4573
 9610TIP3    H250322   0.255   5.195  12.740 -1.0226  1.1652 -0.6586
 9611TIP3   OH250323   0.254   5.366  15.582 -0.1870  0.3883 -0.3394
 9611TIP3    H150324   0.248   5.287  15.635  1.6604  1.2552  1.2020
 9611TIP3    H250325   0.165   5.403  15.584 -1.1617 -1.7963 -1.3913
 9612TIP3   OH250326   6.542   3.774  13.804  0.6669  0.3054  0.1157
 9612TIP3    H150327   6.503   3.688  13.813 -0.9936  1.0519  0.1347
 9612TIP3    H250328   6.630   3.764  13.842  1.0631 -1.7472 -1.2715
 9613TIP3   OH250329   4.435   6.406   5.289 -0.4163 -0.1884  0.1473
 9613TIP3    H150330   4.508   6.457   5.322 -0.7627  1.6559 -1.8480
 9613TIP3    H250331   4.441   6.414   5.194 -2.7095 -0.6890 -0.0658
 9614TIP3   OH250332   6.910   7.082  11.984  0.2476  0.4304 -0.3802
 9614TIP3    H150333   6.859   7.002  11.999  0.0974  0.5119 -0.4649
 9614TIP3    H250334   6.857   7.134  11.924  0.7600  0.2022 -1.0368
 9615TIP3   OH250335   5.076   6.661  12.077 -0.4033 -0.3572  0.2928
 9615TIP3    H150336   5.012   6.680  12.145 -1.5080  1.1798 -1.1455
 9615TIP3    H250337   5.088   6.744  12.030  0.7355 -1.2433 -1.0644
 9616TIP3   OH250338   4.235   6.265   0.521 -0.2416  0.2379  0.4049
 9616TIP3    H150339   4.147   6.300   0.506  0.7065  2.5565  0.0271
 9616TIP3    H250340   4.285   6.339   0.555  1.4936 -1.1468  0.9865
 9617TIP3   OH250341   1.076   4.418  14.851 -0.4730  0.0746 -0.5220
 9617TIP3    H150342   1.052   4.506  14.881  0.6151  0.6730 -1.3842
 9617TIP3    H250343   0.993   4.376  14.832 -1.0646  0.5509  0.8896
 9618TIP3   OH250344   2.222   6.408  12.920  0.2224 -0.0032 -0.0100
 9618TIP3    H150345   2.295   6.465  12.898  0.9508 -0.7073  0.5164
 9618TIP3    H250346   2.244   6.324  12.878 -0.6951  0.0278 -0.5489
 9619TIP3   OH250347   4.879   1.967   0.325 -0.4434  0.1984  0.5518
 9619TIP3    H150348   4.807   1.916   0.288  1.9273 -0.1737 -3.8226
 9619TIP3    H250349   4.939   1.901   0.361 -0.3885  0.2789  0.6071
 9620TIP3   OH250350   6.731   6.766  13.646 -0.0418 -0.2620 -0.3592
 9620TIP3    H150351   6.806   6.740  13.699 -1.2587 -0.6205  1.2052
 9620TIP3    H250352   6.734   6.707  13.570  1.8115  0.3851 -0.8357
 9621TIP3   OH250353   1.068   6.151  14.245 -0.0719 -0.5599 -0.1771
 9621TIP3    H150354   1.029   6.102  14.317 -2.3238 -0.8650 -1.5544
 9621TIP3    H250355   1.163   6.140  14.257 -0.4507 -2.1841  1.6070
 9622TIP3   OH250356   3.636   0.923  14.896 -0.1773 -0.0114 -0.2432
 9622TIP3    H150357   3.626   1.018  14.906 -1.5761 -0.3246  1.5681
 9622TIP3    H250358   3.555   0.895  14.854 -0.9568 -0.7565  1.7269
 9623TIP3   OH250359   2.502   4.630  13.095 -0.2583  0.0602 -0.2476
 9623TIP3    H150360   2.564   4.670  13.156  0.5299  0.0938 -1.0730
 9623TIP3    H250361   2.486   4.543  13.132 -0.7113  0.5180  0.6555
 9624TIP3   OH250362   6.734   2.723  13.950  0.5318  0.3229 -1.0008
 9624TIP3    H150363   6.709   2.745  14.040  0.0811 -2.2617 -0.4421
 9624TIP3    H250364   6.674   2.774  13.895 -0.3117  0.6267  0.1837
 9625TIP3   OH250365   2.979   5.107  13.909  0.1068  0.2388  0.5861
 9625TIP3    H150366   2.960   5.037  13.972 -0.3394 -0.7769 -0.6576
 9625TIP3    H250367   2.992   5.185  13.963  1.2898 -0.9312  2.0414
 9626TIP3   OH250368   6.097   2.266  13.833  0.0328  0.1687  0.4884
 9626TIP3    H150369   6.152   2.189  13.847  0.5618  0.5750  0.6608
 9626TIP3    H250370   6.052   2.249  13.750 -1.6887 -1.4133  1.7134
 9627TIP3   OH250371   7.051   5.395   0.195 -0.1618  0.1778 -0.0915
 9627TIP3    H150372   7.133   5.350   0.212  1.1658  2.9105  1.0562
 9627TIP3    H250373   7.060   5.429   0.106 -0.2906 -0.0370 -0.1859
 9628TIP3   OH250374   5.253   5.309  12.115 -0.1325  0.2547 -0.3210
 9628TIP3    H150375   5.344   5.284  12.099 -0.0883 -0.6213  1.2343
 9628TIP3    H250376   5.209   5.226  12.132 -1.3095  0.6430 -1.4137
 9629TIP3   OH250377   6.976   0.825  14.815  0.1969  0.3886  0.3704
 9629TIP3    H150378   7.015   0.912  14.801  1.1233 -0.0117  0.3706
 9629TIP3    H250379   7.052   0.767  14.826 -0.3314 -0.8163 -1.9127
 9630TIP3   OH250380   4.233   1.106   0.361  0.5286  0.7144  0.6810
 9630TIP3    H150381   4.266   1.131   0.275 -0.8590  1.8557  0.4480
 9630TIP3    H250382   4.287   1.032   0.388  0.1242 -0.4972 -1.7515
 9631TIP3   OH250383   0.795   3.822   0.656  0.5535  0.2804  0.3402
 9631TIP3    H150384   0.856   3.860   0.593 -0.1047 -1.3067 -1.2772
 9631TIP3    H250385   0.775   3.735   0.621 -1.0311 -0.0236  1.9328
 9632TIP3   OH250386   4.391   2.077  15.433 -0.0372 -0.0755  0.8037
 9632TIP3    H150387   4.347   2.001  15.472 -1.8415  1.0693  1.0757
 9632TIP3    H250388   4.326   2.114  15.373  0.7559  1.3195  0.7864
 9633TIP3   OH250389   3.691   6.700  14.701  0.1735 -0.2031  0.2637
 9633TIP3    H150390   3.652   6.708  14.614 -0.2062 -0.1106  0.4419
 9633TIP3    H250391   3.777   6.740  14.693  0.4093 -0.8066 -0.2470
 9634TIP3   OH250392   6.050   6.744  14.781  0.3465  0.1824 -0.5000
 9634TIP3    H150393   6.138   6.715  14.755  0.6426 -0.6855  1.3783
 9634TIP3    H250394   6.066   6.805  14.853 -0.6147 -0.3757  0.1872
 9635TIP3   OH250395   1.457   1.890  13.144 -0.1531  0.6366 -0.3558
 9635TIP3    H150396   1.480   1.834  13.070  1.4466  0.9456 -0.1265
 9635TIP3    H250397   1.448   1.830  13.218 -0.2820  0.4834 -0.4963
 9636TIP3   OH250398   5.457   0.397   0.551 -0.6125 -0.0796  0.0173
 9636TIP3    H150399   5.473   0.310   0.586  0.1275  1.2855  3.2941
 9636TIP3    H250400   5.525   0.410   0.485  1.3512 -0.7344  1.8647
 9637TIP3   OH250401   2.620   6.725  11.088 -0.2983  0.4040  0.2629
 9637TIP3    H150402   2.641   6.816  11.108 -0.0500  0.2059  0.9085
 9637TIP3    H250403   2.642   6.677  11.168 -0.7021 -0.1819  0.0252
 9638TIP3   OH250404   0.193   0.983   0.387  0.6159  0.7497 -0.2007
 9638TIP3    H150405   0.100   0.959   0.386  1.2089 -1.6728 -0.8736
 9638TIP3    H250406   0.223   0.963   0.475  1.2279 -1.5949 -0.9029
 9639TIP3   OH250407   5.958   1.255  14.869  0.2774 -0.2497 -0.1261
 9639TIP3    H150408   6.020   1.223  14.934  0.3977  1.2461  0.5263
 9639TIP3    H250409   6.012   1.284  14.796  0.1356 -2.0476 -0.9845
 9640TIP3   OH250410   1.504   0.763   1.157  0.1697 -0.2785 -0.0821
 9640TIP3    H150411   1.586   0.725   1.189  0.5050  0.4934 -0.0171
 9640TIP3    H250412   1.442   0.691   1.160  0.7065 -0.7282  0.4133
 9641TIP3   OH250413   2.081   7.011   2.122  0.1622  0.1853  0.1612
 9641TIP3    H150414   2.029   7.084   2.158 -0.0187 -0.4113  1.1308
 9641TIP3    H250415   2.066   7.016   2.027 -0.1991  1.1439  0.2604
 9642TIP3   OH250416   6.659   4.955  14.436 -0.1546  0.0922  0.3600
 9642TIP3    H150417   6.707   4.981  14.357 -0.1238  0.8930  0.6364
 9642TIP3    H250418   6.607   4.879  14.408  0.0169  0.2382 -0.3764
 9643TIP3   OH250419   6.687   0.942   1.774  0.1930 -0.5154  0.0940
 9643TIP3    H150420   6.762   0.981   1.728  0.3347 -0.3010  0.5040
 9643TIP3    H250421   6.626   1.015   1.785  1.2032  0.0385  2.4287
 9644TIP3   OH250422   4.844   0.534  14.621 -0.2272 -0.3193  0.1260
 9644TIP3    H150423   4.828   0.440  14.611 -0.6022 -0.2226 -0.2132
 9644TIP3    H250424   4.873   0.544  14.711 -1.4381 -0.6018  0.5576
 9645TIP3   OH250425   0.545   1.894  15.169  0.2080 -0.1362 -0.0064
 9645TIP3    H150426   0.591   1.810  15.181 -0.1810 -0.3536 -0.0397
 9645TIP3    H250427   0.454   1.874  15.189  0.1745  0.3660  0.3350
 9646TIP3   OH250428   4.993   6.638  13.275  0.1654  0.6176  0.2111
 9646TIP3    H150429   4.908   6.678  13.295 -0.2947  1.5761 -3.3133
 9646TIP3    H250430   5.057   6.695  13.319 -0.9271  0.7493  1.6517
 9647TIP3   OH250431   6.311   5.993   1.012 -0.3485  0.3551 -0.4604
 9647TIP3    H150432   6.347   5.971   1.098  1.7247  0.4751 -1.2696
 9647TIP3    H250433   6.346   5.926   0.954 -0.5038  1.1505 -1.4868
 9648TIP3   OH250434   3.815   3.320   0.451 -0.3847  0.4410 -0.3570
 9648TIP3    H150435   3.776   3.392   0.402 -0.1009  1.1775  0.4876
 9648TIP3    H250436   3.909   3.338   0.448 -0.3056  0.0473 -0.2219
 9649TIP3   OH250437   1.051   6.877  13.753  0.4058 -0.0558 -0.4785
 9649TIP3    H150438   1.114   6.868  13.824  0.0471 -0.3404 -0.1990
 9649TIP3    H250439   1.007   6.792  13.748 -1.4268  0.7774  0.7199
 9650TIP3   OH250440   1.171   2.547   2.143  0.5516  0.7449  0.3221
 9650TIP3    H150441   1.177   2.639   2.167 -0.1341  0.9231 -0.1697
 9650TIP3    H250442   1.108   2.545   2.071  1.5762  0.0615 -0.5843
 9651TIP3   OH250443   5.549   6.942   2.652  0.5530 -0.0876 -0.2612
 9651TIP3    H150444   5.498   6.895   2.587  0.4651 -1.4243  0.7594
 9651TIP3    H250445   5.620   6.982   2.603  0.0296 -0.4123 -1.2906
 9652TIP3   OH250446   3.383   4.152  14.798  0.1173 -0.2654  0.5490
 9652TIP3    H150447   3.330   4.169  14.876 -0.1318 -0.5225  0.4355
 9652TIP3    H250448   3.444   4.225  14.795 -0.1215 -0.0521  0.7746
 9653TIP3   OH250449   5.427   0.485  13.684 -0.0686  0.2337  0.0418
 9653TIP3    H150450   5.433   0.552  13.753 -0.1126  0.9855 -0.6796
 9653TIP3    H250451   5.383   0.529  13.612 -3.0784 -1.5030  0.7106
 9654TIP3   OH250452   6.114   1.753  11.117 -0.2318  0.2996 -0.0639
 9654TIP3    H150453   6.207   1.757  11.139 -0.2879 -0.1886  0.2569
 9654TIP3    H250454   6.072   1.810  11.181 -0.1150  0.8404 -0.4560
 9655TIP3   OH250455   5.656   3.991  11.489  0.1372 -0.6225  0.2625
 9655TIP3    H150456   5.734   3.956  11.532 -0.1003 -0.8567  0.5011
 9655TIP3    H250457   5.594   4.006  11.560 -0.3584 -1.2689 -0.0333
 9656TIP3   OH250458   2.053   4.729   0.040 -0.0992 -0.8413 -0.2407
 9656TIP3    H150459   1.959   4.734   0.027 -0.1739 -0.6176  0.3560
 9656TIP3    H250460   2.065   4.746   0.134  0.5507 -0.6341 -0.3609
 9657TIP3   OH250461   3.224   3.398  14.128 -0.5720 -0.4173  0.1846
 9657TIP3    H150462   3.264   3.335  14.069  1.0788  1.4521 -0.7490
 9657TIP3    H250463   3.243   3.365  14.216  0.3816 -1.1511 -0.2992
 9658TIP3   OH250464   5.021   2.268   1.739 -0.1413  0.1086 -0.6004
 9658TIP3    H150465   5.074   2.332   1.786  2.1883 -0.1105 -2.7983
 9658TIP3    H250466   5.040   2.185   1.783 -0.6774  0.4255  0.2379
 9659TIP3   OH250467   3.477   3.703   0.834 -0.8125  0.0695  0.8919
 9659TIP3    H150468   3.557   3.688   0.886  0.1716  1.1014 -0.2850
 9659TIP3    H250469   3.438   3.781   0.873 -1.1463 -0.3170  1.3389
 9660TIP3   OH250470   1.084   2.096  13.890  0.0338  0.4543 -0.1135
 9660TIP3    H150471   1.001   2.064  13.853  0.3509  0.0910 -0.5146
 9660TIP3    H250472   1.058   2.165  13.951 -0.5977  0.0084  0.1257
 9661TIP3   OH250473   6.668   6.796   0.097 -0.7025 -0.5212 -0.0579
 9661TIP3    H150474   6.611   6.813   0.172 -0.5956  0.5326 -0.2117
 9661TIP3    H250475   6.720   6.719   0.124 -1.5304 -0.9141  0.4437
 9662TIP3   OH250476   6.986   4.439  13.568  0.1511  0.3089  0.4585
 9662TIP3    H150477   7.042   4.482  13.504 -0.2353  0.0205 -0.0721
 9662TIP3    H250478   6.911   4.407  13.518  0.1056 -0.3856  0.9548
 9663TIP3   OH250479   6.958   3.006  12.780  0.5427  0.3693 -0.3872
 9663TIP3    H150480   7.049   2.985  12.762  0.4082 -1.2228  0.6477
 9663TIP3    H250481   6.908   2.949  12.721  0.1979 -0.8077  1.0056
 9664TIP3   OH250482   5.698   4.845  12.709  0.1546 -0.4918 -0.0800
 9664TIP3    H150483   5.773   4.786  12.713  0.7084  0.1621 -0.6610
 9664TIP3    H250484   5.724   4.913  12.647 -1.0381 -0.4238 -0.5210
 9665TIP3   OH250485   4.405   4.428   3.779  0.3303  0.6495  0.5459
 9665TIP3    H150486   4.410   4.517   3.815  0.3765  0.6890  0.4458
 9665TIP3    H250487   4.484   4.420   3.726 -0.2506  0.9681 -0.3843
 9666TIP3   OH250488   6.302   0.635  10.703  0.2968 -0.5626 -0.3977
 9666TIP3    H150489   6.372   0.636  10.637  0.3396  1.3556 -0.3604
 9666TIP3    H250490   6.222   0.619  10.653  0.3202  0.9386 -0.9477
 9667TIP3   OH250491   0.004   0.340  12.697 -0.1035 -0.6862  0.1414
 9667TIP3    H150492   0.066   0.282  12.653 -0.3270 -1.9576  1.4778
 9667TIP3    H250493  -0.082   0.299  12.682 -0.5377  0.5316 -0.8451
 9668TIP3   OH250494   2.006   4.169  12.495 -0.0803  0.3432 -0.3582
 9668TIP3    H150495   1.914   4.150  12.478  0.3224 -3.6001  1.3137
 9668TIP3    H250496   2.053   4.121  12.426  0.7988 -0.0448  0.4946
 9669TIP3   OH250497   4.352   0.672  13.485 -0.5171 -0.5535 -0.4098
 9669TIP3    H150498   4.317   0.617  13.415 -1.7011 -0.5593  0.1849
 9669TIP3    H250499   4.430   0.712  13.447  1.1196 -3.6212 -0.4407
 9670TIP3   OH250500   2.308   2.033   0.182 -0.5651  0.2806 -0.5232
 9670TIP3    H150501   2.249   1.991   0.120 -0.0387 -0.7301 -0.3457
 9670TIP3    H250502   2.390   1.985   0.174 -0.6099 -0.1430  1.2490
 9671TIP3   OH250503   3.567   1.197  14.937  0.1213 -0.0007  0.0483
 9671TIP3    H150504   3.474   1.218  14.950  0.5146 -0.2435  3.5519
 9671TIP3    H250505   3.597   1.262  14.874 -1.7000  2.0185  1.2125
 9672TIP3   OH250506   1.729   3.483  15.414 -0.1817  0.4615  0.2476
 9672TIP3    H150507   1.760   3.573  15.403  0.5036  0.3740  1.3430
 9672TIP3    H250508   1.636   3.491  15.432 -0.4944  0.8327 -1.4254
 9673TIP3   OH250509   4.722   6.790  14.721 -0.2618 -0.5412 -0.4940
 9673TIP3    H150510   4.646   6.761  14.670 -0.7224 -1.9585  0.9203
 9673TIP3    H250511   4.685   6.847  14.788  0.0288 -0.5493 -0.3257
 9674TIP3   OH250512   5.122   1.372   0.636 -0.5365  0.3331 -0.1235
 9674TIP3    H150513   5.051   1.351   0.575 -0.7366 -1.2682  0.6205
 9674TIP3    H250514   5.080   1.425   0.704 -0.5650  1.1507 -0.7782
 9675TIP3   OH250515   3.537   6.518  10.287  0.2524 -0.2497 -0.0023
 9675TIP3    H150516   3.546   6.526  10.382  2.2961 -0.1322 -0.1721
 9675TIP3    H250517   3.622   6.485  10.257  0.3513  1.6155 -1.9782
 9676TIP3   OH250518   5.517   1.217  15.101  0.4273  0.9013  0.0888
 9676TIP3    H150519   5.581   1.222  15.029  0.0524 -0.0017 -0.3168
 9676TIP3    H250520   5.520   1.125  15.129 -2.5660  0.2184 -1.6624
 9677TIP3   OH250521   1.541   0.294  13.605  0.2251 -0.0377 -0.0934
 9677TIP3    H150522   1.534   0.386  13.580 -0.1682 -0.2960 -0.9292
 9677TIP3    H250523   1.454   0.257  13.591 -0.3052  0.0435  2.6456
 9678TIP3   OH250524   7.104   1.040  14.202 -0.1321 -0.0706  0.3116
 9678TIP3    H150525   7.084   1.094  14.278  1.0347 -0.7931  1.1514
 9678TIP3    H250526   7.097   1.100  14.127 -3.1007  0.2002  0.7705
 9679TIP3   OH250527   6.347   5.654   1.200 -0.6641  0.1053  0.1968
 9679TIP3    H150528   6.313   5.637   1.287 -0.9223  0.1760  0.1105
 9679TIP3    H250529   6.375   5.746   1.202  2.1306 -0.7408  1.1236
 9680TIP3   OH250530   6.966   6.878  14.176  0.0333  0.0608 -0.5072
 9680TIP3    H150531   7.016   6.871  14.258 -0.1108 -4.2871 -0.6952
 9680TIP3    H250532   6.908   6.953  14.190  0.3355 -0.3039  3.1805
 9681TIP3   OH250533   5.690   3.857  14.493  0.3526  0.3196  0.2056
 9681TIP3    H150534   5.731   3.929  14.445  0.7257 -0.4584 -0.6701
 9681TIP3    H250535   5.729   3.778  14.455  0.8596 -0.3112  1.9765
 9682TIP3   OH250536   2.743   1.023   1.583 -0.2960 -0.1546 -0.5608
 9682TIP3    H150537   2.739   1.076   1.662 -1.0601  1.6037 -1.7517
 9682TIP3    H250538   2.797   0.947   1.607  1.4106  1.5023  0.9662
 9683TIP3   OH250539   3.370   5.922  12.435  0.2685  0.1815  0.3307
 9683TIP3    H150540   3.373   6.011  12.469  1.5110  0.1142  0.4025
 9683TIP3    H250541   3.456   5.885  12.455  0.4747 -0.3710 -1.4896
 9684TIP3   OH250542   6.054   3.851  10.746  0.4085  0.2220 -0.0819
 9684TIP3    H150543   6.121   3.784  10.766  0.7969  1.2688  2.2817
 9684TIP3    H250544   6.100   3.934  10.757 -1.4278  0.9784  2.2547
 9685TIP3   OH250545   0.619   5.729  13.701 -0.4397  0.1764 -0.2485
 9685TIP3    H150546   0.563   5.802  13.673  0.3147  0.9299  0.1719
 9685TIP3    H250547   0.586   5.705  13.787 -0.7435 -0.0358 -0.4239
 9686TIP3   OH250548   0.137   0.953   1.475 -0.1313  0.2015 -0.1263
 9686TIP3    H150549   0.220   0.905   1.469  0.1141  0.6150 -0.0760
 9686TIP3    H250550   0.160   1.036   1.516 -0.5114  0.4596 -0.4281
 9687TIP3   OH250551   2.546   5.606   1.847 -0.2070 -0.2994  0.1050
 9687TIP3    H150552   2.568   5.687   1.894 -1.5383  0.1727 -0.0499
 9687TIP3    H250553   2.523   5.544   1.917  0.2581 -0.3760  0.1938
 9688TIP3   OH250554   6.189   1.043  12.915 -0.0493  0.4563 -0.1604
 9688TIP3    H150555   6.224   0.955  12.902 -1.5984 -0.2465  0.3217
 9688TIP3    H250556   6.094   1.031  12.915 -0.2923  2.2720 -1.0712
 9689TIP3   OH250557   1.386   2.347  15.166 -0.1997  0.1833  0.7568
 9689TIP3    H150558   1.403   2.322  15.075 -0.9450  0.8039  0.4515
 9689TIP3    H250559   1.469   2.385  15.196 -0.2750  0.9465  0.0127
 9690TIP3   OH250560   0.981   4.923   0.973  0.0078  0.4920 -0.0732
 9690TIP3    H150561   1.063   4.915   0.924 -1.8241 -0.1438 -3.1700
 9690TIP3    H250562   0.950   4.833   0.982 -1.8755  0.9429 -1.7032
 9691TIP3   OH250563   5.535   2.780   0.184 -0.3573  0.3229  0.2364
 9691TIP3    H150564   5.499   2.753   0.100  1.4279 -1.6746  0.0768
 9691TIP3    H250565   5.630   2.777   0.172 -0.0858  1.4833  1.8866
 9692TIP3   OH250566   5.112   6.513   1.128  0.1157  0.2107 -0.4214
 9692TIP3    H150567   5.033   6.493   1.079  0.2202 -0.2858 -0.3861
 9692TIP3    H250568   5.110   6.453   1.203  0.2638  0.5461 -0.1472
 9693TIP3   OH250569   4.125   4.180  12.898  0.2233 -0.2316  0.2975
 9693TIP3    H150570   4.189   4.109  12.897 -0.2414 -0.6571  0.8865
 9693TIP3    H250571   4.161   4.245  12.959  2.4517  1.7178 -2.9744
 9694TIP3   OH250572   2.824   3.576   3.117  0.0909 -0.2442 -0.3251
 9694TIP3    H150573   2.867   3.656   3.086 -0.0176 -0.0885 -0.0686
 9694TIP3    H250574   2.871   3.552   3.197 -0.2318 -0.1328 -0.1014
 9695TIP3   OH250575   0.933   0.023  15.360 -0.1226 -0.7897 -0.3715
 9695TIP3    H150576   0.984  -0.027  15.423  1.9055 -0.1223 -1.4458
 9695TIP3    H250577   0.926   0.110  15.398  0.9176 -0.4454 -0.9611
 9696TIP3   OH250578   4.930   0.395  11.912 -0.2218 -0.5603  0.1545
 9696TIP3    H150579   4.956   0.355  11.994 -0.5641 -0.0845  0.5030
 9696TIP3    H250580   4.963   0.485  11.917 -0.9902 -0.2730  0.1433
 9697TIP3   OH250581   5.728   0.410   1.556 -0.2292 -0.1266  0.2364
 9697TIP3    H150582   5.661   0.343   1.545  0.5786 -0.9424  0.2237
 9697TIP3    H250583   5.806   0.374   1.514  0.2968  0.6941  0.4810
 9698TIP3   OH250584   5.791   0.715  14.972 -0.0354 -0.4362 -0.0286
 9698TIP3    H150585   5.750   0.651  14.914 -0.2669 -0.1520 -0.1795
 9698TIP3    H250586   5.804   0.793  14.917 -0.4181 -0.1028  0.3407
 9699TIP3   OH250587   0.532   6.070  14.412 -0.2239  0.4311 -0.6448
 9699TIP3    H150588   0.491   5.988  14.385 -1.5961  0.0642  2.3207
 9699TIP3    H250589   0.494   6.136  14.354 -1.3963 -0.6229 -1.0993
 9700TIP3   OH250590   7.100   2.678  10.839  0.4521  0.3015  0.0691
 9700TIP3    H150591   7.087   2.643  10.751 -0.7364  0.7609  0.0514
 9700TIP3    H250592   7.166   2.621  10.879 -0.5718 -1.1894 -0.3689
 9701TIP3   OH250593   1.352   4.479  14.906 -0.5058 -0.5368  0.2809
 9701TIP3    H150594   1.261   4.451  14.912 -0.5740 -0.3118  0.2897
 9701TIP3    H250595   1.382   4.445  14.821 -0.1109 -2.0498  1.0024
 9702TIP3   OH250596   2.559   5.187  13.460  0.6211  0.2089 -0.0652
 9702TIP3    H150597   2.587   5.274  13.433  1.9765 -0.5995 -1.3742
 9702TIP3    H250598   2.499   5.159  13.392  0.1758  0.1247  0.3596
 9703TIP3   OH250599   3.781   3.379   1.162  0.0460 -0.1847  0.4337
 9703TIP3    H150600   3.691   3.347   1.164  0.1025 -0.2914  1.9044
 9703TIP3    H250601   3.816   3.349   1.078 -0.8636 -1.3189  0.4570
 9704TIP3   OH250602   5.754   5.183   4.193  0.0606 -0.2834 -0.3412
 9704TIP3    H150603   5.811   5.248   4.153 -1.6091  1.5012  0.0975
 9704TIP3    H250604   5.666   5.212   4.171 -0.7494 -1.6251  1.0522
 9705TIP3   OH250605   4.342   2.585   1.627  0.0306 -0.7424  0.5651
 9705TIP3    H150606   4.418   2.527   1.623 -0.0913 -0.8642  0.0476
 9705TIP3    H250607   4.377   2.669   1.658  0.3436 -0.8440  0.4844
 9706TIP3   OH250608   5.924   4.257   2.195 -0.3446  0.1748  0.4515
 9706TIP3    H150609   5.908   4.322   2.263 -1.5310 -0.0453  0.3938
 9706TIP3    H250610   6.019   4.250   2.190 -0.2596 -0.6069  2.8178
 9707TIP3   OH250611   3.843   6.664  12.168  0.0877 -0.2780  0.0415
 9707TIP3    H150612   3.758   6.621  12.159  0.4478 -1.1850  0.8406
 9707TIP3    H250613   3.902   6.611  12.115  0.4211 -0.4416  0.5727
 9708TIP3   OH250614   4.340   1.236  15.250  0.4686  0.4525 -0.6380
 9708TIP3    H150615   4.411   1.255  15.311  0.6909 -0.9029 -0.4432
 9708TIP3    H250616   4.310   1.321  15.220  0.6135  1.1194  1.0628
 9709TIP3   OH250617   2.825   0.539   0.803 -0.5450 -0.1541 -0.1974
 9709TIP3    H150618   2.796   0.626   0.776  0.6341  0.6328  1.0377
 9709TIP3    H250619   2.856   0.551   0.893  1.9788 -1.3178 -0.8706
 9710TIP3   OH250620   6.215   2.535   0.038 -0.1790 -0.4790 -0.1407
 9710TIP3    H150621   6.120   2.528   0.039 -0.2214  0.1321  0.3095
 9710TIP3    H250622   6.233   2.614  -0.014  0.0062  0.4284  1.2628
 9711TIP3   OH250623   6.105   4.645  15.601 -0.1724  0.3239 -0.2048
 9711TIP3    H150624   6.038   4.641  15.668 -2.1324  3.9863 -1.8187
 9711TIP3    H250625   6.065   4.602  15.525 -0.3379  1.6930 -0.8931
 9712TIP3   OH250626   4.651   6.767  10.730 -0.4583  0.1374 -0.2418
 9712TIP3    H150627   4.572   6.742  10.682  0.0966 -0.0576 -1.0633
 9712TIP3    H250628   4.718   6.777  10.662  0.4131 -0.4449  0.5199
 9713TIP3   OH250629   2.976   2.328   2.560 -0.1971 -0.5695  0.1406
 9713TIP3    H150630   2.957   2.339   2.654 -0.3862  1.0599 -0.0705
 9713TIP3    H250631   2.925   2.251   2.534  0.5116 -1.5443  1.5521
 9714TIP3   OH250632   1.802   2.380  11.446  0.0787 -0.0002 -0.0371
 9714TIP3    H150633   1.732   2.319  11.424  0.1039 -0.5636  1.4050
 9714TIP3    H250634   1.774   2.464  11.408 -0.8934 -0.4517 -0.3250
 9715TIP3   OH250635   2.004   2.506  13.812 -0.5227 -0.1604  0.4721
 9715TIP3    H150636   2.054   2.432  13.778  0.3911  0.7803 -0.2522
 9715TIP3    H250637   1.922   2.504  13.763  0.4213  0.6456 -1.2043
 9716TIP3   OH250638   1.756   4.110  13.494  0.6312 -0.1629 -0.6348
 9716TIP3    H150639   1.802   4.137  13.574 -0.7003 -0.4884  0.2582
 9716TIP3    H250640   1.780   4.018  13.483  0.5223 -0.2216 -0.3927
 9717TIP3   OH250641   6.926   4.974   1.419  0.0461 -0.3315  0.1326
 9717TIP3    H150642   6.957   5.020   1.341  0.3806  0.8561  0.9564
 9717TIP3    H250643   6.988   4.902   1.430  0.4440 -0.0552 -0.2610
 9718TIP3   OH250644   4.276   4.034  14.275  0.4752  0.3891 -0.0719
 9718TIP3    H150645   4.333   3.957  14.269  2.0122  1.3565  1.6143
 9718TIP3    H250646   4.191   3.999  14.300  1.1293 -0.7990  0.5612
 9719TIP3   OH250647   0.069   5.064  10.607 -0.5133 -0.6480 -0.0921
 9719TIP3    H150648   0.031   5.001  10.545 -0.0205 -0.0083 -1.0650
 9719TIP3    H250649   0.024   5.146  10.586  0.6233 -0.1266 -0.5240
 9720TIP3   OH250650   4.393   7.115  15.004 -0.3438  0.2442 -0.1302
 9720TIP3    H150651   4.355   7.086  15.087 -0.1934  0.2686 -0.0539
 9720TIP3    H250652   4.384   7.210  15.005  1.0956  0.3832  0.5611
 9721TIP3   OH250653   5.768   3.668  12.483 -0.2389 -0.0911  0.2731
 9721TIP3    H150654   5.775   3.671  12.578 -1.7512 -1.7910  0.4581
 9721TIP3    H250655   5.854   3.637  12.453  0.3743  0.8388  1.0297
 9722TIP3   OH250656   3.992   4.032  13.755 -0.2837 -0.4941  0.0287
 9722TIP3    H150657   4.054   3.961  13.770 -0.5380 -0.8783 -0.7057
 9722TIP3    H250658   3.907   3.989  13.750 -0.4846 -0.0967 -0.0484
 9723TIP3   OH250659   1.296   5.596  14.311 -0.3424 -0.4611  0.5476
 9723TIP3    H150660   1.330   5.510  14.289 -1.3220 -0.2640 -1.8895
 9723TIP3    H250661   1.372   5.644  14.346  0.5113 -1.8351  0.5928
 9724TIP3   OH250662   4.372   3.611   0.170 -0.7346 -0.5901 -0.0917
 9724TIP3    H150663   4.417   3.587   0.089 -0.9761  0.9337 -0.6811
 9724TIP3    H250664   4.328   3.693   0.150 -1.4464 -0.6043  1.3536
 9725TIP3   OH250665   6.396   7.013   1.688  0.5035 -0.0230 -0.5267
 9725TIP3    H150666   6.490   7.007   1.668  0.3242 -0.6669 -1.1756
 9725TIP3    H250667   6.353   6.966   1.617 -0.1579 -2.3652  1.3521
 9726TIP3   OH250668   1.200   0.554  12.806 -0.0212  0.2768 -0.3101
 9726TIP3    H150669   1.148   0.580  12.881  2.5520 -1.0757  2.0483
 9726TIP3    H250670   1.144   0.492  12.758 -1.9339  1.6767  0.0530
 9727TIP3   OH250671   3.750   2.978   1.241 -0.2624  0.1184  0.4858
 9727TIP3    H150672   3.781   2.981   1.151 -0.4691  1.6092  0.4491
 9727TIP3    H250673   3.760   2.886   1.267 -2.4585 -0.8244 -1.8210
 9728TIP3   OH250674   0.720   4.056  15.592 -0.0904  0.0582  0.1094
 9728TIP3    H150675   0.770   4.104  15.657  0.8293  0.2162 -0.6989
 9728TIP3    H250676   0.764   3.971  15.585  2.1199  1.3426 -2.9445
 9729TIP3   OH250677   4.927   2.264  12.913 -0.6250  0.6403 -0.3820
 9729TIP3    H150678   4.858   2.205  12.946 -1.0052  1.7705  0.8639
 9729TIP3    H250679   5.005   2.208  12.908 -1.3919 -0.4146 -0.9061
 9730TIP3   OH250680   4.158   5.629  14.863  0.5835  0.2209 -0.1216
 9730TIP3    H150681   4.162   5.686  14.941  0.1001 -0.1472  0.1723
 9730TIP3    H250682   4.231   5.568  14.875  1.7268  1.3932 -0.9271
 9731TIP3   OH250683   0.811   6.157  12.308  0.4010  0.3622  0.3543
 9731TIP3    H150684   0.878   6.141  12.374 -0.4360  0.2343  1.1885
 9731TIP3    H250685   0.758   6.078  12.307 -0.3173  0.8323  0.4040
 9732TIP3   OH250686   3.216   1.923  14.620 -0.1700 -0.3222  0.3088
 9732TIP3    H150687   3.305   1.952  14.640 -0.8907  0.2350  2.8422
 9732TIP3    H250688   3.163   1.953  14.694 -2.5453 -0.3208 -1.3199
 9733TIP3   OH250689   0.238   2.935  15.004 -0.0908 -0.2421  0.5379
 9733TIP3    H150690   0.250   3.029  15.018  0.9649 -0.5749  1.9669
 9733TIP3    H250691   0.306   2.894  15.057  0.1202 -1.7847 -0.8894
 9734TIP3   OH250692   6.715   6.949  15.446 -0.8868  0.2848  0.0739
 9734TIP3    H150693   6.736   6.913  15.532 -2.1272  0.1914  0.3475
 9734TIP3    H250694   6.797   6.943  15.397 -0.1011  0.5809  1.3236
 9735TIP3   OH250695   1.030   5.839   1.539 -0.3360  0.1083 -0.2014
 9735TIP3    H150696   1.103   5.875   1.487  0.5086 -0.5365  0.5190
 9735TIP3    H250697   1.055   5.857   1.629 -1.4684  0.6017  0.0143
 9736TIP3   OH250698   6.714   4.572   9.910  0.1402  0.2264 -0.0279
 9736TIP3    H150699   6.682   4.586   9.821  1.5368 -0.2361 -0.6309
 9736TIP3    H250700   6.739   4.659   9.941  1.5285  0.1282 -0.8453
 9737TIP3   OH250701   0.827   3.615  12.102 -0.8597 -0.2274  0.0909
 9737TIP3    H150702   0.893   3.662  12.153  0.2469 -1.6636  0.0081
 9737TIP3    H250703   0.801   3.677  12.034  0.1281  0.4882  0.3509
 9738TIP3   OH250704   3.437   1.281   0.325 -0.1597 -0.4743 -0.2033
 9738TIP3    H150705   3.516   1.294   0.274 -0.1163 -0.2804 -0.0884
 9738TIP3    H250706   3.420   1.187   0.320  1.6243 -0.9730  2.0137
 9739TIP3   OH250707   3.599   0.611   0.422  0.1377  0.2115  0.1142
 9739TIP3    H150708   3.599   0.583   0.330  0.0418  0.0182  0.1741
 9739TIP3    H250709   3.656   0.688   0.423 -1.8976  1.7754 -0.6132
 9740TIP3   OH250710   3.880   0.907   0.203  0.2197  0.4848  0.1380
 9740TIP3    H150711   3.957   0.881   0.255 -0.7404 -2.0202  0.3839
 9740TIP3    H250712   3.806   0.894   0.263 -0.5353  1.6679 -0.5154
 9741TIP3   OH250713   5.594   1.313   0.653 -0.1840  0.8239 -0.0039
 9741TIP3    H150714   5.518   1.305   0.596 -0.0209 -0.3856 -0.0691
 9741TIP3    H250715   5.646   1.235   0.635  0.6924  1.2600  0.5958
 9742TIP3   OH250716   2.104   6.513  14.254 -0.3106  0.0441 -0.1288
 9742TIP3    H150717   2.146   6.591  14.289  3.6567 -2.3979  0.9086
 9742TIP3    H250718   2.139   6.505  14.165 -2.2882  0.5106 -0.9748
 9743TIP3   OH250719   7.074   1.182   2.016 -0.3445  0.2602 -0.6821
 9743TIP3    H150720   7.043   1.200   2.104 -2.1872 -1.8947 -0.8522
 9743TIP3    H250721   7.093   1.089   2.016  1.8120  0.6689 -1.9322
 9744TIP3   OH250722   6.042   1.421   2.715 -0.6817 -0.3678 -0.3803
 9744TIP3    H150723   6.098   1.472   2.656 -0.6241  0.4646  0.3797
 9744TIP3    H250724   6.010   1.349   2.661  0.6353 -0.5129 -0.9978
 9745TIP3   OH250725   2.395   0.283   3.326 -0.3912 -0.3975  0.0607
 9745TIP3    H150726   2.459   0.303   3.257 -0.1989  1.2367  0.6746
 9745TIP3    H250727   2.370   0.192   3.310  0.2291 -0.2928 -1.6978
 9746TIP3   OH250728   3.036   5.182   0.399 -0.1316 -0.0371  0.0947
 9746TIP3    H150729   3.007   5.272   0.385 -0.2625 -0.2911 -1.4057
 9746TIP3    H250730   2.976   5.129   0.345 -1.4688 -1.2411  2.6490
 9747TIP3   OH250731   3.163   3.496   3.227 -0.0245  0.1542  0.0108
 9747TIP3    H150732   3.217   3.535   3.158  0.8108 -1.6521 -0.3803
 9747TIP3    H250733   3.104   3.567   3.253  0.8574  1.4146 -1.2872
 9748TIP3   OH250734   1.077   5.835   5.691 -0.3531  0.0850 -0.2351
 9748TIP3    H150735   1.065   5.903   5.624  0.8073 -0.5556 -1.1098
 9748TIP3    H250736   1.046   5.876   5.772 -1.0469  1.1417 -1.0198
 9749TIP3   OH250737   1.957   5.786   0.950 -0.4322  0.5277 -0.1029
 9749TIP3    H150738   1.899   5.714   0.925  1.4867 -0.8927 -0.6437
 9749TIP3    H250739   1.948   5.850   0.879  0.4262 -0.7695 -1.4293
 9750TIP3   OH250740   1.858   1.324  12.420 -0.2953 -0.2377 -0.8306
 9750TIP3    H150741   1.946   1.354  12.440  0.4349 -2.3737 -0.7536
 9750TIP3    H250742   1.870   1.243  12.371 -2.2128 -0.7430 -0.5322
 9751TIP3   OH250743   5.531   0.207  13.247 -0.4274  0.0269 -0.2856
 9751TIP3    H150744   5.514   0.131  13.304 -0.4059  0.7517  0.7035
 9751TIP3    H250745   5.463   0.270  13.272 -1.9581 -0.5619 -2.7896
 9752TIP3   OH250746   4.933   6.155   2.788  0.6104  0.3368  0.1113
 9752TIP3    H150747   4.985   6.235   2.776  1.2811  0.1360  1.5520
 9752TIP3    H250748   4.988   6.100   2.844 -0.2197 -0.7827 -0.1766
 9753TIP3   OH250749   2.796   3.998   3.673  0.1060  0.8748 -0.3766
 9753TIP3    H150750   2.737   4.000   3.598  0.6118  0.1734 -0.8127
 9753TIP3    H250751   2.881   4.022   3.637  0.2128  1.2465  0.1159
 9754TIP3   OH250752   6.027   2.915   1.234  0.0106 -0.4083 -0.3148
 9754TIP3    H150753   6.021   2.909   1.329  2.5000  0.9260 -0.0316
 9754TIP3    H250754   6.041   2.825   1.205  1.4213 -0.5532  0.7779
 9755TIP3   OH250755   0.492   2.999  11.737 -0.1341  0.7064  1.3115
 9755TIP3    H150756   0.555   3.057  11.694 -2.8333  1.3642 -1.9775
 9755TIP3    H250757   0.436   3.058  11.788 -0.8703  0.6417  0.5840
 9756TIP3   OH250758   3.058   5.761   3.534 -0.5324 -0.3409  0.7808
 9756TIP3    H150759   3.000   5.697   3.574  0.6572 -1.8576  0.1582
 9756TIP3    H250760   3.144   5.717   3.532 -0.1070  0.5246 -1.3776
 9757TIP3   OH250761   5.196   2.112   1.432 -0.0151  0.1623 -0.4674
 9757TIP3    H150762   5.128   2.084   1.493 -1.2773 -0.3325 -2.0553
 9757TIP3    H250763   5.180   2.061   1.353  0.0849  2.5084 -2.0722
 9758TIP3   OH250764   5.651   0.178  10.148  0.2698 -0.0756 -0.3852
 9758TIP3    H150765   5.716   0.108  10.143  0.1887 -0.1025 -1.2498
 9758TIP3    H250766   5.594   0.163  10.072 -0.6247  0.0657  0.2579
 9759TIP3   OH250767   1.332   4.473  12.025 -0.3768 -0.2370 -0.0888
 9759TIP3    H150768   1.405   4.411  12.022 -0.1460  0.0714 -1.0591
 9759TIP3    H250769   1.270   4.440  11.960 -0.0914  0.7548 -0.8654
 9760TIP3   OH250770   4.881   0.818  15.306 -0.4592 -0.4836 -0.1646
 9760TIP3    H150771   4.970   0.853  15.300 -0.1288 -1.3516 -0.4621
 9760TIP3    H250772   4.850   0.844  15.392  0.3951 -0.9042  0.2710
 9761TIP3   OH250773   5.839   2.850   4.086  0.2753  0.1423  0.8360
 9761TIP3    H150774   5.754   2.818   4.117  0.3014 -0.9358 -0.1379
 9761TIP3    H250775   5.819   2.887   3.999  1.2342 -2.6365 -0.6259
 9762TIP3   OH250776   5.160   2.442   3.122  0.8760  0.7180  0.0207
 9762TIP3    H150777   5.085   2.430   3.064 -0.5801  0.1656  1.9389
 9762TIP3    H250778   5.229   2.476   3.066 -0.5665  0.4881 -1.9564
 9763TIP3   OH250779   1.692   1.242  14.401  0.6614 -0.3215 -0.2673
 9763TIP3    H150780   1.680   1.202  14.315  0.8654 -0.3507 -0.2840
 9763TIP3    H250781   1.667   1.174  14.463 -0.4224  0.0261 -0.3214
 9764TIP3   OH250782   0.214   4.770   1.532  0.6908 -0.0790  0.0642
 9764TIP3    H150783   0.182   4.760   1.443  1.4964  0.4356 -0.2775
 9764TIP3    H250784   0.281   4.702   1.542  0.5454 -0.1907  0.3079
 9765TIP3   OH250785   1.387   3.932   4.325 -0.3763  0.2819  0.0789
 9765TIP3    H150786   1.465   3.878   4.338  0.0056  0.8519  0.1963
 9765TIP3    H250787   1.322   3.895   4.384  0.4813  1.1301  1.6370
 9766TIP3   OH250788   0.397   2.827  11.980  0.0206 -0.1586  0.1191
 9766TIP3    H150789   0.489   2.808  11.965 -0.1197  0.2235 -1.3495
 9766TIP3    H250790   0.397   2.895  12.047  0.9628  1.7818 -1.7657
 9767TIP3   OH250791   2.037   2.984   0.550  0.2898  0.5327 -0.0280
 9767TIP3    H150792   2.046   2.931   0.470 -0.7930 -0.6226  0.5964
 9767TIP3    H250793   1.997   3.065   0.519 -0.4505 -0.0428 -0.6287
 9768TIP3   OH250794   2.652   6.469   2.920 -0.0145 -0.0512 -0.2675
 9768TIP3    H150795   2.670   6.451   3.012  1.0114  0.0903 -0.4333
 9768TIP3    H250796   2.556   6.462   2.912 -0.3374  2.2312  1.2874
 9769TIP3   OH250797   5.653   4.675   2.839 -0.7116  0.6207 -0.4106
 9769TIP3    H150798   5.561   4.667   2.814 -0.7974  1.6299 -0.4583
 9769TIP3    H250799   5.701   4.656   2.758 -0.9339  1.9017 -0.8569
 9770TIP3   OH250800   0.514   0.541  13.902  0.2241 -0.0969  0.0779
 9770TIP3    H150801   0.487   0.449  13.911  0.2787 -0.2448 -1.1759
 9770TIP3    H250802   0.433   0.591  13.912 -0.3165 -0.4615 -2.3342
 9771TIP3   OH250803   0.398   0.666  15.123 -0.1951 -0.1901  0.3645
 9771TIP3    H150804   0.444   0.656  15.207  1.3080 -1.9845 -0.6440
 9771TIP3    H250805   0.442   0.739  15.080 -0.0783 -0.1541  0.5443
 9772TIP3   OH250806   6.720   0.423  15.175  0.5840  0.3368 -0.5688
 9772TIP3    H150807   6.672   0.462  15.103  0.0706  0.5249 -0.1264
 9772TIP3    H250808   6.810   0.415  15.143  0.5562  1.2961 -0.8883
 9773TIP3   OH250809   0.436   0.371   0.389  0.1542 -0.4425 -0.2989
 9773TIP3    H150810   0.522   0.404   0.414 -0.6062  0.5893  0.9784
 9773TIP3    H250811   0.451   0.278   0.368  1.2411 -0.7247  1.6555
 9774TIP3   OH250812   1.190   0.688  14.325 -0.7370  0.4790 -0.5346
 9774TIP3    H150813   1.169   0.601  14.357  0.3962  0.1225 -0.7416
 9774TIP3    H250814   1.199   0.742  14.404  2.6535 -0.5299 -0.1664
 9775TIP3   OH250815   6.257   1.623   3.398 -0.4214 -0.0328  0.5503
 9775TIP3    H150816   6.226   1.708   3.366 -0.2908 -0.6646 -1.2801
 9775TIP3    H250817   6.200   1.603   3.472  0.2449  2.1547  1.7122
 9776TIP3   OH250818   2.494   0.072  13.799 -0.1193  0.1134 -0.2901
 9776TIP3    H150819   2.534   0.106  13.879  2.5303 -1.6555 -0.8232
 9776TIP3    H250820   2.401   0.066  13.820  0.3929  0.6148  2.3108
 9777TIP3   OH250821   0.976   6.097  12.519  0.3280 -0.0631  0.3965
 9777TIP3    H150822   1.068   6.096  12.544  0.3899  0.2631  0.1797
 9777TIP3    H250823   0.950   6.005  12.521  0.6193 -0.1448  0.5943
 9778TIP3   OH250824   7.095   6.518   2.641  0.4701  0.3850 -0.4904
 9778TIP3    H150825   7.066   6.544   2.554  0.7095 -3.0554 -1.6661
 9778TIP3    H250826   7.191   6.522   2.637  0.4531  1.2947 -0.0290
 9779TIP3   OH250827   2.962   6.104   1.494  0.4649  0.2634  0.0309
 9779TIP3    H150828   2.977   6.036   1.559 -0.0489  1.0087  0.9329
 9779TIP3    H250829   2.888   6.073   1.443  1.1047 -0.4956 -0.4423
 9780TIP3   OH250830   1.810   5.282   1.516  0.1622  0.0769  0.8528
 9780TIP3    H150831   1.895   5.271   1.560  0.6091 -0.2297 -0.0812
 9780TIP3    H250832   1.746   5.257   1.582  0.8474 -0.8005  1.2070
 9781TIP3   OH250833   4.010   1.799  14.034 -0.3727 -0.8922 -0.2242
 9781TIP3    H150834   4.041   1.820  14.122  1.7829 -2.9032 -0.4532
 9781TIP3    H250835   4.075   1.838  13.975 -2.3389  1.3072 -0.9757
 9782TIP3   OH250836   5.382   5.525   0.464  0.7366  0.2847 -0.3660
 9782TIP3    H150837   5.364   5.597   0.525 -1.5406 -0.2943 -0.3148
 9782TIP3    H250838   5.394   5.448   0.519 -0.0043  0.0158 -0.5717
 9783TIP3   OH250839   1.774   3.256  14.502  0.5093 -0.0999 -0.4601
 9783TIP3    H150840   1.869   3.254  14.508  0.5443  0.0551 -0.9279
 9783TIP3    H250841   1.755   3.322  14.435  0.0610  0.1302 -0.1142
 9784TIP3   OH250842   0.204   3.148   1.216 -0.6937 -0.0078 -0.0423
 9784TIP3    H150843   0.292   3.153   1.178 -0.4599  0.0405  0.4891
 9784TIP3    H250844   0.220   3.132   1.309 -1.2622 -0.9735 -0.0969
 9785TIP3   OH250845   2.869   5.821  15.395 -0.6696 -0.1952  0.3114
 9785TIP3    H150846   2.930   5.865  15.454  0.6178 -1.8263  0.2380
 9785TIP3    H250847   2.789   5.810  15.447 -0.1740  0.0331  1.1365
 9786TIP3   OH250848   3.229   2.631   0.088 -0.2483  0.6169 -0.6762
 9786TIP3    H150849   3.159   2.687   0.055  0.1722  2.7234  1.7976
 9786TIP3    H250850   3.189   2.584   0.162  0.3493  0.2103 -0.6078
 9787TIP3   OH250851   3.692   3.124  15.457 -0.5330 -0.1711  0.1135
 9787TIP3    H150852   3.718   3.213  15.432  0.7283 -0.3233  0.8549
 9787TIP3    H250853   3.618   3.137  15.518 -0.8418  0.3374 -0.3642
 9788TIP3   OH250854   4.261   3.144   2.741 -0.0267 -0.1249  0.0114
 9788TIP3    H150855   4.238   3.089   2.816  1.1700 -0.4346  0.1593
 9788TIP3    H250856   4.301   3.084   2.678  0.8152  0.4738 -0.0377
 9789TIP3   OH250857   5.357   2.734  14.733  0.5377 -0.7143 -0.2567
 9789TIP3    H150858   5.438   2.748  14.783  0.4039  2.7179 -0.8855
 9789TIP3    H250859   5.288   2.737  14.799  0.5660  1.2127 -0.2932
 9790TIP3   OH250860   5.940   6.629   1.518  0.0852 -0.3678  0.1895
 9790TIP3    H150861   5.968   6.716   1.546 -0.5704 -0.1578  0.2019
 9790TIP3    H250862   5.999   6.569   1.563  0.0510  0.0389  0.7779
 9791TIP3   OH250863   4.653   2.375  13.224  0.6260  0.3122 -0.3345
 9791TIP3    H150864   4.726   2.435  13.239  2.4223 -1.7569 -0.5309
 9791TIP3    H250865   4.626   2.346  13.312  2.2287 -1.4305 -0.3950
 9792TIP3   OH250866   0.683   0.624   2.027  0.3353 -0.1103 -0.3708
 9792TIP3    H150867   0.650   0.704   2.066 -1.0136  0.2575 -2.2189
 9792TIP3    H250868   0.734   0.582   2.097 -0.3734  1.4905  1.1251
 9793TIP3   OH250869   4.035   1.584  13.268  0.0868  0.0720  0.2599
 9793TIP3    H150870   4.111   1.625  13.309 -0.1318  1.3324 -0.5750
 9793TIP3    H250871   4.071   1.525  13.203  0.3781 -0.1010  0.5829
 9794TIP3   OH250872   2.749   0.494  14.136  0.4585  0.5832  0.4106
 9794TIP3    H150873   2.753   0.589  14.151 -0.2885  0.4839  1.3402
 9794TIP3    H250874   2.686   0.463  14.201 -0.5070 -0.3456 -0.9450
 9795TIP3   OH250875   3.576   6.553   1.046  0.3815  0.5647 -0.4017
 9795TIP3    H150876   3.533   6.587   1.124 -0.3903  0.1256 -0.6361
 9795TIP3    H250877   3.615   6.631   1.004  1.8518  0.6542  1.0470
 9796TIP3   OH250878   6.890   7.124   3.421 -0.1435 -0.1628  0.5009
 9796TIP3    H150879   6.805   7.107   3.462 -0.6869 -0.0080 -0.5427
 9796TIP3    H250880   6.915   7.040   3.383 -0.2756  0.0174  0.0076
 9797TIP3   OH250881   1.885   6.829   1.818  0.1692 -0.0139 -0.3993
 9797TIP3    H150882   1.949   6.761   1.799  3.0489  1.5881  3.0168
 9797TIP3    H250883   1.818   6.785   1.870  0.5963 -0.8244 -0.5267
 9798TIP3   OH250884   4.252   4.488  12.794  0.3493  0.3394 -0.6243
 9798TIP3    H150885   4.251   4.510  12.701  0.6205  2.3995 -0.1599
 9798TIP3    H250886   4.301   4.559  12.836  2.1697 -1.6879  0.8272
 9799TIP3   OH250887   0.087   2.583  15.466  0.6576 -0.0618  0.2876
 9799TIP3    H150888   0.149   2.515  15.442  0.3182 -0.6802  1.1330
 9799TIP3    H250889   0.108   2.656  15.409  1.6101 -0.5618 -0.0087
 9800TIP3   OH250890   0.104   5.848   0.107  0.2516  0.1590  0.4592
 9800TIP3    H150891   0.123   5.926   0.159  2.3537 -0.4340  0.6289
 9800TIP3    H250892   0.182   5.793   0.117 -1.2511 -2.0304  0.4380
 9801TIP3   OH250893   0.227   1.801   4.526 -0.2560 -0.5450  0.1054
 9801TIP3    H150894   0.266   1.863   4.464 -2.3494  0.3582 -0.3758
 9801TIP3    H250895   0.232   1.845   4.611  1.0719 -1.0617  0.3083
 9802TIP3   OH250896   6.884   1.086   0.877  0.1711 -0.4711 -0.0861
 9802TIP3    H150897   6.887   1.056   0.968 -0.2830  1.3018  0.5528
 9802TIP3    H250898   6.797   1.061   0.846 -0.6157  1.1142  0.7901
 9803TIP3   OH250899   2.628   6.409  14.658  0.6518 -0.1485 -0.4299
 9803TIP3    H150900   2.685   6.358  14.716 -0.7526  1.2930  2.3097
 9803TIP3    H250901   2.671   6.494  14.652  0.7398 -0.2627 -1.4775
 9804TIP3   OH250902   1.795   3.932   2.134  0.4348 -0.9470  0.8106
 9804TIP3    H150903   1.771   4.025   2.132 -0.1156 -1.1014  0.2737
 9804TIP3    H250904   1.717   3.886   2.103  1.1002 -1.5206 -0.0359
 9805TIP3   OH250905   2.580   0.205  14.563  0.2366 -0.1597  0.0128
 9805TIP3    H150906   2.610   0.120  14.532 -1.7206 -0.8164 -0.1996
 9805TIP3    H250907   2.486   0.193  14.577 -0.0533  1.9503  0.0527
 9806TIP3   OH250908   0.731   3.580  15.216  0.2723  0.0122  0.0492
 9806TIP3    H150909   0.654   3.626  15.181 -0.1686  0.5151  1.6338
 9806TIP3    H250910   0.740   3.503  15.160 -1.0503  0.2493 -0.5140
 9807TIP3   OH250911   3.964   0.432  14.323  1.0348 -0.2826  0.1479
 9807TIP3    H150912   3.993   0.348  14.361  2.9884 -0.2212 -1.1116
 9807TIP3    H250913   3.870   0.421  14.311  1.0842 -1.9117  0.9872
 9808TIP3   OH250914   4.716   6.055  14.996 -0.2877 -0.2796 -0.1175
 9808TIP3    H150915   4.810   6.046  14.982 -0.2759  0.3642 -0.4881
 9808TIP3    H250916   4.705   6.053  15.091  0.1214 -0.1297 -0.0675
 9809TIP3   OH250917   6.955   4.473  12.457 -0.0785  0.4430  0.5448
 9809TIP3    H150918   6.897   4.439  12.525 -1.0649  1.7513  0.3714
 9809TIP3    H250919   7.008   4.539  12.501  0.0286  0.5275  0.2910
 9810TIP3   OH250920   0.509   0.157   3.125 -0.6809 -0.1651 -0.1998
 9810TIP3    H150921   0.486   0.245   3.156  2.3635  0.5317  0.2607
 9810TIP3    H250922   0.507   0.102   3.204  0.3234  0.1440  0.0492
 9811TIP3   OH250923   0.643   6.935  12.846 -0.3755 -0.8384 -0.3060
 9811TIP3    H150924   0.672   6.859  12.795 -2.1727 -0.8857 -1.3141
 9811TIP3    H250925   0.648   6.907  12.937 -1.5297 -2.3890 -0.6835
 9812TIP3   OH250926   2.969   3.295  15.256  0.5822 -0.5897  0.1168
 9812TIP3    H150927   3.017   3.299  15.339 -1.0785 -1.9420  1.1827
 9812TIP3    H250928   2.940   3.204  15.250 -3.6582  0.5895  0.6064
 9813TIP3   OH250929   7.092   4.466   1.868  0.0287 -0.4972 -0.0824
 9813TIP3    H150930   7.055   4.412   1.938  0.7326 -2.5542 -1.2540
 9813TIP3    H250931   7.130   4.403   1.807  1.5605  1.3774 -1.1121
 9814TIP3   OH250932   0.924   3.711  15.366  0.4378  0.1356 -0.3136
 9814TIP3    H150933   1.000   3.675  15.320  1.2240  0.9483  0.3247
 9814TIP3    H250934   0.848   3.674  15.321  1.2145 -0.6563 -0.9820
 9815TIP3   OH250935   3.278   5.188   0.786  0.4443 -0.3352 -0.7513
 9815TIP3    H150936   3.230   5.182   0.868  1.5687 -1.5284 -0.1625
 9815TIP3    H250937   3.257   5.106   0.741  0.4931 -0.0540 -1.2866
 9816TIP3   OH250938   0.311   5.240   3.583  0.2727 -0.5007 -0.0410
 9816TIP3    H150939   0.371   5.311   3.560  0.1118  0.3825  2.1071
 9816TIP3    H250940   0.224   5.275   3.564  0.0813  0.5695  2.6233
 9817TIP3   OH250941   2.125   6.956   2.805 -0.0652 -1.2597 -0.3433
 9817TIP3    H150942   2.213   6.920   2.812 -0.0841 -1.0693  1.0523
 9817TIP3    H250943   2.131   7.020   2.734  1.0845 -0.7818  0.1703
 9818TIP3   OH250944   3.319   2.741   0.617 -0.2829  0.9237  0.0256
 9818TIP3    H150945   3.348   2.764   0.529  0.5718 -2.4047 -0.6275
 9818TIP3    H250946   3.227   2.715   0.605 -0.3178  0.9556  0.2260
 9819TIP3   OH250947   0.144   1.153  14.614  0.4740  0.7705  0.4007
 9819TIP3    H150948   0.058   1.154  14.573  0.8231  1.1675 -0.3447
 9819TIP3    H250949   0.127   1.177  14.706 -0.4010 -0.9182  0.6920
 9820TIP3   OH250950   5.664   0.503   0.373  0.3234 -0.2463 -0.0677
 9820TIP3    H150951   5.615   0.456   0.306 -0.0950 -1.0186  0.7764
 9820TIP3    H250952   5.662   0.594   0.344  0.5136 -0.6260 -1.3219
 9821TIP3   OH250953   4.617   1.593  15.283 -0.2696  0.4171  0.4930
 9821TIP3    H150954   4.537   1.578  15.333 -0.4151 -1.4697 -0.2579
 9821TIP3    H250955   4.688   1.579  15.346 -0.4575 -1.7379  0.2590
 9822TIP3   OH250956   2.367   0.547  14.474 -0.0004  0.2002  0.0890
 9822TIP3    H150957   2.437   0.575  14.415  0.1849 -1.4701 -0.4929
 9822TIP3    H250958   2.402   0.562  14.562  1.0726 -0.5604 -0.1991
 9823TIP3   OH250959   1.223   6.543   0.486  0.5050 -0.3103  0.1514
 9823TIP3    H150960   1.225   6.614   0.549  2.1314 -0.2019 -0.0066
 9823TIP3    H250961   1.200   6.465   0.537 -0.6929  0.2077  0.4199
 9824TIP3   OH250962   3.048   4.334   3.700 -0.6091  0.2350  0.6156
 9824TIP3    H150963   2.953   4.344   3.696 -0.4197  2.1654  0.0917
 9824TIP3    H250964   3.080   4.383   3.624  0.8052 -0.3258  0.8344
 9825TIP3   OH250965   1.054   1.296   0.631  0.4378  0.0929  0.7751
 9825TIP3    H150966   1.018   1.384   0.644 -0.8166 -0.2533 -0.1955
 9825TIP3    H250967   1.061   1.259   0.719 -0.3202  0.6830  1.0845
 9826TIP3   OH250968   3.873   0.583  12.339  0.2790 -0.0184  0.1870
 9826TIP3    H150969   3.941   0.648  12.354  0.0479  0.2869 -0.0728
 9826TIP3    H250970   3.894   0.512  12.399  1.2394 -0.2498 -0.4164
 9827TIP3   OH250971   5.716   1.991  15.238 -0.0984 -0.2584 -0.2877
 9827TIP3    H150972   5.715   2.087  15.234  0.6729 -0.1274  1.9259
 9827TIP3    H250973   5.764   1.964  15.159 -0.1563  1.1744 -0.8326
 9828TIP3   OH250974   5.322   3.382   0.592  0.5161  0.0567  0.5268
 9828TIP3    H150975   5.402   3.406   0.638  0.4110  2.4352 -0.4531
 9828TIP3    H250976   5.345   3.389   0.499 -0.7234  0.3984  0.2383
 9829TIP3   OH250977   2.440   2.654   2.202 -0.9458  0.6219  0.1907
 9829TIP3    H150978   2.385   2.725   2.169  0.4109  1.6198  0.0448
 9829TIP3    H250979   2.495   2.629   2.128  0.7555  1.5456  1.1281
 9830TIP3   OH250980   2.589   0.811   0.227  0.4641  0.1894  0.2560
 9830TIP3    H150981   2.665   0.840   0.177 -0.9920  1.6998 -1.1341
 9830TIP3    H250982   2.591   0.864   0.307  1.3870 -0.4462  0.6593
 9831TIP3   OH250983   7.098   1.700  14.756  0.2793  0.0564 -0.5002
 9831TIP3    H150984   7.019   1.670  14.711  1.6649 -2.0721 -1.5842
 9831TIP3    H250985   7.085   1.674  14.847 -0.3391 -0.1349 -0.6405
 9832TIP3   OH250986   0.533   1.680  14.412 -0.6021 -0.3214 -0.5644
 9832TIP3    H150987   0.539   1.633  14.329 -0.5757 -0.9880 -0.1929
 9832TIP3    H250988   0.446   1.721  14.411 -1.0940 -1.3363 -0.4056
 9833TIP3   OH250989   5.578   5.200  15.164  0.2692  0.2688  0.2026
 9833TIP3    H150990   5.663   5.169  15.194 -0.4156 -0.1967  1.6827
 9833TIP3    H250991   5.517   5.130  15.187 -0.7629  1.2741  0.5710
 9834TIP3   OH250992   5.210   1.098  15.522 -0.4451  0.0182  0.2709
 9834TIP3    H150993   5.202   1.006  15.495 -1.5425  0.6629 -1.6884
 9834TIP3    H250994   5.284   1.131  15.470 -1.4100  0.7931 -0.6189
 9835TIP3   OH250995   4.593   1.554   4.130 -0.1643  0.0007 -0.3280
 9835TIP3    H150996   4.540   1.634   4.129 -0.3813 -0.1184  1.1457
 9835TIP3    H250997   4.683   1.585   4.122 -0.1717  0.4701  1.2728
 9836TIP3   OH250998   0.019   6.637  14.346  0.1195  0.3884  0.6210
 9836TIP3    H150999   0.069   6.563  14.379 -1.7059 -0.6777  1.0547
 9836TIP3    H251000   0.062   6.661  14.264  1.1363 -0.7128  0.8265
 9837TIP3   OH251001   2.241   1.224  14.822  0.7028  0.2886 -0.1633
 9837TIP3    H151002   2.311   1.269  14.870  0.7800  1.0497 -0.9692
 9837TIP3    H251003   2.188   1.295  14.786  0.0105 -0.2846 -0.2842
 9838TIP3   OH251004   7.122   0.348  14.842  0.4568 -0.2829  0.0804
 9838TIP3    H151005   7.176   0.417  14.803  0.1247  0.0678  0.2383
 9838TIP3    H251006   7.034   0.384  14.842  0.5175 -0.1166  1.5342
 9839TIP3   OH251007   6.156   4.084  15.105  0.7408 -0.3277 -0.2194
 9839TIP3    H151008   6.185   4.103  15.016 -0.3149  0.6153 -0.3672
 9839TIP3    H251009   6.111   4.000  15.098 -0.5294  0.3919 -0.8377
 9840TIP3   OH251010   1.708   1.257  11.372 -0.1120 -0.0302 -0.4526
 9840TIP3    H151011   1.676   1.347  11.366  1.1238  0.3605 -1.6121
 9840TIP3    H251012   1.655   1.217  11.440 -0.6265  1.6035  0.1426
 9841TIP3   OH251013   5.486   6.236   1.814 -0.0496 -0.3421  0.4437
 9841TIP3    H151014   5.417   6.176   1.844  0.6181 -0.4699  1.7639
 9841TIP3    H251015   5.568   6.191   1.834  0.4400  0.1648 -0.3753
 9842TIP3   OH251016   3.679   0.868   0.745  0.4116 -0.1581 -0.2521
 9842TIP3    H151017   3.673   0.775   0.724 -2.0235 -0.3832  1.3079
 9842TIP3    H251018   3.611   0.909   0.692 -0.9661  0.2213  1.7673
 9843TIP3   OH251019   2.433   3.140  13.535  0.7564 -0.5729 -0.2102
 9843TIP3    H151020   2.348   3.095  13.540  0.8841 -0.8127 -0.1856
 9843TIP3    H251021   2.496   3.070  13.519  1.1229 -0.5803  1.1988
 9844TIP3   OH251022   6.570   1.724  15.035  0.1718 -0.2725  0.6236
 9844TIP3    H151023   6.578   1.723  15.130  0.8076 -1.6296  0.5657
 9844TIP3    H251024   6.646   1.674  15.004  0.6921  1.2619 -0.6422
 9845TIP3   OH251025   4.506   1.901  13.789 -0.0470  0.3080  0.0082
 9845TIP3    H151026   4.582   1.943  13.749 -0.7126  0.6902 -0.8694
 9845TIP3    H251027   4.432   1.931  13.737 -0.8820  0.4551  1.2522
 9846TIP3   OH251028   0.035   3.613  14.179  0.0834  0.4563  0.1866
 9846TIP3    H151029   0.086   3.558  14.239  0.5414  0.8438  0.1533
 9846TIP3    H251030  -0.056   3.583  14.191  0.2527  0.0975  0.6037
 9847TIP3   OH251031   0.053   6.469   0.987  0.0857 -0.1460 -0.2007
 9847TIP3    H151032   0.034   6.437   1.075  0.8180 -0.0915 -0.0221
 9847TIP3    H251033   0.140   6.434   0.967 -1.5934 -3.3155 -2.3544
 9848TIP3   OH251034   5.026   4.042  14.301 -0.3420  0.7395  0.4110
 9848TIP3    H151035   5.109   4.042  14.348 -0.6541 -0.3222  0.9606
 9848TIP3    H251036   4.989   3.956  14.317 -1.6684  1.2955  0.3723
 9849TIP3   OH251037   5.439   6.731  11.167 -0.3800  0.5282 -0.2372
 9849TIP3    H151038   5.521   6.733  11.117 -0.2394 -1.2327 -0.1013
 9849TIP3    H251039   5.371   6.743  11.101 -0.0402  1.4077 -0.4296
 9850TIP3   OH251040   3.500   3.922  14.311 -0.4219 -0.5128 -0.0634
 9850TIP3    H151041   3.427   3.917  14.249 -0.6011 -0.6776  0.1564
 9850TIP3    H251042   3.541   3.835  14.306 -2.1314 -1.4937  2.0816
 9851TIP3   OH251043   2.488   1.055   0.100  0.9075 -0.2738  0.1938
 9851TIP3    H151044   2.477   0.991   0.170  1.3965  0.4223  0.9129
 9851TIP3    H251045   2.404   1.101   0.096  1.4741  0.8853  1.5252
 9852TIP3   OH251046   4.247   2.737   0.628 -0.0741 -0.3221 -0.1860
 9852TIP3    H151047   4.274   2.647   0.609  1.2771 -0.3310  1.6308
 9852TIP3    H251048   4.304   2.791   0.573  1.5292 -0.4801  1.2501
 9853TIP3   OH251049   5.677   0.135   0.915  0.6107  0.0922 -0.3049
 9853TIP3    H151050   5.651   0.073   0.984 -1.6929  0.6396 -0.6474
 9853TIP3    H251051   5.688   0.218   0.962  2.6198 -0.3220 -0.0235
 9854TIP3   OH251052   0.569   3.999   0.760  0.5173 -0.1815 -0.2364
 9854TIP3    H151053   0.610   4.085   0.752  1.6472 -0.8240 -1.5496
 9854TIP3    H251054   0.637   3.944   0.801 -0.4181 -0.2950  1.1767
 9855TIP3   OH251055   5.695   2.179   2.305  0.1106 -0.3655 -0.1626
 9855TIP3    H151056   5.785   2.161   2.276 -0.1939  0.1723 -1.4301
 9855TIP3    H251057   5.658   2.092   2.322 -0.0569 -0.7712 -2.4495
 9856TIP3   OH251058   1.677   5.858  15.514 -0.6901  0.1708  0.0353
 9856TIP3    H151059   1.746   5.922  15.528  0.1390 -0.3198 -1.6594
 9856TIP3    H251060   1.663   5.818  15.600  1.8978 -0.4910  0.1822
 9857TIP3   OH251061   6.458   4.301  14.200  0.0920  0.5010 -0.0544
 9857TIP3    H151062   6.537   4.348  14.226  0.8374 -1.1684  0.8275
 9857TIP3    H251063   6.386   4.353  14.235  0.8801  1.1272  0.6541
 9858TIP3   OH251064   6.487   4.651  13.733 -0.4182  0.1551  0.2883
 9858TIP3    H151065   6.495   4.562  13.698 -1.1538  0.8084 -1.6315
 9858TIP3    H251066   6.548   4.702  13.679 -0.9628  1.0394  0.5156
 9859TIP3   OH251067   5.735   2.366   2.511 -0.6739 -0.0148 -0.4897
 9859TIP3    H151068   5.693   2.313   2.443 -1.0414  0.4481 -0.6238
 9859TIP3    H251069   5.763   2.302   2.576 -2.8134 -0.2313  0.2647
 9860TIP3   OH251070   0.313   7.031  15.001  0.2843  0.7707 -0.3884
 9860TIP3    H151071   0.274   7.026  15.088  0.8034  0.1556 -0.1923
 9860TIP3    H251072   0.326   7.124  14.985  0.1304  0.8843  0.1625
 9861TIP3   OH251073   2.649   5.428  15.540  0.1926 -0.0539  0.3310
 9861TIP3    H151074   2.566   5.393  15.573  0.5520 -0.5655  0.7020
 9861TIP3    H251075   2.624   5.501  15.484 -0.4491  0.6364  1.5045
 9862TIP3   OH251076   0.763   6.358   1.838 -0.4269 -0.2281 -0.3200
 9862TIP3    H151077   0.756   6.396   1.925  0.9192  1.1931 -0.8089
 9862TIP3    H251078   0.674   6.363   1.802 -0.6872  0.5299  0.4265
 9863TIP3   OH251079   4.313   3.858   5.269  0.1431  0.2256  0.3381
 9863TIP3    H151080   4.271   3.909   5.338  0.4269 -0.0155  0.6867
 9863TIP3    H251081   4.240   3.831   5.212 -0.0390  0.7808  0.3084
 9864TIP3   OH251082   5.645   0.725   2.440 -0.5360  0.0964  0.3645
 9864TIP3    H151083   5.717   0.744   2.500  1.6589  1.6857 -2.6132
 9864TIP3    H251084   5.598   0.807   2.431 -0.5271  0.0188 -0.4605
 9865TIP3   OH251085   3.753   3.400   1.852 -0.4796  0.0895  0.5086
 9865TIP3    H151086   3.811   3.471   1.880 -0.8578  1.0188 -1.0428
 9865TIP3    H251087   3.812   3.335   1.814 -0.3190  0.3917  0.2418
 9866TIP3   OH251088   5.802   5.166   4.482  0.4357  0.0671 -0.1379
 9866TIP3    H151089   5.763   5.093   4.529 -0.2541  1.1254  0.9658
 9866TIP3    H251090   5.807   5.136   4.391 -3.3827  0.0336 -0.4088
 9867TIP3   OH251091   7.184   2.299   0.425  0.5977 -0.2219  0.2405
 9867TIP3    H151092   7.216   2.214   0.393  0.8356  1.2084 -3.5781
 9867TIP3    H251093   7.263   2.350   0.441  0.4217 -0.1042  0.7243
 9868TIP3   OH251094   0.402   6.138   2.143  0.2378  0.4276  0.1859
 9868TIP3    H151095   0.350   6.069   2.185 -1.8300  1.3643 -0.7711
 9868TIP3    H251096   0.404   6.209   2.207  0.2514  0.4333  0.1786
 9869TIP3   OH251097   6.105   1.688   2.020  1.0991  0.6847  0.3960
 9869TIP3    H151098   6.098   1.647   1.934 -2.5368  2.1002 -0.0628
 9869TIP3    H251099   6.088   1.618   2.083  0.3533  0.3521 -0.1734
 9870TIP3   OH251100   0.578   2.578  13.126  0.1975  0.5789 -1.3759
 9870TIP3    H151101   0.645   2.646  13.117  0.2256  0.5164 -1.6493
 9870TIP3    H251102   0.508   2.620  13.175  0.5303  0.5766 -0.8979
 9871TIP3   OH251103   4.741   0.453  12.934 -0.3453 -0.5156  0.0376
 9871TIP3    H151104   4.795   0.441  12.856  0.7520  1.4002  0.4799
 9871TIP3    H251105   4.776   0.391  12.998 -0.5565 -1.3164 -0.5992
 9872TIP3   OH251106   2.433   5.349   0.136 -0.2288 -0.2283  0.3414
 9872TIP3    H151107   2.351   5.354   0.186  1.0795  0.8825  2.4465
 9872TIP3    H251108   2.409   5.382   0.049 -2.1157 -0.3375  0.7820
 9873TIP3   OH251109   3.543   2.563   0.864 -0.3218 -0.5741  0.1385
 9873TIP3    H151110   3.565   2.649   0.830 -0.5701  0.2071  1.8939
 9873TIP3    H251111   3.563   2.503   0.792 -0.2314  0.9419 -1.1303
 9874TIP3   OH251112   6.060   6.096  15.428 -0.3159  0.2088  0.0540
 9874TIP3    H151113   5.970   6.102  15.461  0.0577  1.6958  0.8539
 9874TIP3    H251114   6.115   6.113  15.505  0.6263  0.5163 -0.6749
 9875TIP3   OH251115   0.040   5.682   0.401 -0.1951  0.3453  0.3312
 9875TIP3    H151116   0.091   5.676   0.320  1.0662  0.5112  1.1131
 9875TIP3    H251117  -0.023   5.610   0.394  0.6645 -0.3593 -0.2722
 9876TIP3   OH251118   4.655   5.711  13.137  0.6816  0.0687  0.1430
 9876TIP3    H151119   4.693   5.751  13.059  2.9165  0.9386  1.5892
 9876TIP3    H251120   4.657   5.617  13.119 -3.0724  0.4439 -2.6261
 9877TIP3   OH251121   3.013   6.107  15.410 -0.2337 -0.4018  0.2783
 9877TIP3    H151122   3.011   6.167  15.336  2.7769 -0.7715 -0.1567
 9877TIP3    H251123   2.972   6.156  15.482  2.5869  2.4365  0.0847
 9878TIP3   OH251124   3.568   1.594   2.861 -0.8724 -0.4233  0.5370
 9878TIP3    H151125   3.631   1.522   2.859 -0.5498 -0.1398  0.5192
 9878TIP3    H251126   3.618   1.671   2.834 -0.8351  0.0976  2.0484
 9879TIP3   OH251127   0.274   3.170  14.712 -0.2015 -0.7588 -0.2108
 9879TIP3    H151128   0.363   3.203  14.729 -0.5246 -0.0256  0.0685
 9879TIP3    H251129   0.286   3.076  14.700  0.6160 -0.6707 -0.1608
 9880TIP3   OH251130   1.183   5.887  13.495  0.4983 -0.6948 -0.3353
 9880TIP3    H151131   1.157   5.978  13.478  0.5147 -0.9215 -1.6324
 9880TIP3    H251132   1.112   5.835  13.458  0.7501 -1.2225 -0.0740
 9881TIP3   OH251133   4.696   6.615  13.342 -0.0590 -0.6573 -0.1974
 9881TIP3    H151134   4.648   6.693  13.370 -1.8984 -1.5230 -0.8587
 9881TIP3    H251135   4.718   6.571  13.424  0.4036  0.2067  0.1535
 9882TIP3   OH251136   6.734   3.158  10.894 -0.1515  1.0264 -0.4232
 9882TIP3    H151137   6.830   3.153  10.887 -0.3057 -0.9531 -1.3941
 9882TIP3    H251138   6.718   3.236  10.947  2.0316  0.8546  0.5507
 9883TIP3   OH251139   5.547   2.958  14.360  0.3607  0.4242 -0.0645
 9883TIP3    H151140   5.494   2.981  14.283 -0.3608 -3.0001 -0.6851
 9883TIP3    H251141   5.625   2.917  14.324  0.3395 -0.5764  0.9938
 9884TIP3   OH251142   1.490   1.092   2.611  0.1874 -0.2620 -0.5012
 9884TIP3    H151143   1.576   1.131   2.603 -0.3736  1.0180 -0.4204
 9884TIP3    H251144   1.498   1.006   2.569  1.6566 -0.4158  0.0833
 9885TIP3   OH251145   5.135   1.936  14.507 -0.0937  0.4554  0.9531
 9885TIP3    H151146   5.065   1.968  14.449  0.1737  1.1740  1.0224
 9885TIP3    H251147   5.215   1.946  14.455 -0.1978 -1.8502  0.2685
 9886TIP3   OH251148   5.145   3.444   0.361  0.4190 -0.0816  0.4341
 9886TIP3    H151149   5.146   3.350   0.376  0.3526  0.0243  1.0850
 9886TIP3    H251150   5.166   3.453   0.268  1.2653 -0.6951  0.5580
 9887TIP3   OH251151   3.076   0.369   0.210  0.3679  0.2417 -0.0728
 9887TIP3    H151152   3.092   0.382   0.304 -2.0621  0.5580  0.3256
 9887TIP3    H251153   3.015   0.294   0.206  2.2175 -1.2388 -1.5373
 9888TIP3   OH251154   5.471   2.274   2.147  0.5919 -0.1553  0.1361
 9888TIP3    H151155   5.476   2.369   2.156 -0.3512 -0.1340  0.4199
 9888TIP3    H251156   5.548   2.242   2.194  1.6216  0.5287 -1.0479
 9889TIP3   OH251157   2.262   0.378  14.270  0.1526  0.7510 -0.0084
 9889TIP3    H151158   2.255   0.422  14.354  2.8422  2.7635 -0.7626
 9889TIP3    H251159   2.176   0.392  14.228 -0.8601  0.5563  1.9473
 9890TIP3   OH251160   2.288   6.696  14.370 -0.2496  0.1074 -0.3434
 9890TIP3    H151161   2.326   6.698  14.458  0.0122  1.5192 -0.4702
 9890TIP3    H251162   2.287   6.788  14.343 -2.6397 -0.0373 -0.8163
 9891TIP3   OH251163   2.168   3.089   0.263 -0.2989 -0.1722  0.3131
 9891TIP3    H151164   2.102   3.025   0.288 -0.8920  1.5270  3.4306
 9891TIP3    H251165   2.215   3.109   0.344  1.1592  1.8859 -0.9602
 9892TIP3   OH251166   1.002   2.947  10.465 -0.2988 -0.1585  0.1636
 9892TIP3    H151167   1.009   2.889  10.390  1.9042  1.2073 -0.7123
 9892TIP3    H251168   1.051   3.025  10.441  0.2076  0.4400  2.8943
 9893TIP3   OH251169   4.615   4.719  10.303  0.1131 -0.8816 -0.1755
 9893TIP3    H151170   4.666   4.638  10.307  0.1173 -0.8604  0.1958
 9893TIP3    H251171   4.612   4.750  10.394 -0.3173 -0.7342 -0.2406
 9894TIP3   OH251172   3.161   1.441   0.685 -0.4519  0.0162 -0.0377
 9894TIP3    H151173   3.229   1.492   0.730 -2.1386 -0.2188  2.9627
 9894TIP3    H251174   3.179   1.350   0.710  1.5814 -0.7764 -4.0563
 9895TIP3   OH251175   1.125   1.584  13.171 -0.2436  0.4175 -0.3481
 9895TIP3    H151176   1.051   1.523  13.175 -1.0974  1.2850 -2.1892
 9895TIP3    H251177   1.087   1.669  13.194  0.0144  0.9893 -1.9497
 9896TIP3   OH251178   2.822   6.334   0.662 -0.1548  0.0986  0.0464
 9896TIP3    H151179   2.916   6.345   0.675 -0.0257  1.1524 -1.7081
 9896TIP3    H251180   2.797   6.405   0.603 -1.6163 -1.5850 -1.4390
 9897TIP3   OH251181   5.658   4.001   2.005 -0.3543 -0.3673 -0.0108
 9897TIP3    H151182   5.694   3.943   2.073  1.9373  0.9310 -0.0449
 9897TIP3    H251183   5.643   4.084   2.051 -1.5706 -0.3561 -0.4339
 9898TIP3   OH251184   6.086   3.651  14.003  0.1159 -0.3965 -0.2033
 9898TIP3    H151185   6.107   3.599  14.081 -1.1996 -2.4154 -1.1488
 9898TIP3    H251186   6.082   3.587  13.932 -1.4101  1.0047 -1.4281
 9899TIP3   OH251187   7.167   2.818  14.571 -0.5184 -0.3214  0.0518
 9899TIP3    H151188   7.166   2.903  14.617 -0.4741  0.2006 -0.9083
 9899TIP3    H251189   7.237   2.769  14.615 -2.1494 -0.7798  2.2313
 9900TIP3   OH251190   2.739   0.644  13.606 -0.3353 -0.0085  0.5042
 9900TIP3    H151191   2.802   0.715  13.616 -0.5919  0.5156 -1.3594
 9900TIP3    H251192   2.718   0.617  13.696  0.8236  1.3220  1.1882
 9901TIP3   OH251193   2.577   3.266   2.157  0.2360  0.6887  0.4726
 9901TIP3    H151194   2.579   3.175   2.127  0.1015  0.6897  0.4620
 9901TIP3    H251195   2.665   3.282   2.190  0.1595  0.4442  0.8030
 9902TIP3   OH251196   1.218   1.994  13.489 -0.0459 -0.6559 -0.5587
 9902TIP3    H151197   1.252   2.066  13.542 -0.9340  0.2749 -1.2311
 9902TIP3    H251198   1.247   2.013  13.400  0.5296 -1.6447 -0.5928
 9903TIP3   OH251199   2.102   4.524   1.116 -0.1922  0.0712 -0.0006
 9903TIP3    H151200   2.087   4.431   1.129  2.3384 -0.2054  1.2514
 9903TIP3    H251201   2.051   4.567   1.184 -1.6244 -0.3532 -0.7801
 9904TIP3   OH251202   2.432   3.544   1.475 -0.2972 -0.2405  0.1643
 9904TIP3    H151203   2.434   3.553   1.379  0.6626 -0.4568  0.1555
 9904TIP3    H251204   2.453   3.631   1.508  0.1495 -0.3507  0.1702
 9905TIP3   OH251205   2.743   0.003   0.094 -0.4467  0.0021 -0.3308
 9905TIP3    H151206   2.688   0.035   0.165  1.2796  1.2280  0.4624
 9905TIP3    H251207   2.695   0.027   0.014 -0.3765  2.3273  0.3122
 9906TIP3   OH251208   0.921   1.905  13.191  0.0237  0.0958 -0.1563
 9906TIP3    H151209   0.971   1.935  13.115 -1.5094  0.5629 -0.9909
 9906TIP3    H251210   0.901   1.985  13.240  0.5628 -0.1503  0.4779
 9907TIP3   OH251211   2.208   5.892   0.499 -0.1145 -0.1140  0.8617
 9907TIP3    H151212   2.140   5.946   0.457 -1.6262 -0.9919  2.1303
 9907TIP3    H251213   2.289   5.940   0.484 -0.5513 -0.4884 -3.2587
 9908TIP3   OH251214   1.199   4.505   3.926 -0.8730 -0.4075  0.1525
 9908TIP3    H151215   1.144   4.559   3.983  0.2558  0.9894 -0.0514
 9908TIP3    H251216   1.276   4.485   3.979  0.4701  1.4246 -1.0721
 9909TIP3   OH251217   2.503   1.135  13.910  0.1542  0.0851 -0.3557
 9909TIP3    H151218   2.494   1.062  13.848 -0.3196 -0.3087  0.1753
 9909TIP3    H251219   2.472   1.211  13.861 -3.0337 -0.6918  0.3288
 9910TIP3   OH251220   5.960   2.737  14.921 -0.2068 -0.2505 -0.4097
 9910TIP3    H151221   5.871   2.713  14.943  0.2406  0.2753  2.1705
 9910TIP3    H251222   5.997   2.660  14.878 -1.0763 -1.4484  0.9648
 9911TIP3   OH251223   1.544   5.677  14.435 -0.3807  0.0861 -0.0911
 9911TIP3    H151224   1.627   5.713  14.465 -0.6505  0.4669  0.2071
 9911TIP3    H251225   1.491   5.669  14.514 -1.1311  1.1931 -0.4642
 9912TIP3   OH251226   5.617   6.326   3.604  0.5751  0.3411  0.3961
 9912TIP3    H151227   5.632   6.342   3.697 -0.3089  0.5942  0.5000
 9912TIP3    H251228   5.666   6.247   3.585  3.0297  1.8010  0.4433
 9913TIP3   OH251229   1.656   3.667   1.689  0.2177 -0.2669  0.5011
 9913TIP3    H151230   1.625   3.757   1.676 -0.3125 -0.2309  1.9434
 9913TIP3    H251231   1.744   3.667   1.651 -1.2948 -0.2464 -3.2353
 9914TIP3   OH251232   2.447   1.975  14.991 -0.1455  0.1356 -0.1997
 9914TIP3    H151233   2.378   1.978  14.924 -0.0243 -1.0396 -0.3886
 9914TIP3    H251234   2.528   1.996  14.943  0.0248 -1.2698 -0.5564
 9915TIP3   OH251235   3.798   4.166   0.104 -0.4359  0.3185 -0.1023
 9915TIP3    H151236   3.812   4.108   0.179 -1.6928 -1.2866 -1.0556
 9915TIP3    H251237   3.730   4.226   0.134 -0.4465  0.1183  0.2876
 9916TIP3   OH251238   3.576   4.668  12.996  0.5169  0.4204 -0.8363
 9916TIP3    H151239   3.651   4.623  13.036 -0.8990 -2.4421 -1.2440
 9916TIP3    H251240   3.516   4.683  13.069 -0.1810 -0.8558 -1.1300
 9917TIP3   OH251241   4.528   1.990   3.826  0.4172  0.4133  0.1019
 9917TIP3    H151242   4.436   2.015   3.841  0.8527  1.1374  1.6233
 9917TIP3    H251243   4.578   2.049   3.882  1.7517 -0.6700  0.0589
 9918TIP3   OH251244   3.573   4.887  13.219  0.4921 -0.0047 -0.5602
 9918TIP3    H151245   3.607   4.934  13.142  1.7012  0.6794  0.3802
 9918TIP3    H251246   3.512   4.948  13.259  1.2163  0.3388  0.0299
 9919TIP3   OH251247   2.188   7.096  15.264 -0.3900 -0.0419 -0.3564
 9919TIP3    H151248   2.139   7.098  15.347  0.0921 -1.2856 -0.0385
 9919TIP3    H251249   2.155   7.018  15.219 -1.6848  1.4078 -1.9855
 9920TIP3   OH251250   0.740   3.232   2.394  0.1526  0.4224 -0.3149
 9920TIP3    H151251   0.726   3.145   2.431 -2.5090  0.4598 -1.1205
 9920TIP3    H251252   0.729   3.291   2.469 -3.3407  0.3637 -0.6594
 9921TIP3   OH251253   0.862   4.392  15.580 -0.1496  0.5480 -0.2543
 9921TIP3    H151254   0.938   4.337  15.601 -1.1504 -0.6340  0.4100
 9921TIP3    H251255   0.818   4.345  15.509 -0.1895  1.2890 -0.7170
 9922TIP3   OH251256   3.811   4.081  12.959  0.0751  0.2498  0.6360
 9922TIP3    H151257   3.822   3.987  12.946 -0.6499  0.1865  0.4595
 9922TIP3    H251258   3.856   4.121  12.885  1.5496  0.0845  1.4377
 9923TIP3   OH251259   4.967   2.446   1.561 -0.1664 -0.1375 -0.4994
 9923TIP3    H151260   4.988   2.373   1.619 -0.1977  1.1471  1.1700
 9923TIP3    H251261   5.044   2.455   1.505 -0.0985 -1.3347 -0.6202
 9924TIP3   OH251262   1.963   7.022   3.328 -0.7388  0.2564 -0.3012
 9924TIP3    H151263   1.886   7.074   3.351 -0.7685  0.5487 -1.0486
 9924TIP3    H251264   1.960   7.016   3.232  1.1368  1.7907 -0.4930
 9925TIP3   OH251265   6.840   4.071   0.335  0.3884  0.6012  0.1789
 9925TIP3    H151266   6.756   4.066   0.289  0.7209  1.3951 -0.5221
 9925TIP3    H251267   6.892   4.000   0.298  0.2065  0.4327  0.2445
 9926TIP3   OH251268   7.135   3.094  11.802 -0.3895  0.3330 -0.0784
 9926TIP3    H151269   7.218   3.073  11.757 -0.2683 -1.6161  0.9897
 9926TIP3    H251270   7.143   3.050  11.887 -2.9508 -0.7807 -0.3793
 9927TIP3   OH251271   3.975   6.201   0.783  0.1253 -0.2879  0.0630
 9927TIP3    H151272   3.961   6.255   0.861  0.5519 -0.2077  0.0850
 9927TIP3    H251273   4.000   6.116   0.817  1.6531  0.1184  0.0046
 9928TIP3   OH251274   0.101   0.577  14.377 -0.1244 -0.1692 -0.1548
 9928TIP3    H151275   0.008   0.582  14.397  0.0334  0.9289  0.3327
 9928TIP3    H251276   0.143   0.630  14.445  0.8314 -0.4361 -0.5304
 9929TIP3   OH251277   5.865   1.947   2.281  0.3671 -0.5225  0.5041
 9929TIP3    H151278   5.775   1.918   2.294 -0.0683  0.1037 -1.0607
 9929TIP3    H251279   5.878   1.945   2.186  1.6459  0.4448  0.6418
 9930TIP3   OH251280   0.021   4.373  14.495  0.0298  0.0518 -0.1583
 9930TIP3    H151281  -0.062   4.417  14.511 -0.7747 -1.2573 -0.6991
 9930TIP3    H251282  -0.001   4.281  14.487  1.2153 -0.0647 -2.6229
 9931TIP3   OH251283   6.484   0.326  13.698  0.8834 -0.1069  0.2810
 9931TIP3    H151284   6.553   0.262  13.717 -0.9681 -1.9836  0.8467
 9931TIP3    H251285   6.430   0.284  13.631  1.1110  1.9726 -1.2594
 9932TIP3   OH251286   0.358   3.244  13.769  0.3244 -0.0311 -0.0276
 9932TIP3    H151287   0.320   3.250  13.682 -0.1223  1.2761  0.2449
 9932TIP3    H251288   0.391   3.154  13.775 -0.6288 -0.4589 -1.1192
 9933TIP3   OH251289   2.154   0.588   0.494 -0.3644 -0.1167  0.2574
 9933TIP3    H151290   2.134   0.616   0.583 -1.6784  1.8494 -0.6219
 9933TIP3    H251291   2.070   0.589   0.448  0.1339 -2.1076 -0.7502
 9934TIP3   OH251292   6.738   6.632  15.331 -0.4303  0.0712  0.2022
 9934TIP3    H151293   6.710   6.707  15.278 -0.8065 -0.7729 -0.8141
 9934TIP3    H251294   6.780   6.671  15.407 -1.1634  1.3256 -0.0166
 9935TIP3   OH251295   5.085   2.190  10.275 -0.0211 -0.7106  0.3625
 9935TIP3    H151296   5.064   2.096  10.274  0.8057 -0.8970  0.1820
 9935TIP3    H251297   5.076   2.215  10.367 -2.7168 -0.3833  0.0507
 9936TIP3   OH251298   2.429   5.995   2.933  0.2389 -0.1699 -0.2819
 9936TIP3    H151299   2.490   6.057   2.893  0.0928  0.4347  0.4268
 9936TIP3    H251300   2.377   6.048   2.993 -0.7586 -0.7442 -0.6252
 9937TIP3   OH251301   0.150   2.163  14.200 -0.0805  0.4801  0.0711
 9937TIP3    H151302   0.228   2.183  14.149  0.0931  3.9910  1.5451
 9937TIP3    H251303   0.177   2.173  14.291 -2.2538  1.9808  0.6000
 9938TIP3   OH251304   5.888   0.133  11.487  0.2854 -0.1470 -0.1494
 9938TIP3    H151305   5.902   0.227  11.473 -1.4411  0.5157  2.2490
 9938TIP3    H251306   5.930   0.115  11.571 -0.1097 -1.3602 -0.2041
 9939TIP3   OH251307   6.144   2.923   1.522  0.1829 -0.3648  0.0709
 9939TIP3    H151308   6.186   3.006   1.502  3.1000 -2.3333 -2.5479
 9939TIP3    H251309   6.057   2.946   1.555  1.1140  3.6801 -0.1452
 9940TIP3   OH251310   6.923   3.147   3.203 -0.6158 -0.0683  0.2255
 9940TIP3    H151311   6.914   3.146   3.108  0.5238  2.3223  0.0604
 9940TIP3    H251312   7.004   3.195   3.220  0.2511 -2.1440  2.3640
 9941TIP3   OH251313   0.992   2.237   1.134 -0.6009  0.1359 -0.0023
 9941TIP3    H151314   1.027   2.321   1.164  0.5529 -0.7666  1.1647
 9941TIP3    H251315   1.047   2.213   1.059  0.3955 -0.5987  0.9624
 9942TIP3   OH251316   5.416   3.300  14.329  0.2008 -0.4301  0.6704
 9942TIP3    H151317   5.434   3.293  14.423  0.3259 -1.5995  0.5625
 9942TIP3    H251318   5.329   3.263  14.318 -0.4419  1.0686  0.5267
 9943TIP3   OH251319   3.299   3.014  15.209  0.2525 -0.0217 -0.3340
 9943TIP3    H151320   3.349   3.077  15.261  1.4062 -0.1179 -1.3037
 9943TIP3    H251321   3.328   3.029  15.119  1.3372 -2.6428 -0.4565
 9944TIP3   OH251322   2.010   2.545  11.575 -0.0351 -0.0844  0.2764
 9944TIP3    H151323   1.957   2.539  11.495  0.5362 -0.2819 -0.0887
 9944TIP3    H251324   1.961   2.605  11.631 -0.1985  0.4337 -0.4108
 9945TIP3   OH251325   5.369   2.902   0.975 -0.0098  0.2799 -0.2192
 9945TIP3    H151326   5.370   2.821   1.025  1.4376  0.0259 -0.6183
 9945TIP3    H251327   5.295   2.951   1.009  0.8527  0.0496  2.0827
 9946TIP3   OH251328   4.467   1.664  10.484  0.2666 -0.0002  0.8353
 9946TIP3    H151329   4.515   1.716  10.419 -0.7294 -0.4892 -0.3064
 9946TIP3    H251330   4.513   1.681  10.566 -0.1546  2.8677  0.5300
 9947TIP3   OH251331   6.646   2.415  15.437  0.2039  0.4966 -0.1799
 9947TIP3    H151332   6.595   2.477  15.490  0.1607  1.4175 -1.2614
 9947TIP3    H251333   6.737   2.430  15.463  0.0207 -0.4236  1.0179
 9948TIP3   OH251334   4.297   2.294   4.612 -0.3894  0.1785 -0.2619
 9948TIP3    H151335   4.292   2.328   4.523  0.1545  0.1976 -0.2902
 9948TIP3    H251336   4.380   2.327   4.646 -2.0087  2.7018  1.3393
 9949TIP3   OH251337   3.882   6.317  15.366  0.2150 -0.3484 -0.1060
 9949TIP3    H151338   3.818   6.296  15.434  1.1385 -0.9436  0.6010
 9949TIP3    H251339   3.831   6.320  15.285 -0.7381 -0.5901  0.4733
 9950TIP3   OH251340   3.439   6.057  13.862  0.0544 -0.3712  0.3893
 9950TIP3    H151341   3.418   6.057  13.768  0.8397 -0.0605  0.2083
 9950TIP3    H251342   3.401   5.976  13.895  1.2103 -1.3067 -0.5335
 9951TIP3   OH251343   4.781   0.416  14.314  0.1172  0.0379  0.3378
 9951TIP3    H151344   4.688   0.411  14.293  0.1901  0.2898 -0.0602
 9951TIP3    H251345   4.816   0.480  14.251  0.1611  1.5884  1.9070
 9952TIP3   OH251346   2.321   0.646  14.997  0.6249 -0.1986  0.2174
 9952TIP3    H151347   2.404   0.599  14.996  0.9496  0.3237  1.5127
 9952TIP3    H251348   2.267   0.601  14.933  1.3635 -1.5439  0.5307
 9953TIP3   OH251349   4.278   3.898  15.065 -0.2909  0.2911 -0.3868
 9953TIP3    H151350   4.268   3.947  14.983  0.1903 -1.3680 -1.4518
 9953TIP3    H251351   4.209   3.932  15.121 -1.6718  0.3130 -2.0564
 9954TIP3   OH251352   4.845   5.665   0.326 -0.0223  0.0979  0.2093
 9954TIP3    H151353   4.936   5.637   0.320  0.0199 -0.1884  1.9815
 9954TIP3    H251354   4.795   5.584   0.327 -0.1406  0.1907  1.6281
 9955TIP3   OH251355   3.700   4.817   0.135 -0.3721  0.1192 -0.3281
 9955TIP3    H151356   3.763   4.749   0.113 -0.6194 -0.6085  1.1481
 9955TIP3    H251357   3.709   4.829   0.230 -1.1449  1.3135 -0.3885
 9956TIP3   OH251358   0.076   5.166   0.141 -0.4872  0.2129  0.2872
 9956TIP3    H151359   0.039   5.112   0.210 -0.3330  1.2368  1.1946
 9956TIP3    H251360   0.006   5.174   0.076 -0.4972 -1.0783  0.1293
 9957TIP3   OH251361   4.116   1.921  14.601 -0.8381  0.0396 -0.1489
 9957TIP3    H151362   4.154   1.934  14.688  2.0869  0.7877 -1.4467
 9957TIP3    H251363   4.095   1.828  14.597 -0.7638 -0.0540  1.2404
 9958TIP3   OH251364   2.311   2.426   0.009  0.1743  0.1031  0.1008
 9958TIP3    H151365   2.253   2.410  -0.066 -0.2212  0.2463  0.3786
 9958TIP3    H251366   2.326   2.340   0.047  0.4223  0.0222 -0.1777
 9959TIP3   OH251367   6.560   2.322   1.157  0.1153 -0.2158 -0.4503
 9959TIP3    H151368   6.639   2.322   1.103  1.2121 -1.1255  1.1440
 9959TIP3    H251369   6.513   2.401   1.129  1.8404  0.6376 -1.0291
 9960TIP3   OH251370   7.011   0.141   1.176 -0.1880  0.5569  0.6509
 9960TIP3    H151371   7.055   0.057   1.159 -0.3423  0.6051 -0.0301
 9960TIP3    H251372   6.920   0.126   1.149  0.2669  1.5844 -1.5953
 9961TIP3   OH251373   4.600   5.085  15.134 -0.9477  0.5544 -0.1791
 9961TIP3    H151374   4.626   5.160  15.080  0.6728  0.1103 -0.0403
 9961TIP3    H251375   4.614   5.114  15.224  1.5893 -0.5623 -0.1744
 9962TIP3   OH251376   2.678   3.715   0.559 -0.5202  0.0688 -0.4365
 9962TIP3    H151377   2.637   3.640   0.516  0.4840 -1.1071  0.6223
 9962TIP3    H251378   2.604   3.768   0.589 -1.2353 -0.1315 -1.7855
 9963TIP3   OH251379   3.623   4.293   2.269 -0.5091  0.2783  0.0988
 9963TIP3    H151380   3.636   4.351   2.194 -1.7451  1.5944  0.8700
 9963TIP3    H251381   3.669   4.337   2.341  1.8054 -1.6378 -0.1521
 9964TIP3   OH251382   1.192   4.060   1.382 -0.7067  0.3825 -0.3375
 9964TIP3    H151383   1.201   4.015   1.466 -0.9398  1.3217  0.2094
 9964TIP3    H251384   1.119   4.016   1.339  0.2996 -1.0133 -0.6576
 9965TIP3   OH251385   0.742   3.405  14.997  0.1507 -0.5313 -0.5089
 9965TIP3    H151386   0.707   3.476  14.943  2.1067 -0.2643 -1.4860
 9965TIP3    H251387   0.773   3.340  14.935  0.6866 -1.0888  0.3317
 9966TIP3   OH251388   6.992   3.575  11.461 -0.4235  0.0289  0.2628
 9966TIP3    H151389   7.004   3.663  11.497 -0.3905 -0.2284  0.8853
 9966TIP3    H251390   6.948   3.589  11.377  0.3671  0.6975 -0.0472
 9967TIP3   OH251391   6.155   1.923   2.806  0.5374 -0.1212  0.4393
 9967TIP3    H151392   6.162   1.889   2.896 -2.0676 -0.4640  0.5331
 9967TIP3    H251393   6.090   1.993   2.811  0.6446  0.1134 -1.1322
 9968TIP3   OH251394   0.170   5.017   2.061  0.2745 -0.3251 -0.7684
 9968TIP3    H151395   0.247   5.058   2.023  0.1542 -1.9727 -2.8652
 9968TIP3    H251396   0.130   4.969   1.989 -2.5794  0.2731  0.3492
 9969TIP3   OH251397   1.461   2.368   2.793 -0.4058  1.1539  0.0135
 9969TIP3    H151398   1.479   2.274   2.787  0.3936  1.3985 -1.5707
 9969TIP3    H251399   1.366   2.373   2.802 -0.4243  0.1838  0.4689
 9970TIP3   OH251400   3.611   6.628  13.936 -0.1773 -0.4548 -0.6501
 9970TIP3    H151401   3.697   6.659  13.908 -0.2411 -0.7596 -1.1926
 9970TIP3    H251402   3.552   6.701  13.916  0.0576  0.0130  0.3444
 9971TIP3   OH251403   2.609   2.299   2.831  0.1054  0.1019 -0.1823
 9971TIP3    H151404   2.581   2.353   2.905  0.2689 -0.0798  0.0158
 9971TIP3    H251405   2.681   2.348   2.792  0.0456  0.1794 -0.1947
 9972TIP3   OH251406   3.225   5.367  15.067 -0.3783  0.3883 -0.2521
 9972TIP3    H151407   3.155   5.328  15.120 -0.4033 -1.5670 -1.6860
 9972TIP3    H251408   3.305   5.330  15.102 -0.3917 -0.8893 -1.5372
 9973TIP3   OH251409   5.152   2.439   1.907 -0.2630  0.2659 -0.0249
 9973TIP3    H151410   5.210   2.503   1.866 -0.2884  0.5719  0.4268
 9973TIP3    H251411   5.076   2.490   1.936 -0.6859 -0.1048 -0.4617
 9974TIP3   OH251412   1.116   5.165   1.142 -0.2256 -0.3035  0.3626
 9974TIP3    H151413   1.207   5.133   1.135  0.7944  1.6649  3.6107
 9974TIP3    H251414   1.078   5.111   1.211 -1.9049 -1.7714 -1.6445
 9975TIP3   OH251415   2.223   2.956   2.454  0.6845 -0.0163  0.1695
 9975TIP3    H151416   2.254   2.866   2.463  0.4399 -0.3579 -2.1453
 9975TIP3    H251417   2.303   3.008   2.442  0.7538 -0.0362  0.5180
 9976TIP3   OH251418   0.081   2.088   1.443  0.5508  0.1503  0.5432
 9976TIP3    H151419   0.043   2.011   1.484 -0.6558  1.2638  1.5726
 9976TIP3    H251420   0.176   2.074   1.449  0.3704 -0.6005  2.0061
 9977TIP3   OH251421   4.550   2.759  15.464 -0.6565 -0.2423 -0.1550
 9977TIP3    H151422   4.497   2.811  15.524  0.7139  1.4666 -0.3959
 9977TIP3    H251423   4.590   2.691  15.519 -1.0250  0.0636  0.4903
 9978TIP3   OH251424   4.699   3.676   3.895 -0.1561  0.0974  0.0463
 9978TIP3    H151425   4.659   3.606   3.946 -0.0993  0.0565  0.0345
 9978TIP3    H251426   4.669   3.757   3.937  0.4836  0.0552  0.5982
 9979TIP3   OH251427   5.188   0.931  12.404 -0.0371  0.0478  0.2181
 9979TIP3    H151428   5.127   0.981  12.350  0.8254 -1.0106 -1.8265
 9979TIP3    H251429   5.157   0.841  12.397  0.3007 -0.1439  1.2150
 9980TIP3   OH251430   2.829   4.524  14.662 -0.1276  0.3715  0.0082
 9980TIP3    H151431   2.902   4.463  14.671  1.4142  2.0089 -1.1963
 9980TIP3    H251432   2.800   4.539  14.752  0.0214 -1.4220  0.3915
 9981TIP3   OH251433   4.711   5.588   0.655 -0.2329  0.1166 -1.0569
 9981TIP3    H151434   4.685   5.519   0.716  0.9587  0.8600  0.3249
 9981TIP3    H251435   4.766   5.647   0.707 -0.1207  1.3814 -2.5611
 9982TIP3   OH251436   6.093   2.664   1.268  0.3442  0.9102  0.8909
 9982TIP3    H151437   6.128   2.657   1.356  0.7422 -0.9702  0.5967
 9982TIP3    H251438   6.015   2.608   1.268 -0.1538  1.5971  0.3068
 9983TIP3   OH251439   6.120   6.531   2.393  0.1497 -0.3787 -0.0059
 9983TIP3    H151440   6.202   6.575   2.419  0.9980 -0.8335 -1.8466
 9983TIP3    H251441   6.083   6.499   2.475  2.1776 -0.7691  0.7812
 9984TIP3   OH251442   2.368   5.738  15.594  0.2225 -0.5198  0.0235
 9984TIP3    H151443   2.390   5.692  15.675 -2.0254  0.2065  1.1020
 9984TIP3    H251444   2.274   5.723  15.583  0.3514  0.0434 -2.0565
 9985TIP3   OH251445   4.221   7.119   0.400  0.3686 -0.0426 -0.1740
 9985TIP3    H151446   4.293   7.078   0.353  0.0017 -0.1142 -0.6729
 9985TIP3    H251447   4.263   7.178   0.462  0.8583 -0.2272 -0.3312
 9986TIP3   OH251448   0.701   5.664  15.381 -0.0697 -0.2863  0.4461
 9986TIP3    H151449   0.773   5.614  15.342 -1.3878 -0.7677 -1.4592
 9986TIP3    H251450   0.696   5.744  15.329 -1.5428 -0.7137 -0.0994
 9987TIP3   OH251451   4.797   2.849  13.422  0.0454 -0.0719 -0.1826
 9987TIP3    H151452   4.819   2.850  13.516  4.8344 -1.4239 -1.1552
 9987TIP3    H251453   4.783   2.756  13.402 -0.7130  0.1879 -0.9179
 9988TIP3   OH251454   3.750   2.862  14.919  0.0833  0.0084 -0.4887
 9988TIP3    H151455   3.714   2.865  14.830  0.0345 -2.1487 -0.5627
 9988TIP3    H251456   3.845   2.860  14.906  0.1380  1.4556 -0.4175
 9989TIP3   OH251457   4.558   2.616   2.174  0.0112  0.6312  0.2362
 9989TIP3    H151458   4.599   2.615   2.088  0.3193 -0.8098  0.3935
 9989TIP3    H251459   4.464   2.619   2.156  0.1099  2.3043 -0.1269
 9990TIP3   OH251460   0.392   5.484   1.035 -0.4965  0.0206  0.9024
 9990TIP3    H151461   0.453   5.423   0.992 -1.3853 -0.8226  0.8145
 9990TIP3    H251462   0.383   5.556   0.973  1.0119  0.5272  1.2550
 9991TIP3   OH251463   7.134   6.204  12.380  0.5886 -0.8057  0.3850
 9991TIP3    H151464   7.172   6.150  12.450  1.1650 -1.4754 -0.4367
 9991TIP3    H251465   7.131   6.146  12.304  1.8883  0.5479 -0.7139
 9992TIP3   OH251466   4.871   4.469  14.139  0.5234 -0.3470 -0.4582
 9992TIP3    H151467   4.955   4.426  14.122  1.2777  1.5365 -1.6534
 9992TIP3    H251468   4.885   4.560  14.113 -1.3080  0.4322  1.1746
 9993TIP3   OH251469   2.294   4.326  13.980 -0.7114  0.0677  0.1197
 9993TIP3    H151470   2.341   4.300  13.901  1.6774 -1.2338  1.9389
 9993TIP3    H251471   2.356   4.379  14.029 -1.3452 -1.1103  2.2493
 9994TIP3   OH251472   0.155   4.821  15.522  0.1374 -0.4488  0.1599
 9994TIP3    H151473   0.198   4.886  15.466 -0.8923 -0.2849 -0.4615
 9994TIP3    H251474   0.225   4.763  15.550  0.7560 -0.2172 -0.8935
 9995TIP3   OH251475   6.493   1.165  14.093  0.2997 -0.1176  0.0742
 9995TIP3    H151476   6.472   1.126  14.008 -2.6961  1.3235  0.0893
 9995TIP3    H251477   6.491   1.259  14.078 -0.1668  0.1557  1.7193
 9996TIP3   OH251478   2.701   4.834   0.585 -0.3520  0.2440  0.2155
 9996TIP3    H151479   2.647   4.845   0.663 -0.3257  0.4309  0.2066
 9996TIP3    H251480   2.784   4.877   0.606  0.0658 -0.6909  0.5100
 9997TIP3   OH251481   4.147   4.202  15.239 -0.1705  0.2247 -0.4691
 9997TIP3    H151482   4.058   4.230  15.259  0.1147 -0.5547  2.0066
 9997TIP3    H251483   4.145   4.107  15.249  0.5504  0.0234 -2.0714
 9998TIP3   OH251484   4.890   6.407  13.870 -0.2452 -0.3673 -0.4847
 9998TIP3    H151485   4.808   6.442  13.835 -0.3269  0.1497  0.2114
 9998TIP3    H251486   4.945   6.391  13.793 -0.3455  0.9409 -0.8336
 9999TIP3   OH251487   6.284   1.227  13.131  0.6134  0.4399  0.1338
 9999TIP3    H151488   6.250   1.169  13.063  2.1082  1.1544 -1.2581
 9999TIP3    H251489   6.340   1.171  13.184 -0.1712 -0.0119  0.4962
10000TIP3   OH251490   6.285   5.454  14.512  0.5918  0.0480 -0.0523
10000TIP3    H151491   6.338   5.381  14.544  0.1556  0.2913  1.2521
10000TIP3    H251492   6.315   5.529  14.564 -1.3339  0.1027  1.0298
10001TIP3   OH251493   5.596   2.677  13.373 -0.1153  0.3379 -0.3089
10001TIP3    H151494   5.510   2.712  13.351 -0.2377  0.9267  1.1042
10001TIP3    H251495   5.578   2.597  13.422  0.1333  0.8257  0.5832
10002TIP3   OH251496   4.852   4.827  13.707 -0.1431  0.1366 -0.2440
10002TIP3    H151497   4.771   4.830  13.657  0.4672 -1.0361 -1.3157
10002TIP3    H251498   4.920   4.857  13.647  0.0952  2.1304  0.9637
10003TIP3   OH251499   1.167   2.667   0.525  0.1277 -0.3603  0.3908
10003TIP3    H151500   1.145   2.759   0.512 -0.2082 -0.2783  1.4461
10003TIP3    H251501   1.164   2.628   0.438 -1.7338  0.1970  0.1904
10004TIP3   OH251502   5.103   0.213   1.836 -0.2022 -0.0429 -0.2645
10004TIP3    H151503   5.016   0.221   1.874 -0.6552 -0.1781 -1.2599
10004TIP3    H251504   5.109   0.284   1.773  0.2507 -0.2921 -0.5084
10005TIP3   OH251505   0.369   5.324  14.638 -0.2471 -0.1029  0.5004
10005TIP3    H151506   0.361   5.280  14.553  0.3784  0.6171  0.0580
10005TIP3    H251507   0.446   5.381  14.628 -0.0410 -0.1742  1.6241
10006TIP3   OH251508   2.680   0.618  10.504 -0.1479  0.0400 -0.0609
10006TIP3    H151509   2.688   0.600  10.411 -0.7941  0.4343 -0.1961
10006TIP3    H251510   2.624   0.547  10.537 -0.7111  0.4401 -0.1515
10007TIP3   OH251511   5.396   3.743  15.092 -0.2088  0.4299  0.3298
10007TIP3    H151512   5.455   3.747  15.017  0.1765 -2.1273  0.4714
10007TIP3    H251513   5.329   3.810  15.074  0.5085  0.6180 -1.7212
10008TIP3   OH251514   5.283   0.085  13.051  0.1798  0.0449 -0.0613
10008TIP3    H151515   5.373   0.104  13.076 -0.7075  1.5045  2.1479
10008TIP3    H251516   5.259   0.008  13.103 -0.3161  0.5221  0.4178
10009TIP3   OH251517   3.163   1.498  14.906  0.6670 -0.3390 -0.4366
10009TIP3    H151518   3.258   1.497  14.917  0.6863 -0.1436 -0.5926
10009TIP3    H251519   3.147   1.557  14.833  0.2600  1.7339  1.2761
10010TIP3   OH251520   3.450   0.184  13.438 -0.6588 -0.6874  0.0578
10010TIP3    H151521   3.460   0.272  13.402 -1.8574 -0.7294 -0.4309
10010TIP3    H251522   3.360   0.184  13.473 -0.2452 -1.3320  1.1273
10011TIP3   OH251523   3.556   1.146  12.133 -0.1972  0.1473 -0.1903
10011TIP3    H151524   3.473   1.176  12.170  0.1478  0.5721  0.2392
10011TIP3    H251525   3.622   1.168  12.199  0.2969  0.0775 -0.6541
10012TIP3   OH251526   6.517   4.084  10.512 -0.2715 -0.0522 -0.5702
10012TIP3    H151527   6.502   4.179  10.513 -2.4393 -0.3724  2.0436
10012TIP3    H251528   6.434   4.047  10.484  0.0132 -1.2525  0.1489
10013TIP3   OH251529   4.657   3.040   2.741  0.0041  0.1937  0.5056
10013TIP3    H151530   4.617   3.119   2.704 -0.3507 -0.3194 -0.2326
10013TIP3    H251531   4.689   2.992   2.665  3.2444  1.2204  1.1838
10014TIP3   OH251532   5.633   1.731  13.084 -0.2489  0.0291 -0.3124
10014TIP3    H151533   5.569   1.672  13.044  0.5657 -1.7010  0.8720
10014TIP3    H251534   5.697   1.746  13.015 -0.0706 -1.0720 -0.3952
10015TIP3   OH251535   6.401   3.930  12.795  0.0942 -0.6650 -0.3990
10015TIP3    H151536   6.305   3.932  12.795  0.0857 -0.9106  0.1746
10015TIP3    H251537   6.424   3.861  12.733 -0.0802  0.0587 -1.2743
10016TIP3   OH251538   4.102   4.562  14.616  0.2495  0.0960  0.1768
10016TIP3    H151539   4.092   4.504  14.692  0.8591  0.7194  0.7425
10016TIP3    H251540   4.012   4.585  14.592  0.0122 -0.8865  0.0972
10017TIP3   OH251541   1.087   7.134  15.150  0.2166  0.8749 -0.1595
10017TIP3    H151542   1.030   7.189  15.203 -0.2388  0.8798 -0.6474
10017TIP3    H251543   1.063   7.154  15.060  0.0068 -0.1530 -0.3438
10018TIP3   OH251544   5.403   3.210   3.465  0.1288 -0.3298  0.2970
10018TIP3    H151545   5.338   3.272   3.432  2.5147  1.0099 -2.0200
10018TIP3    H251546   5.481   3.263   3.481  1.3516 -2.2712  0.8988
10019TIP3   OH251547   4.085   3.391  12.688 -0.3534  0.2789 -0.4835
10019TIP3    H151548   4.096   3.482  12.713  1.1377 -0.8476  3.3501
10019TIP3    H251549   3.993   3.371  12.706 -0.7418  1.0669 -1.5697
10020TIP3   OH251550   5.806   3.620   0.276  0.3592 -0.7367 -0.3016
10020TIP3    H151551   5.874   3.574   0.325 -0.9444 -2.0378  0.3472
10020TIP3    H251552   5.812   3.585   0.187  0.0781 -1.3849 -0.0709
10021TIP3   OH251553   5.906   5.719  13.471  0.1081 -0.1530  0.3490
10021TIP3    H151554   5.925   5.736  13.563  0.8368 -2.9347  0.7646
10021TIP3    H251555   5.991   5.697  13.433 -0.3414 -0.0021 -0.7598
10022TIP3   OH251556   4.905   3.895  12.426  0.1856  0.2969 -0.1081
10022TIP3    H151557   4.915   3.810  12.382  0.9823  0.1238  0.3774
10022TIP3    H251558   4.857   3.949  12.364 -4.2710 -1.8286  1.2984
10023TIP3   OH251559   4.036   4.923   0.924 -0.2471  0.1366 -0.0721
10023TIP3    H151560   3.944   4.916   0.950  0.0307 -1.8364  0.3945
10023TIP3    H251561   4.038   4.891   0.834  0.4867 -2.9249  0.9870
10024TIP3   OH251562   6.873   7.110   3.112  0.4279  0.0332  0.5356
10024TIP3    H151563   6.863   7.039   3.176  1.7832 -0.9316 -0.2848
10024TIP3    H251564   6.923   7.070   3.041  0.7743  1.6953 -0.1665
10025TIP3   OH251565   3.822   0.077   2.996 -0.1960 -0.4098 -0.2654
10025TIP3    H151566   3.832   0.075   3.091 -1.1361  1.2943 -0.1078
10025TIP3    H251567   3.747   0.135   2.981 -0.1488 -0.7805 -2.0361
10026TIP3   OH251568   3.288   3.251   0.685  0.4220  0.4495 -0.0916
10026TIP3    H151569   3.343   3.189   0.637 -0.3636  0.2839 -0.7973
10026TIP3    H251570   3.275   3.324   0.624 -0.7386  0.1550 -0.2085
10027TIP3   OH251571   6.771   5.919  10.401 -0.4604  0.3720  0.0032
10027TIP3    H151572   6.767   6.004  10.356 -0.0900  1.1551  1.4105
10027TIP3    H251573   6.865   5.903  10.412 -0.4812 -0.9968 -1.6609
10028TIP3   OH251574   0.799   2.393   4.192  0.3266 -0.8400  0.9493
10028TIP3    H151575   0.826   2.471   4.240 -1.3163  0.6860 -0.5394
10028TIP3    H251576   0.881   2.350   4.167  1.3421  1.8024 -0.4502
10029TIP3   OH251577   4.952   0.725   0.239 -0.0958  0.6461 -0.0140
10029TIP3    H151578   4.996   0.787   0.182 -0.4149  0.7200 -0.1847
10029TIP3    H251579   4.984   0.639   0.211 -2.1458  0.4850 -2.0157
10030TIP3   OH251580   0.644   0.677   0.880  0.4717 -0.0208  0.0907
10030TIP3    H151581   0.708   0.657   0.948  1.1775 -0.2631 -0.6328
10030TIP3    H251582   0.697   0.691   0.801 -0.2051  2.0441 -0.0158
10031TIP3   OH251583   4.127   0.556  15.575  0.5054  0.6253  0.0297
10031TIP3    H151584   4.052   0.604  15.540  0.8349  0.3385 -1.1037
10031TIP3    H251585   4.090   0.501  15.644 -0.2464  0.8541 -0.1870
10032TIP3   OH251586   5.635   5.286   2.619  0.2155  0.4622  0.3017
10032TIP3    H151587   5.634   5.223   2.690  1.5488 -0.2618 -0.2992
10032TIP3    H251588   5.728   5.308   2.607 -0.0412  1.0390 -0.7966
10033TIP3   OH251589   4.391   3.346   0.243 -0.1820  0.1044  0.3692
10033TIP3    H151590   4.386   3.441   0.234  1.2711  0.1270 -0.3848
10033TIP3    H251591   4.351   3.327   0.328  0.2572  1.4643  0.8813
10034TIP3   OH251592   5.929   0.485   0.424 -0.1041 -0.3937  0.3637
10034TIP3    H151593   5.836   0.477   0.403 -0.0058 -0.2512 -0.1359
10034TIP3    H251594   5.965   0.397   0.407  0.3948  0.2558 -2.2075
10035TIP3   OH251595   0.510   1.018  15.612 -0.1067 -0.6942 -0.4551
10035TIP3    H151596   0.439   0.976  15.661 -1.1509 -0.0442 -1.3984
10035TIP3    H251597   0.499   0.987  15.522 -0.7793  1.4158 -1.1389
10036TIP3   OH251598   1.806   2.639   2.475 -0.2540 -0.4162  0.0842
10036TIP3    H151599   1.875   2.645   2.409  0.5786  1.2540  1.0640
10036TIP3    H251600   1.764   2.555   2.458  0.7310 -0.5656 -1.7886
10037TIP3   OH251601   1.151   0.665  12.486 -0.3181  0.2821  0.4486
10037TIP3    H151602   1.230   0.682  12.538 -0.1201  0.7186  0.0028
10037TIP3    H251603   1.082   0.716  12.530  0.0334  1.3464 -0.2203
10038TIP3   OH251604   2.402   2.850   0.763 -0.0759 -0.3823  0.2457
10038TIP3    H151605   2.356   2.906   0.826 -1.6275 -0.8866 -0.3994
10038TIP3    H251606   2.363   2.763   0.775 -2.5837  0.0957 -3.3727
10039TIP3   OH251607   4.888   1.855  12.930  0.0442  0.1222 -0.2878
10039TIP3    H151608   4.939   1.777  12.906 -0.5300  0.0774 -1.4156
10039TIP3    H251609   4.872   1.900  12.847 -0.0113  1.2099  0.3018
10040TIP3   OH251610   4.729   2.164   0.798 -0.1074 -0.3006  0.2741
10040TIP3    H151611   4.779   2.104   0.742  0.9545 -1.0122  1.9429
10040TIP3    H251612   4.772   2.249   0.788 -0.5509 -0.1873 -0.7547
10041TIP3   OH251613   2.199   4.537  14.963 -0.2115  0.6275 -0.1026
10041TIP3    H151614   2.136   4.504  14.899 -0.3575  1.7716 -0.5614
10041TIP3    H251615   2.270   4.473  14.963 -0.9389 -0.1946 -0.2572
10042TIP3   OH251616   2.063   3.701  15.234  0.4338 -0.0820 -0.7310
10042TIP3    H151617   2.045   3.648  15.311 -1.2217 -0.4392 -1.3537
10042TIP3    H251618   2.150   3.738  15.250 -0.2138  0.4710  1.6586
10043TIP3   OH251619   1.784   0.839   2.056 -0.2832 -0.4214  0.0125
10043TIP3    H151620   1.788   0.935   2.062 -0.5099 -0.3629 -0.7054
10043TIP3    H251621   1.820   0.820   1.969 -1.9952 -0.8546 -0.6212
10044TIP3   OH251622   5.293   5.793   0.342  0.4182 -0.1209 -0.2589
10044TIP3    H151623   5.369   5.735   0.332  1.1550  0.7494  0.2328
10044TIP3    H251624   5.324   5.879   0.316 -0.8833 -0.0656 -1.6803
10045TIP3   OH251625   4.252   4.294  15.546 -0.2815 -0.1087  0.1815
10045TIP3    H151626   4.298   4.251  15.619 -0.2640 -1.0197 -0.3638
10045TIP3    H251627   4.181   4.234  15.523 -0.3683  0.2383 -0.4725
10046TIP3   OH251628   0.365   6.300   0.349 -0.6887 -0.0557 -0.3702
10046TIP3    H151629   0.274   6.317   0.372  0.0823 -0.8329  3.6172
10046TIP3    H251630   0.364   6.211   0.313 -1.4894 -0.0832 -0.3002
10047TIP3   OH251631   7.068   1.882   0.207  0.1758  0.6998 -0.3067
10047TIP3    H151632   7.021   1.940   0.147  0.2924 -0.7775 -1.8702
10047TIP3    H251633   7.066   1.796   0.164  1.9753  0.0307  0.8800
10048TIP3   OH251634   4.756   6.814   3.159 -0.0718 -0.0253  0.4495
10048TIP3    H151635   4.778   6.859   3.078 -0.9972  0.8438  0.6639
10048TIP3    H251636   4.666   6.784   3.147  0.1039 -0.7169  0.7959
10049TIP3   OH251637   1.880   5.559   1.435 -0.0110  0.2983 -0.0609
10049TIP3    H151638   1.908   5.532   1.347  1.3082 -0.3559  0.5497
10049TIP3    H251639   1.828   5.485   1.467  0.0073  0.2864 -0.0583
10050TIP3   OH251640   6.184   4.976  15.092  0.4170 -0.0280  0.8465
10050TIP3    H151641   6.161   4.888  15.061 -1.0716  0.5408  0.2768
10050TIP3    H251642   6.210   5.023  15.012  0.2929  0.3304  1.0182
10051TIP3   OH251643   6.233   1.539   4.650 -0.0585  0.0925  0.2544
10051TIP3    H151644   6.194   1.590   4.578 -1.4543  0.1206  1.0106
10051TIP3    H251645   6.165   1.475   4.674  0.6179 -0.3015  1.1675
10052TIP3   OH251646   4.324   6.840   1.355 -0.0160 -0.2332 -0.1524
10052TIP3    H151647   4.357   6.784   1.425  3.3023  0.0887 -1.3941
10052TIP3    H251648   4.267   6.903   1.400  0.5524 -1.1959  1.9779
10053TIP3   OH251649   6.393   0.044   0.247 -0.1252 -0.0784 -0.1446
10053TIP3    H151650   6.335  -0.006   0.305  0.2567  0.9832  1.2048
10053TIP3    H251651   6.456   0.085   0.307  0.5954  0.6362 -1.3767
10054TIP3   OH251652   3.590   1.204  13.211  0.3403 -0.2370 -0.0637
10054TIP3    H151653   3.569   1.273  13.274  0.4379 -0.2282 -0.0415
10054TIP3    H251654   3.536   1.225  13.135 -1.2915 -1.3806  0.7488
10055TIP3   OH251655   0.247   4.775  14.873 -0.1988  0.1680 -0.6364
10055TIP3    H151656   0.183   4.717  14.914 -0.6280  1.2344  0.2264
10055TIP3    H251657   0.213   4.863  14.888  1.2479  0.7293 -0.5398
10056TIP3   OH251658   6.970   4.633   2.450 -0.0909 -0.2306 -0.2334
10056TIP3    H151659   6.925   4.549   2.460 -0.0774 -0.4683 -1.9548
10056TIP3    H251660   7.059   4.609   2.423  0.5997  0.2835  1.5368
10057TIP3   OH251661   6.841   2.532   1.678  0.3491  0.1948 -0.4714
10057TIP3    H151662   6.778   2.543   1.607  1.1530 -0.4304 -1.2885
10057TIP3    H251663   6.855   2.438   1.683 -0.0285  0.2016  0.8063
10058TIP3   OH251664   0.398   0.954   1.298  0.0164 -0.0257  0.4243
10058TIP3    H151665   0.449   1.025   1.339 -1.2637  0.2031  1.6676
10058TIP3    H251666   0.419   0.960   1.205  1.7293  0.4948  0.8151
10059TIP3   OH251667   3.317   3.599  14.366 -0.0603 -0.2504  0.3140
10059TIP3    H151668   3.234   3.573  14.407 -0.0520  0.0466  0.5252
10059TIP3    H251669   3.290   3.640  14.283 -0.1906  0.6734  0.8016
10060TIP3   OH251670   4.101   3.057   0.325 -0.0505 -0.3328 -0.5351
10060TIP3    H151671   4.127   3.088   0.412 -2.3007  2.9509 -0.9600
10060TIP3    H251672   4.024   3.003   0.340  1.2820 -2.2251 -0.2562
10061TIP3   OH251673   5.961   0.685   2.875  0.1007 -0.2131 -0.0759
10061TIP3    H151674   6.053   0.671   2.899 -0.0310 -0.9199  0.0525
10061TIP3    H251675   5.951   0.641   2.790 -0.2575 -0.6519  0.1888
10062TIP3   OH251676   6.352   1.499  15.128 -0.0517  0.4396  0.4411
10062TIP3    H151677   6.292   1.434  15.091 -1.3606  1.4851  0.6721
10062TIP3    H251678   6.368   1.560  15.056  0.4863  0.3313  0.4719
10063TIP3   OH251679   1.374   6.433   1.532 -0.3074  0.6578 -0.1082
10063TIP3    H151680   1.467   6.424   1.509 -0.1341 -0.3787  0.9477
10063TIP3    H251681   1.374   6.496   1.604 -0.3686  0.2879  0.2177
10064TIP3   OH251682   4.264   5.044   1.032  0.2938 -0.1825 -0.1103
10064TIP3    H151683   4.267   5.023   1.125 -0.8462 -0.2077 -0.0761
10064TIP3    H251684   4.194   4.989   0.997 -0.5968  1.2442 -0.6111
10065TIP3   OH251685   1.942   1.427   1.897 -0.0836 -0.2735  0.6061
10065TIP3    H151686   1.873   1.386   1.949 -0.7390 -0.7819 -0.6528
10065TIP3    H251687   2.023   1.386   1.928 -0.6308 -1.8071  0.0682
10066TIP3   OH251688   5.894   0.358   4.357  0.3592 -0.3320 -0.2828
10066TIP3    H151689   5.900   0.347   4.451  0.3034 -0.8800 -0.3405
10066TIP3    H251690   5.974   0.404   4.332  0.3914 -0.2228  0.0249
10067TIP3   OH251691   1.207   3.549  14.378 -0.0112  0.4906  0.4435
10067TIP3    H151692   1.152   3.625  14.398  0.6067  0.4045  2.6721
10067TIP3    H251693   1.286   3.586  14.340 -0.4841  0.8145 -0.2337
10068TIP3   OH251694   5.835   6.879   0.325  0.0977 -0.4627 -0.1121
10068TIP3    H151695   5.751   6.914   0.292 -0.8082 -1.7465  0.8022
10068TIP3    H251696   5.897   6.895   0.253 -0.2615  3.0229  0.2654
10069TIP3   OH251697   6.288   2.826  12.182  0.2736 -0.1991 -0.5732
10069TIP3    H151698   6.240   2.871  12.113 -1.8295 -0.3149  0.7586
10069TIP3    H251699   6.265   2.734  12.171 -1.9705  0.0311  1.6488
10070TIP3   OH251700   4.603   4.664  14.902  0.5848  0.5063 -0.6306
10070TIP3    H151701   4.555   4.611  14.838  2.1514  0.4469 -1.7980
10070TIP3    H251702   4.668   4.604  14.938  0.9891  1.0656 -0.4190
10071TIP3   OH251703   2.985   4.032   5.375  0.0454 -0.0880  0.0555
10071TIP3    H151704   3.066   4.025   5.426 -1.4353 -2.2623  2.2071
10071TIP3    H251705   3.014   4.059   5.288  3.2189 -2.0616  0.4286
10072TIP3   OH251706   1.516   5.740   0.342  0.3557  0.1231 -0.5863
10072TIP3    H151707   1.559   5.819   0.375  2.0380 -1.7725  1.9619
10072TIP3    H251708   1.456   5.714   0.412 -1.6534  0.1999 -2.2253
10073TIP3   OH251709   4.992   0.964  12.789  1.0061  1.0646 -0.1767
10073TIP3    H151710   4.901   0.935  12.795  0.8594  1.5388 -0.0623
10073TIP3    H251711   4.993   1.049  12.833  1.3913  1.3146 -0.6613
10074TIP3   OH251712   3.166   5.566   1.648  0.2903 -0.0323  0.7793
10074TIP3    H151713   3.197   5.518   1.571 -0.5276  1.8310 -0.7395
10074TIP3    H251714   3.077   5.535   1.662 -0.4447  1.4282 -0.5546
10075TIP3   OH251715   1.951   7.080  13.502 -0.2278  0.9095  0.1804
10075TIP3    H151716   1.892   7.012  13.532  1.5534 -0.6283  0.2368
10075TIP3    H251717   2.027   7.034  13.468  0.9895  2.8561  0.1512
10076TIP3   OH251718   5.841   3.332  15.370  0.0553  0.4047  0.2682
10076TIP3    H151719   5.908   3.275  15.408  0.0238 -0.7791 -1.4133
10076TIP3    H251720   5.762   3.278  15.367  0.0116  0.5465 -1.2822
10077TIP3   OH251721   3.514   2.990  11.246  0.1497  0.6862 -0.0236
10077TIP3    H151722   3.469   2.935  11.310 -1.3698 -0.0638 -1.6696
10077TIP3    H251723   3.494   2.949  11.162  0.4185  2.7855 -1.1399
10078TIP3   OH251724   5.701   0.518  13.856  0.3349 -0.6956  0.0335
10078TIP3    H151725   5.723   0.427  13.877  0.3061 -1.0373 -1.3844
10078TIP3    H251726   5.606   0.521  13.860  0.3721 -0.5467  0.8099
10079TIP3   OH251727   5.301   2.510   2.438 -0.0194  0.0227  0.2477
10079TIP3    H151728   5.394   2.510   2.459  0.1326  1.1195 -0.3949
10079TIP3    H251729   5.275   2.602   2.446 -0.7077 -0.0575 -1.0436
10080TIP3   OH251730   3.409   5.255   0.135  0.2591  0.3460  0.5700
10080TIP3    H151731   3.326   5.268   0.180 -0.6151 -2.6329 -0.0780
10080TIP3    H251732   3.442   5.171   0.168  2.3311  0.8228 -0.1901
10081TIP3   OH251733   0.887   6.730  14.069  0.0331  0.0739 -0.2322
10081TIP3    H151734   0.921   6.663  14.129  0.1941 -0.0063 -0.4125
10081TIP3    H251735   0.880   6.686  13.985 -0.7682  0.0176 -0.1397
10082TIP3   OH251736   6.872   5.921   0.757 -0.1918 -0.0201 -0.1175
10082TIP3    H151737   6.894   6.012   0.736 -3.0561  0.5007 -1.0564
10082TIP3    H251738   6.843   5.884   0.674 -2.7278 -0.6521  1.0156
10083TIP3   OH251739   1.882   2.894  13.934 -0.0900 -0.0824  0.4221
10083TIP3    H151740   1.941   2.903  13.860 -1.5520 -2.8501 -1.1767
10083TIP3    H251741   1.831   2.975  13.935  1.1156  0.6973 -0.5173
10084TIP3   OH251742   1.419   5.707  11.516  0.1782  0.0460  0.3839
10084TIP3    H151743   1.329   5.672  11.511 -0.1376  1.0309 -1.4648
10084TIP3    H251744   1.422   5.753  11.599 -1.4083  0.9678 -0.0384
10085TIP3   OH251745   5.560   5.585  12.779  0.2542 -0.1772 -0.1649
10085TIP3    H151746   5.552   5.492  12.759  0.4283 -0.0427 -0.8566
10085TIP3    H251747   5.499   5.599  12.852 -0.4685 -0.6329 -0.6828
10086TIP3   OH251748   3.433   0.318  14.472 -0.9192  0.2397 -0.2712
10086TIP3    H151749   3.366   0.356  14.416 -0.9889  1.8593  0.8824
10086TIP3    H251750   3.508   0.304  14.414 -1.9784 -0.8979 -1.4049
10087TIP3   OH251751   5.071   5.710   1.359 -0.1291  0.8169 -0.0849
10087TIP3    H151752   5.162   5.719   1.332 -0.6097  0.8113 -1.8383
10087TIP3    H251753   5.034   5.648   1.296 -1.0335 -0.1643  1.3869
10088TIP3   OH251754   2.090   0.230  13.521  0.2581  0.5847  0.0938
10088TIP3    H151755   2.098   0.239  13.426  1.5971 -0.3898  0.1118
10088TIP3    H251756   2.179   0.241  13.554  0.5582 -3.5188  0.8504
10089TIP3   OH251757   6.267   6.346  14.694 -0.0813  0.1907 -0.2696
10089TIP3    H151758   6.326   6.406  14.741 -2.0020  1.3804  0.6800
10089TIP3    H251759   6.325   6.299  14.633  1.9608  0.8146  1.1153
10090TIP3   OH251760   3.602   3.484  14.379  0.5471 -0.1232 -0.2425
10090TIP3    H151761   3.551   3.565  14.389  1.3502  0.1925  1.6638
10090TIP3    H251762   3.540   3.415  14.403  0.2799  0.0616 -0.3955
10091TIP3   OH251763   2.174   5.483  14.105 -0.2179  0.8302 -0.1526
10091TIP3    H151764   2.208   5.407  14.059  0.3552  0.1523  1.3644
10091TIP3    H251765   2.248   5.543  14.112 -0.3216  0.9609 -0.1555
10092TIP3   OH251766   1.635   6.469   2.604  0.4620 -0.2145 -0.0659
10092TIP3    H151767   1.611   6.438   2.691  0.8410 -0.1419  0.0696
10092TIP3    H251768   1.702   6.408   2.574  3.4657  2.1739  1.4752
10093TIP3   OH251769   2.833   4.665  13.829  0.1634  0.0945 -0.8675
10093TIP3    H151770   2.849   4.749  13.872  1.0807  0.7336 -2.4086
10093TIP3    H251771   2.751   4.677  13.782 -0.8834 -0.6325  0.7454
10094TIP3   OH251772   1.059   0.893   2.853  0.2094 -0.1481  0.1005
10094TIP3    H151773   1.066   0.818   2.912  2.7370  0.6192  0.8082
10094TIP3    H251774   1.040   0.855   2.768  1.4085 -1.5861  0.4722
10095TIP3   OH251775   0.234   6.317   1.995 -0.2716  0.1715 -0.0537
10095TIP3    H151776   0.190   6.351   2.072  0.0915  0.6167 -0.0383
10095TIP3    H251777   0.286   6.244   2.028  0.2089  0.6228  0.1999
10096TIP3   OH251778   5.528   5.790  12.286 -0.7898  0.3420 -0.1146
10096TIP3    H151779   5.495   5.727  12.223 -2.1189 -0.0437  0.9312
10096TIP3    H251780   5.587   5.740  12.342  1.4360  0.9782 -1.8365
10097TIP3   OH251781   3.341   3.275  13.174 -0.1496 -0.6183  0.1980
10097TIP3    H151782   3.278   3.291  13.104  0.6054  0.3640 -0.2843
10097TIP3    H251783   3.335   3.352  13.231  1.5671  0.1706 -0.6224
10098TIP3   OH251784   2.882   3.570   0.298  0.1076  0.2733  0.1637
10098TIP3    H151785   2.933   3.535   0.371  0.1985 -0.3755 -0.2066
10098TIP3    H251786   2.877   3.498   0.235  0.2657  0.9194 -0.5927
10099TIP3   OH251787   1.296   6.722  12.281 -0.0829  0.3206 -0.7765
10099TIP3    H151788   1.391   6.722  12.273  0.0595  1.7980  0.7376
10099TIP3    H251789   1.278   6.682  12.366 -0.8774 -0.7859 -1.4456
10100TIP3   OH251790   1.835   4.529  13.104 -0.2855  0.4819 -0.5921
10100TIP3    H151791   1.866   4.477  13.179  1.5226  1.7049 -0.4655
10100TIP3    H251792   1.752   4.566  13.133 -0.2478 -0.1227  0.3122
10101TIP3   OH251793   3.992   4.771  15.356  0.0267 -0.5072 -0.2911
10101TIP3    H151794   3.974   4.692  15.305  0.7152 -1.1687  0.4765
10101TIP3    H251795   3.928   4.835  15.325 -2.2883 -2.1744  0.9549
10102TIP3   OH251796   3.055   1.029   3.172 -0.8452  0.8327  0.6059
10102TIP3    H151797   3.023   0.952   3.218 -2.4618 -0.3204 -2.3097
10102TIP3    H251798   3.119   0.993   3.109  0.7322  2.2533  1.3810
10103TIP3   OH251799   0.914   1.455  14.210  0.4682 -0.0627  0.0107
10103TIP3    H151800   0.975   1.387  14.239 -1.6950 -2.2659 -0.4662
10103TIP3    H251801   0.879   1.422  14.127 -0.0376  2.0193 -0.6327
10104TIP3   OH251802   1.440   2.782   2.094  0.0338 -0.1982  0.2469
10104TIP3    H151803   1.447   2.766   2.000 -0.5997 -0.3432  0.2218
10104TIP3    H251804   1.347   2.803   2.108  0.7140  3.1478  0.3086
10105TIP3   OH251805   1.478   4.072  13.033 -0.0211 -0.5659 -0.5302
10105TIP3    H151806   1.479   3.990  13.082  1.4246 -0.5939 -0.6135
10105TIP3    H251807   1.568   4.104  13.036 -0.6566  1.2472 -0.1172
10106TIP3   OH251808   6.805   2.728   1.148  0.2804  0.9577  0.5193
10106TIP3    H151809   6.861   2.806   1.147 -0.3562  1.4140  0.0810
10106TIP3    H251810   6.716   2.762   1.156  0.0728  0.2257  1.3660
10107TIP3   OH251811   0.581   1.116   2.723  0.1543 -0.7287 -0.6718
10107TIP3    H151812   0.525   1.168   2.665 -1.2998  2.1785  3.0816
10107TIP3    H251813   0.520   1.055   2.765  1.0443 -2.2647 -1.6077
10108TIP3   OH251814   2.114   4.183  13.798 -0.2485 -0.5300  0.3117
10108TIP3    H151815   2.142   4.095  13.772  1.1297  0.2866 -1.0763
10108TIP3    H251816   2.157   4.198  13.882  1.4013 -0.3115 -0.5545
10109TIP3   OH251817   5.567   5.401  13.583 -0.1420 -0.0806 -0.4566
10109TIP3    H151818   5.557   5.310  13.553 -1.5532  0.4096 -1.5062
10109TIP3    H251819   5.658   5.423  13.563  0.1228 -1.1612 -0.4628
10110TIP3   OH251820   1.184   4.345   1.431 -0.2690 -0.2889 -0.0293
10110TIP3    H151821   1.271   4.354   1.394 -0.6802  0.3948 -0.8341
10110TIP3    H251822   1.165   4.251   1.427 -0.0146 -0.3013 -0.8516
10111TIP3   OH251823   2.668   0.922  11.327  0.1044 -0.3466  0.2607
10111TIP3    H151824   2.623   0.860  11.270 -1.1762 -2.1676  3.1049
10111TIP3    H251825   2.632   1.008  11.304 -0.9523 -1.1475 -1.0870
10112TIP3   OH251826   6.030   5.596  14.448 -0.2265 -0.1025  0.2362
10112TIP3    H151827   6.061   5.515  14.407 -1.0576 -0.0509 -0.5077
10112TIP3    H251828   6.105   5.628  14.498  0.5958 -0.5157 -0.7170
10113TIP3   OH251829   5.152   3.965   4.031 -0.4998 -0.1573 -0.7225
10113TIP3    H151830   5.089   3.971   4.103 -0.1902 -0.6741 -0.4025
10113TIP3    H251831   5.141   3.876   3.997  0.7357 -0.5802 -0.0355
10114TIP3   OH251832   4.008   6.608   1.250 -0.0525  0.6338 -0.1526
10114TIP3    H151833   3.932   6.551   1.254  0.0478  0.2668 -2.7361
10114TIP3    H251834   4.077   6.560   1.296 -0.2027 -0.9720 -1.5578
10115TIP3   OH251835   5.644   3.119   1.357  0.4590  0.2526  0.4231
10115TIP3    H151836   5.712   3.116   1.290 -0.0525  0.2470 -0.0943
10115TIP3    H251837   5.630   3.213   1.373  0.2051  0.2631  0.1408
10116TIP3   OH251838   5.176   3.670  13.168 -0.2964 -0.4892 -0.5223
10116TIP3    H151839   5.264   3.681  13.202 -1.1372  1.6751  1.0473
10116TIP3    H251840   5.186   3.676  13.073  1.5626 -2.8547 -0.5282
10117TIP3   OH251841   5.330   6.389  13.851  0.0907 -0.5544 -0.0483
10117TIP3    H151842   5.254   6.341  13.819  0.1942  0.6789 -2.2205
10117TIP3    H251843   5.305   6.481  13.843  1.1380 -0.1703  0.9604
10118TIP3   OH251844   1.891   4.525   9.522 -0.4282 -0.7103  0.0024
10118TIP3    H151845   1.930   4.526   9.609  0.1269  2.7769 -0.2305
10118TIP3    H251846   1.813   4.579   9.530 -0.1136  0.0300 -1.7651
10119TIP3   OH251847   2.237   4.507   0.072  0.2147  0.2443 -0.1428
10119TIP3    H151848   2.187   4.585   0.048 -0.5989 -0.2215  0.0119
10119TIP3    H251849   2.209   4.440   0.010  1.1409  0.1652 -0.4685
10120TIP3   OH251850   5.042   6.494   0.543 -0.5630 -0.5748 -0.1453
10120TIP3    H151851   4.951   6.482   0.572 -0.2795 -0.1970  0.9125
10120TIP3    H251852   5.075   6.565   0.597 -0.4573  1.1747 -2.4254
10121TIP3   OH251853   7.082   0.631  15.297 -0.0988  0.5583 -0.0742
10121TIP3    H151854   7.067   0.594  15.210  0.5819 -0.4889  0.2404
10121TIP3    H251855   7.080   0.725  15.284 -1.5249  0.4093 -0.9551
10122TIP3   OH251856   4.202   1.662   2.354 -0.4156 -0.1055 -0.0094
10122TIP3    H151857   4.141   1.594   2.381 -1.2365  0.3214 -0.7566
10122TIP3    H251858   4.270   1.615   2.304 -1.6488 -0.2337 -1.6073
10123TIP3   OH251859   3.511   0.658  13.978 -0.0071  0.2192 -0.6531
10123TIP3    H151860   3.552   0.594  13.918  0.8842 -0.1159  0.2954
10123TIP3    H251861   3.429   0.617  14.005 -1.0759  0.9486 -2.6769
10124TIP3   OH251862   4.724   6.766  13.617  0.6354 -0.4782  0.2590
10124TIP3    H151863   4.699   6.715  13.694  0.5663 -0.9751 -0.0877
10124TIP3    H251864   4.692   6.854  13.635 -1.5515 -1.1473 -0.2635
10125TIP3   OH251865   1.901   4.462  11.909  0.7286  0.1984 -0.5603
10125TIP3    H151866   1.820   4.503  11.879  0.8189 -0.5109 -1.8092
10125TIP3    H251867   1.913   4.387  11.852  1.5567 -0.4968  0.4966
10126TIP3   OH251868   2.925   6.430   0.235  0.2976  0.4655 -0.0424
10126TIP3    H151869   2.886   6.499   0.288  0.8941  0.5313  0.3127
10126TIP3    H251870   2.947   6.473   0.152 -1.3732  0.1756 -0.6642
10127TIP3   OH251871   5.003   7.056   0.850 -0.1302  0.0845 -0.0800
10127TIP3    H151872   5.035   7.049   0.940 -0.6466 -0.6693  0.0446
10127TIP3    H251873   4.911   7.083   0.859 -0.3032 -0.4089 -0.3710
10128TIP3   OH251874   5.803   3.129  14.144 -0.0922  0.4881  0.0294
10128TIP3    H151875   5.758   3.170  14.218 -0.4789 -3.0070  1.8463
10128TIP3    H251876   5.893   3.119  14.174 -0.2722 -1.0308  0.1018
10129TIP3   OH251877   1.746   4.125  12.435  0.2615 -0.2143  0.6334
10129TIP3    H151878   1.745   4.029  12.444 -0.2315 -0.1673  1.0480
10129TIP3    H251879   1.665   4.154  12.476  0.5491  0.4094  0.7594
10130TIP3   OH251880   6.244   4.578   1.160 -0.5992  0.3153 -0.5129
10130TIP3    H151881   6.257   4.507   1.096 -0.1940 -1.8526  1.9160
10130TIP3    H251882   6.266   4.539   1.244  0.2076  3.5313  0.8347
10131TIP3   OH251883   5.338   4.950   0.636  0.1233 -0.1062  0.4461
10131TIP3    H151884   5.279   5.009   0.683  1.3885  2.2163 -0.7962
10131TIP3    H251885   5.315   4.863   0.669 -2.1662  0.9874  1.9287
10132TIP3   OH251886   2.943   3.128   4.479 -0.5061  0.0453  0.3474
10132TIP3    H151887   2.908   3.109   4.392 -0.9976 -0.0301  0.5581
10132TIP3    H251888   2.923   3.221   4.492 -1.7096 -0.2843  0.9523
10133TIP3   OH251889   6.263   2.742   0.812 -0.0092  0.4127  0.4211
10133TIP3    H151890   6.291   2.683   0.881 -1.3513  1.2955  1.7637
10133TIP3    H251891   6.329   2.732   0.743  0.4995 -1.6365  1.1628
10134TIP3   OH251892   6.850   5.155  14.697 -0.1964 -0.4550  0.4121
10134TIP3    H151893   6.790   5.228  14.706 -0.1730 -0.3769 -0.0288
10134TIP3    H251894   6.896   5.150  14.781 -1.4881 -1.1225  1.0897
10135TIP3   OH251895   4.167   5.446  13.846 -0.2298  0.1189 -0.3253
10135TIP3    H151896   4.115   5.470  13.923  0.2549 -0.5847  0.2330
10135TIP3    H251897   4.258   5.456  13.875 -0.0213  2.2446 -1.5753
10136TIP3   OH251898   6.854   3.804   0.407 -0.0385  0.0760 -0.6596
10136TIP3    H151899   6.877   3.873   0.469 -0.6243  0.0806 -0.4479
10136TIP3    H251900   6.759   3.809   0.399 -0.2187 -1.4575  0.2586
10137TIP3   OH251901   0.130   1.740   0.613 -0.1290  0.3282 -0.1813
10137TIP3    H151902   0.218   1.755   0.579 -0.2693  0.4091 -0.5095
10137TIP3    H251903   0.073   1.793   0.557 -0.3920  0.2362 -0.0031
10138TIP3   OH251904   0.209   0.903   2.993  0.3363  0.0134 -0.2209
10138TIP3    H151905   0.172   0.889   2.906 -1.9430  1.4375  0.4847
10138TIP3    H251906   0.135   0.930   3.047  1.7422 -0.6895  2.1413
10139TIP3   OH251907   2.451   6.274  13.386  0.2678  0.4885  0.1731
10139TIP3    H151908   2.486   6.272  13.474 -0.2948  0.8612  0.4081
10139TIP3    H251909   2.427   6.365  13.371  0.9161  0.5342 -0.5844
10140TIP3   OH251910   6.249   2.450  13.663  0.1283  0.2282  0.6713
10140TIP3    H151911   6.182   2.425  13.726  0.1473  1.5887  1.2411
10140TIP3    H251912   6.213   2.422  13.578  0.0586 -1.4956  1.2695
10141TIP3   OH251913   0.995   6.473  13.577  0.2721  0.0369 -0.5503
10141TIP3    H151914   0.997   6.385  13.614  3.6695 -0.3035 -1.4137
10141TIP3    H251915   0.924   6.470  13.513 -1.2785 -1.3088  1.1942
10142TIP3   OH251916   6.462   6.324  12.104 -0.3114  0.7550 -0.1489
10142TIP3    H151917   6.506   6.404  12.076  0.6449  0.4667  0.4784
10142TIP3    H251918   6.489   6.313  12.195 -0.3417 -0.3350 -0.2614
10143TIP3   OH251919   0.993   2.624   1.449  0.6096  0.2353 -0.3509
10143TIP3    H151920   1.061   2.557   1.457  0.9483  0.6748  0.5190
10143TIP3    H251921   0.994   2.649   1.356  2.4633  1.0817 -0.1246
10144TIP3   OH251922   1.160   5.606  11.562 -0.2996  0.6870 -0.1013
10144TIP3    H151923   1.117   5.554  11.630  0.2224  0.3374 -0.0323
10144TIP3    H251924   1.089   5.656  11.522 -0.4903  1.5477  1.2702
10145TIP3   OH251925   0.180   6.572  11.315 -0.2657 -0.1404 -0.2009
10145TIP3    H151926   0.259   6.518  11.306  0.1908  0.5947 -0.6327
10145TIP3    H251927   0.190   6.640  11.249 -1.4265 -0.2363 -0.4765
10146TIP3   OH251928   6.762   7.049   0.624 -0.5857  0.2939 -0.7598
10146TIP3    H151929   6.769   7.014   0.535 -0.6335  1.1550 -1.1091
10146TIP3    H251930   6.796   7.138   0.617  1.6860 -0.4568  0.6174
10147TIP3   OH251931   4.312   0.212   0.221 -0.2976  0.7287  0.3010
10147TIP3    H151932   4.347   0.283   0.168  0.5830 -0.3868 -0.6138
10147TIP3    H251933   4.243   0.254   0.274 -1.2154  1.8388 -1.7084
10148TIP3   OH251934   5.547   0.356  14.298  0.1169  0.5554 -0.2517
10148TIP3    H151935   5.640   0.349  14.320 -0.1944  0.4100  1.1097
10148TIP3    H251936   5.509   0.273  14.328 -0.7458  1.3218  0.8128
10149TIP3   OH251937   0.288   1.114  13.525  0.0575  0.7430  0.3165
10149TIP3    H151938   0.298   1.058  13.447 -0.0774 -0.6811  1.2930
10149TIP3    H251939   0.340   1.191  13.506  0.3756  0.2223 -1.0133
10150TIP3   OH251940   5.054   3.378  13.178 -0.3575 -0.2849  0.2363
10150TIP3    H151941   4.963   3.369  13.207 -0.1097  0.2903  1.2110
10150TIP3    H251942   5.073   3.471  13.186 -0.1088 -0.1991 -1.2926
10151TIP3   OH251943   4.003   5.896  15.425  0.4271  0.0118 -0.0150
10151TIP3    H151944   3.967   5.917  15.338 -1.6416 -0.8170  0.6174
10151TIP3    H251945   4.029   5.981  15.461 -0.7618  0.6193 -0.5570
10152TIP3   OH251946   6.336   4.649  14.060  0.0088 -0.2980 -0.2029
10152TIP3    H151947   6.286   4.726  14.088 -1.6461 -1.9056  1.4514
10152TIP3    H251948   6.317   4.640  13.967 -0.4216  0.8328 -0.2287
10153TIP3   OH251949   6.416   6.686  15.333 -1.1238  0.1403  0.3655
10153TIP3    H151950   6.335   6.677  15.383 -0.6039  0.6806  1.3103
10153TIP3    H251951   6.486   6.675  15.397 -0.4513  0.9751 -0.2093
10154TIP3   OH251952   3.908   1.787  13.648  0.0511 -0.1463  0.3227
10154TIP3    H151953   3.942   1.698  13.662 -1.1474 -0.6670 -0.0769
10154TIP3    H251954   3.943   1.812  13.563 -0.6841 -0.7394 -0.1544
10155TIP3   OH251955   3.646   6.634  12.426 -0.1800 -0.2641  0.3764
10155TIP3    H151956   3.618   6.557  12.475  0.1028  0.5540  1.8656
10155TIP3    H251957   3.717   6.671  12.479 -0.6344  1.2781 -0.0698
10156TIP3   OH251958   4.821   6.571   1.493 -0.0069 -0.2205 -0.2334
10156TIP3    H151959   4.912   6.545   1.505 -0.1786 -0.0879  1.4677
10156TIP3    H251960   4.815   6.658   1.532 -0.7399  0.0151 -0.8470
10157TIP3   OH251961   4.253   3.477  15.482 -0.1113  0.6077  0.3384
10157TIP3    H151962   4.302   3.559  15.476 -0.0870  0.5936  0.3458
10157TIP3    H251963   4.316   3.413  15.513  0.1212  0.3703 -0.6176
10158TIP3   OH251964   1.444   2.618   4.114 -0.2799  0.2204 -0.1681
10158TIP3    H151965   1.381   2.681   4.079 -1.2258  0.0617  1.2103
10158TIP3    H251966   1.523   2.670   4.129 -0.7168  0.8560 -0.0321
10159TIP3   OH251967   5.128   1.957   1.197 -0.1546  0.4752  0.0020
10159TIP3    H151968   5.039   1.976   1.166  0.1892  0.1661 -1.1847
10159TIP3    H251969   5.182   1.960   1.118  0.5457 -1.4354  0.3933
10160TIP3   OH251970   1.569   0.251  13.884  0.4524 -0.4449 -0.5153
10160TIP3    H151971   1.520   0.169  13.888  0.3121 -0.3110  0.5188
10160TIP3    H251972   1.552   0.284  13.796  0.1027 -1.2763 -0.7682
10161TIP3   OH251973   4.798   5.526  12.909 -0.3295 -1.3371 -0.0820
10161TIP3    H151974   4.747   5.477  12.973  0.1131 -0.4613  0.9593
10161TIP3    H251975   4.740   5.535  12.834 -1.7825 -0.1863  1.1545
10162TIP3   OH251976   6.350   3.731  15.001  0.6943 -0.7289 -0.3982
10162TIP3    H151977   6.332   3.824  14.989  1.5547 -0.4791  0.1255
10162TIP3    H251978   6.290   3.704  15.071  1.0884 -0.3431  0.0924
10163TIP3   OH251979   3.206   5.178   1.068 -0.4416 -0.1273  0.1292
10163TIP3    H151980   3.290   5.132   1.059  0.2334  0.7998  1.4965
10163TIP3    H251981   3.163   5.135   1.142 -1.1285 -0.4927 -0.4688
10164TIP3   OH251982   6.467   6.500   3.058 -0.5001  0.3218 -0.4230
10164TIP3    H151983   6.475   6.407   3.079  1.7093  1.1857  2.7681
10164TIP3    H251984   6.387   6.529   3.103 -1.8361 -0.2012 -2.3531
10165TIP3   OH251985   4.191   2.481   1.387 -0.0517 -0.1744  0.1843
10165TIP3    H151986   4.272   2.503   1.432 -0.2032  0.5494  0.1076
10165TIP3    H251987   4.153   2.565   1.362 -0.2722 -0.5469 -0.7663
10166TIP3   OH251988   1.483   6.439  14.360 -0.0779  0.0776 -0.0398
10166TIP3    H151989   1.513   6.439  14.269 -2.1121 -0.7301 -0.7441
10166TIP3    H251990   1.554   6.396  14.409  1.4077  1.2892 -1.0887
10167TIP3   OH251991   2.817   3.187  13.299 -0.1722 -0.3234 -0.5460
10167TIP3    H151992   2.735   3.173  13.253 -0.8935 -1.3453  0.9942
10167TIP3    H251993   2.882   3.141  13.246 -1.1322 -2.2381 -0.1282
10168TIP3   OH251994   1.671   4.016   0.834  0.2491  0.3659  0.4885
10168TIP3    H151995   1.673   4.001   0.739 -1.8458 -0.1328  0.5123
10168TIP3    H251996   1.747   3.968   0.867  1.9855  1.9152 -1.1046
10169TIP3   OH251997   3.187   2.350  12.147 -0.0189 -0.3119  0.4762
10169TIP3    H151998   3.213   2.397  12.226 -0.0442  0.2266  0.1611
10169TIP3    H251999   3.241   2.271  12.147  2.3266  1.2305 -0.6700
10170TIP3   OH252000   4.020   3.168   0.611  0.5559  0.3136 -0.3556
10170TIP3    H152001   4.081   3.232   0.648  0.5374  0.6195 -0.8625
10170TIP3    H252002   3.940   3.218   0.595  0.3791  0.0518 -0.2919
10171TIP3   OH252003   5.085   5.180  15.000 -0.3425  0.0541 -0.1935
10171TIP3    H152004   5.115   5.247  15.062 -1.2348 -0.7832  1.1812
10171TIP3    H252005   5.165   5.144  14.963  0.1493  1.8415 -0.9145
10172TIP3   OH252006   6.727   6.768  13.975  0.4011 -0.0104  0.4439
10172TIP3    H152007   6.723   6.677  13.946  3.2640 -0.7312  2.2071
10172TIP3    H252008   6.635   6.792  13.990 -0.8775 -0.8682 -5.0648
10173TIP3   OH252009   1.935   1.022  11.466  0.1456  0.0814  0.5444
10173TIP3    H152010   1.897   0.963  11.531 -0.5671 -0.9037 -0.7437
10173TIP3    H252011   1.861   1.074  11.434  0.2669 -0.2780 -0.3400
10174TIP3   OH252012   5.471   2.210   1.332  0.5403 -0.3219  0.4543
10174TIP3    H152013   5.421   2.190   1.411  0.8080  2.8228  1.4628
10174TIP3    H252014   5.513   2.294   1.350  2.5212 -0.6888 -2.1346
10175TIP3   OH252015   6.323   4.130   0.811  0.1650 -0.2052  0.0710
10175TIP3    H152016   6.238   4.142   0.769 -0.8714  0.9804  2.4122
10175TIP3    H252017   6.374   4.207   0.784  1.2722 -1.9687 -3.0469
10176TIP3   OH252018   0.958   4.824   1.778 -0.2701 -0.4984  0.2746
10176TIP3    H152019   0.988   4.756   1.718 -1.9159  0.2051 -1.4225
10176TIP3    H252020   0.999   4.904   1.745 -1.1159 -0.1215  0.1147
10177TIP3   OH252021   0.674   6.768  13.073 -0.1028  0.6171  0.6311
10177TIP3    H152022   0.691   6.709  13.147 -0.9285  1.1973  1.2929
10177TIP3    H252023   0.616   6.718  13.015  1.1738 -0.1385 -0.0376
10178TIP3   OH252024   4.913   4.407  13.638 -0.1133  0.2144 -0.1948
10178TIP3    H152025   4.982   4.404  13.572 -0.6827 -0.7373 -0.7523
10178TIP3    H252026   4.949   4.462  13.707  0.9272  0.3094 -0.8017
10179TIP3   OH252027   3.785   5.377   2.758  0.3008  0.6181 -0.0893
10179TIP3    H152028   3.878   5.374   2.734  0.5635  0.8814  0.8787
10179TIP3    H252029   3.770   5.467   2.787 -0.2947  0.6113 -0.3527
10180TIP3   OH252030   4.681   2.541   1.944  0.0090  0.1555  0.3035
10180TIP3    H152031   4.657   2.452   1.918 -1.3982  0.7338 -0.4206
10180TIP3    H252032   4.685   2.590   1.862  2.4878  0.3814  0.5270
10181TIP3   OH252033   4.316   3.163  14.556  0.2490 -0.4025 -0.0400
10181TIP3    H152034   4.277   3.249  14.575  1.6462  0.1855  0.2459
10181TIP3    H252035   4.245   3.113  14.516 -0.4126  1.0905 -0.7853
10182TIP3   OH252036   2.743   3.641  12.444 -0.0902  0.0206 -0.0797
10182TIP3    H152037   2.679   3.687  12.497 -0.3981 -1.7440  1.1150
10182TIP3    H252038   2.691   3.585  12.386  0.3208  0.0766 -0.5099
10183TIP3   OH252039   4.466   3.441   1.261 -0.0984  0.0980 -0.0385
10183TIP3    H152040   4.519   3.451   1.341  1.9619  0.3320 -1.3805
10183TIP3    H252041   4.387   3.492   1.278  0.2982  0.1213  1.8660
10184TIP3   OH252042   3.950   0.594   1.249  1.1532  0.4246  0.5015
10184TIP3    H152043   3.932   0.686   1.266 -0.0636  0.2938 -0.0386
10184TIP3    H252044   3.940   0.585   1.154 -2.8535 -1.0994  0.9653
10185TIP3   OH252045   1.580   3.536  15.141 -0.6433 -0.1144 -0.0092
10185TIP3    H152046   1.490   3.542  15.174 -0.6047  1.0700 -0.1113
10185TIP3    H252047   1.577   3.464  15.079 -1.8770  0.8784 -1.1242
10186TIP3   OH252048   4.905   6.737   1.224  0.0373  0.4358  0.0573
10186TIP3    H152049   4.833   6.746   1.287 -0.7033  0.0332 -0.7179
10186TIP3    H252050   4.980   6.709   1.276 -0.9428 -1.3441  0.5469
10187TIP3   OH252051   0.315   2.040   1.279  0.0674 -0.4355  0.1148
10187TIP3    H152052   0.355   2.126   1.269  0.3249 -0.6269 -0.4903
10187TIP3    H252053   0.322   1.999   1.193  0.1036 -1.1313  0.4388
10188TIP3   OH252054   5.140   0.213   0.378 -0.1527  0.2204  0.3817
10188TIP3    H152055   5.233   0.190   0.374 -0.6177 -1.7489  0.1859
10188TIP3    H252056   5.097   0.132   0.405 -2.0886  0.3802 -2.0461
10189TIP3   OH252057   0.655   3.390   0.880  0.5495 -0.2557 -0.4868
10189TIP3    H152058   0.725   3.325   0.886  0.5996 -0.2067 -0.5550
10189TIP3    H252059   0.673   3.451   0.952  1.9224  1.1052 -1.9594
10190TIP3   OH252060   3.608   1.473  11.470 -0.4594  0.2859  0.1263
10190TIP3    H152061   3.539   1.490  11.535 -0.6072 -0.3510  0.1441
10190TIP3    H252062   3.593   1.382  11.443 -1.2280  0.9698 -1.8124
10191TIP3   OH252063   0.008   6.325  12.663 -0.2679 -0.8043  0.2245
10191TIP3    H152064   0.032   6.300  12.752 -0.9485  4.2511  1.9770
10191TIP3    H252065  -0.073   6.277  12.645 -0.7391 -1.0320  2.8074
10192TIP3   OH252066   7.084   1.211  14.453  0.1711  0.1443  0.2195
10192TIP3    H152067   7.026   1.259  14.395  0.5526  0.9602  0.4950
10192TIP3    H252068   7.159   1.269  14.465  1.5107 -1.2929 -0.9333
10193TIP3   OH252069   7.017   3.076   1.037 -0.4579  0.7373  0.2621
10193TIP3    H152070   6.985   3.142   1.098 -1.0243 -0.2844  1.0856
10193TIP3    H252071   6.938   3.048   0.990 -0.1268  1.0442 -0.4868
10194TIP3   OH252072   5.041   2.402  15.313  0.2240  0.0045  0.4038
10194TIP3    H152073   5.007   2.399  15.223  0.8538 -0.6497  0.1856
10194TIP3    H252074   5.063   2.311  15.333  0.9006  0.2780  0.9046
10195TIP3   OH252075   5.616   4.796  10.987  0.0073  0.3083  0.1067
10195TIP3    H152076   5.655   4.782  11.073  0.5187  0.6493 -0.0619
10195TIP3    H252077   5.530   4.835  11.005  0.5662  1.4119  0.4414
10196TIP3   OH252078   5.504   4.397  13.536 -0.4020 -0.6750 -0.0056
10196TIP3    H152079   5.505   4.304  13.560 -0.3884 -0.4268  0.9644
10196TIP3    H252080   5.562   4.439  13.600  1.4878 -0.3450 -1.8910
10197TIP3   OH252081   5.409   2.850  13.465 -0.2220 -0.4919  0.5251
10197TIP3    H152082   5.423   2.832  13.558 -1.8062 -1.1879  0.6412
10197TIP3    H252083   5.317   2.876  13.459 -0.0135  0.0003 -0.7860
10198TIP3   OH252084   3.319   6.868   0.565 -0.3429  0.4075 -0.0147
10198TIP3    H152085   3.297   6.815   0.488  2.0342  0.3684 -0.7237
10198TIP3    H252086   3.322   6.806   0.637  0.5596 -0.1221 -0.4971
10199TIP3   OH252087   0.125   4.280  13.428  0.7689  0.0145  0.3352
10199TIP3    H152088   0.144   4.340  13.356 -1.0139 -0.1350 -0.3015
10199TIP3    H252089   0.204   4.281  13.482  2.3416 -0.2639 -1.8874
10200TIP3   OH252090   0.157   5.401  13.575  0.2200  0.4688  0.5804
10200TIP3    H152091   0.239   5.390  13.529  0.7444  2.3867  1.0152
10200TIP3    H252092   0.157   5.332  13.642 -0.1749 -1.7951 -1.6871
10201TIP3   OH252093   0.977   5.300   2.813  0.4927  0.0681 -0.0244
10201TIP3    H152094   0.996   5.229   2.874 -0.3327  2.0266  2.6277
10201TIP3    H252095   0.889   5.279   2.780  1.0090 -1.0897 -0.6994
10202TIP3   OH252096   1.955   4.368  13.294  0.2205  0.2194  0.7255
10202TIP3    H152097   1.974   4.303  13.361  1.0113 -0.4082 -0.0871
10202TIP3    H252098   2.026   4.431  13.301 -0.0342  0.4870  0.8920
10203TIP3   OH252099   4.253   3.845   3.062 -0.3067 -0.2821  0.0444
10203TIP3    H152100   4.234   3.920   3.119 -0.9787  1.0248 -1.8584
10203TIP3    H252101   4.169   3.822   3.023 -0.2431 -2.5013  1.1112
10204TIP3   OH252102   6.410   3.366   1.687 -0.3759  0.2340 -0.2178
10204TIP3    H152103   6.422   3.401   1.599 -0.3020 -1.5903 -0.9637
10204TIP3    H252104   6.328   3.405   1.717 -0.4029  0.8748 -1.1063
10205TIP3   OH252105   5.510   0.202   0.022  0.5501 -0.0483  0.2683
10205TIP3    H152106   5.415   0.215   0.023  0.9076  2.9846  0.0436
10205TIP3    H252107   5.526   0.138   0.091 -1.5225  0.7043  1.4980
10206TIP3   OH252108   2.854   4.574  13.238 -0.2789  0.0803 -0.0969
10206TIP3    H152109   2.878   4.618  13.156  0.2568  1.4926  0.7976
10206TIP3    H252110   2.765   4.604  13.256 -0.0761  0.4412  0.2895
10207TIP3   OH252111   1.782   0.807   0.983 -0.4750  0.7827 -0.2007
10207TIP3    H152112   1.773   0.879   1.045 -0.6410 -0.1607  0.8751
10207TIP3    H252113   1.695   0.766   0.980 -0.2368  0.2792 -0.3839
10208TIP3   OH252114   6.341   0.402   0.514  0.1867 -0.7096  0.0214
10208TIP3    H152115   6.270   0.453   0.475  0.0978 -1.0144 -0.2236
10208TIP3    H252116   6.415   0.462   0.518 -0.7704  0.4060  2.6029
10209TIP3   OH252117   5.911   4.674  13.772  0.3661 -0.0842  0.0167
10209TIP3    H152118   5.900   4.768  13.760  2.0450  0.1250  0.0365
10209TIP3    H252119   5.973   4.665  13.844  0.0515 -1.2187  0.1682
10210TIP3   OH252120   3.847   4.854  13.009 -0.5242  0.5963  0.5327
10210TIP3    H152121   3.763   4.899  13.017  0.1599  2.1338 -0.7094
10210TIP3    H252122   3.840   4.804  12.927 -0.8482 -0.6855  1.3146
10211TIP3   OH252123   3.034   0.173   0.588  0.5269 -0.1665  0.0572
10211TIP3    H152124   3.085   0.100   0.553 -0.8878 -1.5453  0.8430
10211TIP3    H252125   2.949   0.166   0.544  0.7755  1.7472 -0.7768
10212TIP3   OH252126   4.678   2.478   1.208 -0.0434 -0.1603  0.3301
10212TIP3    H152127   4.718   2.405   1.256 -0.9233 -1.1180 -0.3534
10212TIP3    H252128   4.592   2.445   1.183 -1.3829  1.9576  1.9954
10213TIP3   OH252129   1.155   5.301   0.888 -0.3168 -0.0920 -0.3466
10213TIP3    H152130   1.243   5.337   0.896  0.2560 -1.3672 -0.7922
10213TIP3    H252131   1.143   5.250   0.968  0.3493 -2.0073 -1.4238
10214TIP3   OH252132   3.580   3.096  13.213 -0.3014  0.3641 -0.1806
10214TIP3    H152133   3.516   3.042  13.260 -0.6762  0.5015 -0.5346
10214TIP3    H252134   3.535   3.180  13.199  0.8453  1.3469  1.8023
10215TIP3   OH252135   3.817   6.494   0.239  0.4212  0.0522 -0.2145
10215TIP3    H152136   3.896   6.440   0.238  0.4255 -0.0167  1.6258
10215TIP3    H252137   3.850   6.583   0.228  0.6886 -0.0495 -0.2596
10216TIP3   OH252138   5.259   4.556   3.492  0.3591  0.0678 -1.1143
10216TIP3    H152139   5.236   4.465   3.510 -1.0360  0.6558  0.2009
10216TIP3    H252140   5.344   4.551   3.447  1.2104 -1.7892  0.6094
10217TIP3   OH252141   6.795   2.588   0.547  0.0561  0.0478  0.3283
10217TIP3    H152142   6.741   2.586   0.626  1.3160  2.3488  1.2924
10217TIP3    H252143   6.884   2.575   0.578  0.6997  2.1620 -0.5422
10218TIP3   OH252144   7.078   6.001  15.518 -0.0400 -0.0486 -0.7479
10218TIP3    H152145   7.138   6.065  15.556  0.2815 -0.2545 -0.9045
10218TIP3    H252146   7.085   5.924  15.574 -1.3907  0.5045  0.1825
10219TIP3   OH252147   2.588   0.791   1.371  0.0149 -0.7226  0.2070
10219TIP3    H152148   2.580   0.756   1.282 -1.0154 -0.7814  0.3223
10219TIP3    H252149   2.682   0.802   1.383  0.1717 -0.7990 -0.8586
10220TIP3   OH252150   5.887   1.316  12.985 -0.1998 -0.5692 -0.5755
10220TIP3    H152151   5.899   1.236  12.935 -0.6628 -0.5126 -0.7795
10220TIP3    H252152   5.914   1.386  12.925 -2.2312 -0.3831 -1.3095
10221TIP3   OH252153   1.055   1.207   0.046 -0.1355 -0.2987 -0.1992
10221TIP3    H152154   1.042   1.117   0.016 -0.1227  0.6738 -3.2404
10221TIP3    H252155   1.150   1.220   0.040 -0.1124 -0.1684  0.4823
10222TIP3   OH252156   6.085   1.440   2.137 -0.0988  0.2233 -0.5625
10222TIP3    H152157   6.180   1.449   2.140 -0.1699  0.5404  1.1094
10222TIP3    H252158   6.067   1.358   2.182 -0.5338 -0.6138 -2.2083
10223TIP3   OH252159   1.930   2.901  14.685 -0.0567 -1.2338  0.4066
10223TIP3    H152160   1.864   2.868  14.624  0.8864  1.3937 -2.1162
10223TIP3    H252161   1.891   2.980  14.722  0.2681 -1.6332  1.6243
10224TIP3   OH252162   5.816   1.338  15.132  0.2636 -0.5231 -0.0459
10224TIP3    H152163   5.747   1.335  15.198  0.1525  0.7368 -0.0920
10224TIP3    H252164   5.775   1.303  15.053 -0.0437 -0.6303  0.1601
10225TIP3   OH252165   2.929   0.188  15.064  0.2098  0.3190  0.1290
10225TIP3    H152166   2.981   0.268  15.064 -0.0287  0.4751  0.6419
10225TIP3    H252167   2.886   0.187  15.149  0.5772 -0.5890  0.3120
10226TIP3   OH252168   4.575   5.696   1.199  0.3753 -0.4743 -0.4519
10226TIP3    H152169   4.575   5.608   1.237 -0.8678 -0.1443  0.3460
10226TIP3    H252170   4.483   5.723   1.202  0.6805  0.6529 -1.1532
10227TIP3   OH252171   5.300   3.971   1.130 -0.3384 -0.7572  0.4052
10227TIP3    H152172   5.376   4.028   1.128 -0.4688 -0.6077 -0.4480
10227TIP3    H252173   5.313   3.916   1.207  1.3663 -1.7344 -0.5475
10228TIP3   OH252174   0.121   3.630  12.511  0.2929 -0.2213 -0.2282
10228TIP3    H152175   0.198   3.669  12.468 -0.9765 -0.6075 -2.9213
10228TIP3    H252176   0.158   3.564  12.570  2.0673  0.2683 -0.7583
10229TIP3   OH252177   1.525   5.644   2.266  0.2866 -0.4076 -0.1499
10229TIP3    H152178   1.510   5.591   2.188 -1.3661 -2.1470  1.3242
10229TIP3    H252179   1.479   5.726   2.248  2.5143  0.4379 -2.2602
10230TIP3   OH252180   5.231   6.302   0.886  0.4470 -0.0369 -0.2310
10230TIP3    H152181   5.179   6.222   0.896  0.7501 -0.0543  1.2346
10230TIP3    H252182   5.175   6.372   0.921  1.4192 -0.0578  1.3850
10231TIP3   OH252183   6.050   3.723   0.059 -0.2341  0.2092  0.0388
10231TIP3    H152184   6.067   3.629   0.053  0.3414  0.2705  0.6222
10231TIP3    H252185   6.106   3.753   0.131 -1.0593  0.8450  0.4244
10232TIP3   OH252186   3.760   3.718  14.528 -0.0503  0.3297  0.1697
10232TIP3    H152187   3.751   3.631  14.568 -1.8622 -0.3653 -1.6637
10232TIP3    H252188   3.817   3.704  14.452 -2.0274  0.3063 -1.3382
10233TIP3   OH252189   2.301   2.772  15.227 -0.4387  0.0325 -0.0733
10233TIP3    H152190   2.337   2.791  15.314 -0.0666 -0.8467 -0.0307
10233TIP3    H252191   2.236   2.703  15.242 -1.0782  0.5698 -0.3595
10234TIP3   OH252192   6.693   2.853   2.184  0.1441 -0.2336 -0.0518
10234TIP3    H152193   6.730   2.936   2.214  2.7870 -1.5861  0.6004
10234TIP3    H252194   6.765   2.809   2.139 -2.2297 -0.5955 -3.7511
10235TIP3   OH252195   1.427   5.591   1.626 -0.0113 -0.0856 -0.3114
10235TIP3    H152196   1.459   5.515   1.577 -1.4479 -1.3405  0.6400
10235TIP3    H252197   1.480   5.592   1.706  0.2002  0.0687 -0.4556
10236TIP3   OH252198   6.037   0.665   0.746  0.3708  0.0752  0.0376
10236TIP3    H152199   5.965   0.684   0.686  0.2531  0.9681  0.4528
10236TIP3    H252200   6.010   0.703   0.830 -0.0413 -2.2901  1.0129
10237TIP3   OH252201   5.155   1.197  14.325 -0.2020 -0.0865 -0.0196
10237TIP3    H152202   5.159   1.209  14.230 -0.3073  0.0728 -0.0044
10237TIP3    H252203   5.200   1.274  14.360  0.0225 -0.2506  0.0551
10238TIP3   OH252204   1.507   2.628  15.334 -0.4586  0.2507  0.2107
10238TIP3    H152205   1.596   2.638  15.301 -1.0943  2.0833 -1.0305
10238TIP3    H252206   1.517   2.596  15.424  1.4021 -0.7349 -0.3345
10239TIP3   OH252207   0.100   5.525   4.656 -0.1769 -0.1447  0.1497
10239TIP3    H152208   0.088   5.605   4.605  1.3727  0.6786  1.0339
10239TIP3    H252209   0.107   5.555   4.747  0.5703 -1.2675  0.4747
10240TIP3   OH252210   2.718   6.006   1.702  0.0157  0.2237 -0.0093
10240TIP3    H152211   2.730   6.034   1.612  0.8918  1.3319  0.4369
10240TIP3    H252212   2.806   5.996   1.737 -0.3029  1.1936  1.1326
10241TIP3   OH252213   4.434   3.820   3.554 -0.1055  0.4758  0.1028
10241TIP3    H152214   4.413   3.773   3.635 -0.1686 -1.6657 -1.1292
10241TIP3    H252215   4.351   3.828   3.509  0.2050  0.1407 -0.5356
10242TIP3   OH252216   0.644   0.198  13.160 -0.1954 -0.0913 -0.7155
10242TIP3    H152217   0.660   0.118  13.109 -2.4825 -0.7483 -0.4957
10242TIP3    H252218   0.620   0.263  13.095  0.2064  0.0012 -0.7710
10243TIP3   OH252219   1.455   3.520  14.185  0.3380 -0.1169 -0.2439
10243TIP3    H152220   1.450   3.428  14.211  2.5631 -0.0391  0.6401
10243TIP3    H252221   1.549   3.535  14.172 -0.0412  1.9454 -0.6712
10244TIP3   OH252222   1.218   3.774  15.189 -0.0196  0.0482 -0.0394
10244TIP3    H152223   1.274   3.781  15.111 -0.2001  0.7342 -0.1113
10244TIP3    H252224   1.129   3.786  15.156 -0.1613 -0.4734  0.1551
10245TIP3   OH252225   0.318   1.383   0.892  0.3383 -0.2292 -0.1813
10245TIP3    H152226   0.325   1.317   0.823 -0.5736 -1.3926  0.8060
10245TIP3    H252227   0.233   1.365   0.933  0.8741  0.4387  1.2383
10246TIP3   OH252228   4.042   0.892  14.158 -0.4196 -0.3105  0.0983
10246TIP3    H152229   4.025   0.982  14.184 -0.3313  0.1061 -1.3009
10246TIP3    H252230   3.955   0.851  14.157 -0.5508 -0.0233 -0.1379
10247TIP3   OH252231   1.336   5.905   1.617 -0.3289  0.0791 -0.2094
10247TIP3    H152232   1.353   5.813   1.596  0.5476  0.5607 -1.7071
10247TIP3    H252233   1.272   5.902   1.688 -0.2138 -1.6891 -0.1534
10248TIP3   OH252234   2.178   0.082  12.299 -0.5899  0.8047  0.2020
10248TIP3    H152235   2.251   0.136  12.328  0.5756 -0.6613  0.0363
10248TIP3    H252236   2.171   0.013  12.366 -0.9934  0.1881 -0.4653
10249TIP3   OH252237   2.252   4.479  13.105 -0.7172 -0.1243  0.1664
10249TIP3    H152238   2.213   4.563  13.082  0.9837  0.1336 -1.9715
10249TIP3    H252239   2.203   4.414  13.054  0.6785  0.0490 -1.4291
10250TIP3   OH252240   3.408   3.821   1.413 -0.1414  0.3998 -0.2930
10250TIP3    H152241   3.407   3.879   1.337  0.0512  0.7322 -0.0438
10250TIP3    H252242   3.499   3.821   1.442 -0.5316  1.6711  0.9977
10251TIP3   OH252243   7.023   3.268   2.351 -0.3314  0.2334  0.6951
10251TIP3    H152244   7.001   3.359   2.372 -1.5993  0.3098 -0.8914
10251TIP3    H252245   7.029   3.225   2.437  1.2686  2.0108  1.5041
10252TIP3   OH252246   1.761   7.135  13.714  0.1861 -0.5495 -0.2179
10252TIP3    H152247   1.666   7.137  13.707  0.0989 -2.4871  0.1386
10252TIP3    H252248   1.786   7.049  13.680  1.6012 -0.9988  1.8254
10253TIP3   OH252249   3.286   5.544  13.486 -0.1107 -0.6213 -0.1582
10253TIP3    H152250   3.380   5.525  13.492 -0.2082 -1.1530 -0.2774
10253TIP3    H252251   3.275   5.586  13.400  0.2322  0.7292  0.4501
10254TIP3   OH252252   2.551   3.172  14.638  0.2281 -0.3676  0.0634
10254TIP3    H152253   2.458   3.191  14.649  0.6768  2.1365 -0.3087
10254TIP3    H252254   2.586   3.177  14.727  0.2954  0.3168  0.0005
10255TIP3   OH252255   6.690   3.991  10.723 -0.4355 -0.2708 -0.4533
10255TIP3    H152256   6.714   4.080  10.696 -3.9460  0.9135 -0.0409
10255TIP3    H252257   6.625   3.963  10.658 -1.0706 -1.5968  0.7151
10256TIP3   OH252258   3.066   4.511   4.612 -0.2617  0.3313 -0.1558
10256TIP3    H152259   3.091   4.535   4.523 -0.0858 -1.6158 -0.6409
10256TIP3    H252260   3.114   4.430   4.630 -2.5769 -0.9153  0.6147
10257TIP3   OH252261   0.323   3.236   1.540  0.0512  0.0626  0.2071
10257TIP3    H152262   0.240   3.283   1.541  1.0856  1.9518  1.7131
10257TIP3    H252263   0.357   3.245   1.629  1.3352 -1.6670 -0.0758
10258TIP3   OH252264   5.210   1.730  13.763 -0.2073 -0.0196 -0.2261
10258TIP3    H152265   5.143   1.724  13.832  0.9183  0.0828  0.8896
10258TIP3    H252266   5.209   1.644  13.721 -1.8896  0.3755 -1.0264
10259TIP3   OH252267   1.706   3.390   0.962  0.1048 -0.1470  0.5303
10259TIP3    H152268   1.637   3.340   1.005 -0.1848 -0.2214 -0.0059
10259TIP3    H252269   1.778   3.329   0.951  0.8671  0.3738  2.5507
10260TIP3   OH252270   3.398   5.536   0.728 -0.1468  0.6612 -0.1415
10260TIP3    H152271   3.350   5.513   0.807  2.8615 -0.0383  1.5546
10260TIP3    H252272   3.362   5.620   0.701 -2.3967  0.0819  0.9513
10261TIP3   OH252273   3.395   5.304  15.475  0.4556 -0.1742  0.2108
10261TIP3    H152274   3.405   5.271  15.564  1.1431  1.0975  0.6205
10261TIP3    H252275   3.472   5.358  15.460  0.3327 -0.3406 -1.1500
10262TIP3   OH252276   2.720   6.312   2.275 -0.3435  0.1231  0.9808
10262TIP3    H152277   2.734   6.404   2.254 -0.8675  0.1133  0.5685
10262TIP3    H252278   2.650   6.285   2.216  0.7358 -0.9030  0.1594
10263TIP3   OH252279   6.652   2.298   4.831  0.3274  0.1765  0.2758
10263TIP3    H152280   6.701   2.216   4.817 -1.4426 -0.6050 -1.6142
10263TIP3    H252281   6.560   2.273   4.822 -0.3781  1.9234  2.2244
10264TIP3   OH252282   3.665   0.569   0.786  0.1519 -0.4353  0.2114
10264TIP3    H152283   3.618   0.545   0.866 -1.5947 -4.0091 -1.7618
10264TIP3    H252284   3.750   0.525   0.794 -0.1946 -1.1656 -0.0767
10265TIP3   OH252285   4.702   5.048   1.912  0.2889 -0.0053  0.3857
10265TIP3    H152286   4.635   4.988   1.878  0.7528 -0.6632  0.6126
10265TIP3    H252287   4.658   5.133   1.916 -0.8709 -0.6387  1.5488
10266TIP3   OH252288   2.430   6.678   0.365  0.0084 -0.2630 -0.5752
10266TIP3    H152289   2.428   6.771   0.340 -0.0939 -0.1577 -0.1813
10266TIP3    H252290   2.377   6.634   0.299 -1.3574  0.1910  0.2066
10267TIP3   OH252291   1.506   4.173  13.992  0.0061 -0.8258  0.2712
10267TIP3    H152292   1.592   4.196  13.955  0.0078 -0.1186  0.7217
10267TIP3    H252293   1.444   4.189  13.921 -0.2984  2.8323  1.2894
10268TIP3   OH252294   0.728   1.000  13.166 -0.2890 -0.2503  0.4120
10268TIP3    H152295   0.804   0.942  13.175 -2.4569 -3.2322  0.0816
10268TIP3    H252296   0.737   1.062  13.239  2.6658 -0.2711  0.1265
10269TIP3   OH252297   6.925   6.306   4.836  0.1363  0.0478 -0.0862
10269TIP3    H152298   6.968   6.223   4.817 -1.4704 -1.1054  1.2647
10269TIP3    H252299   6.986   6.351   4.896  0.9062 -0.2099 -0.6606
10270TIP3   OH252300   4.751   1.967  14.437 -0.3558 -0.0069 -0.1339
10270TIP3    H152301   4.709   1.887  14.465  0.5598  0.2687  2.0939
10270TIP3    H252302   4.699   2.037  14.476  0.3019  0.4181 -0.0106
10271TIP3   OH252303   6.755   3.339   2.689  0.0540 -0.0266 -0.0213
10271TIP3    H152304   6.792   3.358   2.603  0.6474 -0.5000  0.1233
10271TIP3    H252305   6.742   3.425   2.729  0.0962  0.1818 -0.4547
10272TIP3   OH252306   6.446   1.682   2.040 -0.5467  1.1060 -0.4924
10272TIP3    H152307   6.352   1.683   2.021 -1.3119 -0.7576  2.7468
10272TIP3    H252308   6.457   1.746   2.111  0.6543  1.3437 -0.8743
10273TIP3   OH252309   2.047   1.190  14.246 -0.0618  0.2518  0.4517
10273TIP3    H152310   2.071   1.163  14.157  1.1337  0.2153  0.7743
10273TIP3    H252311   2.000   1.272  14.234  0.6793  0.5955 -0.1802
10274TIP3   OH252312   4.614   2.068   2.773 -0.3107 -0.5211  0.1512
10274TIP3    H152313   4.599   2.031   2.686 -2.3435  2.2736 -0.7606
10274TIP3    H252314   4.533   2.051   2.821  1.0516 -2.6426  1.7755
10275TIP3   OH252315   6.398   5.482  13.329  0.4077 -0.0377  0.0160
10275TIP3    H152316   6.421   5.437  13.410  1.8700  1.1094  0.2676
10275TIP3    H252317   6.419   5.419  13.260  0.5906 -0.4578  0.4487
10276TIP3   OH252318   0.164   4.854   2.542  0.6499  0.7896  0.6509
10276TIP3    H152319   0.176   4.824   2.452 -0.8493  0.0481  0.6970
10276TIP3    H252320   0.242   4.823   2.588  1.4505  1.2171 -0.3847
10277TIP3   OH252321   1.676   0.730  15.003  0.1403 -0.2046  0.0788
10277TIP3    H152322   1.625   0.687  14.934 -0.1451 -0.3703  0.3977
10277TIP3    H252323   1.692   0.818  14.969 -2.0072  0.4841  0.8238
10278TIP3   OH252324   1.813   3.154  14.193 -0.0158 -0.4622 -0.2223
10278TIP3    H152325   1.738   3.202  14.159  0.6034  1.0483  0.5081
10278TIP3    H252326   1.777   3.097  14.261 -0.5318  0.0454 -0.0736
10279TIP3   OH252327   3.703   4.819   2.523  0.5364 -0.6308 -0.0118
10279TIP3    H152328   3.623   4.859   2.558  1.0256  0.0993  0.2736
10279TIP3    H252329   3.681   4.798   2.432  0.1288 -0.1225 -0.0337
10280TIP3   OH252330   0.501   6.762   0.240  0.8344 -0.2962 -0.0641
10280TIP3    H152331   0.482   6.855   0.252  0.6570 -0.3790  0.3060
10280TIP3    H252332   0.463   6.720   0.317  2.9750 -0.4209  0.9484
10281TIP3   OH252333   3.093   1.861  15.325  0.4240  0.3066 -0.4632
10281TIP3    H152334   3.056   1.780  15.362  1.0955  0.3473  0.3205
10281TIP3    H252335   3.106   1.841  15.232 -0.0286 -0.2670 -0.4080
10282TIP3   OH252336   6.972   6.815   0.461 -0.2945  0.6374  0.1354
10282TIP3    H152337   6.884   6.853   0.454 -0.2466  1.0796  1.7942
10282TIP3    H252338   7.014   6.864   0.531  1.0218 -0.0909 -0.1259
10283TIP3   OH252339   7.009   6.617   1.123  0.2486  0.0675  0.0783
10283TIP3    H152340   6.938   6.618   1.187  0.8150  1.1397  0.7167
10283TIP3    H252341   7.080   6.664   1.166  1.3713 -1.0362 -0.5296
10284TIP3   OH252342   6.857   6.467   0.676 -0.0673 -0.1152  0.2571
10284TIP3    H152343   6.809   6.482   0.595  0.6674  1.0103  0.0253
10284TIP3    H252344   6.790   6.466   0.744 -0.9929 -3.5680 -0.6061
10285TIP3   OH252345   4.905   1.799  15.122 -0.1697 -0.1045  0.1103
10285TIP3    H152346   4.920   1.892  15.141 -1.1009 -0.2110  1.4921
10285TIP3    H252347   4.816   1.783  15.154 -0.4888 -1.1710 -1.2986
10286TIP3   OH252348   5.739   5.991  15.295 -0.3164  0.0913 -0.0469
10286TIP3    H152349   5.705   6.042  15.368  0.3828  0.7898 -0.2022
10286TIP3    H252350   5.763   6.056  15.229 -0.0797 -0.4792 -0.5318
10287TIP3   OH252351   0.974   7.122  13.962  0.0440 -0.6609  0.1253
10287TIP3    H152352   0.973   7.199  14.018  1.2607 -1.1588  0.8364
10287TIP3    H252353   0.922   7.057  14.009 -0.5655 -0.4475 -0.2433
10288TIP3   OH252354   5.261   1.094   5.235  0.7229  0.1331 -0.0674
10288TIP3    H152355   5.323   1.128   5.300  0.8425 -0.1684 -0.0219
10288TIP3    H252356   5.316   1.064   5.163  0.5457  1.2132 -0.6631
10289TIP3   OH252357   6.476   3.506  13.735  0.6366 -0.7874  0.5530
10289TIP3    H152358   6.394   3.510  13.686 -0.0669 -1.1246  1.6953
10289TIP3    H252359   6.543   3.497  13.668 -0.0774  1.3948 -0.5140
10290TIP3   OH252360   2.931   2.391   4.850 -0.5946 -0.0212  0.8056
10290TIP3    H152361   2.861   2.339   4.810 -1.0919  0.6187  0.8269
10290TIP3    H252362   2.961   2.449   4.780 -1.3364  0.9670  1.2798
10291TIP3   OH252363   4.934   3.743   0.349  0.5649  0.1710 -0.1308
10291TIP3    H152364   5.016   3.718   0.393  0.2539 -0.0523  0.3279
10291TIP3    H252365   4.917   3.832   0.378  0.6383  0.2115 -0.2138
10292TIP3   OH252366   6.913   1.669  13.503  0.3135 -0.0905 -0.5863
10292TIP3    H152367   6.971   1.745  13.507  1.9871 -1.4316  2.0080
10292TIP3    H252368   6.972   1.595  13.488 -1.1947 -1.0322 -2.0761
10293TIP3   OH252369   2.711   5.883  14.093  0.0450  0.4421  0.1223
10293TIP3    H152370   2.748   5.963  14.055 -0.9328  0.2938 -1.1677
10293TIP3    H252371   2.618   5.885  14.070 -0.2456 -0.4578  1.1414
10294TIP3   OH252372   0.707   6.817  14.245 -0.4751  0.3291 -0.4375
10294TIP3    H152373   0.778   6.799  14.184  0.8276 -0.4909  1.2568
10294TIP3    H252374   0.727   6.904  14.280 -0.1934  0.0234  0.1732
10295TIP3   OH252375   1.944   1.023  15.566 -0.5238 -0.1723 -0.6865
10295TIP3    H152376   1.983   0.954  15.514  0.0313  0.1282 -0.6786
10295TIP3    H252377   2.017   1.058  15.618 -0.9892 -0.2201  0.0055
10296TIP3   OH252378   6.501   4.129  15.005  0.4402 -0.2133  0.0113
10296TIP3    H152379   6.575   4.070  15.013  1.3446  1.0697  1.5874
10296TIP3    H252380   6.538   4.216  15.017 -1.0216  0.6061 -1.2073
10297TIP3   OH252381   5.244   1.590   3.600  0.2581 -1.0697  0.8032
10297TIP3    H152382   5.239   1.495   3.610  2.5462 -1.2742  0.1717
10297TIP3    H252383   5.204   1.608   3.515  0.3432 -1.5166  0.6701
10298TIP3   OH252384   1.377   0.329  12.138  0.5060 -0.6045  0.1504
10298TIP3    H152385   1.359   0.373  12.221 -1.8027 -1.2762  0.0181
10298TIP3    H252386   1.473   0.332  12.130  0.5447  2.8070  0.9961
10299TIP3   OH252387   2.051   5.558   3.150  0.4383 -0.1014  0.2974
10299TIP3    H152388   2.077   5.622   3.083 -0.2662 -0.0997  0.0201
10299TIP3    H252389   2.104   5.481   3.130 -0.3354 -0.3732 -0.7662
10300TIP3   OH252390   0.996   5.357   0.101 -0.2587 -0.1189  0.4319
10300TIP3    H152391   1.015   5.269   0.132  1.4231  0.2969  0.6387
10300TIP3    H252392   1.000   5.351   0.006  2.9777  0.3491  0.4790
10301TIP3   OH252393   1.615   4.154   1.085  0.6049  0.2113 -0.3492
10301TIP3    H152394   1.622   4.124   0.995 -1.1251 -2.2375  0.2968
10301TIP3    H252395   1.704   4.149   1.120  0.9057 -0.9010 -1.2824
10302TIP3   OH252396   4.470   6.896  13.113  0.2628  0.2371 -0.2102
10302TIP3    H152397   4.417   6.855  13.045 -0.7332  1.3412 -0.1278
10302TIP3    H252398   4.443   6.988  13.111  1.0452  0.4943  0.9140
10303TIP3   OH252399   2.560   1.452   0.703 -0.1640  0.7485  0.6418
10303TIP3    H152400   2.612   1.506   0.763 -0.7543 -0.0339  1.8882
10303TIP3    H252401   2.470   1.485   0.713 -0.1393  1.1670 -0.4511
10304TIP3   OH252402   5.895   6.424  14.238 -0.2183 -0.2156 -0.1061
10304TIP3    H152403   5.974   6.384  14.203 -0.4725 -1.0487  0.2288
10304TIP3    H252404   5.903   6.413  14.333 -1.2171 -1.2730 -0.1255
10305TIP3   OH252405   5.030   4.523   0.120 -0.5553  0.0043 -0.2172
10305TIP3    H152406   4.962   4.481   0.067  0.4295 -1.1577 -0.5835
10305TIP3    H252407   5.107   4.467   0.108  0.1492  0.6897  1.0833
10306TIP3   OH252408   4.900   0.895  15.574 -0.4470  0.0267 -0.0640
10306TIP3    H152409   4.890   0.989  15.590  0.5174  0.3144 -1.0821
10306TIP3    H252410   4.973   0.869  15.630 -0.1447  0.0658 -0.4395
10307TIP3   OH252411   3.243   6.620  12.912  0.1993 -0.2643 -0.1099
10307TIP3    H152412   3.309   6.554  12.890 -0.9870 -1.5691  0.1635
10307TIP3    H252413   3.246   6.628  13.007  1.1194  0.9133 -0.2306
10308TIP3   OH252414   4.444   1.195  14.704 -0.0450 -0.0694 -0.1598
10308TIP3    H152415   4.453   1.170  14.612 -0.0732 -1.8592  0.3168
10308TIP3    H252416   4.534   1.197  14.737  0.0971  2.1605 -0.6225
10309TIP3   OH252417   5.403   2.459   0.415 -0.2796 -0.4904  0.4205
10309TIP3    H152418   5.481   2.415   0.382 -0.3717 -0.2296 -0.1488
10309TIP3    H252419   5.330   2.404   0.386 -0.2736 -1.0241  1.4201
10310TIP3   OH252420   1.983   6.710  15.414 -0.5194 -0.0161  0.6877
10310TIP3    H152421   1.959   6.795  15.451 -1.3082 -0.8371  2.1074
10310TIP3    H252422   2.063   6.685  15.461  0.1329  0.2618 -0.2509
10311TIP3   OH252423   2.629   5.237  12.864  0.5713 -0.3108  0.0855
10311TIP3    H152424   2.576   5.279  12.796  1.3790  0.0274 -0.3444
10311TIP3    H252425   2.584   5.155  12.882 -1.3942  0.9907  1.3954
10312TIP3   OH252426   5.261   1.010   2.551 -0.3659 -0.6692 -0.3229
10312TIP3    H152427   5.174   1.022   2.589 -0.1941 -1.4352  0.3206
10312TIP3    H252428   5.257   0.925   2.506  0.7620 -1.8609  1.7518
10313TIP3   OH252429   0.321   1.052   3.672 -0.6553  0.5515  0.5034
10313TIP3    H152430   0.408   1.021   3.696 -0.5842  0.5066  0.1868
10313TIP3    H252431   0.289   1.097   3.751 -0.7353 -0.2686  0.9402
10314TIP3   OH252432   4.617   6.458  12.645  0.0403 -0.0717  0.5166
10314TIP3    H152433   4.695   6.432  12.596  1.1560  0.5766  1.9128
10314TIP3    H252434   4.577   6.527  12.592 -1.4489 -2.6614 -1.8527
10315TIP3   OH252435   3.714   2.016  10.669  0.0746  0.2544 -0.2994
10315TIP3    H152436   3.722   2.021  10.764 -2.1634 -2.3918  0.0894
10315TIP3    H252437   3.760   1.936  10.645  0.8735  1.0557 -1.5058
10316TIP3   OH252438   4.981   2.112  14.342  0.0679  0.2378 -0.4669
10316TIP3    H152439   5.005   2.063  14.263 -0.0087 -0.7867  0.1322
10316TIP3    H252440   4.900   2.070  14.372  1.3746 -0.9438  1.4970
10317TIP3   OH252441   3.784   5.921  14.804  0.1870 -0.0616  0.2590
10317TIP3    H152442   3.836   5.968  14.739  0.8696  0.0044  0.8431
10317TIP3    H252443   3.695   5.924  14.771  0.6986 -0.9857 -1.2472
10318TIP3   OH252444   1.435   6.945  11.803  0.2256  0.0218 -1.0428
10318TIP3    H152445   1.463   6.952  11.712  0.1591 -0.0710 -1.0699
10318TIP3    H252446   1.420   6.851  11.816  0.5430 -0.0001 -0.8423
10319TIP3   OH252447   4.521   7.183   2.008  0.1120  0.1124 -0.4342
10319TIP3    H152448   4.518   7.240   1.931 -1.4852 -1.0125 -1.2460
10319TIP3    H252449   4.482   7.101   1.978 -1.2494 -0.0918  1.7774
10320TIP3   OH252450   0.401   1.813  12.252 -0.0751 -0.3115 -0.2063
10320TIP3    H152451   0.326   1.866  12.226 -0.7306 -0.1548  1.9077
10320TIP3    H252452   0.474   1.875  12.258 -0.1034 -0.2137 -0.7994
10321TIP3   OH252453   4.393   7.107   2.751 -0.4630 -0.0030  0.7303
10321TIP3    H152454   4.409   7.013   2.760 -0.5040 -0.1400 -0.5063
10321TIP3    H252455   4.398   7.141   2.840 -1.1440 -1.2902  1.2652
10322TIP3   OH252456   5.705   1.332  14.608  0.0581  0.0647 -0.3978
10322TIP3    H152457   5.769   1.313  14.539 -0.7674  0.3405 -1.2449
10322TIP3    H252458   5.623   1.294  14.576 -0.2175 -0.2758  0.6751
10323TIP3   OH252459   5.440   2.821  12.351 -0.4264 -0.2204  0.5363
10323TIP3    H152460   5.524   2.854  12.383  0.5645 -0.7962 -1.4191
10323TIP3    H252461   5.445   2.726  12.367 -0.3883 -0.3568 -0.2995
10324TIP3   OH252462   5.637   5.614  15.254  0.3242 -0.2542 -0.6317
10324TIP3    H152463   5.715   5.581  15.298  1.6241  1.7032 -1.3850
10324TIP3    H252464   5.569   5.550  15.273  1.7141 -1.1710  1.3835
10325TIP3   OH252465   6.153   4.707   1.699 -0.1718  0.0754 -0.0874
10325TIP3    H152466   6.186   4.623   1.669  0.2480 -0.4032  1.6781
10325TIP3    H252467   6.218   4.770   1.667  1.1803 -0.6072  1.2630
10326TIP3   OH252468   5.368   5.005   0.345  0.2013 -0.9315  0.2274
10326TIP3    H152469   5.447   4.953   0.332 -0.4432 -2.0844  0.7896
10326TIP3    H252470   5.365   5.020   0.440 -0.1457 -0.7343  0.1839
10327TIP3   OH252471   6.136   6.924  13.672 -0.0518  0.0741  0.4269
10327TIP3    H152472   6.191   6.957  13.743  0.5760  0.5155 -0.2484
10327TIP3    H252473   6.193   6.864  13.624 -0.3918 -0.0424  0.1670
10328TIP3   OH252474   6.735   6.715   0.965  0.4408  0.1400 -0.4414
10328TIP3    H152475   6.722   6.645   0.901  0.3817 -1.1138  0.9142
10328TIP3    H252476   6.647   6.744   0.989  0.3728 -1.1582  0.9564
10329TIP3   OH252477   6.795   4.494   3.480 -0.6322 -0.0261  0.4070
10329TIP3    H152478   6.843   4.556   3.425  0.5265 -0.3911  0.9732
10329TIP3    H252479   6.780   4.418   3.424 -0.0403 -0.1371  0.3985
10330TIP3   OH252480   3.437   5.779  14.010  0.4336  0.1537  0.2948
10330TIP3    H152481   3.492   5.704  13.986 -0.3839 -0.2427 -0.3743
10330TIP3    H252482   3.348   5.751  13.989  0.1363  1.3594 -0.0905
10331TIP3   OH252483   3.572   3.680  14.156 -0.8300  0.2643 -0.8068
10331TIP3    H152484   3.636   3.724  14.100 -0.5620 -0.0268 -0.7343
10331TIP3    H252485   3.596   3.587  14.150 -2.0379  0.0085 -1.7802
10332TIP3   OH252486   6.731   6.473  14.770 -0.1755 -0.5101  0.2258
10332TIP3    H152487   6.824   6.454  14.766 -0.5528 -2.8146  1.6490
10332TIP3    H252488   6.706   6.452  14.860 -2.2279 -0.7580 -0.3728
10333TIP3   OH252489   4.626   4.005   0.807 -0.3662 -0.7761 -0.0527
10333TIP3    H152490   4.631   4.063   0.730 -0.1807  1.0713  1.3125
10333TIP3    H252491   4.571   3.932   0.778 -0.3754 -0.0709 -1.9126
10334TIP3   OH252492   3.143   1.416  13.866 -0.1936 -0.3126  0.2929
10334TIP3    H152493   3.095   1.442  13.788  1.2776  0.8935 -0.2324
10334TIP3    H252494   3.158   1.498  13.914  2.2564 -0.4990 -0.0955
10335TIP3   OH252495   6.974   1.456  12.141 -0.1938 -0.0979  0.8054
10335TIP3    H152496   6.881   1.440  12.121 -0.0936 -1.9651  1.7284
10335TIP3    H252497   6.978   1.454  12.236  0.7277  0.4276  0.7762
10336TIP3   OH252498   5.798   2.456   0.635 -0.3654  0.7722 -0.1494
10336TIP3    H152499   5.842   2.404   0.569  0.5758  1.1404  0.1810
10336TIP3    H252500   5.710   2.420   0.640  0.5484 -1.4030  0.7568
10337TIP3   OH252501   5.119   2.010   2.602  0.4499  0.4480 -0.0646
10337TIP3    H152502   5.035   2.010   2.557 -0.2011  1.0650  1.1443
10337TIP3    H252503   5.181   2.042   2.536 -0.2648  0.1222 -0.9168
10338TIP3   OH252504   2.416   4.761  15.395  0.4681  0.2229  0.5170
10338TIP3    H152505   2.360   4.690  15.365 -0.0104 -0.2400  2.4041
10338TIP3    H252506   2.491   4.717  15.435  0.4999  0.7741  1.0804
10339TIP3   OH252507   3.586   6.869   2.039  0.2683  0.1269 -0.2199
10339TIP3    H152508   3.519   6.830   1.983 -0.4725 -2.5025  2.3495
10339TIP3    H252509   3.665   6.870   1.985 -0.8664 -0.5547 -1.9290
10340TIP3   OH252510   5.788   0.200   0.322 -0.3195  0.1818 -0.1364
10340TIP3    H152511   5.863   0.171   0.374 -0.1835  0.0443 -0.4103
10340TIP3    H252512   5.725   0.232   0.387 -0.4858 -0.7520  0.1680
10341TIP3   OH252513   1.303   5.023  11.670  0.3890 -0.2667  0.3828
10341TIP3    H152514   1.285   5.101  11.722 -0.6992  0.2941 -0.8045
10341TIP3    H252515   1.217   4.983  11.657  0.1313  1.3320 -3.6246
10342TIP3   OH252516   3.495   5.989   1.050  0.2620  0.6442 -0.2926
10342TIP3    H152517   3.404   6.002   1.026  0.2589  0.7162 -0.2436
10342TIP3    H252518   3.544   6.002   0.969  0.1699 -0.1084 -0.4723
10343TIP3   OH252519   7.117   7.197   1.912  0.1909 -0.0225 -0.2103
10343TIP3    H152520   7.210   7.189   1.892  0.3764 -0.4713  0.7579
10343TIP3    H252521   7.088   7.107   1.923 -0.8854 -0.0163 -2.7072
10344TIP3   OH252522   1.854   4.223   0.595  0.0096 -0.0398  0.0904
10344TIP3    H152523   1.881   4.137   0.563 -0.7763 -0.0794 -0.4917
10344TIP3    H252524   1.884   4.225   0.686  1.7638 -0.1529 -0.4700
10345TIP3   OH252525   3.904   7.029  14.927  0.1739  0.0708  0.1433
10345TIP3    H152526   3.834   7.079  14.970  1.8307  2.9623 -0.3523
10345TIP3    H252527   3.888   7.041  14.834  0.4883 -0.5110  0.0110
10346TIP3   OH252528   5.013   6.816  14.618  0.0636 -0.0031 -0.7348
10346TIP3    H152529   5.101   6.805  14.654  0.2359 -0.4512 -1.2795
10346TIP3    H252530   4.958   6.759  14.670  0.4092 -1.0778 -1.5246
10347TIP3   OH252531   4.410   2.428   1.203  0.0873  0.3461 -0.2525
10347TIP3    H152532   4.330   2.451   1.250  0.0030  1.3894 -0.8972
10347TIP3    H252533   4.392   2.341   1.166 -0.3475  0.1206  0.4957
10348TIP3   OH252534   1.354   0.660  11.354 -0.4666  0.1933  0.2341
10348TIP3    H152535   1.307   0.702  11.282 -0.5085 -1.0029 -0.4546
10348TIP3    H252536   1.422   0.608  11.311  1.7930  2.2517  1.2517
10349TIP3   OH252537   0.584   5.061   2.641 -0.2989  0.4397  0.5630
10349TIP3    H152538   0.542   5.001   2.580 -0.4510  0.7129  0.3980
10349TIP3    H252539   0.559   5.148   2.610 -1.8963  0.5549  2.0719
10350TIP3   OH252540   6.880   2.035  14.123 -0.6165 -0.4207 -0.1505
10350TIP3    H152541   6.787   2.060  14.127 -0.3316  0.9694 -1.8908
10350TIP3    H252542   6.888   1.988  14.040  0.2866 -0.3922 -0.0798
10351TIP3   OH252543   3.801   4.226  15.014  0.6728  0.2843 -0.0833
10351TIP3    H152544   3.862   4.178  14.957  2.3823  0.7831  1.3192
10351TIP3    H252545   3.853   4.296  15.052 -1.3477  2.1195 -0.6062
10352TIP3   OH252546   1.120   4.548  13.893 -0.8445 -0.5084 -0.2068
10352TIP3    H152547   1.096   4.463  13.930 -2.8916  0.8314  1.6072
10352TIP3    H252548   1.060   4.559  13.819 -2.0684  0.3408  0.9087
10353TIP3   OH252549   2.550   2.301  14.154 -0.2229  0.3920 -0.0609
10353TIP3    H152550   2.522   2.285  14.244 -0.4992  1.7607  0.1217
10353TIP3    H252551   2.468   2.306  14.105 -0.0659 -0.4500 -0.3962
10354TIP3   OH252552   4.440   0.802  15.504 -0.5504 -0.0662  0.1605
10354TIP3    H152553   4.359   0.766  15.470 -0.0254 -0.6710 -0.4705
10354TIP3    H252554   4.509   0.750  15.463  0.1989  1.1942 -0.2318
10355TIP3   OH252555   3.700   2.185   0.421  0.4259  0.1206 -0.3244
10355TIP3    H152556   3.705   2.280   0.428 -0.1401  0.1464 -0.2295
10355TIP3    H252557   3.627   2.161   0.478  0.2424 -0.3254 -0.7469
10356TIP3   OH252558   6.801   2.954   0.432  0.1762  0.0748  0.3244
10356TIP3    H152559   6.740   2.923   0.498  0.8463 -1.8851  0.0476
10356TIP3    H252560   6.878   2.983   0.481  0.5579 -1.1092  0.4361
10357TIP3   OH252561   7.100   6.785   3.485  0.1555  0.0694 -0.5958
10357TIP3    H152562   7.189   6.819   3.488  0.2121 -0.1537  0.7397
10357TIP3    H252563   7.095   6.725   3.560 -1.1969  0.2952 -0.4966
10358TIP3   OH252564   1.164   6.048  13.193  0.6292  0.3268  0.3304
10358TIP3    H152565   1.129   6.085  13.274  0.7133  2.4500 -0.5678
10358TIP3    H252566   1.113   6.090  13.123  0.5420 -1.4916 -0.7252
10359TIP3   OH252567   4.339   0.934   0.952  0.4380  0.0431 -0.0157
10359TIP3    H152568   4.434   0.929   0.963  0.4166 -1.9842 -0.5982
10359TIP3    H252569   4.325   0.929   0.858 -0.2581  0.0592  0.0841
10360TIP3   OH252570   5.536   6.638   0.307  0.0256  0.3826 -0.0585
10360TIP3    H152571   5.498   6.587   0.235  2.4799 -0.1734 -1.0023
10360TIP3    H252572   5.548   6.725   0.270  0.7447  0.2512 -0.1345
10361TIP3   OH252573   6.177   0.998   3.962  0.5002  0.0381 -0.1140
10361TIP3    H152574   6.224   1.079   3.940 -0.7675  1.5116  2.3839
10361TIP3    H252575   6.094   1.005   3.917 -0.9661  1.7645  2.6773
10362TIP3   OH252576   2.619   1.489  14.076  1.6878  0.1609 -0.4937
10362TIP3    H152577   2.703   1.445  14.065  1.5954 -0.6906  1.9339
10362TIP3    H252578   2.613   1.508  14.170  0.5063  2.9310 -1.0689
10363TIP3   OH252579   1.870   0.355   1.615 -0.0101 -0.5692  0.8743
10363TIP3    H152580   1.915   0.396   1.541  1.1257 -1.5123  1.0327
10363TIP3    H252581   1.782   0.393   1.613  0.3192  0.1689 -0.3466
10364TIP3   OH252582   2.919   0.304  13.650 -0.6760 -0.1024  0.1754
10364TIP3    H152583   3.009   0.311  13.682 -0.4941  1.0673 -0.6021
10364TIP3    H252584   2.867   0.345  13.719 -0.5430 -0.0397  0.2395
10365TIP3   OH252585   3.920   2.395   1.741  0.4853 -0.3118 -0.7970
10365TIP3    H152586   3.972   2.465   1.779  1.7971 -2.3009  1.1769
10365TIP3    H252587   3.861   2.439   1.680  0.8656  2.5500  0.8407
10366TIP3   OH252588   0.024   4.124  14.960  0.0134  0.0956 -0.0396
10366TIP3    H152589   0.116   4.112  14.935 -0.2823 -1.7742 -0.2794
10366TIP3    H252590   0.022   4.104  15.054 -0.7230 -3.2020 -0.7145
10367TIP3   OH252591   2.114   6.537   0.367 -0.3486 -0.6388  0.3988
10367TIP3    H152592   2.082   6.574   0.450  1.4393  0.0686  0.7911
10367TIP3    H252593   2.166   6.461   0.393 -0.3906 -0.8530 -0.1317
10368TIP3   OH252594   1.167   6.835   2.971  0.3091 -0.3261  0.1911
10368TIP3    H152595   1.156   6.805   3.061 -0.5945  0.2805  0.2992
10368TIP3    H252596   1.187   6.756   2.920 -1.1404 -0.9722  0.6067
10369TIP3   OH252597   1.201   5.288   1.542  0.9856 -0.2727 -0.5144
10369TIP3    H152598   1.194   5.193   1.534  0.2389 -0.1542 -1.4820
10369TIP3    H252599   1.163   5.321   1.460  0.4613  0.8811  0.1915
10370TIP3   OH252600   0.531   0.680   4.021 -0.9071  0.1848  0.0448
10370TIP3    H152601   0.544   0.595   4.062 -0.7384  0.3095  0.2511
10370TIP3    H252602   0.595   0.738   4.064 -2.2560  0.8451  1.2022
10371TIP3   OH252603   5.843   2.049   0.750 -0.3920  1.0329  0.6071
10371TIP3    H152604   5.787   1.975   0.773 -0.4343  0.7998 -0.2478
10371TIP3    H252605   5.817   2.118   0.811  0.8879 -0.2055  2.6149
10372TIP3   OH252606   2.801   2.107   2.483 -0.3968  0.3435 -0.1245
10372TIP3    H152607   2.741   2.172   2.520 -1.2840 -0.8663  0.5976
10372TIP3    H252608   2.791   2.031   2.540  0.3869 -0.5378 -1.1572
10373TIP3   OH252609   6.852   0.167  12.154  0.0239  0.4673  0.7903
10373TIP3    H152610   6.919   0.170  12.223  0.8133 -1.2459  0.1258
10373TIP3    H252611   6.777   0.124  12.196  0.4232 -0.3686  0.6608
10374TIP3   OH252612   5.668   0.226   2.606  1.0503  0.8610  0.2051
10374TIP3    H152613   5.615   0.146   2.611  0.8901  0.7918 -2.2029
10374TIP3    H252614   5.616   0.286   2.552  3.0914  1.0430 -1.6255
10375TIP3   OH252615   2.038   2.441   0.773 -0.1087  0.2416 -0.0463
10375TIP3    H152616   2.063   2.355   0.807 -2.9536 -0.4369  0.5234
10375TIP3    H252617   1.996   2.485   0.847  1.2086  2.0940 -0.3736
10376TIP3   OH252618   3.225   4.254  13.284 -0.2617  0.6566 -0.3550
10376TIP3    H152619   3.213   4.348  13.301  0.4284  0.6802  0.0043
10376TIP3    H252620   3.160   4.234  13.216 -1.4616  1.0593  0.6418
10377TIP3   OH252621   3.233   3.297   1.393 -0.4823 -0.3153  0.3283
10377TIP3    H152622   3.214   3.226   1.454  2.8629 -0.9201  0.7548
10377TIP3    H252623   3.237   3.376   1.447 -0.0171 -0.4573  0.4997
10378TIP3   OH252624   1.236   0.868  12.754  0.0502  0.5482  0.3368
10378TIP3    H152625   1.298   0.803  12.721  0.2766  0.6436  0.5721
10378TIP3    H252626   1.226   0.847  12.846  1.2080  1.7005  0.7488
10379TIP3   OH252627   1.085   3.258  12.279  0.3179  0.6880  0.4399
10379TIP3    H152628   1.078   3.334  12.336  0.2628 -1.0482  2.8445
10379TIP3    H252629   1.021   3.195  12.315 -0.2099 -0.2061 -1.9581
10380TIP3   OH252630   5.431   5.909  14.316  0.1462  0.0418  0.0819
10380TIP3    H152631   5.404   5.820  14.338  1.6631  0.0418  2.0195
10380TIP3    H252632   5.379   5.965  14.374  0.4082  0.3307  0.0372
10381TIP3   OH252633   5.764   1.582  15.554  0.5969  0.6139  0.1248
10381TIP3    H152634   5.674   1.603  15.529  0.0355 -1.9313 -0.1287
10381TIP3    H252635   5.780   1.635  15.632 -1.1534  1.0357  0.2283
10382TIP3   OH252636   3.828   1.933   5.436  0.4020 -0.2272  0.4976
10382TIP3    H152637   3.736   1.916   5.417  1.0006 -0.4518 -2.3452
10382TIP3    H252638   3.867   1.846   5.445  0.4684 -0.1417  1.0410
10383TIP3   OH252639   4.033   6.812   1.679 -0.4577  0.0247  0.1233
10383TIP3    H152640   4.040   6.726   1.719  0.2246  0.0667  0.1131
10383TIP3    H252641   4.013   6.794   1.587  0.3448 -0.1520 -0.0240
10384TIP3   OH252642   6.857   1.627  15.297  0.1379  0.3657  0.8093
10384TIP3    H152643   6.922   1.691  15.326 -0.1003  0.9059  0.1509
10384TIP3    H252644   6.791   1.678  15.251 -0.1736 -0.3185  0.4818
10385TIP3   OH252645   6.944   7.132  14.841  0.6928 -0.0416 -0.3861
10385TIP3    H152646   6.920   7.212  14.794  1.4715 -0.3517 -1.3205
10385TIP3    H252647   7.039   7.132  14.843  0.6621  0.1391  1.5035
10386TIP3   OH252648   0.592   0.126   4.874  0.1506  0.1153  0.0350
10386TIP3    H152649   0.542   0.073   4.812  2.3471 -1.2637 -0.6010
10386TIP3    H252650   0.598   0.071   4.952  2.8634 -0.8378 -0.7960
10387TIP3   OH252651   2.669   2.698   1.613  0.2341  0.1913 -0.3325
10387TIP3    H152652   2.753   2.718   1.653  0.5700 -0.6111 -0.6467
10387TIP3    H252653   2.664   2.757   1.538  1.6470 -1.5547 -1.8164
10388TIP3   OH252654   6.751   5.281   4.774  0.7376  0.3062 -0.0981
10388TIP3    H152655   6.756   5.234   4.857 -0.4751 -1.6372 -1.0819
10388TIP3    H252656   6.728   5.371   4.798  1.1167 -0.0660  1.7032
10389TIP3   OH252657   6.173   0.405   2.348  0.1688  0.3656  0.4539
10389TIP3    H152658   6.180   0.313   2.324 -0.6925  0.5398 -0.4797
10389TIP3    H252659   6.080   0.424   2.344  0.3598  1.3309  0.4728
10390TIP3   OH252660   1.719   5.653   2.730 -0.1778 -0.0610  0.2200
10390TIP3    H152661   1.787   5.599   2.690  0.0611  0.4175 -0.0234
10390TIP3    H252662   1.639   5.630   2.682 -0.1279 -0.4031  0.3041
10391TIP3   OH252663   5.871   0.573   1.135  0.2574  0.2165 -0.2557
10391TIP3    H152664   5.807   0.639   1.163 -0.4924 -0.5409 -0.1494
10391TIP3    H252665   5.954   0.603   1.171 -0.2960  0.4519  0.8435
10392TIP3   OH252666   4.436   0.858   1.677  0.4872 -0.5952  0.2036
10392TIP3    H152667   4.441   0.916   1.601  0.5752 -0.8348  0.0227
10392TIP3    H252668   4.496   0.896   1.741 -0.0952 -0.0173  0.4144
10393TIP3   OH252669   4.943   3.654   2.948  0.2429  0.2672  0.0511
10393TIP3    H152670   4.901   3.735   2.919 -1.8684 -0.1284  1.9080
10393TIP3    H252671   4.992   3.679   3.027 -0.3955 -0.2538  0.6155
10394TIP3   OH252672   5.628   3.694   0.550 -0.0833  0.4717 -0.0638
10394TIP3    H152673   5.541   3.689   0.511  0.0909  2.0011 -0.6810
10394TIP3    H252674   5.651   3.603   0.569 -1.7470  0.0447 -0.0339
10395TIP3   OH252675   5.893   3.761  14.882 -0.4691 -0.2177  0.9282
10395TIP3    H152676   5.944   3.796  14.810 -1.5056  0.5637  0.5551
10395TIP3    H252677   5.843   3.689  14.843  0.1292 -0.7869  1.2194
10396TIP3   OH252678   5.446   0.345   1.152  0.1294 -0.2241  0.5065
10396TIP3    H152679   5.438   0.359   1.247 -1.2090  1.2523  0.2059
10396TIP3    H252680   5.425   0.253   1.139  3.2466 -1.2085  1.9479
10397TIP3   OH252681   0.070   5.848   3.696 -0.3564 -0.1132 -0.3965
10397TIP3    H152682  -0.003   5.882   3.749 -0.5147 -0.2930 -0.4998
10397TIP3    H252683   0.118   5.790   3.755  0.8026  1.4615  0.2478
10398TIP3   OH252684   2.103   6.670   2.452  0.0449  0.0837  0.3739
10398TIP3    H152685   2.078   6.615   2.378  1.7567  3.4589 -2.8841
10398TIP3    H252686   2.032   6.734   2.459  0.4401  0.4610  0.9523
10399TIP3   OH252687   1.297   6.992  15.335  0.1146 -0.5815 -0.3021
10399TIP3    H152688   1.358   6.954  15.272 -0.9996 -2.4558 -0.2747
10399TIP3    H252689   1.217   7.008  15.285  0.8919  2.7602 -0.5640
10400TIP3   OH252690   6.065   3.779   3.095  0.7351  0.0096  0.6154
10400TIP3    H152691   6.021   3.709   3.143  1.0809 -0.3897  0.3574
10400TIP3    H252692   6.158   3.765   3.111  0.8328  0.0975  0.1314
10401TIP3   OH252693   0.307   0.387  13.740  0.1595  0.4601  0.5336
10401TIP3    H152694   0.271   0.361  13.656  0.7480 -0.4317  0.5382
10401TIP3    H252695   0.320   0.481  13.734 -2.0571  0.7873  0.5099
10402TIP3   OH252696   4.636   1.844   0.988 -0.2303  0.0720 -0.8414
10402TIP3    H152697   4.598   1.929   1.007 -0.9345 -0.0913 -1.4900
10402TIP3    H252698   4.560   1.786   0.975  0.2232 -0.9460  0.8698
10403TIP3   OH252699   6.922   0.993   1.148  0.3063 -0.3187 -0.2654
10403TIP3    H152700   6.880   1.054   1.209 -0.5618 -0.0021 -1.1577
10403TIP3    H252701   6.906   0.907   1.186 -1.2579 -0.2105 -0.6241
10404TIP3   OH252702   1.335   3.605   4.825  0.7597 -0.3939  0.2177
10404TIP3    H152703   1.365   3.645   4.907 -0.0617 -0.0633  0.3524
10404TIP3    H252704   1.375   3.659   4.756 -0.0697  0.4523  0.3986
10405TIP3   OH252705   5.656   3.258  14.777  0.7600  0.1588 -0.0049
10405TIP3    H152706   5.659   3.164  14.762 -0.4786 -0.2521  2.1414
10405TIP3    H252707   5.694   3.270  14.864 -0.0987  1.5079  0.2135
10406TIP3   OH252708   2.331   5.332   1.844 -0.6275 -0.2591  0.0552
10406TIP3    H152709   2.355   5.334   1.937 -1.1783 -0.4339  0.1997
10406TIP3    H252710   2.291   5.417   1.828  0.0640  0.0266 -0.1839
10407TIP3   OH252711   3.850   3.609  11.187 -0.0721 -0.1374 -0.1803
10407TIP3    H152712   3.929   3.564  11.156  0.2162  0.0111  0.3339
10407TIP3    H252713   3.800   3.627  11.107 -0.3736 -1.6886 -0.3588
10408TIP3   OH252714   4.121   5.739   1.032  0.1845  0.0813  0.6135
10408TIP3    H152715   4.184   5.780   1.091 -1.4412  1.8048  1.1977
10408TIP3    H252716   4.115   5.799   0.957 -0.4374 -0.2822  0.3621
10409TIP3   OH252717   6.095   2.033  15.436  0.4310 -0.0896  0.4303
10409TIP3    H152718   6.183   2.064  15.416  0.8100 -0.9139  0.8357
10409TIP3    H252719   6.037   2.095  15.390  1.1747  1.2204  1.2343
10410TIP3   OH252720   6.292   3.964  14.874  0.2547 -0.3756 -0.1340
10410TIP3    H152721   6.340   4.041  14.903 -2.3589  1.3799 -0.2823
10410TIP3    H252722   6.285   3.975  14.779  2.3464 -2.2849 -0.5295
10411TIP3   OH252723   4.906   5.239   5.328  0.1195 -0.3976  0.2491
10411TIP3    H152724   4.923   5.175   5.397  2.2252 -2.3662 -1.9736
10411TIP3    H252725   4.851   5.193   5.265 -1.4402  1.2282  0.3971
10412TIP3   OH252726   2.187   0.529   4.797  0.6922 -0.4849  0.0301
10412TIP3    H152727   2.251   0.572   4.853  0.5257  0.7120 -0.6853
10412TIP3    H252728   2.236   0.459   4.754  1.3208 -0.0711  0.0762
10413TIP3   OH252729   6.195   6.001   2.083 -0.9082  0.1440  0.2817
10413TIP3    H152730   6.200   5.954   2.166  0.8288  2.2818  1.4428
10413TIP3    H252731   6.259   6.072   2.092  0.0816 -0.2320 -3.2990
10414TIP3   OH252732   6.954   5.633   3.458  0.2425  0.2793  0.0457
10414TIP3    H152733   7.046   5.616   3.479 -0.0508  0.3518  1.4131
10414TIP3    H252734   6.945   5.602   3.368  1.7885  0.9559 -0.3693
10415TIP3   OH252735   2.050   7.194  13.781 -0.2978  0.5113 -0.0989
10415TIP3    H152736   1.995   7.233  13.849 -0.7780 -3.7838  2.1940
10415TIP3    H252737   2.132   7.173  13.826 -0.0954 -1.0802 -1.1651
10416TIP3   OH252738   6.272   7.183   0.470  0.0388 -0.1789 -0.4470
10416TIP3    H152739   6.190   7.147   0.504 -0.7939  0.6811 -1.5104
10416TIP3    H252740   6.304   7.239   0.540 -1.8168  1.8078 -1.1209
10417TIP3   OH252741   5.077   4.122   0.619 -0.0288 -0.5749  0.1908
10417TIP3    H152742   5.140   4.136   0.548  0.2174  1.9763  0.8391
10417TIP3    H252743   5.125   4.144   0.698 -1.1614 -0.5238  0.8752
10418TIP3   OH252744   1.517   6.098   1.347  0.6309 -0.1693 -0.7788
10418TIP3    H152745   1.537   6.172   1.405 -1.2761 -0.1352 -0.1090
10418TIP3    H252746   1.552   6.022   1.393  0.5896  0.0547 -0.3644
10419TIP3   OH252747   6.249   4.457   4.547  0.0048  0.1027  0.6229
10419TIP3    H152748   6.210   4.503   4.621 -1.5730  0.4091 -0.3787
10419TIP3    H252749   6.235   4.515   4.473  2.8138  0.4316  0.3042
10420TIP3   OH252750   5.062   5.320  14.003 -0.6831  0.1221  0.1112
10420TIP3    H152751   5.088   5.388  13.941 -0.6177  0.6864  0.7500
10420TIP3    H252752   5.143   5.272  14.021 -1.0244 -1.1318 -1.5342
10421TIP3   OH252753   4.895   3.986   4.165 -0.0942  0.3247 -0.4007
10421TIP3    H152754   4.827   3.976   4.099 -0.0429 -1.0905 -0.2637
10421TIP3    H252755   4.856   4.041   4.233 -1.2357 -0.7248 -0.1739
10422TIP3   OH252756   6.818   0.737   0.834  0.1287 -0.0345  0.2325
10422TIP3    H152757   6.838   0.709   0.924  1.3524 -1.2852 -0.4167
10422TIP3    H252758   6.788   0.827   0.844 -0.2793 -0.3431  1.9625
10423TIP3   OH252759   0.226   5.283   4.141 -0.4624  0.3283 -0.2469
10423TIP3    H152760   0.176   5.311   4.217 -1.5988 -1.1024 -0.4449
10423TIP3    H252761   0.271   5.203   4.170 -0.2888  0.2113 -0.8371
10424TIP3   OH252762   5.678   3.890   0.325  0.5811  0.0016  0.1014
10424TIP3    H152763   5.716   3.802   0.322 -0.0259 -0.3606  2.1913
10424TIP3    H252764   5.594   3.882   0.281  0.6586 -0.3977  0.0252
10425TIP3   OH252765   4.536   1.611  12.154  0.3387 -0.0373 -0.4707
10425TIP3    H152766   4.601   1.542  12.162  1.6178  0.7074 -3.6093
10425TIP3    H252767   4.575   1.687  12.196  0.8320 -0.0257 -0.9488
10426TIP3   OH252768   2.246   0.693   3.677  0.2245 -0.4511 -0.1317
10426TIP3    H152769   2.155   0.708   3.653  0.2730 -0.7822 -0.5287
10426TIP3    H252770   2.273   0.774   3.721 -0.5408 -0.7184  0.8329
10427TIP3   OH252771   4.943   3.629   1.027 -0.0974  0.3510  0.2095
10427TIP3    H152772   4.941   3.715   0.986 -1.1113  1.0768  1.7375
10427TIP3    H252773   4.856   3.619   1.065 -0.3751 -1.8279 -0.9063
10428TIP3   OH252774   2.603   1.705   3.603 -0.1640  0.0917 -0.0238
10428TIP3    H152775   2.557   1.755   3.536  1.7248  0.9234 -0.7299
10428TIP3    H252776   2.595   1.757   3.683 -0.2701  0.3214 -0.1851
10429TIP3   OH252777   3.201   6.901   0.989 -0.6340 -0.1442 -0.0849
10429TIP3    H152778   3.208   6.833   1.057 -0.1522 -0.7664 -0.7534
10429TIP3    H252779   3.238   6.861   0.911 -1.0526  0.6281 -0.6864
10430TIP3   OH252780   0.295   0.118   2.608  0.1714 -0.1080 -0.8019
10430TIP3    H152781   0.359   0.073   2.553  0.7409 -0.8354  0.4534
10430TIP3    H252782   0.322   0.210   2.605  0.7145 -0.2734 -1.0296
10431TIP3   OH252783   4.368   3.401   0.781  0.8371 -0.0361 -0.7953
10431TIP3    H152784   4.460   3.424   0.770  0.2829  2.1211 -1.0761
10431TIP3    H252785   4.365   3.352   0.863  1.9169  1.7986  0.3645
10432TIP3   OH252786   0.894   2.682   3.181 -0.2607  0.5517  0.0060
10432TIP3    H152787   0.892   2.777   3.192 -0.6925  0.3897  1.4299
10432TIP3    H252788   0.813   2.661   3.134  0.1567  0.9429 -0.9108
10433TIP3   OH252789   1.198   6.840   2.522  0.3166  0.3361  0.5974
10433TIP3    H152790   1.238   6.787   2.590  0.5150  0.6761  0.7474
10433TIP3    H252791   1.113   6.799   2.505  1.3060 -1.2251 -0.7150
10434TIP3   OH252792   5.040   1.275  15.338  0.0880 -0.2637 -0.5203
10434TIP3    H152793   5.102   1.275  15.265 -0.0708 -1.7672 -0.6757
10434TIP3    H252794   4.954   1.273  15.298 -0.0369  0.5030 -0.2955
10435TIP3   OH252795   2.896   6.195  14.587 -0.3417  0.6779 -0.2062
10435TIP3    H152796   2.884   6.252  14.663  0.3561 -0.5506  0.8342
10435TIP3    H252797   2.871   6.108  14.618 -1.7949  0.4655 -1.8966
10436TIP3   OH252798   3.159   5.388   1.409 -0.1103  0.0601 -0.0060
10436TIP3    H152799   3.165   5.411   1.316 -0.1595 -1.4972 -0.4018
10436TIP3    H252800   3.240   5.340   1.427 -0.7274 -0.8524  0.3987
10437TIP3   OH252801   3.036   4.111   1.265  0.8987  0.1293 -0.1945
10437TIP3    H152802   2.992   4.040   1.311  2.3484  0.6475  2.0837
10437TIP3    H252803   2.982   4.188   1.282 -0.2810 -0.2541 -2.0615
10438TIP3   OH252804   1.367   6.970  13.499 -0.1642  0.2226  0.2243
10438TIP3    H152805   1.332   7.007  13.418  0.3358 -0.1268 -0.1548
10438TIP3    H252806   1.399   7.045  13.549 -0.0494  0.3928 -0.1061
10439TIP3   OH252807   2.662   4.489   2.245 -0.3792  0.5438  0.2737
10439TIP3    H152808   2.706   4.445   2.172 -0.8542 -0.7631  0.7643
10439TIP3    H252809   2.733   4.532   2.293  0.1825 -0.2849  0.1960
10440TIP3   OH252810   2.455   3.535  15.190 -0.3448 -0.0099 -0.3472
10440TIP3    H152811   2.408   3.527  15.273  0.7122  2.1616  0.4761
10440TIP3    H252812   2.506   3.454  15.183  1.5360  0.9027  2.3601
10441TIP3   OH252813   6.904   0.079   0.590 -0.5377 -0.1714 -0.0873
10441TIP3    H152814   6.932   0.150   0.648 -3.2349  0.4936  0.4991
10441TIP3    H252815   6.983   0.054   0.542  1.0309  1.4472  1.5804
10442TIP3   OH252816   1.089   1.883   4.306 -0.4250  0.4204 -0.0221
10442TIP3    H152817   1.011   1.913   4.260 -1.0600  2.1780  2.1011
10442TIP3    H252818   1.072   1.903   4.398  1.6006 -1.2264  0.7590
10443TIP3   OH252819   7.001   5.182   4.005  0.1507 -0.7863 -0.5627
10443TIP3    H152820   7.037   5.263   4.042 -0.7583  0.6310 -2.7286
10443TIP3    H252821   7.023   5.186   3.912 -2.0129 -1.8493 -1.1492
10444TIP3   OH252822   3.272   7.086   5.165  0.0640  0.5376  0.4079
10444TIP3    H152823   3.214   7.019   5.130  0.0188  1.0239 -0.4651
10444TIP3    H252824   3.346   7.088   5.104  0.8890  0.0796  1.3824
10445TIP3   OH252825   7.072   2.180   3.567 -0.4271  0.2321  0.5656
10445TIP3    H152826   7.041   2.207   3.654  0.0826  0.5470  0.6535
10445TIP3    H252827   7.156   2.224   3.557 -0.3480 -0.0360  0.0288
10446TIP3   OH252828   2.122   5.446   2.811  0.0541 -0.4112 -0.1424
10446TIP3    H152829   2.198   5.487   2.771  0.3359  0.5860  1.3759
10446TIP3    H252830   2.156   5.365   2.849  0.4089  0.1087  0.6679
10447TIP3   OH252831   5.982   0.229   2.991 -0.4502 -0.7620 -0.1542
10447TIP3    H152832   5.896   0.196   2.965 -0.4832 -0.3761 -0.5366
10447TIP3    H252833   5.971   0.324   2.995  0.3745 -0.6000 -1.6888
10448TIP3   OH252834   3.009   1.406  13.307  0.7926  0.7858 -0.7676
10448TIP3    H152835   3.021   1.494  13.341 -0.9039  0.8304 -0.2614
10448TIP3    H252836   2.985   1.353  13.383  1.5055 -0.0539 -1.1160
10449TIP3   OH252837   6.813   2.283   2.589  0.8407 -0.1320  0.3051
10449TIP3    H152838   6.824   2.378   2.592 -0.1780  0.0437 -1.1582
10449TIP3    H252839   6.902   2.249   2.589  1.3233  0.9522 -2.3981
10450TIP3   OH252840   5.043   1.835  15.541 -0.3853  0.2310 -0.0297
10450TIP3    H152841   4.994   1.802  15.617  1.8069 -0.2294  1.2210
10450TIP3    H252842   5.049   1.929  15.555 -1.8827  0.4467 -0.7746
10451TIP3   OH252843   4.453   0.904  13.697  0.0911 -0.3087  0.3021
10451TIP3    H152844   4.425   0.980  13.748  0.8501 -0.2822  0.6862
10451TIP3    H252845   4.385   0.839  13.711 -1.1302  0.6785 -0.9051
10452TIP3   OH252846   3.940   3.800   3.262 -0.7318 -0.3310  0.5623
10452TIP3    H152847   3.990   3.726   3.228 -1.4204 -1.7132  2.4711
10452TIP3    H252848   3.850   3.783   3.235 -0.8918 -0.1948  1.0031
10453TIP3   OH252849   6.340   1.393  14.338  0.1435  0.3905 -0.2958
10453TIP3    H152850   6.350   1.473  14.389 -1.4631  0.8728 -0.7131
10453TIP3    H252851   6.378   1.414  14.253  1.0206  0.2403  0.0583
10454TIP3   OH252852   4.566   0.600  15.345  0.6201 -0.0757  0.2793
10454TIP3    H152853   4.496   0.536  15.360 -1.9688  2.3346 -1.1793
10454TIP3    H252854   4.568   0.612  15.250  3.1392 -0.1557  0.2699
10455TIP3   OH252855   1.453   5.747   3.312 -0.4823 -0.3352  0.2173
10455TIP3    H152856   1.426   5.779   3.226  0.6784  1.4259  0.4890
10455TIP3    H252857   1.534   5.794   3.332  0.7240 -2.6751  1.1147
10456TIP3   OH252858   5.626   2.278   0.794  0.1543  0.1089  0.3357
10456TIP3    H152859   5.554   2.234   0.749  0.7294 -2.2107  1.6252
10456TIP3    H252860   5.593   2.294   0.882  0.4812  0.9588  0.3116
10457TIP3   OH252861   0.814   0.432   3.532  0.3987  0.5768  0.3034
10457TIP3    H152862   0.768   0.430   3.448  1.1238  0.0958 -0.0806
10457TIP3    H252863   0.906   0.441   3.508  0.6304  0.1490  1.0425
10458TIP3   OH252864   5.055   2.696  13.193  0.8637 -0.1864 -0.2464
10458TIP3    H152865   5.056   2.647  13.111  0.1514  0.8091 -0.8701
10458TIP3    H252866   4.989   2.764  13.179 -0.3301 -0.9113  1.6802
10459TIP3   OH252867   5.654   3.683   4.883  0.0804  0.4927  0.1503
10459TIP3    H152868   5.594   3.609   4.894  0.4684  0.2442  0.5882
10459TIP3    H252869   5.644   3.708   4.791 -0.2362  0.0591  0.0648
10460TIP3   OH252870   7.041   5.782   0.175 -0.3958 -0.0408 -0.0452
10460TIP3    H152871   7.127   5.797   0.138  1.1866  1.0703  3.7955
10460TIP3    H252872   7.058   5.739   0.259 -3.6291 -0.7670  0.3060
10461TIP3   OH252873   5.595   4.328  15.488 -0.1638 -0.1192 -0.3140
10461TIP3    H152874   5.589   4.408  15.541  1.3940 -0.0886 -0.1404
10461TIP3    H252875   5.571   4.258  15.548 -0.9852  0.1693 -0.3054
10462TIP3   OH252876   6.082   6.926   1.518  0.5518  0.2022 -0.2407
10462TIP3    H152877   6.061   6.936   1.611 -2.6030  0.2323 -0.8835
10462TIP3    H252878   6.085   7.016   1.485 -0.3149  0.1333 -0.5324
10463TIP3   OH252879   4.756   6.602   2.857 -0.0838 -0.2310 -0.4912
10463TIP3    H152880   4.850   6.614   2.851 -0.1506  0.0390 -1.1220
10463TIP3    H252881   4.744   6.507   2.859  0.1955 -0.2679 -0.5401
10464TIP3   OH252882   5.691   3.451   3.359 -0.0599 -0.2948 -0.1906
10464TIP3    H152883   5.696   3.446   3.264 -2.0935  2.0283 -0.4514
10464TIP3    H252884   5.721   3.539   3.381  0.1982 -0.7329  1.2970
10465TIP3   OH252885   1.254   6.818   0.596  0.0633  0.1354  1.1124
10465TIP3    H152886   1.230   6.891   0.539  1.6164  0.0811  0.3764
10465TIP3    H252887   1.214   6.840   0.680 -3.4522 -0.4712 -0.3137
10466TIP3   OH252888   2.688   0.001  11.412  0.0524 -0.3529 -0.2839
10466TIP3    H152889   2.633  -0.004  11.491  2.6814 -0.8929  1.5853
10466TIP3    H252890   2.703   0.094  11.400 -0.2867 -0.2683 -0.0761
10467TIP3   OH252891   1.442   0.953  15.464  0.2339 -0.4877 -0.1538
10467TIP3    H152892   1.422   0.894  15.537  0.4567 -1.5311 -0.9342
10467TIP3    H252893   1.529   0.988  15.485  0.7951 -1.6694 -0.4825
10468TIP3   OH252894   7.020   3.784   3.310  0.2092 -0.4391 -0.2726
10468TIP3    H152895   7.012   3.845   3.237 -1.4989 -0.0112  0.2475
10468TIP3    H252896   7.072   3.831   3.375 -2.2297  1.0589  0.6856
10469TIP3   OH252897   1.937   6.638   0.553  0.6526  0.0455 -0.5889
10469TIP3    H152898   1.890   6.719   0.538  0.4402 -0.0164 -0.2586
10469TIP3    H252899   1.874   6.569   0.533 -0.0343 -0.0456  1.7586
10470TIP3   OH252900   1.352   0.864  13.004 -0.1563 -0.1391 -0.2331
10470TIP3    H152901   1.328   0.895  13.092  2.3082 -0.7195  0.6975
10470TIP3    H252902   1.420   0.925  12.975  0.3679 -1.0481 -0.9496
10471TIP3   OH252903   6.386   1.126   2.505  0.5218  0.4681  0.1449
10471TIP3    H152904   6.385   1.218   2.531 -0.7918  0.0577  1.6021
10471TIP3    H252905   6.336   1.081   2.573  0.3962 -1.2073 -1.0252
10472TIP3   OH252906   1.492   6.869   0.839 -0.3018 -0.6875  0.4205
10472TIP3    H152907   1.514   6.849   0.930  0.6998 -0.4399  0.2450
10472TIP3    H252908   1.577   6.866   0.794 -0.4186  1.7581 -0.0294
10473TIP3   OH252909   2.227   2.461  15.273  0.0052 -0.2384  0.0585
10473TIP3    H152910   2.244   2.369  15.293 -0.1035  0.1644  2.0835
10473TIP3    H252911   2.233   2.466  15.178  0.0368 -2.3364 -0.0779
10474TIP3   OH252912   0.909   1.159   0.991  0.2178  0.2831 -0.2158
10474TIP3    H152913   1.002   1.135   0.992  0.3232  0.7330  1.4803
10474TIP3    H252914   0.908   1.254   0.979 -0.0743  0.1072 -1.7004
10475TIP3   OH252915   5.370   3.007   2.119  0.2007 -0.1437 -0.3490
10475TIP3    H152916   5.378   3.069   2.046  0.2352 -0.0469 -0.2629
10475TIP3    H252917   5.347   2.924   2.077 -0.7853  0.1373 -0.3963
10476TIP3   OH252918   5.885   7.062   5.044  0.0606 -0.1018  0.0160
10476TIP3    H152919   5.978   7.045   5.061  0.1155  1.6279  1.6399
10476TIP3    H252920   5.839   7.024   5.118 -0.3824  0.4290  0.0238
10477TIP3   OH252921   6.737   4.752   4.299 -0.8234 -0.0478  0.4155
10477TIP3    H152922   6.791   4.829   4.318  0.0743 -0.5259 -0.1308
10477TIP3    H252923   6.791   4.700   4.239 -2.4027  0.0882 -1.1913
10478TIP3   OH252924   7.174   5.467   4.006 -0.9487 -0.1363 -0.5043
10478TIP3    H152925   7.122   5.531   3.958 -0.1473  0.5462 -0.4955
10478TIP3    H252926   7.186   5.507   4.093 -0.4129 -0.2759 -0.5125
10479TIP3   OH252927   0.843   0.078   1.893 -0.8688  0.0415 -0.3851
10479TIP3    H152928   0.832   0.086   1.798 -1.6688  0.0432 -0.2918
10479TIP3    H252929   0.791   0.001   1.916 -1.1830  0.4157  0.1484
10480TIP3   OH252930   0.204   2.623   4.970  0.4450 -0.4786 -0.0519
10480TIP3    H152931   0.210   2.694   4.906 -0.4563 -0.2389  0.1190
10480TIP3    H252932   0.176   2.665   5.051  2.5439 -0.6338  0.7842
10481TIP3   OH252933   0.253   0.077   0.287 -0.1210 -0.3365 -0.1971
10481TIP3    H152934   0.329   0.056   0.340 -0.4329  0.6626  0.6798
10481TIP3    H252935   0.186   0.015   0.316  0.0922 -0.6370 -0.3441
10482TIP3   OH252936   1.655   2.587   3.478  0.2039 -0.0748 -0.0496
10482TIP3    H152937   1.727   2.537   3.441 -0.4709 -1.2000  0.1138
10482TIP3    H252938   1.594   2.598   3.406 -0.1259 -0.4021  0.1737
10483TIP3   OH252939   4.592   0.133  15.243  0.4446  0.1176 -0.0593
10483TIP3    H152940   4.565   0.105  15.331  0.4117 -1.3211 -0.5234
10483TIP3    H252941   4.510   0.155  15.198  0.3207 -0.9375 -0.3425
10484TIP3   OH252942   7.168   6.245  13.339 -0.5992 -0.4502  0.0344
10484TIP3    H152943   7.116   6.258  13.418 -1.3025 -0.8463 -0.3682
10484TIP3    H252944   7.114   6.190  13.282  0.3994 -1.1635 -0.2396
10485TIP3   OH252945   0.450   3.529  13.855  0.1014 -0.2380  0.2394
10485TIP3    H152946   0.409   3.442  13.858  1.5318 -0.9209  0.0416
10485TIP3    H252947   0.433   3.560  13.766 -0.3279 -0.3515  0.2803
10486TIP3   OH252948   7.173   4.848   5.710 -0.1816 -0.1756 -0.0713
10486TIP3    H152949   7.134   4.762   5.724 -1.5243  0.6733  1.5344
10486TIP3    H252950   7.179   4.887   5.798  0.3701  1.3880 -0.7777
10487TIP3   OH252951   2.504   6.549  15.058 -0.0177  0.4219  0.6187
10487TIP3    H152952   2.475   6.621  15.001  0.5726  0.0222 -0.1907
10487TIP3    H252953   2.461   6.566  15.142 -2.4551 -0.0649 -0.5095
10488TIP3   OH252954   6.995   2.711   0.142  0.2801 -0.5738  0.0846
10488TIP3    H152955   6.984   2.731   0.235 -1.2751  0.5994 -0.3312
10488TIP3    H252956   7.002   2.796   0.099 -0.2756 -1.0605 -1.0121
10489TIP3   OH252957   6.720   0.109  14.408 -0.9116 -0.3397  0.4737
10489TIP3    H152958   6.697   0.067  14.325  0.0859 -2.1449  1.0927
10489TIP3    H252959   6.671   0.060  14.474  0.9400 -1.1196  1.2978
10490TIP3   OH252960   4.476   0.865   4.019  0.3174 -0.4283  0.0266
10490TIP3    H152961   4.508   0.935   4.076 -1.2273  1.2978 -1.1594
10490TIP3    H252962   4.396   0.835   4.062  0.5863 -0.9680  0.1513
10491TIP3   OH252963   5.952   3.742   3.658  0.0975 -0.3368  0.0781
10491TIP3    H152964   6.015   3.686   3.703 -0.0537 -0.6082 -0.0475
10491TIP3    H252965   5.946   3.821   3.712  1.2832  0.1076 -0.4189
10492TIP3   OH252966   6.880   4.467   3.750  0.0690 -0.4052 -0.1328
10492TIP3    H152967   6.818   4.464   3.677 -0.2799  1.4018  0.0622
10492TIP3    H252968   6.922   4.553   3.742 -0.2709 -0.0164  2.0279
10493TIP3   OH252969   0.073   3.732  13.607 -0.3863 -0.1196 -0.5971
10493TIP3    H152970   0.087   3.732  13.512  1.3415  0.7939 -0.3608
10493TIP3    H252971   0.011   3.803  13.622 -0.4088 -0.0511 -1.0104
10494TIP3   OH252972   2.459   4.204   0.186  0.2889  0.2397 -0.3727
10494TIP3    H152973   2.377   4.161   0.210  0.5828 -0.4312 -0.5235
10494TIP3    H252974   2.527   4.153   0.231  0.8031 -0.7407 -2.1833
10495TIP3   OH252975   5.907   0.552  15.595 -0.0854 -0.0506  0.0793
10495TIP3    H152976   5.820   0.581  15.622  0.3092  1.1339  0.0759
10495TIP3    H252977   5.908   0.459  15.618 -1.7877 -0.3679 -1.0359
10496TIP3   OH252978   2.702   5.684   1.549 -0.0411 -0.4738  0.8848
10496TIP3    H152979   2.685   5.721   1.463  0.9084 -0.5298  0.6676
10496TIP3    H252980   2.619   5.690   1.595  0.2240  2.4498  1.0479
10497TIP3   OH252981   5.727   4.118   3.416 -0.8668  0.2401 -0.2398
10497TIP3    H152982   5.678   4.168   3.350 -0.7531 -0.8619 -1.1611
10497TIP3    H252983   5.812   4.161   3.420  0.1910 -1.4655 -2.9733
10498TIP3   OH252984   3.634   2.088   3.230  0.0230  0.3538  0.0993
10498TIP3    H152985   3.709   2.088   3.170  0.3974  1.4435  0.5609
10498TIP3    H252986   3.583   2.164   3.206 -0.9380 -0.3754 -0.1944
10499TIP3   OH252987   0.483   0.887   3.146 -0.7686  0.1135  0.8823
10499TIP3    H152988   0.387   0.893   3.141 -0.7743  0.8720  1.7261
10499TIP3    H252989   0.502   0.888   3.240  0.0114 -1.0181  0.7391
10500TIP3   OH252990   7.147   4.790   2.741 -0.0830  0.5743 -0.0579
10500TIP3    H152991   7.213   4.785   2.672 -0.9997 -0.4366 -0.8786
10500TIP3    H252992   7.160   4.876   2.781  2.2237  0.0772  0.3046
10501TIP3   OH252993   4.982   0.367   3.872 -0.2387 -0.7593  0.3730
10501TIP3    H152994   4.909   0.428   3.867  0.2716 -0.1986 -0.3794
10501TIP3    H252995   4.942   0.281   3.857 -0.6852 -0.4117 -0.5053
10502TIP3   OH252996   0.503   1.562   5.135  0.5913 -0.1871 -0.6816
10502TIP3    H152997   0.568   1.528   5.073  0.7994  0.5044 -0.8402
10502TIP3    H252998   0.524   1.655   5.144 -0.5407  0.0993 -0.9386
10503TIP3   OH252999   0.432   0.864   4.327  0.1534 -0.3146 -0.3889
10503TIP3    H153000   0.449   0.778   4.367 -2.1782 -0.5385  0.2207
10503TIP3    H253001   0.464   0.927   4.392 -0.7019 -0.7069  0.4262
10504TIP3   OH253002   5.731   7.030  14.768 -0.0378 -0.5280  0.1058
10504TIP3    H153003   5.684   7.003  14.689  0.2722 -1.2204  0.1597
10504TIP3    H253004   5.822   7.040  14.739  0.0623 -0.7053  0.3564
10505TIP3   OH253005   4.016   0.091   1.324 -0.1250 -0.5918  0.1631
10505TIP3    H153006   4.069   0.126   1.252  1.4461  1.0106  2.0500
10505TIP3    H253007   3.948   0.157   1.338  0.5582 -0.0943  1.2085
10506TIP3   OH253008   5.229   2.614  15.302  0.6580  0.0471  0.6986
10506TIP3    H153009   5.179   2.534  15.316 -1.1228  0.8782 -0.6529
10506TIP3    H253010   5.187   2.679  15.359  0.2328  0.7122 -0.3369
10507TIP3   OH253011   4.124   2.023   0.326 -0.6725  0.1056  0.1239
10507TIP3    H153012   4.138   2.068   0.409 -1.6441  1.1620 -0.2835
10507TIP3    H253013   4.068   1.949   0.348 -0.9311  0.3859  0.4014
10508TIP3   OH253014   5.276   1.135   0.421 -0.0864  0.0947  0.7836
10508TIP3    H153015   5.295   1.227   0.440  0.8955 -0.1020  0.7597
10508TIP3    H253016   5.252   1.134   0.328  2.0447  0.0155  0.2089
10509TIP3   OH253017   6.406   1.017  13.262  0.0048  0.7771  0.2051
10509TIP3    H153018   6.331   0.958  13.256 -0.2543  1.2340 -1.1703
10509TIP3    H253019   6.423   1.024  13.356  0.3859 -1.8933  0.3585
10510TIP3   OH253020   1.229   6.180  12.832  0.2479 -0.0031 -0.1814
10510TIP3    H153021   1.150   6.148  12.874  0.6141  0.4005  0.8539
10510TIP3    H253022   1.239   6.128  12.753  0.7345 -2.3065  1.3600
10511TIP3   OH253023   1.329   1.963   1.183  0.2943  0.1136  0.3368
10511TIP3    H153024   1.244   1.934   1.217 -1.0648  0.7014 -2.4451
10511TIP3    H253025   1.379   1.883   1.172 -0.5310 -0.4079  0.3197
10512TIP3   OH253026   5.302   0.188   2.020  0.5943 -0.0829 -0.2189
10512TIP3    H153027   5.361   0.220   1.952  0.4863 -1.2011 -0.8450
10512TIP3    H253028   5.220   0.171   1.974  0.0858  0.4888  0.4613
10513TIP3   OH253029   7.004   6.554  14.753 -0.0755 -0.2519 -0.0570
10513TIP3    H153030   7.012   6.497  14.677  4.7285  1.3146 -0.8752
10513TIP3    H253031   7.094   6.563  14.786 -1.5379  2.1055  3.5848
10514TIP3   OH253032   2.970   1.623   0.651 -0.2502  0.8836 -0.1836
10514TIP3    H153033   2.905   1.605   0.719 -0.5526 -0.0116 -0.7055
10514TIP3    H253034   3.021   1.543   0.645 -0.6395  0.7180 -1.4739
10515TIP3   OH253035   3.513   5.293   0.713  0.2375  0.3304 -0.1869
10515TIP3    H153036   3.482   5.381   0.733  0.4097  1.0623 -2.9768
10515TIP3    H253037   3.437   5.237   0.725 -0.3107  1.1051 -0.0094
10516TIP3   OH253038   1.825   1.081   0.412 -0.7565  0.4144 -0.0684
10516TIP3    H153039   1.907   1.089   0.460 -0.9580  1.1272  0.1591
10516TIP3    H253040   1.829   0.994   0.373 -0.0644  0.2944  0.2592
10517TIP3   OH253041   1.674   1.811   3.096 -0.2119  0.0996  0.0450
10517TIP3    H153042   1.618   1.806   3.173 -0.9297 -0.1276 -0.4838
10517TIP3    H253043   1.742   1.745   3.112 -0.1464  0.3143  0.6495
10518TIP3   OH253044   6.774   1.456   4.548  0.7012  0.2302  0.0841
10518TIP3    H153045   6.779   1.442   4.454  1.2849 -2.6396  0.4968
10518TIP3    H253046   6.709   1.525   4.559 -0.3969 -0.3790 -2.3526
10519TIP3   OH253047   0.927   1.772  13.832 -0.2004 -0.1296  0.4379
10519TIP3    H153048   0.917   1.813  13.746 -0.9176 -1.5555 -0.1670
10519TIP3    H253049   1.021   1.775  13.849  0.0492 -0.7298 -0.8340
10520TIP3   OH253050   0.354   6.625   0.460  0.2206  0.4049 -0.4736
10520TIP3    H153051   0.293   6.672   0.516 -0.1862  0.5449 -1.0296
10520TIP3    H253052   0.354   6.535   0.494  1.3709  0.9205  0.8929
10521TIP3   OH253053   5.546   2.001   0.109  0.0924  0.3214 -0.4672
10521TIP3    H153054   5.489   1.930   0.137  0.6345 -0.2220 -0.7262
10521TIP3    H253055   5.614   2.005   0.176 -0.1732  0.8875 -0.2231
10522TIP3   OH253056   0.080   1.219   4.895  0.0314  0.1490  0.1227
10522TIP3    H153057   0.010   1.276   4.925  0.7126  1.2307 -0.3198
10522TIP3    H253058   0.093   1.242   4.803 -0.1446 -1.1942 -0.2565
10523TIP3   OH253059   3.480   6.753   0.025  0.0554  0.7071 -0.0151
10523TIP3    H153060   3.532   6.821  -0.017  1.8268 -1.3162 -1.2153
10523TIP3    H253061   3.529   6.731   0.104 -0.8787  1.2874  0.7403
10524TIP3   OH253062   1.991   4.041  14.741 -0.5723 -0.7687  0.3029
10524TIP3    H153063   2.034   3.960  14.767 -0.9912 -0.6655  1.3388
10524TIP3    H253064   2.020   4.106  14.805  0.2599  0.0543 -0.8955
10525TIP3   OH253065   5.504   7.125   3.191 -0.3053  0.3698 -0.6187
10525TIP3    H153066   5.592   7.097   3.167 -0.1959  0.7995 -0.7340
10525TIP3    H253067   5.475   7.060   3.254  0.3616  0.5931 -0.0660
10526TIP3   OH253068   3.597   1.352   1.284  0.3448  0.1696 -0.0960
10526TIP3    H153069   3.598   1.420   1.217  2.5302  0.4493  0.1899
10526TIP3    H253070   3.506   1.348   1.313 -0.2901  1.2047 -1.8972
10527TIP3   OH253071   0.159   2.656   0.127  0.9709  0.1729  0.3729
10527TIP3    H153072   0.196   2.609   0.202  1.4400  0.3068  0.2268
10527TIP3    H253073   0.147   2.590   0.060  0.0096 -0.0564  0.7590
10528TIP3   OH253074   0.718   0.537   5.264 -0.5158 -0.3534 -0.2792
10528TIP3    H153075   0.642   0.545   5.322  0.9434  1.3906  1.4646
10528TIP3    H253076   0.727   0.443   5.249 -1.5665 -0.7509  1.4628
10529TIP3   OH253077   0.699   1.751   2.495 -0.0005 -0.1151  0.1771
10529TIP3    H153078   0.725   1.787   2.410 -1.0719 -1.3238 -0.6854
10529TIP3    H253079   0.626   1.692   2.475 -0.9778  0.4090  2.0705
10530TIP3   OH253080   4.759   1.781  11.824 -0.3938 -0.8674  0.3440
10530TIP3    H153081   4.683   1.832  11.853 -0.7657 -2.2395  1.8253
10530TIP3    H253082   4.729   1.690  11.824  1.1241 -1.3819  0.5394
10531TIP3   OH253083   2.424   5.684   1.621  0.1496 -0.1422 -0.0570
10531TIP3    H153084   2.424   5.611   1.560  0.7837 -1.9027  2.0067
10531TIP3    H253085   2.452   5.647   1.705 -0.3482  2.2723  1.2523
10532TIP3   OH253086   3.210   5.960   3.974  0.1283 -0.2076 -0.7133
10532TIP3    H153087   3.219   6.048   3.937 -0.5689  0.5179  0.7992
10532TIP3    H253088   3.299   5.925   3.974  1.1612  2.1600  2.6171
10533TIP3   OH253089   6.566   5.174   3.545  0.4619 -0.0492  0.2799
10533TIP3    H153090   6.549   5.091   3.500  2.8703 -0.5419  0.2481
10533TIP3    H253091   6.559   5.152   3.638  1.0267 -0.2556  0.2704
10534TIP3   OH253092   0.837   2.140  15.129  0.0958 -0.2359  0.0102
10534TIP3    H153093   0.926   2.108  15.145  0.3643  0.1585 -0.6483
10534TIP3    H253094   0.807   2.089  15.053  0.6520  1.2859 -1.2566
10535TIP3   OH253095   7.123   6.914   2.315 -0.1302 -0.5360 -0.3979
10535TIP3    H153096   7.148   6.824   2.334 -0.3497 -0.6277 -0.5352
10535TIP3    H253097   7.098   6.951   2.399 -0.5660 -0.7714 -0.4197
10536TIP3   OH253098   6.182   6.379  13.068 -0.6236 -0.0946  0.1230
10536TIP3    H153099   6.260   6.325  13.082  0.3025  1.1639 -0.1259
10536TIP3    H253100   6.115   6.317  13.040  0.7884 -0.9536 -1.4855
10537TIP3   OH253101   3.482   6.735   2.585  0.0951  0.0209  0.0937
10537TIP3    H153102   3.464   6.673   2.514 -0.1387  1.0157 -0.7273
10537TIP3    H253103   3.498   6.818   2.540 -0.6420  0.7882  1.2358
10538TIP3   OH253104   6.903   0.222   2.303  0.0740  0.5525  0.0499
10538TIP3    H153105   6.873   0.254   2.218  1.7459  1.4460 -0.2477
10538TIP3    H253106   6.957   0.145   2.282  0.6950  0.9232  0.2710
10539TIP3   OH253107   6.274   2.260   2.504  0.4360  0.2788 -0.0412
10539TIP3    H153108   6.211   2.308   2.558 -0.8921 -2.1541  0.6435
10539TIP3    H253109   6.240   2.267   2.415  0.2925  0.6572  0.0428
10540TIP3   OH253110   3.038   6.766  13.776  0.3969  0.4758  0.4260
10540TIP3    H153111   2.968   6.707  13.749 -0.5908  1.1640  1.4758
10540TIP3    H253112   3.071   6.728  13.858  0.1864  1.0172  0.7646
10541TIP3   OH253113   6.250   1.437   4.186  0.5661  0.1708  0.6439
10541TIP3    H153114   6.306   1.505   4.224 -0.8795  0.6243  2.0219
10541TIP3    H253115   6.241   1.372   4.256  0.1360 -0.3663  0.0943
10542TIP3   OH253116   4.182   3.325   1.634 -0.5341  1.0194 -0.0448
10542TIP3    H153117   4.219   3.412   1.617 -0.4732  1.5516  2.6813
10542TIP3    H253118   4.256   3.265   1.619 -0.0651  1.5978 -0.0870
10543TIP3   OH253119   0.776   6.707   2.244  0.4977 -0.4248  0.3710
10543TIP3    H153120   0.683   6.704   2.220  0.9075  0.6273 -1.4332
10543TIP3    H253121   0.778   6.680   2.336 -1.6653  0.1496  0.6111
10544TIP3   OH253122   5.673   5.167  14.633 -0.2290 -0.2123 -0.5294
10544TIP3    H153123   5.589   5.176  14.679  0.6005  1.4910  0.6735
10544TIP3    H253124   5.657   5.205  14.546 -0.4442  0.9785  0.0229
10545TIP3   OH253125   2.363   2.409   2.097  0.0440  0.4377  0.0024
10545TIP3    H153126   2.371   2.497   2.135  1.9182  1.1734 -1.9829
10545TIP3    H253127   2.358   2.425   2.003 -1.4552 -1.5073 -0.2576
10546TIP3   OH253128   0.092   7.183  13.209 -0.3372 -0.1793  0.5156
10546TIP3    H153129   0.074   7.231  13.128  1.8749 -1.4176 -0.7408
10546TIP3    H253130   0.146   7.109  13.182  0.9858 -0.2579  3.1993
10547TIP3   OH253131   2.525   4.086   1.748 -0.1949  0.0634  0.2367
10547TIP3    H153132   2.561   3.998   1.742 -0.6499  0.0470 -3.7663
10547TIP3    H253133   2.431   4.073   1.763 -0.2851 -0.1627 -0.4928
10548TIP3   OH253134   4.741   6.336   2.878  0.0309  0.1660 -0.0936
10548TIP3    H153135   4.721   6.321   2.970 -0.6994  0.4308 -0.2040
10548TIP3    H253136   4.792   6.259   2.852  0.0527 -0.0130  0.4728
10549TIP3   OH253137   3.158   2.564   1.447  0.6603  0.2921  0.0110
10549TIP3    H153138   3.117   2.651   1.452  0.1892 -0.0233  2.0446
10549TIP3    H253139   3.106   2.517   1.381 -0.4069  0.8691  0.4286
10550TIP3   OH253140   0.482   0.245   1.310 -0.0693  0.4449 -0.0298
10550TIP3    H153141   0.577   0.255   1.314  0.1320 -1.5256  1.0211
10550TIP3    H253142   0.468   0.165   1.259 -1.1701  0.7759 -0.2669
10551TIP3   OH253143   6.038   6.753  15.227 -0.2497 -0.1552  0.3484
10551TIP3    H153144   5.957   6.715  15.262 -0.0671  0.7205  1.7526
10551TIP3    H253145   6.081   6.680  15.183 -1.6300 -0.7211 -0.1131
10552TIP3   OH253146   0.147   0.105  15.377  0.2871 -0.2778  0.2610
10552TIP3    H153147   0.172   0.115  15.469  0.3758 -0.5698  0.2661
10552TIP3    H253148   0.188   0.023  15.349  0.4267 -0.0886 -0.0949
10553TIP3   OH253149   2.663   0.518   1.715 -0.6074 -0.3138 -0.1002
10553TIP3    H153150   2.727   0.473   1.659 -0.4236 -0.9580  0.6190
10553TIP3    H253151   2.637   0.595   1.665  0.6388 -0.1167 -0.4559
10554TIP3   OH253152   7.075   5.225  11.697  0.4513 -0.7987 -0.0444
10554TIP3    H153153   7.134   5.279  11.749 -0.7058 -0.2833  0.7675
10554TIP3    H253154   7.021   5.179  11.762 -1.2830  0.1545 -0.7714
10555TIP3   OH253155   0.575   5.734   4.258 -0.3053  0.0721 -0.0920
10555TIP3    H153156   0.506   5.675   4.230 -0.0815 -1.0032  1.5489
10555TIP3    H253157   0.536   5.821   4.252 -1.4327 -0.4325 -0.2552
10556TIP3   OH253158   1.096   3.765   0.795  0.2647  0.4227  0.3577
10556TIP3    H153159   1.191   3.768   0.809  0.0258  2.5588  1.7912
10556TIP3    H253160   1.067   3.689   0.846  1.3174 -0.8856 -0.9538
10557TIP3   OH253161   6.868   3.751  15.236 -0.8246 -0.0194 -0.7172
10557TIP3    H153162   6.898   3.709  15.317  0.1037  1.2263 -0.3968
10557TIP3    H253163   6.773   3.741  15.237 -1.1737  2.7326  2.1418
10558TIP3   OH253164   1.710   2.038  12.006  0.4669  0.0710 -0.1115
10558TIP3    H153165   1.698   1.943  12.014  1.3743 -0.0701 -0.3164
10558TIP3    H253166   1.716   2.069  12.096  2.1815 -0.3478 -0.0692
10559TIP3   OH253167   4.994   1.169  15.009  0.0742  0.0121 -0.0498
10559TIP3    H153168   5.058   1.215  15.064  1.2952 -0.7199 -0.8266
10559TIP3    H253169   4.909   1.193  15.046  0.8276  0.3394  1.5257
10560TIP3   OH253170   1.588   3.971   1.681 -0.5336  0.2368  0.0924
10560TIP3    H153171   1.632   3.979   1.765 -1.9542 -0.9159  0.9692
10560TIP3    H253172   1.642   4.022   1.620 -0.3574  2.3789  2.0104
10561TIP3   OH253173   0.226   1.449  15.557 -0.7307 -0.3182 -0.2914
10561TIP3    H153174   0.237   1.543  15.539 -2.1866 -0.3738 -1.6627
10561TIP3    H253175   0.314   1.413  15.551 -0.4699  0.5703 -2.3189
10562TIP3   OH253176   1.824   7.161   1.517  0.2849  0.3444  0.5115
10562TIP3    H153177   1.813   7.141   1.424 -0.8590  0.0048  0.7128
10562TIP3    H253178   1.808   7.077   1.562  2.2150  0.1788  0.9292
10563TIP3   OH253179   6.301   4.933   0.297 -0.3350  0.0328  0.2687
10563TIP3    H153180   6.324   5.024   0.316 -0.0809 -0.0982  0.5941
10563TIP3    H253181   6.218   4.919   0.342 -0.4507  0.1521  0.0895
10564TIP3   OH253182   6.888   1.802   5.037 -0.4268  0.2457  0.3796
10564TIP3    H153183   6.981   1.820   5.023 -0.8844  1.8450 -0.6744
10564TIP3    H253184   6.842   1.873   4.993 -2.1417  0.1494  1.9319
10565TIP3   OH253185   2.645   0.188  14.220 -0.0546  0.9220 -0.6139
10565TIP3    H153186   2.639   0.281  14.243  0.2277  0.3942  1.6935
10565TIP3    H253187   2.643   0.142  14.304 -3.8640 -1.3741 -1.8268
10566TIP3   OH253188   2.604   0.322  10.966  0.1529  0.2393 -0.0499
10566TIP3    H153189   2.534   0.348  11.027 -0.7783 -1.5803 -0.3115
10566TIP3    H253190   2.560   0.312  10.882  0.9533  0.1586 -0.4609
10567TIP3   OH253191   5.052   3.358   2.739  0.6365 -0.0119  0.2937
10567TIP3    H153192   5.041   3.266   2.764  1.3594 -0.5402 -1.2683
10567TIP3    H253193   5.090   3.400   2.816  1.3542 -1.2621  0.6265
10568TIP3   OH253194   1.406   2.433  14.373  0.6857  0.1070 -0.3474
10568TIP3    H153195   1.390   2.511  14.320  0.1565  1.5702  1.9168
10568TIP3    H253196   1.334   2.374  14.350 -0.0325  1.0721 -0.6189
10569TIP3   OH253197   0.818   6.597   3.031 -0.5951 -0.0528  0.2785
10569TIP3    H153198   0.797   6.672   3.087 -0.6794 -0.7358  1.1616
10569TIP3    H253199   0.796   6.520   3.083  0.4530 -0.7203 -0.2335
10570TIP3   OH253200   2.117   6.136   2.772  0.2486  0.3914 -0.6326
10570TIP3    H153201   2.078   6.223   2.766  1.1279  0.7884 -0.7234
10570TIP3    H253202   2.129   6.109   2.680 -1.7968 -0.6459 -0.6162
10571TIP3   OH253203   2.782   0.955   3.475  0.0477  0.0677  0.3409
10571TIP3    H153204   2.874   0.977   3.485 -0.1064  0.0420  1.8863
10571TIP3    H253205   2.780   0.889   3.406  1.0328  1.0727 -0.6739
10572TIP3   OH253206   2.508   5.151  15.456  0.1371  0.2137  0.4586
10572TIP3    H153207   2.498   5.105  15.373 -2.9168 -0.3128  1.0815
10572TIP3    H253208   2.472   5.238  15.441 -0.0321  0.2610  1.1281
10573TIP3   OH253209   2.330   1.553   0.548  0.0384 -0.0903  0.6326
10573TIP3    H153210   2.275   1.627   0.573  1.2277  0.6739  1.0563
10573TIP3    H253211   2.374   1.581   0.468  0.6197 -0.2590  0.8870
10574TIP3   OH253212   2.834   5.153  14.915 -0.4038  0.6242 -0.6345
10574TIP3    H153213   2.812   5.146  15.008 -0.9359  1.4584 -0.6923
10574TIP3    H253214   2.910   5.097  14.904  0.2715  1.2955  0.5158
10575TIP3   OH253215   4.605   4.381   2.115 -0.0070  0.7986  0.1051
10575TIP3    H153216   4.516   4.401   2.085 -0.0506  0.0736 -0.2610
10575TIP3    H253217   4.612   4.285   2.108  0.3129  0.7138  1.4926
10576TIP3   OH253218   7.176   5.184   4.751  0.3534 -0.1028 -0.1452
10576TIP3    H153219   7.227   5.177   4.832 -0.3580 -1.7760  0.1824
10576TIP3    H253220   7.118   5.108   4.753  1.1837 -0.8509 -2.8394
10577TIP3   OH253221   4.632   5.717   0.052 -0.0804  0.2597 -0.2735
10577TIP3    H153222   4.648   5.779   0.123 -1.9472  0.7527 -0.2596
10577TIP3    H253223   4.657   5.765  -0.027 -2.1421  1.3295 -0.3275
10578TIP3   OH253224   5.045   6.268   1.259  0.5951 -0.2339  0.2199
10578TIP3    H153225   5.036   6.192   1.316  1.8912 -0.2492  0.4343
10578TIP3    H253226   4.958   6.281   1.220 -0.4649  0.1661  2.6710
10579TIP3   OH253227   6.911   4.861  15.037 -0.3254 -0.0836 -0.0402
10579TIP3    H153228   6.928   4.898  15.123  0.8264 -0.9584  0.1193
10579TIP3    H253229   6.975   4.902  14.979 -0.3437 -0.3410 -0.2481
10580TIP3   OH253230   4.518   3.194  13.647  0.4375 -0.0993  0.6401
10580TIP3    H153231   4.528   3.237  13.732  0.1584 -0.2545  0.7524
10580TIP3    H253232   4.424   3.176  13.640  0.5673 -0.8225  0.6642
10581TIP3   OH253233   6.925   7.058   4.140 -0.0956  0.2413  0.0512
10581TIP3    H153234   6.831   7.057   4.161  0.3935  1.8408  2.5616
10581TIP3    H253235   6.938   7.141   4.095  0.1916  0.1756  0.0154
10582TIP3   OH253236   5.564   2.971   2.856  0.2053  0.5250 -0.0813
10582TIP3    H153237   5.533   2.897   2.802 -0.3179 -0.4555  1.5058
10582TIP3    H253238   5.536   3.049   2.808  0.0906 -0.3168 -1.4152
10583TIP3   OH253239   4.075   2.659   2.871 -0.1519  0.0097 -0.5760
10583TIP3    H153240   4.097   2.568   2.852  0.0704  0.3070 -1.8334
10583TIP3    H253241   4.040   2.658   2.960  0.2692 -1.2320 -0.4186
10584TIP3   OH253242   2.879   0.616   2.546  0.4997  0.0547  0.1725
10584TIP3    H153243   2.814   0.594   2.479  0.0262 -0.1003  0.6730
10584TIP3    H253244   2.836   0.681   2.601  0.9377  0.2885  0.2423
10585TIP3   OH253245   6.358   5.354   2.981  0.8010  0.0550  0.4244
10585TIP3    H153246   6.391   5.379   2.894  1.1542  1.7584  1.0197
10585TIP3    H253247   6.268   5.386   2.982  0.8232  0.1062  0.7103
10586TIP3   OH253248   0.842   0.066   4.759 -0.7560 -0.6105  0.5404
10586TIP3    H153249   0.748   0.051   4.743 -0.6109 -2.0409  0.9283
10586TIP3    H253250   0.879  -0.022   4.765  0.9197 -0.0946 -1.3706
10587TIP3   OH253251   0.065   0.962   1.224 -0.0569  0.3976  0.1320
10587TIP3    H153252   0.089   0.967   1.317 -1.7952 -0.9963  0.6786
10587TIP3    H253253   0.105   1.039   1.185 -0.8496  2.0074  2.4062
10588TIP3   OH253254   2.190   0.478  14.797 -0.2690 -0.4948  0.5408
10588TIP3    H153255   2.276   0.478  14.756 -0.4057 -0.6017  0.2572
10588TIP3    H253256   2.147   0.399  14.763 -0.8625  0.1019 -0.1102
10589TIP3   OH253257   2.562   6.868   1.234  0.0683 -0.1209  0.4243
10589TIP3    H153258   2.603   6.782   1.223  0.3918  0.2690 -1.7322
10589TIP3    H253259   2.506   6.877   1.156 -1.0534  1.0232  1.3554
10590TIP3   OH253260   5.539   0.354   3.406  0.2416  0.3924  0.1656
10590TIP3    H153261   5.480   0.423   3.377 -0.7920 -0.2707  0.6376
10590TIP3    H253262   5.627   0.392   3.401 -0.2052  1.2907 -0.8248
10591TIP3   OH253263   4.566   3.683   4.803  0.7275  0.1092  0.1934
10591TIP3    H153264   4.653   3.685   4.843  0.3819 -0.6179  0.9952
10591TIP3    H253265   4.507   3.662   4.875 -0.0555  0.0959 -0.4445
10592TIP3   OH253266   4.017   6.737  15.369  0.7077  0.0333  0.0391
10592TIP3    H153267   4.029   6.647  15.338 -0.7058  0.3371 -1.4020
10592TIP3    H253268   4.030   6.792  15.292 -1.4024  0.8798  0.2522
10593TIP3   OH253269   5.781   5.991  13.239  0.1552  0.0841  0.0414
10593TIP3    H153270   5.788   6.073  13.191 -0.5651 -0.2957 -0.7296
10593TIP3    H253271   5.856   5.991  13.298 -0.5100  1.8395  0.9124
10594TIP3   OH253272   1.886   4.517  14.989 -0.2695  0.5482  0.0842
10594TIP3    H153273   1.952   4.455  14.959 -0.1455 -0.9773  3.2414
10594TIP3    H253274   1.802   4.476  14.967 -0.1806 -0.5772  1.7173
10595TIP3   OH253275   4.330   5.197  14.638  0.0752  0.1539 -0.5733
10595TIP3    H153276   4.391   5.124  14.646 -0.6849 -0.4991 -0.6142
10595TIP3    H253277   4.257   5.173  14.695 -0.7495  0.2999 -1.5608
10596TIP3   OH253278   3.215   0.355   1.125 -0.5527  0.3064  0.0897
10596TIP3    H153279   3.179   0.360   1.037 -2.2961 -1.3337  0.6695
10596TIP3    H253280   3.189   0.268   1.157  2.1038 -0.0900  1.3448
10597TIP3   OH253281   6.566   3.965  13.299  0.5305  0.0139 -0.6101
10597TIP3    H153282   6.495   3.905  13.277  0.2326  0.5658 -1.1568
10597TIP3    H253283   6.577   3.954  13.394  1.5255 -2.0281 -0.9345
10598TIP3   OH253284   1.861   2.773   1.208  0.9191  0.5049 -0.6933
10598TIP3    H153285   1.918   2.697   1.195 -1.0393 -1.1724  0.2997
10598TIP3    H253286   1.822   2.760   1.295  0.0789  2.3408 -0.7584
10599TIP3   OH253287   2.292   2.893   1.833 -0.8115 -0.2278  0.4148
10599TIP3    H153288   2.215   2.840   1.809 -2.8701  1.4518  2.9720
10599TIP3    H253289   2.367   2.843   1.801 -2.8729 -2.9713 -0.3150
10600TIP3   OH253290   2.258   3.864   1.658  0.4433  0.2134 -0.4003
10600TIP3    H153291   2.300   3.812   1.726  0.0664  2.1565  1.3632
10600TIP3    H253292   2.170   3.882   1.692  0.0389  0.7305 -1.6726
10601TIP3   OH253293   7.068   3.681   2.187  0.2532  0.5965 -0.3669
10601TIP3    H153294   7.023   3.618   2.243  1.2063 -1.4687 -1.8415
10601TIP3    H253295   7.009   3.692   2.112 -0.1431  1.8564  0.1313
10602TIP3   OH253296   3.334   1.037   1.332  0.1339  0.3451 -0.0317
10602TIP3    H153297   3.256   1.069   1.287  1.1493  0.5101 -1.7672
10602TIP3    H253298   3.303   0.964   1.386 -1.2009  0.3784 -0.7269
10603TIP3   OH253299   6.245   4.797   5.171 -0.1997 -0.2118 -0.5189
10603TIP3    H153300   6.300   4.819   5.246  2.3226 -1.4470 -1.9353
10603TIP3    H253301   6.233   4.702   5.177 -0.8904 -0.1628 -1.0780
10604TIP3   OH253302   0.539   2.164  14.501  0.7946 -0.1500 -0.4705
10604TIP3    H153303   0.448   2.185  14.481  0.3129  0.9493  2.6551
10604TIP3    H253304   0.534   2.085  14.554  1.5365  0.5922  0.7345
10605TIP3   OH253305   3.407   2.416   2.386  0.0410 -0.8361  0.5476
10605TIP3    H153306   3.434   2.380   2.471  0.2630 -0.5878  0.5824
10605TIP3    H253307   3.320   2.453   2.402 -0.7730 -2.5333  0.1970
10606TIP3   OH253308   1.777   6.298   1.024  0.1013  0.3335 -0.2091
10606TIP3    H153309   1.868   6.298   1.052  0.2490 -2.4904 -0.5562
10606TIP3    H253310   1.779   6.329   0.934  1.1201 -2.4417 -1.2042
10607TIP3   OH253311   1.156   3.573   3.888 -0.5950 -0.0302  0.4113
10607TIP3    H153312   1.154   3.633   3.962 -1.6112  1.3650 -0.7200
10607TIP3    H253313   1.079   3.517   3.901 -1.3187  0.8333 -0.0704
10608TIP3   OH253314   4.249   6.702   3.162  0.4679 -0.1802  0.1334
10608TIP3    H153315   4.207   6.786   3.180 -0.2390 -0.3202 -0.8125
10608TIP3    H253316   4.186   6.655   3.107  0.9466 -1.2459  0.4729
10609TIP3   OH253317   4.291   6.853   4.242 -0.1377  0.1815 -0.7767
10609TIP3    H153318   4.205   6.828   4.209 -0.2768  0.2949 -0.5058
10609TIP3    H253319   4.274   6.930   4.296 -0.2187 -1.1777  1.2141
10610TIP3   OH253320   0.338   6.449  12.103 -0.1220  0.2567 -0.0632
10610TIP3    H153321   0.415   6.472  12.051 -1.0360 -1.0194 -2.0616
10610TIP3    H253322   0.370   6.446  12.193  2.3181 -0.8611 -0.9093
10611TIP3   OH253323   6.057   1.996  14.217 -0.0881  0.0483  0.0260
10611TIP3    H153324   6.071   1.902  14.227 -0.1013  0.0432 -0.0016
10611TIP3    H253325   6.016   2.004  14.131 -1.2683 -0.0291  0.5804
10612TIP3   OH253326   5.485   1.652  14.513  0.2802 -0.9453  0.3537
10612TIP3    H153327   5.504   1.737  14.472  3.3695 -0.5851  2.3199
10612TIP3    H253328   5.390   1.650  14.522  0.2134  2.9759  1.5494
10613TIP3   OH253329   5.637   2.433   1.417 -0.1364  0.2552  0.3565
10613TIP3    H153330   5.561   2.487   1.399  0.1183  0.4946 -0.0096
10613TIP3    H253331   5.629   2.410   1.509 -0.3590  0.7373  0.4581
10614TIP3   OH253332   3.711   6.209  15.562 -0.5342  0.7212  0.2948
10614TIP3    H153333   3.728   6.159  15.641  1.9765  1.8875  0.5458
10614TIP3    H253334   3.705   6.143  15.493 -0.0148 -0.1203  1.0400
10615TIP3   OH253335   1.427   6.917   2.874 -0.1771  0.2036 -0.4591
10615TIP3    H153336   1.466   6.832   2.896  1.5098  1.7271  2.7447
10615TIP3    H253337   1.335   6.910   2.902 -0.1735 -0.7202 -0.6765
10616TIP3   OH253338   4.848   2.913   2.055 -0.6942 -0.2318 -0.1259
10616TIP3    H153339   4.924   2.885   2.004 -1.3790 -1.5366 -0.4457
10616TIP3    H253340   4.886   2.953   2.134  0.3222 -0.4524 -0.4954
10617TIP3   OH253341   2.399   1.881  13.728 -0.5857 -0.0102 -0.5144
10617TIP3    H153342   2.427   1.959  13.776 -0.4563 -1.1278  1.2754
10617TIP3    H253343   2.304   1.886  13.727 -0.5624  0.3597 -0.7014
10618TIP3   OH253344   1.514   3.061   1.734 -0.0478  0.3840 -0.1466
10618TIP3    H153345   1.516   3.033   1.642  0.4390 -1.7142  0.4753
10618TIP3    H253346   1.427   3.035   1.764 -0.5703  1.9605 -0.2705
10619TIP3   OH253347   1.375   1.829  14.720 -0.3094 -0.7402  0.0442
10619TIP3    H153348   1.413   1.783  14.796 -1.1637 -2.3921 -0.5059
10619TIP3    H253349   1.294   1.867  14.754 -0.6102 -1.3411  0.0100
10620TIP3   OH253350   1.790   2.162  14.722  0.0805 -0.4068  0.1945
10620TIP3    H153351   1.784   2.151  14.817  3.2255 -0.8999  0.3926
10620TIP3    H253352   1.747   2.085  14.685 -1.6103  0.0343  1.1595
10621TIP3   OH253353   1.486   2.125   4.171  0.2269 -0.6607  0.3942
10621TIP3    H153354   1.452   2.106   4.258  0.0840 -0.2198  0.4382
10621TIP3    H253355   1.419   2.091   4.111 -0.1997  0.0306  0.4777
10622TIP3   OH253356   2.804   6.879   1.070  0.2382 -0.1387  0.2980
10622TIP3    H153357   2.886   6.876   1.119  0.7894  0.6221 -0.5626
10622TIP3    H253358   2.736   6.866   1.136  1.0620 -1.0495  0.9779
10623TIP3   OH253359   1.233   2.147   0.993  0.2390  0.2538  0.1192
10623TIP3    H153360   1.279   2.092   1.056  2.3475  3.0937  1.1301
10623TIP3    H253361   1.275   2.126   0.909 -1.3288 -2.1712 -0.1091
10624TIP3   OH253362   0.527   3.924   2.550 -0.1660  0.0462 -0.0542
10624TIP3    H153363   0.462   3.976   2.597 -1.0670  0.7762 -2.0574
10624TIP3    H253364   0.482   3.892   2.472  1.1980 -1.4241 -0.2733
10625TIP3   OH253365   4.638   6.708  15.558  0.1351  0.4661 -0.1984
10625TIP3    H153366   4.548   6.732  15.581  0.3170  2.2442 -1.3214
10625TIP3    H253367   4.693   6.759  15.617  0.4471  0.5752 -0.5800
10626TIP3   OH253368   6.297   0.214  13.515  0.1488  0.4680  0.1064
10626TIP3    H153369   6.325   0.206  13.423 -1.3625  2.2835 -0.5407
10626TIP3    H253370   6.233   0.144  13.527 -0.7429  1.1373 -0.6677
10627TIP3   OH253371   0.591   3.890  10.953 -0.7901 -0.0836 -0.1556
10627TIP3    H153372   0.551   3.818  10.903 -0.4702 -0.5738  0.2812
10627TIP3    H253373   0.652   3.930  10.891 -0.8793 -0.2733 -0.3685
10628TIP3   OH253374   1.980   6.047   1.257  0.2977 -0.7257  0.4309
10628TIP3    H153375   1.985   6.129   1.209 -2.0231  0.1931  1.6953
10628TIP3    H253376   2.017   5.982   1.197  1.0379  1.0218 -1.0570
10629TIP3   OH253377   4.836   0.227   1.940  0.4255  0.4839  0.2037
10629TIP3    H153378   4.810   0.319   1.941  0.6164  0.5598 -0.7022
10629TIP3    H253379   4.810   0.193   2.025 -1.1064  0.9777 -0.0478
10630TIP3   OH253380   6.383   1.367   1.812  0.9119  0.2964 -0.2671
10630TIP3    H153381   6.400   1.433   1.746 -0.7194  2.8137  1.7310
10630TIP3    H253382   6.456   1.375   1.873  1.8967 -1.3407 -1.1978
10631TIP3   OH253383   1.497   5.841  13.584 -0.4793 -0.4479 -0.2738
10631TIP3    H153384   1.473   5.932  13.564  0.9501  0.1298  0.5429
10631TIP3    H253385   1.493   5.796  13.500  2.0314  1.1441 -1.2990
10632TIP3   OH253386   3.569   2.688  12.749  0.6590 -0.4158 -0.0293
10632TIP3    H153387   3.479   2.668  12.775  0.5917 -1.7352 -1.1612
10632TIP3    H253388   3.575   2.783  12.752 -0.6815 -0.3396  0.3851
10633TIP3   OH253389   7.112   3.432   0.624  0.0708  0.2666 -0.5154
10633TIP3    H153390   7.172   3.505   0.609 -0.8877  1.0814 -0.3674
10633TIP3    H253391   7.145   3.391   0.704  0.7742  0.3582 -0.7498
10634TIP3   OH253392   0.957   1.070   3.488 -0.0217  0.7323 -0.1895
10634TIP3    H153393   0.901   1.115   3.424  1.0705  1.7505 -0.4522
10634TIP3    H253394   1.044   1.108   3.474  0.3092  0.6618  1.6188
10635TIP3   OH253395   0.971   3.570   0.160  0.3291 -0.2951  0.5053
10635TIP3    H153396   1.008   3.507   0.098  0.8802  1.1794 -0.7292
10635TIP3    H253397   0.877   3.559   0.153  0.3506  0.3738 -1.2178
10636TIP3   OH253398   4.266   5.874   5.737 -0.6647  0.2635  0.0792
10636TIP3    H153399   4.217   5.850   5.815 -1.0896  2.4818  0.5066
10636TIP3    H253400   4.232   5.816   5.669 -0.9767 -1.0124  1.2988
10637TIP3   OH253401   3.381   0.410  11.671  0.1730 -0.5654  0.4224
10637TIP3    H153402   3.289   0.389  11.659 -0.7050  2.9422  0.4413
10637TIP3    H253403   3.398   0.480  11.608  3.2320 -2.1355 -0.5856
10638TIP3   OH253404   4.959   6.822  14.980 -0.0401  0.1197 -0.0810
10638TIP3    H153405   5.026   6.856  14.921  0.2304 -0.5152 -0.1469
10638TIP3    H253406   4.917   6.900  15.016 -0.8888  0.4995 -1.8817
10639TIP3   OH253407   6.521   4.340   1.179 -0.1869  0.8045 -0.5044
10639TIP3    H153408   6.590   4.372   1.237  0.6332  0.0772 -1.0652
10639TIP3    H253409   6.540   4.381   1.095 -0.2399  0.3423 -0.7441
10640TIP3   OH253410   4.731   6.984   0.052 -0.3011 -0.3096  0.3769
10640TIP3    H153411   4.641   7.015   0.063  0.2202  1.0717  0.8475
10640TIP3    H253412   4.786   7.059   0.076  0.9762 -0.9335 -0.5134
10641TIP3   OH253413   2.999   0.281   2.330  0.3073  0.3148 -0.0403
10641TIP3    H153414   3.027   0.227   2.256 -1.1858 -0.5665  0.0256
10641TIP3    H253415   2.981   0.367   2.291  1.3388  0.3966 -0.3715
10642TIP3   OH253416   1.713   3.958   4.202 -0.2023 -0.0561  0.1627
10642TIP3    H153417   1.748   4.040   4.168  0.5755 -0.7959 -0.8312
10642TIP3    H253418   1.627   3.950   4.160  0.3701 -0.5126 -0.9429
10643TIP3   OH253419   0.076   1.792   3.887  0.0948  0.6173 -0.1405
10643TIP3    H153420   0.022   1.828   3.817 -2.5905 -1.4702  0.7632
10643TIP3    H253421   0.120   1.717   3.848 -1.3699 -0.5215  0.3759
10644TIP3   OH253422   3.323   0.786   1.061 -0.2644 -0.2229  0.2635
10644TIP3    H153423   3.419   0.786   1.064 -0.2083  2.2344 -0.9491
10644TIP3    H253424   3.297   0.745   1.144  1.8232  0.9231  1.5380
10645TIP3   OH253425   5.285   2.297   4.009  0.1918 -0.0774 -0.0398
10645TIP3    H153426   5.302   2.258   4.095 -1.3279  2.2236  1.3515
10645TIP3    H253427   5.197   2.267   3.986 -0.0167  0.5717 -0.0880
10646TIP3   OH253428   5.462   2.566   1.158 -0.7196  0.5353  0.5609
10646TIP3    H153429   5.394   2.539   1.220 -0.2686 -0.0765  0.7999
10646TIP3    H253430   5.414   2.594   1.081 -1.2365 -0.2216  0.5966
10647TIP3   OH253431   6.324   4.810   3.215 -0.0717 -0.9172  0.2772
10647TIP3    H153432   6.382   4.754   3.164 -0.3517 -1.5769  0.6814
10647TIP3    H253433   6.338   4.898   3.179 -1.7397 -1.6462 -2.3220
10648TIP3   OH253434   2.860   6.073   2.000  0.8154 -0.1655  0.4485
10648TIP3    H153435   2.823   6.048   2.084  1.2964 -0.9125  0.4460
10648TIP3    H253436   2.955   6.065   2.012  1.0540  2.6942  0.7668
10649TIP3   OH253437   1.497   6.512   2.165 -0.4217 -0.2039  0.3360
10649TIP3    H153438   1.590   6.491   2.169 -0.6982 -1.2496  2.4472
10649TIP3    H253439   1.486   6.564   2.086  1.8134 -0.7818 -0.3665
10650TIP3   OH253440   3.937   5.748   3.013 -0.0311  0.1544  0.1323
10650TIP3    H153441   3.896   5.690   2.949 -1.8761  0.0225  1.4017
10650TIP3    H253442   3.972   5.688   3.079 -0.5429  0.4254  0.6431
10651TIP3   OH253443   7.095   5.179  15.525 -0.5938 -0.1501 -0.1087
10651TIP3    H153444   7.008   5.212  15.508  0.4566  3.0053  0.3896
10651TIP3    H253445   7.152   5.226  15.464  0.7629 -2.2037 -0.4806
10652TIP3   OH253446   2.027   2.390  14.088  0.3226 -0.3257  0.4927
10652TIP3    H153447   1.963   2.416  14.021  0.7032  0.0330  0.2606
10652TIP3    H253448   2.022   2.460  14.154  0.8627 -0.0146  0.2045
10653TIP3   OH253449   5.552   0.632   5.336  1.1260  0.9526  0.5486
10653TIP3    H153450   5.565   0.672   5.422  1.3346  2.2464 -0.0697
10653TIP3    H253451   5.508   0.700   5.285  1.5210  0.4026 -0.5285
10654TIP3   OH253452   6.611   0.573   0.378  0.2103 -0.3674 -0.6306
10654TIP3    H153453   6.677   0.615   0.434  1.6296 -2.7762 -0.4251
10654TIP3    H253454   6.638   0.596   0.289  0.3396  0.0605 -0.4858
10655TIP3   OH253455   3.635   2.914  14.674 -0.2527  0.5140 -0.4463
10655TIP3    H153456   3.686   2.964  14.610  2.2334  0.9891  1.8218
10655TIP3    H253457   3.547   2.952  14.669 -0.0169  0.7522 -3.3144
10656TIP3   OH253458   4.482   4.043   3.853  0.0289  0.0869 -0.4993
10656TIP3    H153459   4.394   4.062   3.887  0.5396 -0.4272  1.1787
10656TIP3    H253460   4.500   4.113   3.791 -0.8535  1.2160  0.5015
10657TIP3   OH253461   3.187   6.667   4.059  0.1660 -0.2142 -0.2456
10657TIP3    H153462   3.115   6.607   4.080 -0.4042 -0.3890 -2.5174
10657TIP3    H253463   3.255   6.646   4.123 -1.3573 -0.8387  1.2273
10658TIP3   OH253464   1.767   1.744  15.152 -0.4152  0.0706 -0.0866
10658TIP3    H153465   1.730   1.807  15.214 -1.3994 -0.1996 -0.3837
10658TIP3    H253466   1.782   1.795  15.073  2.9690  0.9459  1.0483
10659TIP3   OH253467   6.840   1.921   4.048  0.3566  0.0931 -0.2063
10659TIP3    H153468   6.811   1.911   3.957 -1.9787  1.0890  0.4046
10659TIP3    H253469   6.932   1.947   4.040  0.7789 -1.8412 -2.2111
10660TIP3   OH253470   3.166   2.835   1.673 -0.3564 -0.0956  0.5849
10660TIP3    H153471   3.198   2.766   1.731  1.7524 -0.2804 -0.7215
10660TIP3    H253472   3.226   2.832   1.598 -0.4344  2.9180  0.3521
10661TIP3   OH253473   3.176   2.238   2.862  0.1012 -0.0896 -0.1626
10661TIP3    H153474   3.084   2.239   2.889  0.1764 -2.0621  0.2259
10661TIP3    H253475   3.204   2.148   2.874  2.2176  0.5722  0.0921
10662TIP3   OH253476   0.898   4.822   3.646 -0.0273 -0.2061 -0.0829
10662TIP3    H153477   0.959   4.778   3.586 -0.0051 -2.1818  1.3500
10662TIP3    H253478   0.945   4.900   3.676  1.0968 -0.7779 -0.3503
10663TIP3   OH253479   1.387   3.864   2.191 -0.1298  0.0692  0.3887
10663TIP3    H153480   1.313   3.804   2.204 -0.7227  0.8885  0.8664
10663TIP3    H253481   1.442   3.851   2.268 -0.9827  1.1480  1.2012
10664TIP3   OH253482   3.588   0.609   2.863 -0.0591  0.2129  0.3223
10664TIP3    H153483   3.534   0.572   2.793 -0.9385  0.2170  0.9926
10664TIP3    H253484   3.527   0.623   2.936  1.1636 -1.4109  1.7050
10665TIP3   OH253485   6.830   0.931   5.131 -0.0760  1.2101 -0.6740
10665TIP3    H153486   6.898   0.879   5.173 -0.5627 -0.6493 -2.1055
10665TIP3    H253487   6.877   0.983   5.065  0.1469  1.0102 -0.6742
10666TIP3   OH253488   3.001   2.352  14.145 -0.2715  0.1399  0.5024
10666TIP3    H153489   3.079   2.337  14.090  0.1745  1.9132  0.6233
10666TIP3    H253490   2.930   2.367  14.082 -0.4752 -1.2676  0.3926
10667TIP3   OH253491   6.025   3.682  13.621 -0.0936 -0.1874  0.5086
10667TIP3    H153492   5.979   3.758  13.657  1.6657  0.5882  1.2010
10667TIP3    H253493   6.007   3.612  13.683 -0.0731  0.2038  0.9641
10668TIP3   OH253494   1.682   2.649   0.615  0.0974 -0.5162  0.0088
10668TIP3    H153495   1.592   2.670   0.640  0.5188  0.7435  0.5269
10668TIP3    H253496   1.688   2.554   0.626 -0.9338 -0.5147  0.7386
10669TIP3   OH253497   6.106   5.354   0.565 -0.1255 -0.1603 -0.1257
10669TIP3    H153498   6.130   5.413   0.636  0.6395  0.4074 -0.8412
10669TIP3    H253499   6.022   5.388   0.534  0.0912  0.2849 -0.2346
10670TIP3   OH253500   5.452   1.438   0.853  0.2908  0.4031  0.3469
10670TIP3    H153501   5.501   1.395   0.783 -1.6209  0.9641 -1.4100
10670TIP3    H253502   5.492   1.525   0.861  0.0471  0.6100 -0.5956
10671TIP3   OH253503   0.582   3.009  13.528  0.0304  0.2926  0.5900
10671TIP3    H153504   0.622   2.923  13.516 -0.8799  0.1195 -1.4096
10671TIP3    H253505   0.653   3.064  13.560  1.1075 -0.7436  0.0416
10672TIP3   OH253506   5.537   1.682   4.864 -0.1320  0.5161  0.2780
10672TIP3    H153507   5.479   1.646   4.797  0.5668 -0.0135 -0.0559
10672TIP3    H253508   5.495   1.764   4.892  0.4201  1.6169 -2.0182
10673TIP3   OH253509   3.350   2.652   4.237 -0.1710 -0.0996 -0.4649
10673TIP3    H153510   3.258   2.639   4.259 -0.3343  0.3338 -0.8916
10673TIP3    H253511   3.372   2.577   4.181 -0.7825  0.7979 -1.9219
10674TIP3   OH253512   6.828   0.090  15.193  0.1015 -0.5830  0.2432
10674TIP3    H153513   6.806   0.005  15.155 -0.2389  0.6473 -2.4251
10674TIP3    H253514   6.900   0.122  15.139  1.4033  0.0920  2.3204
10675TIP3   OH253515   1.985   0.497   1.124  0.3800 -0.4234 -0.2932
10675TIP3    H153516   1.997   0.407   1.151 -0.4412 -0.7390 -0.9248
10675TIP3    H253517   1.948   0.491   1.036  1.2339  0.5412 -0.7302
10676TIP3   OH253518   6.986   4.590  15.046  0.0037 -0.7370 -0.8617
10676TIP3    H153519   6.928   4.666  15.048 -1.1764 -1.6287 -0.3677
10676TIP3    H253520   7.026   4.587  15.133 -1.3671 -1.7344 -0.2446
10677TIP3   OH253521   5.931   0.320   2.574  0.3099 -0.0177 -0.2079
10677TIP3    H153522   5.858   0.262   2.599 -0.4008  1.4674  1.2095
10677TIP3    H253523   5.891   0.385   2.517  0.5131  0.7814  0.5476
10678TIP3   OH253524   6.569   1.968   1.724  0.1142  0.4361 -0.0010
10678TIP3    H153525   6.532   1.983   1.638 -1.1388 -0.6859  0.3212
10678TIP3    H253526   6.662   1.951   1.708  0.4263  2.7545 -0.8657
10679TIP3   OH253527   7.149   1.402   2.294 -0.1939 -0.5266 -0.3658
10679TIP3    H153528   7.087   1.333   2.271  0.3276 -1.5996  1.3518
10679TIP3    H253529   7.095   1.469   2.337 -0.5896 -0.1547 -1.4203
10680TIP3   OH253530   1.401   3.557   2.253  0.1133  0.7519  0.3338
10680TIP3    H153531   1.331   3.512   2.300  0.5696  0.3348  0.6286
10680TIP3    H253532   1.424   3.498   2.181 -0.2920  1.1924 -0.1580
10681TIP3   OH253533   2.466   3.986   5.684 -0.0547 -0.3289 -0.5224
10681TIP3    H153534   2.558   3.975   5.658  0.4502  0.1110  1.0323
10681TIP3    H253535   2.470   4.035   5.766 -1.7224  0.4256 -0.8711
10682TIP3   OH253536   1.617   6.997   3.769 -0.5251 -0.3882 -0.1760
10682TIP3    H153537   1.582   7.081   3.741 -1.0646  0.6655  3.4147
10682TIP3    H253538   1.541   6.948   3.800  0.3428 -0.5059  1.8008
10683TIP3   OH253539   1.143   0.718   0.987  0.4316 -0.6512 -0.1436
10683TIP3    H153540   1.234   0.749   0.983  0.4165 -0.4667  0.8871
10683TIP3    H253541   1.146   0.644   1.048 -0.0816 -0.7414 -0.2306
10684TIP3   OH253542   4.641   6.987   2.182 -0.3190 -0.3878 -0.4427
10684TIP3    H153543   4.609   7.023   2.100 -0.1077  1.5096  0.2788
10684TIP3    H253544   4.674   6.900   2.159 -0.7455 -0.0865 -2.2518
10685TIP3   OH253545   3.422   5.611   0.081 -0.2510 -0.4504 -0.0630
10685TIP3    H153546   3.472   5.692   0.086  1.7102 -1.7476  3.2508
10685TIP3    H253547   3.332   5.639   0.061  0.8109  2.2907 -1.2792
10686TIP3   OH253548   2.771   2.148   0.128 -0.3397 -0.2245  0.0646
10686TIP3    H153549   2.748   2.192   0.210 -0.5313  0.9249 -0.5911
10686TIP3    H253550   2.835   2.206   0.087  0.9446 -1.5865  0.1401
10687TIP3   OH253551   1.712   0.858   4.672 -0.2313 -0.5757  0.0171
10687TIP3    H153552   1.739   0.848   4.581 -0.8036 -0.5657 -0.1524
10687TIP3    H253553   1.685   0.770   4.699 -0.7140 -0.4441 -0.0320
10688TIP3   OH253554   0.916   1.156   1.778 -0.3032  0.6614 -0.2490
10688TIP3    H153555   0.889   1.074   1.736  0.4069  0.0085  0.5474
10688TIP3    H253556   0.887   1.225   1.718 -2.8802 -0.0488  0.1390
10689TIP3   OH253557   3.099   0.850  14.626 -1.1890 -0.4421  0.1051
10689TIP3    H153558   3.133   0.932  14.589 -0.1373 -0.6433  0.5873
10689TIP3    H253559   3.098   0.790  14.552  0.0864 -0.5962  0.2021
10690TIP3   OH253560   6.819   3.143   2.938 -0.4379  0.2788 -0.1785
10690TIP3    H153561   6.736   3.102   2.911  0.3663 -0.6336 -1.3387
10690TIP3    H253562   6.877   3.130   2.863  0.6471  1.2315  0.4881
10691TIP3   OH253563   2.634   5.806  12.712 -0.8457  0.0081  0.1322
10691TIP3    H153564   2.698   5.750  12.668 -0.6337  0.6804 -0.4180
10691TIP3    H253565   2.566   5.745  12.741  0.1977 -0.7627  1.0320
10692TIP3   OH253566   4.408   1.675   0.984 -0.3114  0.0216  0.4986
10692TIP3    H153567   4.427   1.587   1.016  0.9747 -0.1273 -0.6724
10692TIP3    H253568   4.369   1.661   0.898 -1.0959  0.5586  0.7630
10693TIP3   OH253569   1.876   2.395   3.470 -0.7052 -0.4592  0.3668
10693TIP3    H153570   1.902   2.320   3.416 -0.0405 -1.0916  1.5432
10693TIP3    H253571   1.945   2.403   3.535 -1.1213  0.7601  0.6782
10694TIP3   OH253572   3.192   7.091   0.041 -0.3933  0.3197 -0.4045
10694TIP3    H153573   3.262   7.142  -0.000  1.2671 -0.1768  1.6803
10694TIP3    H253574   3.238   7.024   0.092 -2.4979 -2.0159 -1.4941
10695TIP3   OH253575   0.254   6.242  15.210 -0.4036 -0.1622 -0.0197
10695TIP3    H153576   0.190   6.308  15.183  0.2702  0.4651 -0.1392
10695TIP3    H253577   0.209   6.188  15.275 -0.6709  1.0269  0.8009
10696TIP3   OH253578   4.327   5.482   2.327 -0.7036 -0.5184  0.4024
10696TIP3    H153579   4.260   5.540   2.366  0.1482  1.1220 -0.5076
10696TIP3    H253580   4.410   5.517   2.360 -0.0309  0.2848 -2.0382
10697TIP3   OH253581   2.912   3.653  15.411  0.0014  0.2931  0.3006
10697TIP3    H153582   2.990   3.671  15.465  0.3305 -1.2430  0.3570
10697TIP3    H253583   2.875   3.740  15.393  0.3591  0.8792  2.2957
10698TIP3   OH253584   2.498   0.757   2.208  0.7252  0.5610  0.0472
10698TIP3    H153585   2.419   0.810   2.195  0.5204  0.8310  2.1935
10698TIP3    H253586   2.467   0.667   2.201 -0.3269  0.5845  3.3202
10699TIP3   OH253587   3.903   0.711   2.438 -0.1512  0.3627 -0.5788
10699TIP3    H153588   3.844   0.668   2.501 -0.4638  1.5446 -0.0487
10699TIP3    H253589   3.987   0.668   2.451 -0.5861 -0.4571 -0.4322
10700TIP3   OH253590   4.805   5.215   1.128  0.2586  1.0594  0.0564
10700TIP3    H153591   4.776   5.254   1.211 -0.8703 -0.2509  0.3014
10700TIP3    H253592   4.723   5.189   1.085  0.7956  2.3825 -1.8100
10701TIP3   OH253593   4.514   0.922  15.200 -0.0093 -0.1122  0.7330
10701TIP3    H153594   4.450   0.983  15.165 -1.3391 -2.2854 -0.7660
10701TIP3    H253595   4.474   0.891  15.282 -0.2985 -0.5216  0.4387
10702TIP3   OH253596   1.214   1.972   3.611 -0.2481  0.0810 -0.4835
10702TIP3    H153597   1.309   1.980   3.603  0.1223 -1.3763  1.8944
10702TIP3    H253598   1.185   2.056   3.646  0.4395 -0.1420  0.6512
10703TIP3   OH253599   3.269   0.393   2.464  0.1501  0.2972  0.2811
10703TIP3    H153600   3.222   0.450   2.403 -2.1243 -2.0674 -0.3175
10703TIP3    H253601   3.200   0.358   2.521  1.5310 -1.4071  0.9413
10704TIP3   OH253602   1.480   0.468  15.449 -0.2150  0.5629  0.2383
10704TIP3    H153603   1.537   0.545  15.442  0.7772 -0.3861 -2.7685
10704TIP3    H253604   1.539   0.397  15.472 -0.6625  0.1141 -0.0016
10705TIP3   OH253605   6.800   3.101   1.267 -0.2243 -0.1628 -0.6251
10705TIP3    H153606   6.712   3.136   1.257 -1.1554 -2.7649 -2.2394
10705TIP3    H253607   6.790   3.028   1.327  1.0744  0.2841  0.1533
10706TIP3   OH253608   4.416   6.415   1.287  0.0130  0.0843  0.3727
10706TIP3    H153609   4.490   6.475   1.274  0.6641 -0.7081  0.3868
10706TIP3    H253610   4.455   6.328   1.287 -1.2264 -0.5278 -2.1991
10707TIP3   OH253611   1.753   1.255   3.376  0.6693  0.1981 -0.3804
10707TIP3    H153612   1.711   1.233   3.293  0.3847 -0.2650 -0.1216
10707TIP3    H253613   1.718   1.340   3.400  1.7046  0.9206 -1.3538
10708TIP3   OH253614   2.511   1.964   0.637  0.4272 -0.6988  0.5498
10708TIP3    H153615   2.473   1.951   0.550 -1.1461  0.7334  0.9938
10708TIP3    H253616   2.454   1.915   0.696  0.5740 -0.3799  0.9559
10709TIP3   OH253617   4.261   1.611   0.714  0.4375 -0.1110 -0.0218
10709TIP3    H153618   4.218   1.529   0.691  1.2844 -1.7630  3.8567
10709TIP3    H253619   4.354   1.596   0.693  0.7073 -0.4699  1.3449
10710TIP3   OH253620   2.421   5.991   1.750 -0.0639 -0.5267  0.1407
10710TIP3    H153621   2.508   5.981   1.713 -0.6085 -1.4033 -0.9373
10710TIP3    H253622   2.364   6.010   1.675 -0.5529  1.6646  1.0298
10711TIP3   OH253623   6.213   6.823   2.743 -0.1610 -0.9181  0.0443
10711TIP3    H153624   6.222   6.735   2.780  0.5705 -0.8749 -0.0386
10711TIP3    H253625   6.267   6.878   2.799 -0.9261 -0.4535  0.3283
10712TIP3   OH253626   1.875   5.271   1.197  0.0755 -0.0287  0.6577
10712TIP3    H153627   1.873   5.181   1.164  1.9037  0.0722  0.1975
10712TIP3    H253628   1.928   5.265   1.277  0.7039  0.7441  0.3001
10713TIP3   OH253629   4.707   4.427   1.212  0.1717  0.0266  0.1409
10713TIP3    H153630   4.704   4.361   1.143  0.7626  0.6916 -0.5442
10713TIP3    H253631   4.800   4.437   1.231  0.0967  0.7293  0.1622
10714TIP3   OH253632   4.532   0.298   0.955 -0.4012  0.4765 -0.3203
10714TIP3    H153633   4.464   0.231   0.950 -0.8652  1.0165 -1.2878
10714TIP3    H253634   4.614   0.250   0.943 -0.5624 -0.2480  1.3822
10715TIP3   OH253635   1.325   0.107  15.472  0.1274  0.0359  0.1500
10715TIP3    H153636   1.335   0.029  15.418 -0.9922  0.0208 -0.0526
10715TIP3    H253637   1.413   0.145  15.477  0.7526 -1.4376  0.5538
10716TIP3   OH253638   2.415   3.672   2.283 -0.1249 -0.5848 -0.4792
10716TIP3    H153639   2.456   3.747   2.241 -0.9602 -0.1338 -0.4971
10716TIP3    H253640   2.418   3.692   2.376 -3.5120  1.1483 -0.6560
10717TIP3   OH253641   1.378   3.787  14.967  0.0796  0.3957 -0.0970
10717TIP3    H153642   1.362   3.741  14.885  0.1011 -1.0065  0.6765
10717TIP3    H253643   1.470   3.814  14.962  0.8217 -1.8642  0.4946
10718TIP3   OH253644   2.083   5.277  13.770  0.4975  0.0114  0.0761
10718TIP3    H153645   2.155   5.318  13.818  1.9480 -2.0774 -0.2740
10718TIP3    H253646   2.125   5.224  13.703 -1.4297  0.2683 -1.3903
10719TIP3   OH253647   1.112   2.641   3.544 -0.2442 -0.0002  0.8602
10719TIP3    H153648   1.203   2.657   3.520 -0.0947  0.8960  1.9627
10719TIP3    H253649   1.117   2.585   3.622 -0.5959  0.8418  1.5017
10720TIP3   OH253650   4.175   2.613  14.729  0.7639  0.1247  0.6527
10720TIP3    H153651   4.230   2.686  14.700  1.0902  0.2487  1.5691
10720TIP3    H253652   4.235   2.539  14.739  0.5687 -0.0513  0.5310
10721TIP3   OH253653   7.036   0.683   2.655  0.2857  0.3155 -0.0443
10721TIP3    H153654   7.036   0.709   2.747 -1.4740  1.7631 -0.4235
10721TIP3    H253655   7.005   0.592   2.655  3.1428 -0.7060  1.0059
10722TIP3   OH253656   5.152   3.150  15.370 -0.7915 -0.0138 -0.3725
10722TIP3    H153657   5.110   3.185  15.448 -1.6091 -0.3887 -0.6396
10722TIP3    H253658   5.149   3.222  15.306  2.8545  1.4797  0.9633
10723TIP3   OH253659   3.717   3.825  13.273  0.2437 -0.0351 -0.3168
10723TIP3    H153660   3.660   3.867  13.208 -1.2781 -2.9930 -0.9837
10723TIP3    H253661   3.791   3.793  13.222  0.8965  0.9373  0.0214
10724TIP3   OH253662   5.104   0.590   1.148 -0.3009  0.3300 -0.1490
10724TIP3    H153663   5.044   0.663   1.132  0.4490  1.0995  0.4942
10724TIP3    H253664   5.046   0.517   1.170 -1.1191  0.4080 -1.9262
10725TIP3   OH253665   6.246   6.354  15.347 -0.5979 -0.2792 -0.0362
10725TIP3    H153666   6.224   6.428  15.291 -1.2835 -0.1726  0.3718
10725TIP3    H253667   6.162   6.309  15.362 -0.4740 -0.1270  1.1682
10726TIP3   OH253668   4.437   5.979   0.370  0.1043 -0.3123  0.2994
10726TIP3    H153669   4.509   5.932   0.328  0.9187  0.5129  0.7422
10726TIP3    H253670   4.399   6.033   0.300 -0.1916 -0.8591  0.0313
10727TIP3   OH253671   6.051   2.088  14.481  0.1983 -0.3815 -0.0365
10727TIP3    H153672   6.127   2.146  14.490  1.4795 -1.9485 -0.4632
10727TIP3    H253673   6.049   2.065  14.388 -1.2918  0.2672 -0.1825
10728TIP3   OH253674   0.515   5.324   6.200 -0.2599  0.0414 -0.7659
10728TIP3    H153675   0.440   5.384   6.206  0.0986  0.4577 -0.2973
10728TIP3    H253676   0.578   5.359   6.264  0.8831  0.4882 -2.0926
10729TIP3   OH253677   3.690   0.828   1.057  0.4379  1.2211 -0.0615
10729TIP3    H153678   3.689   0.852   0.964  0.2429 -0.0083 -0.3841
10729TIP3    H253679   3.778   0.852   1.087  0.8068  0.7867 -0.7867
10730TIP3   OH253680   4.023   2.232  14.402  0.0578  0.4173 -0.2775
10730TIP3    H153681   4.081   2.162  14.373 -2.1534 -0.6441 -2.2962
10730TIP3    H253682   3.983   2.198  14.483 -0.9225 -0.6398 -1.1898
10731TIP3   OH253683   2.268   5.475   1.515 -0.4435  0.0250  0.3515
10731TIP3    H153684   2.331   5.419   1.470 -2.0062 -0.7664 -0.8917
10731TIP3    H253685   2.253   5.547   1.454 -1.1824 -0.0938  0.3901
10732TIP3   OH253686   5.021   0.334  14.398 -0.6304 -0.0337  0.2567
10732TIP3    H153687   5.017   0.417  14.445 -0.4254  0.8377 -1.2193
10732TIP3    H253688   4.938   0.329  14.351  0.0860  0.1936 -1.0579
10733TIP3   OH253689   3.559   5.874   4.727 -0.0905 -0.5192 -0.4674
10733TIP3    H153690   3.644   5.894   4.767  0.1129 -2.4041  0.0588
10733TIP3    H253691   3.502   5.852   4.801 -1.1132  0.9125 -0.7990
10734TIP3   OH253692   3.959   2.345   3.519  0.3961  0.3568  0.4788
10734TIP3    H153693   3.951   2.305   3.606  1.7644  0.0380  0.4716
10734TIP3    H253694   4.034   2.300   3.479  0.7306  1.5704 -0.2790
10735TIP3   OH253695   5.963   5.273   1.956  0.2745 -0.3026  0.1990
10735TIP3    H153696   6.049   5.270   1.915  1.4804  0.1601  2.5630
10735TIP3    H253697   5.947   5.366   1.971 -1.3341 -0.2699 -1.5643
10736TIP3   OH253698   4.742   5.013   5.258  0.2980  0.3866 -0.3804
10736TIP3    H153699   4.707   4.958   5.328 -0.9381 -0.7471 -1.8696
10736TIP3    H253700   4.684   5.088   5.256  1.6714  1.5420  1.2931
10737TIP3   OH253701   3.369   5.944   2.329  0.2852  0.1716 -1.1383
10737TIP3    H153702   3.435   5.946   2.398 -0.9253 -0.9525  0.0555
10737TIP3    H253703   3.348   6.036   2.314  0.8936  0.4471 -0.3547
10738TIP3   OH253704   5.775   4.092  15.252 -0.2822 -0.2435  1.0276
10738TIP3    H153705   5.846   4.156  15.243  0.1087 -0.6693  1.0434
10738TIP3    H253706   5.771   4.049  15.167  1.0754 -1.8574  1.7568
10739TIP3   OH253707   3.630   2.107  11.748 -0.0004 -0.4806 -0.1880
10739TIP3    H153708   3.586   2.060  11.818  0.8993  0.1132  0.7870
10739TIP3    H253709   3.612   2.199  11.765  1.2759 -0.2492 -0.0009
10740TIP3   OH253710   5.736   0.685   1.598  0.1065  0.4095  0.4014
10740TIP3    H153711   5.722   0.594   1.572 -0.0405  0.2042  1.1702
10740TIP3    H253712   5.651   0.727   1.588  0.2730  0.5675 -0.3614
10741TIP3   OH253713   5.766   3.575   1.949 -0.0363 -0.1798 -0.4490
10741TIP3    H153714   5.702   3.603   1.884 -1.1938  1.1127  1.1920
10741TIP3    H253715   5.846   3.623   1.926 -0.4951  0.4270 -0.7921
10742TIP3   OH253716   3.010   0.237   3.597  0.4267 -0.4239  0.4103
10742TIP3    H153717   3.075   0.168   3.611  0.0883 -0.7626  0.3062
10742TIP3    H253718   3.062   0.316   3.582  0.8519 -1.0484 -1.6014
10743TIP3   OH253719   5.760   7.004   3.653  0.3271 -0.0727  0.0152
10743TIP3    H153720   5.708   7.013   3.734  0.2309 -1.9161  0.1661
10743TIP3    H253721   5.753   7.090   3.612  0.1701  0.8286  1.8440
10744TIP3   OH253722   1.971   5.859   4.148 -0.8376 -0.0581  0.1160
10744TIP3    H153723   1.901   5.806   4.110 -0.5079  0.0188 -0.6124
10744TIP3    H253724   2.025   5.884   4.073 -0.9142  1.1927  0.4712
10745TIP3   OH253725   4.083   6.648   2.467 -0.6454 -0.2886  0.0248
10745TIP3    H153726   4.058   6.564   2.506 -1.5442  0.3409  0.8219
10745TIP3    H253727   4.102   6.627   2.375 -2.2575 -1.1261 -0.1349
10746TIP3   OH253728   5.863   0.995  12.006 -0.1645  0.2500  0.5704
10746TIP3    H153729   5.944   1.028  11.967 -0.6670  0.7349 -0.0752
10746TIP3    H253730   5.794   1.030  11.950 -0.7169 -1.7505 -0.0295
10747TIP3   OH253731   2.710   7.054   2.836  0.0874  0.3754  0.4842
10747TIP3    H153732   2.727   6.979   2.779 -0.4626  1.2703 -0.8495
10747TIP3    H253733   2.649   7.020   2.902  1.1880 -0.8168  0.9166
10748TIP3   OH253734   0.914   4.785   5.535  0.5708  0.8344  0.0690
10748TIP3    H153735   0.999   4.760   5.573  0.1437  0.2831  0.6717
10748TIP3    H253736   0.852   4.721   5.571 -0.8096  3.5939  2.8091
10749TIP3   OH253737   0.028   1.620   1.453 -0.5893  0.0291  0.2272
10749TIP3    H153738   0.008   1.536   1.494 -0.0064  0.1175  0.7149
10749TIP3    H253739   0.098   1.600   1.390 -0.7449  0.0747  0.0404
10750TIP3   OH253740   3.088   5.574   2.594 -0.1133 -0.4110 -0.3925
10750TIP3    H153741   3.115   5.545   2.507 -0.1063  0.0321 -0.5414
10750TIP3    H253742   3.009   5.525   2.613  0.3398 -1.1102 -0.3055
10751TIP3   OH253743   3.198   3.927   3.256  0.0849 -0.3388  0.9487
10751TIP3    H153744   3.178   3.891   3.342 -1.8117  0.0720  0.7070
10751TIP3    H253745   3.214   4.020   3.271  2.1365 -0.7093  1.1732
10752TIP3   OH253746   0.118   1.706   4.843 -0.2486 -0.3578 -0.0685
10752TIP3    H153747   0.189   1.644   4.824 -0.1514 -0.0301 -0.7987
10752TIP3    H253748   0.146   1.788   4.802 -0.5558  0.0735  0.5584
10753TIP3   OH253749   3.854   2.040  14.868  0.0764 -0.3456 -0.2379
10753TIP3    H153750   3.908   2.007  14.940  0.6621  2.4901  0.6527
10753TIP3    H253751   3.792   2.100  14.910 -2.0689 -1.5274 -1.6096
10754TIP3   OH253752   0.981   1.361   3.036  0.2145 -0.2829 -0.1080
10754TIP3    H153753   0.899   1.410   3.030  0.4666 -0.1313 -3.8543
10754TIP3    H253754   0.958   1.272   3.009  0.8963 -0.7289  0.7737
10755TIP3   OH253755   7.185   2.407   3.297 -0.1087 -0.3267 -0.3115
10755TIP3    H153756   7.230   2.371   3.373 -0.1437 -0.7073 -0.4718
10755TIP3    H253757   7.131   2.478   3.333  0.2259 -0.2065 -0.0486
10756TIP3   OH253758   2.095   3.113   1.600  0.0593  0.4628  0.3176
10756TIP3    H153759   2.114   3.206   1.583 -1.5709  0.2902 -2.7196
10756TIP3    H253760   2.012   3.114   1.648 -0.6690  0.5412 -0.9259
10757TIP3   OH253761   1.474   1.041   0.260 -0.1014  0.0707  0.6676
10757TIP3    H153762   1.422   1.118   0.281 -0.6050 -0.2962  0.7949
10757TIP3    H253763   1.538   1.071   0.196  1.2594  1.1343  2.4998
10758TIP3   OH253764   5.797   6.646  14.769 -0.3012  0.4034 -0.3668
10758TIP3    H153765   5.803   6.572  14.708  1.2766  0.1269  0.1011
10758TIP3    H253766   5.886   6.680  14.774  0.1701 -1.1198  3.6741
10759TIP3   OH253767   2.259   0.403  15.239 -0.1068 -0.1822 -0.1792
10759TIP3    H153768   2.319   0.332  15.261 -0.1425  0.9262  3.7930
10759TIP3    H253769   2.290   0.435  15.155  0.9543 -3.7245 -1.2392
10760TIP3   OH253770   3.946   2.584   0.805 -0.2072 -0.1733 -0.1864
10760TIP3    H153771   3.939   2.544   0.891  0.1014  0.4573  0.1317
10760TIP3    H253772   3.890   2.661   0.810  2.2747  1.6265  0.4759
10761TIP3   OH253773   2.942   1.459   3.413 -0.1020 -0.5718  0.2778
10761TIP3    H153774   2.993   1.471   3.493  1.1552 -1.7010 -0.3330
10761TIP3    H253775   2.923   1.365   3.412  0.2122 -0.6264 -0.9295
10762TIP3   OH253776   6.942   6.640  13.804  0.5924 -0.2604  0.3885
10762TIP3    H153777   6.949   6.605  13.893  1.6174  0.5047  0.6165
10762TIP3    H253778   7.022   6.609  13.760 -0.2126 -1.1626 -0.4562
10763TIP3   OH253779   7.107   1.801   2.266 -0.1118 -0.3153 -0.3641
10763TIP3    H153780   7.078   1.729   2.323 -0.5346  1.1159  1.2477
10763TIP3    H253781   7.124   1.758   2.182  0.2737 -2.4290  0.7351
10764TIP3   OH253782   4.443   5.340   0.250 -0.0333  0.0555 -0.0681
10764TIP3    H153783   4.425   5.413   0.190 -1.1365  1.1643  1.5739
10764TIP3    H253784   4.511   5.372   0.308  2.0144 -1.5138 -1.5595
10765TIP3   OH253785   1.823   0.251  13.770 -0.0055 -0.3132 -0.6593
10765TIP3    H153786   1.748   0.217  13.819 -0.2755 -0.5858 -1.2601
10765TIP3    H253787   1.815   0.346  13.778  0.3717 -0.3708  0.4498
10766TIP3   OH253788   0.366   0.114  14.909  0.0071 -0.0138 -0.1442
10766TIP3    H153789   0.428   0.139  14.841 -1.0374 -1.7429 -1.8042
10766TIP3    H253790   0.356   0.192  14.964  1.2380  1.2454 -1.6870
10767TIP3   OH253791   4.688   1.367   0.707  0.0334 -0.2048 -0.5073
10767TIP3    H153792   4.651   1.322   0.630  0.7576 -1.0910 -0.3531
10767TIP3    H253793   4.614   1.375   0.767 -0.6686  0.9929 -1.5136
10768TIP3   OH253794   6.410   1.276   0.439 -0.4344  0.7783  0.0445
10768TIP3    H153795   6.363   1.195   0.422 -1.8993  1.1590  2.0820
10768TIP3    H253796   6.468   1.287   0.364 -1.2341 -1.4134 -0.9181
10769TIP3   OH253797   0.466   1.180   3.918  0.1682  0.5093 -0.1215
10769TIP3    H153798   0.411   1.178   3.996  0.6698  0.3688  0.2258
10769TIP3    H253799   0.445   1.265   3.877  2.3628  2.1071  1.9527
10770TIP3   OH253800   4.076   4.455   1.971  0.2424 -0.2754  0.5808
10770TIP3    H153801   4.025   4.460   2.052 -0.9079 -1.2847 -0.0496
10770TIP3    H253802   4.010   4.466   1.902  1.0472 -0.4874 -0.2256
10771TIP3   OH253803   1.348   3.754   0.902  0.0454 -0.1307 -0.6638
10771TIP3    H153804   1.348   3.714   0.989  0.4479  1.0030 -0.1306
10771TIP3    H253805   1.437   3.740   0.868  0.1907  0.2959 -0.4713
10772TIP3   OH253806   0.165   1.775  14.684 -0.3282  0.4689  0.1063
10772TIP3    H153807   0.217   1.815  14.753  2.0940 -2.6561  0.2447
10772TIP3    H253808   0.077   1.767  14.720  0.3314  1.1140  1.8939
10773TIP3   OH253809   4.700   1.191   2.800 -0.1829 -0.6676  0.2242
10773TIP3    H153810   4.690   1.269   2.746  1.6641 -0.0118  0.7835
10773TIP3    H253811   4.774   1.144   2.761 -0.5015 -1.5165  0.6171
10774TIP3   OH253812   0.383   2.197   1.619  0.8150 -0.2039  0.4531
10774TIP3    H153813   0.401   2.114   1.664 -1.9992 -0.7428  0.6687
10774TIP3    H253814   0.469   2.230   1.596  2.1932 -1.4703  3.4657
10775TIP3   OH253815   4.276   6.696   0.486  0.0184 -0.0497 -0.5529
10775TIP3    H153816   4.262   6.758   0.557 -0.3883  0.4844 -1.0932
10775TIP3    H253817   4.194   6.697   0.436 -0.1496 -1.3424 -0.3170
10776TIP3   OH253818   4.386   1.938  12.559  0.2794 -0.4669  0.0878
10776TIP3    H153819   4.301   1.981  12.565  0.1929 -0.8248  1.6466
10776TIP3    H253820   4.442   1.987  12.619  0.8579 -0.9548 -0.0475
10777TIP3   OH253821   5.497   0.824   1.594  0.5984  0.0033 -0.1706
10777TIP3    H153822   5.507   0.914   1.624 -1.9075  0.7031 -1.3405
10777TIP3    H253823   5.491   0.830   1.499 -1.1171 -1.2325 -0.1690
10778TIP3   OH253824   2.271   6.392  10.151  0.7293 -0.3991 -0.1935
10778TIP3    H153825   2.292   6.459  10.086  0.3858  0.5435  0.6650
10778TIP3    H253826   2.197   6.427  10.200  0.3075 -1.5687  0.0209
10779TIP3   OH253827   0.276   6.224   1.557 -0.1201  0.1907  0.0876
10779TIP3    H153828   0.211   6.180   1.502 -0.1676 -1.1695  1.2132
10779TIP3    H253829   0.358   6.214   1.508 -0.6533  1.5498 -1.1357
10780TIP3   OH253830   2.548   1.048   0.893  0.2612 -0.0357  0.8789
10780TIP3    H153831   2.619   1.078   0.837 -2.0016  1.0627 -1.5042
10780TIP3    H253832   2.472   1.098   0.864 -1.9185 -2.5270  2.0843
10781TIP3   OH253833   4.661   4.087   1.484  0.1163 -0.5529 -0.0022
10781TIP3    H153834   4.655   4.050   1.396  0.3045 -0.8706  0.1183
10781TIP3    H253835   4.652   4.012   1.542 -1.4463 -0.1619  0.2827
10782TIP3   OH253836   5.450   6.245   0.458  1.1475 -0.3017  0.9040
10782TIP3    H153837   5.489   6.161   0.481  1.4875 -0.6820 -1.0297
10782TIP3    H253838   5.521   6.294   0.417 -0.1363 -0.7087 -1.9230
10783TIP3   OH253839   6.062   4.737  14.199  0.9294  0.6056 -0.5751
10783TIP3    H153840   6.012   4.752  14.279 -0.0163  0.9447 -1.2135
10783TIP3    H253841   6.038   4.811  14.142  1.5615  0.3501 -1.1799
10784TIP3   OH253842   4.937   2.592   2.007 -0.1559 -0.6472 -0.5441
10784TIP3    H153843   4.947   2.661   1.941 -1.6510  0.2728  0.1806
10784TIP3    H253844   4.843   2.587   2.023  0.0896 -1.6831  0.6495
10785TIP3   OH253845   4.437   0.275   2.498  0.0277  0.6340  0.1770
10785TIP3    H153846   4.465   0.366   2.502  0.2428  0.5512  0.5992
10785TIP3    H253847   4.358   0.272   2.552 -0.4848  0.7530 -0.5616
10786TIP3   OH253848   2.621   6.822   2.955  0.0106 -0.4138 -0.7383
10786TIP3    H153849   2.689   6.814   2.888  0.1085  2.1801 -0.9692
10786TIP3    H253850   2.664   6.790   3.035  0.8363 -0.7281 -1.2948
10787TIP3   OH253851   6.626   5.902  14.039 -0.8790 -0.2113 -0.0903
10787TIP3    H153852   6.552   5.842  14.025 -2.4800  1.7936 -0.6216
10787TIP3    H253853   6.616   5.931  14.130 -0.1448 -0.7151  0.1497
10788TIP3   OH253854   3.603   3.225  14.118  0.2182 -0.4220  0.3120
10788TIP3    H153855   3.659   3.181  14.054  0.7282  1.9139 -0.9405
10788TIP3    H253856   3.527   3.168  14.127  0.9268 -1.6325 -1.1180
10789TIP3   OH253857   1.806   2.698   1.462 -0.1890  0.3061  0.2167
10789TIP3    H153858   1.852   2.636   1.518  0.1666  0.8933  0.5863
10789TIP3    H253859   1.714   2.691   1.489  0.0842  1.1124  1.4003
10790TIP3   OH253860   1.877   3.320   2.010 -0.2312  0.1684  0.0425
10790TIP3    H153861   1.819   3.396   2.016 -0.3767 -0.0059  0.9000
10790TIP3    H253862   1.822   3.251   1.973 -0.3384  0.2451  0.0600
10791TIP3   OH253863   2.041   2.776   1.854 -0.1192 -0.0317 -0.2768
10791TIP3    H153864   2.040   2.823   1.938  0.0295 -1.9476  0.8275
10791TIP3    H253865   1.949   2.758   1.835  0.0843 -4.0738  2.1032
10792TIP3   OH253866   5.144   6.781   1.368  0.0501 -0.3949 -0.5805
10792TIP3    H153867   5.235   6.752   1.359  0.0074  0.0193 -2.5484
10792TIP3    H253868   5.136   6.853   1.305 -1.2626  0.4924  0.5844
10793TIP3   OH253869   2.841   0.456  15.446  0.9323 -0.0671  0.0614
10793TIP3    H153870   2.776   0.492  15.506 -0.3211 -0.9641 -0.7181
10793TIP3    H253871   2.840   0.516  15.371 -1.2137 -1.6647 -1.2718
10794TIP3   OH253872   5.745   0.632   2.196  0.3439 -0.0260  0.6219
10794TIP3    H153873   5.684   0.672   2.258  0.0390  0.6971 -0.1345
10794TIP3    H253874   5.697   0.632   2.112  0.8699 -0.6922  0.3218
10795TIP3   OH253875   1.640   0.584   4.786  0.1592  0.3698  0.3768
10795TIP3    H153876   1.617   0.511   4.844 -0.0633  0.1039 -0.0392
10795TIP3    H253877   1.708   0.631   4.833  1.2384 -0.8586  0.0868
10796TIP3   OH253878   1.651   1.896  14.953  0.7044  0.0203  0.3729
10796TIP3    H153879   1.659   1.884  14.858  0.1955  0.3130  0.2904
10796TIP3    H253880   1.591   1.827  14.981  0.1413  0.4884  0.3433
10797TIP3   OH253881   2.995   2.525   0.763  0.1945 -0.1488 -0.0243
10797TIP3    H153882   3.024   2.578   0.688  0.5059  0.5857  0.6138
10797TIP3    H253883   3.069   2.525   0.823 -0.1888 -0.4326  0.4554
10798TIP3   OH253884   0.344   5.632  14.546 -0.1135 -0.0790 -0.0117
10798TIP3    H153885   0.258   5.598  14.571  0.1288  0.0206  0.9635
10798TIP3    H253886   0.396   5.553  14.527  0.3209 -0.2408  1.8298
10799TIP3   OH253887   4.959   4.347   1.186  0.5017  0.3654 -0.1801
10799TIP3    H153888   5.018   4.350   1.111  1.4504 -2.2306  0.4419
10799TIP3    H253889   4.897   4.277   1.166 -0.5464  1.0639  0.5287
10800TIP3   OH253890   2.310   2.263   0.802 -0.1913 -0.0971 -0.6168
10800TIP3    H153891   2.346   2.265   0.891  1.3137 -0.8237 -1.1777
10800TIP3    H253892   2.377   2.306   0.749 -0.7131 -0.3941 -1.5138
10801TIP3   OH253893   6.171   5.849   0.496 -0.6406 -0.0267 -0.1045
10801TIP3    H153894   6.186   5.869   0.403  0.6678  1.3535  0.3822
10801TIP3    H253895   6.147   5.933   0.535  3.8256  0.5209  1.7744
10802TIP3   OH253896   0.299   4.631   3.149 -0.3747 -0.6648 -0.0544
10802TIP3    H153897   0.258   4.607   3.232  0.3351 -1.4356  0.0758
10802TIP3    H253898   0.227   4.632   3.086 -1.0191  0.4862  0.6715
10803TIP3   OH253899   4.729   1.032  13.764 -0.2064  0.6875  0.2921
10803TIP3    H153900   4.640   1.068  13.764 -1.0251 -1.2450 -1.6722
10803TIP3    H253901   4.764   1.055  13.678  0.7543  0.3255  0.5812
10804TIP3   OH253902   3.982   4.157  12.262  0.5522 -0.4365 -0.1805
10804TIP3    H153903   3.970   4.131  12.170 -0.5955 -0.7103  0.0390
10804TIP3    H253904   3.899   4.198  12.286  0.4376 -1.4072  1.0980
10805TIP3   OH253905   3.952   2.986   2.559 -0.3517  0.4281 -0.3458
10805TIP3    H153906   3.911   3.010   2.642  2.0650  0.6505  0.8349
10805TIP3    H253907   3.892   3.019   2.492 -2.7294 -0.4327  1.2889
10806TIP3   OH253908   6.791   5.315   3.066 -0.2537 -0.3658 -0.1968
10806TIP3    H153909   6.802   5.376   2.993 -1.0796 -2.2861 -1.9646
10806TIP3    H253910   6.705   5.337   3.102  0.0246  0.3923  0.0132
10807TIP3   OH253911   2.196   1.729   0.739 -0.2701  0.3947  0.2149
10807TIP3    H153912   2.269   1.779   0.776 -0.5058 -1.8825  4.0137
10807TIP3    H253913   2.122   1.749   0.796 -1.7612 -0.0803 -1.4999
10808TIP3   OH253914   2.234   1.208  15.418 -0.2146  0.0801 -0.1542
10808TIP3    H153915   2.318   1.202  15.375 -0.8520 -0.3366 -1.3511
10808TIP3    H253916   2.187   1.277  15.371 -0.4074  0.5836  0.7467
10809TIP3   OH253917   4.906   2.701   3.860 -0.3535  0.2143 -0.4491
10809TIP3    H153918   4.862   2.768   3.807 -0.7274  0.1777 -0.1812
10809TIP3    H253919   4.995   2.698   3.824 -0.1562  1.2804 -0.0618
10810TIP3   OH253920   2.511   7.047   4.449 -0.3838 -0.7732 -0.4428
10810TIP3    H153921   2.512   7.121   4.511 -0.1568 -0.7121 -0.5174
10810TIP3    H253922   2.435   7.064   4.393  0.7973  0.4660 -1.7294
10811TIP3   OH253923   3.738   6.838  15.349 -0.2566 -0.3647  0.2593
10811TIP3    H153924   3.833   6.826  15.351  0.0689  1.7383 -1.6951
10811TIP3    H253925   3.704   6.750  15.336  1.4345 -1.0537  0.3091
10812TIP3   OH253926   5.213   7.113   0.663 -0.4063 -0.1021 -0.2764
10812TIP3    H153927   5.291   7.136   0.714 -0.2460 -0.4996 -0.3388
10812TIP3    H253928   5.150   7.082   0.729 -0.5036  0.2053 -0.2275
10813TIP3   OH253929   4.478   2.108  15.015  0.3106 -0.1069 -0.2026
10813TIP3    H153930   4.385   2.111  15.040  1.0877  0.2628  2.9164
10813TIP3    H253931   4.516   2.043  15.073  2.7882  2.7883  1.5462
10814TIP3   OH253932   5.759   5.287   0.253  0.0085 -0.2637  0.0291
10814TIP3    H153933   5.696   5.224   0.287 -1.3837  0.9648 -0.1832
10814TIP3    H253934   5.718   5.321   0.173  0.9556  0.5361 -0.1331
10815TIP3   OH253935   4.211   1.628   0.325  0.4328 -0.1124  0.2871
10815TIP3    H153936   4.246   1.551   0.370 -0.2549 -0.4992  0.1784
10815TIP3    H253937   4.278   1.695   0.335  0.8875 -0.6230  0.6850
10816TIP3   OH253938   3.857   2.981   2.908 -0.0945 -0.4825  1.2741
10816TIP3    H153939   3.949   3.007   2.904 -0.8623  2.0830 -0.4090
10816TIP3    H253940   3.850   2.933   2.991  2.8110 -1.0254  1.2663
10817TIP3   OH253941   2.586   4.676  13.659  0.5768  0.2554 -0.3303
10817TIP3    H153942   2.568   4.701  13.749  0.5970  1.2023 -0.5858
10817TIP3    H253943   2.543   4.743  13.606  2.3334  0.8864 -0.9893
10818TIP3   OH253944   4.047   2.443   5.404 -0.0922 -1.0699 -0.3232
10818TIP3    H153945   4.077   2.378   5.340  2.1839  1.0336 -1.5050
10818TIP3    H253946   4.023   2.519   5.351  0.6786  0.2972  1.2356
10819TIP3   OH253947   5.648   5.996   3.017 -0.5404 -0.5269  0.2144
10819TIP3    H153948   5.677   6.070   3.069 -0.5454 -0.3991  0.0339
10819TIP3    H253949   5.725   5.970   2.967 -0.5393 -0.6415  0.2744
10820TIP3   OH253950   5.259   1.059   1.932 -0.0091 -0.1352  0.1359
10820TIP3    H153951   5.289   0.968   1.925 -0.7407 -0.2092 -2.8598
10820TIP3    H253952   5.337   1.111   1.911  0.0563 -0.1137  0.4352
10821TIP3   OH253953   3.171   3.887   1.569  0.6268 -0.2857 -0.0940
10821TIP3    H153954   3.260   3.889   1.534  0.8308 -2.5157  0.2551
10821TIP3    H253955   3.170   3.812   1.628 -0.8885  0.9793  1.5433
10822TIP3   OH253956   2.826   2.215   0.536  0.4987  0.2491 -0.3114
10822TIP3    H153957   2.839   2.122   0.518  0.5143  0.5233 -1.8029
10822TIP3    H253958   2.744   2.236   0.491  1.1911  1.2504 -1.1410
10823TIP3   OH253959   1.134   6.638  14.385  0.0375 -0.6418 -0.3894
10823TIP3    H153960   1.166   6.718  14.343 -0.4390 -0.3158 -0.1277
10823TIP3    H253961   1.170   6.567  14.331 -1.0541 -0.2229 -1.6954
10824TIP3   OH253962   0.933   5.433  15.011  0.3611  0.0927  0.0105
10824TIP3    H153963   0.870   5.497  14.979 -0.0576 -0.5286 -0.4206
10824TIP3    H253964   1.006   5.439  14.949 -0.2590 -0.7935 -0.8250
10825TIP3   OH253965   2.265   4.364   0.371 -0.7668  0.0442 -0.1592
10825TIP3    H153966   2.186   4.364   0.318 -0.1093  1.3220 -1.1652
10825TIP3    H253967   2.303   4.277   0.359  0.4730  0.9840 -3.4811
10826TIP3   OH253968   0.960   6.828  12.489  0.1892  0.0522  0.1535
10826TIP3    H153969   1.000   6.901  12.443 -0.6907  1.1380  1.0781
10826TIP3    H253970   1.023   6.805  12.558  0.9631 -0.7906 -0.8258
10827TIP3   OH253971   0.337   0.545   5.306  0.0896 -0.3869 -0.2341
10827TIP3    H153972   0.364   0.524   5.396 -1.3358 -0.4140  0.2109
10827TIP3    H253973   0.364   0.635   5.294 -1.6638  0.3659  1.0563
10828TIP3   OH253974   5.464   1.367  13.469 -0.4100  0.4755 -0.1512
10828TIP3    H153975   5.546   1.396  13.510  0.4497  0.4680 -1.8086
10828TIP3    H253976   5.473   1.273  13.460  0.0605  0.6567 -1.7110
10829TIP3   OH253977   4.449   6.189   1.035  0.1894 -0.2187  0.3134
10829TIP3    H153978   4.481   6.205   0.947 -0.2419  2.2738  0.5913
10829TIP3    H253979   4.354   6.192   1.027  0.1645  0.9734  1.0388
10830TIP3   OH253980   0.255   3.912   4.113  0.4801 -0.3946  0.5455
10830TIP3    H153981   0.192   3.854   4.072  0.4402  0.0986 -0.0916
10830TIP3    H253982   0.206   3.957   4.181  0.7711 -1.9046  1.7929
10831TIP3   OH253983   3.688   3.666   1.721 -0.1698 -0.4536  0.3570
10831TIP3    H153984   3.665   3.573   1.721 -0.6474 -0.3577 -1.1396
10831TIP3    H253985   3.766   3.672   1.777 -0.0815 -1.7703  0.3851
10832TIP3   OH253986   6.639   1.311   1.594  0.6208 -0.0240  0.9400
10832TIP3    H153987   6.603   1.249   1.531 -0.1339 -0.7717  2.0895
10832TIP3    H253988   6.696   1.258   1.650  3.1150  1.0389 -0.4972
10833TIP3   OH253989   5.521   2.472  13.529 -0.3076 -0.4770 -0.0230
10833TIP3    H153990   5.508   2.464  13.623  0.7813  0.3370  0.2049
10833TIP3    H253991   5.500   2.385  13.495 -1.4603 -0.5594  0.8735
10834TIP3   OH253992   5.797   6.676  15.338 -0.1330 -0.3362 -0.2421
10834TIP3    H153993   5.740   6.605  15.368 -0.0671  0.0850  0.8647
10834TIP3    H253994   5.744   6.722  15.272 -0.9154 -0.2064  0.4725
10835TIP3   OH253995   0.519   4.651   2.956 -0.5625  0.7621 -0.1367
10835TIP3    H153996   0.502   4.612   3.041  0.5546  0.4992 -0.0146
10835TIP3    H253997   0.583   4.720   2.973 -0.9586  1.2605 -0.6441
10836TIP3   OH253998   4.619   6.158   2.461 -0.2885 -0.5841  0.3349
10836TIP3    H153999   4.671   6.118   2.530 -0.1109  0.4705  0.8201
10836TIP3    H254000   4.634   6.252   2.471  0.0918 -0.4406 -1.4170
10837TIP3   OH254001   1.613   0.976  14.507 -0.0376 -0.5631 -0.1148
10837TIP3    H154002   1.672   0.936  14.571  1.9460 -1.0308 -2.1926
10837TIP3    H254003   1.635   0.935  14.424 -3.4415 -0.8740 -0.9455
10838TIP3   OH254004   4.374   1.449   0.052 -0.3225  0.0604  0.6254
10838TIP3    H154005   4.399   1.454  -0.041 -0.6478 -2.0295  0.3995
10838TIP3    H254006   4.418   1.524   0.092  2.7096 -0.9798 -0.5917
10839TIP3   OH254007   3.543   3.893   1.163  0.0370  0.2675  0.1063
10839TIP3    H154008   3.531   3.800   1.144  0.0220  0.3383 -0.2225
10839TIP3    H254009   3.518   3.938   1.082  0.0139  0.5600  0.2747
10840TIP3   OH254010   4.427   6.312   2.113 -0.4707 -0.0492  0.0763
10840TIP3    H154011   4.379   6.376   2.060 -1.6699 -1.8103 -1.0149
10840TIP3    H254012   4.418   6.344   2.203  0.8148  2.4794 -0.6354
10841TIP3   OH254013   4.945   2.366  15.053 -0.9192 -0.3013 -0.3648
10841TIP3    H154014   4.920   2.279  15.085 -2.6341  0.2257 -0.2073
10841TIP3    H254015   4.862   2.406  15.027  0.0713  0.5309 -2.3594
10842TIP3   OH254016   4.010   4.867   3.143  0.4191  0.1403  0.9160
10842TIP3    H154017   4.101   4.840   3.153 -0.0098 -2.1764 -1.0227
10842TIP3    H254018   3.960   4.786   3.155 -1.1192  0.6000 -2.0450
10843TIP3   OH254019   3.862   4.631   2.598  0.4885 -0.3667  0.0609
10843TIP3    H154020   3.796   4.701   2.595 -0.9615 -1.6745  0.9288
10843TIP3    H254021   3.943   4.673   2.569 -0.7456  1.2430 -1.0990
10844TIP3   OH254022   5.674   3.008   2.561  0.0443 -0.2067  0.5274
10844TIP3    H154023   5.686   3.097   2.527  2.7757 -1.1528 -1.1237
10844TIP3    H254024   5.613   2.967   2.500 -0.6117  0.2976  0.8432
10845TIP3   OH254025   2.559   6.495   0.546 -0.0488  0.1996 -0.1102
10845TIP3    H154026   2.555   6.563   0.478  2.0299 -0.3571 -0.8386
10845TIP3    H254027   2.638   6.445   0.524  0.3037 -0.3739  2.3672
10846TIP3   OH254028   5.958   5.455   1.505 -0.2366 -0.4065  0.0911
10846TIP3    H154029   5.947   5.454   1.600  1.2154  2.2719  0.3110
10846TIP3    H254030   5.925   5.369   1.477  1.6714 -2.2868  3.2589
10847TIP3   OH254031   2.871   6.191   3.515  0.3905  0.2607 -0.3495
10847TIP3    H154032   2.958   6.150   3.523  0.5081  0.6157  0.2056
10847TIP3    H254033   2.824   6.162   3.593 -0.2684 -0.5932 -1.0647
10848TIP3   OH254034   5.432   4.293  12.555  0.1036 -0.6970 -0.0599
10848TIP3    H154035   5.445   4.345  12.634  1.4512 -1.6214  0.3507
10848TIP3    H254036   5.520   4.277  12.522 -0.4618 -0.0486 -1.9398
10849TIP3   OH254037   3.628   0.240   2.940  0.2867  0.0668  0.4778
10849TIP3    H154038   3.541   0.208   2.965  1.0030 -1.0018  1.6285
10849TIP3    H254039   3.618   0.335   2.938 -1.7669 -0.0993 -2.6080
10850TIP3   OH254040   7.003   4.889  15.427 -0.0523  0.0651  0.0811
10850TIP3    H154041   6.984   4.952  15.358  1.7512  0.9965  0.4222
10850TIP3    H254042   7.097   4.896  15.442 -0.3707 -0.3033  2.4767
10851TIP3   OH254043   3.975   5.149   2.494  0.0552  0.2659  0.6559
10851TIP3    H154044   4.033   5.222   2.516 -1.6789  2.5027 -1.7198
10851TIP3    H254045   4.018   5.107   2.419 -0.0067  0.2110  0.6514
10852TIP3   OH254046   5.886   0.910  12.607 -0.3649  0.2020  0.1041
10852TIP3    H154047   5.857   0.846  12.543 -0.0761 -0.5205  0.6870
10852TIP3    H254048   5.972   0.879  12.635 -1.0866 -0.2770  1.8742
10853TIP3   OH254049   0.232   4.784  13.159  0.6730 -0.2113 -0.3681
10853TIP3    H154050   0.146   4.783  13.201  0.4512  3.8029 -0.5159
10853TIP3    H254051   0.216   4.824  13.074  2.6182  0.1006 -0.6034
10854TIP3   OH254052   2.378   6.846   2.783 -0.0766 -0.3485  0.4507
10854TIP3    H154053   2.466   6.839   2.821  0.3677  1.8408 -0.1294
10854TIP3    H254054   2.384   6.796   2.701  0.4987 -0.6129  0.6507
10855TIP3   OH254055   2.504   6.934   1.878 -0.7038 -0.1416 -0.1147
10855TIP3    H154056   2.597   6.910   1.884 -0.7715 -1.0038 -1.9069
10855TIP3    H254057   2.482   6.968   1.964  1.5709  1.1228  0.0079
10856TIP3   OH254058   5.675   1.414  13.647 -0.2539  0.3784 -0.3557
10856TIP3    H154059   5.637   1.461  13.722  2.0110  1.3722  0.2232
10856TIP3    H254060   5.687   1.324  13.678  3.7015  1.4935  1.7167
10857TIP3   OH254061   6.729   0.381   3.167 -0.0998 -0.2807  0.3599
10857TIP3    H154062   6.741   0.310   3.230  2.6653 -0.7971 -0.6803
10857TIP3    H254063   6.790   0.449   3.196 -0.3083  0.3121 -0.5796
10858TIP3   OH254064   2.904   5.550   3.635 -0.5718  0.1622  0.2214
10858TIP3    H154065   2.811   5.572   3.642 -0.4269  0.8356  0.0236
10858TIP3    H254066   2.911   5.507   3.550 -0.5672  0.7951 -0.1005
10859TIP3   OH254067   4.638   3.861   1.646  0.2410 -0.5285 -0.0852
10859TIP3    H154068   4.674   3.810   1.718  0.7074  0.2494  0.2383
10859TIP3    H254069   4.657   3.808   1.568  0.1485 -1.1456  0.3014
10860TIP3   OH254070   0.795   2.106   3.668  0.0034 -0.3536  0.3967
10860TIP3    H154071   0.720   2.065   3.624  0.7928 -0.4061 -0.9373
10860TIP3    H254072   0.828   2.169   3.605  3.0534 -2.5959 -0.3773
10861TIP3   OH254073   7.067   2.307  14.618 -0.3127  0.7197 -0.3513
10861TIP3    H154074   7.003   2.241  14.645 -1.7670  3.1487  2.4208
10861TIP3    H254075   7.021   2.360  14.553  0.8609 -0.9329 -2.5916
10862TIP3   OH254076   3.147   3.090  14.027 -0.5717 -0.2733  0.2751
10862TIP3    H154077   3.078   3.074  14.092 -0.6002 -0.5309  0.1819
10862TIP3    H254078   3.101   3.133  13.954 -0.4478  0.4782  0.6309
10863TIP3   OH254079   5.104   1.405   0.311  0.0717 -0.0024  0.6684
10863TIP3    H154080   5.112   1.316   0.277  0.8215  0.9482 -1.7788
10863TIP3    H254081   5.015   1.409   0.347 -0.4927 -1.2941 -0.5390
10864TIP3   OH254082   1.159   6.299   0.573 -0.7650 -0.2893 -0.6703
10864TIP3    H154083   1.209   6.225   0.608 -1.5431 -0.5166 -0.0239
10864TIP3    H254084   1.138   6.273   0.483 -2.8407 -1.7953  0.2083
10865TIP3   OH254085   6.046   1.393   1.186 -0.2079 -0.4082 -0.1148
10865TIP3    H154086   6.079   1.450   1.118 -1.8724  0.7160 -0.0129
10865TIP3    H254087   6.107   1.319   1.188  1.2782  0.7774 -1.0567
10866TIP3   OH254088   1.684   1.038  15.497  0.1343  0.2363  0.6471
10866TIP3    H154089   1.677   1.104  15.429  0.5333  2.4100  2.6626
10866TIP3    H254090   1.777   1.036  15.519  0.2888 -1.7293 -0.0623
10867TIP3   OH254091   5.224   7.103  14.105 -0.5662  0.3354  0.0299
10867TIP3    H154092   5.174   7.179  14.132 -2.5218 -0.9149  0.0355
10867TIP3    H254093   5.165   7.054  14.048  0.2606 -1.6828  0.8351
10868TIP3   OH254094   6.036   1.858   1.159  0.1332  0.3273 -1.0052
10868TIP3    H154095   6.005   1.804   1.231  0.9585 -0.1099 -0.9791
10868TIP3    H254096   5.991   1.942   1.172 -0.6348 -0.1310 -0.6698
10869TIP3   OH254097   4.312   0.459  13.850 -0.1870 -0.1584  0.1179
10869TIP3    H154098   4.405   0.476  13.834  0.3098 -1.1901  1.8793
10869TIP3    H254099   4.267   0.516  13.786  1.5793  2.2616  0.9334
10870TIP3   OH254100   6.754   3.489  14.314  0.1651 -0.1170  0.4405
10870TIP3    H154101   6.847   3.479  14.290 -0.1307 -1.4561 -0.1957
10870TIP3    H254102   6.722   3.556  14.255  0.3500 -0.7833 -0.4275
10871TIP3   OH254103   6.718   3.521   0.144  0.0647 -0.7185  0.6017
10871TIP3    H154104   6.804   3.547   0.177 -1.1314  3.0568  0.9686
10871TIP3    H254105   6.664   3.513   0.222 -0.4482 -1.0333  0.2202
10872TIP3   OH254106   4.270   6.146   3.253 -0.2966  0.0306  0.2787
10872TIP3    H154107   4.321   6.114   3.179 -1.9998 -1.0987 -0.4147
10872TIP3    H254108   4.241   6.233   3.226  1.9285  1.0495  1.0219
10873TIP3   OH254109   2.018   1.900  14.965 -0.1595  0.0911  0.4331
10873TIP3    H154110   1.956   1.972  14.974  0.0103  0.5543 -1.8534
10873TIP3    H254111   2.032   1.892  14.871  1.4258 -1.5772  0.7857
10874TIP3   OH254112   4.523   6.642   3.470 -0.0850  0.0209 -0.1457
10874TIP3    H154113   4.508   6.661   3.378 -0.8123  0.0624 -0.0228
10874TIP3    H254114   4.578   6.714   3.501 -2.6316  1.8857  0.2598
10875TIP3   OH254115   4.396   2.696  14.952 -0.5146 -0.0432 -0.3904
10875TIP3    H154116   4.324   2.746  14.915 -0.5850 -1.2286 -1.8833
10875TIP3    H254117   4.399   2.723  15.044 -0.4527  2.7935 -1.1828
10876TIP3   OH254118   2.058   2.225  13.147 -0.0161  0.2894 -0.0665
10876TIP3    H154119   2.101   2.144  13.173  1.4473  1.1801  0.3380
10876TIP3    H254120   2.039   2.212  13.054  1.4781  0.0197 -0.3538
10877TIP3   OH254121   3.911   5.272  14.458 -0.0449  0.1500  0.2945
10877TIP3    H154122   3.887   5.252  14.368  0.5315  0.1847  0.1337
10877TIP3    H254123   3.926   5.187  14.499  0.0196  0.1475  0.2661
10878TIP3   OH254124   3.198   5.422   0.272 -0.4421  0.2289 -0.3068
10878TIP3    H154125   3.210   5.500   0.219  0.0660  0.2175 -0.2072
10878TIP3    H254126   3.108   5.429   0.305  0.0095  1.3792  0.7082
10879TIP3   OH254127   5.165   6.957   0.207 -0.1409  0.2088 -0.2836
10879TIP3    H154128   5.214   6.921   0.133 -1.0355 -2.6371  0.4513
10879TIP3    H254129   5.219   6.939   0.284  0.2527  2.1376 -0.0841
10880TIP3   OH254130   2.963   2.220  15.269 -0.0469 -0.0809 -0.3622
10880TIP3    H154131   2.924   2.142  15.310 -0.4770  0.2897 -0.0484
10880TIP3    H254132   2.891   2.283  15.266  0.4222  0.4701 -0.1695
10881TIP3   OH254133   3.401   1.326   2.988 -0.0628  0.4899  0.3816
10881TIP3    H154134   3.313   1.290   2.978  0.2626  0.2243 -1.7716
10881TIP3    H254135   3.400   1.406   2.935  0.5827  1.2400  1.4831
10882TIP3   OH254136   3.435   1.743  15.363 -0.1012 -0.3382  0.2025
10882TIP3    H154137   3.383   1.667  15.390 -0.5799 -0.3181 -0.6656
10882TIP3    H254138   3.372   1.805  15.328  0.3146  0.4003  0.7466
10883TIP3   OH254139   3.254   7.028  14.219  0.3631  0.0735  0.3129
10883TIP3    H154140   3.347   7.012  14.235  0.4737 -0.0660 -0.4672
10883TIP3    H254141   3.234   7.105  14.272  0.5032 -0.9300  1.8722
10884TIP3   OH254142   3.376   0.853   1.555  0.5799 -0.0663 -0.8175
10884TIP3    H154143   3.438   0.926   1.560  0.7995 -0.3857  1.9723
10884TIP3    H254144   3.365   0.824   1.646 -0.3378 -2.8129 -1.7376
10885TIP3   OH254145   2.667   3.344   3.631  0.0763  0.4633 -0.1124
10885TIP3    H154146   2.704   3.272   3.580  2.8054  0.8771  1.1812
10885TIP3    H254147   2.590   3.307   3.675 -1.0066 -0.4792 -2.7315
10886TIP3   OH254148   2.780   4.459  14.940  0.2029 -0.3529 -0.1628
10886TIP3    H154149   2.712   4.456  15.007 -0.9177  1.2449 -1.2027
10886TIP3    H254150   2.737   4.433  14.859  0.7038  1.0724 -0.9101
10887TIP3   OH254151   2.450   1.507   0.277 -0.2947 -0.6827 -0.1214
10887TIP3    H154152   2.429   1.576   0.214  1.7747  0.1718  0.0746
10887TIP3    H254153   2.543   1.487   0.260 -0.0919 -1.4059  1.7342
10888TIP3   OH254154   6.398   6.411   4.112 -0.0579  0.4547 -0.2486
10888TIP3    H154155   6.471   6.440   4.167 -0.3307  2.1583 -0.7370
10888TIP3    H254156   6.440   6.378   4.033  0.2676 -0.5888  0.3478
10889TIP3   OH254157   4.906   1.327  13.970 -0.2601  0.3033 -0.1797
10889TIP3    H154158   4.893   1.346  14.063  0.7540  1.3691 -0.2295
10889TIP3    H254159   4.825   1.355  13.928 -0.8490 -0.4927  0.4217
10890TIP3   OH254160   5.115   0.487   1.454 -0.3387  0.2044  0.4191
10890TIP3    H154161   5.105   0.488   1.549  0.1544  1.9486  0.4633
10890TIP3    H254162   5.033   0.523   1.421 -0.3503 -0.0254  0.1928
10891TIP3   OH254163   5.569   5.456   4.329 -0.0992  0.1639 -0.1851
10891TIP3    H154164   5.545   5.419   4.415  0.3785 -0.2170 -0.2149
10891TIP3    H254165   5.526   5.398   4.266 -1.1017  0.8986 -0.2001
10892TIP3   OH254166   1.054   6.017   0.169 -0.3669 -0.5477  0.1172
10892TIP3    H154167   0.996   6.080   0.127 -0.0006 -0.9692 -1.0207
10892TIP3    H254168   1.130   6.012   0.111  0.3211 -0.8263  1.0350
10893TIP3   OH254169   6.678   6.740   1.907 -0.0084 -0.0945  0.0182
10893TIP3    H154170   6.601   6.692   1.874 -0.1711  2.0604 -2.9348
10893TIP3    H254171   6.751   6.708   1.854  0.3619  0.9533 -0.1140
10894TIP3   OH254172   1.333   6.854   2.260  0.1308  0.3079 -0.1425
10894TIP3    H154173   1.289   6.793   2.201  2.5790 -0.7501 -0.9849
10894TIP3    H254174   1.279   6.856   2.338 -1.4311 -0.8343 -1.1655
10895TIP3   OH254175   4.837   0.459   0.757  0.0039  0.3471 -0.4495
10895TIP3    H154176   4.922   0.500   0.770 -0.6182  1.8438 -1.0249
10895TIP3    H254177   4.849   0.370   0.789  1.9201  0.3857 -0.9969
10896TIP3   OH254178   6.717   2.877   1.421  0.6723 -0.0408  0.6400
10896TIP3    H154179   6.733   2.783   1.430  0.4961 -0.1641 -0.2941
10896TIP3    H254180   6.634   2.892   1.467 -0.0918 -0.6115 -0.5333
10897TIP3   OH254181   3.133   5.658   0.086 -0.3846 -0.2465 -0.2306
10897TIP3    H154182   3.137   5.744   0.045  0.6706 -0.8086 -1.3443
10897TIP3    H254183   3.043   5.650   0.117 -0.5786  1.1152 -0.4161
10898TIP3   OH254184   0.062   5.190   2.996 -0.0072 -0.8020 -0.3872
10898TIP3    H154185   0.001   5.232   3.057  0.2448 -0.6226 -0.2574
10898TIP3    H254186   0.110   5.263   2.957  0.0976 -0.9406 -0.5166
10899TIP3   OH254187   4.492   2.346   0.459  0.4148 -0.0019  0.1790
10899TIP3    H154188   4.586   2.329   0.471  0.6161  0.8950 -0.0416
10899TIP3    H254189   4.470   2.406   0.530  0.2602  0.6375 -0.3987
10900TIP3   OH254190   5.172   2.920  14.251  0.3257 -0.2059  0.2989
10900TIP3    H154191   5.222   2.955  14.325  1.1843 -0.3022 -0.2371
10900TIP3    H254192   5.088   2.896  14.290 -0.5105  2.9041  0.6214
10901TIP3   OH254193   4.191   0.182  13.743  1.0587  0.0884 -0.4426
10901TIP3    H154194   4.228   0.270  13.736  0.2785  0.2500 -3.0824
10901TIP3    H254195   4.266   0.124  13.731  0.8968  0.4257 -3.7273
10902TIP3   OH254196   2.340   1.544   2.074  0.2784  0.3036 -0.2371
10902TIP3    H154197   2.411   1.517   2.132 -1.1088 -1.8040  0.5187
10902TIP3    H254198   2.260   1.516   2.118 -0.9336  0.7507 -2.0780
10903TIP3   OH254199   6.798   0.694   0.533  0.6036 -0.4128  0.2773
10903TIP3    H154200   6.724   0.711   0.592  0.0219  0.6994 -0.7535
10903TIP3    H254201   6.831   0.782   0.511 -0.6989 -0.6793 -2.9727
10904TIP3   OH254202   3.643   7.005  15.590  0.2868 -0.0396 -0.0382
10904TIP3    H154203   3.592   7.081  15.619 -1.5812 -1.3311  0.1774
10904TIP3    H254204   3.650   7.017  15.495 -1.1489 -0.2572 -0.1863
10905TIP3   OH254205   5.241   1.816   0.637  0.2598 -0.1450  0.2581
10905TIP3    H154206   5.272   1.742   0.688  0.3188 -0.5879 -0.4153
10905TIP3    H254207   5.203   1.876   0.701  1.5623 -0.0742  0.9743
10906TIP3   OH254208   3.760   2.006  15.231  0.1206 -0.5526  0.8087
10906TIP3    H154209   3.792   1.945  15.297 -0.6740 -0.1950  1.5317
10906TIP3    H254210   3.839   2.050  15.198  0.7084 -2.0168  0.2120
10907TIP3   OH254211   5.254   4.654  13.666 -0.8457  0.0328  0.0500
10907TIP3    H154212   5.242   4.679  13.574  0.0382  1.6520  0.3537
10907TIP3    H254213   5.169   4.670  13.706 -0.1118  3.4181  0.4012
10908TIP3   OH254214   5.578   6.281   0.085 -0.1777  0.4388 -0.1055
10908TIP3    H154215   5.567   6.194   0.123 -0.3003  0.0966 -0.9397
10908TIP3    H254216   5.660   6.313   0.123 -0.4492  0.2141  0.6808
10909TIP3   OH254217   4.593   0.502   1.633  0.2321  0.1975  0.0727
10909TIP3    H154218   4.509   0.517   1.591  1.2299 -0.9227 -2.4095
10909TIP3    H254219   4.605   0.579   1.690 -1.7874  1.0612 -0.6147
10910TIP3   OH254220   2.578   5.343   0.538  0.7718  0.1713 -0.0698
10910TIP3    H154221   2.619   5.420   0.579  0.5804  0.1907  0.0834
10910TIP3    H254222   2.586   5.274   0.603  2.2050 -0.3271 -0.7420
10911TIP3   OH254223   3.164   5.460   4.532 -0.3230  0.8143  0.3674
10911TIP3    H154224   3.176   5.512   4.612 -2.3110  1.6942  0.1268
10911TIP3    H254225   3.081   5.491   4.496  1.1304  1.3652 -2.7271
10912TIP3   OH254226   4.789   0.781   2.693 -0.2105 -0.2076  0.4191
10912TIP3    H154227   4.778   0.832   2.613  0.0753 -1.0116 -0.1370
10912TIP3    H254228   4.849   0.832   2.747  1.7621 -0.9557 -1.0093
10913TIP3   OH254229   5.186   3.714   0.470  0.5543 -0.3712 -0.4997
10913TIP3    H154230   5.228   3.703   0.556 -2.2819 -1.7249  0.7772
10913TIP3    H254231   5.175   3.625   0.437 -0.4700  0.0162 -1.2176
10914TIP3   OH254232   6.621   1.380  15.589 -0.4157 -0.7302  0.2183
10914TIP3    H154233   6.716   1.378  15.599 -0.3757 -1.2117 -0.2714
10914TIP3    H254234   6.606   1.442  15.517 -0.3850 -1.9462 -0.8366
10915TIP3   OH254235   3.714   4.352   2.707 -0.5032 -0.1920 -0.2387
10915TIP3    H154236   3.729   4.265   2.743  1.7034  0.6145  0.9223
10915TIP3    H254237   3.653   4.393   2.768 -0.6053 -0.5071 -0.1280
10916TIP3   OH254238   5.356   0.520   3.310 -0.3619 -1.2617 -0.6547
10916TIP3    H154239   5.277   0.545   3.262 -0.6835 -1.7729 -0.3961
10916TIP3    H254240   5.390   0.603   3.343 -0.4046 -0.9601 -1.3514
10917TIP3   OH254241   3.692   4.471  14.435 -0.0730  0.2087  0.4095
10917TIP3    H154242   3.727   4.383  14.452 -1.4316 -0.4774 -0.2641
10917TIP3    H254243   3.649   4.464  14.350  0.4194  1.7237  0.0152
10918TIP3   OH254244   5.381   2.556   2.168 -0.3864 -0.0416  0.2932
10918TIP3    H154245   5.328   2.555   2.247  0.2823  0.3839  0.7513
10918TIP3    H254246   5.460   2.605   2.192 -0.0526 -0.1506 -0.5500
10919TIP3   OH254247   5.753   5.656  14.785  0.8729 -0.3469 -0.3744
10919TIP3    H154248   5.771   5.593  14.715  0.4619 -1.2684  0.3322
10919TIP3    H254249   5.664   5.685  14.770  0.5708 -1.0037  0.1025
10920TIP3   OH254250   4.436   4.449   2.375  0.7663  0.0432  0.2079
10920TIP3    H154251   4.367   4.473   2.313 -0.1770 -0.7285  0.9337
10920TIP3    H254252   4.476   4.533   2.400  1.1357  0.3560 -1.3934
10921TIP3   OH254253   5.912   2.186   3.467  0.1095 -0.3137  0.3940
10921TIP3    H154254   5.821   2.174   3.496  0.3626 -2.8905  0.2345
10921TIP3    H254255   5.910   2.266   3.415 -2.2963 -0.8138 -0.3694
10922TIP3   OH254256   3.820   5.991   3.352  0.1175  0.1435  0.4584
10922TIP3    H154257   3.911   6.005   3.326  0.2595 -0.4712  0.6148
10922TIP3    H254258   3.820   5.905   3.394 -1.2153 -1.4975 -2.8146
10923TIP3   OH254259   5.983   4.054  15.534  0.6664 -0.0354 -0.1335
10923TIP3    H154260   6.035   3.993  15.481  0.2368 -0.0599 -0.5254
10923TIP3    H254261   5.894   4.020  15.529  0.4725  0.4772 -0.1360
10924TIP3   OH254262   1.482   2.706  12.703  1.0029 -0.0015 -0.0409
10924TIP3    H154263   1.467   2.652  12.780  1.8228 -0.6161 -0.3072
10924TIP3    H254264   1.567   2.678  12.670 -0.4495 -1.5646 -2.6316
10925TIP3   OH254265   3.960   3.299   5.375  0.2643  0.3312  0.7163
10925TIP3    H154266   4.018   3.374   5.362  1.3380 -0.5192  0.5247
10925TIP3    H254267   3.887   3.314   5.314  0.5277  1.1480  0.5951
10926TIP3   OH254268   0.854   5.428  12.510 -0.0645 -0.2693  0.5760
10926TIP3    H154269   0.796   5.387  12.447 -1.0054  0.7780  0.7476
10926TIP3    H254270   0.797   5.454  12.582  0.6722  0.4210  0.9213
10927TIP3   OH254271   2.238   6.997  14.637  0.0220 -0.2367  0.0804
10927TIP3    H154272   2.180   7.071  14.617  1.8342  0.8743 -1.2037
10927TIP3    H254273   2.264   6.963  14.551  2.2953  0.1062  0.6002
10928TIP3   OH254274   6.911   2.825   2.571 -0.3741  0.0667  0.3257
10928TIP3    H154275   6.836   2.865   2.528  0.1771  1.2622  0.4594
10928TIP3    H254276   6.951   2.897   2.620  1.0734 -0.4775 -0.0483
10929TIP3   OH254277   2.329   1.449   3.378  0.3059  0.3278  0.0522
10929TIP3    H154278   2.408   1.469   3.428  0.2100  0.2811  0.2251
10929TIP3    H254279   2.259   1.490   3.428  0.3438  1.3157 -0.6857
10930TIP3   OH254280   5.352   0.998  13.946 -0.5306 -0.4566 -0.9932
10930TIP3    H154281   5.356   0.910  13.984 -0.1519 -0.3239 -0.7209
10930TIP3    H254282   5.285   1.043  13.997  2.2910  0.8010  1.8505
10931TIP3   OH254283   0.692   0.278   5.129 -0.3863  0.3682  0.5392
10931TIP3    H154284   0.612   0.299   5.082 -0.6734  2.2971  1.8304
10931TIP3    H254285   0.682   0.187   5.155 -0.6528 -0.4309 -2.2193
10932TIP3   OH254286   4.771   2.715  14.601  0.0977 -0.5390  0.0272
10932TIP3    H154287   4.713   2.723  14.525 -1.0505 -1.9447  0.7226
10932TIP3    H254288   4.731   2.772  14.667  0.3486 -0.3299 -0.0056
10933TIP3   OH254289   5.306   5.043  14.901 -0.1617 -0.3873 -0.0819
10933TIP3    H154290   5.362   5.110  14.863 -0.4695 -1.1774 -1.9630
10933TIP3    H254291   5.355   4.962  14.893  0.2683 -0.4183  2.3175
10934TIP3   OH254292   5.515   5.202   0.148 -0.1293 -0.1115 -0.4683
10934TIP3    H154293   5.475   5.132   0.199 -1.2601 -0.2429 -1.5061
10934TIP3    H254294   5.456   5.277   0.158  0.3449  0.2670 -0.4849
10935TIP3   OH254295   1.316   4.024  13.542  0.5436 -0.0350 -0.1854
10935TIP3    H154296   1.275   3.940  13.521  0.1586 -0.1299  0.9030
10935TIP3    H254297   1.387   4.001  13.602  0.3390  0.4320  0.2349
10936TIP3   OH254298   4.577   3.073  12.451 -0.3187 -0.2195 -0.0944
10936TIP3    H154299   4.501   3.067  12.394 -0.0562  1.0349 -0.5915
10936TIP3    H254300   4.609   2.983  12.457 -0.2181 -0.3603 -2.1206
10937TIP3   OH254301   4.449   3.693   2.323 -0.4614  0.2902 -0.0620
10937TIP3    H154302   4.418   3.775   2.285 -2.7161 -0.2805  0.4882
10937TIP3    H254303   4.384   3.628   2.297  1.0126 -1.2365 -0.0354
10938TIP3   OH254304   3.494   6.045   0.440  0.4438 -0.1859 -0.0821
10938TIP3    H154305   3.448   5.966   0.414  3.1523 -1.6119 -0.6972
10938TIP3    H254306   3.438   6.084   0.508 -2.9553 -0.3751 -2.6365
10939TIP3   OH254307   4.103   0.921   5.235  0.4204  0.2741  0.1896
10939TIP3    H154308   4.025   0.918   5.179 -0.2522  0.4163  1.1051
10939TIP3    H254309   4.164   0.860   5.195  0.1021  0.6838 -0.9347
10940TIP3   OH254310   5.524   6.614  15.377 -0.3425  0.0337 -0.7125
10940TIP3    H154311   5.432   6.614  15.352 -0.0450  0.1909 -1.8602
10940TIP3    H254312   5.547   6.707  15.382 -0.0904 -0.0022 -1.0861
10941TIP3   OH254313   6.608   6.006  14.310 -0.1234 -0.1733  0.4430
10941TIP3    H154314   6.676   5.999  14.376  1.6249 -0.3436 -1.3239
10941TIP3    H254315   6.609   6.098  14.284  0.3781 -0.4432 -0.5329
10942TIP3   OH254316   6.638   3.673  14.867  0.3798 -0.2274  0.3647
10942TIP3    H154317   6.585   3.646  14.942  0.4611 -3.2568 -0.5957
10942TIP3    H254318   6.728   3.669  14.899  0.3254  0.0010  0.5484
10943TIP3   OH254319   6.818   2.185  14.610  0.0889  1.1787 -0.0311
10943TIP3    H154320   6.761   2.115  14.643  1.6116  0.4352  1.0783
10943TIP3    H254321   6.777   2.212  14.528 -1.6953  0.4570  0.5994
10944TIP3   OH254322   3.154   6.209  13.907  0.0814 -0.3572  0.2485
10944TIP3    H154323   3.109   6.128  13.882 -0.4664 -0.7094  2.3373
10944TIP3    H254324   3.087   6.277  13.899  0.1879 -0.3051 -0.2274
10945TIP3   OH254325   2.688   6.382   4.323 -0.1455  0.7001  0.4838
10945TIP3    H154326   2.619   6.328   4.363  0.9261 -0.9853  0.1069
10945TIP3    H254327   2.747   6.401   4.396  1.0904 -1.2275  0.0015
10946TIP3   OH254328   1.195   0.964   1.643  0.2590 -0.2261 -0.0849
10946TIP3    H154329   1.263   0.973   1.710 -0.8770 -1.2908  1.2496
10946TIP3    H254330   1.156   1.051   1.638  0.0062 -0.2687  1.0239
10947TIP3   OH254331   2.593   3.979   2.393  0.8411  0.2363 -0.0848
10947TIP3    H154332   2.554   4.061   2.364 -1.4774 -0.6515  0.3756
10947TIP3    H254333   2.656   3.956   2.325  1.5692  2.4043 -0.1858
10948TIP3   OH254334   1.684   7.103   1.046  0.1418 -0.0832  0.2472
10948TIP3    H154335   1.589   7.107   1.032  0.2094  0.4826 -0.0965
10948TIP3    H254336   1.719   7.075   0.961  0.2740 -0.3845  0.4017
10949TIP3   OH254337   4.348   2.594   0.411  0.3652  0.3610 -0.1995
10949TIP3    H154338   4.331   2.618   0.320 -0.8369  1.0677  0.2040
10949TIP3    H254339   4.365   2.500   0.408 -1.7578 -0.0308 -0.8915
10950TIP3   OH254340   6.696   0.996   3.881 -0.6773  0.0824  0.6131
10950TIP3    H154341   6.604   0.971   3.872 -0.7695  0.1112  1.4458
10950TIP3    H254342   6.722   1.022   3.793 -1.2935 -0.5104  0.2473
10951TIP3   OH254343   2.437   2.553   3.451 -0.6043  0.1529 -0.3065
10951TIP3    H154344   2.413   2.638   3.487 -1.9974  0.3310 -1.6044
10951TIP3    H254345   2.527   2.565   3.419 -0.2312  0.6716  0.9020
10952TIP3   OH254346   3.581   1.069   3.280  0.4129 -0.7411 -0.5216
10952TIP3    H154347   3.657   1.114   3.244 -0.6370  0.2556 -1.5433
10952TIP3    H254348   3.567   0.995   3.221 -1.0988  0.6957 -2.0260
10953TIP3   OH254349   5.876   6.722   3.658 -0.7420  0.1299 -0.1704
10953TIP3    H154350   5.951   6.746   3.603  1.2815  0.8654  2.7883
10953TIP3    H254351   5.820   6.799   3.656  0.6958  1.2348  1.0076
10954TIP3   OH254352   6.926   6.965   4.716 -0.0399 -0.3082  0.5646
10954TIP3    H154353   6.882   7.036   4.763  0.4608 -0.1362  0.7830
10954TIP3    H254354   6.928   6.994   4.625 -1.3493 -0.8088  0.3624
10955TIP3   OH254355   4.394   5.110  12.148 -0.7650 -0.0456 -0.4969
10955TIP3    H154356   4.383   5.138  12.058  0.9128 -0.0388 -0.7065
10955TIP3    H254357   4.305   5.089  12.178 -1.6322  2.2341 -1.3876
10956TIP3   OH254358   3.554   2.197  15.240 -0.0068  0.5065  0.0110
10956TIP3    H154359   3.618   2.127  15.255  1.0437  1.4066 -0.1698
10956TIP3    H254360   3.504   2.202  15.321  1.5273  1.1692  0.9520
10957TIP3   OH254361   5.649   0.944   1.886 -0.7314  0.1259 -0.7226
10957TIP3    H154362   5.570   0.976   1.931  0.4059  0.1673  1.3102
10957TIP3    H254363   5.638   0.971   1.795 -2.8655  0.5008 -0.3720
10958TIP3   OH254364   6.828   6.976  14.428  0.1663 -0.1825  0.3282
10958TIP3    H154365   6.775   7.008  14.501 -0.8324 -0.4834 -0.2552
10958TIP3    H254366   6.879   6.904  14.466 -1.0732 -0.9835  0.5113
10959TIP3   OH254367   6.216   3.255  13.684 -0.2183  0.3634  0.4086
10959TIP3    H154368   6.174   3.191  13.626  0.8736 -1.1308  1.2061
10959TIP3    H254369   6.310   3.236  13.675  0.1947  2.5778 -0.1383
10960TIP3   OH254370   1.399   1.370   1.217  0.4458  0.3062  0.4606
10960TIP3    H154371   1.309   1.400   1.204  1.2504  3.0652  0.9289
10960TIP3    H254372   1.429   1.346   1.130 -0.9340 -1.2770  0.3941
10961TIP3   OH254373   6.997   0.676   0.300  0.3561 -0.5705 -0.3315
10961TIP3    H154374   7.010   0.596   0.351  1.0774  0.8256  1.7489
10961TIP3    H254375   6.906   0.671   0.270  0.2904 -1.9917  0.0458
10962TIP3   OH254376   2.173   6.090   3.351  0.0067 -0.5112  0.6395
10962TIP3    H154377   2.143   5.999   3.350 -2.9193  0.4051  0.5073
10962TIP3    H254378   2.150   6.124   3.264 -2.2842  1.3279  1.8814
10963TIP3   OH254379   2.458   5.971   1.413  0.1556  0.2329  0.4931
10963TIP3    H154380   2.502   5.888   1.427  2.9617  1.2383 -1.8328
10963TIP3    H254381   2.442   5.975   1.318 -3.1094  0.8585  0.9767
10964TIP3   OH254382   5.869   2.930   0.379 -0.1369  0.2587 -0.8293
10964TIP3    H154383   5.848   2.973   0.462 -0.0915  1.0304 -1.2123
10964TIP3    H254384   5.884   2.838   0.402 -1.5531  0.1716 -0.1890
10965TIP3   OH254385   4.805   6.273   1.130 -0.5300 -0.1449  0.3304
10965TIP3    H154386   4.749   6.203   1.164 -0.3045 -1.0592 -1.1155
10965TIP3    H254387   4.826   6.244   1.041  1.5785  0.5969  0.5841
10966TIP3   OH254388   6.216   0.242   1.459  0.0135  0.1637  0.2915
10966TIP3    H154389   6.201   0.157   1.501  2.0488  1.3096  3.5372
10966TIP3    H254390   6.192   0.306   1.526 -0.0235  2.1698 -1.5763
10967TIP3   OH254391   5.024   6.929   3.721  0.2338 -0.0340  0.0520
10967TIP3    H154392   5.090   6.995   3.699  2.8993 -2.0046  1.7969
10967TIP3    H254393   5.052   6.850   3.675 -1.3736 -0.7039  0.1907
10968TIP3   OH254394   3.565   2.031   0.992 -0.0465 -0.5084  0.0238
10968TIP3    H154395   3.631   2.067   1.052  0.4703 -1.2294 -0.0999
10968TIP3    H254396   3.557   2.096   0.923 -0.6684  0.3517  0.8871
10969TIP3   OH254397   4.076   2.221   1.913 -0.2400  0.5133 -0.2648
10969TIP3    H154398   4.014   2.248   1.846 -1.4222 -2.7204 -0.5492
10969TIP3    H254399   4.024   2.215   1.993 -0.4385 -2.5314 -0.5757
10970TIP3   OH254400   2.280   4.031  14.996 -0.2640  0.5354  0.1611
10970TIP3    H154401   2.348   4.000  15.056  1.1420  1.6469 -0.8259
10970TIP3    H254402   2.258   3.954  14.943 -0.5074 -0.0893  1.1596
10971TIP3   OH254403   4.625   0.612   2.857 -0.3316 -0.3312 -0.1892
10971TIP3    H154404   4.537   0.617   2.820  0.1983 -3.0295 -1.8556
10971TIP3    H254405   4.681   0.658   2.794 -0.0430 -1.4077 -0.7112
10972TIP3   OH254406   4.622   1.883   0.265  0.1367 -0.0563 -0.2060
10972TIP3    H154407   4.554   1.912   0.326  1.7612  2.1055  0.6508
10972TIP3    H254408   4.583   1.810   0.217 -2.2980  0.3044  1.1916
10973TIP3   OH254409   3.207   4.924   3.312 -0.1155  0.5793 -0.4429
10973TIP3    H154410   3.232   4.835   3.286 -0.1950  0.7801 -1.2089
10973TIP3    H254411   3.177   4.965   3.232 -1.2227  0.9219  0.1301
10974TIP3   OH254412   6.178   4.470   3.585  0.4564 -0.0780 -0.4631
10974TIP3    H154413   6.187   4.542   3.523 -0.8568 -1.1929 -1.9998
10974TIP3    H254414   6.229   4.398   3.547  1.1608 -0.1884  0.6824
10975TIP3   OH254415   2.333   6.506   0.167 -0.4545  0.0169 -0.8214
10975TIP3    H154416   2.396   6.435   0.165  1.5303  1.5523  2.3349
10975TIP3    H254417   2.263   6.474   0.224  0.3321  0.4431  0.4183
10976TIP3   OH254418   6.526   5.704  15.067 -0.0854  0.2843  0.1948
10976TIP3    H154419   6.514   5.790  15.026 -1.1820  0.2364  0.4113
10976TIP3    H254420   6.438   5.669  15.076  0.3956 -1.1836 -0.5600
10977TIP3   OH254421   0.024   4.131   1.253  0.6006 -0.5205 -0.1084
10977TIP3    H154422   0.042   4.043   1.285 -0.6095 -0.8161 -0.2335
10977TIP3    H254423  -0.016   4.176   1.327 -2.1336 -1.1816 -1.0994
10978TIP3   OH254424   5.127   1.098   3.094 -0.1507 -0.1160  0.2299
10978TIP3    H154425   5.082   1.180   3.073  1.2638  0.6220  0.0367
10978TIP3    H254426   5.178   1.078   3.016  3.0201  1.2045  1.8712
10979TIP3   OH254427   6.968   2.393  13.002 -0.0584 -0.2016  0.1317
10979TIP3    H154428   6.991   2.366  12.913 -0.8166  0.4258 -0.2625
10979TIP3    H254429   7.043   2.367  13.055 -0.0102 -1.4444 -0.5325
10980TIP3   OH254430   4.090   0.812  12.793  0.2569 -0.5203 -0.2483
10980TIP3    H154431   4.177   0.843  12.818  0.7673 -2.6520  0.6887
10980TIP3    H254432   4.036   0.824  12.872 -0.3859  0.9683 -0.8789
10981TIP3   OH254433   4.621   5.469   1.405  0.2578  0.0931  0.0168
10981TIP3    H154434   4.568   5.489   1.483 -0.9533  0.0388 -0.7809
10981TIP3    H254435   4.621   5.374   1.401 -0.2493  0.1104 -0.4301
10982TIP3   OH254436   3.647   6.350  14.570  0.1995 -0.5754 -0.4130
10982TIP3    H154437   3.664   6.441  14.546  2.0012 -0.2946  1.7780
10982TIP3    H254438   3.729   6.304  14.553 -0.2525 -1.4946 -0.1569
10983TIP3   OH254439   0.325   0.212   0.877 -0.4791 -0.1937  0.2146
10983TIP3    H154440   0.281   0.218   0.962 -2.1325  0.1806 -0.6455
10983TIP3    H254441   0.266   0.159   0.824 -1.3367  2.6373 -1.8190
10984TIP3   OH254442   4.592   2.982   2.145 -0.1431 -0.9353  0.2228
10984TIP3    H154443   4.557   3.015   2.062 -0.9838  0.2491  1.0228
10984TIP3    H254444   4.676   2.943   2.123 -0.5515 -0.9879 -1.2448
10985TIP3   OH254445   3.355   0.469  14.122  0.1136  0.0394  0.3125
10985TIP3    H154446   3.396   0.395  14.077 -0.5007  0.0901 -0.3386
10985TIP3    H254447   3.273   0.433  14.157 -1.8404  1.1682 -2.8240
10986TIP3   OH254448   1.011   4.268  15.319 -0.4316  0.4673 -0.3688
10986TIP3    H154449   1.047   4.183  15.344 -1.3216  0.4547  0.9414
10986TIP3    H254450   0.916   4.257  15.327 -0.5163  2.0023  1.2968
10987TIP3   OH254451   4.881   4.280   0.669 -0.4677 -0.4691  0.1278
10987TIP3    H154452   4.944   4.209   0.651 -2.1401 -1.7505 -0.7737
10987TIP3    H254453   4.895   4.342   0.597 -1.3582 -1.5544 -1.0062
10988TIP3   OH254454   3.354   3.999  15.320 -0.3640  0.1896 -0.5197
10988TIP3    H154455   3.437   4.033  15.352  0.0052 -1.5469  0.4417
10988TIP3    H254456   3.296   4.076  15.315  0.2728  0.8761  2.0872
10989TIP3   OH254457   1.060   6.237  15.054 -0.2866  0.4235  0.2771
10989TIP3    H154458   0.974   6.212  15.087 -0.3016  0.2332  0.0937
10989TIP3    H254459   1.080   6.319  15.100  0.5168 -0.8033  2.1782
10990TIP3   OH254460   3.451   5.480   5.890  0.2344 -0.0998 -0.3678
10990TIP3    H154461   3.543   5.480   5.861  0.8212  0.5930  1.4487
10990TIP3    H254462   3.434   5.571   5.913 -0.2489 -0.6201  1.3559
10991TIP3   OH254463   4.379   5.331  15.223  0.4434  0.0813 -0.5802
10991TIP3    H154464   4.316   5.385  15.272 -0.0362 -0.0122 -1.0801
10991TIP3    H254465   4.326   5.291  15.154  1.0870  0.1084 -1.0910
10992TIP3   OH254466   2.353   5.993   4.568 -0.2214 -0.4111 -0.9191
10992TIP3    H154467   2.345   5.951   4.654  0.9262 -1.0108 -1.0997
10992TIP3    H254468   2.277   6.052   4.563  0.4630  0.6661  1.0572
10993TIP3   OH254469   3.818   2.672   2.016  0.2215  0.0332 -0.1988
10993TIP3    H154470   3.840   2.618   2.093  0.4271  0.1943 -0.1450
10993TIP3    H254471   3.767   2.613   1.961  1.7001 -0.6956 -0.8203
10994TIP3   OH254472   5.223   4.338   2.243 -0.1706  0.6733 -0.1207
10994TIP3    H154473   5.168   4.260   2.234 -2.7690  2.5182 -0.6762
10994TIP3    H254474   5.306   4.304   2.277 -1.2364 -2.3228 -0.3060
10995TIP3   OH254475   3.971   2.497   1.053  0.9248 -0.0070  0.2888
10995TIP3    H154476   3.956   2.420   1.108 -1.2115  0.8989  1.0167
10995TIP3    H254477   3.983   2.569   1.114 -0.6060  0.8585 -0.3952
10996TIP3   OH254478   5.802   3.385   4.940  0.0002  0.2911  0.9075
10996TIP3    H154479   5.821   3.341   5.023  1.0745  0.7765  0.9310
10996TIP3    H254480   5.845   3.332   4.874 -0.7744 -0.0402  0.6660
10997TIP3   OH254481   3.093   6.246   1.673  0.6850 -0.6404 -0.4173
10997TIP3    H154482   3.093   6.342   1.667 -0.6145 -0.4798  1.7024
10997TIP3    H254483   3.031   6.218   1.606 -0.7055  0.1442  0.5255
10998TIP3   OH254484   6.921   2.106  13.628 -0.3681 -0.2997  0.0336
10998TIP3    H154485   6.847   2.166  13.629 -0.8180 -0.8606  0.4988
10998TIP3    H254486   6.998   2.162  13.636 -0.7773  0.2219  0.3161
10999TIP3   OH254487   4.143   6.725   0.131  0.2849  0.8914  0.1009
10999TIP3    H154488   4.086   6.734   0.054 -0.3472 -1.5488  0.2434
10999TIP3    H254489   4.090   6.758   0.204 -2.1751 -3.8920  0.7031
11000TIP3   OH254490   0.564   5.385  15.532  0.5418 -0.3643 -0.9187
11000TIP3    H154491   0.557   5.478  15.556  1.5050 -0.6303  0.4956
11000TIP3    H254492   0.473   5.353  15.534  0.3563  0.1945  0.1131
11001TIP3   OH254493   1.730   3.191   0.199 -0.5805  0.0079 -0.2936
11001TIP3    H154494   1.676   3.115   0.180 -1.4645  0.1773  1.4585
11001TIP3    H254495   1.669   3.257   0.230  0.5096  0.5388  0.7494
11002TIP3   OH254496   4.107   0.065  15.560  0.6988  0.6674  0.2478
11002TIP3    H154497   4.195   0.045  15.591  0.4249 -0.0450  0.5707
11002TIP3    H254498   4.049   0.030  15.627  0.1781  1.6183  0.3087
11003TIP3   OH254499   3.779   1.837   0.559  0.6132 -0.3984 -0.7156
11003TIP3    H154500   3.789   1.919   0.608  1.8379 -0.4388 -0.8621
11003TIP3    H254501   3.790   1.769   0.625 -2.8501 -0.4715 -0.1516
11004TIP3   OH254502   4.866   3.942   4.739 -0.2845  0.6354  0.4746
11004TIP3    H154503   4.906   4.015   4.692  1.1981 -0.2243  0.3741
11004TIP3    H254504   4.817   3.894   4.672 -0.3893  0.9308  0.3378
11005TIP3   OH254505   1.792   5.118  14.800 -0.2596 -0.1746 -0.1601
11005TIP3    H154506   1.875   5.163  14.787 -0.7978  0.8431 -0.0775
11005TIP3    H254507   1.726   5.180  14.769 -1.1077 -0.2961  1.3933
11006TIP3   OH254508   3.974   0.643  15.043 -1.0913 -0.0573 -0.4312
11006TIP3    H154509   4.028   0.682  15.112 -0.9232 -2.2024  0.7160
11006TIP3    H254510   4.026   0.651  14.964  0.6762 -1.4827  0.5334
11007TIP3   OH254511   2.609   2.319  10.922 -0.1812 -0.1302  0.2721
11007TIP3    H154512   2.517   2.338  10.906 -0.1820  0.4494  0.9316
11007TIP3    H254513   2.649   2.322  10.835 -0.4194  1.7120  0.1910
11008TIP3   OH254514   6.388   0.509   0.175  0.5495 -0.8807 -0.2432
11008TIP3    H154515   6.443   0.444   0.131 -0.0842 -2.3527  1.0939
11008TIP3    H254516   6.301   0.470   0.175  0.1390  0.0313  0.4824
11009TIP3   OH254517   4.310   1.883   1.155 -0.2647  0.1359  0.2130
11009TIP3    H154518   4.330   1.852   1.067 -1.2406 -0.1183  0.0757
11009TIP3    H254519   4.370   1.835   1.212  1.5115  1.4759 -0.4431
11010TIP3   OH254520   3.475   1.758   2.365  0.2828  0.4607  0.1320
11010TIP3    H154521   3.519   1.813   2.300 -1.5144  2.4447  0.5423
11010TIP3    H254522   3.500   1.796   2.449  2.6533 -2.1449  0.6876
11011TIP3   OH254523   5.994   3.955   2.796  0.0652 -0.1299 -0.6631
11011TIP3    H154524   6.024   4.037   2.757  1.4272 -0.4111 -0.2672
11011TIP3    H254525   5.990   3.894   2.722  1.9761 -0.4802 -0.5134
11012TIP3   OH254526   4.079   5.011  14.477  0.2881  0.4150 -0.2023
11012TIP3    H154527   4.164   5.018  14.434  0.2749  0.9813 -0.1417
11012TIP3    H254528   4.092   4.944  14.545  0.8480  0.9005  0.1770
11013TIP3   OH254529   4.761   4.006  15.599 -0.6816 -0.2196 -0.2245
11013TIP3    H154530   4.790   3.934  15.544 -0.6054 -0.7112  0.4502
11013TIP3    H254531   4.840   4.033  15.646 -0.3644  1.3091 -1.5861
11014TIP3   OH254532   1.974   3.382   1.620 -0.6481  0.2532  0.2682
11014TIP3    H154533   2.021   3.351   1.698 -1.9356 -1.1501  0.4969
11014TIP3    H254534   2.022   3.461   1.594  1.5162 -0.8203  0.8196
11015TIP3   OH254535   1.310   5.694   0.118 -0.1619  0.7507  0.1658
11015TIP3    H154536   1.381   5.710   0.181  0.1681 -1.1473  0.2872
11015TIP3    H254537   1.278   5.607   0.139 -1.3962  0.9023 -1.0244
11016TIP3   OH254538   4.564   2.280   2.148 -0.3625  0.4221  0.6733
11016TIP3    H154539   4.478   2.312   2.123  0.1802  0.3744 -1.3202
11016TIP3    H254540   4.616   2.283   2.067  1.5331  0.5313  1.8497
11017TIP3   OH254541   3.926   3.018  11.829  0.3945 -0.4370 -0.0357
11017TIP3    H154542   3.870   3.091  11.804  0.2273 -0.9135 -1.0803
11017TIP3    H254543   3.970   3.047  11.909 -0.2498  0.4977 -0.0191
11018TIP3   OH254544   7.041   2.444   0.159  0.2462  0.0332  0.2727
11018TIP3    H154545   7.041   2.530   0.117  0.0025 -0.8734 -1.6437
11018TIP3    H254546   6.948   2.423   0.168  0.3078 -0.6530 -0.6119
11019TIP3   OH254547   4.892   0.727  14.443 -0.1416 -0.1699 -0.1040
11019TIP3    H154548   4.877   0.644  14.487  1.3867  0.2178  1.1812
11019TIP3    H254549   4.986   0.743  14.451 -0.4561  1.8581  0.0157
11020TIP3   OH254550   6.777   4.779   1.802 -0.7649 -0.0469 -0.5005
11020TIP3    H154551   6.823   4.729   1.735  0.4645 -0.0041  0.3097
11020TIP3    H254552   6.798   4.870   1.784 -2.0834  0.1270 -1.2762
11021TIP3   OH254553   4.842   0.019   1.733  0.1559 -0.1179 -0.5740
11021TIP3    H154554   4.847   0.105   1.774 -1.8434 -0.2508 -0.0046
11021TIP3    H254555   4.811   0.036   1.644  3.7748  0.0987 -1.8959
11022TIP3   OH254556   5.326   0.533  11.905 -0.7294  0.0440 -0.4554
11022TIP3    H154557   5.406   0.496  11.867 -0.9782 -0.6315 -0.3336
11022TIP3    H254558   5.355   0.575  11.986 -0.4031  0.3542 -0.7284
11023TIP3   OH254559   0.840   6.087   1.756  0.0759  0.4188 -0.1141
11023TIP3    H154560   0.796   6.154   1.808  0.0272  0.5257 -0.2921
11023TIP3    H254561   0.859   6.130   1.673 -0.2834  0.0990 -0.3660
11024TIP3   OH254562   5.392   1.700   2.599 -0.2950  0.5023  0.6508
11024TIP3    H154563   5.457   1.770   2.612  1.0761 -0.1815 -1.9768
11024TIP3    H254564   5.423   1.655   2.520 -2.7562 -1.2693  0.6674
11025TIP3   OH254565   6.382   5.829   0.096 -0.3978  0.7241  0.1785
11025TIP3    H154566   6.424   5.756   0.140 -0.8838 -0.3278 -1.0678
11025TIP3    H254567   6.296   5.837   0.137 -0.6114  0.1528 -0.1624
11026TIP3   OH254568   2.927   6.892   4.133  0.3143  0.2940 -0.0165
11026TIP3    H154569   2.970   6.838   4.199  0.6244  0.9849  0.3526
11026TIP3    H254570   2.859   6.939   4.181 -1.0015 -0.9485 -0.6377
11027TIP3   OH254571   6.072   1.126   0.263 -0.0410 -0.0349 -0.0683
11027TIP3    H154572   6.116   1.169   0.189 -1.0795  0.0757 -0.6342
11027TIP3    H254573   6.016   1.194   0.300 -0.0549 -0.2907  0.3780
11028TIP3   OH254574   0.906   1.739   1.937 -0.4303  0.5781 -0.4124
11028TIP3    H154575   0.831   1.692   1.974 -1.5440  0.8341 -2.2886
11028TIP3    H254576   0.879   1.761   1.848  1.6094  1.3119 -0.8765
11029TIP3   OH254577   4.701   1.406   2.224 -0.0307 -0.1107 -0.4697
11029TIP3    H154578   4.683   1.499   2.220 -0.9236 -0.2360  0.6116
11029TIP3    H254579   4.644   1.367   2.157 -1.6160 -0.1702  0.8878
11030TIP3   OH254580   6.823   1.720  12.526  0.1990  0.5719 -0.2895
11030TIP3    H154581   6.893   1.687  12.583 -0.6081  0.2525  0.5255
11030TIP3    H254582   6.868   1.778  12.464  1.0781  0.9686  0.7049
11031TIP3   OH254583   4.367   2.758   2.759  0.6315 -0.1426 -0.1319
11031TIP3    H154584   4.330   2.828   2.705 -0.5626  0.2187  1.1432
11031TIP3    H254585   4.373   2.683   2.700 -0.9655  0.1525 -0.6937
11032TIP3   OH254586   6.990   1.671   0.003  0.7040 -0.0031 -0.1193
11032TIP3    H154587   6.954   1.592  -0.037  0.5855  0.0105 -0.0396
11032TIP3    H254588   7.083   1.653   0.015  0.9811  0.4022 -1.4430
11033TIP3   OH254589   4.631   5.383   0.841  0.3353 -0.0836 -0.5175
11033TIP3    H154590   4.598   5.296   0.865 -0.4085 -0.1450 -1.7263
11033TIP3    H254591   4.558   5.442   0.857  0.8773  0.3606  0.4145
11034TIP3   OH254592   6.668   5.006   1.457 -0.2719  0.0429  0.2370
11034TIP3    H154593   6.625   4.968   1.380  0.0648 -1.8786  0.9721
11034TIP3    H254594   6.761   4.987   1.444 -0.0205  1.1734  0.3251
11035TIP3   OH254595   5.866   2.900  14.502 -0.1807 -0.3002 -0.4650
11035TIP3    H154596   5.844   2.830  14.441 -2.0565 -1.1046  1.0998
11035TIP3    H254597   5.920   2.857  14.569  0.7740  0.2992 -0.8392
11036TIP3   OH254598   6.694   2.929  14.873  0.4141 -0.4001 -0.1058
11036TIP3    H154599   6.676   2.933  14.779  2.1656 -1.3789 -0.4993
11036TIP3    H254600   6.787   2.951  14.880  0.6365 -1.7543  1.2687
11037TIP3   OH254601   4.041   4.891   0.003 -0.2191  0.0398  0.9232
11037TIP3    H154602   3.997   4.808   0.021  1.6580 -0.7621  1.9578
11037TIP3    H254603   4.048   4.894  -0.092 -2.5244  0.2191  0.7200
11038TIP3   OH254604   3.550   4.413   3.759 -0.3535  0.3482  0.1879
11038TIP3    H154605   3.619   4.455   3.707 -1.6962  0.8366 -1.2504
11038TIP3    H254606   3.508   4.485   3.806 -1.0769  0.3119 -0.3870
11039TIP3   OH254607   7.149   1.284  14.045  0.0419  0.1456  0.5756
11039TIP3    H154608   7.237   1.286  14.008  0.4440 -0.5433  1.4715
11039TIP3    H254609   7.156   1.329  14.129 -0.1810 -0.9413  1.1981
11040TIP3   OH254610   4.226   6.921  14.875  0.3604 -0.3347  0.0569
11040TIP3    H154611   4.243   6.973  14.954 -0.4382 -1.0362  0.7092
11040TIP3    H254612   4.230   6.984  14.803  1.3760  0.2642  0.6265
11041TIP3   OH254613   0.707   5.792   0.242  0.4419  0.4209 -0.5910
11041TIP3    H154614   0.769   5.836   0.300  0.6649 -1.3790  0.5785
11041TIP3    H254615   0.757   5.719   0.205  0.3621  1.6472 -3.2181
11042TIP3   OH254616   1.245   2.101  13.207  0.2581  0.2724  0.6719
11042TIP3    H154617   1.330   2.070  13.176 -0.7986  0.3958 -2.6312
11042TIP3    H254618   1.260   2.193  13.229  0.7565  0.6569 -1.1155
11043TIP3   OH254619   0.056   7.130   5.820  0.7520  0.3843 -0.1149
11043TIP3    H154620  -0.027   7.150   5.863  0.8475 -0.3608  0.4319
11043TIP3    H254621   0.078   7.210   5.772 -0.8189  0.2122 -1.1491
11044TIP3   OH254622   4.157   4.029   0.415  0.1119 -0.4250  0.1535
11044TIP3    H154623   4.178   4.008   0.506 -1.0103 -1.2196  0.2536
11044TIP3    H254624   4.061   4.033   0.413  0.1411  0.0098 -0.9018
11045TIP3   OH254625   0.982   1.934   3.787 -0.0583 -0.3426 -1.1157
11045TIP3    H154626   1.066   1.935   3.742  0.3968  0.9258 -0.2701
11045TIP3    H254627   0.928   1.997   3.740  0.0278  0.0998 -0.6286
11046TIP3   OH254628   6.264   2.572  15.138  0.3471 -0.2165 -0.2344
11046TIP3    H154629   6.352   2.599  15.163  0.5349  0.7437 -1.9091
11046TIP3    H254630   6.206   2.629  15.190  0.7062 -0.3623  0.3315
11047TIP3   OH254631   1.189   5.718   2.788 -0.0551  0.2181 -0.1603
11047TIP3    H154632   1.279   5.750   2.796 -0.1743  0.2620  1.1398
11047TIP3    H254633   1.137   5.796   2.772  0.2674  0.0642 -1.9799
11048TIP3   OH254634   7.179   3.112  15.107 -0.1078  0.6605  0.2547
11048TIP3    H154635   7.139   3.151  15.029  0.5415 -0.0193 -0.4297
11048TIP3    H254636   7.274   3.122  15.093  0.0267 -0.0034  0.6718
11049TIP3   OH254637   2.860   0.834  15.495  0.2185  0.2170 -0.0527
11049TIP3    H154638   2.919   0.876  15.433  1.0311  0.1969  0.6922
11049TIP3    H254639   2.772   0.858  15.465  0.5619 -0.7224 -1.8457
11050TIP3   OH254640   6.004   2.033   4.924  0.4981  0.0789  0.8204
11050TIP3    H154641   6.078   2.094   4.920 -1.2410  2.1375 -2.6157
11050TIP3    H254642   5.999   1.996   4.836 -1.9848 -0.7631  1.2774
11051TIP3   OH254643   0.868   0.970  15.422 -0.3618  0.2241 -0.2994
11051TIP3    H154644   0.920   0.894  15.395  0.9700  0.8346  0.5230
11051TIP3    H254645   0.884   0.978  15.516 -0.5573  1.4852 -0.3707
11052TIP3   OH254646   4.337   5.966   2.234 -0.6756  0.1968  0.1173
11052TIP3    H154647   4.245   5.993   2.231 -1.3350 -2.0288 -0.8165
11052TIP3    H254648   4.378   6.013   2.161 -1.1056  1.0416  0.4121
11053TIP3   OH254649   2.380   0.413   0.944 -0.7666  0.5097  0.3643
11053TIP3    H154650   2.330   0.485   0.984  0.4112  0.6174  1.6934
11053TIP3    H254651   2.384   0.434   0.851 -3.9012  0.0834  0.0729
11054TIP3   OH254652   5.066   3.424   3.922  0.5902 -0.3618 -0.0324
11054TIP3    H154653   4.984   3.393   3.962  0.9187 -0.0494  0.8967
11054TIP3    H254654   5.087   3.357   3.857  0.1209 -0.9602  0.4139
11055TIP3   OH254655   0.068   1.744  14.250 -0.0026 -0.0692 -0.4559
11055TIP3    H154656  -0.020   1.767  14.281 -0.2319  0.3916 -1.4303
11055TIP3    H254657   0.125   1.810  14.290  0.0697 -1.0306  1.0825
11056TIP3   OH254658   5.830   6.633  11.691  0.1525  0.2961 -0.1539
11056TIP3    H154659   5.821   6.697  11.621 -0.8638  1.7795  1.3117
11056TIP3    H254660   5.884   6.677  11.757 -0.9529 -0.1513  1.0786
11057TIP3   OH254661   3.583   0.217   2.655 -0.0272 -0.7618 -0.1517
11057TIP3    H154662   3.582   0.281   2.727 -1.4506 -1.2723  0.2972
11057TIP3    H254663   3.629   0.141   2.691  2.1566  0.1878 -0.8649
11058TIP3   OH254664   0.312   4.499   3.836  0.3715 -0.3693 -0.0565
11058TIP3    H154665   0.356   4.417   3.812 -0.0356  0.0819 -2.4749
11058TIP3    H254666   0.219   4.479   3.831  0.2102 -0.9353  3.7104
11059TIP3   OH254667   5.271   2.206   1.984 -0.1498  0.1492 -0.1384
11059TIP3    H154668   5.230   2.285   1.947 -0.6341 -0.2560 -0.4773
11059TIP3    H254669   5.336   2.239   2.046  1.0563  0.8640 -1.7412
11060TIP3   OH254670   5.022   1.420  14.813 -0.4305 -0.1210  0.4237
11060TIP3    H154671   5.087   1.356  14.843  0.8524  0.1008 -1.7737
11060TIP3    H254672   4.993   1.463  14.893  0.1722 -2.0493  1.7289
11061TIP3   OH254673   4.189   2.769  11.979  0.7029 -0.0585  0.1619
11061TIP3    H154674   4.265   2.744  12.032  0.3528  0.3068  0.8414
11061TIP3    H254675   4.225   2.824  11.909  1.0270  0.3008  0.6113
11062TIP3   OH254676   4.735   6.639   1.024  0.1971 -0.8112 -0.2219
11062TIP3    H154677   4.683   6.569   1.063  0.8559 -0.7174  0.8615
11062TIP3    H254678   4.800   6.660   1.091 -0.4054  1.2757 -0.2546
11063TIP3   OH254679   0.056   6.456   2.160  0.1227  0.5479 -0.2264
11063TIP3    H154680   0.095   6.474   2.245 -1.3058  2.2797  0.0834
11063TIP3    H254681  -0.037   6.444   2.178 -0.0016 -0.3170 -1.3815
11064TIP3   OH254682   4.695   6.465  15.243 -0.2501  0.6481 -0.6963
11064TIP3    H154683   4.711   6.548  15.198 -2.0889 -0.4496 -3.5011
11064TIP3    H254684   4.735   6.399  15.186 -0.7957 -0.5817  0.3273
11065TIP3   OH254685   4.711   7.066   4.076 -0.0258  0.2283  0.0812
11065TIP3    H154686   4.798   7.049   4.111 -0.3146 -1.7307 -0.0730
11065TIP3    H254687   4.652   7.035   4.145 -0.5880 -2.2362 -1.4221
11066TIP3   OH254688   5.424   3.261  13.421 -0.0845  0.8217  0.1297
11066TIP3    H154689   5.504   3.294  13.462  0.0658 -0.3830  0.8174
11066TIP3    H254690   5.454   3.213  13.344 -0.1804  0.7039  0.1662
11067TIP3   OH254691   1.716   6.349  14.486  0.7381  0.5013  0.4537
11067TIP3    H154692   1.762   6.266  14.498 -0.0721 -0.1155 -0.5839
11067TIP3    H254693   1.716   6.389  14.573 -0.5316 -1.4638  1.4085
11068TIP3   OH254694   3.399   7.040   4.682 -0.2893  0.0596  0.7451
11068TIP3    H154695   3.340   7.115   4.680 -0.9180 -0.4301  0.6664
11068TIP3    H254696   3.373   6.986   4.607 -0.8231 -0.9543  1.6301
11069TIP3   OH254697   0.291   7.100  15.264 -0.0343 -0.1081  0.2095
11069TIP3    H154698   0.387   7.108  15.260  0.2303 -2.4583  0.9283
11069TIP3    H254699   0.276   7.018  15.311 -2.4264  0.6163  0.7941
11070TIP3   OH254700   4.256   2.886  15.560 -0.8159 -0.8291 -0.3126
11070TIP3    H154701   4.315   2.950  15.600  0.9122 -1.9153 -1.0930
11070TIP3    H254702   4.177   2.936  15.541  0.3289  0.9707 -0.4839
11071TIP3   OH254703   1.222   5.608   0.831  0.0247 -0.4964 -0.4877
11071TIP3    H154704   1.298   5.552   0.848  0.2391 -0.5851 -1.6515
11071TIP3    H254705   1.172   5.561   0.764  0.3202  0.8015 -1.6453
11072TIP3   OH254706   4.679   1.695  14.542 -0.2199 -0.5061  0.4946
11072TIP3    H154707   4.587   1.697  14.566 -0.7689  0.9223 -1.5710
11072TIP3    H254708   4.708   1.606  14.563 -2.3802 -1.3397  0.0859
11073TIP3   OH254709   6.789   3.405   4.277 -0.2415 -0.5750  0.0723
11073TIP3    H154710   6.730   3.332   4.293 -0.0863 -0.8518 -0.5782
11073TIP3    H254711   6.774   3.466   4.350  0.8105 -2.0208  1.5237
11074TIP3   OH254712   0.257   1.219  10.174 -0.3639  0.0116 -0.2987
11074TIP3    H154713   0.347   1.248  10.156 -0.6674  0.7203 -0.7384
11074TIP3    H254714   0.264   1.124  10.184  0.6716  0.2304  1.2220
11075TIP3   OH254715   1.479   6.136   2.190  0.3305  0.5059  0.0007
11075TIP3    H154716   1.421   6.210   2.174 -0.2116  0.3282  1.0909
11075TIP3    H254717   1.502   6.104   2.103 -1.0453  0.7050 -0.4534
11076TIP3   OH254718   3.965   5.784  15.112  0.2060 -0.7435  0.5018
11076TIP3    H154719   3.916   5.854  15.069 -0.2138 -1.6006 -0.4336
11076TIP3    H254720   3.897   5.727  15.148  0.4978 -1.7944 -0.5752
11077TIP3   OH254721   4.979   5.534   1.161 -0.2242 -0.1034  0.1551
11077TIP3    H154722   4.955   5.470   1.228  0.0100 -0.7328 -0.3629
11077TIP3    H254723   4.932   5.506   1.083 -1.6214  1.4255  0.4002
11078TIP3   OH254724   6.379   0.847  15.080 -0.0126  0.1741  0.2871
11078TIP3    H154725   6.370   0.842  15.175 -0.6054  0.5160  0.2500
11078TIP3    H254726   6.349   0.762  15.048  0.3471 -0.0013  0.4182
11079TIP3   OH254727   3.877   2.487   3.060  0.7724  0.0919 -0.2249
11079TIP3    H154728   3.818   2.560   3.079  2.4823  1.5184 -0.2300
11079TIP3    H254729   3.834   2.439   2.989 -0.4357  1.0310 -0.1425
11080TIP3   OH254730   4.707   1.748   0.745 -0.0788 -0.0847  0.1538
11080TIP3    H154731   4.777   1.792   0.696 -0.2026  0.3448  0.3593
11080TIP3    H254732   4.703   1.795   0.828 -1.5980  0.8286 -0.4287
11081TIP3   OH254733   4.374   1.716  14.939 -0.0131 -0.0315 -0.1140
11081TIP3    H154734   4.436   1.650  14.910  0.6602  0.5287  0.0564
11081TIP3    H254735   4.294   1.667  14.958 -0.0941 -0.5761 -1.7525
11082TIP3   OH254736   0.907   2.219  11.058 -0.4223  0.2513  0.1117
11082TIP3    H154737   0.817   2.229  11.025 -0.4966 -0.4201  0.1145
11082TIP3    H254738   0.947   2.154  11.001 -0.2753 -0.2592  0.7924
11083TIP3   OH254739   5.200   3.069   0.652 -0.2502 -0.2515 -0.0990
11083TIP3    H154740   5.259   3.143   0.642 -0.5378  0.0705  0.5906
11083TIP3    H254741   5.193   3.056   0.746 -0.1261 -1.2123 -0.2166
11084TIP3   OH254742   1.956   1.534  12.928  0.1075  0.7852 -0.0688
11084TIP3    H154743   1.898   1.576  12.991  1.3088  3.0790 -0.4361
11084TIP3    H254744   1.970   1.446  12.963  0.5615  1.9397  2.7781
11085TIP3   OH254745   5.068   5.501   3.635 -0.0572 -0.5297  0.4634
11085TIP3    H154746   5.101   5.487   3.546  1.1805 -0.4539  0.9072
11085TIP3    H254747   5.139   5.547   3.680 -1.3258  0.9126  1.0222
11086TIP3   OH254748   4.944   4.012  15.095 -0.0550  0.2355 -0.4879
11086TIP3    H154749   4.938   4.070  15.170  0.2915 -1.4264  0.8514
11086TIP3    H254750   4.868   3.954  15.102 -0.1201  0.1822 -1.5208
11087TIP3   OH254751   7.089   5.202  14.556  0.0249 -0.5427 -0.4238
11087TIP3    H154752   7.127   5.224  14.641 -1.1121 -3.3925  0.8790
11087TIP3    H254753   6.995   5.194  14.572 -0.4893  1.0290 -2.4418
11088TIP3   OH254754   0.781   5.299   4.305  0.1241 -0.1104 -0.4588
11088TIP3    H154755   0.795   5.234   4.375  0.8166  1.0625  0.5165
11088TIP3    H254756   0.839   5.270   4.234  2.5921  0.9822  1.0415
11089TIP3   OH254757   5.446   2.251  10.373  0.1478  0.3078 -0.6722
11089TIP3    H154758   5.400   2.197  10.436 -0.0262 -0.5315 -1.5007
11089TIP3    H254759   5.469   2.191  10.302  2.5389  0.6762 -0.2724
11090TIP3   OH254760   5.616   1.920   2.365 -0.5067 -0.2975  0.0653
11090TIP3    H154761   5.611   1.927   2.461 -0.8295 -2.8010  0.2723
11090TIP3    H254762   5.572   1.837   2.345  0.4309 -0.2878 -2.1729
11091TIP3   OH254763   1.678   6.962   2.771 -0.1618  0.4062 -0.3522
11091TIP3    H154764   1.737   6.890   2.748  0.3068  1.1036 -1.3181
11091TIP3    H254765   1.593   6.919   2.786  0.3801 -0.4884  0.2250
11092TIP3   OH254766   4.074   1.082  15.550 -0.2259 -0.1082 -0.7504
11092TIP3    H154767   4.119   1.135  15.615 -0.8194 -0.5972  0.0611
11092TIP3    H254768   4.015   1.143  15.506 -0.5848  0.0005 -0.1201
11093TIP3   OH254769   0.926   6.894  13.120 -0.5549 -0.3037  0.3413
11093TIP3    H154770   0.842   6.877  13.077  0.0063  1.8673 -1.6633
11093TIP3    H254771   0.918   6.982  13.156  1.0148  0.1039 -0.2681
11094TIP3   OH254772   2.984   2.016   2.256 -0.2723  0.0634  0.3893
11094TIP3    H154773   3.013   2.107   2.250 -0.1798  0.1746  2.2299
11094TIP3    H254774   2.944   2.009   2.342 -2.5516 -1.0144 -0.7204
11095TIP3   OH254775   5.463   0.496  11.610 -0.2865 -0.2605 -1.0241
11095TIP3    H154776   5.430   0.407  11.619 -0.1480 -0.5213 -2.9405
11095TIP3    H254777   5.384   0.550  11.605 -0.4018 -0.4674 -1.5505
11096TIP3   OH254778   6.195   5.996   2.818  0.1999 -0.1192  0.1439
11096TIP3    H154779   6.239   5.972   2.899 -0.3332 -0.8708  0.2214
11096TIP3    H254780   6.257   6.051   2.772  1.1766 -1.0668  0.3078
11097TIP3   OH254781   6.393   6.529   0.786  0.9051  0.0169  0.1639
11097TIP3    H154782   6.349   6.609   0.816  0.3844 -0.6853  1.2987
11097TIP3    H254783   6.328   6.460   0.799  1.3320 -0.5884 -0.8798
11098TIP3   OH254784   5.457   0.117   3.489 -0.2480  0.0075  0.3768
11098TIP3    H154785   5.485   0.208   3.481 -2.2492  0.6200  0.2797
11098TIP3    H254786   5.528   0.075   3.538  1.3213  1.3042 -0.7067
11099TIP3   OH254787   6.259   0.823   3.613  0.6627  0.0685 -0.0197
11099TIP3    H154788   6.253   0.741   3.663 -0.0178  0.0090 -0.1940
11099TIP3    H254789   6.336   0.812   3.558  0.8535 -0.2632  0.3124
11100TIP3   OH254790   5.283   2.384  15.530 -0.0171  0.1382  0.3012
11100TIP3    H154791   5.352   2.326  15.497 -0.7315  0.4863 -1.8603
11100TIP3    H254792   5.209   2.327  15.547  0.1653  0.0368  0.7502
11101TIP3   OH254793   1.445   6.899  13.917 -0.4546  0.1700 -0.3257
11101TIP3    H154794   1.353   6.911  13.940 -0.9168 -0.7690 -1.6119
11101TIP3    H254795   1.448   6.812  13.878  1.3966 -0.7822  1.7851
11102TIP3   OH254796   0.903   0.775   3.472 -0.4296 -0.2728  1.0448
11102TIP3    H154797   0.998   0.765   3.468 -0.3592  1.3776 -2.1440
11102TIP3    H254798   0.889   0.865   3.500 -1.0152  0.6043 -1.9507
11103TIP3   OH254799   0.496   1.005   0.564  0.2827 -0.5003 -0.3758
11103TIP3    H154800   0.504   0.922   0.517 -1.5962 -0.0348 -1.5805
11103TIP3    H254801   0.570   1.057   0.533 -0.5095 -0.4766 -2.2935
11104TIP3   OH254802   0.129   0.553   1.034  0.1445  0.9348  0.3550
11104TIP3    H154803   0.151   0.460   1.034 -2.3371  0.2433 -3.0634
11104TIP3    H254804   0.213   0.598   1.042  1.5019 -1.5598  0.6127
11105TIP3   OH254805   7.049   0.247  15.102 -0.6889 -0.1720 -0.7025
11105TIP3    H154806   7.074   0.259  15.011  1.9411  1.4052  0.1785
11105TIP3    H254807   7.119   0.194  15.140 -0.1933  1.7357  1.1223
11106TIP3   OH254808   3.396   3.738   3.221 -0.1001 -0.5650 -0.3266
11106TIP3    H154809   3.336   3.809   3.201  2.0587  1.9789  1.7602
11106TIP3    H254810   3.372   3.710   3.309  0.4642 -0.8768 -0.2648
11107TIP3   OH254811   0.772   0.529   2.488 -0.0841  0.4796  0.5824
11107TIP3    H154812   0.799   0.571   2.569  0.6237  0.6514  0.2628
11107TIP3    H254813   0.687   0.569   2.468  0.6552  1.9055  0.1888
11108TIP3   OH254814   6.895   7.026  15.231 -0.0045 -0.1552 -0.2018
11108TIP3    H154815   6.901   6.983  15.146  2.2357 -3.1593  1.3621
11108TIP3    H254816   6.983   7.062  15.246 -0.1997 -0.1876  1.0932
11109TIP3   OH254817   6.546   2.439  14.249  0.2092 -0.6626 -0.1454
11109TIP3    H154818   6.480   2.464  14.313 -0.1915 -0.0247 -0.7955
11109TIP3    H254819   6.627   2.428  14.300  0.8405  3.6616 -0.0201
11110TIP3   OH254820   3.741   5.896   0.393  0.0700 -0.0943 -0.4080
11110TIP3    H154821   3.682   5.962   0.430  0.0301  0.6125 -1.6917
11110TIP3    H254822   3.770   5.934   0.310  0.1353 -1.6451 -1.1078
11111TIP3   OH254823   0.070   6.169   2.288 -0.3256 -0.2355 -0.1594
11111TIP3    H154824  -0.021   6.159   2.313 -0.3514 -0.1720 -0.2275
11111TIP3    H254825   0.099   6.081   2.265 -0.8536 -0.0125 -1.7817
11112TIP3   OH254826   5.444   3.867  14.600  0.3688  1.1661  0.2678
11112TIP3    H154827   5.464   3.848  14.692  0.6534  2.5646  0.5083
11112TIP3    H254828   5.529   3.870  14.557  0.1951 -0.1398 -0.1844
11113TIP3   OH254829   4.074   7.170   0.694 -0.4297 -0.5850 -0.2229
11113TIP3    H154830   4.159   7.206   0.669 -0.1033 -0.4775  1.0133
11113TIP3    H254831   4.072   7.178   0.789 -1.6211 -1.0458 -0.2064
11114TIP3   OH254832   2.211   5.283  11.596  0.1667 -0.3419 -0.5176
11114TIP3    H154833   2.263   5.348  11.643  0.4012 -0.0287 -1.2050
11114TIP3    H254834   2.171   5.230  11.665 -0.4049  0.8157  0.0629
11115TIP3   OH254835   4.433   3.886  14.495  0.2535  0.2564 -0.2745
11115TIP3    H154836   4.487   3.965  14.494  0.5418  0.0583 -1.0112
11115TIP3    H254837   4.438   3.853  14.405 -1.1722  0.2878 -0.3778
11116TIP3   OH254838   1.663   1.938   2.071  0.3075 -0.1505  0.1063
11116TIP3    H154839   1.726   1.903   2.008 -0.8297  0.0608 -1.1686
11116TIP3    H254840   1.610   1.862   2.097 -0.4067  0.1068 -0.5912
11117TIP3   OH254841   5.319   5.729   2.969  0.0190  0.1886 -0.7400
11117TIP3    H154842   5.335   5.814   3.010  0.7039 -0.4562  0.3435
11117TIP3    H254843   5.402   5.708   2.925 -0.1656  0.1028 -1.0466
11118TIP3   OH254844   5.265   1.223   0.817  0.6721  0.5764 -0.5528
11118TIP3    H154845   5.314   1.304   0.830 -0.0077  0.8952  0.0534
11118TIP3    H254846   5.196   1.248   0.755  0.5128  0.4455 -0.4284
11119TIP3   OH254847   5.978   6.124   4.618 -0.0200 -0.0720 -0.1448
11119TIP3    H154848   5.925   6.102   4.694 -0.4383  0.5272 -0.2626
11119TIP3    H254849   5.916   6.158   4.554  0.3474 -0.4591 -0.7133
11120TIP3   OH254850   5.645   1.034  13.297  0.1875  0.6607 -0.2830
11120TIP3    H154851   5.630   1.128  13.291  0.8758  0.6380 -2.6214
11120TIP3    H254852   5.592   1.007  13.373 -1.9962  2.5257 -1.0601
11121TIP3   OH254853   2.312   3.326   3.885  0.2792 -0.8267  0.1019
11121TIP3    H154854   2.339   3.262   3.819 -0.7532 -0.7153 -0.4465
11121TIP3    H254855   2.260   3.275   3.948  1.3668 -0.9568  0.9068
11122TIP3   OH254856   1.287   3.498   0.315  0.3777 -0.1364  0.4973
11122TIP3    H154857   1.285   3.475   0.408 -0.0106 -1.1293  0.2447
11122TIP3    H254858   1.232   3.576   0.309  0.2606 -0.1692  1.0710
11123TIP3   OH254859   4.593   6.425  13.178 -0.1302 -0.3383 -0.1553
11123TIP3    H154860   4.571   6.471  13.096 -0.1849 -0.3081 -0.1234
11123TIP3    H254861   4.646   6.488  13.227 -1.9176  0.4621  0.7857
11124TIP3   OH254862   5.334   1.397   0.479 -0.1154  0.2384 -0.3389
11124TIP3    H154863   5.303   1.475   0.432  0.0404 -0.2468 -1.2688
11124TIP3    H254864   5.266   1.378   0.542 -0.2014  1.0747 -0.1710
11125TIP3   OH254865   6.781   6.424   1.159 -0.4811 -0.2862  0.3248
11125TIP3    H154866   6.854   6.368   1.135 -0.0420  0.4342 -0.0544
11125TIP3    H254867   6.800   6.508   1.117 -0.9018  0.2814  1.2451
11126TIP3   OH254868   4.277   2.744  13.886 -0.0937  0.0649  0.5319
11126TIP3    H154869   4.222   2.822  13.884 -0.0994  0.0305 -0.9559
11126TIP3    H254870   4.215   2.671  13.874  0.3003  0.0520 -1.5703
11127TIP3   OH254871   2.058   6.259   0.647 -0.3066 -0.6415 -0.4046
11127TIP3    H154872   2.014   6.205   0.581  0.8747 -2.3203  0.1597
11127TIP3    H254873   2.134   6.294   0.601 -0.4055 -0.4325 -0.4105
11128TIP3   OH254874   0.368   5.848   4.891  0.1894  0.1220 -0.4363
11128TIP3    H154875   0.388   5.773   4.946  1.3564  0.8554  0.1684
11128TIP3    H254876   0.402   5.923   4.940  0.4684  0.8770 -1.7544
11129TIP3   OH254877   6.848   2.729  14.598 -0.2350  0.3209  0.1798
11129TIP3    H154878   6.835   2.665  14.667 -0.2217  1.1375  0.9565
11129TIP3    H254879   6.940   2.754  14.605 -0.3006  0.6099  0.0504
11130TIP3   OH254880   6.519   5.940   1.666  0.0064  0.0679 -0.8741
11130TIP3    H154881   6.595   5.883   1.655 -0.1444  0.0148 -1.7056
11130TIP3    H254882   6.444   5.884   1.644 -0.2221  0.2797 -0.6335
11131TIP3   OH254883   5.011   0.615   3.330  0.3037  0.1004 -0.2552
11131TIP3    H154884   5.048   0.699   3.360 -2.5103  0.5036  2.3254
11131TIP3    H254885   4.961   0.638   3.252  0.9019  0.5295 -0.5173
11132TIP3   OH254886   5.380   2.744  14.125 -0.4037  0.0040  0.1014
11132TIP3    H154887   5.323   2.667  14.134 -1.3541  0.7273  0.3765
11132TIP3    H254888   5.334   2.813  14.173  0.8283  0.5428  0.5180
11133TIP3   OH254889   0.008   0.093   2.578  0.1052 -0.0449  0.4514
11133TIP3    H154890  -0.012   0.184   2.554 -0.0232 -0.8550 -2.7841
11133TIP3    H254891   0.104   0.091   2.583  0.2410 -0.2539 -1.8605
11134TIP3   OH254892   6.532   4.428  15.394  0.3007  0.6062 -0.4734
11134TIP3    H154893   6.517   4.374  15.471 -0.4905  2.7881  0.9804
11134TIP3    H254894   6.623   4.412  15.370  0.1413 -1.1526  0.0692
11135TIP3   OH254895   4.392   3.725   3.812 -0.1484 -0.4141 -0.3866
11135TIP3    H154896   4.425   3.800   3.861 -1.3967 -0.0248 -0.1076
11135TIP3    H254897   4.305   3.709   3.850 -0.3081 -1.3503 -1.1408
11136TIP3   OH254898   2.659   3.287   0.817 -0.4076 -0.2665 -0.2033
11136TIP3    H154899   2.606   3.240   0.881  0.1299 -0.4647  0.1047
11136TIP3    H254900   2.692   3.219   0.758  0.7447 -0.3514  0.5147
11137TIP3   OH254901   4.622   0.923   0.947  0.1084 -0.4583  0.1969
11137TIP3    H154902   4.684   0.992   0.973 -1.1414  0.9748 -0.5290
11137TIP3    H254903   4.657   0.891   0.863 -1.2014  1.8209 -1.3014
11138TIP3   OH254904   5.233   2.233   4.926  0.1967 -0.0257 -0.4537
11138TIP3    H154905   5.196   2.144   4.928 -0.7562  0.3907  2.2516
11138TIP3    H254906   5.324   2.221   4.952  0.3786 -0.3143 -1.1850
11139TIP3   OH254907   0.245   6.639  13.609  0.6587 -0.5323  0.6059
11139TIP3    H154908   0.335   6.649  13.579  1.1388  1.5272  2.6222
11139TIP3    H254909   0.210   6.728  13.610 -1.2247 -1.2574  0.3626
11140TIP3   OH254910   6.375   5.485   1.961  0.1420  0.2663  0.0688
11140TIP3    H154911   6.313   5.430   1.914  0.7788 -0.3508 -0.0588
11140TIP3    H254912   6.348   5.575   1.941  0.2373  0.0150 -1.2428
11141TIP3   OH254913   4.777   1.349  13.590  0.0103 -0.1623 -0.3432
11141TIP3    H154914   4.699   1.328  13.642  0.4823 -0.4519  0.2644
11141TIP3    H254915   4.759   1.435  13.553 -0.4889 -0.1128  0.0007
11142TIP3   OH254916   0.623   0.364  13.647  0.0512  0.9195  0.0611
11142TIP3    H154917   0.536   0.400  13.659  0.1762  1.2894 -0.1262
11142TIP3    H254918   0.623   0.330  13.557  0.7258  2.7053 -0.6398
11143TIP3   OH254919   0.476   4.398   2.356  0.8338  0.0119  0.3128
11143TIP3    H154920   0.452   4.489   2.372  0.7539  0.2718 -1.2600
11143TIP3    H254921   0.399   4.359   2.315  1.0321 -0.6550  0.5523
11144TIP3   OH254922   6.955   2.017  11.898  0.2100 -0.3427 -0.1023
11144TIP3    H154923   6.909   2.073  11.836  0.5272 -0.7806 -0.7362
11144TIP3    H254924   6.976   2.075  11.972 -1.1119 -0.0818  0.0730
11145TIP3   OH254925   5.755   3.271   0.729  0.5624  0.2842  0.4005
11145TIP3    H154926   5.762   3.359   0.766 -1.3971  0.7977 -0.3622
11145TIP3    H254927   5.689   3.228   0.783 -0.3401  0.1440 -0.8075
11146TIP3   OH254928   5.834   4.918   3.844 -0.1904 -0.0976  0.3862
11146TIP3    H154929   5.778   4.849   3.808 -0.1726 -0.5094  1.1170
11146TIP3    H254930   5.855   4.887   3.932  1.6578 -0.2328 -0.0823
11147TIP3   OH254931   1.688   6.557   0.392  0.0265  0.4008 -0.3333
11147TIP3    H154932   1.687   6.570   0.297 -1.7113  1.1586 -0.2119
11147TIP3    H254933   1.628   6.622   0.426 -0.6630 -0.9839  1.1504
11148TIP3   OH254934   4.778   1.808   3.257 -0.3476  0.6708 -0.0691
11148TIP3    H154935   4.871   1.801   3.236 -0.3045  1.3357 -0.1301
11148TIP3    H254936   4.733   1.784   3.176 -0.2313  0.1817  0.0115
11149TIP3   OH254937   4.965   1.552  14.562 -0.2233  0.4544  0.8110
11149TIP3    H154938   4.971   1.530  14.655 -1.4169 -0.4512  0.6908
11149TIP3    H254939   4.946   1.468  14.519  0.2999  0.8712 -0.2437
11150TIP3   OH254940   4.993   4.403   0.904 -0.0442 -0.3323 -0.4649
11150TIP3    H154941   4.950   4.488   0.892  1.8425  0.6270 -0.6259
11150TIP3    H254942   4.959   4.349   0.832 -2.0546 -0.0697  0.2510
11151TIP3   OH254943   3.815   0.645  15.569 -0.0242 -0.2153 -0.4674
11151TIP3    H154944   3.889   0.705  15.562  0.0356 -0.3100 -0.6434
11151TIP3    H254945   3.738   0.700  15.553 -0.3358  0.7446  3.5657
11152TIP3   OH254946   5.646   6.998   2.083  0.4018 -0.1434 -0.3158
11152TIP3    H154947   5.594   7.077   2.100  0.7454 -0.0795  0.4864
11152TIP3    H254948   5.600   6.929   2.132  0.0073 -0.4782 -1.1520
11153TIP3   OH254949   4.136   7.077   1.412  0.1569 -0.5807 -0.0116
11153TIP3    H154950   4.105   7.009   1.352  1.4176 -0.3439 -0.9492
11153TIP3    H254951   4.107   7.159   1.371  1.1276 -0.4133 -0.3830
11154TIP3   OH254952   3.150   4.667   2.892 -0.0232 -0.2046 -0.8066
11154TIP3    H154953   3.234   4.679   2.847 -1.2610 -1.5321 -3.5176
11154TIP3    H254954   3.085   4.702   2.832 -1.4049  1.9583  1.7901
11155TIP3   OH254955   4.623   5.472  15.279 -0.1080  0.3041  0.0678
11155TIP3    H154956   4.569   5.399  15.249  1.0770 -0.4942 -0.1610
11155TIP3    H254957   4.566   5.520  15.340 -1.5413  0.2904 -1.2326
11156TIP3   OH254958   3.743   1.474   5.414 -0.2134  0.5245  0.3493
11156TIP3    H154959   3.704   1.490   5.500 -0.8293  1.4122 -0.0878
11156TIP3    H254960   3.735   1.380   5.401  0.2455  0.3231  1.4349
11157TIP3   OH254961   2.055   2.963   1.119  0.6920  0.5305 -0.1857
11157TIP3    H154962   1.976   2.912   1.136  1.2178  0.2772  1.5281
11157TIP3    H254963   2.055   2.976   1.024  0.3221 -2.2667 -0.5939
11158TIP3   OH254964   5.452   2.138   5.511  0.2792 -0.0920  0.4948
11158TIP3    H154965   5.422   2.222   5.475 -1.7943 -0.8917  0.3505
11158TIP3    H254966   5.472   2.158   5.602 -0.9693  0.3753  0.6701
11159TIP3   OH254967   0.517   6.429   1.702 -0.5083 -0.8767  0.6210
11159TIP3    H154968   0.453   6.497   1.680  2.1220  1.2664 -0.6888
11159TIP3    H254969   0.572   6.421   1.624  1.2696 -2.1732  1.9615
11160TIP3   OH254970   6.962   2.592   0.869 -0.1813  0.0156 -0.4700
11160TIP3    H154971   7.027   2.628   0.930 -1.4779 -1.1531  1.6649
11160TIP3    H254972   7.014   2.547   0.803  1.2507  0.7635  0.1263
11161TIP3   OH254973   0.677   3.553   1.097 -0.4115 -0.0675 -0.0946
11161TIP3    H154974   0.727   3.622   1.141  0.7557 -0.9973  0.0637
11161TIP3    H254975   0.646   3.496   1.167  2.1803 -2.0363 -0.4622
11162TIP3   OH254976   3.004   3.468   0.507 -0.0227 -0.1849 -0.5870
11162TIP3    H154977   3.099   3.469   0.509 -0.0395  0.6714  0.1536
11162TIP3    H254978   2.979   3.387   0.551  0.3572 -0.2726 -0.5380
11163TIP3   OH254979   4.855   0.667   4.662 -0.0252  0.4778 -0.5207
11163TIP3    H154980   4.851   0.619   4.745 -1.9777  1.1462 -0.2049
11163TIP3    H254981   4.818   0.753   4.682 -2.4204 -0.0439 -2.5338
11164TIP3   OH254982   1.360   1.509   1.751 -0.0305  0.5478 -0.2841
11164TIP3    H154983   1.277   1.553   1.768 -0.3422  0.2015 -0.8951
11164TIP3    H254984   1.402   1.562   1.684  1.1230  1.8158  1.3836
11165TIP3   OH254985   7.057   1.336   1.779 -0.4370  0.7290  0.5286
11165TIP3    H154986   7.085   1.318   1.869 -1.7056  0.3277  0.8627
11165TIP3    H254987   7.010   1.419   1.785  0.1049  1.0686  0.0987
11166TIP3   OH254988   0.449   4.579  12.245  0.2818  0.1817  0.0521
11166TIP3    H154989   0.460   4.535  12.329  0.0196 -0.2420 -0.1357
11166TIP3    H254990   0.383   4.528  12.199  0.2045  0.5871 -0.2925
11167TIP3   OH254991   3.585   0.784  15.434 -0.1191 -0.4452  0.7918
11167TIP3    H154992   3.542   0.853  15.383  0.0832  0.1438  1.4145
11167TIP3    H254993   3.515   0.722  15.455 -0.1178 -0.9294 -0.5873
11168TIP3   OH254994   5.060   6.816   1.659  0.2185 -0.3274 -0.1841
11168TIP3    H154995   5.118   6.772   1.598 -0.1936 -1.8441  0.5085
11168TIP3    H254996   5.084   6.782   1.745 -2.2016 -1.5922  0.0308
11169TIP3   OH254997   1.086   6.134   1.099 -0.4359  0.5339 -0.5662
11169TIP3    H154998   1.008   6.106   1.146 -0.8450 -0.1739 -1.6401
11169TIP3    H254999   1.152   6.148   1.168 -1.6988  1.8270  0.3970
11170TIP3   OH255000   0.250   2.385  15.384  0.4723 -0.0154 -0.0068
11170TIP3    H155001   0.217   2.402  15.296  0.7779  0.0826 -0.1010
11170TIP3    H255002   0.275   2.293  15.383 -0.7610 -0.3739  0.3748
11171TIP3   OH255003   6.761   4.950  13.775 -0.5047 -0.4140  0.2325
11171TIP3    H155004   6.789   5.041  13.762 -1.7410  0.0647  0.8474
11171TIP3    H255005   6.841   4.904  13.799  0.1411  0.5068 -0.0965
11172TIP3   OH255006   4.928   4.971  15.234  0.6394 -0.0313  0.4663
11172TIP3    H155007   4.976   4.939  15.157 -1.2467  0.0295 -0.7707
11172TIP3    H255008   4.843   4.928  15.229 -0.1497  1.3613  1.5228
11173TIP3   OH255009   5.904   3.466   1.250 -0.3212 -0.1539 -0.3711
11173TIP3    H155010   5.952   3.418   1.183  1.3032 -1.3005  1.5673
11173TIP3    H255011   5.963   3.536   1.277 -0.8833  0.1852  0.0012
11174TIP3   OH255012   5.368   5.889   5.845 -0.1723 -0.5479  0.3404
11174TIP3    H155013   5.371   5.811   5.900  2.7882 -0.0909  0.9450
11174TIP3    H255014   5.351   5.961   5.907 -1.8932 -0.5824 -0.0745
11175TIP3   OH255015   1.129   0.960   0.278 -0.6025  0.1164 -0.7328
11175TIP3    H155016   1.216   0.994   0.258 -1.1114  0.2766 -2.7618
11175TIP3    H255017   1.089   1.028   0.332  0.2651  0.3590 -0.3796
11176TIP3   OH255018   3.099   0.754   2.056  0.0208  0.7201  0.3654
11176TIP3    H155019   3.032   0.704   2.010 -0.2880 -1.4373  3.0330
11176TIP3    H255020   3.054   0.794   2.130  1.6241 -0.7870  2.2132
11177TIP3   OH255021   2.044   0.988   3.815 -0.0620  0.3435 -0.0023
11177TIP3    H155022   2.002   1.064   3.773 -1.3545 -1.1409 -1.4911
11177TIP3    H255023   2.052   0.923   3.744  2.2263 -0.4550  0.9253
11178TIP3   OH255024   5.934   2.029  12.111 -0.1043 -0.0096 -0.4448
11178TIP3    H155025   5.872   2.059  12.044 -0.7056  0.5863  0.3619
11178TIP3    H255026   6.017   2.021  12.065 -0.5915  0.0254 -1.3513
11179TIP3   OH255027   5.335   2.094  13.992 -0.2401  0.0231 -0.2219
11179TIP3    H155028   5.293   2.077  13.908  1.5923  0.0207 -1.1485
11179TIP3    H255029   5.346   2.189  13.994 -0.8057  0.0829  0.2812
11180TIP3   OH255030   2.301   2.970   3.014 -0.9897  0.6519  0.1174
11180TIP3    H155031   2.313   3.006   3.102 -1.6536  0.0225  0.4682
11180TIP3    H255032   2.242   2.895   3.026 -0.9877  0.4877 -0.8440
11181TIP3   OH255033   5.802   0.705   3.575  0.1474  1.0205  0.4781
11181TIP3    H155034   5.888   0.699   3.532  0.6729 -0.5423  1.6840
11181TIP3    H255035   5.741   0.721   3.503  1.1655 -0.1737 -0.6997
11182TIP3   OH255036   3.914   4.467   2.212  0.2445  0.2570 -0.2762
11182TIP3    H155037   3.851   4.464   2.141 -0.2693 -0.1481  0.1932
11182TIP3    H255038   3.873   4.418   2.283  0.9942  0.1713  0.1065
11183TIP3   OH255039   6.579   3.563   1.253 -0.1125 -0.9262  0.4033
11183TIP3    H155040   6.568   3.545   1.159  2.7503 -3.5188  0.5002
11183TIP3    H255041   6.601   3.656   1.256 -1.3855 -0.5298 -1.3844
11184TIP3   OH255042   0.103   2.754  12.344 -0.2831 -0.1181 -0.3288
11184TIP3    H155043   0.189   2.723  12.315 -0.1825 -0.1364 -0.0183
11184TIP3    H255044   0.107   2.849  12.335  0.0031 -0.0662  0.2983
11185TIP3   OH255045   0.539   3.467   1.970  0.2241  0.2228 -0.7058
11185TIP3    H155046   0.606   3.535   1.972  0.3820  0.0505 -0.2813
11185TIP3    H255047   0.512   3.456   2.061 -0.3689  0.2810 -0.8729
11186TIP3   OH255048   3.835   1.556   3.434 -0.0426  0.5019  0.2330
11186TIP3    H155049   3.821   1.624   3.369 -1.3360 -1.5537 -1.6988
11186TIP3    H255050   3.926   1.568   3.462  0.5558  1.3688 -1.9785
11187TIP3   OH255051   0.683   4.048   0.310  0.7347  0.2886  0.3584
11187TIP3    H155052   0.764   4.044   0.361  1.1457 -0.3019 -0.3351
11187TIP3    H255053   0.699   4.114   0.243  1.9296 -2.2782 -1.9647
11188TIP3   OH255054   3.298   0.055  14.379 -0.1719  0.0161 -0.1491
11188TIP3    H155055   3.273   0.147  14.381 -1.4343 -0.3313  0.1406
11188TIP3    H255056   3.336   0.039  14.466  4.3230  1.4061 -1.6903
11189TIP3   OH255057   0.873   0.250  15.542 -0.4876  0.1203  0.0970
11189TIP3    H155058   0.844   0.259  15.633  1.5509 -1.4495  0.9593
11189TIP3    H255059   0.968   0.267  15.546  0.1207 -2.6816 -1.2440
11190TIP3   OH255060   3.199   4.551  14.837 -0.6442  0.1023 -0.2674
11190TIP3    H155061   3.210   4.621  14.773  1.8426 -0.0923 -0.0944
11190TIP3    H255062   3.172   4.597  14.917 -0.3721  0.7057 -0.5166
11191TIP3   OH255063   0.126   6.231   2.640 -0.1466  0.3229  0.1189
11191TIP3    H155064   0.220   6.215   2.642 -0.2630 -0.6261 -1.3988
11191TIP3    H255065   0.106   6.267   2.727  1.4212 -0.4875  0.8331
11192TIP3   OH255066   5.277   3.303  12.696  0.7631 -0.0154 -0.0187
11192TIP3    H155067   5.209   3.331  12.756  0.6266  0.9797 -0.6078
11192TIP3    H255068   5.230   3.273  12.618  0.9875  0.9124 -0.5241
11193TIP3   OH255069   4.296   3.326   0.546 -0.6278  0.0685  0.0949
11193TIP3    H155070   4.341   3.242   0.543 -2.6494 -1.0971  1.5789
11193TIP3    H255071   4.328   3.368   0.626  0.0762  0.5465 -0.4331
11194TIP3   OH255072   0.844   3.559   4.224  0.2804 -0.5750  0.1395
11194TIP3    H155073   0.837   3.509   4.304 -1.5554  1.7661  1.4913
11194TIP3    H255074   0.791   3.637   4.239  0.8656  0.4847 -2.8960
11195TIP3   OH255075   1.161   1.373   0.941  0.0013  0.4083 -0.2150
11195TIP3    H155076   1.247   1.346   0.910  1.7859  2.6818  2.5366
11195TIP3    H255077   1.175   1.460   0.978 -3.3212  0.4939  1.0098
11196TIP3   OH255078   2.160   4.733   1.401  0.2618 -0.0287 -0.2761
11196TIP3    H155079   2.130   4.814   1.442  1.8326  0.7148 -0.5439
11196TIP3    H255080   2.145   4.666   1.467 -1.2070  0.4570 -0.1119
11197TIP3   OH255081   0.576   6.284   0.972  0.1131 -0.1569  0.1880
11197TIP3    H155082   0.615   6.363   1.010  2.3034 -1.0419 -0.1799
11197TIP3    H255083   0.490   6.278   1.014  0.0554  2.2173  0.4956
11198TIP3   OH255084   6.821   2.911  11.776  0.6489 -0.4161  0.1715
11198TIP3    H155085   6.894   2.971  11.767  0.0192  0.1767 -1.0353
11198TIP3    H255086   6.770   2.922  11.696 -0.5626 -1.0940  0.8264
11199TIP3   OH255087   5.564   4.162  14.559  0.4792  0.2940 -0.2923
11199TIP3    H155088   5.483   4.196  14.523  1.3970  0.9998 -1.7709
11199TIP3    H255089   5.543   4.138  14.649 -1.6287 -0.5333 -0.9806
11200TIP3   OH255090   1.867   6.189   3.817  0.0434 -0.0012 -0.3418
11200TIP3    H155091   1.807   6.262   3.833 -2.0443 -1.5937 -0.6928
11200TIP3    H255092   1.950   6.231   3.793 -0.6945  2.2452  0.9151
11201TIP3   OH255093   5.115   2.078   0.723 -0.1110 -0.3709  0.0032
11201TIP3    H155094   5.104   2.173   0.729  1.8672 -0.1926  1.6053
11201TIP3    H255095   5.157   2.054   0.806 -1.4409 -2.7826  0.0080
11202TIP3   OH255096   2.385   0.995  15.279  0.2523 -0.4994  0.2094
11202TIP3    H155097   2.340   1.005  15.195  1.7017  2.2912 -0.2911
11202TIP3    H255098   2.318   1.016  15.344  0.2441  1.6632 -0.4543
11203TIP3   OH255099   6.704   5.333   1.370  0.0064  0.1994  0.1683
11203TIP3    H155100   6.773   5.302   1.427  0.6430 -0.8586 -1.1611
11203TIP3    H255101   6.627   5.281   1.394 -0.0308  0.5658  0.8451
11204TIP3   OH255102   3.013   2.525  11.962  0.3858 -0.3542 -0.0580
11204TIP3    H155103   3.028   2.492  12.051  1.3700 -0.8372 -0.3865
11204TIP3    H255104   3.098   2.513  11.918  0.3378  1.2406 -0.6281
11205TIP3   OH255105   1.633   1.546   4.009  0.4279  0.4408  0.3140
11205TIP3    H155106   1.628   1.642   4.010 -2.4173  0.3957 -2.6043
11205TIP3    H255107   1.550   1.518   4.048  2.1899 -0.9126  3.2512
11206TIP3   OH255108   0.564   4.640   0.432 -0.0650 -0.1200 -0.3201
11206TIP3    H155109   0.582   4.551   0.461 -1.1490 -0.2828 -0.1333
11206TIP3    H255110   0.629   4.656   0.363  1.5603 -0.2594  1.1365
11207TIP3   OH255111   1.461   3.026   3.776  0.5082 -0.1601 -0.3171
11207TIP3    H155112   1.388   2.967   3.793  1.5670 -1.5889 -0.6167
11207TIP3    H255113   1.483   3.012   3.684  0.9377  0.4980 -0.3192
11208TIP3   OH255114   2.025   0.506   1.443 -0.1529 -0.1485  0.2061
11208TIP3    H155115   2.006   0.530   1.352 -0.5130 -0.6022  0.1600
11208TIP3    H255116   2.119   0.522   1.453  0.0052 -0.6521 -0.4187
11209TIP3   OH255117   6.624   1.023   1.500 -0.8696  0.1640  0.1489
11209TIP3    H155118   6.554   1.034   1.565 -0.3382 -0.6975  0.8908
11209TIP3    H255119   6.582   0.975   1.428 -0.6634 -1.8363  1.3093
11210TIP3   OH255120   1.969   4.388   4.579 -0.1299  0.1434  0.5484
11210TIP3    H155121   2.037   4.446   4.545 -0.9454  0.4979 -0.4911
11210TIP3    H255122   1.998   4.300   4.555  0.6277  0.1814  1.2885
11211TIP3   OH255123   6.514   3.812   2.576 -0.2620 -0.2826 -0.7086
11211TIP3    H155124   6.430   3.843   2.541 -0.4133  1.2107  0.8797
11211TIP3    H255125   6.498   3.803   2.670  1.2869 -0.2492 -0.4338
11212TIP3   OH255126   1.245   1.085   2.938 -0.1276  0.0135 -0.1899
11212TIP3    H155127   1.205   1.009   2.895 -1.2486 -0.7512  2.1610
11212TIP3    H255128   1.334   1.088   2.902 -0.5218 -1.5559 -1.3701
11213TIP3   OH255129   2.240   1.908   1.170 -0.6147  0.3899  0.3095
11213TIP3    H155130   2.244   2.004   1.168  0.7607  0.4095  2.4670
11213TIP3    H255131   2.270   1.885   1.257 -1.5223 -2.0068  0.0168
11214TIP3   OH255132   1.949   3.250   0.991 -0.2921 -0.4120  0.2379
11214TIP3    H155133   1.998   3.178   0.951 -0.5035 -0.8159  0.7023
11214TIP3    H255134   1.908   3.211   1.069  0.6129  0.5191  1.1973
11215TIP3   OH255135   0.957   2.393  14.760  0.0107 -0.3104  0.3700
11215TIP3    H155136   0.958   2.473  14.812 -1.1520  0.2024 -0.4012
11215TIP3    H255137   0.878   2.347  14.788 -0.6772  0.0196 -1.0376
11216TIP3   OH255138   0.010   6.750  15.593  0.2220 -0.0449 -0.6844
11216TIP3    H155139  -0.046   6.787  15.662  3.9035  1.3163  1.7194
11216TIP3    H255140  -0.037   6.672  15.564 -2.5646  0.6358  1.7171
11217TIP3   OH255141   1.667   2.381  15.540 -0.1294 -0.2224  0.1418
11217TIP3    H155142   1.673   2.384  15.445  0.2110 -1.3472  0.1262
11217TIP3    H255143   1.751   2.416  15.570 -1.5717  3.5231  0.0813
11218TIP3   OH255144   5.573   2.244  15.323 -0.1199 -0.3600  0.2125
11218TIP3    H155145   5.529   2.175  15.373  0.2274 -0.6167  0.1709
11218TIP3    H255146   5.506   2.280  15.266 -0.7098  0.4353  1.3925
11219TIP3   OH255147   1.091   2.670   4.176 -0.0886 -0.7868  0.7662
11219TIP3    H155148   1.022   2.688   4.241  0.0251 -1.7905  1.1763
11219TIP3    H255149   1.140   2.597   4.213  1.8975  0.6310  0.9994
11220TIP3   OH255150   0.100   5.023   1.609  0.8173 -0.2587  0.0695
11220TIP3    H155151   0.126   4.938   1.573  0.2143 -1.6049  2.6585
11220TIP3    H255152   0.183   5.067   1.629  1.1779 -1.7958  2.1337
11221TIP3   OH255153   1.687   4.192   1.492  0.0435 -0.4815 -0.0857
11221TIP3    H155154   1.647   4.253   1.554  1.1752 -0.9988  1.1798
11221TIP3    H255155   1.616   4.167   1.433 -0.6145  1.4211 -0.1131
11222TIP3   OH255156   5.349   0.541   0.761 -0.0896  0.4830  0.1015
11222TIP3    H155157   5.428   0.569   0.807 -0.6429  2.2152  0.0330
11222TIP3    H255158   5.382   0.492   0.685  0.9203  1.3402 -0.0196
11223TIP3   OH255159   1.187   0.726   3.356 -0.0309 -0.0557  0.3177
11223TIP3    H155160   1.125   0.790   3.321  0.1849 -0.8317 -1.4990
11223TIP3    H255161   1.139   0.643   3.354 -0.4823  0.0800  3.1116
11224TIP3   OH255162   5.102   3.673   2.723  0.3195 -0.7866  0.7124
11224TIP3    H155163   5.042   3.665   2.798 -0.7318  2.8641  0.3974
11224TIP3    H255164   5.046   3.703   2.651  2.3344  2.0795  0.2390
11225TIP3   OH255165   2.351   4.118   4.486 -0.0645  0.2915  0.4423
11225TIP3    H155166   2.412   4.160   4.546 -0.8742  0.2193  1.3300
11225TIP3    H255167   2.292   4.068   4.542  0.6484 -1.7419 -0.5791
11226TIP3   OH255168   5.169   3.888   0.903  0.2011 -0.3458 -0.3461
11226TIP3    H155169   5.213   3.906   0.987  2.0634 -2.0461 -0.9190
11226TIP3    H255170   5.075   3.893   0.924  0.6366  0.7318  1.4969
11227TIP3   OH255171   2.225   1.611   1.389  0.6537 -0.5801 -0.5522
11227TIP3    H155172   2.135   1.592   1.416  1.7088 -2.2431  2.0223
11227TIP3    H255173   2.239   1.702   1.415 -0.6136  0.0589 -2.0109
11228TIP3   OH255174   2.262   0.054  13.942  0.4828 -1.0338  0.6694
11228TIP3    H155175   2.302   0.107  14.012  0.0917  0.0725  0.0625
11228TIP3    H255176   2.229   0.118  13.879  1.8558 -2.0427 -1.1257
11229TIP3   OH255177   1.329   2.684   0.935  0.3898  0.2237 -0.4248
11229TIP3    H155178   1.343   2.624   0.862  0.6713 -1.2134  0.7806
11229TIP3    H255179   1.416   2.699   0.971  0.1884  0.4876 -0.0451
11230TIP3   OH255180   2.708   2.815  14.971 -0.1110 -0.0204 -0.3550
11230TIP3    H155181   2.688   2.732  15.015  2.3926 -0.3343  0.2754
11230TIP3    H255182   2.751   2.789  14.889  1.0656  0.6543  0.0413
11231TIP3   OH255183   1.467   4.705   4.118  0.3335  0.5674 -0.4683
11231TIP3    H155184   1.539   4.698   4.180  0.0547  0.9035 -0.1082
11231TIP3    H255185   1.439   4.614   4.103  0.1425  0.5136  0.1983
11232TIP3   OH255186   6.031   0.951   4.197  0.0123 -0.2307  0.0211
11232TIP3    H155187   6.094   0.972   4.128  3.6696 -0.9591  2.9790
11232TIP3    H255188   6.025   0.856   4.196 -0.9821 -0.1698 -0.1747
11233TIP3   OH255189   4.811   0.959   2.399  0.4049 -0.3340  0.0365
11233TIP3    H155190   4.733   0.999   2.361  1.2528  2.5018  1.1567
11233TIP3    H255191   4.867   0.938   2.324  0.6643  2.2106 -0.5209
11234TIP3   OH255192   6.774   4.354   5.241  0.4334 -0.5131  0.2034
11234TIP3    H155193   6.684   4.387   5.234  0.1671 -1.0649  0.9160
11234TIP3    H255194   6.776   4.309   5.325  1.8154  0.8032  0.9075
11235TIP3   OH255195   1.369   3.684   1.879 -0.3853 -0.2120  0.2081
11235TIP3    H155196   1.435   3.617   1.864 -0.0664 -0.0087  0.6818
11235TIP3    H255197   1.286   3.636   1.882  0.0925 -0.9541  3.1657
11236TIP3   OH255198   1.157   3.268  14.375  0.0535 -0.6212  0.6002
11236TIP3    H155199   1.177   3.361  14.368 -0.3061 -0.4378  1.9241
11236TIP3    H255200   1.062   3.262  14.367  0.1812 -1.0174 -0.8160
11237TIP3   OH255201   3.870   4.535  15.256  0.7178  0.1269 -0.4105
11237TIP3    H155202   3.883   4.456  15.309  0.7089  0.5257  0.1891
11237TIP3    H255203   3.890   4.507  15.167  1.9184 -0.2461 -0.0336
11238TIP3   OH255204   0.584   5.999   0.127 -0.2658  0.0832 -0.3423
11238TIP3    H155205   0.503   5.998   0.178  0.1757  0.7370  0.3801
11238TIP3    H255206   0.625   5.914   0.145 -0.7959 -0.2612 -0.7331
11239TIP3   OH255207   3.081   1.874   5.171 -0.2301 -0.4392  0.5026
11239TIP3    H155208   3.080   1.789   5.128 -0.8324  0.2854 -0.9572
11239TIP3    H255209   3.172   1.886   5.199 -0.5534 -2.4386  2.5716
11240TIP3   OH255210   5.359   1.874   3.452  0.0735 -0.3486  0.6033
11240TIP3    H155211   5.373   1.783   3.425 -0.2752  0.0022 -0.7939
11240TIP3    H255212   5.440   1.919   3.427 -0.2134 -0.0421  0.2136
11241TIP3   OH255213   5.406   1.371   2.542  0.2189 -0.2748  0.0125
11241TIP3    H155214   5.372   1.320   2.469 -0.9928 -2.4598  2.0419
11241TIP3    H255215   5.380   1.322   2.620  4.0119  0.4314  1.8340
11242TIP3   OH255216   1.189   2.881   2.636 -0.0382  0.0103  0.6152
11242TIP3    H155217   1.269   2.850   2.593 -1.2518 -1.7997 -0.4271
11242TIP3    H255218   1.141   2.800   2.657 -2.6029  1.1068 -0.7822
11243TIP3   OH255219   0.181   6.485   0.631  0.6056  0.3285  0.1682
11243TIP3    H155220   0.097   6.502   0.675  0.9519  0.2522  0.8624
11243TIP3    H255221   0.156   6.446   0.547 -0.0821  1.0216  0.0411
11244TIP3   OH255222   2.596   2.200   0.735  0.2516  0.0686  0.1369
11244TIP3    H155223   2.574   2.112   0.704  0.2928  0.6390 -1.5461
11244TIP3    H255224   2.687   2.193   0.766  0.6818 -0.1791 -1.1760
11245TIP3   OH255225   0.828   4.710  12.244 -0.4060  0.1406  0.2228
11245TIP3    H155226   0.840   4.694  12.150  0.9409 -0.3618  0.4740
11245TIP3    H255227   0.768   4.641  12.271  0.5238 -0.7558  0.0525
11246TIP3   OH255228   0.181   5.039   1.259 -0.6514 -0.2682 -0.1047
11246TIP3    H155229   0.086   5.027   1.262 -0.6169 -0.3392  0.9313
11246TIP3    H255230   0.194   5.110   1.197 -1.3640 -0.4210 -0.4405
11247TIP3   OH255231   6.516   3.474   1.910 -0.6832  0.7045  0.2633
11247TIP3    H155232   6.496   3.437   1.824  0.5766  0.0419  0.2406
11247TIP3    H255233   6.513   3.569   1.897  0.5413  0.6143 -0.7766
11248TIP3   OH255234   6.952   6.983   4.413  0.2353  1.0763 -0.3790
11248TIP3    H155235   6.857   6.977   4.405  0.1601 -0.9258  1.6300
11248TIP3    H255236   6.982   6.892   4.416  2.2346  1.6831 -0.9626
11249TIP3   OH255237   5.123   1.706   2.635 -0.0551  0.0175 -0.2335
11249TIP3    H155238   5.053   1.717   2.570 -1.2083  0.6643  1.1088
11249TIP3    H255239   5.203   1.702   2.583 -1.0811 -0.7046 -1.7891
11250TIP3   OH255240   1.948   1.428  14.216  0.3794  0.4867  0.4697
11250TIP3    H155241   1.856   1.443  14.193  0.6925  1.7242  0.0024
11250TIP3    H255242   1.997   1.478  14.151  1.3991 -0.4807  0.4952
11251TIP3   OH255243   5.997   1.481  14.084 -0.6364  0.3015 -0.0949
11251TIP3    H155244   5.939   1.422  14.035  0.8560  0.2078 -1.8100
11251TIP3    H255245   5.994   1.564  14.035  1.2779  0.0525 -0.6900
11252TIP3   OH255246   2.801   3.053  15.118 -0.5195  0.5074  0.8394
11252TIP3    H155247   2.871   3.040  15.181 -0.2778  0.8265  0.6403
11252TIP3    H255248   2.808   2.980  15.057  0.0002  0.8508  0.4880
11253TIP3   OH255249   2.703   6.384   3.204 -0.5278 -0.4907  0.1088
11253TIP3    H155250   2.793   6.411   3.220 -0.9192  0.7643  0.1968
11253TIP3    H255251   2.650   6.461   3.224 -1.7156 -1.5271  1.0579
11254TIP3   OH255252   3.390   4.084  11.966  0.4770  0.0256 -0.1888
11254TIP3    H155253   3.439   4.009  11.931  0.2569 -0.0540 -0.3318
11254TIP3    H255254   3.300   4.068  11.938  0.6812  1.1274 -1.5665
11255TIP3   OH255255   0.794   3.326  14.733 -0.2664 -0.5820 -0.2333
11255TIP3    H155256   0.857   3.352  14.665 -1.2778 -1.9087 -1.7159
11255TIP3    H255257   0.828   3.245  14.769 -0.1206 -0.2709  0.3384
11256TIP3   OH255258   0.576   2.920   1.181  0.4638 -0.0899  0.5163
11256TIP3    H155259   0.527   2.907   1.100  2.1116 -0.5772 -0.4260
11256TIP3    H255260   0.547   3.005   1.213  0.2444  0.3909 -0.9191
11257TIP3   OH255261   5.814   3.626  13.346  0.3403  0.1228 -0.1794
11257TIP3    H155262   5.877   3.563  13.380  0.0779 -0.7887 -1.3620
11257TIP3    H255263   5.767   3.657  13.424 -0.2155 -1.9042  0.3274
11258TIP3   OH255264   1.174   2.812   2.163 -0.0197 -0.1871  0.3989
11258TIP3    H155265   1.124   2.846   2.089  0.2697 -1.2872 -0.3102
11258TIP3    H255266   1.191   2.889   2.218  0.4441  0.7707 -1.0648
11259TIP3   OH255267   4.181   1.424   2.554 -0.0933 -0.3684 -0.3049
11259TIP3    H155268   4.198   1.384   2.640 -0.3272 -1.6408 -0.8311
11259TIP3    H255269   4.221   1.362   2.492  0.9154  1.0225 -1.0585
11260TIP3   OH255270   0.671   0.843   0.142 -0.2856 -0.0016  0.3244
11260TIP3    H155271   0.611   0.899   0.093 -2.4942 -2.9242 -0.4180
11260TIP3    H255272   0.754   0.848   0.094 -0.4403  2.5823  0.2783
11261TIP3   OH255273   1.188   1.787   2.678  0.2045  0.6495 -0.3878
11261TIP3    H155274   1.186   1.882   2.677 -2.7740  0.6339 -1.8050
11261TIP3    H255275   1.212   1.761   2.589 -2.1481  0.1164 -0.9106
11262TIP3   OH255276   6.134   3.148   3.376  0.2516 -0.4319  0.1105
11262TIP3    H155277   6.226   3.148   3.351 -0.0622 -1.5215 -1.0696
11262TIP3    H255278   6.098   3.228   3.339  0.6459 -0.1689  0.2951
11263TIP3   OH255279   1.684   7.121   0.741 -0.0196 -0.4215 -0.2976
11263TIP3    H155280   1.666   7.163   0.657  1.1254  0.4217 -0.1342
11263TIP3    H255281   1.701   7.029   0.719  2.1764  0.1755 -1.2365
11264TIP3   OH255282   3.318   5.545   3.732  0.5161  0.0073  0.0348
11264TIP3    H155283   3.228   5.556   3.763  0.2314 -1.3317 -0.3064
11264TIP3    H255284   3.313   5.478   3.664  1.7457  0.0390 -0.1053
11265TIP3   OH255285   0.507   1.418   1.572  0.4693 -0.1108 -0.0031
11265TIP3    H155286   0.527   1.389   1.661 -1.9305  1.8753  1.2472
11265TIP3    H255287   0.540   1.508   1.569 -2.7973  1.1608  0.1924
11266TIP3   OH255288   5.429   6.639   1.409 -0.0688 -0.4547 -0.3750
11266TIP3    H155289   5.432   6.567   1.346  2.5847  0.5438 -1.4655
11266TIP3    H255290   5.520   6.667   1.418 -0.9584  2.3973  0.4452
11267TIP3   OH255291   5.245   2.740   2.005 -0.0141 -0.1474  0.2533
11267TIP3    H155292   5.278   2.669   2.060 -0.6918  0.7968  1.9176
11267TIP3    H255293   5.155   2.713   1.983 -0.8744  0.9355  2.2864
11268TIP3   OH255294   3.218   5.936   1.357 -0.6499  0.2277 -0.6980
11268TIP3    H155295   3.136   5.896   1.330 -1.0306  1.1046 -0.8679
11268TIP3    H255296   3.222   5.920   1.451 -0.9704  0.1010 -0.7044
11269TIP3   OH255297   2.703   0.026   1.135 -0.4908 -0.4052 -0.1711
11269TIP3    H155298   2.629   0.069   1.091  0.7201  1.9613  0.0349
11269TIP3    H255299   2.664  -0.017   1.211 -1.6399  1.0822  0.1085
11270TIP3   OH255300   2.126   5.905  15.121 -0.0215 -0.3253  0.2610
11270TIP3    H155301   2.170   5.825  15.149 -2.7382 -2.3344 -0.9261
11270TIP3    H255302   2.079   5.935  15.200 -0.2924 -0.8038  0.2822
11271TIP3   OH255303   2.158   5.869   1.653 -0.1873 -0.6220 -0.3348
11271TIP3    H155304   2.245   5.831   1.666 -1.4874 -3.5470 -0.0094
11271TIP3    H255305   2.155   5.942   1.716  2.9566  1.2627 -2.1750
11272TIP3   OH255306   2.242   3.971  13.653  0.2935  0.2860 -0.9208
11272TIP3    H155307   2.304   4.005  13.589  0.7933 -0.9868 -1.1225
11272TIP3    H255308   2.295   3.918  13.713 -0.2205  1.1408  0.3202
11273TIP3   OH255309   1.759   2.366   4.465 -0.1004  0.3926 -0.5624
11273TIP3    H155310   1.707   2.372   4.385 -0.5851  1.1718 -0.1983
11273TIP3    H255311   1.788   2.275   4.469  0.1291  0.4043 -1.7488
11274TIP3   OH255312   6.327   6.991   3.845 -0.3988  0.2924  0.2219
11274TIP3    H155313   6.234   7.010   3.837 -0.0732  2.7264  1.5926
11274TIP3    H255314   6.362   7.006   3.757 -0.8251  2.5176  0.3861
11275TIP3   OH255315   6.483   0.383   3.564  0.2795 -0.7188 -0.3537
11275TIP3    H155316   6.442   0.345   3.642  0.3895  0.7435  0.4313
11275TIP3    H255317   6.562   0.330   3.550  1.6615  0.6372  2.0801
11276TIP3   OH255318   0.518   3.027   6.145 -0.3223 -0.1173 -0.8540
11276TIP3    H155319   0.462   3.053   6.218 -0.3166 -1.0225 -0.5240
11276TIP3    H255320   0.587   3.094   6.143  0.3233 -0.7136  0.7078
11277TIP3   OH255321   6.349   1.751   3.113  0.0288 -0.4594 -0.2975
11277TIP3    H155322   6.414   1.808   3.072 -0.0712 -0.7931 -0.9380
11277TIP3    H255323   6.359   1.766   3.207 -0.4710  1.1054 -0.4969
11278TIP3   OH255324   5.894   1.276  13.920 -0.3140 -0.2374  0.0220
11278TIP3    H155325   5.808   1.238  13.939 -0.5892 -0.4235 -1.5594
11278TIP3    H255326   5.933   1.216  13.856  0.5039  0.5013 -0.1821
11279TIP3   OH255327   4.425   3.270  15.581 -0.1522  0.0846  0.2449
11279TIP3    H155328   4.517   3.267  15.606  0.0409  2.3978 -0.0976
11279TIP3    H255329   4.377   3.248  15.661  0.6352  1.0013  0.9775
11280TIP3   OH255330   3.863   3.542  13.288 -0.1614 -0.0588 -0.1632
11280TIP3    H155331   3.827   3.567  13.203  0.2879  0.8976 -0.0791
11280TIP3    H255332   3.933   3.605  13.304  0.0328 -0.4884  0.7251
11281TIP3   OH255333   7.108   4.929   0.639  0.6417 -0.0905 -0.3246
11281TIP3    H155334   7.199   4.901   0.635  0.7634  0.3676 -0.8627
11281TIP3    H255335   7.060   4.863   0.589  0.5865 -0.6868  0.5074
11282TIP3   OH255336   5.131   0.497   1.743  0.1018  0.6716  0.1332
11282TIP3    H155337   5.040   0.490   1.773  0.2538  0.5784  0.5711
11282TIP3    H255338   5.178   0.533   1.817  0.3423  1.1698 -0.2547
11283TIP3   OH255339   3.042   2.721   0.551 -0.0535  0.1286 -0.2585
11283TIP3    H155340   2.979   2.793   0.549  0.7433  0.9514  1.9130
11283TIP3    H255341   3.063   2.705   0.459 -1.8820  1.2094 -0.8946
11284TIP3   OH255342   1.688   2.174   1.493 -0.4244 -0.3414 -0.3768
11284TIP3    H155343   1.741   2.114   1.440 -0.6789  0.0551 -1.0844
11284TIP3    H255344   1.659   2.121   1.567  1.6749 -0.3371  0.4878
11285TIP3   OH255345   0.813   7.157   4.223 -0.4653  0.1640  0.1145
11285TIP3    H155346   0.788   7.073   4.262 -0.7789 -1.1285 -2.7490
11285TIP3    H255347   0.894   7.181   4.269 -0.0016 -2.0409  0.5241
11286TIP3   OH255348   1.206   2.596  15.519 -0.3636  0.2103 -0.7381
11286TIP3    H155349   1.298   2.581  15.538 -0.4352  0.0641 -0.5063
11286TIP3    H255350   1.168   2.509  15.513 -0.1463  0.2227 -2.5531
11287TIP3   OH255351   2.990   5.912  13.562  0.7527 -0.2516 -0.0750
11287TIP3    H155352   3.016   5.948  13.647  1.1149  0.9937 -0.7032
11287TIP3    H255353   3.034   5.966  13.498 -1.9574  0.8070 -1.1358
11288TIP3   OH255354   1.727   2.038   1.730  0.8246 -0.3185  0.0629
11288TIP3    H155355   1.754   2.068   1.817  1.5066  3.1498 -1.2614
11288TIP3    H255356   1.792   1.972   1.707  1.1027 -0.7094  1.8357
11289TIP3   OH255357   6.602   1.807   2.829 -0.1686  0.1253 -0.7370
11289TIP3    H155358   6.643   1.877   2.778 -1.0312  0.8404 -0.4689
11289TIP3    H255359   6.557   1.853   2.899  0.5268 -0.8187  0.3349
11290TIP3   OH255360   3.353   0.378  14.983 -0.0665  0.0878  0.5801
11290TIP3    H155361   3.426   0.396  15.042 -1.0214 -0.7181  2.0612
11290TIP3    H255362   3.379   0.414  14.899  1.5365  0.8333  1.3912
11291TIP3   OH255363   6.776   0.089   0.336 -0.6929 -0.6119  0.2955
11291TIP3    H155364   6.682   0.098   0.353 -0.4103  3.0444  0.2571
11291TIP3    H255365   6.816   0.097   0.423 -0.2638  0.6320 -0.0148
11292TIP3   OH255366   1.185   0.506  11.505 -0.0189  0.3423  0.2254
11292TIP3    H155367   1.122   0.578  11.505  0.1514  0.4890  0.6394
11292TIP3    H255368   1.263   0.543  11.464 -0.0068  0.3295  0.2369
11293TIP3   OH255369   2.763   1.196  13.742  0.4645  0.4534  0.0180
11293TIP3    H155370   2.755   1.103  13.763  1.2431  0.1320 -1.0650
11293TIP3    H255371   2.792   1.237  13.823  2.0382 -0.5514 -0.0218
11294TIP3   OH255372   0.476   2.405   0.402  0.2696 -0.2538 -0.1047
11294TIP3    H155373   0.557   2.451   0.382  0.3817 -0.3270  0.1934
11294TIP3    H255374   0.497   2.312   0.393 -0.3435 -0.2203 -2.2403
11295TIP3   OH255375   0.544   1.250   1.329 -0.0545  0.0386  0.3548
11295TIP3    H155376   0.540   1.298   1.247 -1.0841 -0.6458 -0.0043
11295TIP3    H255377   0.508   1.310   1.394  0.9927  0.6717  0.3567
11296TIP3   OH255378   6.824   1.851  10.179 -0.4646 -0.0678 -0.1668
11296TIP3    H155379   6.773   1.925  10.212  0.0320  0.2348 -0.0637
11296TIP3    H255380   6.816   1.856  10.084 -2.5732 -1.4206 -0.0861
11297TIP3   OH255381   2.654   1.326  14.741 -0.6051 -0.0010 -0.3651
11297TIP3    H155382   2.728   1.340  14.682 -1.0967  0.5137 -0.8800
11297TIP3    H255383   2.580   1.369  14.697 -0.9169  0.6620  0.7797
11298TIP3   OH255384   1.659   2.533   0.248  0.9464  0.6550 -0.2138
11298TIP3    H155385   1.695   2.520   0.336  0.7475  1.1533 -0.0611
11298TIP3    H255386   1.693   2.458   0.198  0.4503 -0.0349  0.4725
11299TIP3   OH255387   5.050   6.665   2.829 -0.0871 -0.1343  0.0527
11299TIP3    H155388   5.082   6.607   2.898 -0.2976 -1.0543 -0.6245
11299TIP3    H255389   5.104   6.646   2.753 -0.2789  0.4276 -0.2302
11300TIP3   OH255390   4.988   1.405   4.731 -0.1621  0.7674 -0.4236
11300TIP3    H155391   4.968   1.319   4.768  0.9495  0.3010 -0.8998
11300TIP3    H255392   4.944   1.406   4.646  1.8531 -0.2918 -1.5103
11301TIP3   OH255393   3.215   3.097   0.911  0.2601 -0.0861 -0.6635
11301TIP3    H155394   3.225   3.138   0.997 -3.6207 -0.4153  0.0399
11301TIP3    H255395   3.235   3.168   0.849  0.7776  0.8198  0.5139
11302TIP3   OH255396   0.347   4.613  13.863 -0.7650 -0.8991 -0.1350
11302TIP3    H155397   0.391   4.630  13.946 -0.9494 -0.8565 -0.0466
11302TIP3    H255398   0.353   4.696  13.816 -0.9490 -0.8271 -0.0313
11303TIP3   OH255399   4.225   0.235   1.615  0.2533 -0.4643 -0.2814
11303TIP3    H155400   4.229   0.288   1.535 -2.1348  1.2515  0.6793
11303TIP3    H255401   4.275   0.286   1.679 -1.1365  0.1264  0.3550
11304TIP3   OH255402   3.805   0.873  13.318  0.2151  0.2498 -0.1892
11304TIP3    H155403   3.772   0.922  13.393  0.1499 -0.9866  0.5911
11304TIP3    H255404   3.732   0.873  13.255  0.2212  1.1549 -0.1989
11305TIP3   OH255405   4.812   3.509   0.301 -0.0087  0.2410 -0.3381
11305TIP3    H155406   4.845   3.599   0.302 -0.5827  0.5283 -2.9818
11305TIP3    H255407   4.725   3.516   0.341  0.6123  0.5312  1.0193
11306TIP3   OH255408   3.416   1.948  15.087 -0.3905  0.3245  0.5928
11306TIP3    H155409   3.372   2.018  15.135 -2.6856 -0.3814 -0.3869
11306TIP3    H255410   3.385   1.958  14.997  2.1226  0.2783 -0.3004
11307TIP3   OH255411   0.807   2.371   2.207  0.3973  0.5420 -0.2357
11307TIP3    H155412   0.884   2.408   2.249 -0.4178  2.6522 -0.5316
11307TIP3    H255413   0.733   2.415   2.249 -0.5839 -0.4033 -0.9464
11308TIP3   OH255414   6.712   7.141   2.250  0.3901  0.5367 -0.6923
11308TIP3    H155415   6.771   7.160   2.323  0.7255  0.6448 -0.9927
11308TIP3    H255416   6.668   7.225   2.233 -0.8245  0.1484  0.3929
11309TIP3   OH255417   6.689   6.298   1.659 -0.2343 -0.2745 -0.4989
11309TIP3    H155418   6.610   6.343   1.630 -0.6771  0.6695  2.0367
11309TIP3    H255419   6.704   6.331   1.748  2.9888 -0.4672 -0.9188
11310TIP3   OH255420   7.129   6.044   2.581  0.4398 -0.1306 -0.0191
11310TIP3    H155421   7.064   6.093   2.529  2.0791 -0.3890 -2.3841
11310TIP3    H255422   7.196   6.108   2.602  0.7350 -0.4845  0.1128
11311TIP3   OH255423   1.469   1.832   2.920 -0.0265  0.0689  0.6199
11311TIP3    H155424   1.405   1.787   2.974  0.0041 -0.5448  0.1477
11311TIP3    H255425   1.548   1.836   2.974 -0.6653  1.4888  1.4891
11312TIP3   OH255426   0.429   2.084   2.235 -0.0530 -0.0316 -0.0583
11312TIP3    H155427   0.376   2.046   2.164  0.7573 -1.4575  0.0735
11312TIP3    H255428   0.379   2.065   2.315 -1.4952  2.5203 -0.3187
11313TIP3   OH255429   4.878   5.556  15.380 -0.2063 -0.2962  0.0610
11313TIP3    H155430   4.822   5.587  15.451 -1.2382 -0.3019 -0.7430
11313TIP3    H255431   4.822   5.499  15.328 -0.4354  2.2220 -2.5966
11314TIP3   OH255432   0.166   5.787   4.277 -0.0195  0.1878  0.0786
11314TIP3    H155433   0.135   5.782   4.367  0.4583 -0.9214  0.1905
11314TIP3    H255434   0.258   5.814   4.284  0.0141  0.1162 -0.0757
11315TIP3   OH255435   4.708   5.199   1.412  0.0264  0.0126  0.2553
11315TIP3    H155436   4.625   5.196   1.363  0.9086  1.3546 -1.4020
11315TIP3    H255437   4.719   5.111   1.446  0.2191 -1.5383 -3.5143
11316TIP3   OH255438   5.493   1.233   3.943 -0.7486 -0.0806 -0.2691
11316TIP3    H155439   5.569   1.260   3.891 -0.0601  1.8342  1.6372
11316TIP3    H255440   5.469   1.148   3.908  1.5448 -0.1851 -1.7066
11317TIP3   OH255441   2.242   7.170   0.438 -0.2573  0.0283  0.1207
11317TIP3    H155442   2.219   7.082   0.467  1.4360 -1.4601 -2.9223
11317TIP3    H255443   2.178   7.191   0.371 -0.1899  0.8206  0.2969
11318TIP3   OH255444   2.729   4.065   2.735 -0.3758 -0.5000  0.1872
11318TIP3    H155445   2.730   4.086   2.642 -0.6969 -1.3007  0.0053
11318TIP3    H255446   2.804   4.006   2.747 -0.2947 -0.3439  0.4510
11319TIP3   OH255447   6.585   3.838   0.586  0.9121  0.5618  1.2479
11319TIP3    H155448   6.512   3.842   0.648  0.9736  0.8792  1.2984
11319TIP3    H255449   6.599   3.929   0.559 -0.4296  0.1758 -0.7679
11320TIP3   OH255450   6.793   3.296   3.425 -0.1604 -0.2248 -0.1118
11320TIP3    H155451   6.836   3.259   3.347 -1.4376 -0.9534 -0.4944
11320TIP3    H255452   6.849   3.369   3.451  0.8220 -0.5949 -1.1232
11321TIP3   OH255453   3.667   1.418  12.038  0.4417 -0.4801 -0.1869
11321TIP3    H155454   3.676   1.513  12.029 -1.8397 -0.2828 -0.6434
11321TIP3    H255455   3.694   1.383  11.953 -0.1536 -0.1302 -0.5202
11322TIP3   OH255456   1.486   4.004   3.997  0.6220 -0.6589  0.6630
11322TIP3    H155457   1.539   4.084   3.992 -0.3140 -0.1821 -2.2967
11322TIP3    H255458   1.415   4.026   4.058  3.0111 -0.8959  3.6839
11323TIP3   OH255459   1.374   3.538   3.097  0.4065 -0.2531  0.5262
11323TIP3    H155460   1.376   3.630   3.124 -0.2033 -0.2013  0.4163
11323TIP3    H255461   1.448   3.498   3.142  0.9305  0.3872  0.2334
11324TIP3   OH255462   1.155   3.721   2.155 -0.3312  0.1567  1.0016
11324TIP3    H155463   1.133   3.662   2.227  0.1947 -1.3670 -0.0533
11324TIP3    H255464   1.180   3.662   2.084 -0.2812  1.6599 -0.2309
11325TIP3   OH255465   6.680   3.558   2.859  0.3354 -0.0087 -0.1442
11325TIP3    H155466   6.606   3.498   2.856 -0.0844  0.5279 -0.8671
11325TIP3    H255467   6.735   3.526   2.930  0.1550 -1.2889 -0.5690
11326TIP3   OH255468   1.388   4.024  12.053 -1.2198  0.1806  0.1036
11326TIP3    H155469   1.452   3.958  12.079 -1.9862 -0.6473 -0.1097
11326TIP3    H255470   1.387   4.021  11.957 -0.1232  1.5868  0.0384
11327TIP3   OH255471   5.284   1.023   3.635 -0.1732 -0.3286  0.2142
11327TIP3    H155472   5.211   0.980   3.591  0.0926 -0.9884  0.3982
11327TIP3    H255473   5.332   1.067   3.565 -1.5690  1.3486  0.2946
11328TIP3   OH255474   5.446   2.354   3.216  0.2756  0.1134  0.7069
11328TIP3    H155475   5.447   2.421   3.148 -0.8768 -1.8965 -1.3801
11328TIP3    H255476   5.372   2.377   3.272 -1.1815 -0.3453 -1.0015
11329TIP3   OH255477   6.874   4.268   1.322 -0.7596  0.0632 -0.6609
11329TIP3    H155478   6.845   4.178   1.329  0.1592 -0.2211 -0.3758
11329TIP3    H255479   6.804   4.320   1.362  0.0951 -0.7745  2.0427
11330TIP3   OH255480   0.114   0.480   4.506 -0.3423  0.1816 -0.1858
11330TIP3    H155481   0.104   0.570   4.474 -1.0633 -0.0043 -0.4760
11330TIP3    H255482   0.172   0.439   4.442  0.0051  0.4420 -0.0430
11331TIP3   OH255483   7.085   5.134   1.735 -0.1580 -0.0739 -0.0268
11331TIP3    H155484   7.148   5.100   1.672  0.2193  0.3219  0.1365
11331TIP3    H255485   7.122   5.113   1.820  0.4527  1.4218  0.0821
11332TIP3   OH255486   7.035   0.042   2.771 -0.0497  0.3754  0.8503
11332TIP3    H155487   7.024   0.127   2.813 -1.4547  0.5511  0.1279
11332TIP3    H255488   7.108   0.055   2.711  1.2837  0.4100  2.4212
11333TIP3   OH255489   6.099   1.826  15.001  0.2624 -0.2263 -0.2350
11333TIP3    H155490   6.078   1.759  14.936 -1.0082 -0.6866  0.6131
11333TIP3    H255491   6.089   1.909  14.954 -0.3353 -0.5623 -0.7196
11334TIP3   OH255492   5.167   1.974   2.058 -0.4483  0.1550  0.2378
11334TIP3    H155493   5.074   1.964   2.038  0.0654 -0.3028 -2.0614
11334TIP3    H255494   5.187   2.065   2.037  0.2045 -0.4551 -1.9034
11335TIP3   OH255495   1.923   0.700  13.302  0.1120  0.5224  0.1484
11335TIP3    H155496   1.886   0.618  13.334 -0.2989  0.8591  0.5398
11335TIP3    H255497   1.918   0.693  13.206  1.3028 -0.4619  0.1508
11336TIP3   OH255498   0.930   0.065   0.426  0.1282  0.4588 -0.4645
11336TIP3    H155499   0.882   0.058   0.508 -0.6420 -1.3504 -1.0481
11336TIP3    H255500   1.009   0.114   0.449 -0.4663  0.6809  1.1754
11337TIP3   OH255501   1.924   6.250  13.974  0.5631  0.2695  0.2495
11337TIP3    H155502   1.901   6.312  14.043  1.7280  1.6175 -0.5258
11337TIP3    H255503   1.992   6.195  14.013 -0.4004 -0.4791  0.9064
11338TIP3   OH255504   1.656   1.505  12.342 -0.2151 -0.1748 -0.5065
11338TIP3    H155505   1.697   1.590  12.330 -0.9374  0.5207  1.6642
11338TIP3    H255506   1.728   1.445  12.359  0.2847  0.0311 -1.8965
11339TIP3   OH255507   0.797   0.923   1.150 -0.7910 -0.5409 -0.4413
11339TIP3    H155508   0.703   0.928   1.137 -0.8018  0.1466 -0.1126
11339TIP3    H255509   0.832   0.995   1.096 -0.6332  0.6504  1.2176
11340TIP3   OH255510   4.574   0.588   0.803  0.2207 -0.4110 -0.3939
11340TIP3    H155511   4.668   0.610   0.800  0.1595 -0.2095 -0.9839
11340TIP3    H255512   4.530   0.669   0.779 -0.0795 -0.6894 -0.7963
11341TIP3   OH255513   4.749   3.780  14.845  0.5557  0.0212  0.1473
11341TIP3    H155514   4.766   3.723  14.920  0.1133  0.2162  0.3944
11341TIP3    H255515   4.762   3.868  14.878  1.4435  0.0550 -0.2904
11342TIP3   OH255516   2.931   3.298   0.750  0.1324  0.0037  0.4180
11342TIP3    H155517   2.840   3.326   0.762  0.4995  0.3445  2.7381
11342TIP3    H255518   2.936   3.213   0.795  0.2999 -1.3655 -2.1209
11343TIP3   OH255519   2.638   3.420  13.887 -0.2671 -0.2549  0.2821
11343TIP3    H155520   2.700   3.364  13.933 -1.4245 -0.8165  1.1808
11343TIP3    H255521   2.594   3.361  13.826 -1.0379 -0.2009  0.7765
11344TIP3   OH255522   4.905   5.833  15.100 -0.2234 -0.2360  0.3511
11344TIP3    H155523   4.819   5.794  15.116 -1.0086  1.5851  0.7511
11344TIP3    H255524   4.963   5.759  15.081 -1.7824 -1.5112  0.5293
11345TIP3   OH255525   1.501   3.741   4.582  0.4220 -0.1730 -0.0925
11345TIP3    H155526   1.412   3.768   4.558  0.4070 -1.3987 -1.5027
11345TIP3    H255527   1.556   3.814   4.552  0.0044  0.0732 -0.2731
11346TIP3   OH255528   6.084   2.475  14.435 -0.3090 -0.2669  0.1018
11346TIP3    H155529   6.102   2.516  14.351 -1.3836  2.0767  0.9583
11346TIP3    H255530   6.160   2.419  14.452  1.5336  1.8841 -0.8426
11347TIP3   OH255531   3.614   2.386  15.484  0.0932  0.2940 -0.6513
11347TIP3    H155532   3.601   2.380  15.389  0.6052  0.9650 -0.7647
11347TIP3    H255533   3.567   2.465  15.510  0.4484  0.4317 -0.4322
11348TIP3   OH255534   2.086   1.941   3.076 -0.1540  0.1917 -0.1900
11348TIP3    H155535   2.047   1.996   3.008  0.9097  2.0762  0.6568
11348TIP3    H255536   2.077   1.852   3.044  0.9653  1.0944 -3.1423
11349TIP3   OH255537   2.024   4.340  14.842  1.4562 -0.2240  0.0344
11349TIP3    H155538   1.948   4.343  14.784  0.3002 -0.8278  1.4961
11349TIP3    H255539   2.098   4.327  14.783  0.3097 -0.7434 -1.3272
11350TIP3   OH255540   4.558   0.480  14.506  0.2448  0.2236 -0.3077
11350TIP3    H155541   4.542   0.476  14.601  0.8875  0.8457 -0.1669
11350TIP3    H255542   4.646   0.443  14.495 -1.0330 -2.7141 -1.0143
11351TIP3   OH255543   6.772   6.232  13.737 -0.1505  1.1182  0.4292
11351TIP3    H155544   6.706   6.258  13.672  0.3432 -0.8688 -0.9273
11351TIP3    H255545   6.855   6.240  13.690  0.3205  0.8910  1.2290
11352TIP3   OH255546   2.519   1.716  15.201  0.0341  0.0931  0.1733
11352TIP3    H155547   2.558   1.674  15.125 -0.1588 -0.6342  0.4706
11352TIP3    H255548   2.425   1.708  15.187 -0.0105 -0.8641  0.9179
11353TIP3   OH255549   2.128   4.743   3.019 -0.2831  0.2321  0.4053
11353TIP3    H155550   2.107   4.690   3.096 -1.1388 -0.9012 -0.5841
11353TIP3    H255551   2.081   4.701   2.948  1.5639  0.4732 -0.9943
11354TIP3   OH255552   3.320   6.066   0.859 -0.3131  0.1093 -0.3142
11354TIP3    H155553   3.343   6.128   0.789  0.0902 -0.9132 -1.0988
11354TIP3    H255554   3.236   6.098   0.892  0.0653  1.2879 -0.4637
11355TIP3   OH255555   5.297   0.114   5.398 -0.2339  0.7400  0.7104
11355TIP3    H155556   5.357   0.130   5.471 -1.0198  1.7170  1.1549
11355TIP3    H255557   5.325   0.177   5.331 -0.0717  0.4444  0.4981
11356TIP3   OH255558   6.553   2.750   3.653  0.4888  0.0013  0.0703
11356TIP3    H155559   6.550   2.750   3.749 -0.1437  0.3921  0.0476
11356TIP3    H255560   6.495   2.678   3.627  0.1983  0.2721 -0.0349
11357TIP3   OH255561   0.353   2.205   2.950  0.5662 -0.3211  0.1452
11357TIP3    H155562   0.401   2.137   2.997  0.9887 -0.1789 -0.0794
11357TIP3    H255563   0.391   2.206   2.863  0.7388  0.3841  0.2253
11358TIP3   OH255564   5.656   2.105   2.889 -0.1290 -0.1845  0.5826
11358TIP3    H155565   5.595   2.084   2.960 -1.6271  1.2104 -0.2698
11358TIP3    H255566   5.711   2.174   2.925 -0.1916 -0.2194  0.7472
11359TIP3   OH255567   1.615   4.835  15.510 -0.9189  0.3661 -0.2479
11359TIP3    H155568   1.595   4.743  15.494  0.6323  0.4270 -2.9011
11359TIP3    H255569   1.546   4.865  15.569 -1.5205 -2.4470  0.5625
11360TIP3   OH255570   1.961   3.995   0.291 -0.0039 -0.5685  0.3183
11360TIP3    H155571   1.938   3.933   0.360 -0.8712 -1.1170 -0.4624
11360TIP3    H255572   1.977   3.941   0.214  1.9628 -0.0441  0.3206
11361TIP3   OH255573   0.573   3.779   1.443 -0.2330 -0.9071 -0.2135
11361TIP3    H155574   0.651   3.828   1.416 -0.5098 -1.6640 -2.5035
11361TIP3    H255575   0.529   3.836   1.506  0.9710  0.5253 -0.6396
11362TIP3   OH255576   3.769   5.176   2.923 -0.2199 -0.0017  0.4301
11362TIP3    H155577   3.777   5.094   2.875  1.3643  1.9864 -2.8853
11362TIP3    H255578   3.759   5.243   2.855  2.5063  3.0066  2.8277
11363TIP3   OH255579   5.903   0.297   1.382  0.5972 -0.7893 -0.0826
11363TIP3    H155580   5.980   0.242   1.394  0.5744 -1.1022 -1.2628
11363TIP3    H255581   5.921   0.346   1.301 -0.2606 -0.5602 -0.1379
11364TIP3   OH255582   0.124   3.879   2.004 -0.1191 -0.4479  0.3913
11364TIP3    H155583   0.182   3.805   2.022  0.4183 -0.3815 -0.9647
11364TIP3    H255584   0.072   3.890   2.083  0.2313 -1.8835  0.8240
11365TIP3   OH255585   4.388   4.090   0.063 -0.2782 -0.4726 -0.0796
11365TIP3    H155586   4.393   4.107   0.158  1.3670  0.0378 -0.2343
11365TIP3    H255587   4.449   4.018   0.049 -0.7556 -0.7527 -0.7134
11366TIP3   OH255588   5.327   2.953  13.939 -0.0582  0.8019  0.6708
11366TIP3    H155589   5.313   2.862  13.965 -2.3820  1.5983  2.4264
11366TIP3    H255590   5.378   2.991  14.010 -0.4614  1.2581  0.7193
11367TIP3   OH255591   3.846   2.474   1.484  0.8650  0.3998 -0.4612
11367TIP3    H155592   3.826   2.547   1.426 -1.4726  1.1334  1.1692
11367TIP3    H255593   3.874   2.404   1.426  0.6154  1.7549 -2.2792
11368TIP3   OH255594   0.699   3.527   0.165  0.3923 -0.2632  0.4451
11368TIP3    H155595   0.611   3.489   0.155  1.2540 -1.6604 -2.2420
11368TIP3    H255596   0.702   3.556   0.256 -2.6656 -0.6842  0.7309
11369TIP3   OH255597   1.816   0.169  15.352  0.4211  0.6341  0.5616
11369TIP3    H155598   1.860   0.152  15.435  1.9763 -3.6341 -0.9943
11369TIP3    H255599   1.868   0.238  15.311  0.8332  1.3187  2.1810
11370TIP3   OH255600   2.520   2.500   1.436  0.1591 -0.2116 -0.1685
11370TIP3    H155601   2.579   2.529   1.506  2.3349 -3.6337 -0.4748
11370TIP3    H255602   2.448   2.457   1.482 -0.1391  0.5126  0.0551
11371TIP3   OH255603   6.964   1.698   3.612 -0.2598  0.1764  0.5485
11371TIP3    H155604   6.971   1.652   3.696  0.3943 -0.8201 -0.0428
11371TIP3    H255605   7.041   1.755   3.610  0.4173 -0.7570  0.0507
11372TIP3   OH255606   1.218   4.751  14.107 -0.0405 -0.5789  0.0539
11372TIP3    H155607   1.229   4.823  14.046  0.4813 -1.7936 -1.3253
11372TIP3    H255608   1.193   4.676  14.052  0.0299 -1.5982  1.3732
11373TIP3   OH255609   2.102   1.926  13.706 -0.2067 -0.4878 -0.1248
11373TIP3    H155610   2.142   1.981  13.638  1.3526  0.6018  1.6355
11373TIP3    H255611   2.029   1.977  13.738  0.4398 -0.0035  0.5890
11374TIP3   OH255612   4.810   1.754  13.719  0.5280 -0.2182  0.6690
11374TIP3    H155613   4.809   1.733  13.625 -0.1683  1.5468  0.2509
11374TIP3    H255614   4.736   1.706  13.756  0.7797 -0.8902  0.2909
11375TIP3   OH255615   2.684   5.656  12.382  0.1393 -0.1166 -0.3163
11375TIP3    H155616   2.623   5.615  12.321 -1.3800  1.9013 -0.2123
11375TIP3    H255617   2.627   5.700  12.446  1.6723  3.3588 -1.2658
11376TIP3   OH255618   5.795   2.003   0.269 -0.5707 -0.2082  0.0094
11376TIP3    H155619   5.800   2.072   0.203 -0.1844 -0.6386 -0.4260
11376TIP3    H255620   5.781   2.048   0.352  1.6388  0.5321  0.0243
11377TIP3   OH255621   5.139   6.535  15.518 -0.0738  0.0883  0.8902
11377TIP3    H155622   5.070   6.601  15.513  1.0120  1.2797  1.3474
11377TIP3    H255623   5.181   6.539  15.432  1.7348  1.9671  1.7948
11378TIP3   OH255624   6.863   0.537   2.136 -0.8100 -0.0098  0.4045
11378TIP3    H155625   6.808   0.556   2.059  0.1197  0.9992 -0.0211
11378TIP3    H255626   6.943   0.499   2.099 -0.3635  0.4745  0.8740
11379TIP3   OH255627   2.843   6.948   1.575  0.8084 -0.5311  0.2732
11379TIP3    H155628   2.767   6.987   1.531  1.0384 -0.9514 -0.5084
11379TIP3    H255629   2.880   7.020   1.626  0.2828 -0.1445  0.1153
11380TIP3   OH255630   6.954   4.390   1.076  0.1419 -0.8281 -0.2574
11380TIP3    H155631   6.933   4.372   1.167 -2.5366 -0.1991 -0.6912
11380TIP3    H255632   7.006   4.471   1.078  0.0931 -0.8227  0.7038
11381TIP3   OH255633   4.675   4.501  13.803  0.0270  0.1282 -0.1835
11381TIP3    H155634   4.712   4.491  13.715 -1.6069 -0.0207 -0.8648
11381TIP3    H255635   4.591   4.544  13.789  0.4650  1.6062  1.4631
11382TIP3   OH255636   0.248   6.907   1.969 -0.3473  0.3864  0.0209
11382TIP3    H155637   0.265   6.897   2.062  0.4907 -0.1354 -0.1802
11382TIP3    H255638   0.164   6.864   1.954  0.1247 -0.6485  0.3172
11383TIP3   OH255639   0.806   5.264   2.527  0.1562  0.4907  0.1595
11383TIP3    H155640   0.889   5.215   2.524 -0.0975 -0.2395  2.9897
11383TIP3    H255641   0.805   5.315   2.447  2.7816 -0.4336 -0.5193
11384TIP3   OH255642   4.708   5.363   2.174 -0.1426 -0.1591  0.7737
11384TIP3    H155643   4.793   5.352   2.131 -0.2361 -0.4758  0.6629
11384TIP3    H255644   4.658   5.286   2.146 -0.6917  0.3730  0.3012
11385TIP3   OH255645   6.676   6.604  10.342 -0.3491  0.0440  0.1898
11385TIP3    H155646   6.649   6.528  10.290 -1.1782  0.8326 -0.5649
11385TIP3    H255647   6.614   6.673  10.318 -0.1818  0.6932  1.5656
11386TIP3   OH255648   0.624   6.992   1.219  0.3365  0.1194  0.4952
11386TIP3    H155649   0.680   6.935   1.165  0.6159  0.2475  0.6472
11386TIP3    H255650   0.611   6.944   1.300 -2.5264 -1.3748 -0.8176
11387TIP3   OH255651   3.220   6.342   3.453  0.2637 -0.4582  0.0957
11387TIP3    H155652   3.258   6.416   3.499 -0.3350 -0.6315  0.8831
11387TIP3    H255653   3.197   6.280   3.522  0.3524 -1.1939 -0.5176
11388TIP3   OH255654   2.742   3.009   1.119 -0.1600 -0.7177  0.1687
11388TIP3    H155655   2.820   2.953   1.123  0.2735 -0.0648  0.8953
11388TIP3    H255656   2.776   3.096   1.100 -0.9132 -0.8645 -1.9460
11389TIP3   OH255657   6.112   0.909  15.004 -0.3583  0.4480  0.4237
11389TIP3    H155658   6.202   0.930  15.031 -0.5415  2.2994 -0.3202
11389TIP3    H255659   6.060   0.920  15.083 -0.1660  0.9711  0.4775
11390TIP3   OH255660   0.374   5.555  12.880 -0.2113  0.1581  0.2224
11390TIP3    H155661   0.387   5.558  12.785  1.4759  0.6794  0.4578
11390TIP3    H255662   0.291   5.509  12.891  0.2493 -1.1268 -1.4574
11391TIP3   OH255663   4.850   2.540  13.304  0.1804  0.3580 -0.2982
11391TIP3    H155664   4.847   2.541  13.400  0.0855  1.0424 -0.3109
11391TIP3    H255665   4.921   2.600  13.282  1.5640 -1.3175 -0.6047
11392TIP3   OH255666   1.799   6.373  15.198  0.3610 -0.3125 -0.5431
11392TIP3    H155667   1.863   6.367  15.268  1.2150 -3.5943 -1.5435
11392TIP3    H255668   1.831   6.444  15.142  0.9694  0.6912  1.0677
11393TIP3   OH255669   2.446   1.472   3.104  0.5229  0.3245 -0.0067
11393TIP3    H155670   2.514   1.409   3.082  0.0612 -0.0091 -0.4841
11393TIP3    H255671   2.446   1.476   3.200  2.1549  1.3578 -0.0273
11394TIP3   OH255672   0.822   6.575   5.649  0.4918 -0.2474  0.0805
11394TIP3    H155673   0.899   6.520   5.658 -0.5627 -1.5097  1.7675
11394TIP3    H255674   0.818   6.626   5.730 -1.6299 -1.8234  1.0343
11395TIP3   OH255675   3.747   5.218  14.956  0.3319  0.0198  0.0310
11395TIP3    H155676   3.743   5.138  14.905  2.8528 -0.0693 -0.0876
11395TIP3    H255677   3.720   5.287  14.896 -1.2763 -0.6555 -0.0317
11396TIP3   OH255678   0.676   2.636   2.057  0.3145  0.3633  0.0678
11396TIP3    H155679   0.725   2.594   1.987  2.2829  1.5871  0.6743
11396TIP3    H255680   0.657   2.567   2.119  1.0818 -0.1555 -0.2766
11397TIP3   OH255681   4.368   3.284   4.406 -0.2912  0.4657  0.1038
11397TIP3    H155682   4.410   3.291   4.491 -1.6706 -1.1334  0.9319
11397TIP3    H255683   4.308   3.359   4.403  0.1155  0.8033  0.3160
11398TIP3   OH255684   5.097   5.530   1.597 -0.6639 -0.1913  0.2625
11398TIP3    H155685   5.086   5.572   1.511 -1.6729  0.0907  0.5152
11398TIP3    H255686   5.179   5.567   1.631  1.2546 -2.4189 -1.7451
11399TIP3   OH255687   3.234   3.272   1.106 -0.5290 -0.0908  0.3422
11399TIP3    H155688   3.230   3.280   1.201  2.0615  0.1602  0.4750
11399TIP3    H255689   3.171   3.336   1.074 -0.6331  0.5940  1.8744
11400TIP3   OH255690   5.666   1.155   2.607  0.4479 -0.2805  0.4467
11400TIP3    H155691   5.597   1.133   2.669  1.5330 -2.3704  0.9415
11400TIP3    H255692   5.671   1.251   2.610 -1.0373 -0.2309  1.9181
11401TIP3   OH255693   3.765   0.303  12.878 -0.3826 -0.1060  0.4968
11401TIP3    H155694   3.750   0.231  12.940 -0.5034 -0.1478  0.4173
11401TIP3    H255695   3.739   0.382  12.926 -0.7193 -0.1638  0.4080
11402TIP3   OH255696   2.815   6.613  14.677 -0.3134 -1.1177 -0.4472
11402TIP3    H155697   2.878   6.542  14.688  1.6728  0.3481 -1.8125
11402TIP3    H255698   2.843   6.679  14.740 -1.9307 -1.4064  0.5736
11403TIP3   OH255699   2.674   6.719   3.509  0.2332 -0.2359 -0.4858
11403TIP3    H155700   2.607   6.704   3.576  0.9271  1.2331  0.5403
11403TIP3    H255701   2.635   6.784   3.451  1.1227  1.3572  0.6613
11404TIP3   OH255702   1.264   3.089   2.798  0.0882 -0.0060  0.6633
11404TIP3    H155703   1.350   3.106   2.760  1.7041 -1.8882  3.3003
11404TIP3    H255704   1.226   3.022   2.741  1.8898 -1.7523  1.4291
11405TIP3   OH255705   1.653   0.760   0.528 -0.3217 -0.2306  0.0851
11405TIP3    H155706   1.671   0.829   0.591  0.4816  0.7737 -1.2335
11405TIP3    H255707   1.562   0.775   0.500 -0.7118 -0.7396  1.0598
11406TIP3   OH255708   1.942   3.748  13.061 -0.2528 -0.2038 -0.0594
11406TIP3    H155709   1.964   3.743  12.968 -0.6272  1.0149 -0.2247
11406TIP3    H255710   1.899   3.833  13.070  0.1426 -0.1463  1.3005
11407TIP3   OH255711   5.637   2.814   2.229  0.1515  0.2180  0.5027
11407TIP3    H155712   5.648   2.874   2.155  0.3212 -0.7252 -0.2502
11407TIP3    H255713   5.559   2.845   2.274 -0.0464  0.7092 -0.1696
11408TIP3   OH255714   1.154   6.431   1.240  0.3564 -0.3286 -0.1958
11408TIP3    H155715   1.248   6.431   1.255  0.5391 -0.1287 -1.2744
11408TIP3    H255716   1.117   6.386   1.316  1.3753 -1.0215 -0.1080
11409TIP3   OH255717   0.205   7.190   1.913 -0.7196 -0.1838  0.4365
11409TIP3    H155718   0.225   7.100   1.936 -1.5753  0.0023  1.9334
11409TIP3    H255719   0.275   7.241   1.955  0.7488 -0.2608 -1.8195
11410TIP3   OH255720   6.407   2.150   0.784 -0.0047  0.4554  0.5849
11410TIP3    H155721   6.431   2.243   0.782  2.0436 -0.0746 -0.9882
11410TIP3    H255722   6.311   2.150   0.781  0.0202  2.4980 -1.2063
11411TIP3   OH255723   6.426   4.500  12.397 -0.1044 -0.0426 -0.0650
11411TIP3    H155724   6.513   4.499  12.357  0.5900 -0.1420  1.4275
11411TIP3    H255725   6.442   4.508  12.491 -1.6601 -1.6291  0.3746
11412TIP3   OH255726   5.504   1.553   3.478  0.2050  0.3946  0.2277
11412TIP3    H155727   5.485   1.586   3.391 -0.1066 -1.9377 -0.6154
11412TIP3    H255728   5.435   1.591   3.533 -1.5275 -0.6848 -1.1455
11413TIP3   OH255729   2.445   3.932  15.203 -0.1657  0.4405  0.3501
11413TIP3    H155730   2.535   3.909  15.178  0.1433  2.3088 -0.3480
11413TIP3    H255731   2.418   3.863  15.262  0.9991 -1.2874 -1.0776
11414TIP3   OH255732   5.871   4.000   3.052  0.0185 -0.0809 -0.1932
11414TIP3    H155733   5.915   3.953   2.980 -0.3727  1.1657 -1.2654
11414TIP3    H255734   5.916   3.970   3.131  0.9672 -0.9084 -1.0295
11415TIP3   OH255735   5.137   7.089  10.939 -0.5788  0.1865  0.1260
11415TIP3    H155736   5.092   7.029  10.880  0.0175 -0.5523  0.4024
11415TIP3    H255737   5.153   7.037  11.018 -0.1881  0.7525  0.4253
11416TIP3   OH255738   2.149   3.682   3.567 -0.3358 -0.0563 -0.3934
11416TIP3    H155739   2.188   3.628   3.635  0.1904  1.7437  0.7624
11416TIP3    H255740   2.223   3.715   3.516 -0.6982 -1.0369 -1.5807
11417TIP3   OH255741   6.141   3.403  14.088  0.0408  0.5813 -0.5172
11417TIP3    H155742   6.055   3.364  14.108  0.4264  1.0989  2.3192
11417TIP3    H255743   6.202   3.330  14.095  0.0177  0.4854 -1.2409
11418TIP3   OH255744   2.107   0.966  13.458  0.0797 -0.3569  0.1232
11418TIP3    H155745   2.141   0.918  13.383  0.3648 -0.8026  0.5362
11418TIP3    H255746   2.179   1.022  13.486  0.2149 -0.7250  0.5136
11419TIP3   OH255747   1.381   7.010   1.357  0.3755  0.0037 -0.4117
11419TIP3    H155748   1.292   7.042   1.343  0.1536 -0.8477 -1.0291
11419TIP3    H255749   1.420   7.071   1.420 -0.9120 -0.0854  0.4767
11420TIP3   OH255750   1.112   2.721   1.742  0.4467  0.0412  0.5761
11420TIP3    H155751   1.066   2.653   1.792  2.2249 -1.5526  0.1114
11420TIP3    H255752   1.070   2.719   1.656  0.3846 -0.3550  0.6138
11421TIP3   OH255753   5.317   2.822   3.119  0.3608  0.1144 -0.0893
11421TIP3    H155754   5.286   2.885   3.054 -1.8357  2.5293  3.0997
11421TIP3    H255755   5.375   2.874   3.176  3.2378 -2.2333 -0.7875
11422TIP3   OH255756   6.052   6.107   1.348  0.3990 -0.5108  0.9132
11422TIP3    H155757   5.984   6.044   1.373 -0.3424 -0.2585 -0.4108
11422TIP3    H255758   6.081   6.077   1.262 -2.4225  2.9029 -1.3882
11423TIP3   OH255759   5.434   6.942  14.513 -0.0728 -0.3908 -0.0294
11423TIP3    H155760   5.435   7.015  14.574 -0.5476 -0.5817  0.2111
11423TIP3    H255761   5.471   6.978  14.432  0.7248 -0.1896  0.4219
11424TIP3   OH255762   3.898   3.834  15.157 -0.8598 -0.6367  0.0700
11424TIP3    H155763   3.867   3.754  15.201 -1.0546 -1.0725 -0.8401
11424TIP3    H255764   3.822   3.891  15.155 -1.5061 -1.5435 -1.7920
11425TIP3   OH255765   1.397   5.427  15.026 -0.4211  0.3501 -0.4652
11425TIP3    H155766   1.393   5.492  15.097  0.8462 -0.3542  0.2714
11425TIP3    H255767   1.483   5.440  14.987 -0.8076  0.2032 -1.3806
11426TIP3   OH255768   1.411   1.232   4.768  0.4207  0.7186 -0.0170
11426TIP3    H155769   1.360   1.311   4.785  1.0252  1.4376 -1.4707
11426TIP3    H255770   1.368   1.191   4.693 -0.0404 -0.4672  0.8878
11427TIP3   OH255771   5.607   3.374  13.628 -0.2644  0.5314  0.1944
11427TIP3    H155772   5.695   3.345  13.606 -0.2815  0.4495  0.2338
11427TIP3    H255773   5.613   3.403  13.719 -0.3480  0.2502  0.2882
11428TIP3   OH255774   6.466   3.413  14.135 -0.4465  1.0551  0.5717
11428TIP3    H155775   6.466   3.365  14.218 -0.4093  0.1415  0.0554
11428TIP3    H255776   6.478   3.345  14.069  1.2267  1.9709 -0.0784
11429TIP3   OH255777   1.365   1.377   0.728  0.4057 -0.2659  0.1336
11429TIP3    H155778   1.318   1.396   0.647 -1.2185 -0.7110  0.9394
11429TIP3    H255779   1.403   1.291   0.714 -3.4581 -2.3058  1.3397
11430TIP3   OH255780   0.466   0.920  15.367  0.6445  0.5095 -0.0854
11430TIP3    H155781   0.408   0.854  15.404  0.6355  1.1492  1.0496
11430TIP3    H255782   0.481   0.891  15.277 -0.2305 -0.4516  0.0748
11431TIP3   OH255783   6.130   3.205  15.328 -0.1663  0.5125  0.0732
11431TIP3    H155784   6.190   3.275  15.352 -1.1667  1.0971  0.8950
11431TIP3    H255785   6.130   3.204  15.232  1.6170  0.0936  0.0640
11432TIP3   OH255786   4.851   0.879   1.361  0.0789 -0.0727 -0.1441
11432TIP3    H155787   4.801   0.829   1.296  0.6658 -1.2080  0.2745
11432TIP3    H255788   4.929   0.908   1.314 -0.3497  0.6247 -0.4389
11433TIP3   OH255789   1.500   2.002   0.065  0.1526 -0.8658  0.2130
11433TIP3    H155790   1.586   2.043   0.053  0.6599 -1.3730  1.9825
11433TIP3    H255791   1.440   2.076   0.074  0.5310 -0.5020 -0.2233
11434TIP3   OH255792   1.379   5.694   4.116 -0.4622 -0.1374  0.1474
11434TIP3    H155793   1.387   5.643   4.197 -2.4026 -0.6949  0.0191
11434TIP3    H255794   1.285   5.695   4.098 -0.3028  2.3161 -0.6322
11435TIP3   OH255795   1.896   3.201   4.153 -0.0580 -0.0459 -0.5819
11435TIP3    H155796   1.822   3.261   4.152  0.0468  0.1216 -3.1602
11435TIP3    H255797   1.858   3.115   4.167 -1.0289 -0.2074 -3.7152
11436TIP3   OH255798   5.664   1.616   4.493  0.7866 -0.3871  0.3262
11436TIP3    H155799   5.670   1.677   4.419  1.4861 -0.1150  0.6004
11436TIP3    H255800   5.702   1.535   4.461 -0.9292 -0.9627 -0.3175
11437TIP3   OH255801   5.004   1.478   1.292  0.4363  0.5104 -0.2711
11437TIP3    H155802   5.043   1.559   1.324  2.3033 -0.5106  0.1461
11437TIP3    H255803   4.994   1.424   1.370  0.9014 -0.3372 -0.7913
11438TIP3   OH255804   0.830   7.063   2.297  0.5321 -0.3717 -0.4574
11438TIP3    H155805   0.816   7.071   2.392 -0.7301  3.2888 -0.8546
11438TIP3    H255806   0.746   7.034   2.263  0.8036 -1.0801 -0.5239
11439TIP3   OH255807   6.472   2.299   0.530  0.5892  0.2525 -0.6481
11439TIP3    H155808   6.423   2.221   0.554  1.0600 -0.0268 -0.5943
11439TIP3    H255809   6.444   2.319   0.440  1.6945 -0.9271 -1.2564
11440TIP3   OH255810   4.992   1.242   4.166  0.2773 -0.0996  0.0383
11440TIP3    H155811   4.901   1.215   4.162 -0.1054  1.1000  0.4845
11440TIP3    H255812   5.031   1.209   4.085 -0.6961 -0.0502 -0.4481
11441TIP3   OH255813   4.082   6.083  10.633  0.3570 -0.1473  0.0491
11441TIP3    H155814   3.990   6.079  10.607 -0.1803 -0.5003  1.9047
11441TIP3    H255815   4.118   5.998  10.606 -0.1246 -0.4109  0.2201
11442TIP3   OH255816   1.159   4.909   0.756  0.4308 -0.2338  0.0978
11442TIP3    H155817   1.244   4.879   0.725  1.6306  1.3616  1.6981
11442TIP3    H255818   1.156   5.002   0.732 -0.2516  0.0642  1.2628
11443TIP3   OH255819   6.971   4.633  12.917 -0.2751  0.0654  0.2741
11443TIP3    H155820   7.005   4.616  12.830 -0.6660  0.1193  0.1103
11443TIP3    H255821   6.887   4.588  12.919 -1.0077  1.4137  0.0660
11444TIP3   OH255822   3.690   2.051  14.175 -0.3596 -0.5122 -0.2631
11444TIP3    H155823   3.726   1.986  14.237 -1.8657  0.4597  1.6868
11444TIP3    H255824   3.597   2.055  14.196 -0.4187  1.7494 -0.8390
11445TIP3   OH255825   3.671   4.293   1.179 -0.2107 -0.0272 -0.1954
11445TIP3    H155826   3.650   4.383   1.152  2.5099  1.1252  1.3960
11445TIP3    H255827   3.702   4.301   1.269  0.7158 -2.4977 -0.2609
11446TIP3   OH255828   0.503   2.223   1.976 -0.4896  0.8317 -0.1854
11446TIP3    H155829   0.548   2.145   1.946 -2.6136  0.1379 -1.6965
11446TIP3    H255830   0.471   2.200   2.063 -0.9312  0.0809 -0.5427
11447TIP3   OH255831   1.515   3.959   2.656 -0.6353  0.4459  0.1842
11447TIP3    H155832   1.576   3.885   2.649  0.3065  1.2708 -0.5177
11447TIP3    H255833   1.462   3.955   2.576 -0.4725  0.6242  0.0664
11448TIP3   OH255834   5.391   6.788   0.086 -0.1534 -0.0728 -0.7704
11448TIP3    H155835   5.393   6.819  -0.004 -0.6701  0.8118 -0.4813
11448TIP3    H255836   5.403   6.693   0.079  1.4593  0.1801 -1.6564
11449TIP3   OH255837   5.151   3.069  11.427  0.4207 -0.1098 -0.1659
11449TIP3    H155838   5.176   3.076  11.335  2.4426  0.6258  0.3999
11449TIP3    H255839   5.070   3.119  11.434  2.1405  2.9580 -0.9062
11450TIP3   OH255840   2.213   1.464   0.847 -0.3666 -0.0728  0.4695
11450TIP3    H155841   2.226   1.546   0.799  0.3961 -0.0531  0.7142
11450TIP3    H255842   2.204   1.491   0.938 -0.0780 -0.2673  0.5541
11451TIP3   OH255843   4.142   5.617  15.417 -0.1086  0.1749  1.0058
11451TIP3    H155844   4.108   5.706  15.410  1.4354  0.5665 -2.5851
11451TIP3    H255845   4.073   5.562  15.380  0.1237  0.1966  0.5364
11452TIP3   OH255846   1.207   2.097   4.777  0.1316  0.0785 -0.2355
11452TIP3    H155847   1.289   2.103   4.824 -0.6543  0.4341  1.1091
11452TIP3    H255848   1.147   2.155   4.825 -1.1032 -0.7298 -0.7621
11453TIP3   OH255849   3.942   4.423   3.029 -0.2006 -0.0355  0.9783
11453TIP3    H155850   3.998   4.346   3.033  0.7739  0.5589 -0.6720
11453TIP3    H255851   3.958   4.460   2.942 -1.9280  1.0695  1.0999
11454TIP3   OH255852   0.888   6.339   0.462  0.0294 -0.2659  0.4657
11454TIP3    H155853   0.924   6.259   0.424  2.5625  1.2715 -0.5078
11454TIP3    H255854   0.949   6.362   0.532 -0.0790  1.3957  0.0284
11455TIP3   OH255855   0.040   7.042   5.306 -0.3049  0.7009  0.1993
11455TIP3    H155856   0.102   7.112   5.321  0.1940  0.0455  1.2689
11455TIP3    H255857  -0.041   7.072   5.348 -0.2734  0.9152  0.1035
11456TIP3   OH255858   4.863   3.493  12.876  0.2868 -1.0624 -0.3804
11456TIP3    H155859   4.956   3.475  12.883  0.5683  0.3480 -0.3934
11456TIP3    H255860   4.851   3.527  12.788 -0.0418 -0.1189  0.0200
11457TIP3   OH255861   4.089   1.238  13.608  0.2105  0.0103 -0.1587
11457TIP3    H155862   4.068   1.187  13.686 -0.3851 -1.4327 -1.2488
11457TIP3    H255863   4.180   1.215  13.588  0.5414  0.7910  0.3982
11458TIP3   OH255864   6.659   6.438   0.874 -0.2436  0.2392 -0.3911
11458TIP3    H155865   6.658   6.344   0.891  1.0842  0.4411  0.9332
11458TIP3    H255866   6.567   6.463   0.868 -0.6325 -0.8501  0.9544
11459TIP3   OH255867   2.781   0.914   1.027  0.2792  0.1332  0.2336
11459TIP3    H155868   2.769   0.971   1.103 -1.4917 -0.1752  0.2197
11459TIP3    H255869   2.699   0.923   0.978  0.3686 -1.6594 -0.2793
11460TIP3   OH255870   3.049   2.804  11.847 -0.2639 -0.0479  0.2414
11460TIP3    H155871   3.023   2.735  11.908 -2.0519 -0.8178 -1.3653
11460TIP3    H255872   3.085   2.758  11.772 -2.6184  0.6796 -1.3765
11461TIP3   OH255873   2.394   4.771   2.509 -0.2857 -0.0799  0.0093
11461TIP3    H155874   2.316   4.765   2.454  0.1866 -0.8310 -0.5866
11461TIP3    H255875   2.363   4.749   2.597 -1.0459  1.1615  0.0670
11462TIP3   OH255876   1.379   1.385   5.732  0.1518 -0.3361  0.0904
11462TIP3    H155877   1.451   1.328   5.761  1.0357  0.4666 -0.4876
11462TIP3    H255878   1.356   1.435   5.810  0.5599 -0.2515  0.1609
11463TIP3   OH255879   0.510   6.991   2.725  0.8023 -0.4085  0.5883
11463TIP3    H155880   0.481   7.073   2.766 -0.9179  0.5722 -2.4638
11463TIP3    H255881   0.434   6.961   2.675  2.5605 -2.0348 -1.1688
11464TIP3   OH255882   3.045   1.332  15.564 -0.2529  0.2909  1.2731
11464TIP3    H155883   3.004   1.252  15.530  1.7055 -0.0271 -0.4061
11464TIP3    H255884   3.111   1.300  15.626 -0.0773  0.6437  1.2660
11465TIP3   OH255885   4.763   4.286   0.054 -0.0472 -0.6622  0.4010
11465TIP3    H155886   4.705   4.313  -0.017  0.9083  0.5101  0.0485
11465TIP3    H255887   4.814   4.214   0.017  0.8015  0.2739 -0.2930
11466TIP3   OH255888   1.008   6.044   3.089  0.4725 -0.1059 -0.1560
11466TIP3    H155889   0.939   6.082   3.144  0.7149  0.1577 -0.0296
11466TIP3    H255890   0.988   5.950   3.086 -0.7794  0.1746 -1.3903
11467TIP3   OH255891   3.996   6.531   3.056  0.5042 -0.3227 -0.2485
11467TIP3    H155892   3.943   6.608   3.034 -0.3429 -1.1304 -1.0216
11467TIP3    H255893   4.028   6.499   2.972  0.5030 -1.0804  0.0429
11468TIP3   OH255894   2.989   2.421  12.610  0.1088 -0.2941 -0.4467
11468TIP3    H155895   2.981   2.504  12.563  1.0500  0.3605  0.5140
11468TIP3    H255896   2.899   2.390  12.621 -0.2429  0.5836 -0.8455
11469TIP3   OH255897   0.977   3.465   3.534  0.3293  0.1737  0.0503
11469TIP3    H155898   1.069   3.477   3.510  0.4892 -0.9412  0.0898
11469TIP3    H255899   0.938   3.420   3.459  0.4111 -1.6630  1.0739
11470TIP3   OH255900   3.835   5.421   1.115  0.2409 -0.0558  0.0292
11470TIP3    H155901   3.775   5.358   1.075  0.2322  0.9338 -1.5806
11470TIP3    H255902   3.792   5.448   1.196 -0.4509 -0.9996 -0.0199
11471TIP3   OH255903   0.209   1.287  14.838  0.5826 -0.1016 -0.5843
11471TIP3    H155904   0.284   1.283  14.898 -0.2015 -0.9500  0.3358
11471TIP3    H255905   0.145   1.341  14.883  0.2637 -0.1652 -0.9599
11472TIP3   OH255906   2.116   3.795  14.814  0.1601  0.0664 -0.4153
11472TIP3    H155907   2.151   3.715  14.854 -0.1316  0.8816  1.5351
11472TIP3    H255908   2.183   3.821  14.751  1.8327  0.0782  1.3041
11473TIP3   OH255909   4.269   2.981  14.183  0.7866 -0.9047 -0.5172
11473TIP3    H155910   4.229   3.003  14.266  0.8683  2.0762 -1.2275
11473TIP3    H255911   4.196   2.962  14.125  0.5009  1.1756 -0.8802
11474TIP3   OH255912   3.773   5.598   4.879  0.5206  0.4218 -0.2311
11474TIP3    H155913   3.864   5.608   4.852  0.0271  0.2139 -2.0334
11474TIP3    H255914   3.730   5.678   4.849  0.0913  0.5250  0.6222
11475TIP3   OH255915   6.354   2.331   4.241  0.0998 -0.1125 -0.2189
11475TIP3    H155916   6.289   2.261   4.242  0.0653 -0.0640  1.3391
11475TIP3    H255917   6.433   2.290   4.205  0.3646 -1.2227  1.5811
11476TIP3   OH255918   3.924   0.492   0.385  0.3426 -0.7548  0.2586
11476TIP3    H155919   3.934   0.555   0.457 -0.3713  0.1537 -0.4258
11476TIP3    H255920   3.927   0.546   0.306  1.3321 -1.7805 -0.4049
11477TIP3   OH255921   6.674   0.597   1.948 -0.2574 -0.5681  0.3494
11477TIP3    H155922   6.594   0.609   2.000 -0.6428 -0.2739 -0.3002
11477TIP3    H255923   6.658   0.517   1.898 -0.9495  0.5274 -1.2209
11478TIP3   OH255924   4.589   3.498   1.494 -0.1021  0.0663  0.3535
11478TIP3    H155925   4.583   3.489   1.589 -0.5137  0.1068  0.3335
11478TIP3    H255926   4.621   3.587   1.480  2.6441 -0.8681  0.5213
11479TIP3   OH255927   4.537   6.411  14.975  0.1462  0.1387  0.2203
11479TIP3    H155928   4.443   6.427  14.966  0.1355 -0.3163 -0.5368
11479TIP3    H255929   4.563   6.464  15.050 -0.6572  0.5106  0.2472
11480TIP3   OH255930   1.745   5.472   3.184  0.3369  0.0577  0.1175
11480TIP3    H155931   1.748   5.425   3.101  0.6545 -0.6323  0.5169
11480TIP3    H255932   1.702   5.412   3.245 -1.3806  1.1818  0.0556
11481TIP3   OH255933   4.022   3.939  14.326  0.4465  0.2762  0.1415
11481TIP3    H155934   3.933   3.965  14.353 -1.0178 -0.6851 -3.4115
11481TIP3    H255935   4.016   3.845  14.312  2.0608  0.2019 -0.1282
11482TIP3   OH255936   6.093   0.388   0.692  0.6109  0.2169  0.0257
11482TIP3    H155937   6.079   0.343   0.609 -0.5517 -1.5245  1.1172
11482TIP3    H255938   6.104   0.480   0.669  1.1979 -0.3784 -2.1114
11483TIP3   OH255939   4.495   2.269  13.764 -1.0317 -0.1911  0.0113
11483TIP3    H155940   4.514   2.252  13.856  0.6625 -2.7627 -0.7655
11483TIP3    H255941   4.426   2.206  13.741  1.8622 -2.9009 -1.6367
11484TIP3   OH255942   1.816   4.106   1.253 -0.6478 -0.0687  0.1366
11484TIP3    H155943   1.837   4.165   1.325 -1.6690  0.7697 -0.2355
11484TIP3    H255944   1.809   4.020   1.293 -0.0909  0.2149  0.8502
11485TIP3   OH255945   3.014   2.774  15.589 -0.1734  0.0481  0.0731
11485TIP3    H155946   3.032   2.866  15.605 -0.2033 -0.0273  0.5621
11485TIP3    H255947   2.935   2.755  15.639  0.5618 -0.5509  1.0363
11486TIP3   OH255948   5.499   3.979  13.879 -0.5847 -0.4062  0.6863
11486TIP3    H155949   5.416   3.942  13.847  0.2365 -1.7190 -0.0048
11486TIP3    H255950   5.540   3.906  13.925  0.4882  0.0435  0.4374
11487TIP3   OH255951   3.013   1.572   0.969  0.0564  0.4839  0.2662
11487TIP3    H155952   3.053   1.489   0.943 -1.0060  0.7800 -2.4177
11487TIP3    H255953   2.922   1.549   0.989  0.1937  0.7305  1.2192
11488TIP3   OH255954   3.089   2.525   2.274 -0.0414  0.0438 -0.3204
11488TIP3    H155955   3.006   2.571   2.285  0.0875 -0.4032  3.0803
11488TIP3    H255956   3.067   2.446   2.224 -1.6250  0.0473  0.3510
11489TIP3   OH255957   5.610   0.367   2.049  0.1738 -0.1031 -0.0584
11489TIP3    H155958   5.518   0.351   2.030  0.3977 -0.5987 -0.7856
11489TIP3    H255959   5.641   0.420   1.975  1.0400 -1.9978 -1.1222
11490TIP3   OH255960   0.284   7.033   0.951  0.1337 -0.7257 -0.6300
11490TIP3    H155961   0.295   6.996   0.863 -1.0004  2.1120 -2.0300
11490TIP3    H255962   0.353   7.099   0.958 -1.0144  0.4457 -0.1745
11491TIP3   OH255963   4.983   6.848  15.463  0.1936  0.3262  0.0245
11491TIP3    H155964   4.924   6.836  15.537  1.3159  0.3558  0.9309
11491TIP3    H255965   4.967   6.938  15.434  0.0650  0.4560  0.5002
11492TIP3   OH255966   0.177   1.836   3.523  0.2792  0.0250  0.0532
11492TIP3    H155967   0.187   1.743   3.502 -0.5664 -0.8045  2.9610
11492TIP3    H255968   0.246   1.852   3.588 -2.7855  0.0102  3.4669
11493TIP3   OH255969   4.337   0.508   1.545 -0.4589 -0.3471  0.8106
11493TIP3    H155970   4.289   0.462   1.476  2.4488 -2.0207 -0.2072
11493TIP3    H255971   4.307   0.599   1.540 -2.5013 -1.0737 -0.6176
11494TIP3   OH255972   4.681   5.560  13.962  0.3440  0.0273  0.2081
11494TIP3    H155973   4.743   5.594  14.027  0.9807  1.5301 -1.1498
11494TIP3    H255974   4.644   5.638  13.921  0.8324 -0.8851 -2.0697
11495TIP3   OH255975   4.016   2.721   2.587 -0.0084 -0.6250 -0.4652
11495TIP3    H155976   4.028   2.696   2.679 -1.2564 -0.1805 -0.1650
11495TIP3    H255977   3.991   2.813   2.590  0.1688 -0.5497 -1.2697
11496TIP3   OH255978   0.673   1.541  14.868  0.0355  0.0147 -0.3794
11496TIP3    H155979   0.619   1.530  14.947  0.2217 -0.4735 -0.3220
11496TIP3    H255980   0.619   1.506  14.797 -0.3871  1.0144 -0.5705
11497TIP3   OH255981   1.554   0.036   0.513 -0.1204 -0.1072 -0.0633
11497TIP3    H155982   1.572   0.081   0.430 -0.8575 -0.4152 -0.3929
11497TIP3    H255983   1.460   0.048   0.527  0.0885  0.3896  0.9955
11498TIP3   OH255984   6.545   5.395   3.164 -0.5682  0.1563  0.0837
11498TIP3    H155985   6.465   5.383   3.111 -0.6300 -0.3592  0.2899
11498TIP3    H255986   6.521   5.363   3.251 -0.0227 -0.3462  0.0492
11499TIP3   OH255987   4.088   2.044   1.268  0.4035  0.0652 -0.4248
11499TIP3    H155988   4.163   1.994   1.236  0.7398  0.4127 -0.1842
11499TIP3    H255989   4.037   1.981   1.319  1.2085  0.1391  0.4807
11500TIP3   OH255990   1.501   7.005   0.327  0.8179 -0.0807  0.2643
11500TIP3    H155991   1.494   6.941   0.256  1.3217 -0.4766  0.5716
11500TIP3    H255992   1.413   7.010   0.364  0.5882  0.0061 -0.2812
11501TIP3   OH255993   4.003   5.197   2.140  0.1022 -0.9125 -0.4901
11501TIP3    H155994   3.926   5.210   2.195  1.0486 -2.4485  1.2667
11501TIP3    H255995   4.030   5.285   2.115 -1.2838 -0.2748  0.2186
11502TIP3   OH255996   4.168   3.843   0.961  0.6101  0.0528  0.4149
11502TIP3    H155997   4.105   3.773   0.942 -0.8007  1.1330  1.0543
11502TIP3    H255998   4.167   3.852   1.056  1.7671  0.0709  0.4437
11503TIP3   OH255999   5.907   2.657   0.757 -0.4450  0.2810  0.2646
11503TIP3    H156000   5.868   2.624   0.676  2.3619  2.1806 -1.9819
11503TIP3    H256001   5.954   2.582   0.794 -0.3975 -0.1963 -0.7567
11504TIP3   OH256002   4.516   4.519   0.040  0.7859  0.4361 -0.3554
11504TIP3    H156003   4.537   4.526   0.133  0.7138  0.1305 -0.3145
11504TIP3    H256004   4.429   4.556   0.032 -1.2452 -3.7808  0.5076
11505TIP3   OH256005   4.270   5.904  13.329  0.5117 -0.3331 -0.1848
11505TIP3    H156006   4.320   5.825  13.308  1.3655 -0.4747  2.1845
11505TIP3    H256007   4.320   5.976  13.290  0.8269 -0.7761 -0.5995
11506TIP3   OH256008   1.913   3.423   2.509  0.6203  0.2418 -0.1646
11506TIP3    H156009   1.887   3.394   2.596 -0.4688 -0.2046 -0.6329
11506TIP3    H256010   1.981   3.361   2.482  0.8676  0.3032  0.3031
11507TIP3   OH256011   4.427   5.919  14.970  0.1969 -0.0349 -0.2068
11507TIP3    H156012   4.512   5.944  14.935 -0.2419  0.2795 -1.0657
11507TIP3    H256013   4.368   5.989  14.942 -0.2366  0.0394  0.8628
11508TIP3   OH256014   0.542   2.047   1.046 -0.6307 -0.3554 -0.0672
11508TIP3    H156015   0.467   1.989   1.061 -0.7772  0.0644  0.8201
11508TIP3    H256016   0.592   2.043   1.127 -0.2366  0.1831 -0.2826
11509TIP3   OH256017   1.139   3.779   3.684 -0.0044 -0.3669 -0.0491
11509TIP3    H156018   1.227   3.771   3.648  0.9047  0.9542  1.8028
11509TIP3    H256019   1.138   3.719   3.758 -0.0590  0.9885  1.0529
11510TIP3   OH256020   0.801   7.118   2.869 -0.6316  0.6664 -0.4135
11510TIP3    H156021   0.705   7.109   2.867 -0.4980 -1.4483  1.6011
11510TIP3    H256022   0.834   7.033   2.840  0.6513  1.0790 -0.1946
11511TIP3   OH256023   5.168   0.113  13.711  0.1414  0.5347  0.0108
11511TIP3    H156024   5.137   0.059  13.783 -0.3558  0.9950  0.1461
11511TIP3    H256025   5.176   0.201  13.749  1.5495  0.4481 -0.0318
11512TIP3   OH256026   5.756   5.256   1.629 -0.3102 -0.0788 -0.1032
11512TIP3    H156027   5.754   5.309   1.709 -1.3325  1.0877 -0.8775
11512TIP3    H256028   5.786   5.170   1.658 -0.9637  0.2405  1.6024
11513TIP3   OH256029   6.755   1.743   0.929  0.0514 -0.3925 -0.2083
11513TIP3    H156030   6.792   1.665   0.887 -1.6638 -1.1158 -0.4198
11513TIP3    H256031   6.831   1.794   0.956  1.2080 -1.9672 -0.4023
11514TIP3   OH256032   0.635   4.152  11.652  0.2014  0.4255 -0.2882
11514TIP3    H156033   0.715   4.145  11.704  0.8285 -1.8316 -1.4809
11514TIP3    H256034   0.660   4.206  11.577  0.8588 -0.9155 -1.0580
11515TIP3   OH256035   5.261   5.030   5.503  0.0412  0.5487 -0.1844
11515TIP3    H156036   5.197   4.999   5.568  1.2496 -0.2330  0.6602
11515TIP3    H256037   5.326   4.960   5.499  3.2878  3.2275  2.3786
11516TIP3   OH256038   3.910   4.109   2.030 -0.5798  0.5092 -0.4259
11516TIP3    H156039   3.946   4.032   2.076 -2.8617  1.4006  3.0456
11516TIP3    H256040   3.858   4.072   1.959  1.5227 -0.9879 -1.2581
11517TIP3   OH256041   4.878   5.238  15.286  0.0134  0.1103  0.5989
11517TIP3    H156042   4.929   5.253  15.365 -0.0725  0.3114  0.6156
11517TIP3    H256043   4.903   5.150  15.257  1.0913  0.5856  0.0550
11518TIP3   OH256044   3.150   1.036   0.155 -0.4038 -0.7470  0.4624
11518TIP3    H156045   3.151   0.943   0.131  1.2964 -0.4033 -0.8751
11518TIP3    H256046   3.169   1.082   0.073 -2.3861  0.8518  0.8683
11519TIP3   OH256047   4.854   2.959   0.397  0.3609 -0.7066 -0.2955
11519TIP3    H156048   4.791   2.897   0.360  1.6281 -1.8165 -0.6336
11519TIP3    H256049   4.939   2.930   0.363  1.3794 -0.8848  2.3325
11520TIP3   OH256050   6.195   6.076   0.050  0.6558  0.1732  0.2376
11520TIP3    H156051   6.188   5.992   0.096  0.8056  0.2339  0.3743
11520TIP3    H256052   6.186   6.142   0.119 -0.4893  0.2848 -0.0190
11521TIP3   OH256053   3.744   4.987  11.922 -0.3099  0.1937 -0.7652
11521TIP3    H156054   3.743   4.984  11.826 -0.7961 -2.2269 -0.6940
11521TIP3    H256055   3.733   4.896  11.950 -2.4906  1.1291  1.6198
11522TIP3   OH256056   4.295   4.370   0.248  0.1632  0.2538 -0.0269
11522TIP3    H156057   4.303   4.463   0.225 -2.1180  0.2482 -0.9253
11522TIP3    H256058   4.201   4.356   0.261  0.1765 -2.4913 -2.3455
11523TIP3   OH256059   5.188   2.123   3.250  0.2800  0.3552  0.5352
11523TIP3    H156060   5.270   2.100   3.293 -0.7077 -0.2937  2.1009
11523TIP3    H256061   5.124   2.129   3.321 -0.9841  1.0917 -0.6329
11524TIP3   OH256062   4.031   4.351   0.324 -0.3113 -0.0410 -0.1684
11524TIP3    H156063   3.941   4.379   0.312 -0.5151 -0.3987  0.5125
11524TIP3    H256064   4.043   4.347   0.419 -0.1699 -1.8079 -0.2449
11525TIP3   OH256065   4.623   3.084   0.747 -0.0655 -0.2961 -0.2196
11525TIP3    H156066   4.670   3.130   0.677  0.5715 -0.6760 -0.0490
11525TIP3    H256067   4.685   3.081   0.820 -0.9570  0.6734  0.5950
11526TIP3   OH256068   6.790   5.435  12.559 -0.5868 -0.4588  0.1329
11526TIP3    H156069   6.810   5.479  12.642 -1.8097 -2.4205  1.5264
11526TIP3    H256070   6.823   5.494  12.492  0.8083  0.9881  2.0316
11527TIP3   OH256071   5.226   2.407  14.905 -0.2500 -0.2283 -0.0197
11527TIP3    H156072   5.141   2.365  14.891 -0.0513 -0.1795 -1.4672
11527TIP3    H256073   5.255   2.430  14.817  1.7916 -1.2940  0.3500
11528TIP3   OH256074   0.521   1.392   1.112 -0.1548 -0.1287  0.0207
11528TIP3    H156075   0.476   1.384   1.028  0.0243  1.2129 -0.2268
11528TIP3    H256076   0.548   1.484   1.115  1.5569 -0.6390  0.6722
11529TIP3   OH256077   3.512   3.240   0.264 -0.5212  0.2234 -0.1821
11529TIP3    H156078   3.514   3.161   0.209  1.7181 -0.9148  1.4570
11529TIP3    H256079   3.559   3.215   0.343 -1.8692  2.4933  1.3879
11530TIP3   OH256080   4.371   6.475   0.647 -0.0538 -0.2684 -0.0694
11530TIP3    H156081   4.378   6.543   0.580  0.3765 -0.9607 -0.7433
11530TIP3    H256082   4.413   6.512   0.724 -0.9704  0.7180 -0.0339
11531TIP3   OH256083   2.994   2.012   3.295  0.1381 -0.5484 -0.1757
11531TIP3    H156084   3.014   1.959   3.372  0.8029 -0.8605 -0.5466
11531TIP3    H256085   2.919   1.969   3.255 -0.3803 -0.2222  0.4512
11532TIP3   OH256086   4.471   2.622   0.994  0.2124 -0.3189  0.0136
11532TIP3    H156087   4.454   2.563   1.068 -1.1189  0.7501  0.5826
11532TIP3    H256088   4.390   2.672   0.984  0.7870  0.3461 -1.4472
11533TIP3   OH256089   3.518   2.741  13.432 -0.3150  0.2966 -0.2946
11533TIP3    H156090   3.451   2.709  13.493  1.2311  0.3698  1.4899
11533TIP3    H256091   3.516   2.836  13.442  1.0488  0.2161  0.8705
11534TIP3   OH256092   1.407   0.032   1.044 -0.4427  0.6213  0.3627
11534TIP3    H156093   1.413   0.114   0.994  2.3284  0.0826 -0.2884
11534TIP3    H256094   1.452   0.052   1.127 -2.2578  0.5822  1.3696
11535TIP3   OH256095   1.325   2.136   2.423  0.1927  0.5924 -0.2750
11535TIP3    H156096   1.271   2.109   2.497  1.1173 -1.9259 -0.4688
11535TIP3    H256097   1.389   2.066   2.412  0.0931  0.8864 -3.4410
11536TIP3   OH256098   1.644   5.332  13.155  0.0971  0.2157 -0.0821
11536TIP3    H156099   1.626   5.238  13.153  0.3697  0.1795 -1.0055
11536TIP3    H256100   1.558   5.373  13.169  0.0695 -0.1934  0.9522
11537TIP3   OH256101   3.707   6.988   1.060 -0.6053  0.1460 -0.0496
11537TIP3    H156102   3.623   7.022   1.030  0.7842  2.1166 -1.8949
11537TIP3    H256103   3.755   7.065   1.089  1.1710 -0.7248 -0.6077
11538TIP3   OH256104   3.931   0.174   4.427  0.1495  0.1331  0.0560
11538TIP3    H156105   3.993   0.102   4.437 -0.3086 -0.5685 -2.0256
11538TIP3    H256106   3.855   0.146   4.479  0.6894 -0.0378  0.7619
11539TIP3   OH256107   3.260   0.669   4.353 -0.0998 -0.1483  0.5590
11539TIP3    H156108   3.168   0.659   4.379 -0.2795 -1.3739 -0.5005
11539TIP3    H256109   3.290   0.579   4.339  0.6078  0.3810 -1.3634
11540TIP3   OH256110   1.647   1.958   5.280  0.1970 -1.1028 -0.2673
11540TIP3    H156111   1.604   1.990   5.359 -1.2747 -0.1148 -1.4500
11540TIP3    H256112   1.708   2.028   5.256 -0.4778 -0.7259 -0.8797
11541TIP3   OH256113   0.246   0.643   2.009 -0.7860 -0.2006  0.2239
11541TIP3    H156114   0.263   0.549   2.013  0.8025  0.1075  1.0763
11541TIP3    H256115   0.152   0.649   1.992 -0.5357 -1.9354 -1.9612
11542TIP3   OH256116   3.453   3.418   2.252 -0.4802  0.3201 -0.4013
11542TIP3    H156117   3.435   3.363   2.175 -0.7200  0.8073 -0.6955
11542TIP3    H256118   3.523   3.372   2.298  0.1302  0.3595 -1.2644
11543TIP3   OH256119   3.793   4.469   0.298  0.5455 -0.2963  0.5817
11543TIP3    H156120   3.743   4.391   0.275  2.0620 -1.1214  0.0533
11543TIP3    H256121   3.727   4.530   0.332 -1.2735 -0.3902 -2.5260
11544TIP3   OH256122   1.385   1.006   2.236  0.2135  0.7470  0.3512
11544TIP3    H156123   1.354   0.924   2.273 -0.1799  0.3127 -0.9340
11544TIP3    H256124   1.474   1.016   2.270 -0.1676  0.3978  1.4654
11545TIP3   OH256125   2.678   6.822  13.987  0.2624  0.5097 -0.1839
11545TIP3    H156126   2.641   6.811  13.899  1.6985 -0.1439 -0.7308
11545TIP3    H256127   2.697   6.732  14.016 -0.4908  0.7044  0.9187
11546TIP3   OH256128   5.363   2.554   0.693 -0.1579 -0.0194 -0.2724
11546TIP3    H156129   5.347   2.532   0.601 -1.7820  1.7047 -0.4352
11546TIP3    H256130   5.440   2.612   0.691 -1.3322  1.5623 -0.7707
11547TIP3   OH256131   5.346   1.881   1.505  0.3575  0.1814 -0.0323
11547TIP3    H156132   5.282   1.939   1.545  0.3204  1.1589 -1.4695
11547TIP3    H256133   5.428   1.900   1.551  0.1572  0.7545  0.0837
11548TIP3   OH256134   0.321   1.505   4.931  0.4686  0.6356 -0.2012
11548TIP3    H156135   0.383   1.548   4.990  1.3110 -0.1302 -0.5337
11548TIP3    H256136   0.268   1.450   4.988 -0.5075  1.9662  0.2087
11549TIP3   OH256137   3.337   1.181  15.298 -0.4160  0.0553 -0.3209
11549TIP3    H156138   3.418   1.230  15.311 -1.2841  1.0851  1.2998
11549TIP3    H256139   3.280   1.241  15.250 -0.5778 -0.3043 -0.5795
11550TIP3   OH256140   5.745   5.255  14.113  0.1112  0.2346  0.8357
11550TIP3    H156141   5.714   5.327  14.058 -1.6967 -1.1556 -0.0060
11550TIP3    H256142   5.671   5.195  14.119  1.3552 -1.2296  2.1119
11551TIP3   OH256143   2.874   3.503   2.370 -0.0109 -0.2891  0.1118
11551TIP3    H156144   2.814   3.576   2.354  0.7967  0.3621  0.0065
11551TIP3    H256145   2.835   3.456   2.443 -0.7876 -0.0270 -0.1241
11552TIP3   OH256146   2.887   5.312  14.694  0.1709 -0.6664 -0.3613
11552TIP3    H156147   2.852   5.248  14.755  0.6481  1.2737  2.0508
11552TIP3    H256148   2.978   5.324  14.721  0.3631  0.3136 -1.3861
11553TIP3   OH256149   1.898   5.913   3.864  0.2510  0.0104  0.5292
11553TIP3    H156150   1.904   6.008   3.858  1.7581  0.0795  2.3969
11553TIP3    H256151   1.804   5.895   3.868 -0.0397  1.4398  0.5590
11554TIP3   OH256152   6.798   0.624  15.364 -0.8353  0.9177  0.6695
11554TIP3    H156153   6.893   0.617  15.351 -0.3993  1.6156  3.2846
11554TIP3    H256154   6.761   0.558  15.306  1.3286 -0.2866  0.6269
11555TIP3   OH256155   4.487   1.393   0.998 -0.2074  0.0170  0.3709
11555TIP3    H156156   4.412   1.369   1.052 -2.0939  2.3218 -1.1264
11555TIP3    H256157   4.482   1.334   0.923 -0.6680  0.2811  0.1866
11556TIP3   OH256158   5.739   2.746  15.200  0.1242  0.7261  0.4513
11556TIP3    H156159   5.660   2.728  15.251  1.4766  0.7193  2.6021
11556TIP3    H256160   5.719   2.826  15.152 -1.5382  0.1806  0.1832
11557TIP3   OH256161   4.954   4.142   2.581 -0.3511  0.1664  0.1536
11557TIP3    H156162   4.891   4.182   2.521  0.4753 -0.4295 -1.1383
11557TIP3    H256163   4.939   4.185   2.665 -1.8927  0.6298 -0.3524
11558TIP3   OH256164   2.182   0.391   0.093 -0.3768 -0.0724  0.9917
11558TIP3    H156165   2.246   0.335   0.049 -1.5395 -0.5600 -0.0971
11558TIP3    H256166   2.234   0.444   0.154  1.0060 -0.7376  0.4024
11559TIP3   OH256167   0.800   2.827  15.256  0.2220  0.3069  0.3448
11559TIP3    H156168   0.782   2.824  15.162  1.2124  0.3758  0.1495
11559TIP3    H256169   0.769   2.914  15.283 -2.5175 -0.6923  0.6158
11560TIP3   OH256170   2.801   0.280   0.837  0.2102  0.0492  0.3544
11560TIP3    H156171   2.706   0.288   0.838  0.3457  1.6316  1.6085
11560TIP3    H256172   2.832   0.365   0.807  1.2276 -0.4779 -0.0967
11561TIP3   OH256173   2.997   4.216   2.782 -0.3681 -0.1716  0.1030
11561TIP3    H156174   2.981   4.197   2.689  2.7528  1.4647 -0.8171
11561TIP3    H256175   2.949   4.297   2.798  0.7437  0.6406 -0.6298
11562TIP3   OH256176   6.283   6.941   5.398 -0.0035 -0.5108 -0.4416
11562TIP3    H156177   6.344   6.869   5.414  1.5632  0.8443 -0.1681
11562TIP3    H256178   6.334   7.020   5.414 -1.8073  0.6721 -0.3351
11563TIP3   OH256179   5.387   6.211   2.479  0.7692 -0.6304  0.2762
11563TIP3    H156180   5.402   6.304   2.497 -0.3461 -0.5161  0.6703
11563TIP3    H256181   5.474   6.175   2.463  1.2934  0.3039  1.0017
11564TIP3   OH256182   4.168   2.555   2.387 -0.3015 -0.2495 -0.2346
11564TIP3    H156183   4.145   2.609   2.311 -0.2346  0.7443  0.4323
11564TIP3    H256184   4.130   2.602   2.462 -1.7074 -2.0286  0.1929
11565TIP3   OH256185   3.436   2.125   0.140 -0.8618  0.6524  0.0733
11565TIP3    H156186   3.417   2.032   0.150 -0.1414  0.6149  1.1793
11565TIP3    H256187   3.409   2.145   0.050 -0.1478 -0.8436 -0.5011
11566TIP3   OH256188   2.694   0.145  12.075 -0.6880  1.0277 -0.0953
11566TIP3    H156189   2.651   0.168  11.993 -2.1592  2.8143  1.1283
11566TIP3    H256190   2.753   0.219  12.092 -0.1406  0.5055  0.2775
11567TIP3   OH256191   1.342   2.267   0.264 -0.3421  0.0853 -0.1354
11567TIP3    H156192   1.258   2.229   0.236 -0.4454  0.5468 -0.4561
11567TIP3    H256193   1.334   2.360   0.244 -0.2487  0.3557  1.0309
11568TIP3   OH256194   4.426   6.185   4.494 -0.0859  0.7022 -0.0996
11568TIP3    H156195   4.482   6.108   4.499 -1.3159 -0.1590  0.9431
11568TIP3    H256196   4.481   6.257   4.524  0.5976 -0.0405  0.4613
11569TIP3   OH256197   5.596   1.143  13.759 -0.2520  0.1867 -0.0617
11569TIP3    H156198   5.576   1.171  13.849 -0.2465  1.0714 -0.3258
11569TIP3    H256199   5.658   1.072  13.769 -0.6767 -0.0899  0.6600
11570TIP3   OH256200   6.825   1.492   0.825  0.1109  0.4822 -0.2268
11570TIP3    H156201   6.914   1.466   0.849  0.2479  0.2715 -0.9587
11570TIP3    H256202   6.776   1.410   0.819 -0.0479  0.5727 -0.1926
11571TIP3   OH256203   5.479   2.734  15.306 -0.0023  0.0035  0.1270
11571TIP3    H156204   5.393   2.693  15.301 -0.0417  0.2778 -1.9237
11571TIP3    H256205   5.461   2.828  15.310  0.2004  0.1191 -1.3611
11572TIP3   OH256206   2.374   6.918  15.075  0.1123  0.0585  0.2587
11572TIP3    H156207   2.359   7.012  15.086 -0.4907  0.0554 -0.4542
11572TIP3    H256208   2.307   6.876  15.129 -1.9607  0.0473 -2.2011
11573TIP3   OH256209   3.106   1.665   3.305  0.0746 -0.3870  0.1927
11573TIP3    H156210   3.185   1.610   3.304 -0.8319 -1.7277  1.0569
11573TIP3    H256211   3.035   1.605   3.326 -0.9109  1.1368  1.3472
11574TIP3   OH256212   5.352   5.726   0.681 -0.0013 -0.3596 -0.2823
11574TIP3    H156213   5.336   5.819   0.666  1.0762  0.3850  2.9038
11574TIP3    H256214   5.292   5.703   0.752  0.7444 -1.7652 -0.1002
11575TIP3   OH256215   2.401   3.150   2.356  0.2634  0.4149 -0.5740
11575TIP3    H156216   2.478   3.161   2.301  1.3141  2.3681  1.2316
11575TIP3    H256217   2.347   3.227   2.337  1.0980  1.6460  1.7768
11576TIP3   OH256218   2.990   4.812  14.463  0.5425 -0.3593  0.1230
11576TIP3    H156219   3.042   4.738  14.432  2.1106  0.2901  1.1187
11576TIP3    H256220   3.022   4.887  14.412  0.9927  0.1480  1.1335
11577TIP3   OH256221   4.504   4.427  14.742  0.4871  0.2798 -0.3211
11577TIP3    H156222   4.583   4.402  14.696  0.8782 -0.3267  0.6641
11577TIP3    H256223   4.437   4.436  14.673  0.7008 -2.0215 -0.8409
11578TIP3   OH256224   4.801   5.082  14.479 -0.5843 -0.3254  0.6954
11578TIP3    H156225   4.851   5.112  14.554  0.2614  0.1367 -0.0445
11578TIP3    H256226   4.863   5.083  14.406 -1.0681 -1.9366  0.2307
11579TIP3   OH256227   3.844   0.689   2.185  0.2221  0.2340  0.7484
11579TIP3    H156228   3.753   0.697   2.158 -0.0131 -4.0357 -0.0171
11579TIP3    H256229   3.843   0.706   2.280 -1.3156  0.3133  0.7245
11580TIP3   OH256230   0.547   3.775   3.321  0.0315  0.5065 -0.0420
11580TIP3    H156231   0.524   3.728   3.401  0.4268 -0.8681 -0.7091
11580TIP3    H256232   0.635   3.743   3.300  0.1082  1.1991 -0.7783
11581TIP3   OH256233   0.961   0.851   1.377  0.2622  0.3095  0.6351
11581TIP3    H156234   0.880   0.877   1.334  1.5860  1.2203 -1.3819
11581TIP3    H256235   1.009   0.801   1.311  2.0882  1.2531  1.1881
11582TIP3   OH256236   3.769   4.038   2.709  0.0106 -0.7010  0.0068
11582TIP3    H156237   3.729   3.978   2.645 -2.4914 -0.0414  0.8741
11582TIP3    H256238   3.848   4.070   2.666 -2.0279  0.3635 -3.1115
11583TIP3   OH256239   4.971   4.700  14.049  0.3059  0.1740  0.1621
11583TIP3    H156240   5.037   4.745  14.104 -0.6903  0.1104  1.4426
11583TIP3    H256241   4.933   4.770  13.997  0.1451  0.5100  0.7212
11584TIP3   OH256242   1.958   6.366   4.068  0.1276 -0.4009 -0.2930
11584TIP3    H156243   1.946   6.432   4.137  1.3199 -0.6575  0.1685
11584TIP3    H256244   1.869   6.334   4.050 -0.4105  0.9948 -0.2023
11585TIP3   OH256245   3.839   0.077   0.616  0.1076  0.3392  0.1230
11585TIP3    H156246   3.837   0.118   0.530  0.7081 -0.8986 -0.4947
11585TIP3    H256247   3.932   0.064   0.635 -0.1028 -1.9307 -0.2846
11586TIP3   OH256248   6.093   1.516   0.729 -0.3230 -0.4489 -1.0004
11586TIP3    H156249   6.182   1.551   0.737 -0.3533 -0.6993  0.4633
11586TIP3    H256250   6.092   1.473   0.644  0.6916  0.3167 -1.4114
11587TIP3   OH256251   4.827   4.727  15.534  0.5646  0.1775  0.5058
11587TIP3    H156252   4.752   4.782  15.558 -0.2926 -0.3773 -0.8411
11587TIP3    H256253   4.787   4.650  15.493  1.9058  0.1984 -0.8572
11588TIP3   OH256254   2.745   2.369   2.256 -0.4944  0.0603 -0.0976
11588TIP3    H156255   2.733   2.374   2.351 -0.9905 -0.5265 -0.1279
11588TIP3    H256256   2.664   2.330   2.224 -0.1402 -0.1682 -0.7189
11589TIP3   OH256257   1.300   3.138  13.025  0.2384  0.2596 -0.7658
11589TIP3    H156258   1.376   3.085  13.001 -0.3097 -0.8635 -0.0453
11589TIP3    H256259   1.230   3.074  13.041 -0.4123  1.1972  0.1721
11590TIP3   OH256260   0.648   2.676   1.007 -0.3330 -0.4409  0.1533
11590TIP3    H156261   0.671   2.739   1.076 -0.3324  0.4256 -0.6373
11590TIP3    H256262   0.576   2.626   1.044 -0.0854 -0.2296  0.9377
11591TIP3   OH256263   6.095   4.295  14.540  0.4094  0.5567 -0.1104
11591TIP3    H156264   6.044   4.357  14.489  0.5594  0.5697 -0.2460
11591TIP3    H256265   6.120   4.344  14.619 -0.7262  0.2015  0.4816
11592TIP3   OH256266   6.302   3.131  14.402  0.0831 -0.4186 -0.3724
11592TIP3    H156267   6.354   3.125  14.321 -0.3742  0.3079 -0.7272
11592TIP3    H256268   6.360   3.174  14.464  0.3550 -0.7662 -0.3842
11593TIP3   OH256269   4.492   1.666   1.662 -0.3155  0.4481  0.3903
11593TIP3    H156270   4.504   1.738   1.600 -0.4041  1.3425  1.3971
11593TIP3    H256271   4.422   1.613   1.623  0.0983  0.6126 -0.6071
11594TIP3   OH256272   2.986   5.304   2.328  0.2113  0.0753 -0.2236
11594TIP3    H156273   2.959   5.302   2.420  0.6762 -0.5594 -0.1012
11594TIP3    H256274   3.050   5.375   2.323  1.9062 -1.3904  0.4158
11595TIP3   OH256275   5.461   1.522  13.823 -0.6717  0.1411  0.6127
11595TIP3    H156276   5.447   1.437  13.864  1.2575 -0.4302  0.1281
11595TIP3    H256277   5.373   1.558  13.812 -1.4633 -1.4754  1.4697
11596TIP3   OH256278   3.108   2.054   2.003 -0.4391 -0.1565 -0.3126
11596TIP3    H156279   3.198   2.026   1.992  0.4905  2.1836  1.0232
11596TIP3    H256280   3.080   2.015   2.085 -0.8741 -1.3665 -1.0151
11597TIP3   OH256281   3.271   3.939  14.726 -0.0994  0.1604  0.2802
11597TIP3    H156282   3.277   4.027  14.764  0.1117  0.6024 -0.7456
11597TIP3    H256283   3.361   3.915  14.708 -0.1100 -0.5405  1.1497
11598TIP3   OH256284   2.295   4.659  12.603 -0.0488 -0.6506  0.0395
11598TIP3    H156285   2.335   4.656  12.689 -1.4352 -1.8759  0.6595
11598TIP3    H256286   2.292   4.567  12.574  1.7703 -0.1320 -1.9695
11599TIP3   OH256287   3.486   0.959   0.498 -0.0168  0.6127  0.5436
11599TIP3    H156288   3.419   0.890   0.493  0.9406 -0.2729 -0.1966
11599TIP3    H256289   3.507   0.979   0.407 -0.3381  1.9628  0.7506
11600TIP3   OH256290   2.163   3.903  15.539  0.5742 -0.8602  0.0526
11600TIP3    H156291   2.117   3.823  15.566 -0.1122 -0.2795  0.6175
11600TIP3    H256292   2.220   3.925  15.612  1.5407 -1.4019 -0.5247
11601TIP3   OH256293   4.201   1.486  14.438  0.1371 -0.2528  0.2697
11601TIP3    H156294   4.189   1.391  14.427  0.6225 -0.1614 -1.1330
11601TIP3    H256295   4.228   1.517  14.352  0.5254  1.0870  0.8607
11602TIP3   OH256296   4.269   6.473   0.197  0.6241  0.4459 -0.1460
11602TIP3    H156297   4.263   6.569   0.194 -0.1260  0.3734 -1.1602
11602TIP3    H256298   4.180   6.443   0.181  0.7967 -0.4267  0.5153
11603TIP3   OH256299   4.004   3.200  12.926 -0.0181  0.0831 -0.5973
11603TIP3    H156300   3.908   3.191  12.925 -0.1667  1.4141  0.2471
11603TIP3    H256301   4.031   3.173  12.838 -1.0408 -1.5916 -0.4154
11604TIP3   OH256302   1.385   6.569  12.504  0.2738 -0.0043 -0.5715
11604TIP3    H156303   1.422   6.482  12.491  1.8283  0.3104  1.4906
11604TIP3    H256304   1.346   6.565  12.592 -1.8744  0.6193 -1.4653
11605TIP3   OH256305   5.892   5.725   1.045 -0.3693  0.4878  0.2972
11605TIP3    H156306   5.817   5.671   1.018  1.3288 -1.8841  0.1741
11605TIP3    H256307   5.908   5.698   1.135  1.2360 -0.0844 -0.1537
11606TIP3   OH256308   2.392   3.990   3.709  0.0668 -0.5676  0.2352
11606TIP3    H156309   2.443   3.932   3.764  1.3910  0.4939  0.1670
11606TIP3    H256310   2.450   4.009   3.634 -1.4819 -1.5492 -1.2505
11607TIP3   OH256311   0.814   4.469   2.369  0.4444 -0.0098  0.3833
11607TIP3    H156312   0.786   4.417   2.444 -0.1671  3.3578  2.6371
11607TIP3    H256313   0.895   4.511   2.398  0.7028  0.6044 -1.1770
11608TIP3   OH256314   3.078   4.657  15.050  0.2856  0.7176  0.3794
11608TIP3    H156315   3.122   4.715  15.112 -0.1003  0.2022  1.1519
11608TIP3    H256316   2.984   4.668  15.069  0.1163  1.1518 -0.6575
11609TIP3   OH256317   4.334   3.649  15.017  0.5108  0.1841 -0.1894
11609TIP3    H156318   4.280   3.597  15.076 -0.2219 -1.2689 -2.1009
11609TIP3    H256319   4.308   3.740  15.033 -0.9213 -0.3460  0.4763
11610TIP3   OH256320   2.896   1.914  14.670  0.0749  0.5644 -0.3285
11610TIP3    H156321   2.918   1.972  14.743 -0.6946  0.2220  0.1808
11610TIP3    H256322   2.802   1.897  14.680  0.3410 -0.9771 -0.3340
11611TIP3   OH256323   7.017   3.671  13.089 -0.1264 -0.2064 -0.2572
11611TIP3    H156324   6.995   3.610  13.018 -0.3773 -0.7492  0.2856
11611TIP3    H256325   6.940   3.728  13.095 -1.2384 -1.8039  1.3156
11612TIP3   OH256326   6.696   4.813   2.425  0.5890  0.9160 -0.2073
11612TIP3    H156327   6.774   4.758   2.434  1.6266  2.5234  0.8678
11612TIP3    H256328   6.632   4.773   2.483  0.1535 -1.1585 -2.0554
11613TIP3   OH256329   6.250   4.917   0.013 -0.3768  0.1478 -0.5173
11613TIP3    H156330   6.306   4.847  -0.020 -0.9842 -0.7361  0.3155
11613TIP3    H256331   6.262   4.915   0.108  0.1928  1.6817 -0.5273
11614TIP3   OH256332   2.355   5.735   3.218  0.4509  0.2606  0.2522
11614TIP3    H156333   2.264   5.735   3.245  0.5267 -0.0577  0.5140
11614TIP3    H256334   2.398   5.800   3.273  0.1420  1.2894 -0.7062
11615TIP3   OH256335   0.159   1.944  12.130  0.6400  0.2401  0.3946
11615TIP3    H156336   0.111   2.027  12.136  0.2973  0.0348  0.4954
11615TIP3    H256337   0.225   1.960  12.062 -0.1301  0.2468 -0.3625
11616TIP3   OH256338   1.403   5.503   2.686  0.0499  0.1415 -0.1209
11616TIP3    H156339   1.337   5.440   2.656  0.8131  0.0192 -1.6182
11616TIP3    H256340   1.367   5.588   2.662 -2.3045  0.5525  4.4642
11617TIP3   OH256341   5.393   2.595  14.995  0.9278 -0.0799  0.1946
11617TIP3    H156342   5.324   2.532  14.973  1.2836 -0.2207 -0.5316
11617TIP3    H256343   5.424   2.567  15.081  0.5743 -0.4506  0.2062
11618TIP3   OH256344   4.088   0.644  14.783 -0.2040 -0.0862 -0.1453
11618TIP3    H156345   4.121   0.711  14.723  2.7079 -2.5942 -1.5454
11618TIP3    H256346   4.021   0.598  14.732 -0.5830  0.3287 -0.0193
11619TIP3   OH256347   4.384   6.453  14.709  0.2310  0.0474 -0.1839
11619TIP3    H156348   4.307   6.478  14.759  1.8078  2.2425  1.2505
11619TIP3    H256349   4.434   6.397  14.768  1.3919  1.4548  0.2014
11620TIP3   OH256350   5.932   1.251   0.922 -0.5997 -0.2527 -0.3106
11620TIP3    H156351   6.014   1.216   0.957 -0.0592  0.1885 -1.1174
11620TIP3    H256352   5.900   1.184   0.862 -1.1341 -0.6749  0.4299
11621TIP3   OH256353   4.692   3.822   1.942 -0.2732  0.0216  0.0435
11621TIP3    H156354   4.675   3.751   2.004 -2.2505  0.1501 -0.3180
11621TIP3    H256355   4.787   3.823   1.932 -0.1864 -2.2673  0.4118
11622TIP3   OH256356   2.718   4.557  15.383 -0.2095 -0.0538 -0.1412
11622TIP3    H156357   2.771   4.621  15.432 -0.8568 -0.0939  0.6320
11622TIP3    H256358   2.780   4.487  15.361  0.0499 -0.1548  0.8559
11623TIP3   OH256359   7.125   1.916  13.840  0.1211 -0.3562  0.3622
11623TIP3    H156360   7.174   1.852  13.893  0.6460  0.9543  1.4813
11623TIP3    H256361   7.033   1.896  13.858  0.2966  0.6284  2.4585
11624TIP3   OH256362   1.736   0.631   1.240 -0.0417  0.5272  0.0096
11624TIP3    H156363   1.704   0.541   1.239 -0.4075  0.6497 -1.4110
11624TIP3    H256364   1.821   0.627   1.196  0.1616  0.8025  0.3705
11625TIP3   OH256365   3.630   4.468   3.350  0.2142 -0.3050  0.3969
11625TIP3    H156366   3.639   4.382   3.308 -2.4617 -0.4635  0.0409
11625TIP3    H256367   3.626   4.530   3.276 -1.0823 -0.2334  0.5104
11626TIP3   OH256368   7.138   0.765   1.550 -0.4042  0.2498  0.2223
11626TIP3    H156369   7.226   0.797   1.530  0.4109 -1.3265  1.2211
11626TIP3    H256370   7.085   0.844   1.558  0.7646  1.1890 -1.0792
11627TIP3   OH256371   1.328   0.857  13.600 -0.0114  0.4812 -0.1720
11627TIP3    H156372   1.329   0.874  13.695 -1.2602  1.5123 -0.3348
11627TIP3    H256373   1.289   0.936  13.562  0.2574 -0.0340 -1.5292
11628TIP3   OH256374   1.171   2.073  14.491 -0.4929  0.0897  0.1039
11628TIP3    H156375   1.187   1.981  14.467  1.0153  0.0102  1.3311
11628TIP3    H256376   1.214   2.124  14.423 -0.5510 -0.1053 -0.0796
11629TIP3   OH256377   3.345   1.537  14.362 -0.4505  0.2968  0.2889
11629TIP3    H156378   3.403   1.602  14.402 -1.1522  2.1821 -1.6276
11629TIP3    H256379   3.260   1.580  14.359 -0.9138 -0.6701 -1.1028
11630TIP3   OH256380   6.794   4.125   0.594 -0.1969  0.0767  0.0729
11630TIP3    H156381   6.742   4.205   0.582 -1.6551 -0.4753  2.3833
11630TIP3    H256382   6.829   4.106   0.507 -0.3927  2.8289 -0.6641
11631TIP3   OH256383   1.592   2.553  12.284  0.5269 -0.1984  0.0685
11631TIP3    H156384   1.667   2.561  12.225 -0.9757  1.9464 -1.6191
11631TIP3    H256385   1.610   2.616  12.354 -0.0920  0.8817 -0.7533
11632TIP3   OH256386   0.430   0.536   0.993 -0.1349  0.0750  0.8407
11632TIP3    H156387   0.433   0.552   1.088  0.5595  0.0491  0.8307
11632TIP3    H256388   0.500   0.591   0.958 -0.3940  0.0878  0.3406
11633TIP3   OH256389   3.541   3.768  13.478 -0.0751 -0.0081  0.4968
11633TIP3    H156390   3.593   3.749  13.399  0.8861  1.5540  0.7426
11633TIP3    H256391   3.584   3.844  13.517 -1.7046  0.4002  1.5018
11634TIP3   OH256392   4.224   3.409  14.718  0.4464 -0.4096  0.1054
11634TIP3    H156393   4.311   3.447  14.729  0.5636 -0.1491 -1.5563
11634TIP3    H256394   4.174   3.441  14.793  2.0615 -1.4182  1.6684
11635TIP3   OH256395   6.834   3.688  15.534  0.4524  0.2025  0.5011
11635TIP3    H156396   6.925   3.703  15.559 -0.0632  0.6610  2.1572
11635TIP3    H256397   6.799   3.631  15.603 -0.8980  1.1484  0.6122
11636TIP3   OH256398   2.609   6.621   2.080 -0.6062 -0.2086 -0.1632
11636TIP3    H156399   2.557   6.670   2.143  0.7582 -0.6748  1.3459
11636TIP3    H256400   2.546   6.593   2.013 -2.1335 -0.0476  1.1879
11637TIP3   OH256401   5.721   6.525   1.090 -0.4786 -0.0341  0.3833
11637TIP3    H156402   5.671   6.605   1.107 -1.1532 -0.3819  0.0980
11637TIP3    H256403   5.758   6.538   1.003  0.6968  0.6085  0.9790
11638TIP3   OH256404   2.187   1.417   0.339 -0.0910  0.0152 -0.2131
11638TIP3    H156405   2.221   1.450   0.421 -0.2381 -2.1082  0.7450
11638TIP3    H256406   2.261   1.421   0.278  1.1191 -1.9755  1.0850
11639TIP3   OH256407   3.725   4.408   2.034 -0.8414  0.0800  0.2857
11639TIP3    H156408   3.708   4.333   1.977 -1.0802  0.0898  0.3430
11639TIP3    H256409   3.732   4.483   1.975  2.1227 -0.3881 -0.0440
11640TIP3   OH256410   2.847   3.145  12.909 -0.0808 -0.3127 -0.4745
11640TIP3    H156411   2.769   3.144  12.853 -0.2886  0.8974 -0.2100
11640TIP3    H256412   2.815   3.123  12.996 -0.0294 -0.3960 -0.4752
11641TIP3   OH256413   4.562   5.187   0.027 -0.3227  0.6872  0.1317
11641TIP3    H156414   4.487   5.181   0.086  1.5728  0.9792  2.6663
11641TIP3    H256415   4.588   5.279   0.030  1.7878  0.0897  1.4634
11642TIP3   OH256416   4.243   5.745   3.122 -0.4905 -0.2941  0.4815
11642TIP3    H156417   4.239   5.700   3.038  1.8877  0.3711 -0.0319
11642TIP3    H256418   4.219   5.678   3.186  1.4001 -1.8550 -0.4042
11643TIP3   OH256419   4.075   3.272  14.985  0.5833 -0.1508 -0.4303
11643TIP3    H156420   4.147   3.275  14.922  2.1980  1.6585  1.4218
11643TIP3    H256421   4.105   3.213  15.054  0.6511  1.2282  0.7460
11644TIP3   OH256422   5.272   1.222   2.355 -0.0835 -0.2695  0.1432
11644TIP3    H156423   5.185   1.253   2.327 -0.1079 -0.7910 -0.3533
11644TIP3    H256424   5.256   1.134   2.390 -0.0830  0.4270  1.9637
11645TIP3   OH256425   0.435   0.912   2.839 -0.3733 -0.6954  0.2942
11645TIP3    H156426   0.417   0.822   2.813 -1.1783  0.0575 -1.8081
11645TIP3    H256427   0.383   0.925   2.918  2.3488 -3.1062  2.5999
11646TIP3   OH256428   4.557   2.822   2.340 -0.4618  0.2890 -0.0533
11646TIP3    H156429   4.563   2.882   2.266 -1.5650  0.3139 -0.1365
11646TIP3    H256430   4.553   2.735   2.300 -0.2516  0.2489  0.0115
11647TIP3   OH256431   6.691   6.312   3.767  0.5136  0.0917 -0.1700
11647TIP3    H156432   6.604   6.311   3.806 -0.4468  1.9276 -2.1268
11647TIP3    H256433   6.727   6.397   3.792  1.3403 -0.2378 -0.2200
11648TIP3   OH256434   6.060   2.740   0.478  0.3178 -0.0798  0.5585
11648TIP3    H156435   6.093   2.653   0.502 -0.7806 -0.8473 -0.5718
11648TIP3    H256436   6.065   2.791   0.558  1.2385 -1.1089  1.1764
11649TIP3   OH256437   2.149   1.479  14.759  0.3017 -1.1329 -0.2679
11649TIP3    H156438   2.175   1.562  14.800 -0.4164 -0.4232 -1.2278
11649TIP3    H256439   2.063   1.496  14.721  0.4284 -2.1290 -1.0356
11650TIP3   OH256440   5.503   0.224  13.700  0.1578 -0.4387  0.6607
11650TIP3    H156441   5.559   0.231  13.778  0.3162 -0.3604  0.5412
11650TIP3    H256442   5.470   0.313  13.686 -0.0542 -0.4979  0.7733
11651TIP3   OH256443   1.136   1.802   1.293  0.3538 -0.6062  0.0413
11651TIP3    H156444   1.168   1.802   1.383 -0.5836  1.7751  0.4019
11651TIP3    H256445   1.042   1.782   1.301  0.7259 -2.7695 -0.6251
11652TIP3   OH256446   2.202   0.759   2.978 -0.3254  0.6574  0.8220
11652TIP3    H156447   2.126   0.743   2.924  0.3176 -1.9286  0.6373
11652TIP3    H256448   2.169   0.809   3.053 -1.6426  2.0869 -0.7001
11653TIP3   OH256449   6.490   2.648  15.253 -0.2489  0.6383  0.5063
11653TIP3    H156450   6.557   2.714  15.236  0.5736 -0.2048  0.4636
11653TIP3    H256451   6.538   2.568  15.274 -1.2460  0.3516  1.7730
11654TIP3   OH256452   0.142   7.089  12.761 -0.4343 -0.1088 -0.2979
11654TIP3    H156453   0.049   7.107  12.770 -0.6060 -0.2632 -1.5785
11654TIP3    H256454   0.149   7.041  12.679  0.9928  1.5998 -1.2256
11655TIP3   OH256455   6.723   0.335   1.812  0.4598 -1.1059  0.3614
11655TIP3    H156456   6.651   0.302   1.759 -0.1746  1.1160 -0.2405
11655TIP3    H256457   6.801   0.321   1.758  0.0676 -0.6490 -0.3298
11656TIP3   OH256458   3.922   1.398  11.550  0.0547  0.4035  0.3233
11656TIP3    H156459   3.885   1.453  11.481 -1.3445  1.0070  1.5429
11656TIP3    H256460   3.984   1.341  11.504  0.0956  1.6692 -1.2315
11657TIP3   OH256461   3.298   4.190   1.780  0.0243 -0.0513 -0.2325
11657TIP3    H156462   3.351   4.235   1.714  0.7185 -0.3318  0.1270
11657TIP3    H256463   3.305   4.097   1.757  1.3468 -0.2717  1.0056
11658TIP3   OH256464   0.527   3.529   1.567  0.1881 -0.1255  0.0051
11658TIP3    H156465   0.547   3.599   1.504  0.6935 -0.6486 -0.4178
11658TIP3    H256466   0.490   3.575   1.642  0.2085  0.5709 -0.4037
11659TIP3   OH256467   6.881   5.028   3.582 -0.2913  0.1468 -0.0505
11659TIP3    H156468   6.937   5.015   3.505 -0.9015 -0.2993 -0.4159
11659TIP3    H256469   6.916   5.107   3.624  1.6763 -1.0435  0.6426
11660TIP3   OH256470   0.728   4.365  12.694  0.1583  0.1073  0.0358
11660TIP3    H156471   0.718   4.270  12.699  0.0537  0.0992 -0.2976
11660TIP3    H256472   0.794   4.379  12.627 -1.6758  0.3515 -1.7551
11661TIP3   OH256473   3.874   3.198  11.199 -0.0149 -0.2306  0.1734
11661TIP3    H156474   3.786   3.234  11.188  0.4038  0.7778  0.1169
11661TIP3    H256475   3.864   3.105  11.175 -0.8942  0.0488 -0.5908
11662TIP3   OH256476   0.873   2.058  11.472  0.5638 -0.0717 -0.6610
11662TIP3    H156477   0.964   2.079  11.491  0.0907  0.3223  1.3723
11662TIP3    H256478   0.848   1.996  11.541 -0.5908 -0.4721 -1.4253
11663TIP3   OH256479   3.030   4.198   2.186  0.1302 -0.1724  0.1018
11663TIP3    H156480   3.106   4.143   2.164  1.3849  1.3105  0.6188
11663TIP3    H256481   3.062   4.287   2.176 -1.7698  0.4761 -0.3099
11664TIP3   OH256482   3.721   1.835  15.441  0.1265  1.1809 -0.5314
11664TIP3    H156483   3.632   1.807  15.418  0.5867  0.9009 -1.9837
11664TIP3    H256484   3.708   1.911  15.498 -1.0699  0.1896  0.5557
11665TIP3   OH256485   4.243   4.413   0.556  0.4011  0.3450 -0.2399
11665TIP3    H156486   4.282   4.489   0.512 -0.1241  1.9430  2.0188
11665TIP3    H256487   4.316   4.373   0.603  0.7909 -0.9044 -1.8461
11666TIP3   OH256488   1.559   2.715   4.802 -0.0437 -0.2239 -0.8493
11666TIP3    H156489   1.620   2.674   4.741 -0.5286  0.9152 -2.1044
11666TIP3    H256490   1.564   2.660   4.880  1.0527 -1.3256 -1.6715
11667TIP3   OH256491   3.555   1.002  15.268  0.2204 -0.0249 -0.4091
11667TIP3    H156492   3.631   1.013  15.326 -0.2926 -0.6870  0.4021
11667TIP3    H256493   3.511   1.087  15.271 -0.2885 -0.3236  0.8834
11668TIP3   OH256494   5.771   1.023   1.414 -0.3457 -0.0420 -0.1527
11668TIP3    H156495   5.846   1.081   1.426 -0.4574  0.4952 -1.8484
11668TIP3    H256496   5.808   0.943   1.377 -0.6111  0.3035 -1.1961
11669TIP3   OH256497   4.645   3.579  13.334 -0.6969 -0.5706  0.0099
11669TIP3    H156498   4.706   3.508  13.318 -0.8926 -0.6949 -0.1970
11669TIP3    H256499   4.574   3.539  13.384  0.2123 -0.0419  1.7560
11670TIP3   OH256500   4.682   6.653  15.004  0.2246  0.4260  0.0307
11670TIP3    H156501   4.741   6.718  14.967 -1.0251  2.0937  0.9053
11670TIP3    H256502   4.595   6.680  14.975 -0.2459 -1.2910 -0.2191
11671TIP3   OH256503   0.295   3.060   2.418  0.7089  0.4129  0.4830
11671TIP3    H156504   0.283   3.155   2.423  1.7449  0.5254  0.8917
11671TIP3    H256505   0.221   3.029   2.366 -1.1726  1.1414  2.6641
11672TIP3   OH256506   4.297   2.984   5.204  0.3979  0.0443 -0.7716
11672TIP3    H156507   4.340   2.904   5.234  0.1037 -0.2444 -1.0974
11672TIP3    H256508   4.304   2.980   5.108  0.8807  0.6946 -0.7651
11673TIP3   OH256509   4.783   2.425   5.328  0.2975 -0.0132  0.3185
11673TIP3    H156510   4.823   2.385   5.252 -1.0665 -1.2931  0.2413
11673TIP3    H256511   4.852   2.428   5.394  1.1826  0.1194 -0.6156
11674TIP3   OH256512   4.113   0.773  15.242 -0.1696  0.1124 -0.2372
11674TIP3    H156513   4.161   0.850  15.272  0.4501 -0.4080  0.1108
11674TIP3    H256514   4.028   0.780  15.285 -0.1298  0.6100 -0.2298
11675TIP3   OH256515   3.444   3.067   0.566  0.2299 -0.7766  0.6383
11675TIP3    H156516   3.537   3.069   0.542 -0.0383 -1.5381 -0.5142
11675TIP3    H256517   3.403   3.016   0.497 -1.2764  0.7391  0.3883
11676TIP3   OH256518   2.560   2.636   1.981  0.5912 -0.3718  0.2088
11676TIP3    H156519   2.580   2.565   1.920  1.8360  0.9304 -0.9429
11676TIP3    H256520   2.611   2.710   1.949 -0.1145  0.8437  1.8187
11677TIP3   OH256521   4.218   6.672   5.303  0.1676  0.4292 -0.9614
11677TIP3    H156522   4.154   6.624   5.357  0.5500  1.0400  0.0509
11677TIP3    H256523   4.303   6.643   5.336  0.4048  2.4482  0.2467
11678TIP3   OH256524   6.484   2.608   2.204  0.3644  0.8288  0.0152
11678TIP3    H156525   6.409   2.614   2.263  0.2040 -0.0951 -0.0815
11678TIP3    H256526   6.449   2.631   2.118 -0.4161 -2.0982 -0.4944
11679TIP3   OH256527   3.874   2.883   0.376  0.1443 -0.4120  0.0653
11679TIP3    H156528   3.921   2.825   0.317 -1.4419 -2.3321  0.6602
11679TIP3    H256529   3.795   2.836   0.400 -0.1887  1.1149  2.2149
11680TIP3   OH256530   5.637   5.193   0.530  0.0824  0.5853 -0.5902
11680TIP3    H156531   5.543   5.208   0.528 -0.2308 -1.0806  0.4820
11680TIP3    H256532   5.669   5.250   0.599 -0.2797  0.4108 -0.2775
11681TIP3   OH256533   2.391   2.100   4.345  0.1172  0.2424  0.4849
11681TIP3    H156534   2.344   2.027   4.386  2.6014 -2.3395 -1.0708
11681TIP3    H256535   2.461   2.121   4.406 -0.7296  1.5425  1.0372
11682TIP3   OH256536   1.260   0.681   2.108 -0.3901  0.0617 -1.0297
11682TIP3    H156537   1.228   0.594   2.128 -0.0701 -0.2188 -1.7285
11682TIP3    H256538   1.185   0.726   2.068 -0.1224 -0.3561 -1.9929
11683TIP3   OH256539   3.535   0.934   2.601 -0.1944  0.0840  0.2086
11683TIP3    H156540   3.606   0.979   2.556  0.3348 -1.1102 -0.1632
11683TIP3    H256541   3.483   1.005   2.641  0.2976  1.0397 -0.8304
11684TIP3   OH256542   2.940   0.190   4.436 -0.7404 -0.4676 -0.2336
11684TIP3    H156543   3.025   0.151   4.414  0.4252  1.2734  1.0977
11684TIP3    H256544   2.926   0.168   4.528 -0.1882  2.0129  0.4547
11685TIP3   OH256545   1.969   2.013  12.263 -0.6269  0.5341 -0.5017
11685TIP3    H156546   1.978   2.004  12.358 -0.4901 -4.0312 -0.8418
11685TIP3    H256547   2.041   2.071  12.237  1.0396 -0.3897  1.8845
11686TIP3   OH256548   5.646   4.862   1.886 -0.3505 -0.4351  0.5713
11686TIP3    H156549   5.729   4.895   1.851 -0.3417 -1.4105 -0.3649
11686TIP3    H256550   5.580   4.922   1.852 -0.2931 -1.1310 -0.8111
11687TIP3   OH256551   6.470   7.046  15.424 -0.3954 -0.5374  0.0258
11687TIP3    H156552   6.416   6.983  15.472 -0.8189  0.0230  0.3013
11687TIP3    H256553   6.554   7.003  15.413 -0.0199 -0.3822  2.0027
11688TIP3   OH256554   5.011   4.192   4.475 -0.1028 -0.0162 -0.4847
11688TIP3    H156555   5.094   4.158   4.440 -0.1690 -2.7162  1.8237
11688TIP3    H256556   4.944   4.138   4.435 -0.6281  0.8508 -0.7874
11689TIP3   OH256557   4.702   1.056  14.733 -0.8137  0.3540  0.0321
11689TIP3    H156558   4.769   1.024  14.672 -0.8052  0.5555 -0.0640
11689TIP3    H256559   4.682   0.980  14.788  0.1376  0.5326  0.6381
11690TIP3   OH256560   5.208   3.392   3.380  0.0591 -0.2212 -0.4303
11690TIP3    H156561   5.254   3.476   3.371 -0.0666 -0.1824 -0.7034
11690TIP3    H256562   5.148   3.405   3.453 -1.3396  0.5474 -1.6762
11691TIP3   OH256563   0.603   5.453   2.186 -0.1211 -0.2863 -0.1637
11691TIP3    H156564   0.525   5.409   2.221  0.7270 -1.8051 -0.1352
11691TIP3    H256565   0.606   5.428   2.094 -0.3107  0.7280 -0.4540
11692TIP3   OH256566   2.522   0.425   1.945 -0.2004  0.7877 -0.4061
11692TIP3    H156567   2.562   0.471   1.871  1.2993 -0.2779 -0.2658
11692TIP3    H256568   2.492   0.342   1.908 -0.8156  0.8921 -0.1437
11693TIP3   OH256569   4.753   1.681   4.706  0.0162  0.0716  0.0699
11693TIP3    H156570   4.697   1.612   4.742  0.6516 -0.3020  0.3604
11693TIP3    H256571   4.696   1.757   4.700 -0.0298  0.2386  2.2066
11694TIP3   OH256572   6.280   1.814  15.488 -0.0129 -0.2941  0.4439
11694TIP3    H156573   6.277   1.799  15.394  0.8417  1.1398  0.1639
11694TIP3    H256574   6.191   1.840  15.511 -0.2650 -0.8237  0.0643
11695TIP3   OH256575   5.892   3.546   2.437 -0.1086 -0.1874  0.0395
11695TIP3    H156576   5.965   3.525   2.495  0.1112 -0.0895 -0.2007
11695TIP3    H256577   5.913   3.503   2.355  0.6666  1.4769 -0.6633
11696TIP3   OH256578   5.846   2.518  14.177 -0.0194  0.7467 -0.0044
11696TIP3    H156579   5.778   2.463  14.139  1.5740  0.2276 -2.2077
11696TIP3    H256580   5.859   2.484  14.265 -0.6734 -0.9038 -0.5367
11697TIP3   OH256581   3.899   3.871   0.694  0.8639  0.0153 -0.0665
11697TIP3    H156582   3.866   3.905   0.777 -0.4403  1.1371 -1.0094
11697TIP3    H256583   3.984   3.912   0.683  0.7650  0.3502  0.4263
11698TIP3   OH256584   1.295   3.600   4.223  0.2470 -0.1595 -0.4149
11698TIP3    H156585   1.250   3.587   4.307  1.5619 -2.0021  0.0380
11698TIP3    H256586   1.376   3.644   4.246  1.6963 -2.7475 -0.3887
11699TIP3   OH256587   6.895   2.807  15.412 -0.0146  0.6684 -0.2550
11699TIP3    H156588   6.905   2.870  15.340  1.1809 -0.3129 -0.9642
11699TIP3    H256589   6.965   2.829  15.473  0.7862 -0.3311 -0.7931
11700TIP3   OH256590   4.843   0.897   5.169 -0.2109  0.1328 -0.0848
11700TIP3    H156591   4.775   0.918   5.105  0.4565  0.1197 -0.8065
11700TIP3    H256592   4.906   0.969   5.161  0.5128 -0.5213 -0.3519
11701TIP3   OH256593   5.398   1.274   2.099 -0.1367  0.2557  0.4416
11701TIP3    H156594   5.328   1.338   2.087  0.4558  0.8658  0.1827
11701TIP3    H256595   5.368   1.220   2.172  1.0676  3.2701  3.3294
11702TIP3   OH256596   4.369   3.190  14.912  0.1604  0.0403 -0.0483
11702TIP3    H156597   4.461   3.194  14.936 -0.2557  2.0349  1.3667
11702TIP3    H256598   4.368   3.197  14.817  1.3887  1.7927  0.0468
11703TIP3   OH256599   0.042   4.837   1.841  0.2893  0.1944 -0.3256
11703TIP3    H156600  -0.028   4.780   1.809  0.2739  0.8176 -1.4359
11703TIP3    H256601   0.071   4.886   1.764  1.6264  0.2914  0.2146
11704TIP3   OH256602   2.566   7.133   3.194 -0.1932  0.1437 -0.1053
11704TIP3    H156603   2.563   7.042   3.221 -1.9410  0.4108  0.6758
11704TIP3    H256604   2.625   7.175   3.257 -1.5580  0.0886  1.2170
11705TIP3   OH256605   5.374   7.070  15.517  0.2818  0.1059 -0.3666
11705TIP3    H156606   5.404   7.160  15.512  1.9005 -0.4814 -1.9007
11705TIP3    H256607   5.302   7.065  15.454  0.3441  0.2714 -0.4509
11706TIP3   OH256608   7.122   4.044   4.534 -0.0762 -0.4145 -0.3477
11706TIP3    H156609   7.118   3.949   4.542 -0.3087 -0.5306 -1.7964
11706TIP3    H256610   7.031   4.073   4.539 -0.1194 -0.3841 -1.2557
11707TIP3   OH256611   2.690   3.487  14.764 -0.6049 -0.0283  0.3276
11707TIP3    H156612   2.684   3.535  14.847  0.8424 -0.5362  0.7331
11707TIP3    H256613   2.700   3.396  14.789 -0.2100 -0.1909 -0.4168
11708TIP3   OH256614   1.834   3.444   3.112  0.6462  0.7748 -0.0348
11708TIP3    H156615   1.891   3.518   3.132  0.6370  1.0410 -1.0065
11708TIP3    H256616   1.865   3.412   3.027  1.0083 -0.6669  0.6230
11709TIP3   OH256617   1.134   2.608   3.008 -0.3255 -0.3191  0.4151
11709TIP3    H156618   1.058   2.627   3.064 -1.0229 -0.8785 -0.3143
11709TIP3    H256619   1.143   2.685   2.952  0.3803  0.2460  1.3005
11710TIP3   OH256620   4.126   2.843  13.083  0.2159  0.3073  0.3151
11710TIP3    H156621   4.147   2.930  13.050  0.5945  0.7641  1.7166
11710TIP3    H256622   4.158   2.844  13.173 -0.3363 -1.0776  0.5309
11711TIP3   OH256623   5.864   5.536   3.800  0.1428  0.0235 -0.3508
11711TIP3    H156624   5.784   5.487   3.781 -0.9974  2.1576 -1.3341
11711TIP3    H256625   5.933   5.471   3.799 -1.5014 -1.7677 -0.1652
11712TIP3   OH256626   4.385   4.782  11.489  0.0325  0.8110 -0.7496
11712TIP3    H156627   4.394   4.731  11.570 -0.6299  1.2227 -0.4210
11712TIP3    H256628   4.308   4.746  11.447  1.4124 -0.6381 -2.0954
11713TIP3   OH256629   6.853   1.377   0.402  0.1470 -0.1740  0.0281
11713TIP3    H156630   6.902   1.459   0.392  1.5757 -0.9565  0.4948
11713TIP3    H256631   6.783   1.399   0.463  0.6045  0.6728  0.2734
11714TIP3   OH256632   1.072   2.118  11.827 -0.5815 -0.4312  0.0548
11714TIP3    H156633   1.064   2.081  11.915 -2.4168  2.2996  1.1131
11714TIP3    H256634   1.027   2.055  11.771 -2.7955 -0.3768  1.6750
11715TIP3   OH256635   4.639   3.236   1.193 -0.6811  0.5290 -0.5939
11715TIP3    H156636   4.562   3.289   1.178 -1.1812 -0.1645 -0.4955
11715TIP3    H256637   4.608   3.162   1.245  0.3034  0.9686  0.6700
11716TIP3   OH256638   1.675   1.108   1.779 -0.0073 -0.3986 -0.5967
11716TIP3    H156639   1.731   1.112   1.856 -1.2695 -0.2968  0.3305
11716TIP3    H256640   1.669   1.199   1.749 -1.1203 -0.1337  0.3774
11717TIP3   OH256641   2.905   2.785   1.760  0.0321  0.4111 -0.0162
11717TIP3    H156642   2.988   2.829   1.742  0.8356 -1.5176 -1.1775
11717TIP3    H256643   2.929   2.710   1.813 -0.9521 -0.2445 -0.4803
11718TIP3   OH256644   3.155   3.914   1.994 -0.8150  0.1590  0.5442
11718TIP3    H156645   3.210   3.965   2.054 -0.4274  1.8231 -1.1546
11718TIP3    H256646   3.215   3.886   1.925 -0.9993 -2.8091  1.5170
11719TIP3   OH256647   3.060   3.416  15.539 -0.1374  0.0856  0.7442
11719TIP3    H156648   2.992   3.461  15.489 -0.8444 -1.2314  0.4962
11719TIP3    H256649   3.022   3.405  15.626 -0.1105 -0.3397  0.7030
11720TIP3   OH256650   4.227   0.335   2.027  0.3106  0.7521  0.1463
11720TIP3    H156651   4.269   0.293   2.102 -1.4291 -0.3217  0.5639
11720TIP3    H256652   4.289   0.324   1.955  0.6510 -1.0323  0.6779
11721TIP3   OH256653   4.895   5.556   2.459  0.3919  0.6414 -0.3340
11721TIP3    H156654   4.963   5.565   2.526 -1.7067  0.6805  1.8721
11721TIP3    H256655   4.877   5.462   2.456  0.9545  0.5598 -1.3569
11722TIP3   OH256656   5.623   5.927  14.687 -0.0093  0.4101  0.2515
11722TIP3    H156657   5.623   5.841  14.646 -1.5480 -0.5797  2.2173
11722TIP3    H256658   5.558   5.977  14.638 -0.6373 -0.2258  0.4363
11723TIP3   OH256659   1.091   1.007   0.788  0.5581 -0.2127  0.1153
11723TIP3    H156660   1.001   1.010   0.757  0.9545 -0.0796 -1.0260
11723TIP3    H256661   1.083   0.998   0.883 -0.6543  1.7119  0.2053
11724TIP3   OH256662   2.892   3.211   2.440 -0.4905 -0.0253  0.0067
11724TIP3    H156663   2.814   3.254   2.475  0.0709  0.1951  1.0066
11724TIP3    H256664   2.875   3.203   2.346 -0.9562  1.6569 -0.0743
11725TIP3   OH256665   6.746   6.703   2.745 -0.5701  0.2693  1.0685
11725TIP3    H156666   6.683   6.649   2.792  0.6936 -1.0527  1.2631
11725TIP3    H256667   6.827   6.696   2.796  0.7512 -0.9781 -1.1337
11726TIP3   OH256668   6.383   0.334  15.055  0.2682  0.0269 -0.5115
11726TIP3    H156669   6.308   0.282  15.026  0.4434  0.5915 -2.0061
11726TIP3    H256670   6.354   0.374  15.137 -0.2764 -1.5038  0.0721
11727TIP3   OH256671   2.923   3.156   3.897  0.0593  0.1274  1.0139
11727TIP3    H156672   2.901   3.064   3.913 -1.5349  0.5069  1.1247
11727TIP3    H256673   2.844   3.204   3.922 -0.4521  1.2552 -2.4632
11728TIP3   OH256674   4.507   1.320   2.031  0.6054 -0.3571 -0.0482
11728TIP3    H156675   4.486   1.227   2.023  0.5672 -0.3169 -0.3822
11728TIP3    H256676   4.440   1.365   1.980  0.4429 -0.1243  0.3605
11729TIP3   OH256677   4.560   0.025   2.498 -0.3633  0.6442  0.2490
11729TIP3    H156678   4.495  -0.027   2.546 -0.1400  0.4361  0.3293
11729TIP3    H256679   4.521   0.112   2.490 -0.8740  0.3743 -0.1677
11730TIP3   OH256680   6.248   5.102  14.851 -0.1248 -0.5327 -0.2024
11730TIP3    H156681   6.238   5.155  14.772  0.5070 -0.6283 -0.3506
11730TIP3    H256682   6.342   5.085  14.856 -0.4679 -2.7333 -0.8739
11731TIP3   OH256683   6.023   0.416   3.756  0.0832  0.6982  0.0252
11731TIP3    H156684   6.102   0.378   3.795 -0.5265 -0.0323  0.5418
11731TIP3    H256685   6.029   0.509   3.776 -0.0671  0.3808  1.5992
11732TIP3   OH256686   6.224   5.552  15.417 -0.8220 -0.1523 -0.2901
11732TIP3    H156687   6.253   5.530  15.506 -2.7467 -0.8524  0.1784
11732TIP3    H256688   6.152   5.614  15.429 -1.5972 -0.8294 -1.3250
11733TIP3   OH256689   0.017   6.104   0.562  0.0697  0.3802  0.1492
11733TIP3    H156690   0.047   6.018   0.591 -0.0088  0.8014  1.4955
11733TIP3    H256691  -0.066   6.117   0.607 -0.2042  0.9218 -0.4978
11734TIP3   OH256692   0.851   5.055   0.357 -0.1129  0.1567  0.0234
11734TIP3    H156693   0.825   5.131   0.408  0.4021  0.0694  0.4204
11734TIP3    H256694   0.816   4.980   0.406  0.4941  0.0654  0.3193
11735TIP3   OH256695   6.207   1.921   2.132  0.3371  0.7806 -0.3570
11735TIP3    H156696   6.177   1.837   2.097  2.6252 -0.1411 -0.2077
11735TIP3    H256697   6.130   1.978   2.127 -1.7684 -1.7959  1.1616
11736TIP3   OH256698   3.833   3.846   2.927  0.0545 -0.1720  0.2597
11736TIP3    H156699   3.818   3.922   2.870  0.6184 -0.2556  0.0003
11736TIP3    H256700   3.745   3.810   2.942 -0.1013 -0.1275 -0.5196
11737TIP3   OH256701   1.611   1.511  15.006 -0.4835  0.2860  0.0815
11737TIP3    H156702   1.659   1.543  15.082 -1.8734  0.7341  0.7907
11737TIP3    H256703   1.538   1.572  14.996 -0.1539  0.3885 -1.7940
11738TIP3   OH256704   2.641   1.619   5.451 -0.2739  0.0497 -0.1649
11738TIP3    H156705   2.673   1.624   5.361  0.4163 -0.1816  0.0653
11738TIP3    H256706   2.564   1.562   5.446  0.5343 -1.0597 -0.4092
11739TIP3   OH256707   4.287   7.020  14.195 -0.2994  0.5769  0.8816
11739TIP3    H156708   4.373   6.978  14.195 -1.1833 -1.3857 -2.1855
11739TIP3    H256709   4.292   7.084  14.124 -1.0946  1.0898  1.2851
11740TIP3   OH256710   6.066   2.150   4.686 -0.0295  0.1492  0.2958
11740TIP3    H156711   6.098   2.230   4.644 -2.0102  0.3449 -0.8962
11740TIP3    H256712   6.059   2.087   4.614 -1.1137 -0.2600  0.7640
11741TIP3   OH256713   6.015   4.945  13.819  0.2222 -0.1856 -0.2728
11741TIP3    H156714   6.051   4.940  13.731  0.7396 -1.1793 -0.0182
11741TIP3    H256715   6.012   5.038  13.839  2.6516 -0.0474 -0.3233
11742TIP3   OH256716   0.069   1.055  15.033 -0.2750 -0.1179  0.0914
11742TIP3    H156717   0.041   1.140  15.068 -1.8239 -0.1673 -0.9930
11742TIP3    H256718   0.006   1.035  14.964  0.5091 -1.8149 -0.1626
11743TIP3   OH256719   3.635   2.531  15.252 -0.3117 -0.0048  0.1242
11743TIP3    H156720   3.544   2.532  15.223 -0.0641 -1.0907 -0.7612
11743TIP3    H256721   3.677   2.599  15.199 -0.2693 -0.6524 -0.6948
11744TIP3   OH256722   5.755   2.806   4.840  0.3165  0.1119  0.0252
11744TIP3    H156723   5.776   2.767   4.925 -0.4837 -0.1879  0.0893
11744TIP3    H256724   5.840   2.828   4.802  0.8332 -2.3132 -0.3031
11745TIP3   OH256725   1.617   4.170  14.682 -0.0349 -0.1000  0.4689
11745TIP3    H156726   1.521   4.174  14.683 -0.0731 -0.3907 -1.0593
11745TIP3    H256727   1.642   4.223  14.606  0.9277 -1.5505 -0.2524
11746TIP3   OH256728   6.424   2.954   1.514  0.2400 -0.7451 -0.5890
11746TIP3    H156729   6.359   2.904   1.465 -0.1934 -0.4256 -0.3386
11746TIP3    H256730   6.460   3.017   1.451 -0.3203 -0.3298 -0.4914
11747TIP3   OH256731   0.937   0.532  14.808 -0.3047  0.2034 -0.1328
11747TIP3    H156732   1.023   0.574  14.813 -0.0931 -0.1909 -0.4019
11747TIP3    H256733   0.877   0.595  14.847  0.2675  0.0344  1.0321
11748TIP3   OH256734   4.992   4.178   1.635  0.0210 -0.0424  0.0525
11748TIP3    H156735   5.017   4.115   1.703 -0.3765  1.0080  1.2009
11748TIP3    H256736   5.041   4.257   1.657  0.3864  0.0998 -1.2749
11749TIP3   OH256737   1.365   4.535  15.317 -0.3714 -0.7139 -0.8157
11749TIP3    H156738   1.282   4.539  15.271 -1.1595 -0.4620  0.5812
11749TIP3    H256739   1.416   4.608  15.281 -1.1618 -0.2061 -0.9299
11750TIP3   OH256740   1.001   3.992   0.962 -0.2821  0.3493 -0.0819
11750TIP3    H156741   1.092   3.977   0.990  0.0821 -0.9076 -1.8213
11750TIP3    H256742   1.002   3.974   0.868 -1.9065  2.4150 -0.5317
11751TIP3   OH256743   4.618   0.356   1.390 -0.1073 -0.0247 -0.2052
11751TIP3    H156744   4.548   0.292   1.374 -0.8344  0.9276 -0.8865
11751TIP3    H256745   4.598   0.393   1.476 -0.9311  0.8490 -0.7611
11752TIP3   OH256746   6.559   5.360  14.249 -0.3076  0.4709  0.4122
11752TIP3    H156747   6.497   5.427  14.223 -2.7116 -1.0536  1.9353
11752TIP3    H256748   6.568   5.371  14.344 -1.4069 -1.8339  0.8223
11753TIP3   OH256749   0.514   6.235  15.120  0.2212 -0.3194  0.5291
11753TIP3    H156750   0.540   6.324  15.097  0.6658 -0.6669 -0.3447
11753TIP3    H256751   0.425   6.244  15.154 -0.7072  0.1508 -1.9354
11754TIP3   OH256752   5.846   2.499   1.230 -0.7209 -0.4074 -0.3207
11754TIP3    H156753   5.790   2.538   1.163 -1.3166  0.0843  0.4593
11754TIP3    H256754   5.790   2.491   1.307 -0.5458 -2.5881 -0.3844
11755TIP3   OH256755   1.647   6.533   3.081  0.2380  0.0042 -0.3201
11755TIP3    H156756   1.624   6.587   3.157 -1.2504  0.0728 -0.8053
11755TIP3    H256757   1.710   6.469   3.116  0.6792  0.9424  0.6404
11756TIP3   OH256758   5.441   0.606  14.293  0.1137 -0.3038 -0.2196
11756TIP3    H156759   5.452   0.511  14.285 -1.0015 -0.5347  0.7998
11756TIP3    H256760   5.526   0.642  14.268  0.3806 -1.5385 -1.1617
11757TIP3   OH256761   7.087   3.827   1.856  0.0579 -0.5737 -0.1866
11757TIP3    H156762   7.099   3.750   1.911  0.9957 -1.4830 -1.6238
11757TIP3    H256763   7.098   3.795   1.767 -1.4393  0.8730 -0.9220
11758TIP3   OH256764   5.915   2.445   0.328 -0.7677 -0.1242 -0.2529
11758TIP3    H156765   5.927   2.520   0.270  0.7449 -0.5473 -0.5170
11758TIP3    H256766   5.821   2.440   0.342 -0.9787  1.1522 -1.1132
11759TIP3   OH256767   2.188   5.774   3.994 -0.5960  0.1661 -0.0126
11759TIP3    H156768   2.181   5.688   4.035 -2.3353  0.8363  1.1705
11759TIP3    H256769   2.116   5.777   3.931 -0.1280  0.4983 -0.5354
11760TIP3   OH256770   2.974   2.777   5.751 -0.2035  0.0050 -0.1241
11760TIP3    H156771   3.063   2.747   5.733 -0.2623 -0.5832  0.5545
11760TIP3    H256772   2.984   2.871   5.769  0.4170 -0.2667  0.9688
11761TIP3   OH256773   3.620   0.622   2.496 -0.2480 -0.0305  0.4886
11761TIP3    H156774   3.547   0.679   2.474 -0.4314  0.0444  1.2775
11761TIP3    H256775   3.657   0.660   2.576 -0.2150 -0.8761  0.8809
11762TIP3   OH256776   1.025   5.349  14.264  0.1327 -0.4688  0.5585
11762TIP3    H156777   1.040   5.385  14.177 -1.7304  0.5691  0.6265
11762TIP3    H256778   0.974   5.270  14.249 -0.7206  0.0370  0.7064
11763TIP3   OH256779   2.417   6.298   1.770  1.0526  0.1012  0.1511
11763TIP3    H156780   2.508   6.268   1.773  0.2600 -2.3555  1.4582
11763TIP3    H256781   2.374   6.239   1.708  0.1980  0.7880  0.0828
11764TIP3   OH256782   3.007   6.501  13.586  0.0241 -0.3773 -0.2316
11764TIP3    H156783   3.058   6.581  13.595 -0.8232 -0.1484  3.0601
11764TIP3    H256784   3.071   6.432  13.571  1.1114  0.3004  1.2345
11765TIP3   OH256785   4.969   1.222  12.491 -0.2009 -0.0458  0.9635
11765TIP3    H156786   5.040   1.247  12.551  0.3307 -0.1293  0.3809
11765TIP3    H256787   4.977   1.285  12.419  1.3127 -2.0127 -0.6568
11766TIP3   OH256788   4.761   3.900   1.196  0.3589  0.2878  0.1169
11766TIP3    H156789   4.705   3.957   1.143 -0.1902  0.7506  1.1559
11766TIP3    H256790   4.849   3.936   1.184  0.1289  0.8755  0.1318
11767TIP3   OH256791   2.937   4.082   0.777  0.3871  0.3224  0.4844
11767TIP3    H156792   2.892   4.128   0.848  0.9248 -0.3644  1.2856
11767TIP3    H256793   2.982   4.010   0.821  0.2264 -0.4713 -0.6427
11768TIP3   OH256794   0.693   4.737   0.176  0.1648 -0.0918 -1.0663
11768TIP3    H156795   0.670   4.673   0.109  2.7576 -1.0223 -1.1165
11768TIP3    H256796   0.789   4.732   0.183  0.3197  2.8825 -0.1799
11769TIP3   OH256797   0.754   4.987   2.354 -0.3108 -0.7492 -0.1958
11769TIP3    H156798   0.743   5.032   2.438  0.0881  0.4439 -0.7693
11769TIP3    H256799   0.824   4.924   2.371 -0.4984 -0.7821  0.4829
11770TIP3   OH256800   7.057   3.503  13.550  0.4706  0.5337 -0.5208
11770TIP3    H156801   7.042   3.591  13.586  0.7893  0.6259 -0.6060
11770TIP3    H256802   7.124   3.466  13.608 -0.5509 -0.1119  0.2473
11771TIP3   OH256803   3.419   5.777   0.367  0.5770  0.7773  0.1929
11771TIP3    H156804   3.438   5.752   0.277  0.1666  2.0108 -0.2521
11771TIP3    H256805   3.480   5.726   0.420 -0.4246 -1.3685 -0.6342
11772TIP3   OH256806   6.157   4.261   1.082  0.2855 -0.5850  0.5563
11772TIP3    H156807   6.136   4.173   1.052  0.6649 -0.3481 -0.4138
11772TIP3    H256808   6.115   4.268   1.168 -1.3493 -1.0410 -0.1996
11773TIP3   OH256809   2.865   0.545   3.162  0.1558  0.1074  0.9164
11773TIP3    H156810   2.959   0.539   3.178  0.5520 -1.3794 -1.6572
11773TIP3    H256811   2.832   0.455   3.171 -0.9868  0.5805  1.6155
11774TIP3   OH256812   5.237   1.214  15.142  0.2070 -0.2372 -0.5528
11774TIP3    H156813   5.256   1.120  15.147 -2.5515 -0.8004 -0.2332
11774TIP3    H256814   5.322   1.254  15.122  2.0394 -2.4811  2.3710
11775TIP3   OH256815   0.455   4.909  15.049  0.1394  0.3579 -0.8102
11775TIP3    H156816   0.446   5.004  15.041 -1.3212  0.4076  1.0204
11775TIP3    H256817   0.407   4.873  14.975 -0.2159  1.0354 -0.9133
11776TIP3   OH256818   6.649   1.543   2.298 -0.1593 -0.1965 -0.3045
11776TIP3    H156819   6.714   1.526   2.230  0.0950 -2.7863  0.5245
11776TIP3    H256820   6.640   1.460   2.345  0.2479  1.6872  3.3529
11777TIP3   OH256821   0.680   2.026  14.941  0.5202 -0.0978 -0.0160
11777TIP3    H156822   0.607   2.002  14.999  0.5797 -0.2648 -0.0103
11777TIP3    H256823   0.735   1.948  14.939  1.7663  0.7209  1.6147
11778TIP3   OH256824   6.313   7.115   3.323  0.2243 -0.3452  0.4017
11778TIP3    H156825   6.291   7.023   3.313  0.4552 -0.6775  2.6424
11778TIP3    H256826   6.338   7.144   3.235 -0.4071 -2.2533 -0.4250
11779TIP3   OH256827   3.341   2.929   4.135 -0.2598  0.1765 -0.4758
11779TIP3    H156828   3.269   2.983   4.103 -0.2586  0.0371 -0.7201
11779TIP3    H256829   3.306   2.840   4.135  0.0837  0.0351 -1.1219
11780TIP3   OH256830   3.248   6.925  13.236 -0.4585  0.1241  0.0007
11780TIP3    H156831   3.319   6.949  13.177  0.1147  1.5941  1.2300
11780TIP3    H256832   3.197   6.860  13.189  2.0823 -1.4238 -0.6456
11781TIP3   OH256833   3.467   1.024  11.792 -0.1938 -0.4034 -0.1584
11781TIP3    H156834   3.455   1.116  11.816  0.1406 -0.4697  0.2692
11781TIP3    H256835   3.444   1.021  11.699  1.9474  0.5677 -0.7627
11782TIP3   OH256836   6.631   5.331  14.810 -0.1442 -0.2160 -0.4570
11782TIP3    H156837   6.568   5.354  14.879  0.7127  0.8539 -0.0240
11782TIP3    H256838   6.682   5.411  14.796  1.0256 -1.0294 -0.9147
11783TIP3   OH256839   4.523   0.528   2.575 -0.3310 -0.3122  0.2254
11783TIP3    H156840   4.468   0.582   2.631 -0.4561 -0.8662  0.6366
11783TIP3    H256841   4.601   0.581   2.560 -0.5850  0.1054  0.3790
11784TIP3   OH256842   6.381   3.943   1.981  0.1840 -0.7685 -0.0717
11784TIP3    H156843   6.466   3.988   1.985 -0.3336  0.0686  2.3937
11784TIP3    H256844   6.328   3.996   1.922  1.2089 -1.0736 -1.3163
11785TIP3   OH256845   5.747   2.368  15.515 -0.1336 -0.8102  0.1850
11785TIP3    H156846   5.777   2.459  15.505 -0.2430 -0.7411  0.4871
11785TIP3    H256847   5.662   2.367  15.473 -1.2098 -0.1816  2.2744
11786TIP3   OH256848   0.713   1.076   3.344 -0.5689 -0.0294  0.4270
11786TIP3    H156849   0.684   1.025   3.419  1.0818  0.4879  1.4598
11786TIP3    H256850   0.652   1.150   3.339 -1.6657 -0.9435  0.2428
11787TIP3   OH256851   3.962   4.323   4.115  0.0206 -0.4116  0.1370
11787TIP3    H156852   3.881   4.369   4.094  0.3229 -0.6552 -1.6775
11787TIP3    H256853   3.991   4.361   4.198 -0.7994  1.2159 -0.3108
11788TIP3   OH256854   4.546   1.782  12.734 -0.2479 -0.1814  0.1743
11788TIP3    H156855   4.539   1.687  12.736 -1.9676 -0.0586  1.9469
11788TIP3    H256856   4.503   1.808  12.652 -3.2561 -0.7342  1.5159
11789TIP3   OH256857   5.779   6.620   0.842 -0.3046  0.5158 -0.0756
11789TIP3    H156858   5.732   6.561   0.783 -0.2059 -0.0588  0.4119
11789TIP3    H256859   5.869   6.621   0.810 -0.1375 -0.1916  0.3582
11790TIP3   OH256860   0.426   4.765  15.606  0.0787  0.2507  0.2099
11790TIP3    H156861   0.492   4.820  15.565  0.0614 -0.2412 -0.4879
11790TIP3    H256862   0.469   4.681  15.620  0.3930  0.6896  2.1111
11791TIP3   OH256863   3.651   1.084   4.363  0.4487  0.1198 -0.3431
11791TIP3    H156864   3.653   1.158   4.423 -1.1781  0.9254 -1.2728
11791TIP3    H256865   3.576   1.031   4.391 -0.2291  0.4236 -1.5675
11792TIP3   OH256866   6.412   2.860   2.068 -0.6737 -0.0394  0.2761
11792TIP3    H156867   6.485   2.871   2.128  0.1644 -0.4228 -0.6516
11792TIP3    H256868   6.453   2.846   1.982 -1.8445  1.5094 -0.5732
11793TIP3   OH256869   1.405   1.960   1.743  0.2029 -0.3477 -0.2837
11793TIP3    H156870   1.363   2.033   1.697 -0.4196 -0.4728  0.0759
11793TIP3    H256871   1.441   1.999   1.822  0.3293 -0.3365 -0.3458
11794TIP3   OH256872   2.337   2.998   1.124 -0.2243  0.4769  0.4250
11794TIP3    H156873   2.244   2.979   1.136 -0.7244  2.5420  0.0016
11794TIP3    H256874   2.372   2.919   1.083 -1.8910 -0.1347  0.1198
11795TIP3   OH256875   5.311   4.029   1.486  0.6345  0.6950 -0.5778
11795TIP3    H156876   5.364   4.103   1.516  0.5583  0.3067  0.5147
11795TIP3    H256877   5.375   3.961   1.463  0.5852 -0.3808  2.3234
11796TIP3   OH256878   2.422   6.402   4.974 -0.2648 -0.5630 -0.2326
11796TIP3    H156879   2.515   6.418   4.992 -0.2874 -2.9473  2.4467
11796TIP3    H256880   2.376   6.469   5.025 -0.0672 -0.1212 -0.6254
11797TIP3   OH256881   4.490   1.695   0.109 -0.4622  0.8811 -0.0470
11797TIP3    H156882   4.469   1.784   0.081 -1.2280  0.3401 -1.2393
11797TIP3    H256883   4.547   1.661   0.040  0.9598  0.9079  1.0979
11798TIP3   OH256884   2.153   1.978   1.895 -0.1317 -0.5219  0.4317
11798TIP3    H156885   2.214   1.914   1.858 -2.3659 -2.1513 -0.4936
11798TIP3    H256886   2.206   2.025   1.960  2.1921 -1.7051 -0.5255
11799TIP3   OH256887   3.234   0.060   1.242  0.2985 -0.5351  0.0242
11799TIP3    H156888   3.201  -0.007   1.182  1.0985 -1.4342  0.5613
11799TIP3    H256889   3.283   0.010   1.308  2.3972  0.7318 -0.5507
11800TIP3   OH256890   2.765   5.447  13.588 -0.3242 -0.5733 -0.6006
11800TIP3    H156891   2.685   5.433  13.536 -0.2581  0.0972 -0.8907
11800TIP3    H256892   2.831   5.474  13.523  0.1274 -1.0949 -0.3573
11801TIP3   OH256893   4.074   3.388   1.252  0.5792 -0.2038  0.2372
11801TIP3    H156894   4.130   3.464   1.240 -0.2360  0.8602  2.7506
11801TIP3    H256895   4.014   3.389   1.178  3.4981 -1.0703 -2.2213
11802TIP3   OH256896   5.168   6.666  12.990 -0.2860 -0.0258  0.4066
11802TIP3    H156897   5.124   6.751  12.991  1.1523  0.7317  0.6374
11802TIP3    H256898   5.112   6.609  13.042 -1.0124  0.9139  0.6564
11803TIP3   OH256899   4.393   0.022   3.092  1.2483  0.6866 -0.1008
11803TIP3    H156900   4.444   0.095   3.057 -2.8161  3.2549 -0.9839
11803TIP3    H256901   4.327   0.063   3.148  0.1152 -2.4813  0.9855
11804TIP3   OH256902   4.764   5.739   2.324  0.3212  0.2328 -0.0095
11804TIP3    H156903   4.830   5.686   2.369  0.5167  1.5821  1.2926
11804TIP3    H256904   4.683   5.689   2.335  1.0355 -1.3254 -1.4316
11805TIP3   OH256905   2.770   5.934   2.738  0.0442 -0.0397  0.0828
11805TIP3    H156906   2.796   5.850   2.698  0.2030 -0.0361  0.1763
11805TIP3    H256907   2.676   5.940   2.723  0.4812  1.0609 -2.3534
11806TIP3   OH256908   6.076   4.321   1.351  0.2130 -0.7033  0.2452
11806TIP3    H156909   6.015   4.388   1.320 -0.2224 -1.4535 -0.5248
11806TIP3    H256910   6.144   4.371   1.398 -1.2773  0.1091  1.6202
11807TIP3   OH256911   6.579   2.860   1.107 -0.3635  0.0623 -0.2503
11807TIP3    H156912   6.531   2.938   1.136 -0.0072  0.5294 -0.8982
11807TIP3    H256913   6.517   2.788   1.117 -1.2523  0.6764 -1.2102
11808TIP3   OH256914   2.142   6.809  15.197 -0.2972  0.6791  0.2789
11808TIP3    H156915   2.079   6.826  15.127  0.2149  0.7248 -0.1765
11808TIP3    H256916   2.091   6.767  15.266 -1.0009  1.4727  0.2545
11809TIP3   OH256917   5.311   6.984  13.048  0.0358 -0.6575 -0.3709
11809TIP3    H156918   5.273   7.024  12.969 -0.8284 -1.1548 -0.2145
11809TIP3    H256919   5.236   6.951  13.097  0.5313  0.1360  0.9443
11810TIP3   OH256920   4.159   0.324   0.428 -0.1053  0.6613  0.0658
11810TIP3    H156921   4.086   0.386   0.423 -1.0422 -0.4998 -1.0881
11810TIP3    H256922   4.134   0.262   0.496  0.7229  1.3798  1.0509
11811TIP3   OH256923   5.795   0.386   0.733  0.4573 -0.0998  0.8367
11811TIP3    H156924   5.767   0.435   0.810  0.2152  0.4547  0.3942
11811TIP3    H256925   5.885   0.414   0.719 -0.2801  1.6382 -0.5361
11812TIP3   OH256926   0.378   1.366   2.341 -0.0907 -0.0415  0.0275
11812TIP3    H156927   0.327   1.436   2.299  0.4316 -0.1615 -0.8097
11812TIP3    H256928   0.353   1.287   2.294 -0.6120 -0.4221  0.9181
11813TIP3   OH256929   1.235   3.247   1.720  0.6711 -0.4325  0.7277
11813TIP3    H156930   1.257   3.162   1.757  2.1961 -1.1200 -1.6229
11813TIP3    H256931   1.145   3.263   1.747 -0.2971 -3.6863 -0.3233
11814TIP3   OH256932   3.035   3.064   3.548 -0.0377  0.1305  0.6488
11814TIP3    H156933   2.954   3.021   3.522 -0.0085 -0.0677  0.8804
11814TIP3    H256934   3.104   3.006   3.516  0.0525  1.1214 -1.0005
11815TIP3   OH256935   5.518   1.820  15.286  0.4343 -0.1632  0.2670
11815TIP3    H156936   5.540   1.784  15.372  0.2737  0.4440  0.5631
11815TIP3    H256937   5.596   1.868  15.259  0.7665 -0.9847 -0.2705
11816TIP3   OH256938   7.131   4.230  13.670 -0.2719  0.0937  0.1536
11816TIP3    H156939   7.199   4.236  13.603  1.3305  0.9669  1.8071
11816TIP3    H256940   7.061   4.288  13.639 -0.8725 -1.8636 -2.2273
11817TIP3   OH256941   1.806   4.020  13.028  0.2096 -0.0090 -0.3179
11817TIP3    H156942   1.797   4.055  12.939 -2.7354  0.9764  0.3231
11817TIP3    H256943   1.798   4.096  13.085  1.0481 -0.7794  0.8493
11818TIP3   OH256944   4.755   1.784   0.007  0.5975 -0.1784 -0.2388
11818TIP3    H156945   4.771   1.843   0.081  0.7633  0.5033 -0.8215
11818TIP3    H256946   4.778   1.835  -0.070  0.1061 -0.7830 -0.7862
11819TIP3   OH256947   3.502   1.881  14.457 -0.1410  0.4234 -0.0118
11819TIP3    H156948   3.587   1.867  14.415 -1.3341 -0.5377 -2.2093
11819TIP3    H256949   3.462   1.951  14.406  0.2828  2.5888  2.5277
11820TIP3   OH256950   2.502   2.047   2.247  0.4622 -0.1388 -0.3026
11820TIP3    H156951   2.555   1.984   2.294  3.7900  0.7104 -2.7063
11820TIP3    H256952   2.487   2.118   2.310  0.0025 -1.5160  1.1762
11821TIP3   OH256953   1.523   3.056  13.948  0.1546  0.2505 -0.2159
11821TIP3    H156954   1.434   3.056  13.985  0.9059 -0.3020  1.6179
11821TIP3    H256955   1.554   3.146  13.959 -0.2756  0.5297 -1.1640
11822TIP3   OH256956   7.026   6.290   1.200 -0.9683 -0.4861  0.0508
11822TIP3    H156957   7.113   6.250   1.205 -0.4961  0.3591 -1.1377
11822TIP3    H256958   7.030   6.361   1.264 -0.9037 -0.6586  0.2413
11823TIP3   OH256959   3.571   6.237   2.313  0.0882 -0.2158  0.0574
11823TIP3    H156960   3.554   6.320   2.356 -0.5176 -0.8992  1.1717
11823TIP3    H256961   3.653   6.206   2.352  0.6810  0.1669 -0.8541
11824TIP3   OH256962   1.987   1.792   2.085 -0.2043  0.0399 -0.3517
11824TIP3    H156963   1.963   1.827   1.999 -2.0171  2.0431  0.9162
11824TIP3    H256964   2.074   1.829   2.102 -0.3316  0.5719 -0.8222
11825TIP3   OH256965   0.388   4.861   3.257  0.0426 -0.0146  0.0797
11825TIP3    H156966   0.386   4.777   3.210 -0.2724 -0.9816  1.7788
11825TIP3    H256967   0.467   4.904   3.225 -0.7756 -0.1261 -2.1982
11826TIP3   OH256968   3.800   0.051   3.275  0.3194  0.1762 -0.5254
11826TIP3    H156969   3.827   0.102   3.351  1.3955  0.6654 -1.2188
11826TIP3    H256970   3.750  -0.022   3.311 -1.5813  1.9108  0.4685
11827TIP3   OH256971   5.772   2.740  10.668 -0.1194  0.3131  0.3669
11827TIP3    H156972   5.693   2.769  10.713 -0.7278 -0.1044 -0.4112
11827TIP3    H256973   5.761   2.645  10.658  0.6583  0.1962  0.6013
11828TIP3   OH256974   2.714   4.912  15.366  0.7423 -0.3443  0.3172
11828TIP3    H156975   2.758   4.868  15.438 -2.7337 -2.6355  1.1442
11828TIP3    H256976   2.627   4.933  15.399 -0.6880 -0.7651 -2.9429
11829TIP3   OH256977   5.821   5.486  14.572 -0.5051 -0.4026 -0.1238
11829TIP3    H156978   5.789   5.411  14.522 -1.8623 -0.0145  0.1296
11829TIP3    H256979   5.872   5.537  14.509 -1.8274 -0.1412 -1.0002
11830TIP3   OH256980   3.367   5.736   3.523  0.0014 -0.5850  0.3024
11830TIP3    H156981   3.353   5.682   3.601  1.2927 -0.0013  0.9479
11830TIP3    H256982   3.391   5.822   3.557  1.5597 -0.5933 -0.7391
11831TIP3   OH256983   6.828   5.780  14.574 -0.3962 -0.0682  0.0072
11831TIP3    H156984   6.871   5.852  14.528 -0.5444 -0.5485 -0.9032
11831TIP3    H256985   6.767   5.743  14.510 -2.2393  0.6535  1.3127
11832TIP3   OH256986   0.363   2.765  15.606 -0.1154 -0.2023 -0.2587
11832TIP3    H156987   0.314   2.771  15.524  0.8691 -3.4142 -1.1362
11832TIP3    H256988   0.300   2.728  15.668 -0.3264  0.5735 -0.0000
11833TIP3   OH256989   0.144   2.350   2.083  0.2734  0.2146 -0.1287
11833TIP3    H156990   0.224   2.393   2.114  0.4937  0.2706 -0.7793
11833TIP3    H256991   0.075   2.414   2.098  0.4272  0.3648 -0.0614
11834TIP3   OH256992   0.209   3.245  12.447 -0.0048 -0.2912 -0.0236
11834TIP3    H156993   0.297   3.255  12.483 -0.4564 -2.1617  1.6629
11834TIP3    H256994   0.157   3.314  12.489  0.3796  0.1010 -0.1869
11835TIP3   OH256995   4.797   3.604   1.716 -0.7695 -0.3300 -0.4684
11835TIP3    H156996   4.785   3.532   1.778  1.5956 -0.2748  0.1201
11835TIP3    H256997   4.851   3.566   1.647 -1.2772  0.3149 -1.2242
11836TIP3   OH256998   5.897   0.555  15.180 -0.6624  0.2931  0.1138
11836TIP3    H156999   5.861   0.585  15.097 -0.9098 -1.6442 -0.4999
11836TIP3    H257000   5.879   0.461  15.182 -2.0196  0.5748  3.0653
11837TIP3   OH257001   1.065   5.801   9.442  0.0439  0.3796 -0.0280
11837TIP3    H157002   1.086   5.712   9.472 -0.7701 -0.4598 -1.8350
11837TIP3    H257003   1.002   5.833   9.505 -1.3098 -1.1751 -0.5474
11838TIP3   OH257004   5.055   3.489   2.124 -0.5611 -0.1348 -0.1562
11838TIP3    H157005   5.034   3.581   2.137 -0.8112 -0.3064  0.6735
11838TIP3    H257006   4.975   3.442   2.145 -0.5074 -0.5287 -0.8121
11839TIP3   OH257007   7.146   2.368   1.423  0.8936  0.1098 -0.3199
11839TIP3    H157008   7.092   2.400   1.495  2.1517  2.2336 -0.3005
11839TIP3    H257009   7.157   2.275   1.442 -0.9672  0.0734  0.8067
11840TIP3   OH257010   6.486   5.591   1.552  0.5081  0.7515 -0.3421
11840TIP3    H157011   6.418   5.629   1.608  1.1217  0.9349  0.2745
11840TIP3    H257012   6.458   5.500   1.541 -0.5150  1.1481 -1.1371
11841TIP3   OH257013   2.875   3.773   1.050  0.1083  0.0351  0.9322
11841TIP3    H157014   2.803   3.826   1.084 -1.0016 -0.2628 -0.8738
11841TIP3    H257015   2.942   3.837   1.026 -0.8949  0.5782 -0.4685
11842TIP3   OH257016   3.327   5.460   2.762  0.8078  0.5224  0.2747
11842TIP3    H157017   3.232   5.447   2.754  0.8419  0.3240  0.1794
11842TIP3    H257018   3.354   5.393   2.826  0.8063  0.9150  0.6886
11843TIP3   OH257019   6.380   3.209   0.648  0.5545 -0.0441 -0.0668
11843TIP3    H157020   6.421   3.127   0.622  0.0989 -0.6426  1.1232
11843TIP3    H257021   6.343   3.244   0.566  1.3504 -0.6687 -0.6963
11844TIP3   OH257022   5.977   4.648  14.959 -0.1165 -0.4273  0.6039
11844TIP3    H157023   5.932   4.700  15.025 -2.1074 -2.0170  0.5326
11844TIP3    H257024   6.004   4.711  14.893  0.7350  0.9936  2.2800
11845TIP3   OH257025   5.696   0.662  14.242 -0.4093  0.3069  0.7170
11845TIP3    H157026   5.700   0.741  14.296 -0.0764 -0.2295  1.4720
11845TIP3    H257027   5.750   0.684  14.165  0.3984  0.4944  1.3349
11846TIP3   OH257028   0.474   0.301  12.917  0.0000 -0.3402 -0.0953
11846TIP3    H157029   0.427   0.218  12.913 -1.0791  0.2600 -0.1101
11846TIP3    H257030   0.411   0.363  12.955 -0.0424  1.0450 -2.3201
11847TIP3   OH257031   4.304   3.234   0.986 -0.6581  0.2055  0.1088
11847TIP3    H157032   4.350   3.157   1.019 -1.5347  0.3216  1.6239
11847TIP3    H257033   4.223   3.200   0.948 -1.0662  0.3892  0.8176
11848TIP3   OH257034   1.304   5.243  11.895 -0.3960 -0.4570 -0.2908
11848TIP3    H157035   1.330   5.333  11.875 -0.7767 -0.1452  0.5840
11848TIP3    H257036   1.211   5.249  11.917 -0.2531 -0.9475  0.4782
11849TIP3   OH257037   2.714   0.375   0.122  0.1697  0.2739  0.2948
11849TIP3    H157038   2.685   0.447   0.066  0.3332  0.1382  0.0340
11849TIP3    H257039   2.637   0.319   0.131  0.3932 -0.1911 -0.5595
11850TIP3   OH257040   0.468   5.207  14.865 -0.0454  0.2677  0.0360
11850TIP3    H157041   0.436   5.249  14.945 -1.4290 -0.4548 -0.1248
11850TIP3    H257042   0.405   5.233  14.798 -0.9583 -2.0407 -0.0605
11851TIP3   OH257043   2.144   2.734  14.462  0.2115 -0.1085  0.1251
11851TIP3    H157044   2.217   2.796  14.470 -0.4908  1.0644 -2.3275
11851TIP3    H257045   2.110   2.726  14.551  0.4412  2.8732  0.5235
11852TIP3   OH257046   0.547   1.009  10.807 -0.6101 -0.4054  0.3746
11852TIP3    H157047   0.588   1.030  10.724  0.9016 -0.6314  1.0414
11852TIP3    H257048   0.556   1.089  10.859  0.6713 -1.0288  1.1573
11853TIP3   OH257049   1.761   4.805   2.801 -0.0252  0.1732 -0.2427
11853TIP3    H157050   1.823   4.735   2.820 -2.5272 -1.8475  0.8248
11853TIP3    H257051   1.783   4.875   2.862 -0.6976 -1.7273  2.2551
11854TIP3   OH257052   1.251   4.158  11.261 -1.3199 -0.4111 -0.1027
11854TIP3    H157053   1.275   4.248  11.240  0.2325 -0.9657 -0.7444
11854TIP3    H257054   1.197   4.130  11.188 -3.8559  0.7690  1.2433
11855TIP3   OH257055   0.003   1.445  14.278  0.1986 -0.3125 -0.8665
11855TIP3    H157056   0.005   1.540  14.281 -0.2695 -0.2874 -1.1593
11855TIP3    H257057   0.094   1.418  14.289  0.5973  0.2360 -2.6202
11856TIP3   OH257058   3.817   4.939  15.196  0.0490 -0.2352 -0.1180
11856TIP3    H157059   3.772   4.873  15.143  0.0751 -0.1419 -0.2573
11856TIP3    H257060   3.755   5.011  15.202  0.0155 -0.2772  0.0462
11857TIP3   OH257061   5.336   6.171  12.365  0.0088  0.0574  0.3386
11857TIP3    H157062   5.268   6.104  12.355  0.3693 -0.1096 -0.9999
11857TIP3    H257063   5.405   6.127  12.416 -0.0801 -0.3426  0.1125
11858TIP3   OH257064   1.034   0.724   0.417 -0.5333 -0.0919 -0.7147
11858TIP3    H157065   1.063   0.717   0.508  1.8863 -2.6912 -1.6195
11858TIP3    H257066   1.101   0.776   0.374 -1.8432  1.4104 -0.9814
11859TIP3   OH257067   5.633   0.136  15.342 -0.4821  0.2946  0.3783
11859TIP3    H157068   5.706   0.074  15.334  0.0915  0.9931  0.0394
11859TIP3    H257069   5.605   0.129  15.433  0.5485  0.5917  0.7369
11860TIP3   OH257070   6.885   3.691  13.708 -0.3718 -0.1289 -0.3849
11860TIP3    H157071   6.842   3.768  13.746 -0.3196 -0.0062 -0.5716
11860TIP3    H257072   6.926   3.648  13.782 -2.9494 -1.6643  0.1922
11861TIP3   OH257073   5.261   3.669   0.718 -0.0346 -0.0695 -0.8938
11861TIP3    H157074   5.268   3.755   0.760  1.8982 -0.7920  0.2903
11861TIP3    H257075   5.213   3.616   0.781  2.3753 -0.9959  0.2152
11862TIP3   OH257076   6.097   6.784  10.643  0.7152  0.2110  0.1257
11862TIP3    H157077   6.038   6.722  10.601  1.5891 -1.0632  0.7337
11862TIP3    H257078   6.183   6.741  10.638  1.1051  0.7887  1.7263
11863TIP3   OH257079   1.299   4.271  13.021  0.4710  0.8830 -0.0275
11863TIP3    H157080   1.363   4.297  13.087  1.7470 -1.5535 -0.2338
11863TIP3    H257081   1.342   4.200  12.973 -2.2480 -0.6041 -0.3858
11864TIP3   OH257082   1.079   4.822  14.589  0.3832  0.2206  0.0999
11864TIP3    H157083   1.125   4.894  14.633 -0.1401  0.2038  0.6860
11864TIP3    H257084   1.148   4.774  14.544  1.3028 -1.1165  2.7782
11865TIP3   OH257085   4.468   4.206   2.938  0.1184 -0.0141  0.2332
11865TIP3    H157086   4.427   4.130   2.896 -0.3361  0.7977 -0.8168
11865TIP3    H257087   4.396   4.247   2.987  0.4114 -0.3787  0.9663
11866TIP3   OH257088   0.391   5.853  14.386  0.2393 -0.0112 -0.3520
11866TIP3    H157089   0.353   5.825  14.303 -0.6504  1.3813 -0.4414
11866TIP3    H257090   0.391   5.774  14.440 -2.0379 -0.2738 -0.6521
11867TIP3   OH257091   6.870   2.495   1.297  0.5491  0.7257  0.9033
11867TIP3    H157092   6.912   2.429   1.242  0.6721  0.9592  0.7135
11867TIP3    H257093   6.850   2.567   1.236 -0.1709  0.5920  0.9791
11868TIP3   OH257094   2.983   2.896   2.159  0.0937 -0.1719 -1.2413
11868TIP3    H157095   2.957   2.811   2.123 -2.3978  0.3640 -0.7750
11868TIP3    H257096   2.945   2.959   2.098 -1.1177  0.6710  0.3835
11869TIP3   OH257097   6.049   3.342   1.065  0.2541 -0.3825  0.0776
11869TIP3    H157098   6.142   3.320   1.072  0.1361 -1.0042 -0.2343
11869TIP3    H257099   6.021   3.301   0.983  0.2052  1.5945 -0.9142
11870TIP3   OH257100   0.466   4.675   1.287 -0.5285 -0.2860 -0.5072
11870TIP3    H157101   0.545   4.692   1.236  0.3616  1.0590  1.2987
11870TIP3    H257102   0.468   4.582   1.305 -1.6325 -1.1263 -4.1554
11871TIP3   OH257103   2.712   3.373  11.864 -0.2054  0.0431 -0.6649
11871TIP3    H157104   2.753   3.442  11.811 -0.4281  0.6238 -0.0926
11871TIP3    H257105   2.676   3.420  11.939  1.2439 -0.9397  0.6662
11872TIP3   OH257106   1.473   1.726   1.166  0.1448  0.2956 -0.6698
11872TIP3    H157107   1.521   1.730   1.248 -1.4285  2.1634  0.2034
11872TIP3    H257108   1.540   1.711   1.099  1.5690 -0.0575  0.8106
11873TIP3   OH257109   4.554   2.037   5.752  0.0495 -0.2420  0.2384
11873TIP3    H157110   4.617   2.023   5.823  0.2634  0.7042  0.2385
11873TIP3    H257111   4.570   1.964   5.691  0.7610 -0.3210  0.5151
11874TIP3   OH257112   4.003   4.430   2.730  0.7158 -0.3514  0.0143
11874TIP3    H157113   3.927   4.467   2.685  0.3681 -0.8002  0.2275
11874TIP3    H257114   4.078   4.464   2.681  0.3472 -0.6507 -0.7713
11875TIP3   OH257115   6.885   3.644  14.970  0.6649 -0.2571 -0.0200
11875TIP3    H157116   6.905   3.675  15.059 -1.6409 -1.5232  0.9741
11875TIP3    H257117   6.965   3.600  14.942  1.9108  1.3914  0.8642
11876TIP3   OH257118   1.862   0.132  14.348  0.1178 -0.0357  0.8385
11876TIP3    H157119   1.853   0.207  14.289 -1.4386 -0.4597  0.5106
11876TIP3    H257120   1.955   0.128  14.367  0.8170 -0.4019 -2.3298
11877TIP3   OH257121   4.794   0.152   1.470  0.3569 -0.4726 -0.6030
11877TIP3    H157122   4.876   0.199   1.452  1.7724 -2.7395 -0.2464
11877TIP3    H257123   4.726   0.209   1.434  2.1322  1.1234 -1.5552
11878TIP3   OH257124   0.366   2.517   0.671 -0.0418 -0.3910 -0.2662
11878TIP3    H157125   0.367   2.466   0.590  1.0216  2.2408 -1.9970
11878TIP3    H257126   0.458   2.525   0.695 -0.3174 -0.6603  0.9015
11879TIP3   OH257127   1.345   4.224   2.905  0.3255  0.4132  0.5135
11879TIP3    H157128   1.336   4.140   2.860  0.1190  0.4030  0.5760
11879TIP3    H257129   1.374   4.285   2.838 -0.2306  0.4560  0.3121
11880TIP3   OH257130   4.208   2.643   3.502  0.1962  0.0409 -0.1747
11880TIP3    H157131   4.193   2.738   3.496  0.6362  0.1130 -0.1555
11880TIP3    H257132   4.183   2.610   3.416 -0.4149  0.1118 -0.0247
11881TIP3   OH257133   4.354   5.832   1.558 -0.5265 -0.3336 -0.0270
11881TIP3    H157134   4.322   5.904   1.504 -1.1784 -0.6876 -0.1047
11881TIP3    H257135   4.438   5.864   1.592  0.1648 -0.3281 -1.6774
11882TIP3   OH257136   5.936   0.127  13.804 -0.3659  0.0533 -0.3696
11882TIP3    H157137   5.915   0.034  13.812 -0.3394 -0.0731 -1.5816
11882TIP3    H257138   5.896   0.154  13.721 -0.2499  1.0866 -0.1080
11883TIP3   OH257139   0.000   4.639   0.305  0.0101 -0.1013 -0.4156
11883TIP3    H157140   0.006   4.545   0.292 -0.0552 -0.2629  0.6868
11883TIP3    H257141   0.068   4.675   0.248  2.9041 -1.1162  2.2384
11884TIP3   OH257142   6.566   3.713  15.191 -0.0989  0.3810 -0.5276
11884TIP3    H157143   6.564   3.636  15.134 -3.0801  0.1069 -0.1290
11884TIP3    H257144   6.501   3.773  15.153  1.3119  2.2197 -0.1352
11885TIP3   OH257145   5.206   6.541   0.286  0.2324  0.1408  0.2111
11885TIP3    H157146   5.160   6.534   0.369 -1.8119  1.9707 -0.7135
11885TIP3    H257147   5.243   6.629   0.286 -1.1403  0.7583 -1.4345
11886TIP3   OH257148   1.842   4.843  14.038 -0.1835 -0.2736 -0.4867
11886TIP3    H157149   1.852   4.922  13.985  0.7937  0.3413  0.5823
11886TIP3    H257150   1.909   4.783  14.005 -1.0178 -0.7065 -1.3896
11887TIP3   OH257151   1.455   5.001  14.451 -0.5978  0.4549  0.2100
11887TIP3    H157152   1.403   5.039  14.380 -1.6993 -1.5317 -0.1010
11887TIP3    H257153   1.465   4.909  14.426  0.5311  0.1338  1.7680
11888TIP3   OH257154   4.778   1.257  15.257  0.3879  0.3508 -0.3323
11888TIP3    H157155   4.725   1.244  15.336  2.0961  0.2545  0.8264
11888TIP3    H257156   4.715   1.253  15.185 -1.1290 -0.0652  0.9863
11889TIP3   OH257157   2.590   2.958   3.032  0.1266  0.5220  0.3734
11889TIP3    H157158   2.503   2.918   3.022 -0.0370  0.7695  0.7915
11889TIP3    H257159   2.612   2.944   3.124  0.6467  0.2266  0.2041
11890TIP3   OH257160   2.167   2.146  11.864  0.5925 -0.3210 -0.4414
11890TIP3    H157161   2.090   2.100  11.830 -0.3864 -0.2139  1.5494
11890TIP3    H257162   2.200   2.088  11.933  0.8064  0.8022  0.4091
11891TIP3   OH257163   3.814   0.748  14.140 -0.3732 -0.6546  0.1463
11891TIP3    H157164   3.777   0.740  14.228 -0.5281  1.5099  0.3258
11891TIP3    H257165   3.741   0.781  14.087  0.3495  0.3793 -0.2307
11892TIP3   OH257166   3.597   3.669  12.166 -0.0098  0.3521 -0.0309
11892TIP3    H157167   3.610   3.606  12.236 -0.2544  0.0062 -0.2967
11892TIP3    H257168   3.652   3.638  12.094  0.2574  0.7169  0.0157
11893TIP3   OH257169   6.607   0.712  15.540  0.3655 -0.0915 -0.2695
11893TIP3    H157170   6.541   0.750  15.482 -0.4509 -1.4149 -0.2395
11893TIP3    H257171   6.679   0.688  15.482  0.1354 -0.1226 -0.5443
11894TIP3   OH257172   4.571   1.497  14.889  0.0496 -0.1066  0.3425
11894TIP3    H157173   4.612   1.468  14.808  0.6271 -0.0243  0.6007
11894TIP3    H257174   4.614   1.445  14.958  1.3196  1.5910  0.8406
11895TIP3   OH257175   1.771   6.071  14.592 -0.2133 -0.4269  0.2246
11895TIP3    H157176   1.703   6.013  14.626  0.0114 -0.9742 -0.2677
11895TIP3    H257177   1.820   6.018  14.530 -0.0265  0.2936 -0.2560
11896TIP3   OH257178   5.784   0.069   1.970 -0.4403 -0.0226 -0.2850
11896TIP3    H157179   5.827   0.154   1.966 -1.4237  0.5404  0.6466
11896TIP3    H257180   5.721   0.077   2.042 -1.7381 -0.9764 -1.2723
11897TIP3   OH257181   6.622   0.233   0.672 -0.1067  0.1061 -0.1828
11897TIP3    H157182   6.662   0.179   0.740  0.2074  0.7162  0.1215
11897TIP3    H257183   6.660   0.320   0.684  2.7181 -0.5791 -3.4020
11898TIP3   OH257184   3.986   0.685   0.583 -0.4987  0.0124 -0.1473
11898TIP3    H157185   4.070   0.643   0.602 -0.5939 -0.1336 -0.0481
11898TIP3    H257186   3.979   0.754   0.648 -0.7143 -0.3348  0.2003
11899TIP3   OH257187   6.908   1.409  15.522 -0.1655  0.0261 -0.0554
11899TIP3    H157188   6.932   1.317  15.524  1.6132  0.5011  0.9071
11899TIP3    H257189   6.925   1.437  15.432 -1.6103 -0.8063 -0.5974
11900TIP3   OH257190   4.824   4.639   0.903 -0.0047  0.2951 -0.0343
11900TIP3    H157191   4.768   4.712   0.878 -0.6183 -0.7190 -1.7471
11900TIP3    H257192   4.866   4.667   0.984 -0.4570  2.4112 -0.5002
11901TIP3   OH257193   0.207   3.773   0.229 -0.1663  0.4990  0.1771
11901TIP3    H157194   0.300   3.786   0.246 -0.3964  1.5464  0.6140
11901TIP3    H257195   0.201   3.680   0.204  1.0267  0.4918 -0.1338
11902TIP3   OH257196   7.093   4.849  14.742  0.2544 -0.2813  0.2268
11902TIP3    H157197   7.145   4.930  14.745 -0.3030  0.0410  1.5551
11902TIP3    H257198   7.026   4.866  14.676  0.8648 -0.1066 -0.3526
11903TIP3   OH257199   5.420   3.947   2.578  0.6343  0.6713 -0.2175
11903TIP3    H157200   5.330   3.920   2.562  0.2252  1.9248 -0.1346
11903TIP3    H257201   5.412   4.024   2.634  1.7071  1.3023 -0.9047
11904TIP3   OH257202   5.801   2.163  11.079 -0.4979 -0.3388 -0.0395
11904TIP3    H157203   5.806   2.185  11.172 -1.7380  2.7881 -0.6705
11904TIP3    H257204   5.889   2.180  11.045 -0.0204 -1.5758  0.5662
11905TIP3   OH257205   0.087   4.622   3.436  0.5996 -0.6358 -0.1142
11905TIP3    H157206   0.027   4.635   3.509 -0.0046 -0.5535 -0.6156
11905TIP3    H257207   0.135   4.705   3.429 -1.1742  0.3017 -1.4434
11906TIP3   OH257208   5.785   2.092  13.176 -0.2881 -0.4154 -0.7698
11906TIP3    H157209   5.878   2.076  13.194  0.1642  0.9358 -1.8156
11906TIP3    H257210   5.766   2.176  13.217 -1.9141 -2.1400  2.2119
11907TIP3   OH257211   5.652   7.098   4.451  0.7256 -0.3804  0.3806
11907TIP3    H157212   5.596   7.120   4.377 -0.7336  0.3704  1.6906
11907TIP3    H257213   5.735   7.141   4.431  0.3278 -0.1191 -0.7792
11908TIP3   OH257214   6.118   2.455   0.805 -0.6139  0.1209  0.0746
11908TIP3    H157215   6.176   2.530   0.815 -0.9138  0.4861 -0.8612
11908TIP3    H257216   6.108   2.445   0.710  0.5289 -1.9576  0.1495
11909TIP3   OH257217   0.026   6.633   5.968  0.9949  0.0674 -0.1174
11909TIP3    H157218  -0.055   6.657   5.922  0.4262 -0.2519  0.7094
11909TIP3    H257219   0.047   6.710   6.020  0.9494 -0.0360  0.0520
11910TIP3   OH257220   0.183   2.864   1.742 -0.3499 -0.1422  0.1135
11910TIP3    H157221   0.192   2.900   1.654  1.9655 -1.0175 -0.0655
11910TIP3    H257222   0.151   2.774   1.727  1.5539 -0.8286  0.0350
11911TIP3   OH257223   3.341   5.910  15.056  0.1414  0.0443  0.4638
11911TIP3    H157224   3.332   5.816  15.045 -1.3156  0.5103 -2.9199
11911TIP3    H257225   3.260   5.937  15.099  1.3453 -0.4404  3.1104
11912TIP3   OH257226   0.263   4.079   1.460 -0.2893  0.2057 -0.1184
11912TIP3    H157227   0.312   4.082   1.377  0.7452 -0.2998  0.4703
11912TIP3    H257228   0.250   4.171   1.483  0.7929  0.3514 -0.0518
11913TIP3   OH257229   6.822   2.919  13.363  0.1543 -0.1948  0.2549
11913TIP3    H157230   6.820   2.911  13.267  0.8604  0.0263  0.2141
11913TIP3    H257231   6.819   2.828  13.394  0.3332 -0.2871  0.0088
11914TIP3   OH257232   1.091   0.263   1.970  0.2512 -0.2844  0.0953
11914TIP3    H157233   1.153   0.217   2.026 -0.8840 -1.2021  0.6175
11914TIP3    H257234   1.137   0.343   1.943  2.0266 -1.4230 -0.3495
11915TIP3   OH257235   6.096   2.370  11.044  0.2311 -0.3586  0.5681
11915TIP3    H157236   6.066   2.301  10.986  1.2260 -1.1827  1.0244
11915TIP3    H257237   6.155   2.327  11.105  1.1763  0.9562  0.6179
11916TIP3   OH257238   4.660   3.292   2.074 -0.0439  0.4046  0.2086
11916TIP3    H157239   4.574   3.249   2.074  1.2271 -2.2699  0.2851
11916TIP3    H257240   4.701   3.265   2.156  1.3094  0.7105 -0.3460
11917TIP3   OH257241   3.930   4.017   1.296 -0.1476 -0.0588 -0.0393
11917TIP3    H157242   3.955   4.086   1.234  1.7548 -1.3119 -0.6964
11917TIP3    H257243   3.863   4.058   1.352 -0.0330  1.8778 -1.2893
11918TIP3   OH257244   0.908   0.325  14.068  0.7560 -0.1282 -0.1512
11918TIP3    H157245   0.968   0.392  14.100  0.0486  0.6403 -0.4215
11918TIP3    H257246   0.870   0.362  13.989 -2.4707  0.7787  1.7107
11919TIP3   OH257247   5.326   3.727   5.420 -0.2987 -0.2878  0.1881
11919TIP3    H157248   5.268   3.653   5.439  0.9026 -1.2972 -0.0193
11919TIP3    H257249   5.413   3.698   5.448  0.0507  1.3583  0.8525
11920TIP3   OH257250   5.986   5.642   0.522  0.3767  0.0262  0.2825
11920TIP3    H157251   5.947   5.587   0.454  0.2174  0.5736 -0.0712
11920TIP3    H257252   6.056   5.690   0.477  0.6366 -0.0276  0.6314
11921TIP3   OH257253   3.378   1.577   0.748  0.3473  0.2516  0.4529
11921TIP3    H157254   3.419   1.545   0.667 -0.2976 -1.0649  0.6394
11921TIP3    H257255   3.446   1.566   0.815 -0.0089 -1.1687  0.6015
11922TIP3   OH257256   4.019   3.898  14.710 -0.6034  0.3931  0.1455
11922TIP3    H157257   4.107   3.861  14.718 -1.0614 -0.0536  3.5490
11922TIP3    H257258   4.034   3.990  14.684  0.8797  0.4531  1.1629
11923TIP3   OH257259   0.013   5.089  12.542  0.1001 -0.0584  0.1478
11923TIP3    H157260   0.040   5.121  12.628  0.4444 -0.8355  0.3255
11923TIP3    H257261  -0.042   5.159  12.508 -0.8368 -0.1675  1.3988
11924TIP3   OH257262   5.185   3.325  13.894  0.0654 -0.2302  0.4236
11924TIP3    H157263   5.131   3.360  13.824 -1.5828 -0.8390  1.3752
11924TIP3    H257264   5.133   3.254  13.932  2.3865 -2.2282  0.0034
11925TIP3   OH257265   5.497   1.838   1.276 -0.3039  0.0056  0.1500
11925TIP3    H157266   5.444   1.858   1.353  1.1715 -1.1508  1.4859
11925TIP3    H257267   5.484   1.745   1.260 -1.6988  0.5153 -1.8738
11926TIP3   OH257268   6.415   3.422   2.926 -0.0609 -0.3953 -0.3260
11926TIP3    H157269   6.437   3.409   3.019  0.3424 -1.4134 -0.5592
11926TIP3    H257270   6.320   3.434   2.925 -0.1923 -1.3509  0.1161
11927TIP3   OH257271   3.278   1.444  12.951  0.1477 -0.2201  0.5021
11927TIP3    H157272   3.296   1.410  13.039  0.4952 -1.1015  0.0917
11927TIP3    H257273   3.360   1.485  12.924  0.1234 -0.1951  0.4668
11928TIP3   OH257274   2.631   1.901  14.632  0.0237  0.2032  0.3800
11928TIP3    H157275   2.545   1.919  14.669  0.6720  1.0773  1.4900
11928TIP3    H257276   2.614   1.881  14.540 -1.3213  0.7569  0.4992
11929TIP3   OH257277   5.002   1.768   0.905 -0.4029 -0.0992 -0.0544
11929TIP3    H157278   4.939   1.817   0.958 -0.2030  0.1973 -0.0903
11929TIP3    H257279   5.075   1.751   0.964 -1.0092 -1.4482  0.3254
11930TIP3   OH257280   1.446   4.438   1.318 -0.8857  0.3272 -0.3299
11930TIP3    H157281   1.416   4.452   1.228  0.9908  4.1195 -0.4412
11930TIP3    H257282   1.512   4.505   1.332  0.4534 -1.6286  3.1841
11931TIP3   OH257283   3.302   4.584   0.693  0.2190  0.4647 -0.5270
11931TIP3    H157284   3.362   4.552   0.625  1.5258  1.7628 -0.0277
11931TIP3    H257285   3.315   4.679   0.693 -0.7338  0.6066  0.6390
11932TIP3   OH257286   2.108   5.173   1.012 -0.1377  0.3685  0.8080
11932TIP3    H157287   2.186   5.193   1.064 -0.2622  0.8248  0.8181
11932TIP3    H257288   2.051   5.124   1.072 -0.3302  0.9910  1.1383
11933TIP3   OH257289   3.029   1.526   0.368  0.0306  0.3309 -0.5715
11933TIP3    H157290   3.023   1.585   0.443  1.7216 -1.8509  1.3669
11933TIP3    H257291   2.991   1.444   0.399 -0.1997 -0.2936 -2.4479
11934TIP3   OH257292   3.591   3.826  14.947 -0.4240  0.5808 -0.6261
11934TIP3    H157293   3.628   3.880  15.017  0.4725  0.7876 -1.2514
11934TIP3    H257294   3.623   3.738  14.965 -1.7077  0.3007  0.2728
11935TIP3   OH257295   5.793   3.720   1.607  0.0298 -0.5410 -0.0629
11935TIP3    H157296   5.810   3.806   1.567 -0.4216 -0.5803 -0.3469
11935TIP3    H257297   5.698   3.711   1.604  0.1174 -1.3114 -0.5736
11936TIP3   OH257298   6.902   2.314   0.392 -0.2667 -0.1683  0.5009
11936TIP3    H157299   6.889   2.227   0.356 -0.0137  0.3731 -0.9075
11936TIP3    H257300   6.997   2.325   0.396 -0.2130  1.8780 -3.8994
11937TIP3   OH257301   5.313   2.293   3.498  0.0662 -0.0454 -0.6100
11937TIP3    H157302   5.217   2.291   3.495  0.1085 -0.3977 -2.0609
11937TIP3    H257303   5.335   2.385   3.518 -0.5724 -0.1136  0.4560
11938TIP3   OH257304   3.749   0.822  13.010  0.0850 -0.3528  0.0097
11938TIP3    H157305   3.680   0.854  13.067 -0.6571 -1.0058 -0.5081
11938TIP3    H257306   3.827   0.871  13.036 -0.3750 -0.2323  1.1862
11939TIP3   OH257307   0.908   4.808   0.665 -0.0806  0.3331 -1.1556
11939TIP3    H157308   0.986   4.861   0.683 -0.5675  0.2232  1.5484
11939TIP3    H257309   0.936   4.718   0.680 -0.7486  0.3121  0.1038
11940TIP3   OH257310   0.219   6.894   1.434 -0.5801  0.4807 -0.1629
11940TIP3    H157311   0.261   6.829   1.378  1.3421  1.1314  0.4772
11940TIP3    H257312   0.278   6.903   1.509 -2.2686  0.8495  1.1475
11941TIP3   OH257313   4.415   5.456   4.303  0.4573  0.1046  0.1765
11941TIP3    H157314   4.395   5.523   4.367  2.0335  1.0250 -0.2633
11941TIP3    H257315   4.485   5.405   4.343  1.0147  0.2981 -0.5479
11942TIP3   OH257316   0.311   5.589   1.464  0.0601 -0.1080  0.1509
11942TIP3    H157317   0.266   5.672   1.451 -0.3304 -0.3356  0.0478
11942TIP3    H257318   0.295   5.540   1.383  0.2357 -0.3088  0.2379
11943TIP3   OH257319   2.948   2.511   1.827 -0.4523 -0.1734 -0.5701
11943TIP3    H157320   2.983   2.433   1.869 -0.8273 -0.0018  0.0753
11943TIP3    H257321   2.882   2.478   1.766  2.2209 -0.6471 -3.2826
11944TIP3   OH257322   1.375   2.736   3.503 -0.3414 -0.0964  0.1427
11944TIP3    H157323   1.437   2.676   3.461 -2.9472 -0.9829 -2.6024
11944TIP3    H257324   1.390   2.819   3.459 -1.3780 -0.4200 -0.8346
11945TIP3   OH257325   7.136   6.749   0.901 -0.1050 -0.2231  0.3588
11945TIP3    H157326   7.049   6.719   0.927 -0.0439 -0.0981  0.7134
11945TIP3    H257327   7.194   6.675   0.920 -0.2949 -0.7200 -0.9215
11946TIP3   OH257328   4.054   5.729  13.195  0.0224 -0.3230  0.1449
11946TIP3    H157329   4.134   5.781  13.201 -0.6440  0.8897 -1.1886
11946TIP3    H257330   4.020   5.728  13.284  1.1022 -0.1826  0.5715
11947TIP3   OH257331   3.956   1.813   0.345 -0.0025 -0.2920 -0.5906
11947TIP3    H157332   3.900   1.827   0.422  1.3882 -0.6270  0.5193
11947TIP3    H257333   3.954   1.718   0.331 -1.0645 -0.1274 -1.6119
11948TIP3   OH257334   2.478   4.006   3.104  0.3243 -0.0182  0.3345
11948TIP3    H157335   2.490   3.911   3.104  0.9835  0.0640  0.6060
11948TIP3    H257336   2.431   4.024   3.185  0.3270 -0.0969  0.3534
11949TIP3   OH257337   2.026   5.583   4.771  0.1198 -0.0100  0.1114
11949TIP3    H157338   1.963   5.625   4.830 -0.5924 -0.9239  0.0182
11949TIP3    H257339   2.085   5.535   4.828  0.3537  0.3462  0.1666
11950TIP3   OH257340   2.523   5.900   3.350 -0.4847  0.8661  0.2308
11950TIP3    H157341   2.594   5.964   3.360  0.3732  0.1638 -1.1543
11950TIP3    H257342   2.504   5.870   3.439  1.1098  0.9204  0.5997
11951TIP3   OH257343   0.031   5.276  14.326  0.1004  0.4489  0.0980
11951TIP3    H157344  -0.036   5.244  14.386  0.8917 -1.1275  0.1792
11951TIP3    H257345   0.069   5.352  14.369 -0.4785  0.3183  0.8292
11952TIP3   OH257346   2.468   5.027  12.873 -0.9062  0.2531 -0.2817
11952TIP3    H157347   2.380   5.052  12.903 -1.5579 -0.6747 -1.3573
11952TIP3    H257348   2.452   4.980  12.791  0.5044 -1.0593  0.1865
11953TIP3   OH257349   7.085   3.065   2.037  0.1125  0.3778 -0.7689
11953TIP3    H157350   7.094   3.064   1.942  1.0610  0.6845 -0.6916
11953TIP3    H257351   7.097   3.157   2.061  1.9155  0.0078 -0.1762
11954TIP3   OH257352   3.291   4.321  14.360  0.6115  0.1438 -0.3092
11954TIP3    H157353   3.224   4.313  14.292  0.2601  0.6896 -0.0297
11954TIP3    H257354   3.305   4.231  14.390  0.2540 -0.0143 -0.6113
11955TIP3   OH257355   1.385   4.483   1.035 -0.4553  0.0939 -0.5103
11955TIP3    H157356   1.292   4.504   1.022  0.0130  1.8796 -1.1867
11955TIP3    H257357   1.423   4.491   0.948  0.5804  0.6526 -0.0086
11956TIP3   OH257358   6.109   3.056   0.267  0.1707 -0.3515  0.4014
11956TIP3    H157359   6.124   2.966   0.240 -1.9369 -0.1854 -1.4803
11956TIP3    H257360   6.049   3.050   0.342 -0.0215 -0.5357  0.2336
11957TIP3   OH257361   6.909   3.632   1.978  0.6799 -0.5669 -0.2432
11957TIP3    H157362   6.858   3.555   2.005 -1.4651  1.1311  0.6787
11957TIP3    H257363   6.890   3.641   1.884  0.8818 -1.1081 -0.3395
11958TIP3   OH257364   5.670   3.617   1.251  0.1474  0.0860 -0.7018
11958TIP3    H157365   5.643   3.605   1.342 -0.5025 -0.4303 -0.9574
11958TIP3    H257366   5.737   3.550   1.237 -1.2180 -1.1986 -1.1973
11959TIP3   OH257367   5.750   5.527   3.265 -0.3090 -0.0434 -0.0453
11959TIP3    H157368   5.761   5.524   3.170 -1.6612 -0.1822 -0.1957
11959TIP3    H257369   5.697   5.604   3.281  1.3872  0.9978  0.7608
11960TIP3   OH257370   6.533   1.378   3.727 -0.0351  0.0102  0.7661
11960TIP3    H157371   6.520   1.392   3.633  2.6198  0.1004  0.3479
11960TIP3    H257372   6.518   1.464   3.766 -0.3193  0.1721  0.3094
11961TIP3   OH257373   6.608   0.856   2.726 -0.4215  0.4072 -0.0976
11961TIP3    H157374   6.557   0.823   2.800  2.0023 -1.9811  0.5958
11961TIP3    H257375   6.592   0.793   2.656 -0.0041  0.7393 -0.4945
11962TIP3   OH257376   6.930   3.488   0.871  0.1310 -0.8546  0.2403
11962TIP3    H157377   6.951   3.452   0.785  1.3691 -0.5639  0.4166
11962TIP3    H257378   6.950   3.581   0.864 -1.7675 -0.4163  0.2128
11963TIP3   OH257379   6.095   2.845   0.007 -0.1389  0.6484 -0.3757
11963TIP3    H157380   6.061   2.907  -0.058  0.4838  0.7467 -0.6113
11963TIP3    H257381   6.189   2.846  -0.007 -0.3934 -3.4605 -3.1568
11964TIP3   OH257382   1.146   2.463   1.091  0.0083 -0.2461  0.4103
11964TIP3    H157383   1.233   2.483   1.123  0.2796 -1.1499  0.2666
11964TIP3    H257384   1.157   2.448   0.997 -0.1987 -0.9175  0.4872
11965TIP3   OH257385   5.717   0.498   1.840  0.1535 -0.6978  0.4873
11965TIP3    H157386   5.715   0.495   1.744 -1.9875  3.1309  0.2904
11965TIP3    H257387   5.810   0.495   1.862  0.7405 -0.4148 -1.7949
11966TIP3   OH257388   7.160   5.989  14.374 -0.1937 -0.3584 -0.0034
11966TIP3    H157389   7.235   5.930  14.360  0.9879  1.0512  0.2226
11966TIP3    H257390   7.087   5.947  14.329  0.3662 -2.5470  1.0857
11967TIP3   OH257391   5.268   2.008   0.932 -0.0477  0.1171 -0.4318
11967TIP3    H157392   5.344   2.043   0.980 -0.6342  0.7411  0.0512
11967TIP3    H257393   5.280   1.913   0.935  0.3841  0.1873  0.1891
11968TIP3   OH257394   6.633   5.961  14.687  0.6973  0.3538 -0.3808
11968TIP3    H157395   6.685   6.010  14.751 -0.0122  0.9131 -0.2248
11968TIP3    H257396   6.674   5.874  14.684 -0.1014 -0.1584  1.8980
11969TIP3   OH257397   4.777   3.066   0.110 -0.0223  0.4523  0.6971
11969TIP3    H157398   4.825   3.119   0.174 -0.2269 -0.2167  1.4160
11969TIP3    H257399   4.796   3.107   0.025  0.5766  1.1060  1.1437
11970TIP3   OH257400   4.567   3.610   0.389 -0.5905 -0.2671 -0.1433
11970TIP3    H157401   4.493   3.594   0.330 -0.4533  1.3361 -0.7911
11970TIP3    H257402   4.576   3.706   0.391  2.2598 -0.4433 -1.0985
11971TIP3   OH257403   6.756   4.561   4.579 -0.0495  0.4575 -0.7545
11971TIP3    H157404   6.746   4.631   4.514 -0.0069  0.4333 -0.7868
11971TIP3    H257405   6.787   4.605   4.658 -0.6014  0.5598 -0.5939
11972TIP3   OH257406   3.054   0.931   4.960 -0.3333 -0.1172  0.8851
11972TIP3    H157407   3.148   0.937   4.975 -0.3465  0.3963  0.7836
11972TIP3    H257408   3.025   1.022   4.956 -0.8575 -0.2752  1.0718
11973TIP3   OH257409   2.303   0.995   3.492  0.3160  0.0412 -0.6372
11973TIP3    H157410   2.216   0.966   3.467 -0.1300  1.6963 -1.0263
11973TIP3    H257411   2.324   1.066   3.432  2.1480 -0.6542 -0.8695
11974TIP3   OH257412   1.456   5.864   0.621 -0.0447 -0.1856 -0.0192
11974TIP3    H157413   1.479   5.952   0.651 -1.5972  0.6366 -1.1106
11974TIP3    H257414   1.360   5.862   0.625 -0.0749 -1.4599 -1.0227
11975TIP3   OH257415   3.572   4.928  15.451 -0.3726 -0.3444  0.0199
11975TIP3    H157416   3.626   4.988  15.502 -0.0892  0.9417 -1.7374
11975TIP3    H257417   3.490   4.976  15.436 -1.4539 -1.7004  1.3948
11976TIP3   OH257418   1.151   5.832  15.006 -0.3185  0.3817  0.4331
11976TIP3    H157419   1.184   5.757  14.956 -2.1484 -1.2798  1.6282
11976TIP3    H257420   1.077   5.863  14.954  1.1219  2.0943 -0.6303
11977TIP3   OH257421   0.198   3.745   1.085 -0.0686  0.4807 -0.2682
11977TIP3    H157422   0.250   3.665   1.083  2.0277  1.8174 -0.7346
11977TIP3    H257423   0.107   3.714   1.091  0.7315 -1.8976  0.2725
11978TIP3   OH257424   6.843   5.549   1.797  0.2841 -0.1192  0.0751
11978TIP3    H157425   6.761   5.560   1.846 -0.2388  1.2530 -1.0683
11978TIP3    H257426   6.841   5.458   1.768 -1.1190  0.0345 -0.3924
11979TIP3   OH257427   1.169   6.374   3.873 -0.2956 -0.0766  0.6526
11979TIP3    H157428   1.178   6.321   3.953 -1.1859 -1.8750 -0.3983
11979TIP3    H257429   1.162   6.309   3.803  0.9259  1.4924 -0.9424
11980TIP3   OH257430   1.782   4.481   4.025  0.1789 -0.3049 -0.2237
11980TIP3    H157431   1.832   4.504   4.104  0.4645 -0.8620 -0.2394
11980TIP3    H257432   1.752   4.565   3.991  0.1363 -0.0518  0.4263
11981TIP3   OH257433   1.202   3.948   1.958  0.5748  0.2505  0.0061
11981TIP3    H157434   1.243   3.862   1.950 -1.2700 -0.7967  1.2633
11981TIP3    H257435   1.182   3.957   2.052 -1.8450  0.7670 -0.5108
11982TIP3   OH257436   4.470   6.877   2.854  0.0364 -0.3670  0.5879
11982TIP3    H157437   4.457   6.889   2.948 -0.5478  1.9021  0.2314
11982TIP3    H257438   4.565   6.865   2.845  0.1309 -0.2987  1.4151
11983TIP3   OH257439   5.099   5.404   0.821 -0.4278  0.1865 -0.5192
11983TIP3    H157440   5.021   5.403   0.877 -1.8107  2.5425 -2.3201
11983TIP3    H257441   5.123   5.311   0.813 -2.3096 -0.4858  1.0439
11984TIP3   OH257442   5.214   2.475  14.218 -0.0688 -0.6190 -0.1703
11984TIP3    H157443   5.229   2.528  14.296 -1.1597 -1.9495  0.9852
11984TIP3    H257444   5.279   2.406  14.223 -1.5645 -1.9997  0.7924
11985TIP3   OH257445   3.926   4.297   3.270 -0.0980 -0.3813  0.0631
11985TIP3    H157446   3.909   4.207   3.241  1.4179 -0.0048 -2.1230
11985TIP3    H257447   3.904   4.350   3.194  0.7737  0.9432  0.7306
11986TIP3   OH257448   3.848   0.842  15.314 -0.3340  0.2460  0.1617
11986TIP3    H157449   3.818   0.903  15.381 -1.1839  0.7576 -0.6575
11986TIP3    H257450   3.771   0.791  15.291  0.1194 -0.4142  0.0714
11987TIP3   OH257451   5.002   1.526   2.813  0.2681  1.0424  0.4222
11987TIP3    H157452   5.067   1.544   2.881 -0.0155 -0.2179  1.0411
11987TIP3    H257453   5.004   1.604   2.757  3.1043  0.5825 -0.1982
11988TIP3   OH257454   3.223   1.792   0.746 -0.4201  0.4358 -0.5642
11988TIP3    H157455   3.137   1.754   0.726 -0.7406  0.2919  1.0231
11988TIP3    H257456   3.275   1.718   0.778  1.0309  0.0751 -3.6499
11989TIP3   OH257457   7.105   1.627   1.069  0.2262  0.1236 -0.3468
11989TIP3    H157458   7.045   1.564   1.110  0.3421 -1.4347 -2.5200
11989TIP3    H257459   7.143   1.674   1.143 -1.0878 -1.2314  1.2513
11990TIP3   OH257460   0.011   3.413   4.383 -0.7232  0.3254  0.6124
11990TIP3    H157461   0.099   3.427   4.419 -1.0726  0.9143  1.2337
11990TIP3    H257462  -0.027   3.500   4.376 -0.5296  0.2676 -1.5482
11991TIP3   OH257463   7.113   0.261   1.831  0.6848 -0.2234 -0.1514
11991TIP3    H157464   7.110   0.167   1.849 -0.8532 -0.0461  0.6553
11991TIP3    H257465   7.086   0.302   1.914 -1.0894  0.8270 -1.2136
11992TIP3   OH257466   4.805   4.064   3.431  0.3603  0.2886  0.5962
11992TIP3    H157467   4.813   4.002   3.503  2.7634  1.4177  1.3540
11992TIP3    H257468   4.867   4.134   3.453  0.9141  0.7987 -2.4134
11993TIP3   OH257469   3.626   3.489   3.346  0.2458 -0.6476  0.4169
11993TIP3    H157470   3.539   3.457   3.323  0.3411 -1.6088  1.3894
11993TIP3    H257471   3.686   3.441   3.289  0.1914 -0.4281  0.1740
11994TIP3   OH257472   1.004   1.796  14.607  0.7188  0.2637 -0.1770
11994TIP3    H157473   1.025   1.723  14.549  0.7424 -0.4183  0.6691
11994TIP3    H257474   0.912   1.813  14.591  0.5347 -0.4161  0.1204
11995TIP3   OH257475   7.168   4.996   3.521 -0.3963  0.4592  0.0158
11995TIP3    H157476   7.148   4.911   3.561  1.3701  0.7208  1.4992
11995TIP3    H257477   7.203   4.973   3.435 -0.8373 -0.2600  0.0182
11996TIP3   OH257478   0.648   0.068   0.930 -0.6727 -0.2186  0.3848
11996TIP3    H157479   0.642   0.164   0.921  1.2908 -0.0016  1.0997
11996TIP3    H257480   0.568   0.043   0.976 -1.2602  1.0674  0.0854
11997TIP3   OH257481   2.478   1.649   0.924 -0.0810 -0.5908  0.5397
11997TIP3    H157482   2.509   1.719   0.868  0.9601 -0.9294  0.6766
11997TIP3    H257483   2.481   1.685   1.013 -1.9932  0.0382  0.3619
11998TIP3   OH257484   5.137   4.727   1.001  0.0349  0.5490  0.1110
11998TIP3    H157485   5.223   4.741   1.042 -0.2459  1.0023  0.5564
11998TIP3    H257486   5.083   4.690   1.071  0.0725 -0.4363 -0.3730
11999TIP3   OH257487   6.744   3.510  13.945  0.0725  0.3902 -0.3050
11999TIP3    H157488   6.659   3.505  13.900  0.9635  1.5164 -2.1758
11999TIP3    H257489   6.806   3.473  13.882  0.8660 -1.3015  1.4124
12000TIP3   OH257490   1.403   4.849   0.678 -0.3099  0.1588 -0.3927
12000TIP3    H157491   1.456   4.810   0.747 -2.6727  0.3497  1.6222
12000TIP3    H257492   1.448   4.826   0.597  2.4676 -0.2018  1.1832
12001TIP3   OH257493   0.764   0.001  11.234 -0.1147  0.2450 -0.1687
12001TIP3    H157494   0.726   0.035  11.315 -3.6400  0.8270 -1.9729
12001TIP3    H257495   0.735  -0.090  11.231  2.8309 -0.7694  0.8286
12002TIP3   OH257496   6.444   2.746   0.629  0.1089 -0.0932 -0.1330
12002TIP3    H157497   6.435   2.812   0.560  1.5576  1.6760  1.3512
12002TIP3    H257498   6.533   2.712   0.618  1.0519  1.6040  2.0858
12003TIP3   OH257499   1.099   3.055  15.464 -0.2726 -0.0777  0.4219
12003TIP3    H157500   1.157   3.060  15.539  0.6679  0.6415 -0.3422
12003TIP3    H257501   1.155   3.027  15.391 -0.7302  1.1996 -0.4538
12004TIP3   OH257502   0.460   1.158   5.102  0.1762  0.0317  0.4738
12004TIP3    H157503   0.508   1.107   5.036 -0.8381 -0.7656  0.3198
12004TIP3    H257504   0.486   1.119   5.186  0.5015  0.2025  0.4496
12005TIP3   OH257505   4.127   2.395   0.615  0.7294 -0.0434 -0.1138
12005TIP3    H157506   4.083   2.463   0.664 -0.7186 -1.8523  1.1608
12005TIP3    H257507   4.061   2.361   0.555  0.9594 -1.3926  0.3767
12006TIP3   OH257508   6.111   5.863   0.211 -0.8083 -0.3870 -0.4056
12006TIP3    H157509   6.103   5.767   0.209 -0.7711 -0.3750 -2.5670
12006TIP3    H257510   6.022   5.895   0.203 -0.6904 -0.2525 -1.2409
12007TIP3   OH257511   6.258   2.544   1.030 -0.0971 -0.4474  0.3965
12007TIP3    H157512   6.201   2.467   1.034 -0.6428  0.0271  2.2138
12007TIP3    H257513   6.207   2.614   1.069  1.6484  0.0287  1.9013
12008TIP3   OH257514   6.605   6.271  14.236 -0.4857 -0.1530  0.1414
12008TIP3    H157515   6.630   6.331  14.166  2.5355 -2.1615 -0.5818
12008TIP3    H257516   6.644   6.308  14.315  0.1804 -0.4109 -0.0646
12009TIP3   OH257517   1.402   3.418  12.697 -0.4988 -0.2311  0.2120
12009TIP3    H157518   1.447   3.489  12.743  0.7009 -1.5950  1.2004
12009TIP3    H257519   1.444   3.338  12.729 -0.8925 -1.3306 -1.8948
12010TIP3   OH257520   5.960   7.101   1.005  0.3332  0.2466 -0.1013
12010TIP3    H157521   5.891   7.084   1.069 -0.7981 -0.1581 -1.3992
12010TIP3    H257522   5.937   7.186   0.967  1.8175  1.1823  1.0614
12011TIP3   OH257523   5.474   5.634  14.902 -0.3226 -0.1795  0.0880
12011TIP3    H157524   5.407   5.587  14.852  1.1442 -0.6669 -1.4784
12011TIP3    H257525   5.542   5.568  14.918 -0.6359  0.0365  2.5430
12012TIP3   OH257526   4.363   2.213   0.253  0.1897  0.1916  0.2160
12012TIP3    H157527   4.405   2.254   0.329  1.8192  0.4651 -0.8052
12012TIP3    H257528   4.273   2.244   0.256 -0.3656 -1.5672  3.3040
12013TIP3   OH257529   6.719   0.007   1.831 -0.1313  0.1190 -0.0758
12013TIP3    H157530   6.747  -0.078   1.795  0.2756 -0.0740  0.6921
12013TIP3    H257531   6.624  -0.001   1.841 -0.2435  0.1559 -1.0632
12014TIP3   OH257532   2.055   1.546   3.571 -0.1930  0.7310  0.4871
12014TIP3    H157533   1.979   1.585   3.615 -0.9004 -1.0959  0.9338
12014TIP3    H257534   2.022   1.520   3.485 -0.2560 -0.6249  0.9065
12015TIP3   OH257535   0.156   2.465  15.146 -0.1408 -0.4576  0.1646
12015TIP3    H157536   0.064   2.448  15.127 -0.5452  1.8229 -0.0257
12015TIP3    H257537   0.196   2.479  15.060 -0.1765  1.1530  0.3877
12016TIP3   OH257538   2.708   3.229  14.853  0.3761  0.1256  0.4827
12016TIP3    H157539   2.699   3.205  14.945  0.5332  0.1080  0.4943
12016TIP3    H257540   2.799   3.255  14.844  0.2984  0.3654  0.3872
12017TIP3   OH257541   5.997   2.228   1.591  0.4451  0.5451 -0.1230
12017TIP3    H157542   6.013   2.208   1.499 -0.0858  0.1676 -0.1326
12017TIP3    H257543   6.074   2.193   1.637 -0.5469 -1.6746 -0.1200
12018TIP3   OH257544   1.510   5.284  15.364 -0.2474  0.1242 -0.1811
12018TIP3    H157545   1.590   5.270  15.314  0.1735  1.6709  0.0325
12018TIP3    H257546   1.488   5.376  15.349 -1.7772 -0.1869  0.0660
12019TIP3   OH257547   1.443   0.582  13.619 -0.1832  0.1020  0.2676
12019TIP3    H157548   1.357   0.590  13.577  1.2671 -0.7858 -3.0847
12019TIP3    H257549   1.498   0.644  13.571  1.6095 -1.1152  0.7087
12020TIP3   OH257550   6.356   0.771   0.303 -0.4829  0.1333 -0.5529
12020TIP3    H157551   6.441   0.809   0.279 -0.5549 -0.1542 -1.2743
12020TIP3    H257552   6.349   0.693   0.249 -1.1623  0.0924 -0.4048
12021TIP3   OH257553   1.652   3.360  14.733  0.1122 -0.0836 -0.0250
12021TIP3    H157554   1.686   3.449  14.724  0.5029 -0.2662 -0.3469
12021TIP3    H257555   1.671   3.318  14.649  1.8421 -1.1135  0.8506
12022TIP3   OH257556   1.361   4.380   1.928  0.3428 -0.4414  0.7537
12022TIP3    H157557   1.279   4.372   1.977  1.5002 -1.4998  2.5830
12022TIP3    H257558   1.364   4.301   1.874 -0.0952 -0.1362  0.2796
12023TIP3   OH257559   1.483   5.698  14.946  0.2568 -0.3270  0.4664
12023TIP3    H157560   1.577   5.714  14.939  0.1537 -0.0350 -0.2516
12023TIP3    H257561   1.443   5.784  14.934 -0.0371 -0.2019  2.2486
12024TIP3   OH257562   3.922   4.411  14.004  0.1068  0.3161 -0.2132
12024TIP3    H157563   3.969   4.434  14.085 -0.0293 -1.7478  0.4796
12024TIP3    H257564   3.853   4.352  14.032  0.6827 -1.2496 -1.9492
12025TIP3   OH257565   0.128   3.519   0.841 -0.4349  0.9309  0.5695
12025TIP3    H157566   0.094   3.468   0.915 -0.2001 -1.3007 -0.8171
12025TIP3    H257567   0.211   3.554   0.872  0.1495 -0.8212  1.0321
12026TIP3   OH257568   6.081   4.598   0.775  0.2197 -0.2093  0.0863
12026TIP3    H157569   6.068   4.671   0.835 -0.4327  0.7223 -1.1789
12026TIP3    H257570   5.993   4.575   0.744  0.5313 -0.7711 -0.4134
12027TIP3   OH257571   1.189   7.172   2.286 -0.1901  0.1746  0.1018
12027TIP3    H157572   1.157   7.087   2.258  0.0246  0.7033 -1.8388
12027TIP3    H257573   1.188   7.225   2.206  3.0694  0.9581  0.5299
12028TIP3   OH257574   4.050   3.676   2.887 -0.5824  0.0436 -0.3987
12028TIP3    H157575   3.976   3.732   2.908 -0.8567 -0.4365 -0.0757
12028TIP3    H257576   4.040   3.655   2.794  1.3565  3.2544 -1.4204
12029TIP3   OH257577   4.081   1.973  15.361 -0.1055 -0.6708  0.2701
12029TIP3    H157578   4.026   2.048  15.387 -1.8079 -2.1740  1.1922
12029TIP3    H257579   4.121   1.944  15.443  2.0203  0.3471 -0.3889
12030TIP3   OH257580   6.741   6.945   0.365 -0.0734 -0.4141  0.2229
12030TIP3    H157581   6.654   6.908   0.357  1.3959 -3.9199 -0.6492
12030TIP3    H257582   6.758   6.985   0.280  0.6749 -3.4286 -1.1351
12031TIP3   OH257583   1.097   7.078   2.609 -0.0738  0.4120 -0.3603
12031TIP3    H157584   1.159   7.025   2.558  0.1150  0.1708  0.1152
12031TIP3    H257585   1.030   7.016   2.637 -0.8134  0.7748 -1.3066
12032TIP3   OH257586   4.043   2.701   1.296  0.6120  0.5992  0.4662
12032TIP3    H157587   4.081   2.784   1.268 -0.2230  0.2470 -1.7674
12032TIP3    H257588   3.950   2.719   1.306  0.3230 -0.2151 -0.6598
12033TIP3   OH257589   3.385   5.994   3.623 -0.1685 -0.4076 -0.1394
12033TIP3    H157590   3.330   6.066   3.656 -0.6048 -0.8068  0.0071
12033TIP3    H257591   3.467   6.002   3.672 -0.4168 -0.3397  0.2665
12034TIP3   OH257592   6.065   0.644  14.426  0.1984  0.0364 -0.7323
12034TIP3    H157593   6.069   0.656  14.331  2.2565 -0.2024 -0.6995
12034TIP3    H257594   6.145   0.685  14.458 -0.0952 -0.5998  0.8303
12035TIP3   OH257595   4.070   1.121   2.398  0.2534  0.2940  0.1545
12035TIP3    H157596   4.125   1.154   2.469  2.0348  0.7927 -1.4037
12035TIP3    H257597   4.081   1.026   2.401  0.2206  0.3050  0.6255
12036TIP3   OH257598   2.489   4.489  14.374 -0.5819 -0.1284  0.7118
12036TIP3    H157599   2.501   4.548  14.299 -1.0944 -1.2069 -0.2257
12036TIP3    H257600   2.577   4.461  14.397 -0.5110 -0.6121 -0.1501
12037TIP3   OH257601   4.634   1.423   3.859 -0.2458 -0.1529  0.2731
12037TIP3    H157602   4.722   1.422   3.897  0.3075 -0.7951 -1.0009
12037TIP3    H257603   4.594   1.502   3.895  1.6036  1.3415 -0.8223
12038TIP3   OH257604   6.805   1.243   4.003 -0.0142 -0.1518  0.2841
12038TIP3    H157605   6.799   1.297   3.925  2.8626 -0.7023 -0.3836
12038TIP3    H257606   6.778   1.155   3.974 -0.0774 -0.1051  0.2020
12039TIP3   OH257607   2.235   6.331  15.492  0.0092  0.2908  0.5879
12039TIP3    H157608   2.176   6.315  15.418  0.5027  0.0644  0.2436
12039TIP3    H257609   2.210   6.265  15.557  0.1584 -0.0723  0.2769
12040TIP3   OH257610   3.892   5.031   0.660  0.2978 -0.1746  0.0072
12040TIP3    H157611   3.835   5.015   0.735  1.3362 -0.1232  0.8120
12040TIP3    H257612   3.916   4.943   0.629 -0.3827 -0.1970 -0.4597
12041TIP3   OH257613   5.560   6.925   0.265 -0.2903  0.3468 -0.0578
12041TIP3    H157614   5.507   6.901   0.189 -0.3790  0.0125  0.1057
12041TIP3    H257615   5.500   6.918   0.339 -0.1758  0.5658  0.0564
12042TIP3   OH257616   6.009   6.344   0.581  0.3164 -0.1767 -0.1271
12042TIP3    H157617   6.010   6.383   0.494 -0.9719 -1.2812 -0.6493
12042TIP3    H257618   6.018   6.418   0.641 -3.5579  1.1343 -1.0238
12043TIP3   OH257619   1.101   6.798   1.917 -0.1183 -0.0356 -0.7221
12043TIP3    H157620   1.019   6.750   1.932 -0.1839  0.5895  1.0035
12043TIP3    H257621   1.103   6.865   1.986  1.2503  0.7580 -1.5037
12044TIP3   OH257622   5.160   3.732   1.539  0.0467 -0.3595  0.0565
12044TIP3    H157623   5.138   3.787   1.464 -1.5964 -2.3187 -0.9519
12044TIP3    H257624   5.158   3.792   1.614 -0.7153  1.1298 -1.1214
12045TIP3   OH257625   0.431   3.369   3.040  0.1431  0.7320 -0.0377
12045TIP3    H157626   0.416   3.463   3.046  0.0071  0.6466  1.1904
12045TIP3    H257627   0.368   3.331   3.102 -0.6512 -0.2514 -1.4316
12046TIP3   OH257628   0.457   4.274  14.944  0.4736 -0.7875  0.3185
12046TIP3    H157629   0.549   4.280  14.969  0.4743  1.0062  0.0204
12046TIP3    H257630   0.415   4.345  14.992 -0.4833 -0.6971 -0.6241
12047TIP3   OH257631   0.675   4.937   1.788  0.7236  0.7899  0.2113
12047TIP3    H157632   0.700   5.017   1.834 -0.7241  2.0379 -1.1340
12047TIP3    H257633   0.611   4.896   1.846  0.9112  0.9695  0.5507
12048TIP3   OH257634   4.624   0.166   2.997 -0.6132 -0.2783  0.4438
12048TIP3    H157635   4.640   0.258   3.019  0.7450 -0.9134  2.2623
12048TIP3    H257636   4.659   0.156   2.909  0.2894  0.6931  0.6765
12049TIP3   OH257637   1.269   3.457   0.584 -0.3717 -0.3914 -0.4502
12049TIP3    H157638   1.216   3.534   0.605 -0.5872 -0.3117 -1.2734
12049TIP3    H257639   1.322   3.442   0.662 -0.6057  0.3659 -0.1450
12050TIP3   OH257640   7.037   3.863   0.983  0.3313 -0.4338 -0.0517
12050TIP3    H157641   7.112   3.883   0.928  0.6004  0.8232  0.7506
12050TIP3    H257642   7.054   3.775   1.016  0.9047 -0.5870 -0.7468
12051TIP3   OH257643   1.099   4.303  12.681  0.3348  0.1209 -0.0228
12051TIP3    H157644   1.043   4.352  12.621  3.1044  0.5777 -2.3215
12051TIP3    H257645   1.099   4.213  12.647  1.5312  0.2774 -0.4766
12052TIP3   OH257646   5.684   4.067   0.513 -0.2712 -0.2676  0.3333
12052TIP3    H157647   5.740   4.032   0.583  2.1678  3.7242  0.4916
12052TIP3    H257648   5.688   4.000   0.444  4.8183 -0.1162  0.2948
12053TIP3   OH257649   2.550   0.238   0.735 -0.7022 -0.8585 -0.0512
12053TIP3    H157650   2.477   0.177   0.723 -0.3906 -1.5922  1.6780
12053TIP3    H257651   2.523   0.317   0.688 -1.9581 -1.6404 -0.6650
12054TIP3   OH257652   2.441   4.637   1.440 -0.4379 -1.0245  0.0288
12054TIP3    H157653   2.492   4.640   1.521  1.1956 -0.9894 -0.9796
12054TIP3    H257654   2.369   4.698   1.455 -0.4979 -1.4744  1.6739
12055TIP3   OH257655   7.084   4.917   4.009 -0.1637  0.2282  0.4480
12055TIP3    H157656   7.131   4.900   3.927 -1.6923  0.5390 -0.4990
12055TIP3    H257657   7.043   5.003   3.996  0.4783  0.7754  1.9598
12056TIP3   OH257658   0.738   6.426   2.143  0.2324  0.6567 -0.9261
12056TIP3    H157659   0.789   6.353   2.180 -0.5625  0.3072 -0.5006
12056TIP3    H257660   0.691   6.463   2.218  0.2890  1.3269 -1.2180
12057TIP3   OH257661   2.424   3.752   1.265  0.2387  0.9794  0.3719
12057TIP3    H157662   2.372   3.747   1.185 -0.7839 -2.3619  1.1656
12057TIP3    H257663   2.395   3.833   1.307 -0.4580  1.8860 -1.7761
12058TIP3   OH257664   1.413   2.401   2.329  0.1584 -0.2698  0.6482
12058TIP3    H157665   1.381   2.318   2.365 -0.5791 -0.7726 -1.1103
12058TIP3    H257666   1.337   2.459   2.333 -0.3181 -0.7244 -1.2618
12059TIP3   OH257667   0.532   3.025   0.436  0.5400 -0.4174 -0.3017
12059TIP3    H157668   0.586   2.974   0.376 -0.5406 -0.8058 -0.9781
12059TIP3    H257669   0.442   2.997   0.416  0.2088 -1.0352  1.9690
12060TIP3   OH257670   0.647   4.069  14.263  0.3431 -0.0471 -0.0398
12060TIP3    H157671   0.658   4.159  14.231 -2.1297  1.7852  3.8696
12060TIP3    H257672   0.552   4.056  14.266  0.6600 -2.5214  0.1223
12061TIP3   OH257673   4.128   3.059  14.403  0.4572  0.3569 -0.7180
12061TIP3    H157674   4.061   2.993  14.418 -0.5952  1.3858 -0.7959
12061TIP3    H257675   4.080   3.134  14.367  1.1990  2.0938  1.7818
12062TIP3   OH257676   3.491   0.917  14.441 -0.7385  0.4453 -0.1993
12062TIP3    H157677   3.492   0.923  14.536 -1.1252  0.7514 -0.2148
12062TIP3    H257678   3.566   0.860  14.420 -1.4155 -0.6737  0.3558
12063TIP3   OH257679   3.256   4.094   2.508  0.1637 -0.2774  0.1314
12063TIP3    H157680   3.299   4.018   2.469  0.1612 -0.4519  0.4634
12063TIP3    H257681   3.171   4.061   2.538 -0.4955  0.2203 -1.1319
12064TIP3   OH257682   5.443   2.566   3.055  0.9326  0.4006  0.5172
12064TIP3    H157683   5.396   2.648   3.067 -1.8558 -1.1883  0.8703
12064TIP3    H257684   5.498   2.581   2.978  0.1430  2.4557  0.3221
12065TIP3   OH257685   7.193   2.908  13.343 -0.6445 -0.4240 -0.6272
12065TIP3    H157686   7.197   2.936  13.434 -0.8503 -0.8852 -0.4723
12065TIP3    H257687   7.284   2.889  13.319 -0.5080  0.3459 -0.7297
12066TIP3   OH257688   1.989   6.571   1.206  0.1917 -0.1450  0.5675
12066TIP3    H157689   2.038   6.625   1.145  0.2492 -0.1165  0.6386
12066TIP3    H257690   1.920   6.628   1.238 -0.0672 -0.2774  0.2435
12067TIP3   OH257691   5.629   5.362   1.857 -0.5160  0.3455 -0.1041
12067TIP3    H157692   5.563   5.295   1.838  1.6396 -2.4622  2.0773
12067TIP3    H257693   5.581   5.429   1.907 -2.1127 -0.7851 -0.0915
12068TIP3   OH257694   1.423   4.711  14.311  0.6725 -0.2548  0.3293
12068TIP3    H157695   1.501   4.737  14.262  0.0134  0.8748 -0.1204
12068TIP3    H257696   1.352   4.715  14.248 -0.0093  0.2078  1.1216
12069TIP3   OH257697   3.418   3.209   4.366  0.5713  0.2261  0.1514
12069TIP3    H157698   3.342   3.263   4.388  0.9236  0.6506  0.3216
12069TIP3    H257699   3.383   3.120   4.362 -0.0448  0.4878 -0.3134
12070TIP3   OH257700   6.913   3.775   2.831  0.0099 -0.0269 -0.4582
12070TIP3    H157701   6.932   3.697   2.779  0.7673  0.0443 -0.3065
12070TIP3    H257702   6.844   3.748   2.891  1.3979 -1.0929  0.7250
12071TIP3   OH257703   2.932   3.849   1.368 -0.1980  0.1064 -0.0643
12071TIP3    H157704   2.999   3.807   1.314  2.7552  0.5502  3.1034
12071TIP3    H257705   2.932   3.800   1.450 -3.0155  0.8218  0.4367
12072TIP3   OH257706   0.620   5.421   4.930 -0.2648 -0.1877  0.3597
12072TIP3    H157707   0.691   5.415   4.866 -0.2983  1.2011  0.1865
12072TIP3    H257708   0.627   5.340   4.981  0.4178 -0.8212 -0.7112
12073TIP3   OH257709   2.424   4.259  14.519 -0.1291 -0.3302 -0.1926
12073TIP3    H157710   2.499   4.206  14.493 -0.8931 -0.6560 -1.8044
12073TIP3    H257711   2.443   4.347  14.485  0.5825  0.1532  1.4287
12074TIP3   OH257712   3.796   3.320  13.784 -0.0822  0.4099  0.0590
12074TIP3    H157713   3.818   3.370  13.706  0.4124  0.5723  0.3030
12074TIP3    H257714   3.705   3.345  13.804 -0.0345  0.7575 -0.1582
12075TIP3   OH257715   2.654   0.159  15.088 -0.1932 -0.2057 -0.1464
12075TIP3    H157716   2.720   0.191  15.026 -0.1089  4.4459  2.1392
12075TIP3    H257717   2.570   0.185  15.050 -0.4858 -2.0318 -0.8036
12076TIP3   OH257718   2.965   5.170   3.431  0.0428 -0.5608 -0.6101
12076TIP3    H157719   2.989   5.138   3.344  0.4779 -0.7214 -0.4338
12076TIP3    H257720   2.905   5.104   3.466 -0.1898 -0.4593 -0.8150
12077TIP3   OH257721   5.837   2.183   0.526  0.6100  0.6989  0.7809
12077TIP3    H157722   5.931   2.177   0.508  0.4457 -0.2908  0.1780
12077TIP3    H257723   5.821   2.118   0.594  0.1948  0.0946  0.1216
12078TIP3   OH257724   2.990   0.936   0.857 -0.1156  0.0251  0.0469
12078TIP3    H157725   2.912   0.905   0.902  0.2639 -0.0306  0.6774
12078TIP3    H257726   3.052   0.863   0.864  0.4205  0.5319  0.6291
12079TIP3   OH257727   4.416   0.331   1.818  0.2935  0.1780 -0.3961
12079TIP3    H157728   4.491   0.380   1.783 -0.4238 -0.1864 -2.5067
12079TIP3    H257729   4.437   0.239   1.801  0.1823 -0.0537  0.6719
12080TIP3   OH257730   0.373   1.802   0.519 -0.2051  0.3132  0.1323
12080TIP3    H157731   0.424   1.807   0.600  0.0202  1.8216 -0.0845
12080TIP3    H257732   0.404   1.876   0.467  0.4507 -1.2882 -1.8145
12081TIP3   OH257733   5.991   3.474   0.442  0.0475 -0.3706  0.0314
12081TIP3    H157734   6.059   3.407   0.430  1.2980  0.6518  1.2074
12081TIP3    H257735   6.038   3.557   0.432 -0.6727  0.3784  2.5196
12082TIP3   OH257736   1.046   1.241  14.322 -0.2903  0.1102  0.4582
12082TIP3    H157737   1.124   1.267  14.370  0.5032 -0.1059 -0.6972
12082TIP3    H257738   0.994   1.192  14.386  1.6929 -1.9190  0.5647
12083TIP3   OH257739   6.165   5.381   4.668 -0.0266 -0.5757 -0.2343
12083TIP3    H157740   6.220   5.337   4.732  0.1844 -1.2595 -0.8831
12083TIP3    H257741   6.087   5.326   4.659 -1.5539  1.1725  1.8226
12084TIP3   OH257742   5.892   1.341   0.659 -0.8854  0.7818 -0.1986
12084TIP3    H157743   5.946   1.328   0.737 -2.4183  0.3415  0.8251
12084TIP3    H257744   5.810   1.377   0.693 -1.3272  1.2182 -1.6901
12085TIP3   OH257745   5.984   2.150   3.737  0.2832 -0.2961  0.0585
12085TIP3    H157746   5.916   2.094   3.774 -0.0707 -0.0063 -0.1504
12085TIP3    H257747   5.960   2.159   3.645  1.2988 -1.2213 -0.3092
12086TIP3   OH257748   6.193   3.586   1.460  0.1700 -0.4583  0.1344
12086TIP3    H157749   6.129   3.550   1.521  0.6197  0.4984  1.1862
12086TIP3    H257750   6.142   3.643   1.403  0.1623  0.7910  1.3623
12087TIP3   OH257751   5.678   2.344  13.235 -0.6692  0.3299  0.0449
12087TIP3    H157752   5.733   2.422  13.244 -1.3029  0.9171 -1.0859
12087TIP3    H257753   5.666   2.333  13.141 -1.2663 -0.6574  0.2248
12088TIP3   OH257754   6.555   3.165  15.220  0.2877  0.2538  0.1668
12088TIP3    H157755   6.630   3.149  15.163 -0.5409 -1.5551 -0.4436
12088TIP3    H257756   6.585   3.138  15.307  0.4511 -0.1649 -0.0171
12089TIP3   OH257757   4.984   6.328  14.657  0.2924  0.4255 -0.1262
12089TIP3    H157758   5.016   6.405  14.703 -1.2286  1.7840 -1.2675
12089TIP3    H257759   4.895   6.352  14.629  0.0339 -1.4990 -1.0311
12090TIP3   OH257760   1.319   3.122   0.017 -0.0890  0.7137 -0.5096
12090TIP3    H157761   1.384   3.117   0.087  0.1294 -0.7705 -0.8069
12090TIP3    H257762   1.312   3.215  -0.003  0.4689  1.0669  0.9051
12091TIP3   OH257763   4.467   6.045   0.097  0.4690  0.8409 -0.0213
12091TIP3    H157764   4.563   6.038   0.092  0.4859 -1.9299  2.7059
12091TIP3    H257765   4.435   5.977   0.039  0.2103 -0.2417  1.3695
12092TIP3   OH257766   5.885   4.267   2.767 -0.4155  0.0352  0.3534
12092TIP3    H157767   5.893   4.361   2.750 -0.0128 -0.0728 -0.0773
12092TIP3    H257768   5.970   4.231   2.742 -0.0348 -0.2321  2.0109
12093TIP3   OH257769   4.593   4.104   0.520  0.0137 -0.5630  0.5534
12093TIP3    H157770   4.639   4.169   0.467 -0.4783 -0.5956  0.0854
12093TIP3    H257771   4.502   4.107   0.489 -0.5144  0.1575  2.0832
12094TIP3   OH257772   1.954   3.024  12.479  0.2202  0.0248 -0.0194
12094TIP3    H157773   1.885   2.975  12.436  1.5239 -0.2986 -1.7928
12094TIP3    H257774   1.998   3.072  12.409  0.3707  2.0193  1.3820
12095TIP3   OH257775   1.810   3.585  15.010 -0.6705 -0.5363  0.6424
12095TIP3    H157776   1.765   3.624  14.936  0.4422  1.1572  0.8336
12095TIP3    H257777   1.741   3.555  15.068 -1.5458  0.3116  0.0432
12096TIP3   OH257778   1.772   4.219   2.153  0.7755 -0.3220  0.0297
12096TIP3    H157779   1.687   4.261   2.165 -0.8047 -3.1692 -0.8574
12096TIP3    H257780   1.826   4.286   2.111 -1.5233  0.9939 -0.9228
12097TIP3   OH257781   3.080   5.787   0.688  0.3409 -0.1086  0.2711
12097TIP3    H157782   3.058   5.756   0.600 -0.1572  0.1886  0.2897
12097TIP3    H257783   3.175   5.802   0.685 -0.0944  2.8003 -1.1666
12098TIP3   OH257784   5.045   4.256   2.905  0.2742 -0.2323  0.0257
12098TIP3    H157785   4.993   4.301   2.972 -0.0031 -0.2593 -0.1722
12098TIP3    H257786   5.068   4.324   2.843 -0.5877 -0.4536 -0.5541
12099TIP3   OH257787   4.701   3.442   5.040  0.1293  0.3445  0.5605
12099TIP3    H157788   4.733   3.409   4.956  0.5937  1.4806  0.2890
12099TIP3    H257789   4.771   3.498   5.072 -0.6017  0.9607  1.0950
12100TIP3   OH257790   0.069   6.061  11.628  0.1657  0.0839 -0.5698
12100TIP3    H157791   0.068   6.139  11.684  0.3622  0.6528 -1.3487
12100TIP3    H257792  -0.019   6.023  11.639  0.0439  0.4586 -0.2416
12101TIP3   OH257793   0.950   5.700   2.601  0.6540 -0.2164  0.3019
12101TIP3    H157794   1.032   5.693   2.553 -0.0947 -0.7076 -0.9254
12101TIP3    H257795   0.972   5.669   2.689  2.1267  1.0739  0.4115
12102TIP3   OH257796   2.694   0.547   2.368  0.0955  0.4687  1.0067
12102TIP3    H157797   2.707   0.546   2.273 -0.5489 -0.7894  0.9196
12102TIP3    H257798   2.615   0.600   2.381 -1.3177 -1.4860  0.6182
12103TIP3   OH257799   6.499   6.786  14.261  0.0135  0.2834  0.3585
12103TIP3    H157800   6.514   6.752  14.173  0.7796 -0.4590  0.7695
12103TIP3    H257801   6.404   6.777  14.274  0.0938 -1.0259  0.1805
12104TIP3   OH257802   6.603   6.176  14.882 -0.0728  0.2925  0.2509
12104TIP3    H157803   6.670   6.224  14.929  0.1218  1.4364 -1.1753
12104TIP3    H257804   6.527   6.178  14.940  1.0714 -0.9326  1.8269
12105TIP3   OH257805   6.424   6.680   3.545  0.6639 -0.5237 -0.2092
12105TIP3    H157806   6.454   6.589   3.545 -3.8998 -2.1495 -0.5281
12105TIP3    H257807   6.436   6.710   3.635  1.2354 -1.7731  0.1353
12106TIP3   OH257808   0.800   1.671   0.908  0.2649  0.2861  0.0369
12106TIP3    H157809   0.751   1.726   0.848  0.2565 -1.1716 -1.3361
12106TIP3    H257810   0.892   1.695   0.894  0.1927  0.6127  0.1284
12107TIP3   OH257811   2.343   2.506   3.182  0.3113  0.2922 -0.3471
12107TIP3    H157812   2.391   2.542   3.256  0.4770 -1.9612  0.6845
12107TIP3    H257813   2.290   2.579   3.149 -2.1374  0.5638  3.9242
12108TIP3   OH257814   7.006   4.696   0.541 -0.5544 -0.0716  0.4039
12108TIP3    H157815   7.060   4.662   0.470 -1.5363  0.3619 -0.5569
12108TIP3    H257816   6.935   4.634   0.549 -0.5011 -0.0640  0.9420
12109TIP3   OH257817   3.477   0.535  15.356  0.7796  0.0276 -0.4265
12109TIP3    H157818   3.388   0.566  15.370  1.1760  0.9888  0.0287
12109TIP3    H257819   3.474   0.491  15.271  0.1784  1.2693 -1.0599
12110TIP3   OH257820   1.410   5.679  12.880 -0.1956 -0.0024 -0.1476
12110TIP3    H157821   1.355   5.665  12.957 -1.3336 -0.0731 -0.9513
12110TIP3    H257822   1.495   5.705  12.915 -1.3502  2.2376  1.1161
12111TIP3   OH257823   4.303   2.159   3.863 -0.3687  0.1634 -0.5274
12111TIP3    H157824   4.347   2.227   3.813  1.8662 -1.7772 -1.2965
12111TIP3    H257825   4.269   2.204   3.940  2.4710  1.8751 -0.2112
12112TIP3   OH257826   2.318   3.326  14.037 -0.4757  0.6742 -0.8092
12112TIP3    H157827   2.386   3.261  14.053 -0.8919  0.2856 -0.6200
12112TIP3    H257828   2.335   3.395  14.102 -1.6392 -0.4879  0.7446
12113TIP3   OH257829   6.121   4.608   2.148  0.2989  0.4967 -0.1589
12113TIP3    H157830   6.179   4.670   2.103 -1.2489  1.9325 -0.1925
12113TIP3    H257831   6.104   4.540   2.082 -0.0558  1.3679 -0.9804
12114TIP3   OH257832   3.118   3.165   0.439 -0.0101  0.7534 -0.0133
12114TIP3    H157833   3.025   3.176   0.418 -0.6910 -0.7040  2.0789
12114TIP3    H257834   3.121   3.165   0.534  2.0334 -0.1805 -0.0574
12115TIP3   OH257835   2.184   4.171   2.314 -0.1550 -0.3728  0.2910
12115TIP3    H157836   2.194   4.077   2.327  0.2859 -0.5866 -1.4997
12115TIP3    H257837   2.273   4.205   2.316 -0.2951 -0.0279  0.6861
12116TIP3   OH257838   5.952   5.873   1.493  0.0411  0.2323  0.0683
12116TIP3    H157839   5.882   5.927   1.530 -1.8524 -0.9577 -1.6342
12116TIP3    H257840   6.001   5.841   1.568 -1.5617  0.7015  1.3459
12117TIP3   OH257841   2.139   5.252  15.170 -0.7909 -0.1719 -0.1608
12117TIP3    H157842   2.067   5.192  15.190  0.6078 -1.0863  2.1894
12117TIP3    H257843   2.186   5.262  15.252  1.0447  1.4497 -1.3683
12118TIP3   OH257844   3.716   6.994   0.378  0.2427 -0.1197 -0.4918
12118TIP3    H157845   3.699   7.081   0.343 -1.5201 -0.2137  0.0755
12118TIP3    H257846   3.731   7.009   0.472  1.1010 -0.2973 -0.5997
12119TIP3   OH257847   0.906   3.802   2.589 -0.3725 -0.2162 -0.0767
12119TIP3    H157848   0.999   3.793   2.605 -0.3422  0.5699  0.2190
12119TIP3    H257849   0.871   3.841   2.669 -0.9810 -0.6731 -0.1134
12120TIP3   OH257850   0.261   1.987  15.159 -0.1523 -0.2633  0.2743
12120TIP3    H157851   0.175   2.020  15.183  0.3027  1.0108  0.1617
12120TIP3    H257852   0.291   2.045  15.089  1.8810  0.9265  2.0671
12121TIP3   OH257853   3.532   6.067   4.532  0.3483 -0.4441 -0.5419
12121TIP3    H157854   3.540   5.996   4.596 -2.1615 -1.4004 -1.2095
12121TIP3    H257855   3.595   6.132   4.560  1.9093 -2.4595  0.7524
12122TIP3   OH257856   1.397   2.298  15.461 -0.2304  0.4726 -0.0421
12122TIP3    H157857   1.382   2.271  15.370  0.3000  0.5647 -0.1538
12122TIP3    H257858   1.465   2.365  15.455  0.6471 -0.3591  0.5416
12123TIP3   OH257859   5.698   7.139   0.680 -0.1223  0.1714 -0.2285
12123TIP3    H157860   5.668   7.048   0.686 -0.0332  0.0695 -1.1866
12123TIP3    H257861   5.756   7.150   0.755 -1.4873 -0.0425  0.8843
12124TIP3   OH257862   1.312   5.265   0.448 -0.1276 -0.2890 -0.0480
12124TIP3    H157863   1.249   5.236   0.382 -1.0831  0.3289  0.5867
12124TIP3    H257864   1.397   5.245   0.410 -0.6552  0.3528 -1.6212
12125TIP3   OH257865   1.511   2.823   1.329 -0.1870 -0.3010 -0.0615
12125TIP3    H157866   1.539   2.911   1.355 -0.3177 -0.6636  1.3811
12125TIP3    H257867   1.539   2.767   1.402 -0.8460 -1.3236 -0.5857
12126TIP3   OH257868   2.399   6.180   3.518  0.1298 -0.2455  0.0398
12126TIP3    H157869   2.340   6.162   3.445 -0.5091  0.6641  0.3157
12126TIP3    H257870   2.476   6.125   3.502  0.2702  0.4291 -1.6690
12127TIP3   OH257871   4.065   4.632   0.322  0.0616  0.4275 -0.0110
12127TIP3    H157872   4.085   4.648   0.229  0.0528 -0.3218 -0.1441
12127TIP3    H257873   3.998   4.564   0.320  0.3332  0.1452  0.5621
12128TIP3   OH257874   0.703   3.724  13.792  0.1217  0.1667  0.0351
12128TIP3    H157875   0.647   3.798  13.769  0.1913  0.6531  1.3554
12128TIP3    H257876   0.644   3.660  13.833  0.4282  0.4518  0.9368
12129TIP3   OH257877   4.947   2.351   1.008  0.2943  0.4550 -0.4324
12129TIP3    H157878   4.959   2.363   0.914 -2.1430 -0.7776 -0.9178
12129TIP3    H257879   4.946   2.440   1.043  0.3972  0.9462 -1.6547
12130TIP3   OH257880   0.043   5.602   1.804  0.2775  0.0576 -0.5323
12130TIP3    H157881   0.137   5.605   1.789  0.6843 -0.4006  1.7095
12130TIP3    H257882   0.007   5.557   1.727  1.8023  0.7876 -1.6901
12131TIP3   OH257883   1.248   3.038  14.013  0.0161  0.1809  0.3863
12131TIP3    H157884   1.227   3.099  14.084 -0.5879  0.4033  0.0236
12131TIP3    H257885   1.238   3.090  13.933  2.0507  0.2993  0.2068
12132TIP3   OH257886   2.782   4.347   4.686  0.2068 -0.4982  0.0207
12132TIP3    H157887   2.841   4.420   4.708 -2.3994  2.5611 -2.5878
12132TIP3    H257888   2.803   4.325   4.595 -0.5711 -1.4641  0.0622
12133TIP3   OH257889   6.554   0.524   1.495 -0.1370  0.6818 -0.2562
12133TIP3    H157890   6.498   0.592   1.534 -0.9651  0.5286 -1.1647
12133TIP3    H257891   6.634   0.571   1.470 -0.7066  1.3320 -0.8750
12134TIP3   OH257892   1.587   6.354   1.228  0.1422 -0.0410 -0.3675
12134TIP3    H157893   1.508   6.319   1.186  0.1679 -1.9477  1.1328
12134TIP3    H257894   1.653   6.353   1.160 -1.6129  3.6799 -2.3324
12135TIP3   OH257895   2.027   5.836  10.804  0.4857  0.5162  0.2347
12135TIP3    H157896   2.052   5.776  10.874  0.4849 -0.4711 -0.5974
12135TIP3    H257897   2.020   5.922  10.846  0.1007 -0.1413  1.5013
12136TIP3   OH257898   4.065   7.190  14.276  0.5163  0.0600 -0.1059
12136TIP3    H157899   4.092   7.190  14.368  2.4030 -0.8903 -0.6394
12136TIP3    H257900   4.128   7.133  14.232 -0.7991 -0.0873 -1.8780
12137TIP3   OH257901   2.290   4.615   2.721  0.1153 -0.0836 -0.5718
12137TIP3    H157902   2.297   4.521   2.741  0.7570  0.1196  0.1891
12137TIP3    H257903   2.324   4.659   2.799  1.5637  0.7420 -1.6353
12138TIP3   OH257904   0.939   5.146   2.160  0.1963  0.4997 -0.3004
12138TIP3    H157905   0.904   5.102   2.238 -0.1616  0.9523 -0.2000
12138TIP3    H257906   0.897   5.232   2.161  3.1809  2.0166  1.1839
12139TIP3   OH257907   2.802   3.514   5.225  0.3565  0.5520  0.2884
12139TIP3    H157908   2.851   3.454   5.168 -0.3758 -0.2146  0.4556
12139TIP3    H257909   2.855   3.594   5.227  1.7308 -0.3665  0.6894
12140TIP3   OH257910   5.338   0.711   2.979  0.2940 -0.1641  0.4630
12140TIP3    H157911   5.316   0.634   3.032 -3.0795  0.3119 -0.1743
12140TIP3    H257912   5.288   0.700   2.899  1.1999  1.8359 -0.4054
12141TIP3   OH257913   6.513   4.294   2.612  0.2329 -0.1852  0.3942
12141TIP3    H157914   6.511   4.263   2.522  1.2435  0.2715  0.2115
12141TIP3    H257915   6.456   4.233   2.660  0.7613 -1.2234 -0.2931
12142TIP3   OH257916   1.563   5.132  12.350 -0.2220 -0.0234 -0.0482
12142TIP3    H157917   1.524   5.211  12.387  0.0724 -0.2946  0.8576
12142TIP3    H257918   1.501   5.104  12.283 -0.6955  0.5590  0.1407
12143TIP3   OH257919   1.037   5.958  15.222  0.7073  0.8881  0.4588
12143TIP3    H157920   1.074   5.931  15.138 -0.3163  1.1825 -0.0928
12143TIP3    H257921   1.024   6.053  15.212  0.0186  0.8188  0.7350
12144TIP3   OH257922   5.744   3.036   2.070  0.8277  0.0679  0.3545
12144TIP3    H157923   5.790   3.066   2.148  1.1581 -0.3459  0.3188
12144TIP3    H257924   5.748   3.110   2.010  1.4215  0.0460  0.3637
12145TIP3   OH257925   4.698   2.622  12.091  0.0809 -0.1021 -0.1920
12145TIP3    H157926   4.740   2.621  12.176 -0.1746  1.8615 -0.0123
12145TIP3    H257927   4.733   2.700  12.048  0.1506 -1.0294 -1.8465
12146TIP3   OH257928   4.074   6.488   2.799 -0.6943 -0.0900 -0.2038
12146TIP3    H157929   4.039   6.476   2.711 -0.5475  0.5869 -0.3600
12146TIP3    H257930   4.140   6.420   2.809  0.6636  1.0176 -1.3392
12147TIP3   OH257931   1.790   2.494   2.028  0.4720  0.7743  0.4671
12147TIP3    H157932   1.758   2.534   1.947  1.3851  1.9773  0.6890
12147TIP3    H257933   1.714   2.492   2.086  0.0268  0.7067 -0.1201
12148TIP3   OH257934   6.670   0.939  10.849  0.1929 -0.6546  0.7140
12148TIP3    H157935   6.703   0.899  10.930 -0.4007 -0.5412  1.0066
12148TIP3    H257936   6.592   0.987  10.875  0.4262  0.0129  0.2042
12149TIP3   OH257937   6.004   2.974  15.396  0.2274 -0.1787  0.0604
12149TIP3    H157938   6.035   3.059  15.364  3.2054 -0.5691  1.6434
12149TIP3    H257939   6.033   2.911  15.330  2.1508 -0.4348  1.0916
12150TIP3   OH257940   5.626   2.632  14.436  0.0380 -0.1237  0.7906
12150TIP3    H157941   5.714   2.613  14.469  0.6838 -0.1421 -0.9104
12150TIP3    H257942   5.639   2.701  14.371 -0.9559 -1.4574 -0.8533
12151TIP3   OH257943   5.000   5.697  12.363 -0.3902 -0.0875  0.3494
12151TIP3    H157944   5.004   5.689  12.458 -0.7975  0.4776  0.4173
12151TIP3    H257945   4.909   5.720  12.344 -0.3161 -0.2078 -0.1804
12152TIP3   OH257946   1.770   2.014   4.929 -0.1066  0.0567 -0.3526
12152TIP3    H157947   1.856   2.048   4.954 -0.3910  0.3700  0.1974
12152TIP3    H257948   1.711   2.041   5.000 -0.7328  0.1733 -0.9078
12153TIP3   OH257949   5.891   0.773  14.610  0.4182 -0.3731 -0.5508
12153TIP3    H157950   5.962   0.810  14.557  0.6634  0.4778  0.3538
12153TIP3    H257951   5.894   0.823  14.692 -0.7562 -0.8304 -0.2243
12154TIP3   OH257952   0.720   4.604  14.651  0.3387 -0.2299 -0.0528
12154TIP3    H157953   0.658   4.636  14.585  0.2000 -0.6957 -0.1588
12154TIP3    H257954   0.759   4.682  14.689  0.1880  0.0499 -0.4718
12155TIP3   OH257955   0.514   2.062  14.121  0.0276  0.0879  0.1061
12155TIP3    H157956   0.461   1.983  14.110  0.7748 -0.4879  0.6502
12155TIP3    H257957   0.599   2.031  14.152  0.8391  0.9694 -1.1670
12156TIP3   OH257958   6.049   4.873   5.002  0.9551 -0.0881  0.0336
12156TIP3    H157959   6.083   4.942   4.945  1.6684 -1.1635 -0.8499
12156TIP3    H257960   6.120   4.857   5.064  1.0841 -0.5656 -0.2386
12157TIP3   OH257961   1.446   2.450   4.488  0.0505 -0.1830 -0.2320
12157TIP3    H157962   1.435   2.359   4.516  0.2492 -0.1024  0.1012
12157TIP3    H257963   1.541   2.464   4.488  0.0410 -0.1118 -0.7147
12158TIP3   OH257964   4.007   3.273   2.266 -0.1457 -0.6066  0.1046
12158TIP3    H157965   3.922   3.238   2.243 -0.0054 -1.1905  0.4769
12158TIP3    H257966   3.993   3.323   2.347 -0.2165 -0.3437 -0.0689
12159TIP3   OH257967   5.904   2.361   3.956 -0.6899 -0.2108 -0.6787
12159TIP3    H157968   5.835   2.312   3.912 -1.5171 -0.2770  0.6710
12159TIP3    H257969   5.904   2.446   3.911 -1.6838 -0.1905 -0.6612
12160TIP3   OH257970   2.411   3.647   0.038 -0.3331  0.4899 -0.4213
12160TIP3    H157971   2.409   3.578   0.105 -0.8040 -0.3063 -1.2359
12160TIP3    H257972   2.499   3.684   0.044  0.1037 -0.5440 -0.3247
12161TIP3   OH257973   0.084   6.330   0.423  0.2127 -0.4141  0.7945
12161TIP3    H157974   0.058   6.265   0.489  0.3794 -0.7929  0.4864
12161TIP3    H257975   0.001   6.364   0.390  0.1208 -0.6632  0.7650
12162TIP3   OH257976   4.592   0.957   3.786  0.3954  0.4166 -0.0345
12162TIP3    H157977   4.571   0.968   3.879  0.9684  0.3486  0.1023
12162TIP3    H257978   4.517   0.910   3.750 -0.2038  1.1717  0.2269
12163TIP3   OH257979   0.981   1.479   3.524 -0.3701  0.0192 -0.0797
12163TIP3    H157980   1.015   1.561   3.488  0.3579 -0.3875 -0.3416
12163TIP3    H257981   1.020   1.411   3.469 -1.2015 -0.4906 -0.0509
12164TIP3   OH257982   7.055   1.025   1.498 -0.3508 -0.7479  0.0601
12164TIP3    H157983   7.143   0.995   1.475  0.5488  2.0513 -0.3831
12164TIP3    H257984   7.012   1.040   1.414  0.0917  1.5135  0.1956
12165TIP3   OH257985   3.089   3.849   0.843  0.0078 -1.1136  0.7709
12165TIP3    H157986   3.152   3.799   0.895  0.8343 -0.2181  0.6464
12165TIP3    H257987   3.032   3.783   0.804  1.4555 -1.9992  0.1158
12166TIP3   OH257988   4.732   4.709   4.767  0.1633 -0.0480  1.0232
12166TIP3    H157989   4.649   4.669   4.740  0.5565  0.7612 -1.4446
12166TIP3    H257990   4.718   4.803   4.758  1.7047  0.0517 -0.5010
12167TIP3   OH257991   4.708   3.542   1.153 -0.5367 -0.0612 -0.3259
12167TIP3    H157992   4.710   3.448   1.133 -0.9599  0.1822 -1.5183
12167TIP3    H257993   4.622   3.557   1.191 -0.6691 -0.0589 -0.6264
12168TIP3   OH257994   1.967   3.732   0.393 -0.5007 -0.0371  0.3973
12168TIP3    H157995   2.025   3.708   0.464 -0.4333 -0.2577  0.2675
12168TIP3    H257996   1.938   3.648   0.356 -0.8483  0.0698  0.4205
12169TIP3   OH257997   4.078   5.008  12.994  0.1648 -0.4751  0.0462
12169TIP3    H157998   4.052   5.067  13.064  2.4741 -1.4721  1.8076
12169TIP3    H257999   4.022   4.931  13.004  0.2636 -0.4745  0.6116
12170TIP3   OH258000   1.976   1.521  15.149  0.1908  0.2865  0.7535
12170TIP3    H158001   1.967   1.436  15.105 -0.8815  0.3280  0.8629
12170TIP3    H258002   1.887   1.558  15.146  1.0174  2.2395 -0.9895
12171TIP3   OH258003   2.414   4.816   0.546  0.0745  0.4456  0.1164
12171TIP3    H158004   2.387   4.778   0.629 -1.0045 -1.1272 -0.9002
12171TIP3    H258005   2.510   4.814   0.548  0.0443 -0.1631  1.0665
12172TIP3   OH258006   4.250   6.716   1.087 -0.5841  0.3227  0.4546
12172TIP3    H158007   4.305   6.751   1.156  0.3382  0.0224 -0.1147
12172TIP3    H258008   4.270   6.622   1.085 -4.3165 -0.6556  3.1653
12173TIP3   OH258009   2.786   6.687   1.676 -0.3753  0.2844 -0.2409
12173TIP3    H158010   2.846   6.675   1.750  0.3235 -0.9726 -0.9869
12173TIP3    H258011   2.808   6.774   1.642  0.0933  0.3945  0.3292
12174TIP3   OH258012   0.376   0.666   2.798 -0.4038  0.4444  0.9013
12174TIP3    H158013   0.329   0.643   2.718  1.4589  0.0681 -0.1021
12174TIP3    H258014   0.309   0.664   2.867 -1.8979  0.2103 -0.5438
12175TIP3   OH258015   2.782   4.705  15.156  0.1758  0.3304  0.6359
12175TIP3    H158016   2.775   4.616  15.189 -2.2779 -0.2516 -1.2966
12175TIP3    H258017   2.728   4.758  15.215  1.0287  0.4141  1.3437
12176TIP3   OH258018   0.242   1.125  15.284 -0.3322  0.2489  0.1696
12176TIP3    H158019   0.239   1.168  15.199 -0.4095  0.7958  0.4472
12176TIP3    H258020   0.225   1.033  15.265  0.4128  0.2411 -0.4969
12177TIP3   OH258021   1.946   6.088   3.048  0.1092  0.6004  0.5056
12177TIP3    H158022   1.895   6.066   2.970 -1.9210  1.4492  1.5514
12177TIP3    H258023   2.026   6.036   3.040 -0.9591 -0.8468 -1.1319
12178TIP3   OH258024   6.943   5.629  10.756 -0.0658  0.2747  0.2070
12178TIP3    H158025   7.004   5.581  10.700 -0.8981  0.3802 -0.8030
12178TIP3    H258026   6.873   5.658  10.697 -1.6316 -0.7284  1.5243
12179TIP3   OH258027   0.303   2.525   2.378  0.0146 -0.2888  0.1334
12179TIP3    H158028   0.343   2.532   2.291 -0.6412 -2.1171 -0.3509
12179TIP3    H258029   0.249   2.603   2.386  1.1425  0.5789 -0.5382
12180TIP3   OH258030   2.876   2.180   2.870 -0.0046 -0.6588  0.0402
12180TIP3    H158031   2.902   2.258   2.918  0.8326 -0.7628 -0.2242
12180TIP3    H258032   2.784   2.168   2.890 -0.0727  0.2566  0.2788
12181TIP3   OH258033   0.943   5.779   0.539  0.7265 -0.0116  0.3865
12181TIP3    H158034   0.912   5.736   0.459 -0.7772  2.8827 -0.6620
12181TIP3    H258035   0.866   5.824   0.574  2.5051  3.0549  0.5720
12182TIP3   OH258036   2.962   3.173  14.591 -0.0233 -0.1980 -0.7374
12182TIP3    H158037   3.039   3.118  14.607  1.8480  1.6685 -2.9996
12182TIP3    H258038   2.951   3.223  14.672  1.0527 -0.5892 -0.3406
12183TIP3   OH258039   2.157   4.979   0.262 -0.2101  0.2146  0.0826
12183TIP3    H158040   2.248   4.984   0.231 -0.3415 -0.0874 -0.3650
12183TIP3    H258041   2.162   4.999   0.355  0.4096 -0.5651  0.2179
12184TIP3   OH258042   6.719   5.438   2.822  0.2260 -0.1005 -0.0253
12184TIP3    H158043   6.688   5.528   2.807  2.7173  0.8690  0.3202
12184TIP3    H258044   6.719   5.399   2.735 -1.8300 -0.1170 -0.0442
12185TIP3   OH258045   3.641   2.815  15.488  0.2146  0.2642 -0.4144
12185TIP3    H158046   3.695   2.844  15.414 -0.1823  1.7555 -0.1399
12185TIP3    H258047   3.555   2.853  15.471 -0.1850 -0.3445  0.2372
12186TIP3   OH258048   4.548   1.243  15.437 -0.2298  0.2837  0.0826
12186TIP3    H158049   4.592   1.316  15.480  0.6997 -1.1433  1.5990
12186TIP3    H258050   4.538   1.177  15.505 -0.4731 -1.2770 -1.4162
12187TIP3   OH258051   5.195   4.975  14.536  0.1567  0.1657 -0.2571
12187TIP3    H158052   5.122   4.914  14.529  0.1705  0.1402 -0.1858
12187TIP3    H258053   5.250   4.939  14.606  0.0788  0.3482 -0.1006
12188TIP3   OH258054   3.345   6.736   0.819 -0.4175  0.5954 -0.0163
12188TIP3    H158055   3.377   6.685   0.745 -1.6777  0.6742 -0.6225
12188TIP3    H258056   3.423   6.752   0.872  0.6588  1.3110 -1.7720
12189TIP3   OH258057   6.503   1.976  14.921 -0.0903  0.0535 -0.3216
12189TIP3    H158058   6.529   1.890  14.952 -2.2587 -0.1054  1.1626
12189TIP3    H258059   6.578   2.033  14.940  0.1643 -0.8782  1.5017
12190TIP3   OH258060   6.964   5.462  14.216 -0.3956  0.2864  0.1545
12190TIP3    H158061   7.038   5.402  14.224  0.4515  1.2216 -0.6078
12190TIP3    H258062   6.888   5.405  14.211  0.1920 -0.6729  1.5988
12191TIP3   OH258063   6.074   2.278   0.210 -0.0001 -0.4047 -0.0191
12191TIP3    H158064   6.012   2.251   0.142  0.1227  2.3165 -1.2980
12191TIP3    H258065   6.022   2.332   0.270  0.5541 -0.2582  0.3312
12192TIP3   OH258066   1.614   6.288   0.505  0.1029  0.0631  0.6910
12192TIP3    H158067   1.619   6.361   0.443 -0.1854  0.7402  1.4641
12192TIP3    H258068   1.625   6.210   0.450 -0.5536  0.6358 -0.2740
12193TIP3   OH258069   6.357   3.599   0.573 -0.0316 -0.8009  0.8539
12193TIP3    H158070   6.331   3.627   0.661  1.0374  1.5936  0.4727
12193TIP3    H258071   6.290   3.636   0.515  0.4024 -0.5863  0.4859
12194TIP3   OH258072   6.518   1.461  13.398 -0.4835  0.9454  0.0928
12194TIP3    H158073   6.538   1.452  13.305 -0.4084  2.7105 -0.0766
12194TIP3    H258074   6.432   1.503  13.400 -0.5102  0.8610  0.8227
12195TIP3   OH258075   0.344   4.589   2.066  0.2184  0.0853  0.0456
12195TIP3    H158076   0.314   4.622   2.151 -0.4888 -0.0134 -0.1591
12195TIP3    H258077   0.299   4.505   2.056  3.2720 -1.7539  1.2969
12196TIP3   OH258078   1.222   3.514  14.803  0.4648 -0.3895  0.0607
12196TIP3    H158079   1.129   3.534  14.809  0.4837  0.3713 -1.7624
12196TIP3    H258080   1.258   3.584  14.749  1.9389 -1.1394  0.0491
12197TIP3   OH258081   1.962   7.134   0.742  0.2487  0.1085 -0.0947
12197TIP3    H158082   1.868   7.116   0.749  0.4761 -0.4863  2.1598
12197TIP3    H258083   1.969   7.204   0.678 -1.5370 -1.3562 -1.9571
12198TIP3   OH258084   0.844   1.812   1.648 -0.0730 -0.2811 -0.6953
12198TIP3    H158085   0.922   1.851   1.610  0.0900 -1.2944 -1.4119
12198TIP3    H258086   0.776   1.879   1.638  0.7897  0.7476  0.2897
12199TIP3   OH258087   7.099   2.391   1.693  0.8739 -0.0044 -0.1046
12199TIP3    H158088   7.050   2.348   1.763  1.2133  2.4130  1.6734
12199TIP3    H258089   7.180   2.341   1.686 -0.1628 -1.6960 -0.4259
12200TIP3   OH258090   6.240   3.834   2.510  0.6139  0.6467  0.3278
12200TIP3    H158091   6.174   3.821   2.579  0.1877 -0.6570 -0.2950
12200TIP3    H258092   6.189   3.863   2.434  0.6993 -0.6333 -0.2370
12201TIP3   OH258093   6.283   1.767   0.568 -0.2501  0.2392 -0.3033
12201TIP3    H158094   6.351   1.828   0.540 -1.1890  1.3505 -0.2111
12201TIP3    H258095   6.331   1.689   0.594  0.9182  0.6371 -1.1962
12202TIP3   OH258096   2.115   5.328   2.450 -0.0612 -0.1063 -0.8940
12202TIP3    H158097   2.175   5.274   2.501 -0.6245  0.5437  0.4794
12202TIP3    H258098   2.167   5.357   2.375  0.5620 -1.6400 -1.0788
12203TIP3   OH258099   7.108   4.143   0.415  0.6314  0.4330 -0.2945
12203TIP3    H158100   7.127   4.054   0.383 -0.0293  0.5643 -1.0734
12203TIP3    H258101   7.021   4.162   0.381  0.7658  1.3766 -0.1175
12204TIP3   OH258102   1.595   6.002  12.540  0.1423 -0.3134 -0.3380
12204TIP3    H158103   1.526   5.951  12.583  0.2807  0.9554  1.4205
12204TIP3    H258104   1.665   6.009  12.605  0.7634  0.8128 -1.1034
12205TIP3   OH258105   3.782   6.503   2.725  0.1921 -0.3231  0.3524
12205TIP3    H158106   3.842   6.452   2.778  1.1911 -0.2619 -0.6959
12205TIP3    H258107   3.696   6.489   2.766  0.8866 -0.5248  1.7620
12206TIP3   OH258108   0.603   5.755  12.074 -0.1460 -0.2710  0.2726
12206TIP3    H158109   0.510   5.742  12.092 -0.3119 -0.9243 -1.0526
12206TIP3    H258110   0.605   5.819  12.002  0.4237 -0.5384  0.0499
12207TIP3   OH258111   1.165   5.062  14.689  0.0351  0.5911  0.3887
12207TIP3    H158112   1.236   5.106  14.737  1.0274 -2.7502  2.1152
12207TIP3    H258113   1.087   5.115  14.709  1.3600  2.1912  1.4908
12208TIP3   OH258114   0.560   3.000   3.569 -1.1387  0.3017  0.8327
12208TIP3    H158115   0.519   2.913   3.567  0.3047 -0.3974  1.1822
12208TIP3    H258116   0.568   3.020   3.663  2.0583 -0.9064  0.8833
12209TIP3   OH258117   0.496   2.918  11.314  0.1245 -0.3294 -0.4939
12209TIP3    H158118   0.585   2.924  11.350 -0.1129  0.2202 -0.0087
12209TIP3    H258119   0.505   2.950  11.224 -0.0771  2.2447  0.3686
12210TIP3   OH258120   6.473   0.046  14.782 -0.1675 -0.2232 -0.4777
12210TIP3    H158121   6.481   0.141  14.771 -2.4408 -0.1974 -2.1992
12210TIP3    H258122   6.411   0.035  14.854  1.1936 -0.4222  0.6834
12211TIP3   OH258123   4.362   1.969   0.136 -0.4429 -0.0420  0.0835
12211TIP3    H158124   4.381   2.061   0.151 -1.0824 -0.0897  1.2156
12211TIP3    H258125   4.312   1.942   0.213 -2.1183 -0.7759 -1.2230
12212TIP3   OH258126   3.051   1.470   2.597  0.1542  0.1190 -0.5005
12212TIP3    H158127   2.960   1.469   2.628  0.3108  0.0614 -0.0440
12212TIP3    H258128   3.047   1.427   2.512 -0.2788  0.2816 -0.5679
12213TIP3   OH258129   0.479   3.385  15.153 -0.1338 -0.3700  0.2679
12213TIP3    H158130   0.558   3.366  15.103 -0.0879 -0.0405  0.2105
12213TIP3    H258131   0.506   3.378  15.244  0.2493  0.8446  0.2645
12214TIP3   OH258132   5.364   7.066   2.812 -0.0171  0.3568  0.1902
12214TIP3    H158133   5.291   7.020   2.770 -0.5685  1.0706  0.3514
12214TIP3    H258134   5.441   7.016   2.787 -0.5006 -0.0765 -0.4651
12215TIP3   OH258135   4.645   4.793  13.955 -0.3896  0.2624 -0.0166
12215TIP3    H158136   4.708   4.721  13.951 -0.3396  0.2394  0.9181
12215TIP3    H258137   4.570   4.762  13.905 -0.8334 -0.9396  1.3255
12216TIP3   OH258138   0.693   4.850   3.464  0.2609  0.1291  0.1013
12216TIP3    H158139   0.760   4.831   3.530 -0.0629 -1.5783 -0.0543
12216TIP3    H258140   0.636   4.773   3.465 -0.1629  0.4140 -1.6665
12217TIP3   OH258141   4.042   6.143  15.539 -0.1925 -0.1737  0.5581
12217TIP3    H158142   4.012   6.202  15.470 -0.1758 -0.5817  0.2044
12217TIP3    H258143   4.137   6.148  15.536 -0.2026  0.2646  0.9441
12218TIP3   OH258144   3.545   6.757   0.305  0.2958  0.3745  0.0653
12218TIP3    H158145   3.591   6.840   0.291  0.6601  0.1477 -0.0705
12218TIP3    H258146   3.514   6.762   0.396  0.5038  0.5640  0.1265
12219TIP3   OH258147   0.014   3.402  15.559  0.0565 -0.1674 -0.3649
12219TIP3    H158148   0.023   3.463  15.486 -0.1274 -1.1552 -1.2252
12219TIP3    H258149  -0.033   3.327  15.522 -1.2033 -0.1267  1.0964
12220TIP3   OH258150   0.652   3.666  11.139 -0.4489  0.1267  0.6671
12220TIP3    H158151   0.644   3.750  11.094 -1.6423 -0.2519  0.1502
12220TIP3    H258152   0.637   3.601  11.071  1.7851 -0.5566  0.7895
12221TIP3   OH258153   4.722   6.018   0.018  0.1287  0.5960 -0.0425
12221TIP3    H158154   4.757   5.955  -0.046  1.1200 -0.1341  1.2016
12221TIP3    H258155   4.794   6.033   0.079 -0.8244  1.2476  0.9365
12222TIP3   OH258156   4.811   2.866   3.224  0.2667  0.7195  0.1803
12222TIP3    H158157   4.736   2.811   3.245 -0.2240  0.1078 -2.9333
12222TIP3    H258158   4.848   2.827   3.145  3.0546  1.8332  0.8642
12223TIP3   OH258159   3.454   1.292  11.846 -0.5620  0.0664  0.2100
12223TIP3    H158160   3.505   1.316  11.923 -1.4296  0.3372  0.7032
12223TIP3    H258161   3.375   1.346  11.851 -0.3110  0.6002 -1.2428
12224TIP3   OH258162   6.416   4.198   1.388  0.5948  1.0126  0.6669
12224TIP3    H158163   6.457   4.228   1.307 -0.8350  1.1437 -0.0185
12224TIP3    H258164   6.390   4.279   1.433  1.3876  0.9424  1.2761
12225TIP3   OH258165   0.111   6.457  11.590  0.0049 -0.0637  0.0181
12225TIP3    H158166   0.161   6.395  11.643  0.6145 -0.6038 -1.1788
12225TIP3    H258167   0.115   6.422  11.501 -0.6486  1.0623 -0.4695
12226TIP3   OH258168   1.244   5.313   3.308 -0.2725  0.5704 -0.2752
12226TIP3    H158169   1.304   5.380   3.278 -0.7611  0.7787 -0.7915
12226TIP3    H258170   1.300   5.238   3.330  0.2470  1.0712  0.0979
12227TIP3   OH258171   3.443   7.070   1.006 -0.0784  0.3560 -0.1330
12227TIP3    H158172   3.359   7.053   0.963 -0.0778 -1.3935  0.5187
12227TIP3    H258173   3.423   7.070   1.099  0.6167  0.0979  0.0209
12228TIP3   OH258174   2.650   4.781   0.134  0.0702 -0.0285  0.6178
12228TIP3    H158175   2.569   4.830   0.149 -0.7655 -1.4710  0.9430
12228TIP3    H258176   2.655   4.720   0.208  0.5807 -1.0616 -0.2561
12229TIP3   OH258177   1.710   5.190  15.193  0.3015 -0.2599 -0.3343
12229TIP3    H158178   1.746   5.152  15.273 -0.0232 -0.1507 -0.1348
12229TIP3    H258179   1.689   5.114  15.138  0.3238 -0.3446 -0.2263
12230TIP3   OH258180   0.398   2.512   1.056 -0.3416 -0.0916 -0.0514
12230TIP3    H158181   0.336   2.569   1.010 -0.0084 -0.5180 -1.0630
12230TIP3    H258182   0.367   2.510   1.146  0.6538  3.0519  0.3953
12231TIP3   OH258183   1.946   6.983  15.014 -0.2804  0.2027 -0.1461
12231TIP3    H158184   1.870   6.984  14.957 -0.4970  0.1600  0.1398
12231TIP3    H258185   1.916   7.025  15.095 -0.1877 -0.3772  0.1977
12232TIP3   OH258186   0.986   5.669   0.291  0.0841  0.1956 -0.1496
12232TIP3    H158187   1.028   5.589   0.260  1.0175  1.2288 -1.6416
12232TIP3    H258188   1.049   5.738   0.272 -0.6783  1.2842  1.1820
12233TIP3   OH258189   1.796   3.484   3.887 -0.0815 -0.2120  0.7029
12233TIP3    H158190   1.860   3.428   3.842 -0.7548  0.8215 -1.6247
12233TIP3    H258191   1.830   3.492   3.976  2.6491 -0.2945 -0.2767
12234TIP3   OH258192   2.539   3.839   2.073  0.3449  0.0808 -0.5640
12234TIP3    H158193   2.618   3.824   2.125  0.0259 -0.1166 -0.1356
12234TIP3    H258194   2.515   3.930   2.092  0.0267 -0.1000 -0.0859
12235TIP3   OH258195   4.981   3.738   2.148 -0.2291  0.0778  0.2947
12235TIP3    H158196   4.930   3.810   2.184 -1.3565 -0.3758 -0.3966
12235TIP3    H258197   5.018   3.772   2.067 -0.2136  0.0831  0.3037
12236TIP3   OH258198   5.702   4.990  15.500  0.2636 -0.2209 -0.0189
12236TIP3    H158199   5.681   5.075  15.462 -2.8064 -0.0482  1.9639
12236TIP3    H258200   5.785   5.004  15.547  0.0856  1.4913 -0.1994
12237TIP3   OH258201   5.798   4.724  15.119  0.1877 -0.2601  0.6006
12237TIP3    H158202   5.757   4.785  15.057  0.4721 -2.0460 -1.3901
12237TIP3    H258203   5.724   4.679  15.160  0.0459 -1.8451 -1.3177
12238TIP3   OH258204   2.270   0.067  13.135  0.0399  0.0841  0.4894
12238TIP3    H158205   2.233   0.126  13.201  0.9409  1.1539  0.0511
12238TIP3    H258206   2.196   0.041  13.081  0.0141  2.6662 -0.7484
12239TIP3   OH258207   3.407   5.362  10.632 -0.4281 -0.5715  0.1421
12239TIP3    H158208   3.441   5.273  10.623  0.4866 -0.1785 -0.2998
12239TIP3    H258209   3.315   5.355  10.607  0.4320 -0.7695 -3.2144
12240TIP3   OH258210   0.782   5.490   0.737  0.1316 -0.1719  0.1842
12240TIP3    H158211   0.722   5.559   0.712 -1.0925 -2.0450 -2.3071
12240TIP3    H258212   0.742   5.450   0.815  0.7039  1.6643  1.4596
12241TIP3   OH258213   2.458   4.430   0.642  0.2642 -0.2955 -0.1439
12241TIP3    H158214   2.533   4.382   0.678  0.3909  0.2228  0.2970
12241TIP3    H258215   2.490   4.466   0.559  0.3128 -0.5967 -0.2540
12242TIP3   OH258216   5.595   0.347  14.642  0.1069  0.9188  0.2943
12242TIP3    H158217   5.671   0.387  14.600 -0.4302  1.4238 -0.1877
12242TIP3    H258218   5.626   0.260  14.670  0.7591  0.9948 -0.1949
12243TIP3   OH258219   4.153   0.240  15.326  0.0745  0.3550  0.1166
12243TIP3    H158220   4.177   0.166  15.382  0.5828 -0.8096 -1.6010
12243TIP3    H258221   4.059   0.253  15.342 -0.3341 -1.5799 -0.6021
12244TIP3   OH258222   6.408   2.506   1.435  0.4940  0.2016 -0.3989
12244TIP3    H158223   6.341   2.553   1.484  1.8399 -2.8796  4.8320
12244TIP3    H258224   6.386   2.413   1.447  2.1593 -0.7275 -3.8933
12245TIP3   OH258225   0.437   6.647   2.724 -0.2595  0.1062  0.0293
12245TIP3    H158226   0.516   6.678   2.768 -0.6971  0.0603  0.8643
12245TIP3    H258227   0.438   6.690   2.638  1.1836 -0.6697 -0.3547
12246TIP3   OH258228   5.009   7.190  13.509  0.1563  0.5504  0.6596
12246TIP3    H158229   5.038   7.239  13.586  2.5906 -1.6515  1.2420
12246TIP3    H258230   4.934   7.139  13.540  0.7998  0.0751  1.4619
12247TIP3   OH258231   1.608   2.618  13.891  0.0543  0.6461  0.6000
12247TIP3    H158232   1.563   2.667  13.959 -1.2628  1.8198 -1.0612
12247TIP3    H258233   1.547   2.619  13.817  1.4533 -0.5750 -0.6006
12248TIP3   OH258234   4.814   0.254  13.119  0.4120  0.2464 -0.5382
12248TIP3    H158235   4.894   0.257  13.172 -1.0640 -0.9580  1.8478
12248TIP3    H258236   4.784   0.164  13.127 -1.6299  0.8916 -0.7105
12249TIP3   OH258237   5.059   5.238   0.516 -0.2248 -0.2071  0.2678
12249TIP3    H158238   4.982   5.207   0.565  0.5968  0.7288  2.2360
12249TIP3    H258239   5.057   5.333   0.527  0.8879 -0.1265 -0.1743
12250TIP3   OH258240   5.772   1.879  12.509 -0.2301 -0.1997  0.4406
12250TIP3    H158241   5.811   1.824  12.578 -0.1766 -0.8727 -0.1153
12250TIP3    H258242   5.787   1.830  12.428  2.0176  1.7945 -0.4016
12251TIP3   OH258243   0.160   4.100   1.862 -0.5892  0.6814 -0.3746
12251TIP3    H158244   0.089   4.121   1.800 -1.8458  0.4428  0.9568
12251TIP3    H258245   0.130   4.020   1.905 -0.6254  1.9003  1.9101
12252TIP3   OH258246   6.709   3.742   3.564  0.3819  0.2270  0.4122
12252TIP3    H158247   6.615   3.733   3.548  0.6796 -2.4451 -0.0770
12252TIP3    H258248   6.715   3.770   3.655 -0.9355  3.3493 -0.3762
12253TIP3   OH258249   0.812   5.584  13.886  0.5266 -0.1250 -0.1463
12253TIP3    H158250   0.838   5.547  13.801  0.9630 -1.3968  0.5287
12253TIP3    H258251   0.717   5.593  13.880  0.6664  0.8116 -1.1678
12254TIP3   OH258252   1.605   6.784   2.300  0.5098  0.0922 -0.7852
12254TIP3    H158253   1.511   6.796   2.290  0.2578 -1.3168 -0.2069
12254TIP3    H258254   1.619   6.777   2.394  1.1313 -0.2094 -0.8939
12255TIP3   OH258255   6.687   2.931  13.646  0.4022 -0.5147  0.6506
12255TIP3    H158256   6.724   2.966  13.564  2.8515 -0.5435  1.7056
12255TIP3    H258257   6.657   2.843  13.623  0.5505 -0.3088 -0.3576
12256TIP3   OH258258   1.349   1.361  14.899 -0.4962 -0.4232 -1.2242
12256TIP3    H158259   1.390   1.299  14.959 -2.3380 -0.3279  0.2050
12256TIP3    H258260   1.422   1.408  14.858  0.8176 -0.0051  1.4783
12257TIP3   OH258261   4.635   5.059  11.574  0.2263  0.1788 -0.3049
12257TIP3    H158262   4.624   4.972  11.612  1.7049  0.8856  1.8559
12257TIP3    H258263   4.546   5.091  11.559 -0.3863 -0.4717  1.8168
12258TIP3   OH258264   2.604   4.281  14.771 -0.0588  0.6590  0.4252
12258TIP3    H158265   2.636   4.190  14.768  0.1811  0.7498  0.0977
12258TIP3    H258266   2.577   4.299  14.681  0.3264  1.0626  0.3882
12259TIP3   OH258267   2.118   4.269  15.556 -0.0874  0.2392  0.0070
12259TIP3    H158268   2.065   4.197  15.522  0.7220 -0.0320 -0.7111
12259TIP3    H258269   2.207   4.248  15.528  0.1676  1.4816 -0.1462
12260TIP3   OH258270   6.140   1.495   0.454  0.1904  0.6055 -0.2893
12260TIP3    H158271   6.083   1.486   0.377  0.7275 -0.4389 -0.5703
12260TIP3    H258272   6.218   1.445   0.432  1.5436  2.6016 -0.1968
12261TIP3   OH258273   1.942   6.260   1.918 -0.3453 -1.3424 -0.2368
12261TIP3    H158274   1.883   6.224   1.853 -1.1573  0.2152 -0.3720
12261TIP3    H258275   1.891   6.327   1.964  0.6126 -1.5023  1.1235
12262TIP3   OH258276   2.709   4.897  13.938 -0.1378 -0.4273  0.2644
12262TIP3    H158277   2.680   4.986  13.959  2.9330  0.6370  0.2514
12262TIP3    H258278   2.715   4.853  14.023 -0.0627 -0.0989  0.4302
12263TIP3   OH258279   1.355   5.890  14.071 -0.1247 -0.0838 -0.1728
12263TIP3    H158280   1.448   5.896  14.050 -0.0847  0.1057  0.0573
12263TIP3    H258281   1.352   5.879  14.166 -0.3867  1.7891  0.0599
12264TIP3   OH258282   4.403   3.789  12.188  0.1650 -1.0613  0.2357
12264TIP3    H158283   4.333   3.854  12.199  0.5619 -0.5581 -0.1850
12264TIP3    H258284   4.466   3.832  12.131  0.8474 -1.4901  0.6663
12265TIP3   OH258285   1.598   1.469   3.281  0.1763 -0.3319  0.5950
12265TIP3    H158286   1.519   1.454   3.333 -0.1849  0.4746  0.2826
12265TIP3    H258287   1.579   1.427   3.197 -0.3276  0.7586  0.1638
12266TIP3   OH258288   2.735   0.767   0.693  0.5957  0.2810 -0.0657
12266TIP3    H158289   2.660   0.762   0.634 -0.4657  0.2401  1.2757
12266TIP3    H258290   2.805   0.803   0.638 -0.3255  0.1193 -1.3894
12267TIP3   OH258291   1.686   6.949  14.910  0.0769 -0.3101  0.6419
12267TIP3    H158292   1.621   7.019  14.921  0.0530 -0.5204  1.9699
12267TIP3    H258293   1.670   6.891  14.984 -0.9185 -2.5556 -1.2660
12268TIP3   OH258294   0.188   3.474  14.342  0.1179 -0.1155  0.4853
12268TIP3    H158295   0.174   3.380  14.348 -0.2543 -0.0171  1.2736
12268TIP3    H258296   0.279   3.487  14.366  0.5446 -0.4060 -0.9729
12269TIP3   OH258297   0.373   5.749   2.481  0.8141  0.4955  0.4218
12269TIP3    H158298   0.405   5.836   2.506 -0.8755  2.5246 -3.9305
12269TIP3    H258299   0.282   5.747   2.508  0.8937 -0.0205  0.6709
12270TIP3   OH258300   1.707   1.051   1.114  0.7960  0.3183  0.3605
12270TIP3    H158301   1.626   1.100   1.102  1.2501  0.9467 -0.1742
12270TIP3    H258302   1.726   1.060   1.208  0.9612  1.3089  0.2382
12271TIP3   OH258303   2.385   1.919   1.679  0.1102 -0.0801 -0.0518
12271TIP3    H158304   2.446   1.966   1.736  1.1498 -0.4182 -0.8511
12271TIP3    H258305   2.370   1.836   1.723  0.0053  0.1247  0.2957
12272TIP3   OH258306   1.786   3.044   1.619 -0.3969 -0.1839 -0.2356
12272TIP3    H158307   1.753   3.007   1.701 -1.0854 -0.4447 -0.6298
12272TIP3    H258308   1.828   2.971   1.575 -0.1091 -0.0640 -0.1616
12273TIP3   OH258309   3.483   5.461   0.390  0.1530 -0.1781 -0.1611
12273TIP3    H158310   3.505   5.419   0.473  0.1901 -1.7120 -0.9278
12273TIP3    H258311   3.393   5.492   0.402  0.6782  0.9440  0.9611
12274TIP3   OH258312   3.116   1.814   1.064  0.4460  0.0367  0.0341
12274TIP3    H158313   3.082   1.738   1.018  0.2655 -0.4130  0.8997
12274TIP3    H258314   3.211   1.801   1.066  0.4501  0.0352 -0.1628
12275TIP3   OH258315   1.204   2.816  13.245 -0.1151 -0.0658 -0.4829
12275TIP3    H158316   1.283   2.867  13.261 -0.8897  1.9869 -2.7985
12275TIP3    H258317   1.135   2.861  13.294  0.1060 -1.8942  1.5970
12276TIP3   OH258318   4.299   5.827   4.093 -0.9390  0.1822  0.3790
12276TIP3    H158319   4.346   5.751   4.127 -1.6821  0.7612  2.7873
12276TIP3    H258320   4.219   5.791   4.056 -1.5878 -0.1712  2.0865
12277TIP3   OH258321   0.601   7.163  14.579 -0.1609  0.1111  0.0992
12277TIP3    H158322   0.517   7.130  14.612 -0.9963  1.3072 -0.7858
12277TIP3    H258323   0.615   7.245  14.625  0.3682  0.0724  0.0134
12278TIP3   OH258324   2.159   4.291  14.611  0.1391 -0.0648  0.3024
12278TIP3    H158325   2.253   4.302  14.598 -0.5291  2.5433 -3.0632
12278TIP3    H258326   2.135   4.217  14.556 -0.1078  0.8352 -0.8397
12279TIP3   OH258327   4.909   6.104  15.428  0.2906 -0.0897 -0.5974
12279TIP3    H158328   4.931   6.164  15.500 -1.6335 -2.1249  1.7486
12279TIP3    H258329   4.965   6.028  15.442 -1.9781 -1.6249  0.3583
12280TIP3   OH258330   7.050   6.236   1.881 -0.1918  0.6506  0.4623
12280TIP3    H158331   7.009   6.184   1.812  0.7369  0.6568 -0.1021
12280TIP3    H258332   7.137   6.256   1.847  0.3365  0.5084  1.6995
12281TIP3   OH258333   1.506   4.765   2.266 -0.2654  0.0673 -0.1818
12281TIP3    H158334   1.549   4.716   2.336  0.6343  1.8178  0.5026
12281TIP3    H258335   1.485   4.698   2.200  0.3494 -1.3396  1.0218
12282TIP3   OH258336   4.049   5.284   0.397  0.1418 -0.0976  0.3268
12282TIP3    H158337   4.016   5.194   0.392  0.4943 -0.1546 -1.1345
12282TIP3    H258338   3.998   5.324   0.468 -0.7882 -1.1240  0.2506
12283TIP3   OH258339   3.088   4.594   2.621  0.0469  0.3876 -0.2185
12283TIP3    H158340   3.086   4.678   2.575  0.9366 -0.0914 -1.1510
12283TIP3    H258341   3.181   4.573   2.628 -0.2100 -1.2575 -1.3798
12284TIP3   OH258342   0.386   4.498  15.223  0.4342 -0.0561 -0.5822
12284TIP3    H158343   0.403   4.588  15.249  1.8299 -0.6553  0.6543
12284TIP3    H258344   0.319   4.504  15.155 -2.7546  1.6209  2.5764
12285TIP3   OH258345   0.561   5.884   1.282  0.1888  0.4025  0.7035
12285TIP3    H158346   0.506   5.821   1.237  0.2931  1.2249 -0.5908
12285TIP3    H258347   0.645   5.881   1.236  0.7823  0.1763  1.7782
12286TIP3   OH258348   4.866   6.148   0.880 -0.0766  1.0794  0.0072
12286TIP3    H158349   4.866   6.116   0.790 -0.4398 -1.0181  0.7211
12286TIP3    H258350   4.945   6.112   0.919 -0.9417  0.2804  1.0778
12287TIP3   OH258351   1.609   3.731   0.200 -0.4004  0.3216  0.1994
12287TIP3    H158352   1.607   3.725   0.295  0.8105 -1.3227  0.1352
12287TIP3    H258353   1.520   3.713   0.172 -0.4910 -0.3778  0.9545
12288TIP3   OH258354   4.438   3.432  13.100  0.1812  0.0028 -0.2564
12288TIP3    H158355   4.389   3.404  13.022  1.3365  1.0305 -1.3906
12288TIP3    H258356   4.529   3.415  13.077  0.5912  1.1023  0.5414
12289TIP3   OH258357   0.661   7.182   0.135 -0.0193 -0.0911 -0.5694
12289TIP3    H158358   0.738   7.221   0.094 -0.6842  0.1676 -1.5925
12289TIP3    H258359   0.589   7.202   0.075 -0.4594 -2.4730 -0.8938
12290TIP3   OH258360   4.419   4.039  14.813  0.0586 -0.2946 -0.6454
12290TIP3    H158361   4.515   4.036  14.813  0.1091  0.7173  1.4253
12290TIP3    H258362   4.393   3.956  14.774  1.7858 -1.0711 -0.1977
12291TIP3   OH258363   4.245   5.802  14.071 -0.0781 -0.0668  0.2336
12291TIP3    H158364   4.294   5.750  14.007  0.5704 -1.5150  1.8637
12291TIP3    H258365   4.178   5.743  14.105  1.4265 -0.2810  2.9778
12292TIP3   OH258366   5.194   2.819   3.860 -0.0317  0.3928 -0.2758
12292TIP3    H158367   5.230   2.836   3.773 -1.0561  0.4196 -0.6975
12292TIP3    H258368   5.154   2.902   3.886  0.2375  0.3729  0.2035
12293TIP3   OH258369   2.801   5.013  10.604  0.0868  0.2805  0.1364
12293TIP3    H158370   2.745   5.031  10.679 -0.0683 -1.3258  0.4199
12293TIP3    H258371   2.763   4.935  10.563  0.2093  1.0956 -1.5774
12294TIP3   OH258372   4.154   6.201   1.575 -0.4547  0.5683  0.1296
12294TIP3    H158373   4.141   6.131   1.511 -0.8273  0.8023 -0.0474
12294TIP3    H258374   4.234   6.176   1.621 -0.0369  0.5364 -0.6013
12295TIP3   OH258375   5.639   4.875  14.112  0.0141 -0.6420 -0.0817
12295TIP3    H158376   5.656   4.783  14.092  0.1478 -0.4474 -0.8814
12295TIP3    H258377   5.727   4.913  14.122 -0.0154 -0.3701 -0.8301
12296TIP3   OH258378   5.129   6.121   2.432 -0.0898 -0.2153 -0.0734
12296TIP3    H158379   5.107   6.033   2.403 -1.6957  0.1920 -0.1481
12296TIP3    H258380   5.219   6.135   2.402 -1.1777 -0.3534 -3.5597
12297TIP3   OH258381   7.105   6.470  13.115 -0.8438 -0.5057  0.5391
12297TIP3    H158382   7.098   6.419  13.196 -1.7141  0.5916  1.1778
12297TIP3    H258383   7.095   6.405  13.045  2.3845 -1.8518  1.2283
12298TIP3   OH258384   0.764   1.784  14.042  0.1175 -0.3933  0.0212
12298TIP3    H158385   0.713   1.703  14.036 -1.9927  0.8914  0.3292
12298TIP3    H258386   0.798   1.797  13.954 -1.2872 -0.5052 -0.5510
12299TIP3   OH258387   5.338   3.784   2.831  0.6046  0.0651 -0.5393
12299TIP3    H158388   5.256   3.757   2.790 -0.5118 -0.9388  2.2280
12299TIP3    H258389   5.321   3.875   2.859  0.2100 -0.3225  0.5160
12300TIP3   OH258390   6.361   7.012  14.689  0.9982 -0.4968  0.3615
12300TIP3    H158391   6.425   6.960  14.640  0.9533 -0.3605  0.1599
12300TIP3    H258392   6.410   7.085  14.725  0.3445  1.4122 -2.5058
12301TIP3   OH258393   1.398   4.976  13.665 -0.2372 -0.1031 -0.0943
12301TIP3    H158394   1.350   4.910  13.615 -1.1722  0.9244 -0.5745
12301TIP3    H258395   1.417   5.045  13.601  1.9430 -0.5168  0.0713
12302TIP3   OH258396   4.160   5.467   0.631 -0.3947 -0.4104 -0.1248
12302TIP3    H158397   4.103   5.517   0.689 -0.4296 -0.5184 -0.0650
12302TIP3    H258398   4.131   5.490   0.543 -0.6590 -0.6099 -0.0920
12303TIP3   OH258399   6.574   3.823  14.419 -0.4836  0.1287  0.5061
12303TIP3    H158400   6.606   3.792  14.334 -0.0232 -0.9967  1.0812
12303TIP3    H258401   6.512   3.892  14.397 -1.1689 -0.8759 -0.7935
12304TIP3   OH258402   1.581   3.847   1.984  0.2445  0.3141  0.1763
12304TIP3    H158403   1.504   3.890   2.021 -0.5295  1.0686 -2.2206
12304TIP3    H258404   1.547   3.796   1.911  2.0368  0.8099 -1.0228
12305TIP3   OH258405   7.074   6.069  14.607  0.1565 -0.5169 -0.1815
12305TIP3    H158406   7.103   6.034  14.523  1.5630 -0.7247  0.3706
12305TIP3    H258407   7.115   6.012  14.672  0.4408  0.6535  0.6858
12306TIP3   OH258408   1.146   4.670   1.215  0.0111 -0.3694  0.2278
12306TIP3    H158409   1.108   4.745   1.261 -0.0758 -0.8790  1.0087
12306TIP3    H258410   1.237   4.695   1.198 -0.2550  0.2502 -0.2797
12307TIP3   OH258411   5.567   2.871   3.952 -0.1436  0.7082  0.2370
12307TIP3    H158412   5.542   2.953   3.993 -0.3754  0.4743  0.5628
12307TIP3    H258413   5.541   2.804   4.014  0.2071  0.3970  0.0496
12308TIP3   OH258414   0.625   3.350   2.617  0.1241 -0.0246  0.4691
12308TIP3    H158415   0.553   3.401   2.582 -0.3319 -0.9491  0.0256
12308TIP3    H258416   0.611   3.350   2.712 -0.8073 -0.6815  0.3463
12309TIP3   OH258417   2.320   4.674  12.889  0.2272  0.3115 -0.7248
12309TIP3    H158418   2.236   4.695  12.929  0.3726 -0.2037 -0.1370
12309TIP3    H258419   2.376   4.647  12.962  0.5465 -0.4818 -1.2488
12310TIP3   OH258420   6.678   2.612  12.753 -0.1827 -0.0866 -0.1808
12310TIP3    H158421   6.700   2.547  12.686 -2.0935 -0.7064 -0.2104
12310TIP3    H258422   6.756   2.614  12.809  0.8736 -0.5984 -1.5843
12311TIP3   OH258423   4.793   3.454   3.335  0.9221 -0.0019 -0.8010
12311TIP3    H158424   4.848   3.499   3.399  0.8604  1.0206 -1.4431
12311TIP3    H258425   4.764   3.524   3.276 -1.5718 -0.4176 -0.1156
12312TIP3   OH258426   4.874   5.515  14.797  0.4126 -0.6207 -0.0075
12312TIP3    H158427   4.802   5.471  14.751  0.8275 -0.6929 -0.5755
12312TIP3    H258428   4.854   5.501  14.890  0.1396 -1.3685 -0.1780
12313TIP3   OH258429   2.319   4.550  15.259 -0.2029 -0.0457  0.0268
12313TIP3    H158430   2.268   4.470  15.259  0.8006 -0.7047 -1.8830
12313TIP3    H258431   2.305   4.588  15.173  0.0002  1.4052  0.6200
12314TIP3   OH258432   0.918   1.283   2.402  0.2887  0.2651  0.3254
12314TIP3    H158433   0.946   1.373   2.386  1.0804  0.0300  0.3605
12314TIP3    H258434   0.924   1.273   2.497 -1.7627  0.8033  0.5348
12315TIP3   OH258435   5.866   1.917  15.513 -0.5216  0.3180 -0.0306
12315TIP3    H158436   5.810   1.937  15.438 -0.0523 -0.1238 -0.5010
12315TIP3    H258437   5.954   1.942  15.484 -0.0483 -1.6745 -0.3372
12316TIP3   OH258438   4.674   4.479  13.526 -0.3153 -0.3732 -0.1176
12316TIP3    H158439   4.617   4.404  13.510 -0.1697 -0.8033  1.3107
12316TIP3    H258440   4.761   4.441  13.539 -0.3289 -0.0100  1.0805
12317TIP3   OH258441   2.428   1.847   1.407  0.9033 -0.2739  0.5141
12317TIP3    H158442   2.368   1.870   1.478  0.5299  2.0209 -0.4835
12317TIP3    H258443   2.511   1.829   1.451 -0.0600 -1.8939  1.7662
12318TIP3   OH258444   2.127   4.955   3.744  0.3693  0.1126  0.4286
12318TIP3    H158445   2.073   5.009   3.803  1.5648 -0.8984  2.5045
12318TIP3    H258446   2.174   5.019   3.691 -0.3439  1.0656  0.9045
12319TIP3   OH258447   2.862   4.418   0.833 -0.2362  0.5581 -0.4222
12319TIP3    H158448   2.931   4.482   0.819 -0.7298  1.1203 -0.2987
12319TIP3    H258449   2.784   4.470   0.854 -0.5385 -0.0976  0.0951
12320TIP3   OH258450   3.515   5.818   2.614  0.2724  0.1164 -0.4668
12320TIP3    H158451   3.426   5.852   2.612  1.3034  3.0405  0.3201
12320TIP3    H258452   3.515   5.753   2.684 -0.7267  1.6354  0.9644
12321TIP3   OH258453   0.742   5.452   0.307 -0.1883  0.5493  0.0411
12321TIP3    H158454   0.801   5.470   0.234 -0.9565  1.0658 -0.4600
12321TIP3    H258455   0.654   5.468   0.272 -0.5853  0.4936  0.9867
12322TIP3   OH258456   5.412   6.901  13.933  0.6267  0.1573 -0.0075
12322TIP3    H158457   5.428   6.933  13.844  2.1460 -0.9909 -0.1735
12322TIP3    H258458   5.322   6.927  13.952  0.7862  1.7485 -1.2994
12323TIP3   OH258459   4.667   5.320  14.754  0.5181  0.5416  1.1452
12323TIP3    H158460   4.722   5.260  14.804  1.2850  1.0600  0.9351
12323TIP3    H258461   4.600   5.350  14.816  0.6106  0.0829  1.4624
12324TIP3   OH258462   6.633   5.306  13.006  0.1812 -0.3520  0.2427
12324TIP3    H158463   6.562   5.274  13.061  0.1590 -0.4770  0.1407
12324TIP3    H258464   6.664   5.385  13.051  0.7902 -0.9714  0.9495
12325TIP3   OH258465   2.610   1.452  10.295  0.0095 -0.1394 -0.1186
12325TIP3    H158466   2.703   1.445  10.273 -0.7527  1.8075 -4.3002
12325TIP3    H258467   2.606   1.519  10.363  1.8437 -2.0155  1.9263
12326TIP3   OH258468   4.642   0.385   3.308 -0.0303 -0.5352 -0.0126
12326TIP3    H158469   4.658   0.454   3.243 -0.1585 -0.5592 -0.0690
12326TIP3    H258470   4.569   0.418   3.360  0.1750 -0.4458  0.2186
12327TIP3   OH258471   0.342   5.605   0.539  0.0549 -0.5947  0.1048
12327TIP3    H158472   0.272   5.615   0.603  0.5252  0.1514  0.5165
12327TIP3    H258473   0.297   5.610   0.454 -0.4757 -0.8568  0.3639
12328TIP3   OH258474   7.166   2.903  13.914 -0.0583  0.2155  0.6586
12328TIP3    H158475   7.243   2.900  13.971  0.1378 -0.1113  0.3719
12328TIP3    H258476   7.115   2.826  13.938 -1.5161  1.7024  2.5716
12329TIP3   OH258477   1.645   5.685   0.113 -0.0527  0.4350 -0.0496
12329TIP3    H158478   1.594   5.703   0.193 -1.8184 -0.4197 -0.9704
12329TIP3    H258479   1.724   5.641   0.145  0.8423  3.0287  1.5339
12330TIP3   OH258480   3.016   1.746  13.739  0.6601 -0.1283  0.0841
12330TIP3    H158481   3.098   1.754  13.689  1.6583  0.3997  1.7572
12330TIP3    H258482   3.043   1.755  13.831 -1.1898 -0.6747  0.7060
12331TIP3   OH258483   3.538   5.480  14.205 -0.0154 -0.5765 -0.2816
12331TIP3    H158484   3.495   5.517  14.283  0.8527  0.7681 -0.4287
12331TIP3    H258485   3.631   5.488  14.224  0.1792 -1.7364 -0.7803
12332TIP3   OH258486   2.568   3.393  12.853 -0.4600 -0.3380  0.0368
12332TIP3    H158487   2.500   3.450  12.817 -1.2983 -1.8149 -0.7800
12332TIP3    H258488   2.548   3.386  12.946 -2.2861 -1.8697 -0.4386
12333TIP3   OH258489   3.953   5.204  14.192 -0.1085 -0.6104 -0.0443
12333TIP3    H158490   3.959   5.109  14.186  1.5382 -0.5746  0.7376
12333TIP3    H258491   4.044   5.234  14.193 -0.6146  1.0919 -1.9932
12334TIP3   OH258492   1.014   4.906   3.199 -0.5336  0.0141 -0.6122
12334TIP3    H158493   0.987   4.819   3.226 -0.1504 -0.3414 -1.3561
12334TIP3    H258494   0.954   4.965   3.244  0.5917 -0.5121  1.6131
12335TIP3   OH258495   1.341   1.987   0.420  0.3635  0.0674  0.7844
12335TIP3    H158496   1.423   1.963   0.378  0.9713  2.2837  0.6365
12335TIP3    H258497   1.290   2.030   0.351  0.1822  1.0943  1.5444
12336TIP3   OH258498   3.299   5.659  14.970 -0.4089 -0.4880 -0.1294
12336TIP3    H158499   3.392   5.640  14.985 -0.2336  0.0250 -0.5491
12336TIP3    H258500   3.253   5.595  15.024  0.1886 -0.7655  0.0621
12337TIP3   OH258501   2.236   5.921  12.435  0.3773 -0.1761  0.7620
12337TIP3    H158502   2.237   5.831  12.402  2.6732  0.5393 -1.3143
12337TIP3    H258503   2.159   5.960  12.394 -0.6728 -1.2033  1.7314
12338TIP3   OH258504   7.127   5.508  15.566  0.1607  0.1297  0.2539
12338TIP3    H158505   7.196   5.564  15.532 -0.0215  1.7825  2.4744
12338TIP3    H258506   7.058   5.513  15.500  1.0065  0.7892 -0.5987
12339TIP3   OH258507   4.043   2.913   1.077 -0.0550 -0.2182  0.4146
12339TIP3    H158508   4.104   2.857   1.029  0.9133  0.1758  1.1572
12339TIP3    H258509   4.005   2.970   1.011 -1.0079 -1.7042 -0.3438
12340TIP3   OH258510   6.489   4.462  13.329  0.1087 -0.0586  0.3153
12340TIP3    H158511   6.516   4.391  13.270  0.0322  0.3826 -0.2552
12340TIP3    H258512   6.401   4.484  13.300 -0.3848 -0.6298  1.3532
12341TIP3   OH258513   0.954   5.761   4.761 -0.4955  0.5050  0.3913
12341TIP3    H158514   0.999   5.749   4.844  0.4135 -3.2897 -0.5850
12341TIP3    H258515   1.013   5.815   4.709 -0.3794  1.5863  1.6033
12342TIP3   OH258516   4.439   3.461   3.300 -0.2699 -0.0093 -0.2810
12342TIP3    H158517   4.452   3.552   3.275  0.3657 -0.5383 -1.9370
12342TIP3    H258518   4.460   3.411   3.221 -0.5713 -1.5927  0.6197
12343TIP3   OH258519   5.101   4.871  15.044  0.1520  0.1738 -0.4307
12343TIP3    H158520   5.172   4.816  15.077  0.1510 -0.1250 -0.9192
12343TIP3    H258521   5.145   4.946  15.004  0.1544  0.5096  0.2013
12344TIP3   OH258522   5.036   3.995  12.878 -0.1777  0.1939 -0.0013
12344TIP3    H158523   5.024   4.040  12.794  0.2539 -0.5018 -0.4463
12344TIP3    H258524   4.948   3.967  12.903 -0.3032  0.3776 -0.2357
12345TIP3   OH258525   5.010   3.031  13.761  0.0353  0.2816  0.4860
12345TIP3    H158526   4.931   2.979  13.747  1.0623 -1.2959  0.4582
12345TIP3    H258527   4.980   3.106  13.813 -1.2902 -0.7933  1.3155
12346TIP3   OH258528   4.022   2.911  15.030  0.1363  0.7347 -0.4637
12346TIP3    H158529   4.030   2.837  15.091  0.2415  0.4512 -0.8147
12346TIP3    H258530   3.987   2.982  15.083  2.5582  1.2463  0.5614
12347TIP3   OH258531   3.692   3.085   0.474  0.5910 -0.0804 -0.5911
12347TIP3    H158532   3.757   3.026   0.436  0.0063 -0.6850 -0.6592
12347TIP3    H258533   3.733   3.171   0.469  1.4287 -0.4647 -0.5463
12348TIP3   OH258534   5.022   1.761   0.468 -0.3317 -0.0350 -0.3368
12348TIP3    H158535   5.103   1.792   0.509  0.2461 -0.8164 -0.8771
12348TIP3    H258536   4.996   1.685   0.521 -0.6944  0.1981 -0.1805
12349TIP3   OH258537   1.598   6.502  14.703  0.0628 -0.1654 -0.6058
12349TIP3    H158538   1.566   6.592  14.695 -0.1228 -0.3216 -1.6444
12349TIP3    H258539   1.519   6.449  14.715  0.2021 -0.1445  0.4012
12350TIP3   OH258540   5.986   3.529   1.597  0.9153  0.3461  0.5533
12350TIP3    H158541   5.914   3.593   1.600  1.2892  0.7439  1.2920
12350TIP3    H258542   5.943   3.444   1.602  0.5406  0.6114  2.0594
12351TIP3   OH258543   6.630   5.787  12.912 -0.4457  0.4436 -0.2495
12351TIP3    H158544   6.651   5.854  12.847  0.1567  0.9340  0.4457
12351TIP3    H258545   6.552   5.743  12.878  0.2431  0.2719 -1.6217
12352TIP3   OH258546   0.489   1.323  15.444 -0.1632  0.1959 -0.9996
12352TIP3    H158547   0.574   1.279  15.455 -0.2261  0.6403  1.5932
12352TIP3    H258548   0.432   1.256  15.405  0.5445 -1.0946  0.1571
12353TIP3   OH258549   5.986   1.428   5.587 -0.3534 -0.0144 -0.2096
12353TIP3    H158550   5.905   1.379   5.576 -0.3847 -0.0343  0.1068
12353TIP3    H258551   6.054   1.370   5.554 -0.4002 -0.2364  0.0819
12354TIP3   OH258552   6.874   5.744   2.445  0.1122  0.1131  1.0122
12354TIP3    H158553   6.838   5.656   2.456  0.0218 -0.2814 -2.1460
12354TIP3    H258554   6.968   5.730   2.430 -0.0097  0.4883 -0.1451
12355TIP3   OH258555   2.898   3.132  15.507 -0.0367 -0.3113  0.2436
12355TIP3    H158556   2.848   3.209  15.534  0.0005  0.0873 -0.7858
12355TIP3    H258557   2.833   3.067  15.482 -0.0760  0.4357 -1.7286
12356TIP3   OH258558   3.919   4.743  12.109  0.5651 -0.6944 -0.4915
12356TIP3    H158559   3.983   4.811  12.088  0.6175 -0.7464 -0.5032
12356TIP3    H258560   3.959   4.695  12.182  0.7493 -1.0172 -0.8032
12357TIP3   OH258561   0.722   1.702   3.012  0.6429 -0.2821  1.2976
12357TIP3    H158562   0.775   1.744   3.080  1.1324 -0.9137  1.3095
12357TIP3    H258563   0.768   1.721   2.930  0.6102 -0.3994  1.2519
12358TIP3   OH258564   0.998   4.018  12.846  0.3890 -0.7317  0.1520
12358TIP3    H158565   0.974   3.944  12.902  1.4039 -0.7252  0.6128
12358TIP3    H258566   1.094   4.015  12.843  0.3372 -0.8342 -1.7259
12359TIP3   OH258567   6.284   0.769   1.921 -0.5038 -0.0121  0.4274
12359TIP3    H158568   6.240   0.792   2.003  2.2875  1.0523  1.6645
12359TIP3    H258569   6.335   0.691   1.942  0.4336  0.4138 -0.2266
12360TIP3   OH258570   4.989   6.520  14.342  0.3367  0.3008  0.0462
12360TIP3    H158571   4.907   6.499  14.387  1.7248 -1.2506  1.9126
12360TIP3    H258572   4.987   6.615  14.333 -0.9305  0.4330  1.5046
12361TIP3   OH258573   4.792   0.652  13.775 -0.1355  0.2842 -0.0937
12361TIP3    H158574   4.803   0.594  13.851  2.0180 -1.4606 -1.6633
12361TIP3    H258575   4.860   0.718  13.785 -0.2947  0.4549 -0.1395
12362TIP3   OH258576   4.483   6.194  14.773  0.3224 -0.2681  0.1948
12362TIP3    H158577   4.405   6.161  14.818  0.7505 -0.4163  0.8382
12362TIP3    H258578   4.514   6.119  14.722 -0.3874  0.0157 -0.6610
12363TIP3   OH258579   5.177   0.748   1.603 -0.0183 -0.0718 -0.2882
12363TIP3    H158580   5.151   0.661   1.631 -1.1566  0.3144 -0.1432
12363TIP3    H258581   5.253   0.769   1.658 -1.4018  0.1316  1.6056
12364TIP3   OH258582   7.028   1.362  14.775  0.3452 -0.0162 -0.1118
12364TIP3    H158583   6.951   1.325  14.731 -0.5934  1.4559  0.2585
12364TIP3    H258584   7.072   1.412  14.707 -0.2701  1.0022  0.2313
12365TIP3   OH258585   1.088   0.899   1.978 -0.7302  0.4516  0.1403
12365TIP3    H158586   1.047   0.857   2.054 -0.5759 -1.1509 -0.6398
12365TIP3    H258587   1.016   0.910   1.916 -0.5203  0.1963 -0.1453
12366TIP3   OH258588   4.010   4.939  14.195 -0.3432  0.2852  0.2406
12366TIP3    H158589   4.055   4.856  14.183 -0.7464  0.1576 -0.4695
12366TIP3    H258590   4.043   4.974  14.278  0.2036 -0.3383  0.2834
12367TIP3   OH258591   6.179   2.233   3.952 -0.1190  0.4406 -0.1268
12367TIP3    H158592   6.101   2.228   3.896  0.3109 -1.8466 -0.5539
12367TIP3    H258593   6.166   2.164   4.018  0.6302  1.3520  1.0116
12368TIP3   OH258594   1.090   0.567   2.428  0.1669 -0.0416  0.1926
12368TIP3    H158595   1.155   0.521   2.375 -0.5995 -1.2068  0.2518
12368TIP3    H258596   1.017   0.506   2.434 -1.6655  1.9467 -1.3275
12369TIP3   OH258597   1.514   4.756  15.261 -0.4723  0.1112 -0.3196
12369TIP3    H158598   1.577   4.742  15.190 -0.2723 -0.3603 -0.0464
12369TIP3    H258599   1.558   4.818  15.320  0.1886 -1.0808  0.4460
12370TIP3   OH258600   5.679   3.497   4.436 -0.1704  0.0630  0.2578
12370TIP3    H158601   5.733   3.550   4.377 -3.0120  0.6860 -1.9104
12370TIP3    H258602   5.726   3.414   4.442  0.5701  0.2363 -2.3194
12371TIP3   OH258603   4.507   1.918   2.203 -0.0630  0.4505 -0.8533
12371TIP3    H158604   4.532   1.896   2.293  2.1504 -0.3448 -1.6088
12371TIP3    H258605   4.436   1.981   2.212 -0.7485 -0.5957  1.4402
12372TIP3   OH258606   6.350   5.472  12.031 -0.4688 -0.1431 -0.2022
12372TIP3    H158607   6.277   5.438  12.083 -0.5772  3.8921  2.4887
12372TIP3    H258608   6.308   5.522  11.961 -0.3730  2.2156  1.3722
12373TIP3   OH258609   4.880   2.078   3.247 -0.2733  0.0494  1.2042
12373TIP3    H158610   4.961   2.028   3.238 -1.8171 -2.0795 -2.1846
12373TIP3    H258611   4.812   2.012   3.257 -2.2094  1.4780 -1.8017
12374TIP3   OH258612   2.944   2.185   1.845  0.0823 -0.4937  0.4955
12374TIP3    H158613   2.869   2.127   1.844  0.9656 -1.6401 -1.2499
12374TIP3    H258614   3.008   2.142   1.901  1.3265 -2.0119 -2.0288
12375TIP3   OH258615   1.973   3.762  12.393 -0.0342  0.5508  0.3101
12375TIP3    H158616   2.007   3.847  12.365 -1.7439  1.2068  0.1139
12375TIP3    H258617   2.045   3.701  12.381  1.1385  1.9293  0.1993
12376TIP3   OH258618   1.952   6.892   0.076  0.0200  0.7078  0.7350
12376TIP3    H158619   1.874   6.938   0.108 -0.0270 -0.2747  2.0729
12376TIP3    H258620   1.942   6.802   0.108  0.5361 -0.0238 -1.1156
12377TIP3   OH258621   3.016   1.056  14.042  0.5246  0.4347  0.1660
12377TIP3    H158622   3.011   1.000  13.964 -0.5178  0.6045  0.0960
12377TIP3    H258623   3.108   1.056  14.066  0.3007 -2.9795  1.3585
12378TIP3   OH258624   1.780   4.410  14.706  0.0547  0.6473 -0.0324
12378TIP3    H158625   1.749   4.345  14.769 -1.5859  1.0807 -0.3614
12378TIP3    H258626   1.778   4.364  14.622  0.3815  0.6484 -0.0400
12379TIP3   OH258627   4.762   0.302   2.370  0.1873  0.3660  0.1857
12379TIP3    H158628   4.729   0.382   2.328  1.0929  0.3179 -0.6481
12379TIP3    H258629   4.731   0.232   2.313  1.1269  0.2754 -0.2277
12380TIP3   OH258630   3.300   5.642  13.229 -0.1350 -0.1430 -0.2397
12380TIP3    H158631   3.366   5.573  13.219 -1.0197 -0.8513 -1.4356
12380TIP3    H258632   3.251   5.639  13.147 -0.8326  1.2421  0.1188
12381TIP3   OH258633   7.007   2.141  14.902 -0.4637 -0.1414 -0.1119
12381TIP3    H158634   7.029   2.072  14.965 -1.9535  0.0606  0.6431
12381TIP3    H258635   7.037   2.107  14.818  0.5129 -0.9038  0.5312
12382TIP3   OH258636   1.901   3.435  12.894 -0.0924 -0.3022 -0.4677
12382TIP3    H158637   1.903   3.355  12.841  0.9748  1.3293 -2.9941
12382TIP3    H258638   1.832   3.419  12.958 -0.6656 -2.8123 -1.6304
12383TIP3   OH258639   5.959   1.676   3.732 -0.3388 -0.0795  0.0891
12383TIP3    H158640   5.986   1.683   3.823 -0.3176  2.0264 -0.0501
12383TIP3    H258641   5.893   1.745   3.721  1.1038  1.0250 -1.9919
12384TIP3   OH258642   6.672   6.641  12.489 -0.3536  0.3745  0.4817
12384TIP3    H158643   6.672   6.644  12.393  0.0905  1.1092  0.4997
12384TIP3    H258644   6.762   6.661  12.514 -0.7343  1.3921  1.0831
12385TIP3   OH258645   3.212   6.684  15.288 -0.2520 -0.5377 -0.6514
12385TIP3    H158646   3.269   6.677  15.211  2.4942 -0.6711  1.3406
12385TIP3    H258647   3.154   6.758  15.268  1.2535  0.2300 -2.3306
12386TIP3   OH258648   7.096   2.217   3.088  0.3145 -0.2401 -0.1374
12386TIP3    H158649   7.051   2.268   3.021 -0.1377 -0.8487 -0.2955
12386TIP3    H258650   7.129   2.282   3.150 -2.3248  0.1032  0.9567
12387TIP3   OH258651   6.466   4.317   0.649  0.7518 -0.4694  0.3826
12387TIP3    H158652   6.385   4.365   0.632  0.6234 -0.8186  0.0189
12387TIP3    H258653   6.535   4.374   0.616  0.5547 -0.8164 -0.6358
12388TIP3   OH258654   2.200   1.586   4.817  0.4233 -0.5162  0.1759
12388TIP3    H158655   2.283   1.613   4.858  0.6739 -0.1055 -0.5908
12388TIP3    H258656   2.153   1.668   4.804 -0.8499 -0.9085  2.1979
12389TIP3   OH258657   2.738   4.575   2.597 -0.2402 -0.0849  0.1173
12389TIP3    H158658   2.750   4.637   2.526 -2.8218  0.4031  0.0561
12389TIP3    H258659   2.661   4.523   2.571 -0.6160 -0.5505  2.0755
12390TIP3   OH258660   3.139   5.006   1.626  0.5240  0.1793 -0.4157
12390TIP3    H158661   3.077   5.036   1.692  0.7955  1.3531 -0.6753
12390TIP3    H258662   3.089   5.005   1.544  0.4411 -0.3648 -0.3632
12391TIP3   OH258663   4.510   3.535  10.890 -0.0777  0.4143 -0.6673
12391TIP3    H158664   4.547   3.499  10.809 -0.3470  0.4210 -0.7911
12391TIP3    H258665   4.494   3.458  10.945  1.8521  0.5377  0.1165
12392TIP3   OH258666   4.838   3.451  13.969 -0.3477 -0.0841  0.2705
12392TIP3    H158667   4.874   3.393  13.902  0.9617 -0.0730  0.9443
12392TIP3    H258668   4.744   3.436  13.966 -0.3399  0.1978 -1.8237
12393TIP3   OH258669   5.365   6.793   1.890  0.2984 -0.2320  0.3168
12393TIP3    H158670   5.373   6.745   1.808  0.4241  0.2331  0.0538
12393TIP3    H258671   5.271   6.797   1.907  0.1210  1.4490 -0.8792
12394TIP3   OH258672   0.836   2.919   3.581  0.0727  0.5437  0.3897
12394TIP3    H158673   0.743   2.923   3.602  0.2736  0.9440  1.2666
12394TIP3    H258674   0.840   2.901   3.487 -0.8979  2.6405 -0.0791
12395TIP3   OH258675   3.172   1.671   1.600 -0.2414  0.0156  0.3218
12395TIP3    H158676   3.190   1.584   1.636  0.2407 -0.0174  0.0043
12395TIP3    H258677   3.124   1.716   1.669 -0.0804 -0.3431  0.6695
12396TIP3   OH258678   2.100   4.260   4.049  0.3170 -0.2178 -0.1558
12396TIP3    H158679   2.143   4.250   3.964  1.1864 -1.0186  0.3662
12396TIP3    H258680   2.144   4.334   4.091  2.1559 -1.8607  0.9268
12397TIP3   OH258681   2.994   4.419   1.652 -0.1572 -0.1693  0.5407
12397TIP3    H158682   3.042   4.414   1.735  0.6256 -0.7098  0.0611
12397TIP3    H258683   2.995   4.329   1.619  1.1833  0.4031 -0.9889
12398TIP3   OH258684   6.191   7.075   2.545  0.2261 -0.3672 -0.1139
12398TIP3    H158685   6.286   7.087   2.539  0.2654  0.0877  1.3362
12398TIP3    H258686   6.178   7.027   2.626 -0.9245  1.1052  0.5945
12399TIP3   OH258687   5.481   6.406   0.839 -0.2255  0.8571  0.0099
12399TIP3    H158688   5.503   6.428   0.749 -0.0783 -0.5857 -0.3142
12399TIP3    H258689   5.397   6.360   0.833  1.0601 -1.6276  0.2963
12400TIP3   OH258690   2.387   3.656  14.777 -0.7749 -0.4650 -0.1974
12400TIP3    H158691   2.367   3.723  14.712 -0.8137  0.4844  0.7783
12400TIP3    H258692   2.328   3.583  14.755 -0.8343 -0.1357 -1.1701
12401TIP3   OH258693   2.205   4.976   3.219  0.3102 -0.1570  0.0412
12401TIP3    H158694   2.169   4.900   3.172 -0.4648 -0.0222  0.4026
12401TIP3    H258695   2.131   5.008   3.272  1.6700 -1.4276  2.7909
12402TIP3   OH258696   7.153   3.021   1.788 -0.6590 -0.7174 -0.3287
12402TIP3    H158697   7.214   2.947   1.784 -0.3964 -0.5177 -0.1105
12402TIP3    H258698   7.154   3.058   1.700 -0.1674 -0.4797 -0.2227
12403TIP3   OH258699   2.197   5.235   2.102 -0.0415  0.4185 -0.1562
12403TIP3    H158700   2.194   5.325   2.135  2.2557  0.8504 -1.0108
12403TIP3    H258701   2.140   5.235   2.025 -0.0980  1.1350 -0.1185
12404TIP3   OH258702   3.538   3.292  12.866 -0.2782 -0.4614 -0.1698
12404TIP3    H158703   3.452   3.260  12.841  0.2611 -1.7737 -0.3827
12404TIP3    H258704   3.522   3.346  12.943 -1.6660  1.7897 -1.9633
12405TIP3   OH258705   5.620   1.747   1.904  0.8375  0.6816 -0.0630
12405TIP3    H158706   5.625   1.757   1.809 -1.6579  1.1004 -0.1965
12405TIP3    H258707   5.567   1.822   1.933  1.2936  0.3754  1.6051
12406TIP3   OH258708   0.384   0.067  14.042  0.0078 -0.0790  0.5436
12406TIP3    H158709   0.359   0.079  13.951  0.3064  0.0151  0.4743
12406TIP3    H258710   0.441   0.141  14.062  0.9372 -0.7509  0.4448
12407TIP3   OH258711   0.386   1.222   2.585 -0.0035 -0.3065 -0.2319
12407TIP3    H158712   0.292   1.206   2.588  0.2702 -1.9213  0.2414
12407TIP3    H258713   0.402   1.257   2.497 -1.4106  2.5893  0.5964
12408TIP3   OH258714   5.148   5.610  12.893  0.6436 -0.5175  0.7194
12408TIP3    H158715   5.182   5.699  12.900 -0.5404 -0.1579  2.0621
12408TIP3    H258716   5.078   5.605  12.958  0.8383 -2.4906  0.8224
12409TIP3   OH258717   3.011   3.955  14.606  0.4982 -0.4258  0.1459
12409TIP3    H158718   2.998   3.900  14.529 -0.0560 -0.3498  0.1865
12409TIP3    H258719   3.103   3.941  14.629  0.7451 -0.2186 -0.7000
12410TIP3   OH258720   6.573   4.810   0.564  1.1119  0.5215  0.3103
12410TIP3    H158721   6.518   4.805   0.486  1.0817  0.1772  0.3550
12410TIP3    H258722   6.661   4.829   0.531  0.6699  2.8187  0.3383
12411TIP3   OH258723   4.051   5.457   4.287  0.3649  0.1362 -0.2236
12411TIP3    H158724   4.147   5.455   4.283  0.3263 -1.6378 -0.4726
12411TIP3    H258725   4.025   5.515   4.216  1.1651 -1.1318 -1.5611
12412TIP3   OH258726   6.792   5.256  14.116 -0.0097  0.6439  0.4747
12412TIP3    H158727   6.717   5.286  14.168 -0.0785  0.6648  0.3637
12412TIP3    H258728   6.814   5.330  14.060 -1.2264 -0.0753 -0.9744
12413TIP3   OH258729   7.108   1.213  13.323 -0.1697 -0.1463 -0.1763
12413TIP3    H158730   7.170   1.174  13.261  2.0418  0.3899  1.6263
12413TIP3    H258731   7.086   1.140  13.382 -0.4494 -0.0816 -0.2038
12414TIP3   OH258732   6.837   3.479   3.075 -0.3264  0.3014  0.5221
12414TIP3    H158733   6.808   3.407   3.130  0.1598 -0.9911 -0.8759
12414TIP3    H258734   6.923   3.503   3.109 -0.4876  0.2298  0.9854
12415TIP3   OH258735   6.940   0.884   2.226 -0.5307 -0.7012  0.2691
12415TIP3    H158736   6.875   0.887   2.155 -0.3345  1.3566  0.1406
12415TIP3    H258737   6.888   0.880   2.306 -0.8251  0.9428  0.1643
12416TIP3   OH258738   1.043   2.429  11.656 -0.3177  0.1256 -0.1967
12416TIP3    H158739   1.113   2.430  11.721 -0.4715 -0.1357 -0.0268
12416TIP3    H258740   0.963   2.415  11.706 -0.5652  1.0390 -0.3321
12417TIP3   OH258741   7.199   4.791  13.303 -0.1520 -0.1713  0.4518
12417TIP3    H158742   7.139   4.819  13.235  0.4098 -3.5377 -1.5560
12417TIP3    H258743   7.157   4.818  13.385 -2.8304  0.3196 -1.0297
12418TIP3   OH258744   0.696   5.312   4.603 -0.5238 -0.1996  0.3608
12418TIP3    H158745   0.775   5.362   4.624 -1.1021  1.1426 -0.5950
12418TIP3    H258746   0.705   5.232   4.654  0.5831  0.7242  1.6805
12419TIP3   OH258747   6.767   2.748   3.477  0.1544 -0.1150  0.1892
12419TIP3    H158748   6.694   2.726   3.535 -0.9060 -1.0151 -1.4428
12419TIP3    H258749   6.807   2.825   3.518 -1.0229 -0.2625  1.7012
12420TIP3   OH258750   6.730   1.056  14.170  0.4363  0.3197 -0.1305
12420TIP3    H158751   6.665   1.109  14.123  0.1313 -0.7370 -0.9121
12420TIP3    H258752   6.798   1.038  14.105 -0.4017 -1.8696 -0.4588
12421TIP3   OH258753   6.721   5.132   2.679 -0.4724  0.9127  0.0350
12421TIP3    H158754   6.710   5.134   2.584  0.8949 -0.5974 -0.1892
12421TIP3    H258755   6.655   5.070   2.710 -0.1764  0.5492 -0.0591
12422TIP3   OH258756   2.255   6.054  15.500 -0.0595  0.6005 -0.0391
12422TIP3    H158757   2.315   6.032  15.428  0.0455  0.7133  0.0126
12422TIP3    H258758   2.169   6.028  15.468  0.1386 -0.4425  0.2581
12423TIP3   OH258759   3.069   3.333   2.256  0.3019  0.6745 -0.3926
12423TIP3    H158760   2.989   3.379   2.282 -0.5409 -0.4513 -0.9583
12423TIP3    H258761   3.117   3.320   2.338 -0.9859 -0.3025  0.2208
12424TIP3   OH258762   2.939   4.957   0.615  0.3442 -0.0678  0.1884
12424TIP3    H158763   3.019   4.948   0.668  0.3705  0.3155  0.2104
12424TIP3    H258764   2.965   5.010   0.541  0.5283 -1.3427 -0.6809
12425TIP3   OH258765   3.453   1.246  14.636  0.3930 -0.0499 -0.1949
12425TIP3    H158766   3.428   1.184  14.704 -0.8332 -0.2722 -0.8447
12425TIP3    H258767   3.372   1.289  14.610  1.0826  1.1545 -0.4331
12426TIP3   OH258768   0.511   5.289   1.734  0.1545  0.2804 -0.0289
12426TIP3    H158769   0.484   5.253   1.649 -1.0002 -0.0098  0.4514
12426TIP3    H258770   0.522   5.383   1.718 -1.7692  0.5193 -0.1089
12427TIP3   OH258771   1.623   3.793  11.113 -0.2493  0.3485 -0.4327
12427TIP3    H158772   1.687   3.723  11.127 -2.0128 -1.3881 -0.7747
12427TIP3    H258773   1.597   3.820  11.200 -0.1528  0.0117 -0.2974
12428TIP3   OH258774   4.929   2.441   2.309 -0.5493 -0.6052 -0.0145
12428TIP3    H158775   4.896   2.504   2.245  0.3036  0.1047  0.2449
12428TIP3    H258776   4.850   2.399   2.343 -0.9888 -1.4176 -1.9502
12429TIP3   OH258777   1.731   7.111   2.104  0.0994  0.2479 -0.0348
12429TIP3    H158778   1.680   7.183   2.067 -0.8117  2.1407  4.5833
12429TIP3    H258779   1.675   7.034   2.095 -0.0753  0.6276 -2.4934
12430TIP3   OH258780   5.026   1.088  14.585  0.2747  0.2585  0.0147
12430TIP3    H158781   4.995   1.002  14.614  0.1595 -0.3184 -1.7590
12430TIP3    H258782   5.097   1.068  14.523 -1.9866  1.3208 -3.0023
12431TIP3   OH258783   6.927   6.999   2.863  0.0258  0.3962  0.2683
12431TIP3    H158784   6.966   6.928   2.811  1.9200  0.9999  0.8312
12431TIP3    H258785   6.961   7.079   2.823  0.2798  0.9050  1.4849
12432TIP3   OH258786   5.434   3.639  13.276 -0.4038  0.4031 -0.5010
12432TIP3    H158787   5.442   3.583  13.353  1.0767  0.2182 -0.7635
12432TIP3    H258788   5.518   3.628  13.230 -1.0241  0.9994 -1.7953
12433TIP3   OH258789   0.460   4.881  12.252  0.0108  0.2524 -0.1706
12433TIP3    H158790   0.490   4.792  12.232 -0.6328 -0.2606  1.1131
12433TIP3    H258791   0.396   4.870  12.323 -0.6441  1.6635 -0.5138
12434TIP3   OH258792   1.857   7.010  14.224 -0.0924  0.2792 -0.2733
12434TIP3    H158793   1.763   7.016  14.244 -0.2663  1.0990 -1.2654
12434TIP3    H258794   1.872   6.917  14.210 -0.7773  0.1426 -0.1445
12435TIP3   OH258795   0.305   3.996  13.624 -0.3107 -0.2518 -0.0452
12435TIP3    H158796   0.395   3.973  13.646 -0.4032  0.4082  1.0428
12435TIP3    H258797   0.263   4.014  13.708 -0.5597  2.7467 -0.7560
12436TIP3   OH258798   7.165   6.234   3.347  0.1286 -0.1757 -0.2627
12436TIP3    H158799   7.072   6.218   3.364 -0.2381  0.9213 -1.1073
12436TIP3    H258800   7.208   6.151   3.366 -0.9738 -0.5698  0.5509
12437TIP3   OH258801   4.178   0.295   2.650 -0.0504  0.4274  0.4329
12437TIP3    H158802   4.122   0.238   2.596 -0.9366  2.2389 -0.6297
12437TIP3    H258803   4.124   0.316   2.727 -0.3106  1.0207  0.0961
12438TIP3   OH258804   5.869   3.951   1.476  0.3589  0.1247  0.2309
12438TIP3    H158805   5.826   4.031   1.445 -0.3900 -0.0559  0.7750
12438TIP3    H258806   5.921   3.979   1.551 -1.9461 -0.3203  2.0461
12439TIP3   OH258807   3.051   4.085   0.314 -0.1444 -0.5627 -0.0808
12439TIP3    H158808   3.005   4.005   0.340 -0.3891 -0.7682 -1.1007
12439TIP3    H258809   3.112   4.056   0.247  1.3641 -0.2581  1.1482
12440TIP3   OH258810   2.899   5.656   1.941 -0.0146 -0.3652 -0.3867
12440TIP3    H158811   2.945   5.718   1.997 -0.1175  1.0019 -1.7858
12440TIP3    H258812   2.807   5.684   1.944 -0.1111 -0.6233 -0.7938
12441TIP3   OH258813   4.174   3.163   1.341  0.0755  0.4018 -0.0791
12441TIP3    H158814   4.199   3.105   1.269 -0.1849  0.2644 -0.0598
12441TIP3    H258815   4.117   3.228   1.299 -0.3120  0.1513  0.0586
12442TIP3   OH258816   1.479   0.598   2.987  0.0171  0.0933  0.4457
12442TIP3    H158817   1.395   0.598   3.032 -1.3143  0.5836 -1.9211
12442TIP3    H258818   1.485   0.686   2.948  1.3953 -0.0980  0.1972
12443TIP3   OH258819   1.781   4.635   3.658 -0.1970 -0.6932 -0.3917
12443TIP3    H158820   1.714   4.627   3.590  0.1252 -2.8626 -0.5010
12443TIP3    H258821   1.860   4.661   3.611 -0.1679 -1.4164 -0.7529
12444TIP3   OH258822   6.717   3.933   0.912 -0.5528  0.2845 -0.0244
12444TIP3    H158823   6.713   3.845   0.875  1.5012  0.1082  0.1142
12444TIP3    H258824   6.627   3.951   0.940 -1.1467 -1.4727 -0.6928
12445TIP3   OH258825   5.196   5.495   2.903 -0.9067  0.4592  0.4406
12445TIP3    H158826   5.287   5.469   2.890 -0.4714  1.9851  0.3193
12445TIP3    H258827   5.200   5.561   2.972 -1.8447  1.0692 -0.0836
12446TIP3   OH258828   4.712   2.122  14.860  0.0852  0.3706 -0.0479
12446TIP3    H158829   4.773   2.073  14.916  1.3613  1.2158 -0.6719
12446TIP3    H258830   4.627   2.115  14.905  0.6651 -0.7093  0.9062
12447TIP3   OH258831   0.754   5.863  15.178  0.0718 -0.1479  0.0688
12447TIP3    H158832   0.757   5.864  15.083 -0.2764  0.0889  0.0621
12447TIP3    H258833   0.835   5.908  15.205  0.1339 -0.1520 -0.1140
12448TIP3   OH258834   6.585   3.920  13.559  0.4420  0.1756  0.1232
12448TIP3    H158835   6.669   3.966  13.558  0.4316  0.1912 -0.0013
12448TIP3    H258836   6.586   3.869  13.641  0.5386  0.2378  0.1608
12449TIP3   OH258837   3.708   6.998   4.072 -0.3631 -0.3853  0.0205
12449TIP3    H158838   3.752   6.914   4.085  1.0096  0.3619  0.3291
12449TIP3    H258839   3.759   7.041   4.004 -1.7012 -0.2311 -0.8984
12450TIP3   OH258840   2.355   6.770   2.519  0.3130 -0.0275  0.3195
12450TIP3    H158841   2.360   6.842   2.457  0.6635  1.3788  1.9657
12450TIP3    H258842   2.267   6.734   2.505  0.0766  0.8010 -0.4014
12451TIP3   OH258843   3.077   6.419   0.793 -0.0421 -0.0605  0.0562
12451TIP3    H158844   3.171   6.433   0.777  0.1824 -0.4793  0.9590
12451TIP3    H258845   3.053   6.491   0.851  0.1864 -1.0849  1.4444
12452TIP3   OH258846   6.234   2.047  13.715 -0.3413  0.1358 -0.0755
12452TIP3    H158847   6.157   2.071  13.663 -0.5788 -2.6684 -1.1381
12452TIP3    H258848   6.294   2.008  13.651  1.4162  1.0780  0.9725
12453TIP3   OH258849   6.900   6.147   0.974 -0.2350  0.3941 -0.4261
12453TIP3    H158850   6.975   6.113   0.926  0.1542  0.1857  0.3279
12453TIP3    H258851   6.938   6.193   1.049 -0.6900  2.9966 -1.6990
12454TIP3   OH258852   3.689   4.133   0.897 -0.4184 -0.8826  0.2226
12454TIP3    H158853   3.655   4.211   0.940 -0.4830 -0.5989 -0.3301
12454TIP3    H258854   3.745   4.167   0.827 -1.3563 -1.3263 -0.7544
12455TIP3   OH258855   1.267   2.613  14.640 -0.1254  0.5646 -0.6011
12455TIP3    H158856   1.277   2.611  14.736 -1.1233 -1.3278 -0.5170
12455TIP3    H258857   1.277   2.521  14.613 -1.3611  0.8760 -2.1585
12456TIP3   OH258858   1.511   4.395   0.811  0.4115  0.7075  0.1133
12456TIP3    H158859   1.579   4.330   0.796 -1.5958 -1.3902 -0.1577
12456TIP3    H258860   1.452   4.386   0.736 -0.8035  1.6847  0.9253
12457TIP3   OH258861   3.906   3.941   4.628 -0.4514  0.3994  0.2327
12457TIP3    H158862   3.905   3.912   4.719 -0.2473  0.2404  0.1854
12457TIP3    H258863   3.827   3.993   4.619 -1.1334 -0.6434  0.1507
12458TIP3   OH258864   6.251   5.786   3.348  0.4834 -0.0859  0.1049
12458TIP3    H158865   6.218   5.875   3.344  1.4250  0.3051  0.9404
12458TIP3    H258866   6.342   5.795   3.374  0.3923 -1.3212  0.9244
12459TIP3   OH258867   2.467   2.834   2.573  0.4372  0.5498  0.1392
12459TIP3    H158868   2.511   2.919   2.572 -0.9850  1.3034  0.3083
12459TIP3    H258869   2.443   2.821   2.664  1.0076 -0.2182  0.1768
12460TIP3   OH258870   3.715   3.538   2.774 -0.4259  0.1858 -0.3122
12460TIP3    H158871   3.785   3.476   2.796  0.2050  1.2142  0.6332
12460TIP3    H258872   3.669   3.552   2.857 -1.5908 -0.2692 -0.8715
12461TIP3   OH258873   4.797   6.991  13.948  0.2982 -0.4956  0.5414
12461TIP3    H158874   4.781   6.897  13.959 -1.2991 -0.2638  0.2021
12461TIP3    H258875   4.841   7.017  14.029  0.4529 -1.4643  0.7754
12462TIP3   OH258876   4.184   6.524  14.426  0.3682 -0.5062 -0.0893
12462TIP3    H158877   4.171   6.508  14.332  0.4116 -0.8303 -0.0401
12462TIP3    H258878   4.180   6.619  14.435 -3.0431 -0.6167  0.0794
12463TIP3   OH258879   5.969   4.824   1.514 -0.8364  0.2161  0.2215
12463TIP3    H158880   6.018   4.783   1.585 -0.1969  1.2367  0.3787
12463TIP3    H258881   5.972   4.761   1.442 -0.0212 -0.0908  0.5270
12464TIP3   OH258882   1.525   6.993   5.077  0.1055 -0.5099  0.0959
12464TIP3    H158883   1.564   6.912   5.044 -0.4984 -1.7846  2.4356
12464TIP3    H258884   1.435   6.991   5.046 -0.1604 -1.1805  0.9010
12465TIP3   OH258885   3.646   6.457   1.962 -0.0858 -0.1453  0.1761
12465TIP3    H158886   3.739   6.435   1.958 -0.4076 -1.8723  1.5226
12465TIP3    H258887   3.604   6.377   1.994 -2.3279 -0.2160 -2.7288
12466TIP3   OH258888   5.186   1.559  13.295  0.4818 -0.0516  0.4747
12466TIP3    H158889   5.094   1.534  13.286  1.0723 -2.0095 -0.7223
12466TIP3    H258890   5.195   1.638  13.243  0.1684 -1.8201 -2.4125
12467TIP3   OH258891   6.278   1.186   4.308  0.5363  0.1268  0.3633
12467TIP3    H158892   6.370   1.185   4.335  0.6979  0.0554 -0.1761
12467TIP3    H258893   6.270   1.112   4.247 -0.1740 -0.6282  1.3553
12468TIP3   OH258894   5.918   5.088   0.748 -0.1686  0.1765  0.3627
12468TIP3    H158895   5.931   5.105   0.841 -0.0686 -2.3635  0.8589
12468TIP3    H258896   6.003   5.056   0.717 -0.8937 -1.4639  0.0163
12469TIP3   OH258897   3.029   4.845   2.505 -0.5669 -0.2153 -0.1817
12469TIP3    H158898   2.965   4.915   2.515 -1.9893 -1.4975 -0.0461
12469TIP3    H258899   3.020   4.815   2.414  0.1569 -0.1130 -0.2956
12470TIP3   OH258900   7.068   6.481   1.451 -0.6220 -0.2520  0.3426
12470TIP3    H158901   7.017   6.412   1.495 -0.2383  0.2781  1.6496
12470TIP3    H258902   7.018   6.561   1.467 -0.3838 -0.0240 -0.0560
12471TIP3   OH258903   1.243   5.156  15.292 -0.3716  0.1011  0.0018
12471TIP3    H158904   1.247   5.121  15.203 -0.8500 -0.5956  0.2546
12471TIP3    H258905   1.330   5.195  15.305 -0.6664  1.2092 -1.1662
12472TIP3   OH258906   3.910   6.609   0.935  0.3652 -0.0643 -0.3943
12472TIP3    H158907   3.953   6.694   0.928 -1.5153  1.0277  0.8601
12472TIP3    H258908   3.833   6.625   0.990  0.5258 -2.7836  0.7319
12473TIP3   OH258909   7.036   0.531  14.436 -0.5070  0.0199  0.7190
12473TIP3    H158910   6.972   0.581  14.486 -1.3650  0.2428 -0.5816
12473TIP3    H258911   6.998   0.523  14.349  0.7417 -0.7891  0.2298
12474TIP3   OH258912   0.528   2.156   4.700 -0.0083  0.1231 -0.3818
12474TIP3    H158913   0.495   2.160   4.790  0.3334 -0.6343 -0.2199
12474TIP3    H258914   0.479   2.224   4.654 -0.7402  0.0009  0.1966
12475TIP3   OH258915   5.293   5.892  14.568 -0.1664  0.6048  0.6124
12475TIP3    H158916   5.200   5.874  14.583  0.3732 -0.3961  2.8962
12475TIP3    H258917   5.327   5.811  14.529  0.3807 -0.1685  2.6475
12476TIP3   OH258918   0.453   0.699  15.602  0.8805 -0.4519  0.0491
12476TIP3    H158919   0.376   0.716  15.656  0.1250 -0.4630 -1.0023
12476TIP3    H258920   0.523   0.682  15.665 -0.1515 -1.2416  1.0211
12477TIP3   OH258921   3.445   6.593   1.289 -0.2173 -0.1379 -0.0686
12477TIP3    H158922   3.376   6.651   1.255 -0.8338 -1.4937 -1.1716
12477TIP3    H258923   3.398   6.515   1.318  0.7801 -0.7186 -0.0087
12478TIP3   OH258924   4.320   0.190  15.095 -0.4466  0.1154 -0.3149
12478TIP3    H158925   4.309   0.235  15.011  0.9993 -0.4864 -0.8440
12478TIP3    H258926   4.275   0.246  15.158 -3.2961 -0.4351 -1.7721
12479TIP3   OH258927   1.758   2.849   3.474 -0.4555  0.1240 -0.1850
12479TIP3    H158928   1.692   2.907   3.513 -0.5039  0.5865 -0.9535
12479TIP3    H258929   1.716   2.764   3.470 -0.0435 -0.2187  1.8838
12480TIP3   OH258930   6.295   1.783   1.714  0.0500 -0.3923  0.5100
12480TIP3    H158931   6.376   1.733   1.710  0.5563  0.4924 -0.6245
12480TIP3    H258932   6.225   1.717   1.713  0.6972 -1.0512 -1.3310
12481TIP3   OH258933   4.901   6.488  12.663  0.1129 -0.0137  0.1329
12481TIP3    H158934   4.939   6.459  12.746  2.9801  2.7725 -0.0952
12481TIP3    H258935   4.941   6.431  12.597 -1.8357 -1.9421  0.5648
12482TIP3   OH258936   1.882   5.526  13.871 -0.5605  0.9723  0.2727
12482TIP3    H158937   1.897   5.454  13.810  1.3705  1.8971 -0.3734
12482TIP3    H258938   1.926   5.498  13.952  0.1973  1.4188  0.0190
12483TIP3   OH258939   5.973   3.775   1.082  0.4910 -0.4394  0.0787
12483TIP3    H158940   5.886   3.745   1.056  0.0897  0.4339  0.4037
12483TIP3    H258941   5.987   3.734   1.168  0.2340 -0.2532  0.2092
12484TIP3   OH258942   5.862   3.139   1.161  0.1061  0.4878 -0.3134
12484TIP3    H158943   5.938   3.189   1.132 -0.0889  1.8491  1.4712
12484TIP3    H258944   5.900   3.061   1.203  0.4201 -0.5017 -2.3449
12485TIP3   OH258945   2.215   6.297   1.968  0.0484 -0.3589  0.7425
12485TIP3    H158946   2.125   6.313   1.942 -0.0530  0.7420  1.7232
12485TIP3    H258947   2.258   6.268   1.888 -0.5454  1.7579 -0.4053
12486TIP3   OH258948   1.789   0.648  15.434  0.1706 -0.0698  0.2627
12486TIP3    H158949   1.789   0.643  15.339 -1.5206 -0.2992  0.2477
12486TIP3    H258950   1.854   0.583  15.462  0.4818 -0.1873 -0.7295
12487TIP3   OH258951   5.172   6.349  14.258 -0.1755 -0.2279 -0.3624
12487TIP3    H158952   5.124   6.304  14.189  0.7501  2.9856 -3.2670
12487TIP3    H258953   5.111   6.417  14.289  0.2696 -0.1223  0.2961
12488TIP3   OH258954   1.124   5.814   4.522 -0.2151  0.6893  0.2797
12488TIP3    H158955   1.180   5.880   4.480 -0.5987  0.2490 -0.9642
12488TIP3    H258956   1.069   5.781   4.451  0.3489 -1.3603  0.7463
12489TIP3   OH258957   3.942   0.407   3.168 -0.4450  0.4878  0.4603
12489TIP3    H158958   3.860   0.407   3.118 -0.3026 -2.1353  0.1368
12489TIP3    H258959   4.001   0.465   3.118 -1.0838 -0.1451 -1.0704
12490TIP3   OH258960   2.486   3.038  15.598  0.0015 -0.3926 -0.0205
12490TIP3    H158961   2.471   2.980  15.672 -2.5002 -0.3859 -0.4567
12490TIP3    H258962   2.434   3.116  15.619 -1.1022 -0.5757 -1.9645
12491TIP3   OH258963   3.549   0.145   1.023 -0.0524  0.5600  0.1491
12491TIP3    H158964   3.516   0.234   1.017 -0.2388  0.3811 -1.6733
12491TIP3    H258965   3.485   0.092   0.975  0.6059 -0.3976  0.3121
12492TIP3   OH258966   5.749   3.708  15.612  0.1525 -0.1212  0.2982
12492TIP3    H158967   5.699   3.778  15.571  0.0912 -1.5623 -2.1986
12492TIP3    H258968   5.829   3.751  15.644 -0.8834  1.4605  0.7906
12493TIP3   OH258969   6.079   6.896  14.256 -0.3442  0.3362 -0.5375
12493TIP3    H158970   6.148   6.940  14.305  0.5973  0.3032 -1.8112
12493TIP3    H258971   6.069   6.811  14.299 -0.5587  0.8783  0.4959
12494TIP3   OH258972   5.501   2.092   3.128 -0.1893  0.6233 -0.1572
12494TIP3    H158973   5.566   2.035   3.170  0.3906 -0.0943 -1.9868
12494TIP3    H258974   5.491   2.165   3.189  2.6388  0.9522 -0.0065
12495TIP3   OH258975   1.848   4.786   0.635  0.1877  0.2733  0.0047
12495TIP3    H158976   1.843   4.881   0.625 -0.2671  0.2289 -0.1905
12495TIP3    H258977   1.757   4.757   0.636  0.3389 -0.2353 -0.6063
12496TIP3   OH258978   4.863   0.173  14.132  0.1482  0.2007  0.3033
12496TIP3    H158979   4.787   0.231  14.135  0.9170  1.1520  1.9981
12496TIP3    H258980   4.920   0.213  14.065 -0.0115  0.5292  0.3630
12497TIP3   OH258981   4.900   1.608  15.423 -0.2819 -0.5553  0.1162
12497TIP3    H158982   4.938   1.544  15.363  0.7588  0.3399 -0.1985
12497TIP3    H258983   4.975   1.658  15.456 -0.9448 -0.3632  1.3745
12498TIP3   OH258984   2.285   3.284   4.271  0.4766  0.1114 -0.4259
12498TIP3    H158985   2.207   3.296   4.217  0.0989  0.0955  0.1131
12498TIP3    H258986   2.258   3.222   4.338  0.9864  0.0295 -0.2977
12499TIP3   OH258987   4.287   2.326   2.063  0.5364  0.4578 -0.3252
12499TIP3    H158988   4.211   2.280   2.028  0.6231 -0.2853  0.4546
12499TIP3    H258989   4.257   2.416   2.077 -0.3806  0.0201  0.5492
12500TIP3   OH258990   3.400   3.545   0.124  0.3478 -0.1699 -1.2792
12500TIP3    H158991   3.352   3.569   0.044  0.2260 -0.4748 -1.2976
12500TIP3    H258992   3.338   3.492   0.174 -0.6368  2.4501  0.3800
12501TIP3   OH258993   6.106   3.818  15.393 -0.4717 -0.0847  0.5199
12501TIP3    H158994   6.086   3.798  15.485 -0.6861 -0.4801  0.3890
12501TIP3    H258995   6.040   3.770  15.343 -0.8257  0.7476  0.1828
12502TIP3   OH258996   1.212   6.631  14.876  0.3191 -0.3374 -0.0183
12502TIP3    H158997   1.211   6.662  14.786  0.1620  0.3749  0.2275
12502TIP3    H258998   1.277   6.561  14.876 -1.0327 -1.6325 -1.1013
12503TIP3   OH258999   6.304   3.039  15.488 -0.2170 -0.1978 -0.3893
12503TIP3    H159000   6.261   3.123  15.472 -0.1528 -0.5087 -2.3461
12503TIP3    H259001   6.392   3.051  15.453  0.1615 -0.7237  0.3744
12504TIP3   OH259002   3.125   2.530  13.668  0.2968 -0.3219 -0.3992
12504TIP3    H159003   3.182   2.519  13.744 -1.2566 -4.1582  0.3123
12504TIP3    H259004   3.161   2.470  13.602 -3.4359 -3.6467  0.4519
12505TIP3   OH259005   6.049   4.317  15.542 -0.4183 -0.1284  0.2463
12505TIP3    H159006   6.049   4.225  15.568 -1.0980 -0.0613  0.4915
12505TIP3    H259007   5.997   4.319  15.461  0.0054 -0.0355 -0.0238
12506TIP3   OH259008   2.552   4.247   1.524 -0.9256 -0.5454  0.1076
12506TIP3    H159009   2.520   4.211   1.607 -1.8456  0.0937  0.0341
12506TIP3    H259010   2.594   4.329   1.548  0.6895 -1.3805  0.2035
12507TIP3   OH259011   3.228   4.914   0.382  0.2219 -0.0435 -0.0205
12507TIP3    H159012   3.159   4.979   0.368 -2.6302 -2.9466 -0.0558
12507TIP3    H259013   3.241   4.912   0.477 -0.1933  0.0974  0.0393
12508TIP3   OH259014   4.130   1.444  15.438  0.4831  0.3404  0.1133
12508TIP3    H159015   4.083   1.409  15.363 -1.2326 -0.8089  1.6738
12508TIP3    H259016   4.065   1.496  15.485  1.5342  1.0359  0.8269
12509TIP3   OH259017   0.412   3.568   0.925  0.2489  0.1319  0.6526
12509TIP3    H159018   0.397   3.560   1.019  1.9782  0.7247  0.9870
12509TIP3    H259019   0.491   3.517   0.908 -0.5660 -0.7148 -0.6356
12510TIP3   OH259020   1.583   2.565   2.183  0.3789  0.4206  0.2514
12510TIP3    H159021   1.543   2.652   2.178  0.8940  0.7706  2.1853
12510TIP3    H259022   1.516   2.511   2.224 -1.0283 -0.7936 -3.4131
12511TIP3   OH259023   2.350   3.385  15.406 -0.1369  0.0215 -0.0855
12511TIP3    H159024   2.424   3.330  15.379  1.4009  1.8950  0.1849
12511TIP3    H259025   2.308   3.336  15.476 -0.4503 -2.0543 -1.7023
12512TIP3   OH259026   6.692   7.124  14.619  0.1125 -0.3013 -0.1896
12512TIP3    H159027   6.615   7.173  14.650  0.5165  0.6124 -0.6185
12512TIP3    H259028   6.736   7.096  14.699  0.8382  1.5497  0.0821
12513TIP3   OH259029   1.599   6.035   0.379 -0.0078  0.4031  0.2585
12513TIP3    H159030   1.508   6.064   0.392 -0.2846 -0.2639 -0.1860
12513TIP3    H259031   1.614   6.047   0.285 -0.1084 -0.8566  0.0811
12514TIP3   OH259032   1.531   4.566  12.739  0.3271  1.2689  0.2357
12514TIP3    H159033   1.461   4.501  12.742 -0.4533  2.1077  0.3407
12514TIP3    H259034   1.604   4.524  12.784  0.4896 -0.3061 -1.4258
12515TIP3   OH259035   2.438   4.770   2.916  0.0450  0.5214  0.2420
12515TIP3    H159036   2.517   4.821   2.896  0.7084 -0.0789  1.3025
12515TIP3    H259037   2.398   4.816   2.990  0.3866 -0.2067  0.8899
12516TIP3   OH259038   0.960   0.694  12.184  0.4594  0.1724  0.6060
12516TIP3    H159039   0.969   0.615  12.237  3.7491  0.7439  1.0400
12516TIP3    H259040   0.958   0.765  12.248 -2.8752  0.4930  0.2412
12517TIP3   OH259041   4.666   1.604  13.513 -0.6450  0.2263  0.3516
12517TIP3    H159042   4.604   1.620  13.442 -0.5842  1.5557  0.5974
12517TIP3    H259043   4.612   1.599  13.592 -0.5633  0.1458  0.4031
12518TIP3   OH259044   4.267   3.671   2.013 -0.5598 -0.1339  0.1993
12518TIP3    H159045   4.177   3.651   1.987 -1.1481 -2.2447  3.6407
12518TIP3    H259046   4.266   3.765   2.032 -1.5859  0.1981 -1.3701
12519TIP3   OH259047   5.889   4.448   4.043 -0.4403 -0.3706 -0.5355
12519TIP3    H159048   5.924   4.475   3.958 -2.6165  1.1009 -1.0012
12519TIP3    H259049   5.946   4.492   4.107 -1.1489  1.7242 -1.2801
12520TIP3   OH259050   5.500   6.210  14.564 -0.1377  0.1437  0.0921
12520TIP3    H159051   5.511   6.242  14.653 -0.1923  0.5188 -0.0354
12520TIP3    H259052   5.406   6.221  14.546 -0.0918  0.2567 -0.0838
12521TIP3   OH259053   3.018   4.524   3.227  0.0424 -0.0677  0.0760
12521TIP3    H159054   2.987   4.612   3.207 -0.4964 -0.1111  0.7180
12521TIP3    H259055   3.089   4.509   3.165  2.5988  2.2301  2.3354
12522TIP3   OH259056   7.022   5.501  13.694  0.1332 -0.1302 -0.2464
12522TIP3    H159057   7.050   5.591  13.677  0.0867 -0.1399 -0.3746
12522TIP3    H259058   7.047   5.453  13.615  0.3209 -0.2648 -0.1049
12523TIP3   OH259059   4.210   2.889   4.138 -0.1640 -0.2556 -0.0224
12523TIP3    H159060   4.186   2.829   4.067 -2.4265  1.2120 -0.5507
12523TIP3    H259061   4.194   2.840   4.218  0.2903 -1.1699 -0.4864
12524TIP3   OH259062   4.527   1.827   4.153  0.4622 -0.1863 -0.1975
12524TIP3    H159063   4.464   1.900   4.157 -0.5521 -1.0289 -0.6789
12524TIP3    H259064   4.548   1.818   4.060  2.3168  0.9304  0.0810
12525TIP3   OH259065   5.362   3.208   4.538  0.1406  0.2138  0.4427
12525TIP3    H159066   5.278   3.188   4.578 -0.1583  0.3550 -0.1126
12525TIP3    H259067   5.377   3.136   4.476  0.9177 -0.3672  1.2781
12526TIP3   OH259068   7.038   5.143  14.937 -0.3263 -0.5139  0.5580
12526TIP3    H159069   7.037   5.205  15.010 -1.5742 -0.9417  0.9145
12526TIP3    H259070   7.131   5.125  14.923  0.0028  0.7391  1.0369
12527TIP3   OH259071   4.309   2.090   1.811  0.6132  0.4906  0.3504
12527TIP3    H159072   4.297   2.092   1.716  0.8204  0.0598  0.3173
12527TIP3    H259073   4.240   2.149   1.845 -0.8604 -1.0412  0.0760
12528TIP3   OH259074   6.357   5.356   1.544 -0.0924  0.4139  0.2107
12528TIP3    H159075   6.432   5.323   1.593  1.0073  1.1956 -0.9460
12528TIP3    H259076   6.345   5.293   1.473 -0.2619  0.5274  0.1376
12529TIP3   OH259077   3.126   3.813   3.523 -0.0884  0.3307  0.4561
12529TIP3    H159078   3.153   3.883   3.582 -0.1582  0.3517  0.4620
12529TIP3    H259079   3.186   3.741   3.544 -0.9233 -0.0909  1.4256
12530TIP3   OH259080   1.836   1.702   3.723  0.1735  0.3740 -0.0596
12530TIP3    H159081   1.790   1.618   3.724 -1.0315  1.0159  0.0161
12530TIP3    H259082   1.906   1.691   3.787  0.1169 -0.6240 -0.1580
12531TIP3   OH259083   2.367   5.695   2.436 -0.2706 -0.0696 -0.0081
12531TIP3    H159084   2.347   5.760   2.369 -0.4062  0.4467  0.5358
12531TIP3    H259085   2.309   5.716   2.509 -1.7496 -2.0207 -0.5702
12532TIP3   OH259086   4.608   6.026   4.661  0.3426 -0.0318  0.8254
12532TIP3    H159087   4.684   6.080   4.640  0.4719 -0.2910  0.6217
12532TIP3    H259088   4.575   6.062   4.744  0.9960 -0.2471  1.1824
12533TIP3   OH259089   4.399   2.920   3.702 -0.0474 -0.4897  0.0597
12533TIP3    H159090   4.427   2.829   3.687 -1.1158 -0.5491 -1.7931
12533TIP3    H259091   4.478   2.965   3.732  0.6690 -1.8638  0.2935
12534TIP3   OH259092   3.890   4.643   0.031  0.0911  0.0955 -0.4611
12534TIP3    H159093   3.958   4.577   0.017 -0.3112 -0.2990 -0.5780
12534TIP3    H259094   3.814   4.611  -0.018 -0.8227 -0.4840  1.2589
12535TIP3   OH259095   4.527   6.651   3.169 -0.2245 -0.1065  0.1323
12535TIP3    H159096   4.518   6.558   3.148  1.5666 -1.0014  2.9864
12535TIP3    H259097   4.438   6.684   3.173 -0.8300 -1.2739 -2.5735
12536TIP3   OH259098   1.630   4.630   4.776  0.1250  0.2623 -0.5149
12536TIP3    H159099   1.565   4.694   4.747  2.0396  1.9170 -1.2483
12536TIP3    H259100   1.680   4.610   4.696  0.2871 -1.2735 -0.0382
12537TIP3   OH259101   2.865   4.329  12.280  0.4490 -0.0159 -0.3877
12537TIP3    H159102   2.923   4.292  12.347  0.0192 -0.7745 -0.4263
12537TIP3    H259103   2.925   4.359  12.211  0.8429 -0.0292 -0.0560
12538TIP3   OH259104   3.049   3.469   0.977 -0.0299 -0.5762 -0.1712
12538TIP3    H159105   3.109   3.433   0.911 -0.6802 -0.6729 -0.7149
12538TIP3    H259106   3.008   3.544   0.934  0.1323 -0.1506  0.4049
12539TIP3   OH259107   2.726   6.380   1.068  0.4491  0.4057 -0.0209
12539TIP3    H159108   2.719   6.322   1.144  1.6587 -0.4990 -0.5655
12539TIP3    H259109   2.752   6.321   0.996  0.2200  1.3893 -0.9227
12540TIP3   OH259110   3.011   3.156  12.698  0.1454  0.2443  0.3196
12540TIP3    H159111   2.936   3.159  12.639 -0.5476 -2.1573  1.0411
12540TIP3    H259112   2.973   3.145  12.785  1.3162 -0.5133  0.7437
12541TIP3   OH259113   0.058   6.703   1.263 -0.8588  0.3331 -0.3036
12541TIP3    H159114   0.136   6.743   1.224 -1.0507  0.3100 -0.7047
12541TIP3    H259115   0.092   6.622   1.303 -1.0365 -0.7667 -2.3271
12542TIP3   OH259116   4.278   3.384   3.047  0.2811 -0.0982  0.1302
12542TIP3    H159117   4.352   3.331   3.076 -1.9091 -2.8561  0.8598
12542TIP3    H259118   4.286   3.387   2.952  1.1422 -0.6888  0.1789
12543TIP3   OH259119   4.982   1.003  13.929 -0.3286  0.0725 -0.4791
12543TIP3    H159120   4.917   1.024  13.861 -0.4210  0.4569 -0.2771
12543TIP3    H259121   5.016   0.917  13.904 -1.1348 -0.2678 -0.4278
12544TIP3   OH259122   6.594   4.143   0.231 -0.2644  0.0557 -0.3286
12544TIP3    H159123   6.577   4.050   0.215 -0.6586  0.0911 -0.1220
12544TIP3    H259124   6.542   4.164   0.309 -1.4283  0.8505 -1.3195
12545TIP3   OH259125   2.707   5.318   1.897 -0.4812  0.1007 -0.0688
12545TIP3    H159126   2.624   5.363   1.916 -0.8764  0.4918 -2.5687
12545TIP3    H259127   2.747   5.370   1.828  0.5626 -1.6442 -0.7933
12546TIP3   OH259128   2.604   4.292  11.700 -0.1128  0.6088  0.1106
12546TIP3    H159129   2.574   4.355  11.767 -2.3161  0.8469 -1.0753
12546TIP3    H259130   2.535   4.226  11.698  1.2464 -0.8019 -0.0770
12547TIP3   OH259131   0.148   4.167   2.392 -0.0545 -0.2112 -0.1389
12547TIP3    H159132   0.110   4.085   2.360 -1.1197  1.4085 -3.2570
12547TIP3    H259133   0.242   4.148   2.402 -0.8202 -2.7864  2.6932
12548TIP3   OH259134   7.160   5.428   0.658  0.4506  0.0639 -0.5381
12548TIP3    H159135   7.084   5.404   0.711  0.8167  1.4545  0.6320
12548TIP3    H259136   7.124   5.476   0.584  0.1809  0.5324 -0.0997
12549TIP3   OH259137   5.810   6.080  15.588  0.6289 -0.0955 -0.2953
12549TIP3    H159138   5.866   6.094  15.664  0.4375 -0.7098 -0.0371
12549TIP3    H259139   5.722   6.073  15.625  0.1814  2.2657 -0.8157
12550TIP3   OH259140   3.077   2.873   0.307 -0.0757  0.3939 -0.6660
12550TIP3    H159141   2.995   2.892   0.352  1.1075  0.2238  1.6309
12550TIP3    H259142   3.096   2.953   0.257 -0.3440  1.4146  0.8178
12551TIP3   OH259143   5.704   4.205  12.459 -0.3308 -0.3999 -0.1724
12551TIP3    H159144   5.713   4.125  12.511  1.2286  0.2116  0.5077
12551TIP3    H259145   5.700   4.175  12.369 -0.6732 -1.3080  0.1423
12552TIP3   OH259146   3.051   0.468   1.494  0.2669 -0.0171  0.0551
12552TIP3    H159147   2.975   0.410   1.493  0.6209 -0.4806  0.1904
12552TIP3    H259148   3.044   0.518   1.412  0.7174 -1.2174 -0.7320
12553TIP3   OH259149   0.371   0.375  15.093 -0.4357  0.6072 -0.1233
12553TIP3    H159150   0.429   0.320  15.147 -0.4384 -1.3093 -2.0157
12553TIP3    H259151   0.398   0.465  15.114  2.8120 -0.2067 -0.4893
12554TIP3   OH259152   0.411   5.926  14.969  0.6177 -0.3006 -0.0578
12554TIP3    H159153   0.373   5.991  14.909  2.2686  0.3845 -0.3925
12554TIP3    H259154   0.413   5.970  15.054  0.8523 -0.2542 -0.0869
12555TIP3   OH259155   3.006   4.343  15.096 -0.4452  0.1539 -0.4443
12555TIP3    H159156   2.920   4.358  15.057 -1.3551 -0.7396  1.1434
12555TIP3    H259157   3.060   4.416  15.066 -1.3873  0.0674 -2.4605
12556TIP3   OH259158   5.533   4.185  13.184 -0.0510 -0.4942 -0.5352
12556TIP3    H159159   5.526   4.149  13.095  1.1457  0.1694 -0.9147
12556TIP3    H259160   5.506   4.113  13.241 -1.0791 -0.8373 -1.4510
12557TIP3   OH259161   1.353   5.986   1.139 -0.0306 -0.3799  0.0777
12557TIP3    H159162   1.409   5.965   1.065  0.2361 -0.9632  0.4394
12557TIP3    H259163   1.413   6.003   1.212 -0.2591  1.3904 -0.1357
12558TIP3   OH259164   2.345   4.063   1.121  0.4088  0.7299  0.5788
12558TIP3    H159165   2.251   4.061   1.101  0.3634 -0.0006  0.8542
12558TIP3    H259166   2.349   4.061   1.217  0.6994  1.1887  0.5780
12559TIP3   OH259167   6.070   4.811   0.476  0.0215  0.2731 -0.1482
12559TIP3    H159168   5.980   4.795   0.503  0.6446  1.0502  2.5651
12559TIP3    H259169   6.078   4.907   0.475 -0.4354  0.3647 -4.9023
12560TIP3   OH259170   7.155   5.358  12.730 -0.3688 -0.0719  0.0354
12560TIP3    H159171   7.063   5.330  12.737 -0.0083 -1.4023 -0.4873
12560TIP3    H259172   7.151   5.440  12.681 -1.2214 -0.4665 -0.5667
12561TIP3   OH259173   3.568   0.641  12.139 -0.6501 -0.4464 -0.6944
12561TIP3    H159174   3.586   0.702  12.068  2.4772 -0.0141  0.4297
12561TIP3    H259175   3.597   0.556  12.106  0.8734 -0.2341  0.0841
12562TIP3   OH259176   0.022   4.494   3.844  0.3914 -0.0044 -0.5281
12562TIP3    H159177  -0.010   4.542   3.768 -1.5747 -0.0181  0.2435
12562TIP3    H259178   0.007   4.402   3.822 -0.9119  0.0226  0.1448
12563TIP3   OH259179   4.811   1.968   2.204 -0.5424  0.2933  0.1846
12563TIP3    H159180   4.725   2.006   2.184  0.8114  2.5365 -1.6778
12563TIP3    H259181   4.824   1.987   2.297 -1.3789  1.4289  0.0826
12564TIP3   OH259182   7.144   5.197   3.710  0.5038  0.6600 -0.5341
12564TIP3    H159183   7.183   5.151   3.636  1.4250 -1.2434  1.0541
12564TIP3    H259184   7.216   5.207   3.772 -0.0824  2.8721 -0.1946
12565TIP3   OH259185   6.356   6.449   0.370 -0.4528 -0.5214 -0.2423
12565TIP3    H159186   6.420   6.443   0.298  0.5384 -1.2829  0.6821
12565TIP3    H259187   6.404   6.419   0.447 -1.8768 -0.8933  0.5148
12566TIP3   OH259188   5.573   4.223   3.202  0.0178  0.1386 -0.3537
12566TIP3    H159189   5.630   4.247   3.129 -1.1885 -0.1336 -1.4235
12566TIP3    H259190   5.580   4.127   3.207 -0.8105  0.0332 -0.9217
12567TIP3   OH259191   1.158   3.857  11.697 -0.1552 -0.1038  0.3693
12567TIP3    H159192   1.153   3.761  11.692  2.3351 -0.3080  1.4790
12567TIP3    H259193   1.228   3.881  11.637 -0.2498  0.9803  0.6805
12568TIP3   OH259194   1.374   0.336   2.918  0.0037  0.6967 -0.0491
12568TIP3    H159195   1.291   0.357   2.875 -0.9302 -2.1433  0.2380
12568TIP3    H259196   1.422   0.418   2.920 -1.8638  1.8967 -2.3065
12569TIP3   OH259197   1.225   7.014  13.992  0.3137  0.3751  0.1565
12569TIP3    H159198   1.248   7.090  14.046 -0.7567  0.4381  0.5385
12569TIP3    H259199   1.142   7.039  13.951  0.1135 -0.4772  0.0451
12570TIP3   OH259200   1.270   5.680   1.386 -0.2981  0.4467 -0.1069
12570TIP3    H159201   1.349   5.662   1.335  0.9813  2.2540  1.2060
12570TIP3    H259202   1.264   5.607   1.448 -0.9439 -0.8847 -1.6870
12571TIP3   OH259203   5.469   3.805   2.151  0.4308 -0.1143  0.6051
12571TIP3    H159204   5.397   3.782   2.210  0.8905 -1.5524  0.6299
12571TIP3    H259205   5.431   3.867   2.089 -0.9969 -1.3096  0.2627
12572TIP3   OH259206   0.551   3.907  14.832 -0.2753 -0.3105  0.0830
12572TIP3    H159207   0.587   3.995  14.840 -1.6796  0.5126 -2.2854
12572TIP3    H259208   0.460   3.920  14.807 -0.8181 -2.4453  0.7909
12573TIP3   OH259209   5.994   2.926   5.448  0.4867  0.4715  0.4240
12573TIP3    H159210   6.047   2.933   5.527 -1.2005 -1.0484  1.7364
12573TIP3    H259211   5.930   2.998   5.456 -1.3217 -1.2165  1.7818
12574TIP3   OH259212   0.882   2.095   3.275 -0.6867  0.2472  1.1886
12574TIP3    H159213   0.956   2.130   3.325 -1.2605  2.5094  0.5237
12574TIP3    H259214   0.805   2.133   3.318 -1.1972  2.0060 -1.2014
12575TIP3   OH259215   4.001   5.683  13.478  0.4005  0.3312 -0.8634
12575TIP3    H159216   3.964   5.691  13.567  0.8666  2.0646 -0.8104
12575TIP3    H259217   4.092   5.656  13.492 -0.2575 -2.0929 -0.9370
12576TIP3   OH259218   4.270   5.391   3.893 -0.7691  0.6282 -0.1453
12576TIP3    H159219   4.201   5.351   3.840 -0.1575 -1.9885  0.9758
12576TIP3    H259220   4.274   5.337   3.972  0.0646  2.9490  1.4531
12577TIP3   OH259221   6.469   5.179  15.251  0.4772 -0.1879  0.1046
12577TIP3    H159222   6.517   5.205  15.330 -0.1547  0.5582  0.2502
12577TIP3    H259223   6.431   5.094  15.273 -0.3067  0.3445  0.8872
12578TIP3   OH259224   0.849   5.020  12.677 -0.6926  0.5462 -0.0231
12578TIP3    H159225   0.901   5.100  12.687  2.5487 -1.3042 -1.2987
12578TIP3    H259226   0.895   4.970  12.610 -3.5487 -1.7090 -0.3860
12579TIP3   OH259227   3.002   5.507  14.363  0.4731  0.6552 -0.1568
12579TIP3    H159228   3.076   5.447  14.357 -0.4010 -0.2533 -3.1054
12579TIP3    H259229   2.931   5.455  14.399  0.4053  0.6249 -0.3322
12580TIP3   OH259230   5.613   4.929   1.493 -0.0646 -0.1644  0.1514
12580TIP3    H159231   5.532   4.934   1.544  0.7306 -0.4716  1.4916
12580TIP3    H259232   5.680   4.964   1.553  0.5897  1.2312 -1.3683
12581TIP3   OH259233   0.693   3.890   4.474  0.0840 -0.1872 -0.2705
12581TIP3    H159234   0.606   3.930   4.478 -0.1403 -0.6492 -0.4205
12581TIP3    H259235   0.706   3.870   4.381 -0.3512 -1.6169 -0.0407
12582TIP3   OH259236   0.206   3.410   2.154  0.4964 -0.2720 -0.2986
12582TIP3    H159237   0.220   3.504   2.142 -1.7063  0.0952 -0.2736
12582TIP3    H259238   0.237   3.370   2.072  0.1930  0.6286 -0.8637
12583TIP3   OH259239   3.411   4.958   0.989  0.0354  0.0359 -0.2111
12583TIP3    H159240   3.502   4.990   0.995  0.3464 -0.5795 -1.6198
12583TIP3    H259241   3.404   4.920   0.902 -1.6446  0.2330 -0.1822
12584TIP3   OH259242   6.796   0.236   1.033  0.1215 -0.1963 -0.5659
12584TIP3    H159243   6.777   0.312   0.977 -2.0069 -1.3685 -1.4821
12584TIP3    H259244   6.737   0.247   1.108  1.1536  0.0262  0.2209
12585TIP3   OH259245   6.157   6.895  10.183 -0.5204  0.2529  0.6132
12585TIP3    H159246   6.159   6.990  10.200  1.9637 -0.0268  2.1973
12585TIP3    H259247   6.243   6.877  10.143 -1.0638 -1.3066  0.1399
12586TIP3   OH259248   4.883   4.581  15.023  0.0247 -0.8185  0.1545
12586TIP3    H159249   4.886   4.587  14.928  3.4532  0.0451  0.2886
12586TIP3    H259250   4.871   4.487  15.040 -0.9657 -0.9398 -1.0888
12587TIP3   OH259251   5.094   3.347  15.166  0.1908  0.3452 -0.1745
12587TIP3    H159252   5.004   3.317  15.157  0.2849  0.2569 -0.8197
12587TIP3    H259253   5.129   3.345  15.077  0.9774 -0.0949  0.1375
12588TIP3   OH259254   4.189   3.476  14.183  0.3574  0.3013 -0.3967
12588TIP3    H159255   4.203   3.381  14.187  0.2831  0.2684 -0.9855
12588TIP3    H259256   4.201   3.505  14.274 -0.3124 -0.3714 -0.0781
12589TIP3   OH259257   4.254   6.116   4.299 -0.0017  0.5826  0.6194
12589TIP3    H159258   4.302   6.152   4.373  0.3228  0.6083  0.3992
12589TIP3    H259259   4.170   6.089   4.335  0.1487  0.6116  0.9922
12590TIP3   OH259260   4.042   3.813   2.441  0.3820  0.1058  0.1778
12590TIP3    H159261   3.986   3.767   2.504 -1.4034  1.5657 -0.2840
12590TIP3    H259262   4.123   3.762   2.439 -1.6701 -3.2991 -0.6661
12591TIP3   OH259263   1.057   3.558   4.455  0.0203 -0.2075  0.0768
12591TIP3    H159264   0.975   3.564   4.504  1.0012  0.7986  1.6600
12591TIP3    H259265   1.089   3.469   4.471 -0.1026 -0.1668  0.5495
12592TIP3   OH259266   6.021   4.769   2.551  0.0345 -0.1179  0.1151
12592TIP3    H159267   6.079   4.730   2.486 -1.1609 -1.5172 -0.1305
12592TIP3    H259268   6.012   4.702   2.618 -2.2865 -0.4030 -0.4598
12593TIP3   OH259269   5.693   3.081  13.357  0.3069 -0.3596 -0.1399
12593TIP3    H159270   5.749   3.112  13.428  1.3599 -1.5206 -0.4311
12593TIP3    H259271   5.663   2.995  13.387  0.2688 -0.5901 -0.8376
12594TIP3   OH259272   5.855   6.108  13.563  0.9787  0.1902  0.3053
12594TIP3    H159273   5.776   6.103  13.616 -0.4503 -2.8776 -1.9412
12594TIP3    H259274   5.927   6.112  13.626 -0.7424 -1.6957  2.4685
12595TIP3   OH259275   1.687   6.587   0.115  0.1326  0.2237  0.4364
12595TIP3    H159276   1.781   6.601   0.113  0.3873 -1.4394 -0.7388
12595TIP3    H259277   1.659   6.592   0.023 -0.9590  0.9669  0.7963
12596TIP3   OH259278   6.307   0.766  12.866 -0.4985  0.3178 -0.6716
12596TIP3    H159279   6.352   0.712  12.802 -0.5842  0.3540 -0.7641
12596TIP3    H259280   6.335   0.731  12.951  0.2137  0.7594 -0.7191
12597TIP3   OH259281   4.337   5.917   0.969 -0.3940  0.0923  0.0215
12597TIP3    H159282   4.340   6.000   0.921  2.7243  0.0614  0.0795
12597TIP3    H259283   4.386   5.934   1.050 -2.1190 -1.0318  1.3447
12598TIP3   OH259284   6.283   4.708   1.954 -0.1242 -0.3183 -0.3327
12598TIP3    H159285   6.210   4.706   1.892 -0.2533  1.3874 -0.2764
12598TIP3    H259286   6.360   4.728   1.900 -0.7199  4.6477  0.3393
12599TIP3   OH259287   6.251   2.216   2.905 -0.9237  0.4605  0.0387
12599TIP3    H159288   6.319   2.210   2.839 -0.5241 -3.1276  0.6890
12599TIP3    H259289   6.297   2.238   2.986 -0.4980 -1.9190  0.4687
12600TIP3   OH259290   4.427   5.812   2.900 -0.1950  0.7496  1.0565
12600TIP3    H159291   4.412   5.784   2.810 -2.4127  0.9101  1.3476
12600TIP3    H259292   4.466   5.736   2.943  0.3089  0.4711  0.1257
12601TIP3   OH259293   1.385   1.211   2.043  0.3429 -0.2655 -0.0762
12601TIP3    H159294   1.398   1.139   1.982  1.1185 -1.4915  1.5105
12601TIP3    H259295   1.352   1.170   2.123 -0.2533  1.2611  0.4850
12602TIP3   OH259296   1.246   1.037   3.397 -0.8629 -0.1178 -0.1921
12602TIP3    H159297   1.336   1.053   3.369 -0.3586 -3.3856 -0.6908
12602TIP3    H259298   1.202   1.002   3.319 -2.1060 -0.0810  0.4759
12603TIP3   OH259299   7.115   4.770   3.154 -0.1506  0.2726 -0.5683
12603TIP3    H159300   7.140   4.678   3.158 -0.7379  0.0548 -1.6641
12603TIP3    H259301   7.070   4.779   3.069  1.6429  2.0069 -1.3771
12604TIP3   OH259302   3.964   2.840   0.649  0.0912 -0.2442  0.1560
12604TIP3    H159303   3.943   2.872   0.561  0.0966 -0.0344  0.2314
12604TIP3    H259304   4.051   2.802   0.640  0.1207 -0.1599  0.0873
12605TIP3   OH259305   6.113   1.218  13.415 -0.7550 -0.5147  0.4542
12605TIP3    H159306   6.052   1.253  13.350  1.2317  0.9814 -0.6613
12605TIP3    H259307   6.154   1.144  13.370  0.8272  0.6953 -0.1544
12606TIP3   OH259308   3.040   3.159   2.027  0.0788  0.1219  0.2768
12606TIP3    H159309   3.021   3.214   2.103 -0.7588  0.9986 -0.5586
12606TIP3    H259310   3.037   3.218   1.953 -1.0827 -1.0726 -0.6720
12607TIP3   OH259311   1.161   2.459   0.803 -0.2789 -0.1724  0.2141
12607TIP3    H159312   1.071   2.427   0.799  0.1827 -1.4521 -0.2615
12607TIP3    H259313   1.164   2.530   0.738 -0.6834 -0.8190 -0.5239
12608TIP3   OH259314   2.263   2.471   4.776 -0.2441  0.0762 -0.6635
12608TIP3    H159315   2.231   2.559   4.752  0.6894  0.3346 -0.9716
12608TIP3    H259316   2.358   2.479   4.773 -0.1610 -0.9641 -0.7224
12609TIP3   OH259317   6.257   5.108   3.674  0.1041  0.4049 -0.1466
12609TIP3    H159318   6.327   5.049   3.647 -0.2635 -0.1546  0.1063
12609TIP3    H259319   6.244   5.166   3.599  0.2719 -0.0215 -0.5059
12610TIP3   OH259320   5.650   6.481   1.813  0.0359 -0.0172 -0.2343
12610TIP3    H159321   5.711   6.464   1.885  0.7265  2.5560 -0.1558
12610TIP3    H259322   5.587   6.409   1.818  2.0651 -1.8075  0.7511
12611TIP3   OH259323   5.954   3.608   4.879 -0.2844 -0.4969  0.3762
12611TIP3    H159324   5.884   3.544   4.891 -0.3940 -0.5627 -0.5382
12611TIP3    H259325   5.954   3.659   4.959 -1.6545 -0.2390  0.2213
12612TIP3   OH259326   4.461   6.302   5.578 -0.3468 -0.3218 -0.2818
12612TIP3    H159327   4.415   6.382   5.555 -0.7448  0.4007  2.7704
12612TIP3    H259328   4.394   6.234   5.575  0.0486 -0.6570 -3.1482
12613TIP3   OH259329   2.751   1.583   3.292  0.1050  0.7518  0.0931
12613TIP3    H159330   2.824   1.536   3.332 -0.2327 -0.0852 -0.2547
12613TIP3    H259331   2.676   1.561   3.347 -0.2849 -0.0903 -0.7465
12614TIP3   OH259332   2.821   5.717   2.585  0.2166 -0.1464 -0.3449
12614TIP3    H159333   2.894   5.678   2.537 -0.3959 -1.4337 -0.2474
12614TIP3    H259334   2.768   5.760   2.518  0.8548  0.4648 -0.4614
12615TIP3   OH259335   5.937   6.955  13.506 -0.3156  0.5835 -0.1594
12615TIP3    H159336   5.956   7.044  13.477  0.3369 -0.1676 -2.1915
12615TIP3    H259337   5.990   6.943  13.584  1.5090  1.1939 -1.2678
12616TIP3   OH259338   0.568   2.264   2.388  0.0646  0.8348  0.4648
12616TIP3    H159339   0.527   2.215   2.316 -0.1549  2.2878 -0.4039
12616TIP3    H259340   0.612   2.196   2.440 -0.9289 -0.3944 -0.2555
12617TIP3   OH259341   2.550   4.323   2.606 -0.5328  0.4549 -0.1628
12617TIP3    H159342   2.528   4.292   2.694 -0.6421 -1.6200 -0.9125
12617TIP3    H259343   2.471   4.369   2.577 -0.8034  0.4067  0.4884
12618TIP3   OH259344   3.898   2.461  15.478  0.0494 -0.6068 -0.1421
12618TIP3    H159345   3.898   2.530  15.544 -0.2092  0.7919 -1.5970
12618TIP3    H259346   3.807   2.430  15.476 -0.3644  0.6309 -1.1521
12619TIP3   OH259347   4.830   6.351  15.042 -0.5862  0.2166 -0.2268
12619TIP3    H159348   4.896   6.296  15.083 -0.6097 -0.5713 -1.2244
12619TIP3    H259349   4.878   6.426  15.008  0.1469 -1.2722 -2.6584
12620TIP3   OH259350   6.575   6.485   1.315 -0.2367  0.5684  0.0743
12620TIP3    H159351   6.643   6.466   1.250 -0.0137 -0.3883  0.5788
12620TIP3    H259352   6.607   6.562   1.361  0.8888 -0.3002  0.8036
12621TIP3   OH259353   6.199   5.555   1.452 -0.1487 -0.6048 -0.5558
12621TIP3    H159354   6.112   5.538   1.487  0.1297  2.0783  1.6642
12621TIP3    H259355   6.250   5.478   1.476 -1.4340 -1.3515 -0.1735
12622TIP3   OH259356   1.199   0.517  15.381  0.1946 -0.4398 -0.7286
12622TIP3    H159357   1.169   0.449  15.440 -0.0514 -0.8823 -1.3578
12622TIP3    H259358   1.293   0.525  15.397 -0.1271  0.4948  0.7911
12623TIP3   OH259359   1.933   4.165  15.079 -0.0389  0.0766 -0.4747
12623TIP3    H159360   2.009   4.195  15.029 -0.7847  0.4661 -1.3924
12623TIP3    H259361   1.970   4.132  15.162  1.1251  0.1823 -0.9429
12624TIP3   OH259362   6.796   2.321   3.586  0.1592 -0.2079  0.4788
12624TIP3    H159363   6.867   2.353   3.530 -0.2992  0.7550  0.4319
12624TIP3    H259364   6.717   2.357   3.547 -0.3177 -0.9058  0.7912
12625TIP3   OH259365   4.757   6.000   2.646 -0.4943 -0.3045 -0.3838
12625TIP3    H159366   4.765   5.912   2.683 -0.4541 -0.1969 -0.1331
12625TIP3    H259367   4.824   6.051   2.691 -0.6302 -0.1047 -0.4080
12626TIP3   OH259368   0.957   1.652   4.026  0.2174 -0.0256  0.1319
12626TIP3    H159369   1.001   1.734   4.049 -2.0443  1.1993  0.2556
12626TIP3    H259370   0.909   1.627   4.105 -0.0758 -0.8232 -0.2898
12627TIP3   OH259371   5.183   6.323   2.074 -0.2600 -0.9180  0.3984
12627TIP3    H159372   5.111   6.342   2.013  0.4409  1.5960  0.3195
12627TIP3    H259373   5.143   6.331   2.161 -0.1784  0.1014  0.3474
12628TIP3   OH259374   3.682   3.152   2.683  0.4456 -0.0590  0.1668
12628TIP3    H159375   3.603   3.152   2.630  0.6391 -0.0968 -0.1224
12628TIP3    H259376   3.651   3.157   2.774  0.1537  2.0824 -0.0185
12629TIP3   OH259377   3.122   7.191   3.652 -0.1766 -0.0873  0.2592
12629TIP3    H159378   3.075   7.135   3.591 -0.5602  0.0274  0.4500
12629TIP3    H259379   3.214   7.174   3.633 -0.2926 -0.0914 -0.3147
12630TIP3   OH259380   1.504   1.673   5.334 -0.5469  0.6303 -0.0455
12630TIP3    H159381   1.454   1.752   5.354 -0.7548  0.3579  0.5237
12630TIP3    H259382   1.444   1.601   5.353  0.1932  0.2903  1.0197
12631TIP3   OH259383   6.407   0.493   2.007 -0.1037 -0.5278 -0.4307
12631TIP3    H159384   6.347   0.422   1.984 -0.3834 -0.0924 -1.0637
12631TIP3    H259385   6.441   0.469   2.093 -1.3059 -0.7108  0.0005
12632TIP3   OH259386   2.233   5.623   1.262 -0.1724 -0.1804 -0.1007
12632TIP3    H159387   2.231   5.706   1.213  0.9651  0.4043  0.8086
12632TIP3    H259388   2.151   5.580   1.239  0.0352  0.3814 -1.9944
12633TIP3   OH259389   2.073   3.692   1.986 -0.0699  0.0591 -0.1988
12633TIP3    H159390   2.068   3.612   2.038 -1.9504 -1.3848 -2.5087
12633TIP3    H259391   1.983   3.710   1.960  0.6560  1.4561 -1.8742
12634TIP3   OH259392   4.681   6.494   1.285  0.5628  0.3403 -0.1028
12634TIP3    H159393   4.700   6.407   1.248 -1.6975 -0.1504 -0.2030
12634TIP3    H259394   4.733   6.498   1.365  0.0026 -1.4716  0.3732
12635TIP3   OH259395   6.320   3.844   1.683  0.3371  0.3054  0.0967
12635TIP3    H159396   6.314   3.768   1.625 -0.4363 -0.3416  1.0090
12635TIP3    H259397   6.386   3.900   1.642  1.2205 -1.0428 -0.3636
12636TIP3   OH259398   5.282   5.431   1.216  0.2545 -0.2481  0.1365
12636TIP3    H159399   5.232   5.356   1.184 -0.3271  0.7037 -1.1931
12636TIP3    H259400   5.222   5.505   1.210  1.6795  0.8448 -1.1091
12637TIP3   OH259401   4.094   3.409   0.769  0.0234 -0.2686 -0.2155
12637TIP3    H159402   4.077   3.478   0.705  1.1765 -1.7003 -2.1084
12637TIP3    H259403   4.188   3.417   0.789  0.4358 -1.9845 -1.3372
12638TIP3   OH259404   2.745   6.039   0.312  0.2187 -0.3003  0.6959
12638TIP3    H159405   2.744   6.020   0.218 -2.5921 -0.3744  0.6799
12638TIP3    H259406   2.733   5.954   0.354  1.7716 -0.3056  1.1426
12639TIP3   OH259407   4.114   2.513  14.447 -0.3950  0.0454  0.0855
12639TIP3    H159408   4.061   2.433  14.443 -1.1791  0.5030  1.0354
12639TIP3    H259409   4.131   2.525  14.541  0.4634  0.5177 -0.1297
12640TIP3   OH259410   4.346   4.052   2.749  0.3631  0.1121  0.1527
12640TIP3    H159411   4.317   4.086   2.664  1.5030  1.3142  0.2347
12640TIP3    H259412   4.317   3.961   2.749 -3.7161  1.3284  0.3647
12641TIP3   OH259413   2.022   4.452  12.167 -0.3485 -0.0384 -0.3066
12641TIP3    H159414   1.985   4.493  12.088 -0.5951  1.5939  0.6181
12641TIP3    H259415   1.952   4.396  12.200 -0.4722 -0.2375 -0.9055
12642TIP3   OH259416   5.454   6.238   1.459 -0.2864  0.2114  0.1201
12642TIP3    H159417   5.405   6.297   1.515  0.1952 -0.6546  1.4793
12642TIP3    H259418   5.529   6.289   1.429 -1.8133  1.4309 -1.7005
12643TIP3   OH259419   5.248   4.304   0.375  0.3794 -0.2800  0.0449
12643TIP3    H159420   5.267   4.304   0.281 -1.1540 -1.3335 -0.2907
12643TIP3    H259421   5.313   4.245   0.413  0.5753 -0.3890 -0.4544
12644TIP3   OH259422   1.776   6.175  15.021  0.4003 -0.3020 -0.9609
12644TIP3    H159423   1.795   6.252  15.074  1.2235 -0.0353 -1.6489
12644TIP3    H259424   1.834   6.181  14.946 -0.2696 -1.0463 -1.5582
12645TIP3   OH259425   2.424   3.860  13.861 -0.0757  0.0908 -0.4154
12645TIP3    H159426   2.510   3.865  13.903  0.5168  0.3856 -1.6475
12645TIP3    H259427   2.416   3.769  13.834 -0.1162  0.0858 -0.3878
12646TIP3   OH259428   5.203   0.880   1.366  0.5694 -0.1466 -0.6693
12646TIP3    H159429   5.192   0.830   1.447  1.1017 -2.1352 -1.8121
12646TIP3    H259430   5.193   0.971   1.394 -1.3645 -0.9026  1.2750
12647TIP3   OH259431   3.024   1.503   1.811 -0.1346 -0.0902  0.0742
12647TIP3    H159432   2.998   1.594   1.797 -0.3992 -0.3751 -1.4008
12647TIP3    H259433   3.120   1.504   1.809 -0.1482  0.0864 -0.3524
12648TIP3   OH259434   1.817   3.797   1.003 -0.1935  0.4713  0.0507
12648TIP3    H159435   1.895   3.761   0.961  0.9005  2.2433  0.4883
12648TIP3    H259436   1.851   3.842   1.081 -1.6093  1.5407  0.0602
12649TIP3   OH259437   5.181   0.609   2.004  0.1727 -0.1233  0.0497
12649TIP3    H159438   5.092   0.602   2.040  0.3481  2.7808  1.2066
12649TIP3    H259439   5.237   0.565   2.067 -0.0641  0.9817  1.0372
12650TIP3   OH259440   4.254   4.109   3.296 -0.6366 -0.3552 -0.3822
12650TIP3    H159441   4.315   4.140   3.363 -2.1749  1.8272  0.0474
12650TIP3    H259442   4.247   4.182   3.234  0.5158 -2.2103 -2.8104
12651TIP3   OH259443   1.912   5.561  14.972  0.4129 -0.0662 -0.0471
12651TIP3    H159444   1.919   5.543  15.066 -1.3259 -0.4575  0.0393
12651TIP3    H259445   1.995   5.531  14.935  1.4780  0.9359  1.4822
12652TIP3   OH259446   3.164   3.550   3.798 -0.1553 -0.0950 -0.2139
12652TIP3    H159447   3.183   3.595   3.880 -1.4309 -1.1900  0.6847
12652TIP3    H259448   3.069   3.539   3.797  0.0525 -2.0382 -0.7931
12653TIP3   OH259449   4.268   3.242   5.364  0.2585  0.3833 -0.2193
12653TIP3    H159450   4.281   3.154   5.329  0.2829 -0.0220  0.7851
12653TIP3    H259451   4.344   3.257   5.420 -0.9956  0.0177  1.6221
12654TIP3   OH259452   7.073   4.701   1.706 -0.0721 -0.1219  0.0947
12654TIP3    H159453   7.003   4.697   1.640  0.3463 -1.6520 -0.2783
12654TIP3    H259454   7.065   4.619   1.754 -0.3070  0.9481  1.9228
12655TIP3   OH259455   3.730   1.134  12.754 -0.0888  0.1861  0.4258
12655TIP3    H159456   3.820   1.148  12.783  0.0377  0.4066 -0.0789
12655TIP3    H259457   3.731   1.048  12.713 -0.6987 -1.0066  2.8358
12656TIP3   OH259458   1.775   6.460   2.199  0.3623 -0.5663  0.1350
12656TIP3    H159459   1.811   6.548   2.211 -0.1278 -0.1522 -1.4071
12656TIP3    H259460   1.778   6.422   2.287 -1.0189  1.5803  1.1598
12657TIP3   OH259461   0.564   7.001   5.357 -0.1105 -0.4665 -0.4959
12657TIP3    H159462   0.471   6.978   5.365  0.1126 -1.3334 -0.3818
12657TIP3    H259463   0.611   6.921   5.381  0.6715  0.0248 -0.3695
12658TIP3   OH259464   5.843   2.382  12.996 -0.2034 -0.0738  0.2075
12658TIP3    H159465   5.857   2.475  12.980  1.1497 -0.3541 -0.2983
12658TIP3    H259466   5.764   2.360  12.946 -1.2298  1.0527  1.3112
12659TIP3   OH259467   5.366   5.099  14.370 -0.7529  0.2448  0.1212
12659TIP3    H159468   5.297   5.086  14.434 -1.1748 -0.6066 -0.5055
12659TIP3    H259469   5.391   5.011  14.341  1.9129  0.4015  1.6977
12660TIP3   OH259470   5.319   6.659   1.652 -0.0228 -0.4036 -0.6431
12660TIP3    H159471   5.318   6.564   1.669  0.9835 -0.1952  0.6237
12660TIP3    H259472   5.351   6.667   1.563  1.4545 -1.1885 -0.1946
12661TIP3   OH259473   3.700   0.260  14.004  0.0655 -0.5518  0.8985
12661TIP3    H159474   3.791   0.288  13.995 -0.2514  0.2453  0.0651
12661TIP3    H259475   3.654   0.307  13.934 -0.6961 -2.2220  0.2726
12662TIP3   OH259476   5.953   2.911   2.534  0.3119  0.1856  0.6601
12662TIP3    H159477   5.983   2.991   2.492  1.6405  0.1106  1.4306
12662TIP3    H259478   5.859   2.908   2.516  0.2468  1.9265  0.6402
12663TIP3   OH259479   2.108   3.494  15.416  0.3097  0.0073  0.6311
12663TIP3    H159480   2.077   3.406  15.393  0.5881 -0.0683  0.5399
12663TIP3    H259481   2.198   3.480  15.446  0.9447  0.4723 -0.9920
12664TIP3   OH259482   4.031   2.678  12.322 -0.2485 -0.2867 -0.1621
12664TIP3    H159483   4.046   2.656  12.414 -1.5120 -0.2307  0.0753
12664TIP3    H259484   4.057   2.770  12.315 -1.0167 -0.0258  0.3619
12665TIP3   OH259485   1.862   6.074  13.719  0.6917  0.0548 -0.3321
12665TIP3    H159486   1.792   6.022  13.759  1.4153 -0.3214  0.4744
12665TIP3    H259487   1.867   6.153  13.772  0.3850  0.4101 -0.8360
12666TIP3   OH259488   1.557   2.260   0.935 -1.1648 -0.2719 -0.5399
12666TIP3    H159489   1.490   2.207   0.891  0.2832 -2.0956 -0.6133
12666TIP3    H259490   1.612   2.196   0.980  0.8124  1.1632 -0.8798
12667TIP3   OH259491   4.176   1.374  13.093  0.1319 -0.0884  0.0949
12667TIP3    H159492   4.216   1.287  13.095  0.9215  0.2838  1.6029
12667TIP3    H259493   4.222   1.421  13.024  0.9759 -0.2825  0.5243
12668TIP3   OH259494   3.012   4.872   3.838  0.2356 -0.4136  0.7624
12668TIP3    H159495   2.977   4.821   3.766 -1.4523 -1.2737  2.1546
12668TIP3    H259496   3.011   4.812   3.913  2.5484  0.2613  1.3663
12669TIP3   OH259497   1.704   2.632   1.802  0.4027  0.2143  0.6573
12669TIP3    H159498   1.713   2.718   1.843  0.4836 -0.3256  1.7849
12669TIP3    H259499   1.645   2.647   1.728 -2.8212  0.5032  3.1859
12670TIP3   OH259500   0.850   5.307   0.534 -0.0506  0.5385  0.1211
12670TIP3    H159501   0.906   5.365   0.586 -2.2578  1.1642  1.8890
12670TIP3    H259502   0.816   5.362   0.463  0.8552  0.3924 -0.4277
12671TIP3   OH259503   5.587   6.326   2.120 -0.3982 -0.1025  1.1484
12671TIP3    H159504   5.526   6.387   2.161 -0.5456  1.1570 -0.8691
12671TIP3    H259505   5.532   6.256   2.087 -0.4406 -0.3437  1.7176
12672TIP3   OH259506   3.924   2.332   0.453 -0.1952 -0.0673 -0.3357
12672TIP3    H159507   3.876   2.249   0.451 -1.4673  0.6426  0.0158
12672TIP3    H259508   3.857   2.399   0.440  0.7869  0.9204 -0.4047
12673TIP3   OH259509   6.674   4.427   0.489 -0.1453 -0.3148  0.6016
12673TIP3    H159510   6.762   4.426   0.452 -0.0653  2.6471  0.5802
12673TIP3    H259511   6.617   4.403   0.416  0.5186 -0.8691  0.2594
12674TIP3   OH259512   4.853   3.537  14.983 -0.3966  0.2515 -0.2753
12674TIP3    H159513   4.929   3.480  14.996  0.4128  0.9392 -1.8990
12674TIP3    H259514   4.804   3.496  14.912  0.3581  1.7072 -1.6675
12675TIP3   OH259515   6.696   4.320   1.994 -0.0259 -0.0105  0.3095
12675TIP3    H159516   6.614   4.343   1.951  0.0403 -0.2204  0.0673
12675TIP3    H259517   6.755   4.392   1.975  0.6713 -1.0957 -1.7783
12676TIP3   OH259518   6.462   2.980   0.473  0.2844  0.0918  0.6770
12676TIP3    H159519   6.410   2.937   0.406  0.7757  0.3340  0.1278
12676TIP3    H259520   6.501   3.056   0.428  1.2326 -0.1771  1.0194
12677TIP3   OH259521   0.237   5.656   2.777 -0.1861  0.0513  0.1646
12677TIP3    H159522   0.172   5.719   2.746 -0.3055 -0.2204 -0.1419
12677TIP3    H259523   0.209   5.573   2.739  0.6601  0.0288 -0.4232
12678TIP3   OH259524   7.135   5.434  14.748 -0.6077  0.6374 -0.5606
12678TIP3    H159525   7.152   5.469  14.661 -1.3360  0.5073 -0.7595
12678TIP3    H259526   7.076   5.498  14.789  2.0058  2.1876  0.9020
12679TIP3   OH259527   2.537   3.561   0.753  0.1257 -0.1491 -0.5788
12679TIP3    H159528   2.579   3.642   0.782 -0.6300 -0.7954  2.5322
12679TIP3    H259529   2.606   3.495   0.757 -0.0196 -0.2726 -0.0158
12680TIP3   OH259530   7.092   5.648  14.946 -0.1112 -0.3847  0.3332
12680TIP3    H159531   7.010   5.696  14.955 -0.0242  0.3605 -2.3355
12680TIP3    H259532   7.152   5.690  15.007 -1.1745  0.3091  0.9100
12681TIP3   OH259533   3.149   1.746  15.073 -0.0194  0.0557  0.0461
12681TIP3    H159534   3.243   1.730  15.065 -0.4273 -1.3263 -2.4048
12681TIP3    H259535   3.110   1.659  15.071 -1.3932  0.6539  0.5589
12682TIP3   OH259536   6.534   4.543   3.874  0.1335 -0.3888 -0.1456
12682TIP3    H159537   6.534   4.468   3.933  0.5220  0.0689  0.4500
12682TIP3    H259538   6.625   4.553   3.847 -0.1398 -0.9508 -1.2923
12683TIP3   OH259539   6.172   6.531  15.133 -0.6652  0.0746 -0.4423
12683TIP3    H159540   6.260   6.559  15.108 -0.8269  2.1917  1.3090
12683TIP3    H259541   6.148   6.468  15.065  2.0441 -0.2710 -1.1489
12684TIP3   OH259542   6.049   5.352  12.486  0.7142 -0.5228  0.2165
12684TIP3    H159543   6.103   5.282  12.524 -0.1728 -0.2259  2.1178
12684TIP3    H259544   6.072   5.430  12.536 -1.3467 -0.3657  0.9713
12685TIP3   OH259545   5.798   1.015   1.123  0.5609  0.4012  0.2868
12685TIP3    H159546   5.737   1.053   1.060  0.7437  0.8444  0.3760
12685TIP3    H259547   5.884   1.025   1.083  0.5471 -0.4956  0.0278
12686TIP3   OH259548   5.729   3.234   2.404  0.2673  0.1389  0.5330
12686TIP3    H159549   5.650   3.247   2.351  0.2309 -2.1689 -0.0253
12686TIP3    H259550   5.799   3.224   2.339  1.0706  2.2727  1.0262
12687TIP3   OH259551   3.459   7.016   2.484 -0.2999 -0.4262  0.2841
12687TIP3    H159552   3.482   7.025   2.576  0.1309 -0.0481  0.1399
12687TIP3    H259553   3.410   7.096   2.464  1.0593  0.2909 -0.2495
12688TIP3   OH259554   7.002   6.799   4.134 -0.5214 -0.0222  0.3944
12688TIP3    H159555   7.046   6.880   4.161 -0.9595  0.1036  0.7430
12688TIP3    H259556   6.909   6.823   4.128 -0.8875 -0.8941  2.0957
12689TIP3   OH259557   4.581   5.090   0.555  0.3292  0.8252 -0.2144
12689TIP3    H159558   4.551   5.181   0.559 -0.4367  0.5177  1.1782
12689TIP3    H259559   4.501   5.038   0.563  0.6866  0.0095 -1.6948
12690TIP3   OH259560   6.159   0.193  15.094  0.1970  0.0544  0.1712
12690TIP3    H159561   6.116   0.193  15.179 -0.5839 -0.5358 -0.2148
12690TIP3    H259562   6.088   0.179  15.031  0.8104  0.1355 -0.5564
12691TIP3   OH259563   4.277   6.669   5.038  0.2476  0.0924  0.7305
12691TIP3    H159564   4.310   6.753   5.007  0.5151 -0.3523 -0.2393
12691TIP3    H259565   4.269   6.679   5.132  2.1037  0.5771  0.8562
12692TIP3   OH259566   4.342   4.360   1.680 -0.2709  0.2519 -0.1991
12692TIP3    H159567   4.340   4.274   1.722 -2.8029  0.8729  1.0679
12692TIP3    H259568   4.377   4.344   1.593  0.5193 -1.8549  0.4901
12693TIP3   OH259569   0.507   4.201   3.961 -0.1918  0.0333  0.2149
12693TIP3    H159570   0.576   4.266   3.977  0.2001 -1.0251  3.1201
12693TIP3    H259571   0.438   4.225   4.023 -0.4518 -1.7269  0.6131
12694TIP3   OH259572   0.955   5.711   0.937 -0.1015 -0.1369 -0.2760
12694TIP3    H159573   0.874   5.759   0.955 -1.4772 -2.2098 -0.8618
12694TIP3    H259574   1.012   5.776   0.896 -1.8115  1.1050 -0.7581
12695TIP3   OH259575   0.725   3.092   3.811  0.1684  0.3082 -0.4392
12695TIP3    H159576   0.679   3.132   3.885 -0.5336 -0.6086 -0.3658
12695TIP3    H259577   0.802   3.147   3.798 -0.0655  0.8817  0.5277
12696TIP3   OH259578   0.739   4.227  15.356  0.5169 -0.3013  0.4821
12696TIP3    H159579   0.665   4.258  15.305  0.3424  1.8341  1.9556
12696TIP3    H259580   0.701   4.164  15.418  0.2684 -0.7097 -0.0849
12697TIP3   OH259581   3.405   3.474  15.388 -0.6277  0.3551  0.2759
12697TIP3    H159582   3.340   3.432  15.332  1.5597  0.1129 -2.1633
12697TIP3    H259583   3.403   3.566  15.362  1.3856 -0.0055 -1.2571
12698TIP3   OH259584   3.132   5.903  15.247  0.2039  0.2317  0.2652
12698TIP3    H159585   3.046   5.943  15.256  0.0837  0.3655 -1.3040
12698TIP3    H259586   3.180   5.932  15.324 -1.1312  0.2074  1.1223
12699TIP3   OH259587   4.818   6.665   4.265 -0.1050  0.4986  0.0719
12699TIP3    H159588   4.876   6.608   4.215 -0.8571 -0.1368 -0.0872
12699TIP3    H259589   4.747   6.687   4.204  0.1965  1.6387  0.1158
12700TIP3   OH259590   0.225   2.801   4.773  0.4520 -0.5504 -0.1292
12700TIP3    H159591   0.166   2.860   4.727 -0.5539 -0.4504  1.2652
12700TIP3    H259592   0.313   2.831   4.748 -0.0181  2.2073  1.3178
12701TIP3   OH259593   1.607   1.158  14.146  0.2742 -0.9426  0.6426
12701TIP3    H159594   1.693   1.132  14.113  0.7974  1.0472  0.3998
12701TIP3    H259595   1.570   1.215  14.078 -0.3767 -0.1420  1.6496
12702TIP3   OH259596   0.531   6.331   2.842 -1.2465  0.3341 -0.6442
12702TIP3    H159597   0.559   6.422   2.850  1.4584 -0.4353 -1.0205
12702TIP3    H259598   0.469   6.331   2.769 -2.5494  2.1367  0.4266
12703TIP3   OH259599   5.826   1.543   1.855 -0.0969  0.4377  0.3153
12703TIP3    H159600   5.817   1.553   1.949  1.2044  2.4291  0.2628
12703TIP3    H259601   5.749   1.586   1.819  0.8092  2.1866  0.4068
12704TIP3   OH259602   6.805   1.867   3.173  0.8029 -0.5064  0.2739
12704TIP3    H159603   6.861   1.885   3.248 -1.3768  1.7918  1.4394
12704TIP3    H259604   6.786   1.953   3.135 -0.4585 -1.3817 -1.1683
12705TIP3   OH259605   6.397   4.940   3.517 -0.0632  0.5210  0.6324
12705TIP3    H159606   6.420   4.873   3.581 -0.1212  2.1043  2.3587
12705TIP3    H259607   6.366   4.891   3.441  2.1493 -1.4582  0.9551
12706TIP3   OH259608   0.112   6.048   0.289 -0.3934 -0.2348  0.5683
12706TIP3    H159609   0.061   6.086   0.361 -1.2537  0.9614 -0.6417
12706TIP3    H259610   0.071   6.083   0.209  1.4541 -0.3806 -0.4746
12707TIP3   OH259611   4.594   3.124   1.507  0.0653 -0.6104 -0.1525
12707TIP3    H159612   4.532   3.186   1.545  1.7769  1.1566 -0.2044
12707TIP3    H259613   4.678   3.148   1.544  1.1100 -1.5067 -1.8841
12708TIP3   OH259614   1.216   1.612   1.108  0.3546 -0.0948 -0.3761
12708TIP3    H159615   1.300   1.653   1.090  0.9966 -1.3229 -0.1805
12708TIP3    H259616   1.168   1.677   1.159  1.3823  0.3890 -0.0210
12709TIP3   OH259617   1.649   5.498  15.489 -0.0237 -0.7807  0.2242
12709TIP3    H159618   1.632   5.556  15.563  1.7966 -1.4101  1.1826
12709TIP3    H259619   1.664   5.556  15.415  0.8237 -0.0503  0.9637
12710TIP3   OH259620   6.345   1.470   2.171 -0.5236 -0.4211 -0.8155
12710TIP3    H159621   6.403   1.538   2.137  0.0562 -0.4136  0.1447
12710TIP3    H259622   6.394   1.432   2.245 -1.8495 -0.2577  0.1649
12711TIP3   OH259623   6.652   6.154   1.421  0.2903  0.3422 -0.1444
12711TIP3    H159624   6.620   6.103   1.495  1.8713 -2.4141 -1.2809
12711TIP3    H259625   6.726   6.204   1.457  1.4787 -1.4927  0.0364
12712TIP3   OH259626   3.489   3.929   0.369 -0.2211  0.0913  0.0848
12712TIP3    H159627   3.395   3.914   0.382 -0.3845  1.6799  0.7819
12712TIP3    H259628   3.505   4.015   0.406  0.8330  1.4300 -3.3098
12713TIP3   OH259629   3.042   4.617   0.762  0.0977 -0.7279 -0.0661
12713TIP3    H159630   3.041   4.712   0.761 -2.2074 -0.7077 -2.5409
12713TIP3    H259631   3.134   4.594   0.746  0.2877  1.1379 -1.9351
12714TIP3   OH259632   4.915   5.597   3.151 -0.1148  0.2029  0.3849
12714TIP3    H159633   4.969   5.674   3.131 -0.3681  0.3852  0.3972
12714TIP3    H259634   4.833   5.633   3.183  0.1272 -0.0920  1.3445
12715TIP3   OH259635   3.926   3.821   4.886 -0.1449  0.5620  0.0575
12715TIP3    H159636   4.014   3.784   4.891 -0.0512  0.9719  1.7540
12715TIP3    H259637   3.915   3.868   4.969 -2.1542  0.0888  0.0914
12716TIP3   OH259638   1.837   4.222  12.203  0.5052 -0.3280  0.1633
12716TIP3    H159639   1.807   4.179  12.284 -1.3602 -0.3822 -0.5379
12716TIP3    H259640   1.800   4.169  12.133  0.7995  0.6446 -0.7366
12717TIP3   OH259641   1.481   4.706   2.793 -0.0499 -0.6157 -0.0577
12717TIP3    H159642   1.566   4.750   2.786 -0.5758  0.6653  1.3143
12717TIP3    H259643   1.485   4.660   2.877 -0.6604 -0.6187 -0.0263
12718TIP3   OH259644   5.975   4.836  15.310  0.2002 -0.6020  0.2256
12718TIP3    H159645   5.915   4.789  15.253 -0.5781  0.7520 -0.0876
12718TIP3    H259646   6.058   4.789  15.302 -0.7462 -2.3312  0.4800
12719TIP3   OH259647   4.980   3.359  14.672  0.3173  0.5006 -0.1961
12719TIP3    H159648   4.894   3.401  14.665  0.1353  0.0095 -0.8645
12719TIP3    H259649   4.964   3.283  14.727 -0.0741 -0.6712 -1.9007
12720TIP3   OH259650   6.426   3.759   3.518 -0.2972  0.2079 -0.1361
12720TIP3    H159651   6.349   3.703   3.520  1.8143 -2.7149  2.8227
12720TIP3    H259652   6.413   3.821   3.589 -0.7382  0.9024 -0.8130
12721TIP3   OH259653   6.737   1.213  13.425 -0.0925 -0.4404 -0.0046
12721TIP3    H159654   6.656   1.264  13.429 -0.0131 -0.4411  1.7291
12721TIP3    H259655   6.804   1.278  13.404 -0.5595 -0.4785 -1.7018
12722TIP3   OH259656   2.931   2.249   0.792 -0.1791 -0.3724  0.6695
12722TIP3    H159657   2.926   2.228   0.699  1.9757  1.3332  0.1167
12722TIP3    H259658   2.954   2.342   0.795  0.2321 -0.5037  2.8902
12723TIP3   OH259659   0.159   4.543   1.751 -0.4605  0.3333  0.1073
12723TIP3    H159660   0.078   4.556   1.702 -0.3612 -1.8349 -0.6978
12723TIP3    H259661   0.210   4.622   1.734 -1.7801  1.0613 -0.5890
12724TIP3   OH259662   4.248   5.237   2.505 -0.1005 -0.3760 -0.4041
12724TIP3    H159663   4.260   5.327   2.474 -1.9220 -0.1581 -0.4870
12724TIP3    H259664   4.324   5.221   2.561  0.2977  1.1729 -0.4773
12725TIP3   OH259665   6.583   0.927   0.273 -0.3501 -0.7423  0.3445
12725TIP3    H159666   6.662   0.914   0.220  0.6627 -1.6377  2.0359
12725TIP3    H259667   6.573   1.022   0.280  0.5525 -0.6275  0.0931
12726TIP3   OH259668   6.120   3.140   3.712 -0.5085  0.2232 -0.4491
12726TIP3    H159669   6.128   3.102   3.624 -0.5362 -0.6191 -0.0931
12726TIP3    H259670   6.141   3.232   3.700 -0.3257  0.0767 -1.3123
12727TIP3   OH259671   6.832   5.060   1.793  0.7518  0.7465  0.3775
12727TIP3    H159672   6.817   5.093   1.882 -2.9276  2.7088 -0.8794
12727TIP3    H259673   6.924   5.080   1.775  1.8047 -0.4432  4.0005
12728TIP3   OH259674   5.482   4.428   0.682 -0.2392 -0.3742  0.3457
12728TIP3    H159675   5.459   4.519   0.667 -0.7079 -0.2628  1.6724
12728TIP3    H259676   5.424   4.400   0.753 -0.7426 -1.9629 -0.6733
12729TIP3   OH259677   7.124   3.632   1.082 -0.1920  0.3543 -0.2356
12729TIP3    H159678   7.076   3.671   1.155 -1.1206  1.5756 -1.4706
12729TIP3    H259679   7.155   3.548   1.116  3.2115  2.7660  2.9917
12730TIP3   OH259680   6.862   2.592  12.170 -0.2746  0.6672  0.1123
12730TIP3    H159681   6.814   2.657  12.120 -0.3285  0.7804  0.3129
12730TIP3    H259682   6.953   2.600  12.140 -0.9542 -2.0113 -2.9376
12731TIP3   OH259683   1.412   5.090  12.108 -0.2706 -0.5655 -0.1124
12731TIP3    H159684   1.371   5.130  12.031 -0.2282  1.6703  0.9967
12731TIP3    H259685   1.469   5.021  12.072 -3.1091 -2.1216 -1.8267
12732TIP3   OH259686   3.009   6.156   3.034  0.0947 -0.5207  0.0168
12732TIP3    H159687   3.000   6.226   2.970 -0.4112 -0.8627 -0.2858
12732TIP3    H259688   2.922   6.118   3.042 -0.1706  0.4013  1.9316
12733TIP3   OH259689   0.326   5.232   2.200  0.0856 -0.1245  0.4946
12733TIP3    H159690   0.411   5.196   2.175  0.5843  0.7077  0.9591
12733TIP3    H259691   0.275   5.156   2.226 -0.0059 -0.8606 -1.7397
12734TIP3   OH259692   0.991   6.088   0.414  0.1977 -0.3439 -0.2924
12734TIP3    H159693   1.024   6.060   0.329 -0.4129  1.4785 -1.1571
12734TIP3    H259694   0.902   6.054   0.417  0.3984 -0.8572 -0.1599
12735TIP3   OH259695   1.653   5.932  13.784 -0.3927 -0.2390  0.1737
12735TIP3    H159696   1.602   6.010  13.807  0.5360  0.7380 -1.0279
12735TIP3    H259697   1.602   5.892  13.713  0.9916  1.3091 -1.7540
12736TIP3   OH259698   1.324   4.133   0.577  0.1004  0.1053  0.4391
12736TIP3    H159699   1.304   4.092   0.493 -0.6684  0.6073  0.3765
12736TIP3    H259700   1.325   4.227   0.559  1.0493  0.1617  0.7553
12737TIP3   OH259701   5.183   7.085   3.120 -0.3033  0.8877 -0.5894
12737TIP3    H159702   5.126   7.034   3.063  1.7957 -0.2454 -1.7533
12737TIP3    H259703   5.197   7.030   3.196  2.8112 -0.8565 -2.3088
12738TIP3   OH259704   1.404   0.513   3.516 -0.4109 -0.1830  0.3416
12738TIP3    H159705   1.343   0.527   3.588 -1.3810  1.7386 -0.8252
12738TIP3    H259706   1.442   0.599   3.499  1.3837 -1.0295 -0.0734
12739TIP3   OH259707   3.169   4.423   1.097 -0.2533 -0.0426  0.0513
12739TIP3    H159708   3.212   4.355   1.149  0.2147 -0.1714 -0.5004
12739TIP3    H259709   3.106   4.462   1.157 -1.4243 -1.8097 -0.0107
12740TIP3   OH259710   4.716   7.172  13.603  0.2593  0.1006 -0.0475
12740TIP3    H159711   4.677   7.089  13.631  0.2650 -0.7978 -2.5835
12740TIP3    H259712   4.651   7.211  13.546  1.1864  0.7660 -0.6554
12741TIP3   OH259713   6.179   3.287   0.414  0.3954 -0.2216  0.0909
12741TIP3    H159714   6.253   3.337   0.381  0.4773 -0.9008 -0.7847
12741TIP3    H259715   6.182   3.204   0.366 -0.1728 -0.7713  0.9761
12742TIP3   OH259716   4.740   2.745  15.000 -0.5747  0.8961  0.0634
12742TIP3    H159717   4.821   2.750  15.051 -0.0406 -1.3133 -0.4997
12742TIP3    H259718   4.686   2.682  15.047 -0.2857 -0.7662 -1.7786
12743TIP3   OH259719   2.333   3.468   0.900 -0.6036  0.2245 -0.4561
12743TIP3    H159720   2.393   3.513   0.840 -0.9231  0.6834 -0.4338
12743TIP3    H259721   2.390   3.419   0.958 -0.3228 -0.9863 -1.7304
12744TIP3   OH259722   0.819   1.833   2.254  0.3790 -0.2384 -0.0711
12744TIP3    H159723   0.792   1.759   2.199 -1.3745 -0.2908  0.8414
12744TIP3    H259724   0.818   1.908   2.195 -0.3034 -0.4984 -0.3955
12745TIP3   OH259725   5.149   3.388   2.999 -0.3396  0.1684  0.2704
12745TIP3    H159726   5.098   3.442   3.059 -0.8960  0.3278 -0.3369
12745TIP3    H259727   5.183   3.317   3.053 -0.1281  0.7833  0.9431
12746TIP3   OH259728   2.247   4.147   0.603  0.3364  0.5835  0.6425
12746TIP3    H159729   2.190   4.149   0.680 -1.9414  2.4007 -1.0258
12746TIP3    H259730   2.287   4.234   0.600 -0.2786  0.8216 -0.7419
12747TIP3   OH259731   7.002   4.222  13.204  0.5841 -0.0466  0.0470
12747TIP3    H159732   6.939   4.208  13.134  0.1355  0.7315  0.2964
12747TIP3    H259733   6.958   4.190  13.283  1.8633 -2.8511 -0.3262
12748TIP3   OH259734   3.284   6.999   1.862 -0.7371 -0.5096  0.3153
12748TIP3    H159735   3.302   7.087   1.894 -1.2106 -0.2626 -0.0722
12748TIP3    H259736   3.235   6.957   1.933  1.8176 -1.3872  1.6113
12749TIP3   OH259737   1.286   4.911   0.257 -0.1099  0.1024 -0.5357
12749TIP3    H159738   1.221   4.953   0.314  0.0728  1.8909 -1.5996
12749TIP3    H259739   1.269   4.818   0.266 -0.4899  0.3809  1.9716
12750TIP3   OH259740   2.891   2.645   2.074 -0.6071 -0.3154 -0.0926
12750TIP3    H159741   2.925   2.593   2.002 -1.5118  0.9489 -1.4833
12750TIP3    H259742   2.808   2.604   2.097 -0.2677 -0.7815  0.3078
12751TIP3   OH259743   6.994   4.112  11.903 -0.8031 -0.1505  0.3643
12751TIP3    H159744   7.002   4.025  11.864 -0.6453 -0.9556  2.1737
12751TIP3    H259745   6.917   4.107  11.958  0.6445  0.0640  2.4656
12752TIP3   OH259746   6.268   1.995   1.120  0.2227  0.0305  0.3454
12752TIP3    H159747   6.214   2.003   1.199 -0.4113  0.2037 -0.1015
12752TIP3    H259748   6.205   1.973   1.051  0.8704 -0.8488  0.0322
12753TIP3   OH259749   2.031   0.813  13.730  0.2831  0.0981 -0.2016
12753TIP3    H159750   1.975   0.824  13.653  0.4044 -0.1844 -0.3345
12753TIP3    H259751   2.051   0.902  13.758  0.2153  0.2042 -0.4822
12754TIP3   OH259752   5.964   4.242  13.540  0.5532 -0.2386 -0.3947
12754TIP3    H159753   5.948   4.271  13.630 -0.2274 -1.0279 -0.2747
12754TIP3    H259754   5.878   4.241  13.499  0.5913 -2.1630 -0.4657
12755TIP3   OH259755   6.149   4.534   0.327 -0.0958 -0.3546  0.1447
12755TIP3    H159756   6.118   4.621   0.353  1.1969 -0.3912  1.8664
12755TIP3    H259757   6.075   4.495   0.280 -1.1757  1.1332  0.5694
12756TIP3   OH259758   0.714   6.392  14.433  0.0091  0.0812 -0.0405
12756TIP3    H159759   0.639   6.354  14.388  0.5145 -1.7944  0.6493
12756TIP3    H259760   0.703   6.486  14.424 -2.8756 -0.1477  0.7926
12757TIP3   OH259761   1.635   4.092   0.268 -0.1747 -0.1175 -0.4066
12757TIP3    H159762   1.651   4.160   0.203  0.2582 -0.1559 -0.3407
12757TIP3    H259763   1.685   4.016   0.237 -1.4570 -0.7340 -1.0127
12758TIP3   OH259764   5.001   3.381  13.695  0.2643 -0.6347  0.6953
12758TIP3    H159765   5.045   3.438  13.631  1.5025 -0.7122  1.4571
12758TIP3    H259766   4.915   3.364  13.657  1.1464 -1.0722 -1.1936
12759TIP3   OH259767   6.803   4.052   3.090 -0.0997 -0.6590  0.1070
12759TIP3    H159768   6.748   4.044   3.168 -0.4187 -0.8707 -0.1392
12759TIP3    H259769   6.873   4.112   3.116  0.2147 -1.3116  0.7875
12760TIP3   OH259770   6.429   6.933   3.108  0.5366  0.2209  0.5511
12760TIP3    H159771   6.458   6.905   3.195  0.1139  0.2477  0.7031
12760TIP3    H259772   6.509   6.936   3.056  0.7093 -0.3786  0.7771
12761TIP3   OH259773   1.142   3.733  13.775 -0.2863  0.0318  0.0959
12761TIP3    H159774   1.172   3.806  13.829 -0.6644 -0.0640  0.4427
12761TIP3    H259775   1.168   3.756  13.686  0.1817  0.2773  0.2963
12762TIP3   OH259776   6.803   3.171   4.912 -0.4209 -0.5259 -0.8306
12762TIP3    H159777   6.808   3.193   5.006  2.1469 -1.2678 -0.7461
12762TIP3    H259778   6.732   3.107   4.907 -2.1307  1.2205  0.2375
12763TIP3   OH259779   1.053   2.989   3.738 -0.2955 -0.0613  0.5021
12763TIP3    H159780   0.973   2.949   3.704 -0.0901 -1.1758  1.2824
12763TIP3    H259781   1.108   2.914   3.762  1.2735  0.6755 -0.7008
12764TIP3   OH259782   2.412   1.431  12.666  0.4136 -0.7604 -0.1009
12764TIP3    H159783   2.408   1.441  12.571  0.4408  0.8111  0.0496
12764TIP3    H259784   2.482   1.491  12.694 -1.2201  0.6118  1.1422
12765TIP3   OH259785   5.213   1.968  15.055 -0.1306 -0.4532  0.2392
12765TIP3    H159786   5.145   1.908  15.024  0.5067 -0.2948 -1.4695
12765TIP3    H259787   5.247   2.009  14.976  1.3813  0.0993  1.1644
12766TIP3   OH259788   0.849   2.446  15.076  0.1758 -0.0704  0.6507
12766TIP3    H159789   0.830   2.490  15.159 -1.0152  0.8584 -0.0930
12766TIP3    H259790   0.852   2.353  15.098  1.3662  0.2868  1.9996
12767TIP3   OH259791   0.242   3.041   3.953  0.2608 -0.1337  0.0918
12767TIP3    H159792   0.289   3.032   4.036 -0.0832  0.6392  0.3709
12767TIP3    H259793   0.155   3.072   3.977 -0.5179 -1.8629 -0.3943
12768TIP3   OH259794   4.291   0.771  14.145  0.0100  0.2996 -0.1808
12768TIP3    H159795   4.281   0.677  14.160 -0.9042  0.0892 -1.9680
12768TIP3    H259796   4.202   0.805  14.145  0.2300  0.9035 -1.1243
12769TIP3   OH259797   3.679   7.148  13.881 -0.5514  0.4127 -0.7711
12769TIP3    H159798   3.713   7.225  13.927  0.9105  0.1824 -1.4434
12769TIP3    H259799   3.634   7.184  13.804  0.5113  0.5784 -1.3189
12770TIP3   OH259800   4.504   0.978   2.587 -0.3123 -0.6331 -0.2539
12770TIP3    H159801   4.558   1.051   2.557 -0.5855  0.2480  1.3706
12770TIP3    H259802   4.506   0.916   2.514 -1.2151  1.5901 -2.2320
12771TIP3   OH259803   5.220   1.626   1.559 -0.3333 -0.5079 -0.2454
12771TIP3    H159804   5.276   1.700   1.536  0.5074 -1.4799 -1.3585
12771TIP3    H259805   5.132   1.654   1.535  0.0497 -0.0730 -1.1634
12772TIP3   OH259806   0.998   4.369   1.034  0.8690  0.3289  0.4757
12772TIP3    H159807   1.003   4.278   1.003  1.8318  0.7391 -0.6206
12772TIP3    H259808   1.017   4.364   1.127 -1.5152 -0.8730  0.9504
12773TIP3   OH259809   7.001   6.652   2.407  0.5613  0.0090  0.1635
12773TIP3    H159810   6.977   6.600   2.330 -1.7218  0.5516  0.4516
12773TIP3    H259811   6.929   6.715   2.415  1.5755  0.9602  1.8213
12774TIP3   OH259812   0.165   5.269   0.583  0.1178 -0.1734  0.4354
12774TIP3    H159813   0.182   5.201   0.648  0.7003  0.3109  0.8005
12774TIP3    H259814   0.087   5.315   0.617 -1.4251 -1.8393 -0.7880
12775TIP3   OH259815   4.665   5.821   3.630 -0.1036  0.7010  0.5671
12775TIP3    H159816   4.686   5.727   3.638 -1.1307  0.5015  0.9503
12775TIP3    H259817   4.574   5.823   3.601  0.5651  1.5659 -1.5358
12776TIP3   OH259818   2.951   3.006  10.897 -0.0334  0.1330  0.0261
12776TIP3    H159819   2.973   3.074  10.961 -0.9308  0.2190  0.2561
12776TIP3    H259820   2.868   2.971  10.928  0.0700 -0.5778 -0.4947
12777TIP3   OH259821   4.783   1.971  13.966 -0.3475 -0.2657  0.1442
12777TIP3    H159822   4.789   1.878  13.989  2.1476 -0.4011 -0.9121
12777TIP3    H259823   4.711   2.004  14.020  1.1566 -1.9670  3.3684
12778TIP3   OH259824   3.861   4.851  13.972  0.2383 -0.0628 -0.2768
12778TIP3    H159825   3.904   4.882  14.052  0.2992 -3.0066  0.8835
12778TIP3    H259826   3.934   4.820  13.917 -0.0934 -2.2166  0.4358
12779TIP3   OH259827   1.653   4.625   1.295  0.2603 -0.5374  0.1469
12779TIP3    H159828   1.695   4.585   1.219  0.8664  0.8411 -0.2610
12779TIP3    H259829   1.716   4.611   1.366 -0.0804 -1.3861  0.2785
12780TIP3   OH259830   5.444   7.035  14.253 -0.3035  0.5650 -0.2379
12780TIP3    H159831   5.514   7.003  14.195  0.7043  1.2924  0.5543
12780TIP3    H259832   5.371   7.053  14.194 -1.1059 -3.6375 -0.6709
12781TIP3   OH259833   2.418   4.986  15.233 -0.0895  0.2366  0.2147
12781TIP3    H159834   2.388   4.961  15.146 -2.4202  0.1534  1.0301
12781TIP3    H259835   2.393   4.913  15.290  2.1984 -0.1134  0.8411
12782TIP3   OH259836   5.953   3.809   1.801 -0.0711  0.2969  0.1959
12782TIP3    H159837   5.893   3.775   1.735  0.1598 -1.3481  0.8120
12782TIP3    H259838   6.015   3.863   1.751 -0.2511 -0.4499 -0.8495
12783TIP3   OH259839   4.696   3.953   3.991  0.2963  0.5978  0.0827
12783TIP3    H159840   4.642   3.911   4.058  0.2359 -1.9666 -1.5248
12783TIP3    H259841   4.632   3.990   3.929  0.3610 -0.1568 -0.4383
12784TIP3   OH259842   5.014   2.199   4.043 -0.0743  0.1388 -0.2597
12784TIP3    H159843   4.996   2.179   4.135 -1.4871 -1.2941 -0.8263
12784TIP3    H259844   5.005   2.294   4.037  2.1840  0.5068  1.5129
12785TIP3   OH259845   1.797   0.517  13.937 -0.3026 -0.2611  0.0268
12785TIP3    H159846   1.885   0.555  13.937  0.0535 -1.0650  0.4352
12785TIP3    H259847   1.738   0.592  13.942  0.3413  0.3223 -0.9679
12786TIP3   OH259848   2.572   0.680   1.108 -0.8124  0.1985 -0.9325
12786TIP3    H159849   2.541   0.592   1.127  0.7158 -0.3815 -1.0457
12786TIP3    H259850   2.561   0.690   1.014  0.5140 -0.4918 -1.1770
12787TIP3   OH259851   0.196   6.785   0.750  0.7127 -0.1334 -0.1376
12787TIP3    H159852   0.156   6.790   0.837  1.7589  2.0426  0.2652
12787TIP3    H259853   0.123   6.769   0.691 -0.1671 -0.4617  1.0157
12788TIP3   OH259854   1.429   4.373   0.137  0.3262 -0.0753  0.3637
12788TIP3    H159855   1.447   4.357   0.044 -1.7617 -2.8073  0.3611
12788TIP3    H259856   1.480   4.306   0.183  1.5268  1.4023  1.2368
12789TIP3   OH259857   6.412   2.749  14.861  0.2789 -0.2846 -0.1445
12789TIP3    H159858   6.501   2.785  14.863 -0.0118  0.6530 -2.6446
12789TIP3    H259859   6.407   2.695  14.940  1.6157  3.0146  2.3465
12790TIP3   OH259860   1.102   6.931   3.477 -0.0499 -0.3583 -0.1580
12790TIP3    H159861   1.051   6.997   3.525  1.6864  0.9493 -0.0538
12790TIP3    H259862   1.148   6.883   3.545 -0.5849 -1.0787 -0.2988
12791TIP3   OH259863   7.085   4.527   2.780  0.7851 -0.1758 -0.1919
12791TIP3    H159864   7.035   4.492   2.706 -2.5233  1.6997  1.0454
12791TIP3    H259865   7.098   4.619   2.758 -1.4084  0.7404  2.0535
12792TIP3   OH259866   6.049   4.141   4.028 -0.1554 -0.2060  0.2132
12792TIP3    H159867   6.008   4.226   4.014 -2.7704 -1.0964  2.0460
12792TIP3    H259868   6.138   4.152   3.996 -0.8199  2.8217 -0.7794
12793TIP3   OH259869   6.352   3.243  15.072  0.3779  0.0351 -0.1329
12793TIP3    H159870   6.364   3.189  14.994  0.5973  1.6732 -1.2594
12793TIP3    H259871   6.416   3.210  15.134 -1.3265 -2.8017  0.2274
12794TIP3   OH259872   6.307   3.023   2.275 -0.6145 -0.0198 -0.3289
12794TIP3    H159873   6.387   3.055   2.316  0.4425 -2.1019 -0.7318
12794TIP3    H259874   6.332   3.007   2.184 -2.1328  1.5907 -1.0656
12795TIP3   OH259875   1.190   4.264   2.428  0.2063  0.0847  0.6952
12795TIP3    H159876   1.177   4.341   2.484  0.2783  1.1760 -0.7432
12795TIP3    H259877   1.193   4.190   2.488  3.4984  1.5374  2.4956
12796TIP3   OH259878   6.890   3.343  13.809  0.2489 -0.1347  0.6265
12796TIP3    H159879   6.881   3.257  13.850  1.6568 -0.5840  0.0274
12796TIP3    H259880   6.850   3.332  13.723 -1.2433  0.3443  1.2570
12797TIP3   OH259881   1.974   2.355   1.460  0.2660  0.5453  0.1961
12797TIP3    H159882   1.884   2.333   1.485  0.7598  0.4082  1.9695
12797TIP3    H259883   1.997   2.428   1.518  1.4403  0.2778  0.0649
12798TIP3   OH259884   5.900   2.302   0.889 -0.3120 -0.2258 -0.6238
12798TIP3    H159885   5.828   2.330   0.832  0.1714  0.5145 -0.8652
12798TIP3    H259886   5.967   2.369   0.880  0.3375 -0.8050 -0.2374
12799TIP3   OH259887   5.065   0.526   2.407  0.1840  0.6724 -0.3378
12799TIP3    H159888   5.033   0.536   2.496 -0.6787  0.7391 -0.6509
12799TIP3    H259889   5.115   0.444   2.408 -0.3184  0.3714  0.0626
12800TIP3   OH259890   7.083   5.341  15.106 -0.9428  0.3566  1.4649
12800TIP3    H159891   7.128   5.392  15.039 -1.9113 -1.2352 -0.4613
12800TIP3    H259892   7.005   5.392  15.127 -1.6668 -0.0812 -0.1146
12801TIP3   OH259893   3.996   6.712   0.400 -0.2620  0.3915  0.7009
12801TIP3    H159894   3.967   6.801   0.418 -1.2022 -0.0394  1.3746
12801TIP3    H259895   3.935   6.657   0.449 -0.2870 -0.6594 -0.4822
12802TIP3   OH259896   2.539   1.936  14.376 -0.4655  0.5107  0.4315
12802TIP3    H159897   2.456   1.972  14.408 -2.7790 -3.2410 -0.9249
12802TIP3    H259898   2.543   1.961  14.284 -0.1526  0.6477  0.4846
12803TIP3   OH259899   0.843   1.164  12.216 -0.1475 -0.2724 -0.2466
12803TIP3    H159900   0.816   1.255  12.226 -1.0781 -0.4257 -1.2685
12803TIP3    H259901   0.907   1.165  12.145 -1.6027 -0.6460 -1.6239
12804TIP3   OH259902   2.692   4.133   2.089 -0.2993  0.2584 -0.3987
12804TIP3    H159903   2.664   4.185   2.014 -0.1389 -0.1026 -0.7108
12804TIP3    H259904   2.786   4.119   2.075  0.1111  1.7541  0.8183
12805TIP3   OH259905   5.567   6.910  15.412 -0.0197 -0.4172  0.4613
12805TIP3    H159906   5.535   6.991  15.452  2.3603  0.7809 -0.0201
12805TIP3    H259907   5.541   6.916  15.320 -1.3121 -1.0120  0.7632
12806TIP3   OH259908   1.522   3.776   3.882 -0.1550 -0.6284 -0.2547
12806TIP3    H159909   1.515   3.852   3.940  0.1781  0.0753 -1.1276
12806TIP3    H259910   1.613   3.779   3.850 -0.3735 -0.9364 -0.9113
12807TIP3   OH259911   5.936   5.943  12.430 -0.1087 -0.1474 -1.0643
12807TIP3    H159912   5.850   5.928  12.392 -0.5776 -1.9920  0.6621
12807TIP3    H259913   5.937   5.891  12.510  2.2902  0.5424 -0.5942
12808TIP3   OH259914   6.464   1.948   1.460 -0.4103  0.1514 -0.2687
12808TIP3    H159915   6.373   1.919   1.460 -0.0823 -0.9145  0.0032
12808TIP3    H259916   6.509   1.885   1.403  0.5216 -0.5449  1.2096
12809TIP3   OH259917   3.834   0.405  15.161 -0.4180  0.5864  1.1532
12809TIP3    H159918   3.862   0.323  15.122 -2.9256  0.2986 -0.1510
12809TIP3    H259919   3.878   0.473  15.108 -1.0000  0.1259  0.0500
12810TIP3   OH259920   1.222   4.631   2.434 -0.1291 -0.2617 -0.1595
12810TIP3    H159921   1.305   4.594   2.402  0.3489  1.4156 -0.9366
12810TIP3    H259922   1.214   4.599   2.524  0.9403 -1.1290 -0.3627
12811TIP3   OH259923   1.089   5.939   2.675 -0.1106  0.0339  0.8333
12811TIP3    H159924   1.123   5.903   2.593 -0.9318  1.7940 -0.3235
12811TIP3    H259925   1.092   6.034   2.662  0.0758  0.3428  2.9887
12812TIP3   OH259926   5.182   4.841   4.480 -0.4508  0.5552  0.0126
12812TIP3    H159927   5.219   4.753   4.467 -1.5608  0.5390 -3.3155
12812TIP3    H259928   5.131   4.833   4.561  0.4449 -1.5176  0.4145
12813TIP3   OH259929   0.944   4.853   2.108 -0.5039 -0.0850 -0.0451
12813TIP3    H159930   0.927   4.809   2.025 -1.2500 -1.3912  0.7857
12813TIP3    H259931   0.910   4.942   2.095  0.3769  0.0441 -1.4951
12814TIP3   OH259932   6.221   5.493   0.259 -0.4775 -0.2517 -0.1912
12814TIP3    H159933   6.129   5.467   0.268 -0.4469 -0.4034 -0.3117
12814TIP3    H259934   6.256   5.488   0.348 -0.8555  0.8416  0.0177
12815TIP3   OH259935   6.958   0.847   3.517 -0.8196  0.3542  0.5313
12815TIP3    H159936   6.951   0.844   3.612 -0.6870 -0.3662  0.5172
12815TIP3    H259937   6.939   0.758   3.488 -1.6281  0.7414 -0.1711
12816TIP3   OH259938   1.627   0.435   1.969  0.3917  0.1049 -0.0596
12816TIP3    H159939   1.640   0.508   2.030  0.3857 -0.4921  0.6742
12816TIP3    H259940   1.714   0.417   1.934  0.4905  0.0994  0.1850
12817TIP3   OH259941   0.266   5.433  14.076 -0.5607 -0.5566  0.1533
12817TIP3    H159942   0.284   5.492  14.003 -0.8531 -2.5685 -1.5562
12817TIP3    H259943   0.350   5.391  14.095 -0.9917 -1.7474 -0.5547
12818TIP3   OH259944   7.137   5.884  13.916  0.2133 -0.1432 -0.1528
12818TIP3    H159945   7.103   5.861  13.830  1.1057 -1.5098 -0.1442
12818TIP3    H259946   7.097   5.969  13.935  0.7868  0.6593 -2.3561
12819TIP3   OH259947   4.433   7.036   1.159 -0.6884 -0.0020  0.0802
12819TIP3    H159948   4.350   7.083   1.148  0.3615  2.2644  1.3728
12819TIP3    H259949   4.413   6.964   1.218 -1.9618 -0.1343 -0.4962
12820TIP3   OH259950   6.090   5.214  15.206  0.2477  0.2515  0.4230
12820TIP3    H159951   6.119   5.203  15.297 -0.6508  1.3527  0.8506
12820TIP3    H259952   6.126   5.138  15.160  2.9910  1.0878  1.1202
12821TIP3   OH259953   2.368   1.326   5.156 -0.0122  0.0733  0.2802
12821TIP3    H159954   2.387   1.234   5.134 -0.9692  0.0388 -0.4186
12821TIP3    H259955   2.285   1.323   5.203  0.9143  0.3927  2.0197
12822TIP3   OH259956   5.311   4.698   0.765 -0.2640 -0.2075  0.3101
12822TIP3    H159957   5.266   4.709   0.848 -1.0875  0.5326 -0.2298
12822TIP3    H259958   5.243   4.671   0.704  0.6700 -2.6655  0.2888
12823TIP3   OH259959   0.400   1.061   0.828 -0.1626 -0.5214 -0.1370
12823TIP3    H159960   0.429   1.038   0.739  0.0043 -1.2284  0.1027
12823TIP3    H259961   0.458   1.132   0.854 -0.6439  0.1427 -0.8549
12824TIP3   OH259962   1.617   6.638   1.689 -0.6753  0.1954 -0.2865
12824TIP3    H159963   1.701   6.594   1.674 -0.6007  0.5644 -0.9854
12824TIP3    H259964   1.600   6.686   1.608 -0.9786  1.0809  0.2800
12825TIP3   OH259965   6.683   0.082  12.373  0.0455  0.0421 -0.2420
12825TIP3    H159966   6.737   0.008  12.399  1.1364  1.2492  1.0205
12825TIP3    H259967   6.663   0.127  12.455 -0.0299  1.5084 -1.0494
12826TIP3   OH259968   1.083   5.024   1.640  0.1075  0.7938  0.3824
12826TIP3    H159969   1.024   5.085   1.596 -1.3434 -0.1074  1.0520
12826TIP3    H259970   1.129   4.980   1.569 -0.7707  0.7685 -0.1725
12827TIP3   OH259971   4.286   1.431  14.934  0.3306 -0.0029  1.2262
12827TIP3    H159972   4.247   1.348  14.908  0.2690  0.2804  0.4140
12827TIP3    H259973   4.374   1.430  14.896 -1.4676  2.5682 -3.3924
12828TIP3   OH259974   3.865   1.826   5.123  0.1095  0.0395  0.2742
12828TIP3    H159975   3.790   1.841   5.065 -0.4036  0.2384  0.9897
12828TIP3    H259976   3.879   1.910   5.167 -0.4740 -0.5374  1.5824
12829TIP3   OH259977   4.829   4.585   0.591 -0.7509  0.2415  0.4913
12829TIP3    H159978   4.742   4.570   0.552 -0.1955 -1.1086 -0.2579
12829TIP3    H259979   4.810   4.607   0.682 -1.8675 -0.4143  0.4325
12830TIP3   OH259980   4.902   1.053   2.665 -0.4351  0.1025 -0.1668
12830TIP3    H159981   4.927   1.145   2.657 -2.0745  0.6577  1.0148
12830TIP3    H259982   4.895   1.022   2.574  0.5835  0.9987 -0.5561
12831TIP3   OH259983   1.935   2.531  15.461  0.5152  0.2758 -0.3108
12831TIP3    H159984   1.944   2.575  15.377 -0.2157  0.6711 -0.1891
12831TIP3    H259985   1.977   2.446  15.449  1.0796  0.6311 -0.8438
12832TIP3   OH259986   4.182   4.552   2.269  0.1246  0.3553  0.3906
12832TIP3    H159987   4.095   4.513   2.276  0.1667  0.1808 -0.0242
12832TIP3    H259988   4.210   4.533   2.180 -0.1195  1.9159 -0.0340
12833TIP3   OH259989   5.827   6.097   0.535  0.5105  0.1921 -0.8312
12833TIP3    H159990   5.769   6.132   0.603  0.5478 -1.8841  0.3075
12833TIP3    H259991   5.891   6.045   0.583 -0.0844 -2.1719 -2.4967
12834TIP3   OH259992   4.880   3.139  14.365  0.6431  0.4316  0.6463
12834TIP3    H159993   4.786   3.147  14.377  0.4798 -0.2098 -0.1934
12834TIP3    H259994   4.891   3.061  14.310  1.5259  1.7277 -1.0669
12835TIP3   OH259995   4.036   4.681   1.725  0.4447  0.0503  0.3910
12835TIP3    H159996   4.022   4.724   1.641 -2.8371 -1.1442  0.2839
12835TIP3    H259997   4.130   4.659   1.725  0.2898 -0.9088 -3.4154
12836TIP3   OH259998   3.798   6.159  13.318 -0.0657 -0.4835  0.4616
12836TIP3    H159999   3.771   6.174  13.409  3.6496  1.4437  1.3435
12836TIP3    H260000   3.865   6.090  13.323  1.1186  0.5601 -0.6376
12837TIP3   OH260001   1.666   4.899   0.875  0.9039  0.0627  0.0902
12837TIP3    H160002   1.641   4.819   0.830 -0.1851  1.1187 -1.2102
12837TIP3    H260003   1.762   4.899   0.873  0.8865  0.2567 -2.5794
12838TIP3   OH260004   5.593   4.873   0.332  0.2643  0.1857  0.3074
12838TIP3    H160005   5.669   4.915   0.371  0.3139 -0.0468  0.4612
12838TIP3    H260006   5.627   4.792   0.295  0.3715  0.7549 -0.8882
12839TIP3   OH260007   4.725   4.200   1.746 -0.2310  0.3887  0.3216
12839TIP3    H160008   4.755   4.290   1.755 -0.1404  0.4384 -0.4649
12839TIP3    H260009   4.753   4.174   1.658 -0.0878 -0.4682  0.6191
12840TIP3   OH260010   5.316   4.885   3.321  0.2936  0.1662  0.4133
12840TIP3    H160011   5.333   4.812   3.380  1.1926 -0.5012 -0.6488
12840TIP3    H260012   5.256   4.850   3.255 -0.2375  0.7408  0.5765
12841TIP3   OH260013   2.746   2.932   2.774 -0.3419  0.1578  1.0112
12841TIP3    H160014   2.689   2.919   2.850 -0.6149  0.8355  0.9247
12841TIP3    H260015   2.728   2.855   2.718 -1.0976  0.3093  1.0339
12842TIP3   OH260016   0.375   4.364  14.702  0.3939 -0.4998 -0.4528
12842TIP3    H160017   0.321   4.291  14.672 -1.8027  0.0358  2.0136
12842TIP3    H260018   0.440   4.325  14.760  0.0859 -0.6513 -0.2105
12843TIP3   OH260019   6.255   5.527   3.261 -0.2636  0.2449 -0.7530
12843TIP3    H160020   6.349   5.536   3.247 -0.3639  1.2517 -0.8269
12843TIP3    H260021   6.227   5.614   3.290 -1.1707 -0.0489 -0.7383
12844TIP3   OH260022   5.437   1.677   3.225 -0.2008  0.4142 -0.5186
12844TIP3    H160023   5.522   1.694   3.186 -0.7337  2.5584 -0.7849
12844TIP3    H260024   5.378   1.740   3.184 -1.7461 -0.4414  0.3077
12845TIP3   OH260025   0.970   5.052   2.550  0.0929  0.2460  0.3951
12845TIP3    H160026   1.000   4.975   2.501 -0.9731 -1.3768  2.2102
12845TIP3    H260027   1.037   5.064   2.618  0.5239  1.2462 -0.2012
12846TIP3   OH260028   4.124   5.172   0.640  0.1396 -0.3785 -0.1333
12846TIP3    H160029   4.142   5.266   0.639  1.2375 -0.5878 -1.4613
12846TIP3    H260030   4.029   5.166   0.644  0.0829  0.7816  0.4997
12847TIP3   OH260031   0.508   1.495   0.176  0.6247 -0.5622  0.7666
12847TIP3    H160032   0.504   1.524   0.085  1.1197  1.1392  1.2653
12847TIP3    H260033   0.583   1.435   0.178  0.8809 -0.2752  0.1352
12848TIP3   OH260034   3.063   3.774   2.209  0.3818  0.1090 -0.0792
12848TIP3    H160035   3.100   3.819   2.132  0.3121  0.5119  0.1218
12848TIP3    H260036   3.024   3.694   2.173  1.4073 -0.3102 -0.3073
12849TIP3   OH260037   4.394   5.013  15.345 -0.1641  0.2125  0.2485
12849TIP3    H160038   4.317   5.066  15.366 -0.1404 -0.1241  1.2186
12849TIP3    H260039   4.466   5.077  15.338 -0.5261  0.5275 -0.6803
12850TIP3   OH260040   4.861   0.793  11.922 -0.3975  0.5624 -0.1111
12850TIP3    H160041   4.823   0.833  11.843  0.1412  5.5702  1.9426
12850TIP3    H260042   4.947   0.763  11.894 -0.2650  2.1563 -1.5379
12851TIP3   OH260043   6.912   3.800  14.439  0.4983 -0.1607 -0.0241
12851TIP3    H160044   6.997   3.846  14.440  0.4002  0.0316 -0.2734
12851TIP3    H260045   6.847   3.870  14.431  0.3527 -0.3497 -0.5203
12852TIP3   OH260046   6.602   5.687   2.795  0.0619 -0.1905  0.6654
12852TIP3    H160047   6.600   5.733   2.711 -2.9330  1.3707  1.5161
12852TIP3    H260048   6.594   5.757   2.860 -1.8513 -1.7011  2.1013
12853TIP3   OH260049   5.137   3.279  14.270 -0.5433 -0.0888 -0.3845
12853TIP3    H160050   5.060   3.270  14.326  0.3163 -1.1026  0.6502
12853TIP3    H260051   5.116   3.231  14.190 -2.4809  2.8405 -1.7252
12854TIP3   OH260052   1.048   5.440  14.719 -0.1270 -0.9281 -1.0009
12854TIP3    H160053   1.016   5.355  14.688 -0.8548 -0.7706 -0.6860
12854TIP3    H260054   1.045   5.497  14.642 -0.8587 -0.8421 -0.9098
12855TIP3   OH260055   4.149   6.083  14.399  0.0368 -0.0725  0.2330
12855TIP3    H160056   4.189   6.159  14.442  0.7813 -0.1129 -0.3761
12855TIP3    H260057   4.190   6.081  14.312 -0.2961 -0.9156  0.0980
12856TIP3   OH260058   0.805   2.851   1.334  0.1458  0.1031 -0.2737
12856TIP3    H160059   0.738   2.806   1.386  0.8247  0.5164  0.9713
12856TIP3    H260060   0.757   2.918   1.285 -0.2976  0.6324  0.8826
12857TIP3   OH260061   4.130   5.646   2.426  0.0437 -0.1498  0.0195
12857TIP3    H160062   4.064   5.689   2.371  0.5649 -0.0130 -0.5048
12857TIP3    H260063   4.123   5.689   2.511 -0.9519 -0.5381  0.1445
12858TIP3   OH260064   1.518   6.058   1.917 -0.3572  0.4670 -0.4302
12858TIP3    H160065   1.604   6.075   1.878 -0.4370  0.5747 -0.5594
12858TIP3    H260066   1.457   6.105   1.861 -0.6460 -0.7202 -1.1275
12859TIP3   OH260067   1.471   1.003   1.341  0.0173  0.3325 -0.1757
12859TIP3    H160068   1.376   1.005   1.328  0.0089  0.4543 -0.0926
12859TIP3    H260069   1.492   0.910   1.351 -0.1245  0.3232  0.0407
12860TIP3   OH260070   6.029   1.053   4.468 -0.8035  0.4757  0.2737
12860TIP3    H160071   6.040   1.053   4.372  0.3876  0.4477  0.4013
12860TIP3    H260072   5.939   1.025   4.481 -0.4728 -1.1923 -0.8064
12861TIP3   OH260073   6.421   5.227   0.845  0.2317 -0.6669 -0.7001
12861TIP3    H160074   6.414   5.132   0.841 -1.6408 -0.4711 -2.3623
12861TIP3    H260075   6.355   5.254   0.908  0.5469 -0.4382 -0.4645
12862TIP3   OH260076   6.233   6.242  11.952  0.0776 -0.1489  0.0769
12862TIP3    H160077   6.156   6.298  11.964  1.0594  1.4489 -0.9478
12862TIP3    H260078   6.305   6.293  11.989  1.3013  0.1128 -2.5880
12863TIP3   OH260079   6.582   1.286   2.861 -0.9905 -0.0777 -0.0900
12863TIP3    H160080   6.570   1.332   2.944 -1.9406 -0.8868  0.2333
12863TIP3    H260081   6.506   1.311   2.809 -1.4851 -1.2242  0.0701
12864TIP3   OH260082   7.125   6.084   3.997  0.0717 -0.3042 -0.2389
12864TIP3    H160083   7.129   6.050   3.907 -0.2604  1.7470 -1.0611
12864TIP3    H260084   7.053   6.035   4.037 -1.6157  0.6723 -1.9598
12865TIP3   OH260085   1.299   3.021   1.210  0.7785  0.0396 -0.4535
12865TIP3    H160086   1.231   2.975   1.160  0.7528 -1.1503  0.6284
12865TIP3    H260087   1.367   2.955   1.223  0.1055 -0.1909  2.3708
12866TIP3   OH260088   6.169   0.952   0.638 -0.0035 -0.3430  0.2222
12866TIP3    H160089   6.135   0.870   0.602 -1.7273  1.2641 -1.9316
12866TIP3    H260090   6.236   0.980   0.576  1.6260 -0.8021  1.7162
12867TIP3   OH260091   5.460   5.711   3.641 -0.3678 -0.4200  0.3337
12867TIP3    H160092   5.388   5.746   3.589  1.3053  1.3363 -0.8910
12867TIP3    H260093   5.508   5.655   3.579  0.7324  0.4250  0.4099
12868TIP3   OH260094   0.269   3.178  15.125  0.0872  0.3904  0.2355
12868TIP3    H160095   0.334   3.206  15.061 -0.5200  2.8236  0.6330
12868TIP3    H260096   0.284   3.235  15.200 -2.1254  0.5753  0.5561
12869TIP3   OH260097   2.649   5.935  13.325  0.0864  0.0208  0.0681
12869TIP3    H160098   2.677   5.908  13.238  0.7363  1.3275 -0.1304
12869TIP3    H260099   2.696   5.876  13.384  0.6751  0.0085 -0.4079
12870TIP3   OH260100   4.803   5.775   2.785 -0.0451  0.8157 -0.1998
12870TIP3    H160101   4.772   5.685   2.777 -1.3082  1.4897 -3.2715
12870TIP3    H260102   4.899   5.767   2.785 -0.1404 -0.5893  0.8742
12871TIP3   OH260103   2.191   4.862  14.027 -0.9045  0.0351  0.1996
12871TIP3    H160104   2.126   4.798  13.999 -1.7970  1.2860 -0.6054
12871TIP3    H260105   2.208   4.915  13.949 -0.1457  0.7661  0.8465
12872TIP3   OH260106   3.489   5.488   1.956 -0.0612 -0.7598  0.1810
12872TIP3    H160107   3.542   5.446   1.889  0.6773 -0.4303  0.5535
12872TIP3    H260108   3.472   5.576   1.923  2.3580  0.2457  1.4892
12873TIP3   OH260109   1.622   2.727  14.317  0.2610 -0.2093 -0.0662
12873TIP3    H160110   1.648   2.657  14.377  0.3820  0.0232  0.1492
12873TIP3    H260111   1.703   2.754  14.275  0.4867  1.0444  1.1637
12874TIP3   OH260112   0.791   2.019  14.147 -0.1177  0.0987  0.6991
12874TIP3    H160113   0.846   2.005  14.224 -0.4322 -0.8852  0.7499
12874TIP3    H260114   0.790   1.934  14.103  0.9661  0.9430 -0.9815
12875TIP3   OH260115   2.810   0.841   5.039  0.5999 -0.4635  0.8377
12875TIP3    H160116   2.903   0.848   5.017 -0.1472  3.1445 -1.7860
12875TIP3    H260117   2.801   0.888   5.122  0.8350  1.3012 -0.0939
12876TIP3   OH260118   1.089   0.301  14.942 -0.3151 -0.1662 -0.0871
12876TIP3    H160119   1.126   0.225  14.897 -1.9564 -0.5229 -0.8583
12876TIP3    H260120   1.065   0.361  14.871 -0.9529  0.1663  0.4091
12877TIP3   OH260121   0.944   1.313  14.660 -0.3728 -0.2172 -0.5827
12877TIP3    H160122   0.914   1.380  14.599  0.4274 -0.9341 -1.8017
12877TIP3    H260123   0.972   1.361  14.737 -2.2243  0.6423 -0.4269
12878TIP3   OH260124   3.477   1.595   0.127 -0.6978 -0.2962  0.6175
12878TIP3    H160125   3.431   1.533   0.183 -0.4077 -1.1526 -0.0833
12878TIP3    H260126   3.569   1.588   0.153 -0.6161 -0.4181  0.2978
12879TIP3   OH260127   2.468   5.613   0.210 -0.0520  0.2766 -0.8044
12879TIP3    H160128   2.450   5.617   0.303 -1.9955 -0.0717 -1.1477
12879TIP3    H260129   2.488   5.521   0.193 -1.2867  0.0352 -0.9976
12880TIP3   OH260130   5.142   6.134   3.839  0.4757  0.1858  0.4850
12880TIP3    H160131   5.226   6.125   3.794 -0.0613  1.0357 -0.6890
12880TIP3    H260132   5.138   6.057   3.897  2.2415  0.3665  0.8760
12881TIP3   OH260133   0.941   7.152   0.975 -0.3939  0.0464  1.0629
12881TIP3    H160134   0.959   7.246   0.971  0.8818 -0.0536  3.5972
12881TIP3    H260135   0.845   7.146   0.975 -0.5281  1.1251 -2.1942
12882TIP3   OH260136   6.532   6.929  11.884 -0.1316  0.0224  0.2008
12882TIP3    H160137   6.556   6.925  11.791  0.5226 -0.1185  0.3757
12882TIP3    H260138   6.542   7.021  11.908 -2.8154  0.5633 -0.5265
12883TIP3   OH260139   2.393   1.899   2.021  0.2264 -0.0314  0.1456
12883TIP3    H160140   2.425   1.813   2.047  0.0577 -0.0977  0.1334
12883TIP3    H260141   2.391   1.949   2.103  1.0486  0.1956  0.0309
12884TIP3   OH260142   2.248   0.640   1.032 -0.3816 -0.3386 -0.2344
12884TIP3    H160143   2.178   0.603   1.085  0.2977 -0.7134  0.3992
12884TIP3    H260144   2.260   0.728   1.067  0.7118 -0.9107  0.8751
12885TIP3   OH260145   6.649   1.195   3.399 -0.6474  0.3605  0.3921
12885TIP3    H160146   6.726   1.159   3.354 -0.9389 -0.8985  0.8820
12885TIP3    H260147   6.633   1.279   3.355 -0.2263 -0.3101 -1.0860
12886TIP3   OH260148   5.342   7.158   1.145  0.1082 -0.3899  0.4615
12886TIP3    H160149   5.268   7.180   1.201  0.7193  1.2149  0.6924
12886TIP3    H260150   5.312   7.176   1.056  0.4750  1.1440  0.6202
12887TIP3   OH260151   6.438   6.750  12.591  0.1285 -0.0134  0.5685
12887TIP3    H160152   6.446   6.833  12.545  1.6067 -0.5499 -0.1503
12887TIP3    H260153   6.505   6.694  12.553 -1.7861 -2.0268  0.0203
12888TIP3   OH260154   2.574   4.881   0.824  0.6542 -0.9038 -0.0184
12888TIP3    H160155   2.499   4.822   0.827  0.6079 -0.8662 -0.4304
12888TIP3    H260156   2.598   4.894   0.916  0.1116 -0.8555  0.1190
12889TIP3   OH260157   1.927   6.304   1.504 -0.3578  0.1833 -0.2019
12889TIP3    H160158   2.010   6.352   1.509 -0.7296  0.8319 -0.3183
12889TIP3    H260159   1.954   6.212   1.493  0.3323  0.5566 -1.7404
12890TIP3   OH260160   5.295   6.786  14.696 -0.0487 -0.1029 -0.3954
12890TIP3    H160161   5.371   6.750  14.741 -0.4535 -2.0405 -1.1889
12890TIP3    H260162   5.326   6.804  14.607 -0.3043 -0.2153 -0.5092
12891TIP3   OH260163   5.110   1.244   1.737  0.6808  0.5691  0.2007
12891TIP3    H160164   5.136   1.167   1.787 -0.8633 -1.6415 -2.2332
12891TIP3    H260165   5.187   1.267   1.686  1.2695  0.8511  1.2203
12892TIP3   OH260166   3.031   7.039   5.565  0.3982 -1.2526 -0.0268
12892TIP3    H160167   3.048   6.951   5.532  0.2948 -0.5846 -1.9027
12892TIP3    H260168   3.092   7.095   5.517  1.0559 -0.3971  1.7730
12893TIP3   OH260169   5.861   5.445   4.421 -0.7151 -0.1111  0.0088
12893TIP3    H160170   5.876   5.360   4.462 -1.7606 -0.2681  0.0778
12893TIP3    H260171   5.768   5.463   4.436 -0.9493  0.1616 -1.6357
12894TIP3   OH260172   0.658   4.252   0.752 -0.1438 -0.5485  0.0217
12894TIP3    H160173   0.664   4.329   0.809 -2.3189  0.8740 -1.5772
12894TIP3    H260174   0.738   4.254   0.701  1.2959 -1.1829  2.1780
12895TIP3   OH260175   6.182   5.693   0.943  0.2831  0.1983 -0.6740
12895TIP3    H160176   6.166   5.619   1.003 -0.1493 -1.5982 -2.9498
12895TIP3    H260177   6.268   5.727   0.971  0.7191 -1.4617  0.1123
12896TIP3   OH260178   0.547   0.016   2.186  0.0568 -0.8366  0.1156
12896TIP3    H160179   0.554  -0.080   2.179  1.7561 -0.8182  1.1974
12896TIP3    H260180   0.454   0.034   2.181 -0.1079 -2.1856 -4.5238
12897TIP3   OH260181   7.081   1.867  13.559  0.4538  0.4218 -0.0534
12897TIP3    H160182   7.081   1.892  13.651 -1.1896  0.1173  0.0420
12897TIP3    H260183   7.042   1.942  13.514 -1.1681 -0.4973 -0.1928
12898TIP3   OH260184   6.219   5.592   4.236  0.2216 -0.4284  0.2666
12898TIP3    H160185   6.173   5.537   4.172  2.7899 -2.5618  0.1101
12898TIP3    H260186   6.230   5.676   4.192 -0.9794 -0.8089 -0.7882
12899TIP3   OH260187   0.422   5.922   0.978 -0.2143  0.1213 -0.0089
12899TIP3    H160188   0.507   5.906   0.939 -0.9015 -1.8673 -0.7245
12899TIP3    H260189   0.415   5.858   1.049 -0.4888  1.2912  1.0470
12900TIP3   OH260190   4.847   0.454   1.686  0.0861 -0.1361 -0.0234
12900TIP3    H160191   4.830   0.469   1.779 -0.4441 -1.5727  0.1177
12900TIP3    H260192   4.762   0.470   1.644 -0.1388 -1.3330 -0.0329
12901TIP3   OH260193   6.065   1.279  12.352  0.0841 -0.0782 -0.2566
12901TIP3    H160194   6.147   1.260  12.307 -0.2719  0.2187 -1.0432
12901TIP3    H260195   6.005   1.209  12.326 -0.1585  0.1576 -0.3396
12902TIP3   OH260196   2.454   1.481  14.664 -0.0350  0.1738 -0.4089
12902TIP3    H160197   2.389   1.530  14.715  0.6606  0.6171  0.0512
12902TIP3    H260198   2.411   1.468  14.579 -0.3143  1.4270 -0.4812
12903TIP3   OH260199   0.855   5.384   2.293 -0.8106 -0.6214  0.2414
12903TIP3    H160200   0.764   5.410   2.276 -1.1096 -1.0923  1.0805
12903TIP3    H260201   0.907   5.457   2.260 -1.4774 -0.5005 -0.5637
12904TIP3   OH260202   1.156   4.501   5.524 -0.2450  0.4633  0.3832
12904TIP3    H160203   1.197   4.415   5.518  0.2023  0.4983  2.5694
12904TIP3    H260204   1.207   4.548   5.590 -0.9933  2.1263 -0.1827
12905TIP3   OH260205   7.100   0.061   0.881  0.2062 -0.0528 -0.5301
12905TIP3    H160206   7.061   0.143   0.910  0.3298  0.8536 -2.7710
12905TIP3    H260207   7.109   0.009   0.960 -1.3358  1.4863  0.6982
12906TIP3   OH260208   5.479   3.503   3.531 -0.4710 -0.4395 -0.1483
12906TIP3    H160209   5.437   3.563   3.470 -1.5499 -0.5459  0.4835
12906TIP3    H260210   5.548   3.460   3.480  0.5161  1.5516 -0.5364
12907TIP3   OH260211   6.315   0.209  13.936 -0.3702  0.5219 -0.3204
12907TIP3    H160212   6.363   0.126  13.941 -0.7667  0.2916 -0.3664
12907TIP3    H260213   6.374   0.267  13.888  0.8355  0.9077  1.5923
12908TIP3   OH260214   1.214   5.493   3.748  0.5159 -0.1692 -0.2314
12908TIP3    H160215   1.223   5.579   3.790 -2.9300 -0.0663  0.4614
12908TIP3    H260216   1.152   5.446   3.804  1.2652 -2.6161 -1.3831
12909TIP3   OH260217   5.782   1.512   0.850 -0.4630 -0.5578  0.0063
12909TIP3    H160218   5.865   1.552   0.877 -0.0920 -1.4349  0.1820
12909TIP3    H260219   5.718   1.583   0.855  0.3834  0.2544 -0.6529
12910TIP3   OH260220   1.686   6.059   0.102  0.0204  0.1455 -0.1254
12910TIP3    H160221   1.636   6.085   0.025  0.1561  1.7935  0.3131
12910TIP3    H260222   1.705   6.142   0.147  0.3422 -0.7473  1.4231
12911TIP3   OH260223   0.702   0.381   1.917 -0.6372  0.1651  0.1337
12911TIP3    H160224   0.667   0.466   1.945 -2.9795 -0.5091 -0.6209
12911TIP3    H260225   0.687   0.379   1.823 -0.9132 -1.2265  0.2015
12912TIP3   OH260226   7.144   0.059   0.449  0.1407 -0.2014  0.1827
12912TIP3    H160227   7.185  -0.028   0.441  0.6609  0.1991 -1.9239
12912TIP3    H260228   7.218   0.119   0.457 -0.2065  0.0976  1.1889
12913TIP3   OH260229   4.479   3.723   3.253  0.2214 -0.8003 -0.2674
12913TIP3    H160230   4.389   3.751   3.232  0.4055  0.4375  0.5633
12913TIP3    H260231   4.516   3.796   3.303  1.4314 -1.6461  0.0889
12914TIP3   OH260232   3.442   1.477  13.741  0.1602 -0.6388 -0.0402
12914TIP3    H160233   3.412   1.386  13.740 -1.6250 -0.1061 -2.4424
12914TIP3    H260234   3.537   1.472  13.749  0.4445 -2.9161 -3.4808
12915TIP3   OH260235   0.595   4.951  12.903 -0.6333 -0.1855  0.3343
12915TIP3    H160236   0.511   4.934  12.859 -0.4282 -0.1602 -0.0639
12915TIP3    H260237   0.626   5.033  12.865  0.0793 -0.7311 -0.2799
12916TIP3   OH260238   0.427   3.044   4.176 -0.3840  0.4416  0.2949
12916TIP3    H160239   0.517   3.014   4.188 -1.3997 -2.9770 -0.1825
12916TIP3    H260240   0.404   3.083   4.260  0.8482 -0.5915  1.1380
12917TIP3   OH260241   4.965   1.340  13.164 -0.0189  0.2362 -0.1433
12917TIP3    H160242   4.976   1.320  13.257 -1.1134  1.9407  0.3889
12917TIP3    H260243   4.879   1.383  13.158 -0.0457 -0.0092 -1.9678
12918TIP3   OH260244   3.516   5.057   5.676  0.2438  0.3564  0.1763
12918TIP3    H160245   3.563   4.974   5.669  2.7158  1.6607  0.7163
12918TIP3    H260246   3.478   5.070   5.589  1.4084 -0.4603 -0.4818
12919TIP3   OH260247   6.171   1.900   1.476  0.2395  0.1495  0.1622
12919TIP3    H160248   6.077   1.912   1.490  0.1952  0.1142 -0.0941
12919TIP3    H260249   6.205   1.872   1.561  0.1196  0.7445  0.4100
12920TIP3   OH260250   0.979   1.917   0.971 -0.9396 -0.2422  0.3785
12920TIP3    H160251   0.893   1.925   1.013 -0.1749  1.4026  1.6840
12920TIP3    H260252   1.001   2.006   0.944  1.0418 -0.3770  1.4463
12921TIP3   OH260253   6.361   1.618   0.820  0.4468  0.6709  0.1071
12921TIP3    H160254   6.426   1.586   0.884  2.3282  1.0914 -1.5522
12921TIP3    H260255   6.385   1.709   0.806 -0.9480  1.0276 -0.0248
12922TIP3   OH260256   5.614   5.447  13.043 -0.1584  0.1746  0.2312
12922TIP3    H160257   5.557   5.522  13.027 -0.0567  0.1996 -0.0095
12922TIP3    H260258   5.640   5.457  13.135 -3.4691 -1.8447  1.4805
12923TIP3   OH260259   3.132   6.688   3.203  0.1006 -0.2615 -0.4682
12923TIP3    H160260   3.228   6.685   3.208  0.0746 -0.2523  0.1615
12923TIP3    H260261   3.113   6.695   3.110  0.7137 -0.3142 -0.6030
12924TIP3   OH260262   7.191   4.947  14.417 -0.5495  0.4240  0.0973
12924TIP3    H160263   7.205   4.891  14.494  1.2622  2.8444  1.6022
12924TIP3    H260264   7.143   5.023  14.451  0.3881  1.5846 -1.1128
12925TIP3   OH260265   1.196   6.958   4.998 -0.5462 -0.3535 -0.2341
12925TIP3    H160266   1.249   6.900   4.944  0.0390 -0.3754  0.3589
12925TIP3    H260267   1.117   6.907   5.018 -0.7497 -0.3562 -1.0307
12926TIP3   OH260268   3.685   1.081   1.279 -0.2057 -0.3839 -0.4197
12926TIP3    H160269   3.642   1.128   1.208  0.5028  2.7368  1.0850
12926TIP3    H260270   3.617   1.025   1.316 -0.9747 -0.9138 -2.5644
12927TIP3   OH260271   5.306   3.574   2.530 -0.1914 -0.3010  0.6939
12927TIP3    H160272   5.281   3.633   2.601 -1.8251 -0.8819  0.6045
12927TIP3    H260273   5.402   3.575   2.531 -0.2058  1.1403  1.6946
12928TIP3   OH260274   1.037   6.739  14.622  0.3839  0.6704  0.4388
12928TIP3    H160275   1.019   6.830  14.597  1.9987  0.9775  0.3393
12928TIP3    H260276   1.048   6.693  14.539  0.3606  0.5385  0.5072
12929TIP3   OH260277   6.419   3.013   3.066 -0.0896 -0.2490 -0.3010
12929TIP3    H160278   6.369   3.046   2.991  0.0453 -0.1186 -0.3335
12929TIP3    H260279   6.356   2.960   3.115 -0.2367 -0.1556 -0.3882
12930TIP3   OH260280   4.682   0.364  10.950 -0.0990 -0.2894  0.3020
12930TIP3    H160281   4.663   0.270  10.949  0.0592 -0.3396  1.4946
12930TIP3    H260282   4.767   0.371  10.993  0.3551  0.3292 -0.6726
12931TIP3   OH260283   0.722   6.092   0.387 -0.3755  0.1340  0.1337
12931TIP3    H160284   0.728   6.139   0.304  0.0226  2.6663  1.5484
12931TIP3    H260285   0.659   6.142   0.439 -1.2577 -1.8838  1.0786
12932TIP3   OH260286   3.237   1.034  14.488 -0.6721 -0.3780 -0.4647
12932TIP3    H160287   3.308   1.002  14.433 -0.3003 -0.4435  0.0484
12932TIP3    H260288   3.253   1.128  14.495 -1.3796 -0.1871 -1.4194
12933TIP3   OH260289   1.802   5.710   4.910  0.4453  0.3719 -0.2657
12933TIP3    H160290   1.737   5.653   4.870  0.2841  0.4130 -0.0680
12933TIP3    H260291   1.819   5.670   4.996  1.9775 -0.6187 -1.0100
12934TIP3   OH260292   4.382   5.226   2.235 -0.0184  1.1293  0.0886
12934TIP3    H160293   4.374   5.292   2.303 -1.9626  1.6410 -0.6059
12934TIP3    H260294   4.413   5.148   2.280 -2.5724  1.0632  1.8042
12935TIP3   OH260295   5.871   2.128   1.153 -0.2226 -0.5350 -0.0440
12935TIP3    H160296   5.802   2.125   1.087 -0.0272 -2.6813 -0.1946
12935TIP3    H260297   5.831   2.089   1.231 -0.4125  1.8497  1.0977
12936TIP3   OH260298   5.736   5.736  14.038 -0.5695  0.4680 -0.1803
12936TIP3    H160299   5.683   5.814  14.053 -0.0664  1.7612 -4.3076
12936TIP3    H260300   5.695   5.694  13.962  2.4004 -0.1557 -1.5297
12937TIP3   OH260301   3.651   3.707   3.530  0.2247  0.0246  0.1694
12937TIP3    H160302   3.637   3.767   3.457 -0.1157 -0.8302 -0.4723
12937TIP3    H260303   3.689   3.629   3.490  0.6550 -0.2002  0.9960
12938TIP3   OH260304   2.431   2.115   1.028  0.0863  0.6246  0.7456
12938TIP3    H160305   2.526   2.125   1.033  0.1481  1.3156 -1.4489
12938TIP3    H260306   2.401   2.136   1.117  1.9400  0.6975  1.3919
12939TIP3   OH260307   0.905   6.569   0.122  0.0778  0.1465 -0.0659
12939TIP3    H160308   0.979   6.626   0.142  0.0815  0.1014  0.0510
12939TIP3    H260309   0.941   6.500   0.067 -0.5878  2.1311 -3.1573
12940TIP3   OH260310   5.046   2.105  14.762  1.1546  0.1266  0.3318
12940TIP3    H160311   4.970   2.047  14.774  0.8385  0.8003  1.6577
12940TIP3    H260312   5.120   2.045  14.752  0.6667 -0.5172  0.5193
12941TIP3   OH260313   1.653   6.320   1.479 -0.1347 -0.4325  0.3194
12941TIP3    H160314   1.642   6.332   1.385 -1.4775 -1.1236  0.3735
12941TIP3    H260315   1.747   6.318   1.492  0.0659 -0.7511 -1.0701
12942TIP3   OH260316   6.408   5.566  11.169 -0.2886 -0.3403 -0.2947
12942TIP3    H160317   6.437   5.621  11.243 -1.2163 -1.1620  0.7080
12942TIP3    H260318   6.356   5.625  11.115 -1.9801 -0.3776  1.2121
12943TIP3   OH260319   3.280   6.583  14.207  0.1525 -0.3578  0.0201
12943TIP3    H160320   3.188   6.599  14.187 -0.1166  1.6371  2.5859
12943TIP3    H260321   3.327   6.608  14.128 -1.3355  1.0757 -0.4376
12944TIP3   OH260322   5.741   7.009   3.126 -0.8504  0.3386  0.4136
12944TIP3    H160323   5.816   7.058   3.159  1.2237 -1.9500 -0.7015
12944TIP3    H260324   5.746   7.019   3.031 -0.8405 -1.3583  0.2186
12945TIP3   OH260325   4.945   6.194   1.902  0.0089 -0.3118 -0.0697
12945TIP3    H160326   4.934   6.116   1.848  0.9619 -0.5088  0.0127
12945TIP3    H260327   4.911   6.265   1.848  1.7221 -0.3859 -1.2849
12946TIP3   OH260328   3.305   2.840   0.891 -0.3807  0.5084 -0.8320
12946TIP3    H160329   3.344   2.822   0.806 -1.5685 -1.0228 -1.0519
12946TIP3    H260330   3.253   2.920   0.877 -1.5448 -0.4151 -1.8478
12947TIP3   OH260331   1.660   4.664  14.757  0.1504  0.1224  0.1279
12947TIP3    H160332   1.706   4.581  14.768  0.8830  0.6950  1.5081
12947TIP3    H260333   1.687   4.695  14.671 -1.6813 -2.0117 -1.2580
12948TIP3   OH260334   2.980   6.089  14.940  0.0937  0.3984 -0.0170
12948TIP3    H160335   3.067   6.066  14.907  0.9295  1.3445  1.4770
12948TIP3    H260336   2.970   6.037  15.019 -1.9444 -1.9401 -1.7597
12949TIP3   OH260337   1.460   0.309   1.001 -0.5631  0.7093 -0.1330
12949TIP3    H160338   1.485   0.344   1.086  0.7820 -0.0721 -0.2042
12949TIP3    H260339   1.540   0.274   0.964 -1.0605  1.3098 -1.8709
12950TIP3   OH260340   0.229   3.993   3.105  0.4102  0.6661 -0.4344
12950TIP3    H160341   0.187   3.997   3.191  0.4071  0.3566 -0.4199
12950TIP3    H260342   0.320   4.015   3.121 -0.0144  2.6419 -0.6610
12951TIP3   OH260343   0.088   1.249   1.318 -0.2939  0.4231 -0.8005
12951TIP3    H160344   0.006   1.278   1.357 -0.5849 -1.4703  0.0619
12951TIP3    H260345   0.154   1.265   1.385 -0.1300  0.9653 -1.0913
12952TIP3   OH260346   3.235   5.860   1.928 -0.5113  0.0765 -0.1159
12952TIP3    H160347   3.176   5.868   2.004  0.4775  0.0314  0.6672
12952TIP3    H260348   3.261   5.950   1.908  0.4513 -0.0313  0.5901
12953TIP3   OH260349   3.493   1.357   3.595 -0.1170  0.7201  0.3286
12953TIP3    H160350   3.419   1.371   3.536  0.0740  0.6986  0.0849
12953TIP3    H260351   3.542   1.439   3.592  1.8718 -0.4941 -2.3161
12954TIP3   OH260352   5.680   0.190   2.228  0.0725  0.4408 -0.2612
12954TIP3    H160353   5.653   0.271   2.185  0.1491 -0.0307 -1.2124
12954TIP3    H260354   5.600   0.137   2.230  0.0280  0.5328  0.3377
12955TIP3   OH260355   2.559   3.350   1.893 -0.2264  0.0424 -0.2957
12955TIP3    H160356   2.533   3.373   1.982 -0.6957  1.7875 -0.8676
12955TIP3    H260357   2.503   3.276   1.869 -0.2770 -0.2610  0.7523
12956TIP3   OH260358   1.129   3.134   0.908  0.5297  0.4025 -0.6262
12956TIP3    H160359   1.122   3.084   0.990 -3.5405  0.3206 -0.9060
12956TIP3    H260360   1.183   3.080   0.851 -2.1416 -2.8221 -0.2436
12957TIP3   OH260361   0.579   1.599  15.113  0.5192 -0.3197 -0.0682
12957TIP3    H160362   0.487   1.594  15.138  0.7254 -1.1957  0.5333
12957TIP3    H260363   0.625   1.547  15.179  1.4642  0.2385 -0.2778
12958TIP3   OH260364   1.863   5.309  15.427 -0.2749  0.1465 -0.0111
12958TIP3    H160365   1.855   5.214  15.439 -0.5016 -0.1637 -2.4474
12958TIP3    H260366   1.784   5.345  15.468  1.1147 -0.4402  3.3686
12959TIP3   OH260367   5.341   5.939   1.574  0.0336 -0.0025 -0.3587
12959TIP3    H160368   5.401   5.902   1.510  1.1208  0.6070  0.2977
12959TIP3    H260369   5.342   6.033   1.556  0.3366  0.1704  0.5295
12960TIP3   OH260370   7.059   6.335  14.545 -0.1735  0.1677 -0.1533
12960TIP3    H160371   7.079   6.243  14.560 -0.9707  0.1403  0.7821
12960TIP3    H260372   7.139   6.382  14.569 -0.1176 -0.1994  0.3825
12961TIP3   OH260373   6.379   5.438   2.703 -0.1387 -0.2325 -0.1465
12961TIP3    H160374   6.410   5.525   2.677  1.7020 -0.1938  2.0953
12961TIP3    H260375   6.427   5.377   2.646  0.8508  0.0690  0.3558
12962TIP3   OH260376   3.192   5.527   1.186  0.0776 -0.7294  0.3063
12962TIP3    H160377   3.281   5.517   1.221  0.5714  0.7562 -0.4569
12962TIP3    H260378   3.197   5.489   1.098  0.2911  0.4255 -0.1926
12963TIP3   OH260379   1.895   5.112   0.848  0.4833 -0.0399 -0.8121
12963TIP3    H160380   1.968   5.151   0.896 -0.6281  0.3419  0.6164
12963TIP3    H260381   1.906   5.018   0.858  1.7251 -0.0434 -2.0654
12964TIP3   OH260382   1.950   3.772   1.566  0.7079 -0.2954  0.0724
12964TIP3    H160383   1.984   3.825   1.638  0.2626  1.1745 -0.7873
12964TIP3    H260384   2.024   3.717   1.540  1.2724  0.1353  0.7406
12965TIP3   OH260385   1.172   6.793  12.702 -0.0590  0.7287 -0.1267
12965TIP3    H160386   1.216   6.740  12.769 -0.4464 -0.6489 -0.9342
12965TIP3    H260387   1.232   6.865  12.685  1.2350 -0.3271 -0.1459
12966TIP3   OH260388   1.969   4.764  11.222 -0.0948 -0.1731  0.1423
12966TIP3    H160389   1.915   4.731  11.293 -0.0081 -3.0814 -1.0966
12966TIP3    H260390   1.906   4.804  11.161 -0.5431 -1.0047  0.0610
12967TIP3   OH260391   2.113   2.515   5.260 -0.0585  0.3443 -0.2797
12967TIP3    H160392   2.033   2.475   5.293 -0.5663  1.2224 -0.4302
12967TIP3    H260393   2.092   2.542   5.170  0.2916  0.8888 -0.2060
12968TIP3   OH260394   6.086   4.482  14.776 -0.1695  0.1408 -0.2750
12968TIP3    H160395   6.028   4.414  14.810  1.1275 -1.4855 -1.1907
12968TIP3    H260396   6.089   4.549  14.844 -0.8723 -1.0983  0.9837
12969TIP3   OH260397   2.703   6.626  14.420  0.0015 -0.1867 -0.2578
12969TIP3    H160398   2.770   6.602  14.483 -1.4118 -0.0534  1.3296
12969TIP3    H260399   2.685   6.545  14.371  1.6136 -0.1095 -0.9912
12970TIP3   OH260400   4.168   5.995   0.449  0.2652  0.3688 -0.3459
12970TIP3    H160401   4.241   5.959   0.398 -1.2449 -0.9179 -1.6655
12970TIP3    H260402   4.188   6.088   0.457  2.6671 -0.1687  0.3877
12971TIP3   OH260403   1.868   3.903   0.616  0.6171  0.4262  0.0334
12971TIP3    H160404   1.778   3.928   0.595  1.2069  2.0127 -0.6589
12971TIP3    H260405   1.876   3.813   0.586 -1.0212 -0.0567  0.9637
12972TIP3   OH260406   4.959   6.461   0.900  0.2073  0.0865 -0.2664
12972TIP3    H160407   4.897   6.412   0.844  0.5121  0.0882 -0.6074
12972TIP3    H260408   4.990   6.532   0.844  1.4675 -0.6438 -0.5087
12973TIP3   OH260409   6.547   6.845   3.353  0.3742  0.0251 -0.4056
12973TIP3    H160410   6.604   6.769   3.340  1.1262  0.4146  0.5570
12973TIP3    H260411   6.462   6.807   3.378  0.6805 -0.5071 -0.1676
12974TIP3   OH260412   0.204   7.136   1.285  0.3338  0.1282  0.4165
12974TIP3    H160413   0.180   7.195   1.356 -0.7664 -0.0300  0.1786
12974TIP3    H260414   0.220   7.052   1.328 -0.8895 -0.1090  0.4060
12975TIP3   OH260415   2.074   4.674  10.139 -0.3490  0.1359 -0.1266
12975TIP3    H160416   2.121   4.592  10.124 -1.2727 -0.4330  0.0143
12975TIP3    H260417   2.106   4.705  10.224  0.8126  0.4985 -0.6884
12976TIP3   OH260418   5.874   4.989  12.520 -0.0236 -0.1079  0.3715
12976TIP3    H160419   5.863   5.084  12.529 -0.9877 -0.3385  1.7160
12976TIP3    H260420   5.876   4.975  12.425 -1.8307  1.0548  0.1159
12977TIP3   OH260421   0.148   1.014   6.368 -0.0910  0.2435  0.4532
12977TIP3    H160422   0.114   1.099   6.395  0.6727  0.6971 -0.0077
12977TIP3    H260423   0.232   1.033   6.327  1.2528 -0.9670  2.5322
12978TIP3   OH260424   3.111   6.569   0.528 -0.4555 -0.1844 -0.6349
12978TIP3    H160425   3.143   6.481   0.509  0.2149 -0.2571  0.7521
12978TIP3    H260426   3.149   6.624   0.460  3.2274 -0.1702  1.3042
12979TIP3   OH260427   6.154   1.318   3.849  0.2801  0.0454  0.0445
12979TIP3    H160428   6.096   1.309   3.925  2.1699  1.4128  1.6946
12979TIP3    H260429   6.239   1.286   3.880  0.7233 -0.7652 -1.9689
12980TIP3   OH260430   1.152   4.198   4.124  0.0992 -0.5928  0.0319
12980TIP3    H160431   1.171   4.151   4.043  1.2638 -2.6030  1.4263
12980TIP3    H260432   1.237   4.206   4.167 -0.7419 -1.0180  1.8148
12981TIP3   OH260433   2.748   6.335  15.086  0.0563  0.3486 -0.3841
12981TIP3    H160434   2.731   6.247  15.053  2.1778  0.2467 -1.3013
12981TIP3    H260435   2.702   6.339  15.170 -0.9282 -1.2701 -0.8401
12982TIP3   OH260436   5.450   0.721   2.688 -0.6678 -0.4940 -0.9920
12982TIP3    H160437   5.499   0.640   2.706 -0.0424  0.4215  1.6346
12982TIP3    H260438   5.359   0.698   2.706 -0.4149 -0.4766  0.4170
12983TIP3   OH260439   4.975   5.678   0.018 -0.4742  0.3599 -0.3756
12983TIP3    H160440   4.895   5.690   0.069  0.7548  0.4501  1.5764
12983TIP3    H260441   5.042   5.656   0.083  1.3733  1.5460 -1.8270
12984TIP3   OH260442   2.687   3.119  14.000 -0.1317 -0.7452  0.3769
12984TIP3    H160443   2.660   3.138  13.910  0.9434 -0.9564  0.0113
12984TIP3    H260444   2.670   3.025  14.011  4.3025 -1.8380 -1.2312
12985TIP3   OH260445   5.154   3.413   1.720  0.1954 -0.0690 -0.3413
12985TIP3    H160446   5.187   3.486   1.771 -2.1952  0.1927  0.9054
12985TIP3    H260447   5.072   3.445   1.681  2.0130 -0.2009 -4.5559
12986TIP3   OH260448   0.934   3.213   1.982 -0.2975 -0.5133 -0.2741
12986TIP3    H160449   0.872   3.142   1.999  0.9653 -1.7286 -0.6518
12986TIP3    H260450   0.911   3.244   1.894  0.6270 -2.0319 -1.0751
12987TIP3   OH260451   1.444   2.811   2.509 -0.1892  0.3822  0.2743
12987TIP3    H160452   1.406   2.817   2.421 -0.3622 -0.5352  0.2896
12987TIP3    H260453   1.483   2.724   2.514  1.3725  1.0673  0.4963
12988TIP3   OH260454   0.581   4.887  13.738  0.0588 -0.3881 -0.0712
12988TIP3    H160455   0.649   4.855  13.680 -1.3770 -1.2974 -1.2829
12988TIP3    H260456   0.575   4.822  13.807 -0.9634 -1.3561 -1.0566
12989TIP3   OH260457   2.018   4.727  15.354 -0.6706  0.3514  0.3085
12989TIP3    H160458   1.972   4.741  15.271 -1.0843 -1.0055  0.3015
12989TIP3    H260459   2.037   4.633  15.355  1.4027  0.7613  0.6900
12990TIP3   OH260460   1.406   5.907   2.926  0.0941 -0.1519 -0.3172
12990TIP3    H160461   1.403   5.991   2.880 -0.1784 -0.7304 -1.3746
12990TIP3    H260462   1.360   5.924   3.008 -1.4626  0.2948 -1.2559
12991TIP3   OH260463   1.571   6.278   1.732 -0.5325 -0.3166  0.8041
12991TIP3    H160464   1.599   6.273   1.640  4.4717 -0.0049  2.1595
12991TIP3    H260465   1.514   6.355   1.735 -2.8914 -1.7887 -2.4454
12992TIP3   OH260466   4.269   0.604   2.094 -0.2902 -0.1597 -0.5492
12992TIP3    H160467   4.293   0.511   2.096 -0.0386 -0.0872 -0.2332
12992TIP3    H260468   4.300   0.635   2.008 -0.6297 -0.4346 -0.7729
12993TIP3   OH260469   3.935   0.174   1.710 -0.0559  0.2070  0.2566
12993TIP3    H160470   3.939   0.081   1.687 -0.7152  0.7113 -2.0223
12993TIP3    H260471   4.015   0.211   1.673  0.8263  0.3398  2.2495
12994TIP3   OH260472   2.729   1.667  15.366 -0.1417  0.1286 -0.7513
12994TIP3    H160473   2.725   1.576  15.338  1.4750 -0.0724 -0.3667
12994TIP3    H260474   2.665   1.712  15.311  0.5999 -0.8459 -2.4481
12995TIP3   OH260475   6.543   1.054  14.997 -0.6956 -0.0426 -0.4868
12995TIP3    H160476   6.477   0.987  15.014 -0.5527 -0.8357 -2.8341
12995TIP3    H260477   6.552   1.101  15.080  0.5541 -4.0995  1.8056
12996TIP3   OH260478   1.177   5.033   1.386 -0.3751 -0.0794 -0.2710
12996TIP3    H160479   1.259   5.015   1.341  0.0061  0.2010  0.2963
12996TIP3    H260480   1.125   4.953   1.376  0.1889 -0.4601 -0.1602
12997TIP3   OH260481   5.387   2.677  15.583  0.3122  0.6685  0.2753
12997TIP3    H160482   5.404   2.728  15.504  1.2011  0.0810  0.0838
12997TIP3    H260483   5.371   2.588  15.551 -0.4554  0.6651  0.6697
12998TIP3   OH260484   1.858   5.369   5.441  0.2685 -0.1259 -0.4807
12998TIP3    H160485   1.811   5.445   5.407 -1.2627 -1.7421 -2.0949
12998TIP3    H260486   1.871   5.388   5.534 -2.2685  1.0375 -0.3201
12999TIP3   OH260487   3.833   1.624   0.717  0.3354  0.1364  0.2759
12999TIP3    H160488   3.751   1.654   0.756  0.6443  0.0473  0.9996
12999TIP3    H260489   3.874   1.569   0.784 -0.0489 -1.6284 -0.9096
13000TIP3   OH260490   1.817   0.692   5.265  0.2458 -0.4863 -0.0579
13000TIP3    H160491   1.867   0.646   5.333 -1.0836 -2.9145 -0.6735
13000TIP3    H260492   1.726   0.681   5.290 -0.1119  2.6927  0.2651
13001TIP3   OH260493   3.596   2.151   2.055  0.0949  0.0717  0.2998
13001TIP3    H160494   3.603   2.244   2.075 -0.0320  0.2735 -0.5719
13001TIP3    H260495   3.554   2.148   1.969  0.7700 -0.7749 -0.0055
13002TIP3   OH260496   1.335   4.607   0.339 -0.5194  0.7626 -0.6106
13002TIP3    H160497   1.412   4.663   0.333  2.1801 -2.4756  2.3363
13002TIP3    H260498   1.356   4.532   0.283 -0.2990 -1.4247  2.3234
13003TIP3   OH260499   4.742   6.098   0.411 -0.4019 -0.0348  0.3675
13003TIP3    H160500   4.804   6.153   0.364 -0.3193 -0.7110 -0.3252
13003TIP3    H260501   4.671   6.157   0.434 -0.5569  0.2724 -0.8260
13004TIP3   OH260502   5.712   1.931   3.188 -1.1504 -0.0478  0.4130
13004TIP3    H160503   5.754   1.907   3.270  1.2973  0.6773 -0.6024
13004TIP3    H260504   5.719   1.853   3.132  0.1768  0.5481 -0.2688
13005TIP3   OH260505   3.958   7.098  15.382 -0.6230 -0.3154  0.1551
13005TIP3    H160506   4.025   7.141  15.434  1.4044 -1.2101 -1.6593
13005TIP3    H260507   3.886   7.161  15.378  0.5313  1.0765  1.2337
13006TIP3   OH260508   0.470   7.039   0.301 -0.0869  0.0510 -0.3204
13006TIP3    H160509   0.540   7.086   0.256 -0.6374  1.2412  0.0742
13006TIP3    H260510   0.485   7.056   0.394 -0.6270 -0.0879 -0.2077
13007TIP3   OH260511   4.968   3.458  15.539 -0.3044 -0.3031 -0.5926
13007TIP3    H160512   4.987   3.392  15.472 -0.7910  0.0891 -1.1200
13007TIP3    H260513   5.052   3.473  15.582 -0.3460 -1.8010  0.0151
13008TIP3   OH260514   0.936   2.027  13.647 -0.3474 -0.0304 -0.1790
13008TIP3    H160515   0.998   2.025  13.573 -0.4628  1.0035 -0.3093
13008TIP3    H260516   0.920   2.120  13.662 -1.5686 -0.2825  0.1149
13009TIP3   OH260517   2.206   0.287  13.278 -0.3240  0.0125  0.4501
13009TIP3    H160518   2.282   0.301  13.334 -0.4255 -1.0195  0.8447
13009TIP3    H260519   2.189   0.373  13.240  1.9642 -0.0403 -0.8104
13010TIP3   OH260520   1.141   5.267  13.807  0.3230 -0.0449  0.2345
13010TIP3    H160521   1.080   5.310  13.868  1.1566 -0.4538  1.3666
13010TIP3    H260522   1.102   5.181  13.792  0.7287 -0.3905  1.1340
13011TIP3   OH260523   0.360   0.585   3.376 -0.0796  0.5898 -0.2945
13011TIP3    H160524   0.400   0.671   3.380 -0.9815  1.0226 -0.4171
13011TIP3    H260525   0.361   0.563   3.282  2.1909 -0.5235 -0.0437
13012TIP3   OH260526   1.405   0.052  14.751  0.5853  0.0126  0.1891
13012TIP3    H160527   1.458   0.132  14.754  2.6159 -1.2108 -1.3598
13012TIP3    H260528   1.402   0.030  14.658 -0.9012 -1.1045  0.5055
13013TIP3   OH260529   2.025   2.168   3.320 -0.0275  0.1821  0.1555
13013TIP3    H160530   2.052   2.101   3.258 -0.6210  1.2107 -1.2391
13013TIP3    H260531   2.034   2.251   3.272 -0.0012  1.0408  1.6053
13014TIP3   OH260532   1.145   0.507   1.865  0.3092  0.3842 -0.1963
13014TIP3    H160533   1.141   0.564   1.788  1.9225 -0.4637 -0.9278
13014TIP3    H260534   1.235   0.474   1.866  0.2097  0.1071  1.8636
13015TIP3   OH260535   0.319   4.219   4.421 -0.7478  0.2000  0.1157
13015TIP3    H160536   0.405   4.243   4.456  0.3192 -1.8016 -1.0295
13015TIP3    H260537   0.279   4.303   4.397  0.9331  1.1550  0.5468
13016TIP3   OH260538   0.912   5.969   3.837 -0.2724  0.6190 -0.5994
13016TIP3    H160539   0.848   5.932   3.777  1.0681 -1.0885 -1.0227
13016TIP3    H260540   0.864   5.981   3.919 -1.2822 -0.1051 -1.0760
13017TIP3   OH260541   5.448   0.008   0.777 -0.6357 -0.2873 -0.0839
13017TIP3    H160542   5.519  -0.004   0.714 -0.8648  1.5410 -0.7115
13017TIP3    H260543   5.490   0.046   0.854 -1.2578  3.0322 -1.3168
13018TIP3   OH260544   4.233   5.298   1.538  0.1844  0.3768 -0.0256
13018TIP3    H160545   4.195   5.380   1.569 -1.7275 -1.2091  2.0525
13018TIP3    H260546   4.302   5.278   1.602 -0.1581 -0.2102  0.1696
13019TIP3   OH260547   1.193   4.709   1.489  0.0023  0.5049  0.3252
13019TIP3    H160548   1.214   4.680   1.401  0.5255  3.4097 -0.5876
13019TIP3    H260549   1.177   4.629   1.539  2.0632 -1.2933 -1.8015
13020TIP3   OH260550   4.813   3.763   0.660 -0.4466 -0.3706  0.0843
13020TIP3    H160551   4.850   3.814   0.587  0.2115 -0.8984  0.0473
13020TIP3    H260552   4.815   3.823   0.734 -0.2245 -0.1453 -0.1024
13021TIP3   OH260553   2.009   2.855  15.305 -0.2938  1.0327 -0.0097
13021TIP3    H160554   2.070   2.819  15.368  1.3974  1.2726 -1.4551
13021TIP3    H260555   1.956   2.918  15.355  0.2994  0.4494  1.3612
13022TIP3   OH260556   4.695   4.385   0.877 -0.6443 -0.0013 -0.2481
13022TIP3    H160557   4.721   4.379   0.785  0.4798  1.8854 -0.0716
13022TIP3    H260558   4.736   4.466   0.908  1.1317 -1.9310  2.6143
13023TIP3   OH260559   2.274   4.437   1.796 -0.2196  0.1167 -0.5314
13023TIP3    H160560   2.296   4.348   1.823 -4.1916 -0.4338  1.2768
13023TIP3    H260561   2.290   4.490   1.874 -0.4848  0.5197 -0.7496
13024TIP3   OH260562   4.065   0.698   1.791  0.0505 -0.4185 -0.6481
13024TIP3    H160563   4.155   0.685   1.820  0.2936  1.4399 -0.5216
13024TIP3    H260564   4.021   0.737   1.866 -1.2949 -2.8040 -0.1482
13025TIP3   OH260565   0.411   2.545  11.505  0.6273  0.4138 -0.3925
13025TIP3    H160566   0.503   2.537  11.531  0.5224 -1.0274 -0.3862
13025TIP3    H260567   0.386   2.634  11.529  2.5394  1.4367 -2.0983
13026TIP3   OH260568   5.046   6.083  14.793  0.1537  0.2500 -0.0591
13026TIP3    H160569   5.063   6.175  14.772 -0.6744  0.2538 -0.7579
13026TIP3    H260570   5.132   6.043  14.800  0.4841  0.6558 -1.6867
13027TIP3   OH260571   3.640   4.410   1.578 -0.0338  0.0867 -0.4771
13027TIP3    H160572   3.675   4.499   1.585 -0.7277  0.3863 -0.7851
13027TIP3    H260573   3.716   4.354   1.592  0.4325  0.7286 -0.3899
13028TIP3   OH260574   6.592   3.528   0.441 -0.7631 -0.3401  0.0903
13028TIP3    H160575   6.517   3.551   0.496 -1.0644 -0.5328 -0.2297
13028TIP3    H260576   6.631   3.451   0.483  0.4946  0.9918  1.3887
13029TIP3   OH260577   1.772   5.818   1.165  0.3344 -0.3725  0.2572
13029TIP3    H160578   1.738   5.907   1.171  2.3260  0.4107  0.0556
13029TIP3    H260579   1.824   5.817   1.085 -1.1970 -2.2662 -0.7774
13030TIP3   OH260580   7.069   4.211   0.876 -0.7259 -0.4076  0.5764
13030TIP3    H160581   7.036   4.248   0.958  0.4374  2.4926 -0.2381
13030TIP3    H260582   7.162   4.195   0.892 -1.1583 -2.9415  0.8606
13031TIP3   OH260583   1.716   5.011   0.603  0.1218  0.2306 -0.0271
13031TIP3    H160584   1.671   5.012   0.519  0.6451  0.2739 -0.3129
13031TIP3    H260585   1.670   5.076   0.656 -1.0410 -0.7355  0.1711
13032TIP3   OH260586   7.192   3.876   0.382  0.3578 -0.0606  0.2961
13032TIP3    H160587   7.203   3.804   0.444  0.1639  0.5885  1.0962
13032TIP3    H260588   7.273   3.874   0.330  0.2426 -1.0094  0.1374
13033TIP3   OH260589   1.862   6.314   2.445 -0.4289  0.6217  0.2977
13033TIP3    H160590   1.904   6.254   2.383  0.1025  0.8284  0.4609
13033TIP3    H260591   1.920   6.316   2.521 -0.8916  0.6584  0.6583
13034TIP3   OH260592   2.768   3.872  15.328  0.2979 -0.2690 -0.6645
13034TIP3    H160593   2.855   3.912  15.336 -0.6994  1.9802 -0.5705
13034TIP3    H260594   2.752   3.868  15.234  0.9812 -1.7648 -0.7175
13035TIP3   OH260595   2.042   5.335   1.677  0.6550  0.0863 -0.1046
13035TIP3    H160596   2.130   5.364   1.701 -0.0877  1.4881  1.0275
13035TIP3    H260597   1.984   5.400   1.716 -0.9951 -1.8893  0.8623
13036TIP3   OH260598   3.993   4.455  14.284  0.1062 -0.5038  0.3181
13036TIP3    H160599   3.945   4.374  14.305  0.0394 -0.6893 -0.5257
13036TIP3    H260600   3.953   4.521  14.340 -1.5679 -0.5293 -0.8050
13037TIP3   OH260601   2.697   5.782   3.120  0.1325  0.2824 -0.2867
13037TIP3    H160602   2.782   5.783   3.164  1.2278  2.4914 -2.3334
13037TIP3    H260603   2.636   5.818   3.185  1.0034 -0.0278  0.7175
13038TIP3   OH260604   2.164   6.652  15.602 -0.1045  0.3780 -0.0914
13038TIP3    H160605   2.245   6.617  15.639 -0.6665 -1.1062 -0.2466
13038TIP3    H260606   2.118   6.691  15.677  0.9488  1.6343 -0.0832
13039TIP3   OH260607   0.361   6.565   1.321  0.2878 -0.1217  0.2283
13039TIP3    H160608   0.362   6.580   1.416  1.1564  0.2830  0.1617
13039TIP3    H260609   0.291   6.501   1.308  0.9916 -1.1117  1.2775
13040TIP3   OH260610   0.126   0.723   5.406 -0.0521 -0.0845 -0.0521
13040TIP3    H160611   0.110   0.715   5.500 -1.0091  1.1109 -0.0938
13040TIP3    H260612   0.155   0.636   5.379  0.7928 -0.2892  1.4448
13041TIP3   OH260613   5.083   0.804   0.910 -0.1956 -1.0430 -0.1522
13041TIP3    H160614   5.083   0.875   0.975 -1.0789  0.4834 -1.7437
13041TIP3    H260615   5.150   0.830   0.846 -0.9922 -1.2961 -1.1020
13042TIP3   OH260616   1.523   5.272   1.641  0.5720  0.0653  0.0362
13042TIP3    H160617   1.545   5.205   1.577  1.0207 -0.2938  0.5561
13042TIP3    H260618   1.478   5.225   1.711  0.7417  0.3314  0.3263
13043TIP3   OH260619   0.317   5.273  13.376  0.4848  0.5644 -0.2587
13043TIP3    H160620   0.411   5.291  13.381  0.7459 -0.9880  0.6821
13043TIP3    H260621   0.306   5.225  13.293  0.6531 -0.0064  0.0488
13044TIP3   OH260622   2.900   0.258   1.819 -0.5551 -0.4779  0.3317
13044TIP3    H160623   2.916   0.265   1.725  3.5382  1.9879  1.0985
13044TIP3    H260624   2.901   0.164   1.837 -0.2717 -0.9126 -1.9160
13045TIP3   OH260625   3.194   4.442   1.876  0.4837  0.3328 -0.5295
13045TIP3    H160626   3.212   4.440   1.970  1.3682  2.2984 -0.6422
13045TIP3    H260627   3.234   4.361   1.843 -3.5473 -2.6138  1.3561
13046TIP3   OH260628   1.092   0.461  14.440 -0.1799 -0.3115 -0.3982
13046TIP3    H160629   1.152   0.423  14.504 -0.1666 -0.5045 -0.5268
13046TIP3    H260630   1.089   0.398  14.368 -0.2562 -0.1316 -0.5538
13047TIP3   OH260631   0.538   5.166   3.403  0.6220 -0.7863 -0.0977
13047TIP3    H160632   0.514   5.258   3.418  0.2775 -0.6386 -1.4780
13047TIP3    H260633   0.460   5.116   3.426  0.6053 -0.6751  0.0831
13048TIP3   OH260634   3.974   5.759   1.419 -0.0534  0.0808  0.2090
13048TIP3    H160635   3.972   5.767   1.514  3.3572 -0.7627  0.4231
13048TIP3    H260636   3.918   5.830   1.387  1.9834  2.9288  2.7676
13049TIP3   OH260637   1.586   1.283  15.602  0.0708  0.1046 -0.0811
13049TIP3    H160638   1.587   1.350  15.670 -0.9762 -0.5665  0.6087
13049TIP3    H260639   1.633   1.209  15.640 -2.3045 -1.0460  0.7663
13050TIP3   OH260640   3.079   1.026   3.513 -0.3355 -0.5593  0.2618
13050TIP3    H160641   3.146   1.006   3.578 -1.7266 -0.1100  1.8846
13050TIP3    H260642   3.092   0.961   3.444  1.4706 -0.7558  0.7558
13051TIP3   OH260643   5.531   4.700   3.433 -0.1714  0.1069  0.0160
13051TIP3    H160644   5.604   4.759   3.414  0.5814 -0.3714  1.3850
13051TIP3    H260645   5.568   4.612   3.423 -0.3550 -0.1380  1.4379
13052TIP3   OH260646   2.029   0.144   1.601  0.3329 -0.1497  0.2712
13052TIP3    H160647   1.961   0.209   1.583 -0.8360 -1.6008 -0.5828
13052TIP3    H260648   1.983   0.061   1.606  1.9389 -1.0483  0.5511
13053TIP3   OH260649   3.004   4.952   4.591 -0.1977  0.1739  0.0138
13053TIP3    H160650   3.053   4.942   4.672  0.3485  0.6269 -0.2581
13053TIP3    H260651   3.060   4.913   4.524 -0.2421  0.6255 -0.2864
13054TIP3   OH260652   3.988   0.346   0.693 -0.2893  0.8806  0.8866
13054TIP3    H160653   4.030   0.428   0.719 -0.4228  0.7114  1.6699
13054TIP3    H260654   3.946   0.314   0.774  0.0253 -0.1134  0.6692
13055TIP3   OH260655   3.706   7.177  15.011  0.1318 -0.1288  0.2407
13055TIP3    H160656   3.639   7.115  15.040 -1.3368  1.2874 -0.0918
13055TIP3    H260657   3.747   7.207  15.091  0.7969 -1.4362  0.4159
13056TIP3   OH260658   0.341   2.646  13.255 -0.1685 -0.0502  0.1558
13056TIP3    H160659   0.274   2.612  13.196  0.2906 -0.3590 -0.1874
13056TIP3    H260660   0.340   2.586  13.329  0.2382 -0.4867 -0.1863
13057TIP3   OH260661   0.134   3.015   4.237 -0.6063  0.4995  0.0157
13057TIP3    H160662   0.043   2.987   4.241 -0.3203 -0.2276  1.8739
13057TIP3    H260663   0.129   3.110   4.221 -1.6226  0.1112 -2.1737
13058TIP3   OH260664   3.849   0.697   4.644  0.0564 -0.6348 -0.1679
13058TIP3    H160665   3.769   0.717   4.594 -0.9355 -1.8640  0.8987
13058TIP3    H260666   3.890   0.625   4.597  2.0506  1.8153 -2.3070
13059TIP3   OH260667   0.792   6.636  15.079  0.0719 -0.3283  0.0160
13059TIP3    H160668   0.808   6.617  14.986  0.4989  0.5440 -0.0916
13059TIP3    H260669   0.856   6.704  15.101  1.1299 -1.7445  1.3934
13060TIP3   OH260670   4.686   6.393   2.580  0.3470  0.2497 -0.2564
13060TIP3    H160671   4.681   6.375   2.674  1.2762  0.6218 -0.1276
13060TIP3    H260672   4.618   6.458   2.564 -1.3517 -1.4850 -0.2661
13061TIP3   OH260673   5.829   4.336  14.841 -0.3421 -0.3586  0.1075
13061TIP3    H160674   5.842   4.328  14.935 -0.3470 -0.4128  0.1035
13061TIP3    H260675   5.768   4.409  14.830  0.7284  0.5435  0.0749
13062TIP3   OH260676   0.518   6.171  13.699 -0.8341 -0.1748 -0.4169
13062TIP3    H160677   0.500   6.237  13.767 -0.2828  0.0376 -0.4728
13062TIP3    H260678   0.546   6.222  13.623  1.3323 -0.5321  0.0890
13063TIP3   OH260679   5.738   4.763  14.600 -0.2787  0.1253  0.8076
13063TIP3    H160680   5.760   4.848  14.563  0.2343 -1.1882 -2.1238
13063TIP3    H260681   5.726   4.707  14.523 -2.4571 -1.9932  2.6188
13064TIP3   OH260682   0.968   4.614   0.150  0.2861  0.3908  0.4845
13064TIP3    H160683   0.946   4.535   0.100 -1.6050  1.6602 -0.7313
13064TIP3    H260684   1.055   4.639   0.117 -0.0593  0.0608 -0.7193
13065TIP3   OH260685   7.058   6.932   0.700 -0.2010  0.0579 -0.1146
13065TIP3    H160686   7.015   7.018   0.705 -1.2673 -0.3764 -1.4028
13065TIP3    H260687   7.061   6.902   0.790 -0.8569  0.9653  0.2250
13066TIP3   OH260688   6.173   5.044   2.214  0.4176  0.9184  0.2382
13066TIP3    H160689   6.201   5.136   2.210  0.6562  0.7760 -1.7471
13066TIP3    H260690   6.078   5.048   2.224  0.1762  1.4002 -2.0254
13067TIP3   OH260691   3.574   6.427   2.882  0.1052  0.5950 -0.1071
13067TIP3    H160692   3.565   6.403   2.974 -0.8477  0.0668 -0.3247
13067TIP3    H260693   3.488   6.409   2.844 -0.2247  3.0026 -0.6004
13068TIP3   OH260694   6.969   2.256   1.885 -0.0940  0.3120  0.9428
13068TIP3    H160695   6.941   2.288   1.971  1.4590  0.3760  1.4411
13068TIP3    H260696   6.971   2.161   1.894 -3.4419  0.0987 -0.1422
13069TIP3   OH260697   5.626   3.560  14.720  0.0238  0.6368 -0.6166
13069TIP3    H160698   5.700   3.533  14.667 -1.0579  1.3455 -2.5364
13069TIP3    H260699   5.587   3.478  14.751  1.3585  0.2569  0.0806
13070TIP3   OH260700   6.737   6.597  14.355 -0.3008 -0.1942 -0.3200
13070TIP3    H160701   6.822   6.635  14.377  0.0794 -1.1720 -0.0730
13070TIP3    H260702   6.698   6.659  14.294  0.7053  0.1261 -0.6443
13071TIP3   OH260703   3.669   6.204   0.761  0.2241  0.0399  0.2346
13071TIP3    H160704   3.674   6.115   0.797 -1.3497 -0.8168 -1.5602
13071TIP3    H260705   3.755   6.219   0.722  0.4891 -0.7323  0.5173
13072TIP3   OH260706   0.310   4.744  14.332 -0.0749 -0.1978 -0.7820
13072TIP3    H160707   0.235   4.716  14.384  1.9184 -1.5609  1.4350
13072TIP3    H260708   0.272   4.770  14.248 -3.1037 -0.0850  0.5543
13073TIP3   OH260709   6.443   7.060   0.897  0.0167  0.0401  0.5608
13073TIP3    H160710   6.447   7.007   0.817  0.3320 -0.0335  0.6234
13073TIP3    H260711   6.528   7.104   0.900 -0.8595  1.8401 -0.3825
13074TIP3   OH260712   0.214   0.233   3.435  1.0535 -0.1829  0.1625
13074TIP3    H160713   0.189   0.140   3.440 -1.7368  0.5233  0.3308
13074TIP3    H260714   0.198   0.266   3.524 -0.0392  0.9214 -0.4268
13075TIP3   OH260715   3.990   7.109   0.220  0.3206  1.0609 -0.2413
13075TIP3    H160716   4.046   7.106   0.297 -2.4486  1.9620  1.9171
13075TIP3    H260717   3.935   7.031   0.228 -1.9220  2.6398  0.2977
13076TIP3   OH260718   0.686   6.752   1.659 -0.1557 -0.2371 -0.2163
13076TIP3    H160719   0.773   6.767   1.695 -0.7677 -2.7589  2.4467
13076TIP3    H260720   0.671   6.658   1.672 -3.2774  0.1771 -0.6424
13077TIP3   OH260721   5.192   5.065  15.281 -0.3934 -0.1635 -0.2726
13077TIP3    H160722   5.164   5.154  15.257 -1.5372  0.1269  2.0347
13077TIP3    H260723   5.120   5.009  15.253 -0.8197 -0.0571  0.5973
13078TIP3   OH260724   6.288   4.038   2.970  0.2005 -0.2544  0.6476
13078TIP3    H160725   6.248   3.955   2.945 -1.0774  0.0669  1.5898
13078TIP3    H260726   6.225   4.079   3.030  0.4065  1.7872 -0.4603
13079TIP3   OH260727   2.660   6.474  15.337  0.0733  0.4072 -0.4971
13079TIP3    H160728   2.754   6.488  15.350  0.4476 -1.0505 -1.5495
13079TIP3    H260729   2.628   6.558  15.303  0.9762  0.9441 -0.0389
13080TIP3   OH260730   5.909   0.952  14.814  0.2970  1.0984 -0.0955
13080TIP3    H160731   5.895   1.042  14.787 -0.2094  1.4735  1.3661
13080TIP3    H260732   5.995   0.953  14.857  1.4163  0.3669 -2.2638
13081TIP3   OH260733   1.080   3.561   3.082 -0.2811  0.2620 -0.3263
13081TIP3    H160734   1.156   3.510   3.052  1.8610  4.1722 -1.9912
13081TIP3    H260735   1.108   3.595   3.167 -0.3829  1.2601 -0.6924
13082TIP3   OH260736   0.977   4.569  14.471  0.4205 -0.3865 -0.2739
13082TIP3    H160737   0.961   4.657  14.504 -0.3271 -0.4572 -0.4246
13082TIP3    H260738   0.932   4.567  14.387  0.0406 -1.0510 -0.0620
13083TIP3   OH260739   1.955   7.199   2.877  0.2065  0.5958  0.3999
13083TIP3    H160740   2.022   7.250   2.833  0.6876 -1.0959 -0.8758
13083TIP3    H260741   1.901   7.164   2.806 -1.1230  0.6777  1.3367
13084TIP3   OH260742   1.803   5.358   0.259 -0.0448 -0.5647 -0.5602
13084TIP3    H160743   1.865   5.286   0.265  1.3808  0.7403  0.7292
13084TIP3    H260744   1.850   5.427   0.212 -1.4325 -0.4949 -1.8795
13085TIP3   OH260745   1.902   3.414   0.668  0.5688  0.9500 -0.3588
13085TIP3    H160746   1.946   3.466   0.735  1.8643 -1.9984  1.2000
13085TIP3    H260747   1.968   3.404   0.599  1.6363 -1.5926  0.9745
13086TIP3   OH260748   4.284   4.550  15.259  0.0820  0.1414  0.1572
13086TIP3    H160749   4.287   4.455  15.272 -1.4775  0.2835  1.7760
13086TIP3    H260750   4.259   4.561  15.168 -0.9464 -1.0136  0.2833
13087TIP3   OH260751   5.170   6.246   0.468 -0.6332  0.3532 -0.1712
13087TIP3    H160752   5.118   6.322   0.493 -0.9612 -0.4671  1.6657
13087TIP3    H260753   5.260   6.268   0.493 -0.9320 -0.3907  1.6000
13088TIP3   OH260754   5.611   4.447   3.499  0.0835 -0.5746 -0.3751
13088TIP3    H160755   5.566   4.420   3.580 -0.8713  1.3017 -0.2693
13088TIP3    H260756   5.607   4.369   3.444 -2.8809 -0.6232 -0.1665
13089TIP3   OH260757   6.704   5.737   1.630  0.4463 -0.1676  0.0347
13089TIP3    H160758   6.750   5.689   1.698  0.4830  0.3267  0.3534
13089TIP3    H260759   6.629   5.681   1.609  0.0818 -0.0177  0.9237
13090TIP3   OH260760   7.107   5.094   2.067  0.1556 -0.4096  0.6221
13090TIP3    H160761   7.193   5.065   2.096  0.2612  1.4231  2.2283
13090TIP3    H260762   7.107   5.189   2.080 -1.8604 -0.2905  0.0214
13091TIP3   OH260763   1.568   5.603   1.857  0.3249  0.4437  0.3053
13091TIP3    H160764   1.554   5.540   1.927 -0.3290  0.4340  0.1669
13091TIP3    H260765   1.588   5.685   1.902  0.4220  0.3200  0.4911
13092TIP3   OH260766   3.171   6.424   3.000 -0.0431 -0.6292 -0.5064
13092TIP3    H160767   3.181   6.360   3.071 -0.0399 -0.0598  0.0083
13092TIP3    H260768   3.233   6.493   3.022 -2.1245  0.9663  0.5034
13093TIP3   OH260769   0.788   4.342   2.922  0.2443 -0.6348 -0.0316
13093TIP3    H160770   0.786   4.287   3.001 -1.9948  1.3104  1.3532
13093TIP3    H260771   0.839   4.419   2.948  2.0211 -1.2913 -1.4585
13094TIP3   OH260772   2.774   5.589   0.519 -0.2566 -0.1315  0.3128
13094TIP3    H160773   2.788   5.677   0.482 -1.5476  0.2112  0.6310
13094TIP3    H260774   2.717   5.604   0.594  0.9428 -1.0386  1.4307
13095TIP3   OH260775   4.350   2.932   4.951 -0.2258  0.3199  0.3831
13095TIP3    H160776   4.373   2.890   4.868  0.6335 -0.1768  0.8713
13095TIP3    H260777   4.310   3.016   4.925  0.6062  0.4436 -0.5145
13096TIP3   OH260778   1.720   4.995   1.831  0.6987 -0.2791 -0.3682
13096TIP3    H160779   1.766   5.077   1.849 -0.6420  0.6730 -1.1718
13096TIP3    H260780   1.674   4.974   1.912 -0.1286  0.5497 -0.6162
13097TIP3   OH260781   1.191   5.437  13.584  0.5651 -0.0330 -0.0195
13097TIP3    H160782   1.224   5.502  13.646 -0.5690  1.5542 -1.0245
13097TIP3    H260783   1.210   5.352  13.624  0.5924  0.9521  2.0771
13098TIP3   OH260784   2.736   3.363  15.574 -0.5306  0.2985  0.0713
13098TIP3    H160785   2.690   3.419  15.637 -1.2654  0.3551 -0.5043
13098TIP3    H260786   2.700   3.389  15.489 -1.0265 -1.1744 -0.1867
13099TIP3   OH260787   2.593   0.585   0.007 -0.2147 -0.1286  0.3737
13099TIP3    H160788   2.572   0.631   0.089  1.3828  2.2319 -0.4668
13099TIP3    H260789   2.563   0.644  -0.062  0.8702 -0.8466 -0.7409
13100TIP3   OH260790   6.153   4.935   0.751  0.1280 -0.2868 -0.2618
13100TIP3    H160791   6.244   4.942   0.782  0.0501 -2.4967  0.5824
13100TIP3    H260792   6.153   4.858   0.695 -1.2488 -0.3586 -0.1790
13101TIP3   OH260793   4.408   4.554  14.211  0.9023 -0.2257  0.2094
13101TIP3    H160794   4.503   4.564  14.224  0.6995  0.5328  1.1445
13101TIP3    H260795   4.398   4.463  14.183  1.7905 -0.6982  1.3652
13102TIP3   OH260796   6.731   6.073   3.112 -0.4014 -0.2629 -0.3470
13102TIP3    H160797   6.795   6.143   3.098  0.4960 -0.9995 -0.0128
13102TIP3    H260798   6.654   6.117   3.146 -0.2675  0.7115 -1.2900
13103TIP3   OH260799   0.864   4.423   3.320  0.0120 -0.0145  0.0394
13103TIP3    H160800   0.934   4.359   3.329  0.7552  0.6927 -0.5350
13103TIP3    H260801   0.814   4.417   3.401 -0.2860 -1.7141 -0.2515
13104TIP3   OH260802   0.048   0.129   3.102 -0.3750  0.0566 -0.0506
13104TIP3    H160803   0.078   0.068   3.168 -1.3069  0.2929  0.6108
13104TIP3    H260804   0.020   0.074   3.029  0.5437 -0.2094 -0.2110
13105TIP3   OH260805   2.064   4.521   1.626 -0.2002 -0.9219 -0.5259
13105TIP3    H160806   2.132   4.488   1.684  2.0064 -0.3430 -2.6679
13105TIP3    H260807   2.047   4.610   1.657  0.2530 -0.9606 -0.1667
13106TIP3   OH260808   0.840   3.306   0.217  0.1366 -0.0199  0.1483
13106TIP3    H160809   0.908   3.276   0.156  1.0965 -0.3338  1.3518
13106TIP3    H260810   0.794   3.375   0.170  2.1474  1.1052 -0.2183
13107TIP3   OH260811   1.090   6.694   2.240 -0.4304  0.4472 -0.4837
13107TIP3    H160812   1.066   6.622   2.181  0.3727 -0.1922 -0.0450
13107TIP3    H260813   1.019   6.696   2.304  0.6881 -1.5141  0.8784
13108TIP3   OH260814   3.288   3.950   0.692  0.3788  0.0290 -0.8540
13108TIP3    H160815   3.235   3.912   0.762 -0.3612  1.1188 -0.8079
13108TIP3    H260816   3.275   3.890   0.618  0.4541 -0.6403 -0.3310
13109TIP3   OH260817   5.833   3.422   2.160 -0.6780  0.2822 -0.0135
13109TIP3    H160818   5.746   3.389   2.181 -0.3218 -1.6892 -1.4538
13109TIP3    H260819   5.817   3.496   2.102 -1.4057  0.2046  0.0786
13110TIP3   OH260820   0.621   5.731   3.443  0.3031 -0.1269  0.0094
13110TIP3    H160821   0.575   5.757   3.363 -0.8316 -0.1054  0.6615
13110TIP3    H260822   0.683   5.664   3.413  1.5587  1.5605 -1.2731
13111TIP3   OH260823   3.356   5.803   0.773 -0.8188  0.0084  0.0044
13111TIP3    H160824   3.433   5.770   0.818 -0.8062  0.9464  0.6822
13111TIP3    H260825   3.357   5.897   0.789 -3.3295 -0.2255  1.9237
13112TIP3   OH260826   7.156   4.035  14.692 -0.2320 -0.0766 -0.4012
13112TIP3    H160827   7.248   4.024  14.716 -0.0535  2.7265  0.4308
13112TIP3    H260828   7.153   4.017  14.598  1.4788  1.2283 -0.7364
13113TIP3   OH260829   2.334   5.226   1.188 -0.1734 -0.0145 -0.6816
13113TIP3    H160830   2.387   5.293   1.232 -1.1766 -0.1611  0.7876
13113TIP3    H260831   2.392   5.150   1.181 -0.6395 -0.7470  2.4195
13114TIP3   OH260832   1.795   5.418   2.261 -0.3084 -0.8582 -0.1625
13114TIP3    H160833   1.753   5.350   2.209 -1.6966  1.0935 -1.6265
13114TIP3    H260834   1.725   5.479   2.283  1.2379  1.0213 -0.3373
13115TIP3   OH260835   2.953   3.607  15.105 -0.3883 -0.2478 -0.0220
13115TIP3    H160836   3.031   3.561  15.072 -0.0773  0.5895 -0.4709
13115TIP3    H260837   2.958   3.597  15.200  2.2609  2.8654  0.2563
13116TIP3   OH260838   1.418   1.715   3.875 -0.5386 -0.1882 -0.5219
13116TIP3    H160839   1.489   1.777   3.857 -0.2362 -0.9044 -1.8415
13116TIP3    H260840   1.363   1.760   3.939 -0.4395  1.5597 -1.6236
13117TIP3   OH260841   1.886   5.800  13.902  0.3904  0.3125  0.4400
13117TIP3    H160842   1.807   5.845  13.874  0.7736 -0.1478 -1.4888
13117TIP3    H260843   1.868   5.707  13.886  1.1559  0.1700  0.3547
13118TIP3   OH260844   1.659   3.947  14.944 -0.7095 -0.2945 -0.7097
13118TIP3    H160845   1.646   4.042  14.954 -2.4449 -0.7002  1.4552
13118TIP3    H260846   1.685   3.935  14.853 -1.0994  2.2127 -1.1789
13119TIP3   OH260847   6.045   4.051   5.223 -0.1527 -0.1647  0.0086
13119TIP3    H160848   6.056   4.143   5.245  0.0606 -0.1421 -0.1946
13119TIP3    H260849   5.963   4.026   5.265  0.1584 -0.0729  0.6807
13120TIP3   OH260850   3.443   0.042   0.410  0.2211 -0.4394 -0.3973
13120TIP3    H160851   3.391  -0.030   0.376 -2.0174 -0.0047  1.9396
13120TIP3    H260852   3.481   0.008   0.491  0.9497  0.3116 -0.4084
13121TIP3   OH260853   5.696   4.560   0.283 -0.2240  0.0482  0.3589
13121TIP3    H160854   5.789   4.547   0.262  0.2046  0.3594  2.0013
13121TIP3    H260855   5.684   4.517   0.367 -0.8477  2.6401  1.6487
13122TIP3   OH260856   2.268   5.121   0.777 -0.3360  0.1310  0.1953
13122TIP3    H160857   2.308   5.053   0.831  3.2048  2.2641  0.4157
13122TIP3    H260858   2.182   5.137   0.816  0.9049 -0.5811  3.2868
13123TIP3   OH260859   6.543   2.925  12.169  0.2163 -0.3169  0.0815
13123TIP3    H160860   6.453   2.904  12.197  0.3570 -0.8668  0.1334
13123TIP3    H260861   6.597   2.902  12.244  0.2958  1.0663  0.4572
13124TIP3   OH260862   5.647   1.195   0.927 -0.1303 -0.6075  0.3815
13124TIP3    H160863   5.726   1.248   0.934 -1.0085  0.8836 -0.7440
13124TIP3    H260864   5.575   1.256   0.940 -1.1393 -1.7782  0.4656
13125TIP3   OH260865   5.436   0.056   2.577 -0.1653  0.2808  0.1732
13125TIP3    H160866   5.372   0.036   2.645  1.0130 -0.6118  1.0419
13125TIP3    H260867   5.429  -0.017   2.514  0.2534 -0.0198  0.4693
13126TIP3   OH260868   2.499   6.238   2.119 -0.2580 -0.5544  0.7829
13126TIP3    H160869   2.507   6.277   2.032 -0.3708 -1.6308  0.2889
13126TIP3    H260870   2.417   6.189   2.116 -0.4991 -0.2195  1.6509
13127TIP3   OH260871   3.020   0.199  14.619  0.3201  0.0959 -0.1000
13127TIP3    H160872   2.955   0.256  14.662 -0.9786  0.6115 -2.6490
13127TIP3    H260873   3.048   0.248  14.542  1.7880 -1.2752 -0.4655
13128TIP3   OH260874   4.780   6.690  11.802 -0.5972 -0.9592 -0.1637
13128TIP3    H160875   4.789   6.700  11.707  0.6529  0.5546  0.0914
13128TIP3    H260876   4.699   6.735  11.824  0.4289  0.9724 -0.2053
13129TIP3   OH260877   6.284   1.000  14.251  0.8135 -0.4592  0.3237
13129TIP3    H160878   6.262   1.058  14.177  0.4340 -1.2029 -0.1515
13129TIP3    H260879   6.349   1.049  14.301 -0.2188  0.8068  0.4651
13130TIP3   OH260880   5.925   4.811   2.127 -0.5111 -0.2114  0.1148
13130TIP3    H160881   5.976   4.736   2.159 -2.9327 -2.0788 -0.2319
13130TIP3    H260882   5.834   4.780   2.128 -1.7804  3.2700  1.5180
13131TIP3   OH260883   5.335   6.410   5.110  0.1166  0.1637 -0.0513
13131TIP3    H160884   5.333   6.460   5.192 -1.7346  0.3143 -0.1602
13131TIP3    H260885   5.325   6.319   5.136  0.0071  0.1667 -0.0832
13132TIP3   OH260886   1.416   6.539   2.457  1.0502 -0.2489 -0.2744
13132TIP3    H160887   1.442   6.564   2.368  0.0359  0.1990 -0.4485
13132TIP3    H260888   1.499   6.519   2.501  1.5208 -1.0129 -1.4815
13133TIP3   OH260889   1.200   5.348   2.629 -0.2340  0.5754 -0.2334
13133TIP3    H160890   1.154   5.369   2.547  0.0166  0.1805 -0.4762
13133TIP3    H260891   1.136   5.297   2.679 -0.2378  0.4466 -0.3665
13134TIP3   OH260892   5.708   1.333  15.390 -0.2208 -0.5768  0.0743
13134TIP3    H160893   5.786   1.286  15.421 -0.3769 -2.1294 -1.7715
13134TIP3    H260894   5.717   1.422  15.425  1.5536 -1.1922  1.2206
13135TIP3   OH260895   1.785   5.128  13.709  0.2589 -0.2407  0.0425
13135TIP3    H160896   1.839   5.114  13.787  0.6120  1.4587  0.1252
13135TIP3    H260897   1.704   5.167  13.742 -0.0956 -0.6476 -0.3267
13136TIP3   OH260898   0.535   7.154  15.195 -0.0574  0.4336  0.1249
13136TIP3    H160899   0.582   7.090  15.141  0.6104 -0.8624  2.1726
13136TIP3    H260900   0.596   7.227  15.204  0.4634 -0.0329  0.4394
13137TIP3   OH260901   3.712   6.332   4.618  0.3530  0.0269 -0.4806
13137TIP3    H160902   3.743   6.410   4.663  0.6370 -1.8769  2.7549
13137TIP3    H260903   3.763   6.330   4.537  2.9382  1.2911  1.0371
13138TIP3   OH260904   6.729   5.131   0.564 -0.0497 -0.1622 -0.0032
13138TIP3    H160905   6.807   5.141   0.618 -0.3888  1.5689  0.2264
13138TIP3    H260906   6.733   5.042   0.531  1.5999 -0.3519  0.6611
13139TIP3   OH260907   3.518   2.625  14.646  0.0521  0.1762  0.0441
13139TIP3    H160908   3.570   2.546  14.632 -0.5610 -0.2646  0.2595
13139TIP3    H260909   3.561   2.669  14.720 -0.5171 -0.7341  0.9254
13140TIP3   OH260910   4.325   2.731   2.067 -0.1845 -0.0498  0.2955
13140TIP3    H160911   4.379   2.800   2.104 -1.7536  0.9506  0.7906
13140TIP3    H260912   4.285   2.770   1.989 -1.1197 -0.3491  0.6085
13141TIP3   OH260913   2.910   1.184   0.516 -0.3531 -0.5979 -0.0653
13141TIP3    H160914   2.859   1.252   0.472 -1.3365 -1.6998 -0.6539
13141TIP3    H260915   2.930   1.121   0.447  2.9024  0.3912 -0.1405
13142TIP3   OH260916   2.724   5.347   3.853 -0.3996  0.0074  0.1976
13142TIP3    H160917   2.753   5.438   3.847 -1.0564  0.3596  2.1406
13142TIP3    H260918   2.723   5.327   3.947  0.4709 -2.2520 -0.2218
13143TIP3   OH260919   6.714   4.759  12.627 -0.3375  0.3651  0.2282
13143TIP3    H160920   6.703   4.758  12.532  0.9947  2.0967  0.0350
13143TIP3    H260921   6.740   4.670  12.649 -1.0786 -0.1617 -0.9603
13144TIP3   OH260922   5.946   2.669   0.169  0.3389  0.0413  0.3252
13144TIP3    H160923   5.859   2.707   0.181  1.0136  1.3830  1.1435
13144TIP3    H260924   5.996   2.738   0.123  0.4230 -1.4734 -1.9445
13145TIP3   OH260925   1.404   5.537   5.500  0.0577 -0.4888  0.3756
13145TIP3    H160926   1.338   5.494   5.445  0.2224  0.7631 -0.8249
13145TIP3    H260927   1.460   5.465   5.531 -0.0072 -1.2168 -1.1408
13146TIP3   OH260928   1.271   5.493  12.162 -0.3032 -0.1211  0.3582
13146TIP3    H160929   1.342   5.497  12.226  1.6159 -2.9016 -1.4735
13146TIP3    H260930   1.235   5.405  12.171 -0.7641 -0.1657 -1.5589
13147TIP3   OH260931   2.291   3.779  14.326 -0.1889  0.3849 -0.5680
13147TIP3    H160932   2.242   3.797  14.245 -0.1010  0.4532 -0.6064
13147TIP3    H260933   2.369   3.732  14.297  0.2006  1.0454 -0.5990
13148TIP3   OH260934   3.595   3.034   0.835 -0.0351 -0.3582 -0.1049
13148TIP3    H160935   3.511   3.040   0.789  0.2229  0.4363 -0.4682
13148TIP3    H260936   3.582   3.086   0.915 -0.2159 -1.0669  0.3325
13149TIP3   OH260937   3.699   5.438  15.578  0.1885 -0.2717  0.2402
13149TIP3    H160938   3.742   5.522  15.564  0.2677 -0.3926 -0.2448
13149TIP3    H260939   3.762   5.373  15.546 -0.9477 -0.3689 -1.8475
13150TIP3   OH260940   1.071   1.792  12.324 -0.3231 -0.3992 -0.5232
13150TIP3    H160941   1.019   1.723  12.366 -0.3852 -0.9555 -1.5143
13150TIP3    H260942   1.093   1.757  12.238 -0.0669  0.6819 -0.9085
13151TIP3   OH260943   0.371   3.222   0.920  0.2894  0.1721  0.3697
13151TIP3    H160944   0.426   3.273   0.979  1.2876 -0.2104 -0.2104
13151TIP3    H260945   0.381   3.266   0.835 -0.4945  0.2467  0.3161
13152TIP3   OH260946   4.620   5.991  12.910  0.3846  0.0641  0.9245
13152TIP3    H160947   4.591   6.078  12.936 -1.0889 -0.7602  2.1215
13152TIP3    H260948   4.706   5.982  12.951  0.9327  1.2720  0.0668
13153TIP3   OH260949   5.431   3.005  15.374 -0.4554 -0.2628  0.3218
13153TIP3    H160950   5.349   3.028  15.331  0.9857  0.7321 -2.0043
13153TIP3    H260951   5.433   3.060  15.453 -0.7053  1.9114 -1.1341
13154TIP3   OH260952   5.825   1.540   2.132  0.0763  0.0648  0.0490
13154TIP3    H160953   5.760   1.472   2.154  0.6006 -1.1330 -1.9205
13154TIP3    H260954   5.909   1.503   2.160  0.0837  1.0216  1.3225
13155TIP3   OH260955   3.197   1.827   2.370 -0.0397 -0.2705 -0.5234
13155TIP3    H160956   3.263   1.766   2.337  1.6157  1.6452 -0.8386
13155TIP3    H260957   3.123   1.816   2.310  0.3361 -1.7661 -0.7360
13156TIP3   OH260958   4.088   7.011   4.011  0.0889  0.3527  0.1488
13156TIP3    H160959   4.110   7.021   3.919  1.9552 -1.4557  0.3620
13156TIP3    H260960   4.098   7.098   4.048  2.6615  0.4431 -0.6867
13157TIP3   OH260961   1.893   0.097   0.542 -0.5651 -0.4493 -0.3760
13157TIP3    H160962   1.851   0.183   0.546 -0.7673 -0.5789  0.4106
13157TIP3    H260963   1.847   0.052   0.472 -1.7774 -0.5933  0.4887
13158TIP3   OH260964   6.709   0.168  13.765 -0.0269  0.1622  0.0001
13158TIP3    H160965   6.729   0.083  13.805 -2.5948  0.2406  1.5385
13158TIP3    H260966   6.748   0.232  13.825 -0.9559  0.1655  0.6083
13159TIP3   OH260967   0.999   0.735  15.349 -0.2022 -0.0184 -0.3589
13159TIP3    H160968   0.913   0.711  15.314  0.8793 -1.5199 -2.0849
13159TIP3    H260969   1.049   0.653  15.348  1.4478  0.9630  0.0359
13160TIP3   OH260970   0.692   6.755  15.556 -0.1966 -0.0877  0.7649
13160TIP3    H160971   0.695   6.832  15.500  0.3971 -0.9561 -0.4277
13160TIP3    H260972   0.689   6.681  15.495  0.5859 -1.0572  1.8798
13161TIP3   OH260973   1.200   5.571  14.895 -0.0397 -0.3940  0.2230
13161TIP3    H160974   1.259   5.523  14.953  1.7092 -0.0713 -1.2388
13161TIP3    H260975   1.176   5.508  14.827 -1.1031 -0.4066  0.5923
13162TIP3   OH260976   0.118   6.239  14.826  0.7663  1.0471  0.2999
13162TIP3    H160977   0.079   6.165  14.780  2.1206  0.3893  0.1754
13162TIP3    H260978   0.213   6.223  14.821  1.0693  2.7580  0.3195
13163TIP3   OH260979   6.996   6.870   0.148 -0.3459  0.1151  0.2399
13163TIP3    H160980   7.051   6.888   0.224 -0.4086 -0.7224  0.4867
13163TIP3    H260981   6.944   6.950   0.136  0.2118  0.5338  0.6032
13164TIP3   OH260982   2.293   3.316  15.085  0.0904  0.2790  0.4560
13164TIP3    H160983   2.298   3.270  15.169  1.3166 -0.1480  0.1649
13164TIP3    H260984   2.324   3.404  15.104  2.6169 -0.4724  0.0083
13165TIP3   OH260985   3.853   6.707   2.917  1.0850 -0.0248 -0.3563
13165TIP3    H160986   3.846   6.799   2.894 -1.1252 -0.1124 -0.1873
13165TIP3    H260987   3.864   6.662   2.833  0.3895  0.2568 -0.6003
13166TIP3   OH260988   1.178   5.452   2.925  0.1816 -0.2591  0.2727
13166TIP3    H160989   1.200   5.531   2.876 -1.9584 -0.9361 -1.8906
13166TIP3    H260990   1.114   5.406   2.870 -0.1626 -2.4839  2.4103
13167TIP3   OH260991   6.778   3.711   0.769 -0.5067  0.0747  0.3416
13167TIP3    H160992   6.829   3.642   0.726  0.0149 -0.2714  1.4727
13167TIP3    H260993   6.714   3.738   0.704  1.9014  1.3905 -1.5477
13168TIP3   OH260994   1.455   5.018   2.396  0.1136 -0.0318  0.0112
13168TIP3    H160995   1.526   5.073   2.430 -1.5447  1.8563  0.5458
13168TIP3    H260996   1.496   4.934   2.378  2.3372  0.8111  0.9597
13169TIP3   OH260997   3.009   4.962  14.853  0.0993 -0.1754 -0.4723
13169TIP3    H160998   3.093   4.919  14.839  0.1993 -0.0827 -0.1590
13169TIP3    H260999   2.946   4.908  14.806  0.2733 -0.4908 -0.3424
13170TIP3   OH261000   5.094   6.203   1.600  0.2891 -0.5025  0.0716
13170TIP3    H161001   5.118   6.118   1.638 -0.0018 -0.0635  1.2536
13170TIP3    H261002   5.014   6.184   1.551 -0.5216 -0.6556  1.4257
13171TIP3   OH261003   6.789   5.501  14.556  0.2931  0.2250 -0.1795
13171TIP3    H161004   6.763   5.546  14.476 -2.0866 -0.2003  0.3194
13171TIP3    H261005   6.815   5.572  14.615 -1.5328  0.8505 -0.0784
13172TIP3   OH261006   3.948   3.470   2.467 -0.5824  0.1181  0.6311
13172TIP3    H161007   3.919   3.559   2.485  0.9035  0.6546  0.4626
13172TIP3    H261008   3.991   3.442   2.548  0.7153  0.3038  0.0250
13173TIP3   OH261009   0.160   7.042   4.604  0.1458  0.5840 -0.3178
13173TIP3    H161010   0.255   7.027   4.612  0.1801  0.0724 -1.6136
13173TIP3    H261011   0.121   6.978   4.664  0.6195  0.7281  0.1462
13174TIP3   OH261012   3.049   5.356  15.289  0.0919 -0.1868 -0.2650
13174TIP3    H161013   2.986   5.304  15.338 -0.9612  0.3352 -1.0438
13174TIP3    H261014   3.093   5.410  15.354 -1.1905  0.4015  0.1172
13175TIP3   OH261015   1.645   4.221   4.006 -0.0193 -0.5839 -0.5327
13175TIP3    H161016   1.672   4.310   4.031 -1.1513 -0.3902  0.0199
13175TIP3    H261017   1.728   4.174   3.992  0.5901  0.4060 -0.2894
13176TIP3   OH261018   1.490   6.244  13.201  0.4283  0.7759  0.6577
13176TIP3    H161019   1.570   6.271  13.156 -0.3431  0.8203 -0.7474
13176TIP3    H261020   1.443   6.192  13.135 -0.9994  1.3187  1.2350
13177TIP3   OH261021   2.104   7.195  14.946 -0.0079  0.3087 -0.8864
13177TIP3    H161022   2.057   7.278  14.949 -1.4932 -0.5245 -0.8875
13177TIP3    H261023   2.048   7.134  14.993  2.9347  0.1922  2.6869
13178TIP3   OH261024   2.582   1.302   1.318  0.0152  0.2129 -0.2893
13178TIP3    H161025   2.657   1.361   1.323 -0.8287  1.2033  1.0873
13178TIP3    H261026   2.531   1.322   1.396 -1.2701 -1.0135 -0.8009
13179TIP3   OH261027   2.330   0.366  13.517  0.2266  0.3732 -0.6116
13179TIP3    H161028   2.307   0.458  13.529 -0.2184  0.3032 -0.9327
13179TIP3    H261029   2.423   0.367  13.497  0.1780  0.7707 -0.8221
13180TIP3   OH261030   3.089   4.102   3.867  0.5676  1.0082 -0.0788
13180TIP3    H161031   3.131   4.045   3.803 -2.0571 -0.3815 -0.6150
13180TIP3    H261032   3.059   4.177   3.815 -2.0609 -0.3789 -0.6653
13181TIP3   OH261033   1.967   2.394   3.119 -0.1189  0.4515  0.3164
13181TIP3    H161034   1.988   2.466   3.060 -0.7002 -0.8243 -1.5201
13181TIP3    H261035   1.878   2.413   3.150 -0.0398  0.8267  0.3122
13182TIP3   OH261036   3.316   0.220   1.461  0.4011 -0.2434 -0.2367
13182TIP3    H161037   3.274   0.157   1.520 -1.4984  1.2719  0.0719
13182TIP3    H261038   3.261   0.220   1.383  0.9712  0.2895 -0.6416
13183TIP3   OH261039   1.795   4.590   1.507  0.1837 -0.0628 -0.0383
13183TIP3    H161040   1.767   4.641   1.584  1.1204  1.7988 -0.8935
13183TIP3    H261041   1.887   4.570   1.525  0.4772  0.5971 -0.7727
13184TIP3   OH261042   4.529   5.349  14.497 -0.2808  0.6499 -0.0739
13184TIP3    H161043   4.580   5.339  14.577 -0.5689  0.8151  0.1289
13184TIP3    H261044   4.438   5.340  14.524 -0.3392 -0.0262 -0.4991
13185TIP3   OH261045   0.497   5.103   1.107 -0.1112  0.7018 -0.3627
13185TIP3    H161046   0.477   5.043   1.035  0.7630  2.2302 -1.9163
13185TIP3    H261047   0.497   5.047   1.185 -0.2056 -1.1540 -1.6435
13186TIP3   OH261048   2.603   5.811  15.458 -0.2160 -0.1912  0.0482
13186TIP3    H161049   2.589   5.878  15.392  0.1023  0.2431  0.4165
13186TIP3    H261050   2.518   5.801  15.501  0.1139  1.0690  1.0074
13187TIP3   OH261051   5.391   4.955   1.649  0.3427 -0.5082  0.7456
13187TIP3    H161052   5.297   4.975   1.642  0.3864 -0.8447 -1.3396
13187TIP3    H261053   5.396   4.883   1.712 -0.8126 -0.5565  0.7957
13188TIP3   OH261054   0.956   2.643   4.980 -0.7224  0.6443  0.0353
13188TIP3    H161055   0.964   2.699   4.903 -1.7087 -0.4978 -0.9191
13188TIP3    H261056   1.046   2.624   5.007 -0.3528 -0.4444 -1.9344
13189TIP3   OH261057   3.424   5.456   4.383  0.1849 -0.1315 -0.4326
13189TIP3    H161058   3.372   5.382   4.415 -1.6116  1.5673  0.6978
13189TIP3    H261059   3.480   5.480   4.457  0.3818 -0.0149 -0.6187
13190TIP3   OH261060   7.085   0.975   0.701 -0.5290 -0.5572  0.4005
13190TIP3    H161061   7.035   0.990   0.781  0.6554 -0.8595  1.2031
13190TIP3    H261062   7.033   1.018   0.632 -0.3989  1.6712  1.6651
13191TIP3   OH261063   3.265   5.024  15.400  0.3960  0.4035 -0.2543
13191TIP3    H161064   3.250   4.993  15.489  2.1890  0.3880  0.0631
13191TIP3    H261065   3.274   5.118  15.408 -1.1712  0.6153 -0.6893
13192TIP3   OH261066   2.823   1.044   1.267  0.8884 -0.1273 -0.3175
13192TIP3    H161067   2.776   1.073   1.345  0.4837 -0.7289 -0.3420
13192TIP3    H261068   2.874   0.969   1.295  1.6649  0.3754 -0.3500
13193TIP3   OH261069   5.520   4.519   0.086 -0.1266 -0.0125  0.1689
13193TIP3    H161070   5.600   4.527   0.138 -0.9666 -0.5780  1.5858
13193TIP3    H261071   5.496   4.609   0.065 -0.0513  0.2509  1.1963
13194TIP3   OH261072   3.074   1.770   4.088  0.4886 -0.1168 -0.0145
13194TIP3    H161073   3.152   1.783   4.141  0.2618 -1.6461  0.7256
13194TIP3    H261074   3.008   1.739   4.151  0.0678 -1.4232 -1.0928
13195TIP3   OH261075   4.757   5.802  15.432 -0.2980 -0.1680 -0.2769
13195TIP3    H161076   4.729   5.855  15.357 -0.4224 -0.4884 -0.4571
13195TIP3    H261077   4.837   5.758  15.402 -0.8436 -0.9862 -0.5256
13196TIP3   OH261078   1.518   7.138   1.640  0.0027 -0.2430 -0.1511
13196TIP3    H161079   1.447   7.090   1.681 -0.9770 -0.1480 -1.7012
13196TIP3    H261080   1.593   7.078   1.644 -0.4817 -0.8197  0.3781
13197TIP3   OH261081   1.333   6.911  14.581 -0.2033 -0.3367  0.2630
13197TIP3    H161082   1.418   6.891  14.619 -0.2166 -0.8750  0.0136
13197TIP3    H261083   1.339   6.879  14.490 -0.1910  0.8717 -0.1669
13198TIP3   OH261084   6.153   5.095  14.196  0.1251 -0.2643  0.0382
13198TIP3    H161085   6.198   5.056  14.121 -0.3599 -0.0917 -0.3436
13198TIP3    H261086   6.204   5.174  14.216 -0.1410  0.0638 -0.5517
13199TIP3   OH261087   1.254   3.412   0.026 -0.0519 -0.0140  0.2102
13199TIP3    H161088   1.252   3.435   0.118  0.9788 -3.9013  1.3244
13199TIP3    H261089   1.164   3.386   0.005  0.4376 -2.6189  1.1715
13200TIP3   OH261090   4.615   2.120   1.050 -0.0180  0.0701 -0.2006
13200TIP3    H161091   4.644   2.127   0.959 -0.3291 -1.5246 -0.4389
13200TIP3    H261092   4.521   2.136   1.046  0.3924  2.7531  0.2323
13201TIP3   OH261093   1.740   0.240   2.779 -0.8940 -0.3545 -0.3392
13201TIP3    H161094   1.768   0.220   2.869 -1.6436  0.0834 -0.0087
13201TIP3    H261095   1.741   0.155   2.735  2.5687 -0.1492 -0.8075
13202TIP3   OH261096   7.172   2.642   0.396  0.0576 -0.2971 -0.0156
13202TIP3    H161097   7.118   2.587   0.341  0.2988 -0.3169 -0.2322
13202TIP3    H261098   7.259   2.604   0.391  0.1417 -0.1309  0.1487
13203TIP3   OH261099   3.683   3.066  13.616 -0.0196 -0.1326 -0.5081
13203TIP3    H161100   3.682   3.159  13.639 -1.5602  0.1205 -1.4866
13203TIP3    H261101   3.756   3.030  13.666 -0.1277  1.3670  0.7981
13204TIP3   OH261102   2.543   4.998  12.562 -1.0954 -0.1084  0.2347
13204TIP3    H161103   2.616   4.937  12.561 -0.0468  1.0238  3.0731
13204TIP3    H261104   2.469   4.947  12.529  1.4127 -0.5264 -5.3873
13205TIP3   OH261105   1.264   4.697  12.753 -0.2869  0.0705  0.2286
13205TIP3    H161106   1.325   4.637  12.710 -0.8577  0.7237 -1.5237
13205TIP3    H261107   1.310   4.781  12.755 -0.1794 -0.0065  1.0912
13206TIP3   OH261108   5.079   0.092  14.578 -0.2902  0.0992  0.1419
13206TIP3    H161109   5.162   0.138  14.593 -1.0376  1.0249  1.5518
13206TIP3    H261110   5.027   0.153  14.525 -0.6646  0.2008  0.6211
13207TIP3   OH261111   0.712   4.807  15.036 -0.1468  0.3414 -0.1049
13207TIP3    H161112   0.777   4.874  15.016 -0.6367  0.8983  0.1516
13207TIP3    H261113   0.628   4.848  15.015 -0.3579 -0.7474 -1.4988
13208TIP3   OH261114   5.282   4.942  13.731  0.7725 -0.4898  0.1990
13208TIP3    H161115   5.341   4.890  13.677 -0.5647 -0.6211 -1.1725
13208TIP3    H261116   5.297   4.911  13.820  0.4423 -2.7852 -0.5207
13209TIP3   OH261117   1.789   7.078  15.301  0.7881  0.2432 -0.3564
13209TIP3    H161118   1.823   7.124  15.377 -1.0945 -0.2727  0.8195
13209TIP3    H261119   1.713   7.128  15.274 -0.3634 -1.2906 -0.0141
13210TIP3   OH261120   6.691   6.611  13.048  0.0744  0.8337 -0.1194
13210TIP3    H161121   6.652   6.624  12.961  0.0300  1.1995 -0.0475
13210TIP3    H261122   6.780   6.644  13.039 -0.0113  1.1133  0.0440
13211TIP3   OH261123   3.859   4.666  14.841 -0.2925 -0.0185  0.5205
13211TIP3    H161124   3.878   4.578  14.875  1.2603  0.2645  0.3984
13211TIP3    H261125   3.930   4.721  14.873 -0.3192  0.8443 -0.8312
13212TIP3   OH261126   4.003   1.773  14.974 -0.6757  0.2915 -0.2670
13212TIP3    H161127   4.045   1.737  15.052  0.2596  0.8007 -0.5216
13212TIP3    H261128   3.920   1.725  14.966  0.1065 -1.1183 -0.0635
13213TIP3   OH261129   1.845   4.694   2.091  0.3731 -0.1755 -0.7023
13213TIP3    H161130   1.913   4.730   2.034 -0.8986 -0.0725 -2.1896
13213TIP3    H261131   1.868   4.725   2.178  2.0024  0.2034 -1.2566
13214TIP3   OH261132   6.158   0.628   0.460  0.0150  0.2144 -0.1532
13214TIP3    H161133   6.081   0.588   0.419 -1.5184  2.0896  0.8447
13214TIP3    H261134   6.173   0.709   0.411 -0.0609  1.0118  1.1135
13215TIP3   OH261135   4.028   6.757  15.085  0.0035 -0.4940  0.0668
13215TIP3    H161136   4.025   6.693  15.015  1.0487 -0.7905  0.2881
13215TIP3    H261137   4.011   6.841  15.042 -0.3891 -0.7984 -0.3703
13216TIP3   OH261138   5.115   5.343   4.708  0.5491  0.1360 -0.9954
13216TIP3    H161139   5.182   5.312   4.768  0.1936  0.3987 -0.4538
13216TIP3    H261140   5.163   5.387   4.639  0.8866  1.3257 -0.0206
13217TIP3   OH261141   1.316   2.398   1.940 -0.3850 -0.0122  0.4734
13217TIP3    H161142   1.248   2.417   2.005 -1.3993 -1.5991 -0.0814
13217TIP3    H261143   1.373   2.475   1.941 -2.8122  1.8484  0.1417
13218TIP3   OH261144   4.920   6.037   0.620  0.5533  0.2815 -0.2142
13218TIP3    H161145   5.007   6.016   0.586  1.0080  2.7609 -0.7022
13218TIP3    H261146   4.865   6.046   0.542  0.5029  1.3487 -0.0680
13219TIP3   OH261147   6.742   6.168   0.196 -0.1238  0.1632  0.3477
13219TIP3    H161148   6.649   6.148   0.206 -0.1308 -0.5097 -0.8747
13219TIP3    H261149   6.784   6.082   0.185  0.6520  0.4546  0.9102
13220TIP3   OH261150   2.366   2.997   1.494  0.0580 -0.2982  0.1623
13220TIP3    H161151   2.280   3.007   1.536  0.2105  0.2047  0.3679
13220TIP3    H261152   2.389   2.905   1.508 -0.8357 -0.6575 -0.6557
13221TIP3   OH261153   2.437   4.618   1.141 -0.1968  0.1042 -0.5285
13221TIP3    H161154   2.430   4.654   1.229 -4.0015 -0.0122 -0.6680
13221TIP3    H261155   2.415   4.525   1.151  0.1095 -0.0789 -1.4836
13222TIP3   OH261156   4.401   1.278   1.656  0.0841 -0.3961  0.4316
13222TIP3    H161157   4.470   1.344   1.650  1.6185 -1.8375  1.9296
13222TIP3    H261158   4.429   1.208   1.597 -0.3940 -0.7219  0.5893
13223TIP3   OH261159   2.249   1.002  13.948 -0.4941 -0.2029 -0.5234
13223TIP3    H161160   2.222   1.086  13.986 -1.6189 -0.9325  0.3343
13223TIP3    H261161   2.338   1.017  13.917 -0.3831  1.0781  0.3747
13224TIP3   OH261162   5.289   4.372  14.175 -0.4146  0.0724 -0.4883
13224TIP3    H161163   5.203   4.333  14.159 -0.0611 -0.5079 -0.9894
13224TIP3    H261164   5.310   4.418  14.095 -0.2533  0.2102 -0.3659
13225TIP3   OH261165   3.703   3.673  15.312 -1.1323 -0.2714  0.2336
13225TIP3    H161166   3.692   3.753  15.363  2.1080  1.1420 -1.1495
13225TIP3    H261167   3.714   3.604  15.377  0.1858  1.0599  1.4590
13226TIP3   OH261168   6.518   3.156   1.327  0.4877 -0.3833 -0.3941
13226TIP3    H161169   6.552   3.239   1.293  1.0717 -0.1863  0.6697
13226TIP3    H261170   6.433   3.147   1.285  1.7879 -0.8598 -3.1069
13227TIP3   OH261171   5.963   4.782   0.179  0.0689 -0.2646  0.0096
13227TIP3    H161172   5.999   4.846   0.118 -1.1402 -0.5243 -1.0206
13227TIP3    H261173   5.979   4.819   0.266 -0.0824  1.1512 -0.5470
13228TIP3   OH261174   6.089   6.815   1.195  0.4416  0.0649  0.3690
13228TIP3    H161175   6.028   6.872   1.241 -0.2350 -1.2355  1.1302
13228TIP3    H261176   6.102   6.856   1.110 -0.0118  1.3459  0.9156
13229TIP3   OH261177   0.878   5.792  13.632  0.8574 -0.2767  0.3527
13229TIP3    H161178   0.935   5.805  13.708 -0.8156  0.4816  1.5249
13229TIP3    H261179   0.790   5.788  13.669 -0.5917  5.3745 -1.9448
13230TIP3   OH261180   3.951   1.521   0.919 -0.4622  0.7799 -0.2251
13230TIP3    H161181   3.912   1.457   0.979 -2.8692  2.2886 -0.1213
13230TIP3    H261182   3.964   1.599   0.973 -0.2308  1.3152 -1.0455
13231TIP3   OH261183   5.027   2.143   3.482  0.2750  0.0422 -0.7344
13231TIP3    H161184   4.994   2.092   3.556  2.3565  1.1058  0.9885
13231TIP3    H261185   4.949   2.167   3.432 -1.3176  0.4372  1.8596
13232TIP3   OH261186   1.751   1.770   2.359  0.6042 -0.4573  0.0311
13232TIP3    H161187   1.811   1.769   2.284  0.2842 -1.5549 -0.2305
13232TIP3    H261188   1.805   1.798   2.433  0.8474  0.9336 -0.6651
13233TIP3   OH261189   5.028   6.214  15.172 -0.4763  0.1017 -0.3244
13233TIP3    H161190   4.981   6.185  15.250 -2.6254 -1.4662 -2.1524
13233TIP3    H261191   5.083   6.140  15.147  0.4258  0.7048 -0.1362
13234TIP3   OH261192   1.307   6.348   5.597 -0.4044 -0.0741 -0.4584
13234TIP3    H161193   1.386   6.393   5.567 -1.6890  1.2777 -1.9508
13234TIP3    H261194   1.338   6.282   5.659  1.4825  3.5417  2.6081
13235TIP3   OH261195   1.041   6.759   3.771  0.9661 -0.2089  0.6409
13235TIP3    H161196   1.011   6.798   3.853 -2.1634  0.2513 -0.6750
13235TIP3    H261197   0.995   6.675   3.766  2.1481 -0.8396 -0.0574
13236TIP3   OH261198   3.873   6.148   1.784 -0.4902 -0.1408 -0.4255
13236TIP3    H161199   3.861   6.243   1.784  1.3393  0.1320  1.1373
13236TIP3    H261200   3.880   6.125   1.877  0.7000 -1.5565 -0.8373
13237TIP3   OH261201   1.193   1.014   1.345  0.1744 -0.3428  0.0544
13237TIP3    H161202   1.130   0.949   1.376 -1.9432  1.0713 -1.1549
13237TIP3    H261203   1.192   1.083   1.412 -2.1012  1.2437 -1.5159
13238TIP3   OH261204   3.070   3.073   1.534 -0.2650 -0.3629  0.3694
13238TIP3    H161205   3.055   3.045   1.444 -2.8548  0.0432  0.6208
13238TIP3    H261206   3.111   2.997   1.577 -2.1678 -1.8184 -0.3087
13239TIP3   OH261207   5.181   7.130   3.654  0.2455 -0.1243 -0.0718
13239TIP3    H161208   5.127   7.206   3.634 -0.6262 -0.5055  0.8330
13239TIP3    H261209   5.264   7.166   3.684  1.1927  0.4763 -3.1893
13240TIP3   OH261210   2.266   6.968   1.286  0.0343  0.6181  0.3238
13240TIP3    H161211   2.205   6.995   1.218 -0.5250  0.0249  0.5919
13240TIP3    H261212   2.346   6.944   1.238 -0.2064  0.6319 -0.0873
13241TIP3   OH261213   2.325   3.909   0.665 -0.1531  0.2474  0.6957
13241TIP3    H161214   2.391   3.914   0.734  0.6929  0.9918 -0.1454
13241TIP3    H261215   2.308   4.000   0.641 -1.4802  0.0602  0.8909
13242TIP3   OH261216   4.124   5.757   2.727  0.1350  0.2653  0.4558
13242TIP3    H161217   4.123   5.711   2.810  0.4343  2.8514  1.9338
13242TIP3    H261218   4.061   5.829   2.738 -0.9105 -0.1870 -2.0509
13243TIP3   OH261219   5.643   3.024  15.173 -0.5744  0.1268  0.1675
13243TIP3    H161220   5.571   3.087  15.170  0.4670  1.4541  1.9705
13243TIP3    H261221   5.706   3.058  15.109 -1.5878 -1.1293 -1.5377
13244TIP3   OH261222   6.281   1.502  15.438 -1.0342 -0.1363  0.1450
13244TIP3    H161223   6.250   1.526  15.525 -1.3613  1.5180 -0.4151
13244TIP3    H261224   6.270   1.581  15.385 -1.0491 -1.1776 -1.4631
13245TIP3   OH261225   5.558   5.918   2.742  0.3463  0.5781  0.5729
13245TIP3    H161226   5.579   5.909   2.835 -0.0546  0.3300  0.6434
13245TIP3    H261227   5.602   5.998   2.715 -0.1350  1.0511  1.1584
13246TIP3   OH261228   5.067   3.666   3.188 -0.3183  0.4419 -0.0922
13246TIP3    H161229   4.996   3.649   3.250 -1.3932 -0.7808 -1.5963
13246TIP3    H261230   5.135   3.710   3.239 -1.3059 -0.2587  1.8600
13247TIP3   OH261231   0.609   6.228   0.715  0.3945 -0.4699 -0.0560
13247TIP3    H161232   0.582   6.220   0.806 -1.5022 -1.0263 -0.6367
13247TIP3    H261233   0.624   6.321   0.703 -1.5036 -0.0847  0.2801
13248TIP3   OH261234   5.764   6.070   1.577 -0.3595 -0.3090 -0.1440
13248TIP3    H161235   5.709   6.066   1.499  1.3586 -0.9071 -1.3638
13248TIP3    H261236   5.754   6.160   1.609  0.4203  0.5531 -2.2119
13249TIP3   OH261237   4.415   5.691   2.658  0.4376 -0.6906  0.0881
13249TIP3    H161238   4.321   5.703   2.642  0.7718  2.1707  0.0136
13249TIP3    H261239   4.456   5.713   2.574  1.2690 -0.2771  0.5946
13250TIP3   OH261240   5.768   7.120  13.260 -0.0795 -0.3140  0.1069
13250TIP3    H161241   5.775   7.187  13.192 -1.2429  1.8053  2.0183
13250TIP3    H261242   5.852   7.074  13.258 -0.0507 -0.1826 -2.6338
13251TIP3   OH261243   6.906   4.494   0.358 -0.4550 -0.3690  0.0414
13251TIP3    H161244   6.989   4.456   0.332 -1.9717 -3.7046 -0.2212
13251TIP3    H261245   6.878   4.546   0.283  1.8075  1.6463  0.5221
13252TIP3   OH261246   1.932   2.561   1.017 -0.5536  0.4986 -0.5093
13252TIP3    H161247   1.847   2.527   1.045 -1.1091  0.3001 -2.3768
13252TIP3    H261248   1.911   2.627   0.951  0.7245  0.4789 -0.9544
13253TIP3   OH261249   1.503   4.815   1.489  0.0473  0.1087 -0.1810
13253TIP3    H161250   1.571   4.774   1.543  1.6929  3.0777  0.0935
13253TIP3    H261251   1.422   4.800   1.538  0.9423 -0.7121  1.0933
13254TIP3   OH261252   3.174   1.300   0.985 -1.4343  0.2698  0.3864
13254TIP3    H161253   3.141   1.267   1.068 -1.2056 -1.3987 -0.1771
13254TIP3    H261254   3.166   1.227   0.924  0.1467  0.8721 -0.5952
13255TIP3   OH261255   6.581   4.379   4.763 -0.1811 -0.2173  0.6497
13255TIP3    H161256   6.496   4.387   4.806 -0.9431  1.2255 -1.0775
13255TIP3    H261257   6.612   4.469   4.754  1.4310 -0.7259  1.0784
13256TIP3   OH261258   1.107   5.958   0.875 -0.7564  0.0592 -0.3945
13256TIP3    H161259   1.129   5.998   0.959 -2.4523 -0.5073  0.3515
13256TIP3    H261260   1.042   6.018   0.837  0.9942  1.0177 -1.9296
13257TIP3   OH261261   1.013   3.762  12.307 -0.0528 -0.2054 -0.4537
13257TIP3    H161262   1.042   3.819  12.378  0.6056  0.6863 -1.4339
13257TIP3    H261263   1.066   3.787  12.232 -1.1015 -0.7820 -1.4084
13258TIP3   OH261264   6.490   0.083   0.006  1.0642 -0.3764  0.1343
13258TIP3    H161265   6.454   0.066   0.094  0.1377  0.4485 -0.0702
13258TIP3    H261266   6.512  -0.003  -0.028  0.0980 -0.8262  0.6264
13259TIP3   OH261267   6.912   3.992   1.248 -0.3595  0.1397  0.5291
13259TIP3    H161268   6.899   3.993   1.153  0.4140 -2.9058  0.3450
13259TIP3    H261269   6.988   4.048   1.262 -0.2638  0.3268 -0.6785
13260TIP3   OH261270   5.100   5.810   2.430  0.0526 -0.1860 -1.3612
13260TIP3    H161271   5.114   5.720   2.460  0.1212  0.1244 -0.4350
13260TIP3    H261272   5.023   5.839   2.478  2.4919  1.6710  1.6620
13261TIP3   OH261273   1.147   5.501  12.781  0.1616  0.1428 -0.5946
13261TIP3    H161274   1.072   5.506  12.840 -0.0022 -1.6065 -0.6359
13261TIP3    H261275   1.194   5.582  12.796 -0.0441 -0.1376  1.7283
13262TIP3   OH261276   6.512   0.680   3.556  0.3124 -0.1442  0.5631
13262TIP3    H161277   6.521   0.670   3.461 -0.5904  0.4468  0.4072
13262TIP3    H261278   6.493   0.592   3.588  0.0713 -0.2543  0.1253
13263TIP3   OH261279   5.136   2.919  13.506 -0.3258  1.1296 -0.6930
13263TIP3    H161280   5.069   2.850  13.516  0.0527  1.0658  1.6964
13263TIP3    H261281   5.087   2.995  13.475 -1.7661  1.4165  2.1070
13264TIP3   OH261282   6.163   0.367   1.209 -0.8439 -0.3146 -0.3033
13264TIP3    H161283   6.189   0.287   1.255 -1.2579 -0.9055 -1.0840
13264TIP3    H261284   6.198   0.438   1.263 -0.8435 -1.0091  0.6314
13265TIP3   OH261285   0.048   3.553  15.339  0.2585 -0.8767 -0.2584
13265TIP3    H161286   0.142   3.570  15.346 -0.2258  2.2968 -0.7426
13265TIP3    H261287   0.020   3.602  15.262 -2.0769 -0.4787  0.7948
13266TIP3   OH261288   0.120   1.309   1.051 -0.2075 -0.1503  0.1168
13266TIP3    H161289   0.110   1.302   1.146 -0.4253 -0.3251  0.0836
13266TIP3    H261290   0.170   1.231   1.027 -0.7730 -0.4819  0.0024
13267TIP3   OH261291   0.043   7.066  14.816 -0.1718  0.3206 -0.6562
13267TIP3    H161292   0.096   7.061  14.896  1.9604 -1.9163 -2.1248
13267TIP3    H261293   0.055   7.156  14.785  1.8181  0.2059 -0.2875
13268TIP3   OH261294   3.445   4.997   4.645 -0.8651 -0.9594 -0.6066
13268TIP3    H161295   3.467   5.071   4.589 -1.7702  0.2888  0.6455
13268TIP3    H261296   3.526   4.978   4.692 -1.0615  0.3435  0.2940
13269TIP3   OH261297   0.052   6.596   0.208  0.9004 -0.0594 -0.2502
13269TIP3    H161298   0.074   6.615   0.117  0.5983 -1.2085 -0.5691
13269TIP3    H261299   0.056   6.501   0.215  1.8157  0.0640  1.1798
13270TIP3   OH261300   2.722   1.597   2.994  0.1166 -0.0815  0.5007
13270TIP3    H161301   2.630   1.580   2.975  0.2456  0.9208 -1.0999
13270TIP3    H261302   2.743   1.537   3.066 -1.5103 -1.0231  0.2155
13271TIP3   OH261303   1.924   3.794  12.796  0.1797  0.0968 -0.0938
13271TIP3    H161304   1.844   3.806  12.744  0.1043  0.1448  0.0328
13271TIP3    H261305   1.973   3.875  12.782 -0.3243  0.5591  0.7501
13272TIP3   OH261306   7.031   3.735   5.396 -0.5124 -0.0596 -0.4042
13272TIP3    H161307   6.957   3.692   5.354 -0.7691 -0.5076  0.4871
13272TIP3    H261308   7.015   3.724   5.490  0.7927 -0.3596 -0.2083
13273TIP3   OH261309   2.609   3.096   0.615  0.2163 -0.2059 -1.1211
13273TIP3    H161310   2.657   3.018   0.643 -0.2958 -0.1576 -0.0684
13273TIP3    H261311   2.663   3.133   0.545  1.2982 -0.6098 -0.5233
13274TIP3   OH261312   5.138   6.647   2.306  0.2855 -0.3254 -0.0630
13274TIP3    H161313   5.081   6.572   2.321 -0.8042  0.5403  0.1598
13274TIP3    H261314   5.079   6.721   2.294  1.3716  0.6994  0.7511
13275TIP3   OH261315   1.673   4.743   1.723  0.0294 -0.1131 -0.0821
13275TIP3    H161316   1.681   4.829   1.765 -3.8399 -0.3658  1.4294
13275TIP3    H261317   1.685   4.680   1.794  0.2481 -0.7332 -0.6658
13276TIP3   OH261318   2.605   6.608   1.168 -0.8618 -0.0545 -0.4609
13276TIP3    H161319   2.510   6.591   1.163 -0.7059 -0.5409 -2.3225
13276TIP3    H261320   2.644   6.537   1.117  0.5434 -0.0809  0.6280
13277TIP3   OH261321   4.142   6.564   3.578 -0.2479 -0.2114 -0.2145
13277TIP3    H161322   4.116   6.640   3.526  1.3658  1.0090  0.7506
13277TIP3    H261323   4.072   6.500   3.562 -1.7689  1.5525 -0.8165
13278TIP3   OH261324   3.776   3.430  14.645  0.2500 -0.1655  0.2542
13278TIP3    H161325   3.693   3.393  14.616  0.0560  0.3745  0.1019
13278TIP3    H261326   3.843   3.378  14.601 -0.0429  0.4955 -0.9770
13279TIP3   OH261327   2.520   1.435  15.609 -0.5602 -0.5987  0.0591
13279TIP3    H161328   2.467   1.515  15.600  0.6379  0.1592 -0.4213
13279TIP3    H261329   2.608   1.467  15.630 -0.1514 -1.8162  0.2371
13280TIP3   OH261330   0.928   0.774   2.137  0.2339  0.4162  0.3616
13280TIP3    H161331   0.848   0.788   2.087  0.2683 -3.4375 -0.9221
13280TIP3    H261332   0.903   0.792   2.228 -2.1250 -0.8720  0.0028
13281TIP3   OH261333   1.636   2.896  13.763 -0.1441  0.4588 -0.7601
13281TIP3    H161334   1.593   2.947  13.831 -0.3875 -0.2261 -0.3936
13281TIP3    H261335   1.668   2.818  13.808 -0.0393  0.1491 -1.3668
13282TIP3   OH261336   4.610   4.909  15.603  0.9187  0.3346 -0.8327
13282TIP3    H161337   4.586   5.001  15.592  0.5820  0.4870  1.1239
13282TIP3    H261338   4.540   4.860  15.560  0.3663  0.9495 -0.6314
13283TIP3   OH261339   4.771   4.559  12.336 -0.2932 -0.1336  0.6100
13283TIP3    H161340   4.696   4.507  12.365 -1.7768  1.8783  0.4657
13283TIP3    H261341   4.761   4.643  12.381  1.8423  0.1941  0.5202
13284TIP3   OH261342   3.985   4.615   1.232  0.3005 -0.0044  0.1898
13284TIP3    H161343   3.897   4.645   1.211  0.4580 -0.0322 -0.5110
13284TIP3    H261344   4.008   4.662   1.312 -0.4428 -0.1818  0.5098
13285TIP3   OH261345   5.059   5.877   0.443  0.0557 -0.3057  0.2440
13285TIP3    H161346   5.104   5.858   0.360 -0.4577 -0.6691  0.0506
13285TIP3    H261347   5.003   5.802   0.458 -0.7095  0.2851  0.3489
13286TIP3   OH261348   5.934   5.366  14.795  0.0632 -0.3281 -0.4183
13286TIP3    H161349   6.026   5.390  14.784  0.2741 -1.4922 -1.3895
13286TIP3    H261350   5.891   5.402  14.717 -0.2858  0.1362 -0.0105
13287TIP3   OH261351   0.345   6.685   3.047  0.8268  0.4119 -0.3384
13287TIP3    H161352   0.345   6.649   2.959  1.0309  0.2904 -0.2898
13287TIP3    H261353   0.416   6.749   3.046  2.4908 -1.3851  0.4618
13288TIP3   OH261354   5.387   6.145   3.315  0.1923  0.3508  0.0685
13288TIP3    H161355   5.339   6.228   3.320 -0.5058 -0.1201  1.3370
13288TIP3    H261356   5.362   6.098   3.394 -0.7695 -1.8060 -1.4696
13289TIP3   OH261357   4.490   6.045  14.429 -0.5355 -0.9189 -0.4294
13289TIP3    H161358   4.487   6.139  14.447 -0.1835 -0.8770 -0.5992
13289TIP3    H261359   4.423   6.031  14.362  0.0473 -0.6485 -1.0658
13290TIP3   OH261360   5.960   1.503   0.215  0.4661 -0.0725 -0.0159
13290TIP3    H161361   5.903   1.436   0.252 -0.1872  0.1012 -0.6988
13290TIP3    H261362   5.901   1.572   0.185  1.2294  1.7973  2.5790
13291TIP3   OH261363   4.242   4.536  14.989 -0.1922 -0.3392 -0.1597
13291TIP3    H161364   4.300   4.463  14.969 -0.2553 -0.7223  1.0620
13291TIP3    H261365   4.288   4.613  14.955  1.0929 -0.6234  0.9082
13292TIP3   OH261366   0.830   1.589   0.061  0.1599 -0.0565 -0.1379
13292TIP3    H161367   0.782   1.650   0.116 -0.0101  0.8039 -1.2134
13292TIP3    H261368   0.886   1.645   0.007  0.6201 -0.9049 -0.5532
13293TIP3   OH261369   1.662   4.570   1.942 -0.3998 -0.1857  0.6033
13293TIP3    H161370   1.719   4.613   2.006  0.5379  0.4381 -0.6285
13293TIP3    H261371   1.574   4.604   1.961  0.3606  2.4999 -0.5125
13294TIP3   OH261372   7.095   3.733  15.552  0.6301  0.0543  0.6441
13294TIP3    H161373   7.145   3.660  15.516 -1.3022 -0.5800 -0.8207
13294TIP3    H261374   7.161   3.800  15.570  2.2217 -1.3975  0.4359
13295TIP3   OH261375   4.369   0.277   2.857  0.2071 -0.2513  0.2836
13295TIP3    H161376   4.457   0.249   2.831 -0.0395 -0.3891 -0.3884
13295TIP3    H261377   4.314   0.258   2.782 -0.4611 -0.4372  0.8185
13296TIP3   OH261378   2.124   0.189   2.754  0.0254  0.1852  0.5114
13296TIP3    H161379   2.141   0.278   2.783  0.0050  0.1515  0.6271
13296TIP3    H261380   2.056   0.198   2.688 -0.3774  0.2015  0.9249
13297TIP3   OH261381   5.664   3.086  13.750 -0.2748 -0.2874 -0.1486
13297TIP3    H161382   5.665   3.021  13.680 -0.1884  0.1933 -0.5980
13297TIP3    H261383   5.571   3.097  13.771 -0.1364 -2.5423  1.8053
13298TIP3   OH261384   2.595   4.443   0.370 -0.4164 -0.4971  0.5023
13298TIP3    H161385   2.645   4.525   0.368 -2.7163  1.0866  3.8204
13298TIP3    H261386   2.659   4.377   0.397  1.2135  0.3324 -1.1819
13299TIP3   OH261387   5.417   6.684   0.545 -0.3120  0.3406  0.0823
13299TIP3    H161388   5.473   6.680   0.622 -0.0253 -1.2695 -0.1860
13299TIP3    H261389   5.473   6.657   0.473 -0.4499  2.2923 -0.7829
13300TIP3   OH261390   3.305   6.391   4.410 -0.0938 -0.2262  0.1092
13300TIP3    H161391   3.322   6.329   4.481 -0.2404  0.0268  0.3694
13300TIP3    H261392   3.279   6.336   4.336  0.0922 -0.4948  0.2428
13301TIP3   OH261393   6.285   6.003  14.393  0.2827 -0.2645  0.5791
13301TIP3    H161394   6.373   6.014  14.428  0.8000 -0.1210 -0.7713
13301TIP3    H261395   6.252   6.092  14.383  1.1915 -0.1777 -1.9575
13302TIP3   OH261396   1.436   3.446   0.803 -0.2016 -0.8013 -0.0414
13302TIP3    H161397   1.509   3.501   0.773 -1.0729 -0.1193 -0.9827
13302TIP3    H261398   1.441   3.449   0.898  1.6032 -1.5978 -0.0970
13303TIP3   OH261399   3.680   6.221   5.338 -0.4314 -0.5659  0.3722
13303TIP3    H161400   3.704   6.172   5.260 -2.5548 -0.1267 -0.5918
13303TIP3    H261401   3.751   6.284   5.350  1.5836 -2.8271  0.7690
13304TIP3   OH261402   4.285   0.901   4.741  0.4970 -0.5825  0.3920
13304TIP3    H161403   4.332   0.930   4.662 -1.3806 -1.4851 -1.0816
13304TIP3    H261404   4.279   0.806   4.732 -2.3226 -0.4163  0.1292
13305TIP3   OH261405   6.152   2.112   0.685  0.0130  0.2118 -0.7501
13305TIP3    H161406   6.131   2.106   0.592 -1.9452 -3.5228 -0.1855
13305TIP3    H261407   6.080   2.164   0.722 -1.0117 -1.0614 -0.8907
13306TIP3   OH261408   5.790   5.218   2.160  0.5711  0.2522 -0.3429
13306TIP3    H161409   5.765   5.305   2.191  0.3010  0.4094 -0.9808
13306TIP3    H261410   5.853   5.235   2.090  0.0387 -0.0397 -0.8957
13307TIP3   OH261411   3.731   5.287   0.266  0.2293  0.1884  0.3726
13307TIP3    H161412   3.804   5.231   0.239  0.6172  0.9232 -0.1344
13307TIP3    H261413   3.730   5.279   0.362  1.2862  0.5164  0.4297
13308TIP3   OH261414   2.216   6.195  14.788 -0.2902 -0.0321 -0.5199
13308TIP3    H161415   2.260   6.205  14.704  0.4502 -1.2120 -0.2848
13308TIP3    H261416   2.220   6.101  14.806 -0.3652  0.2237  0.8754
13309TIP3   OH261417   1.880   0.823  10.302 -0.6519 -0.1900  0.3839
13309TIP3    H161418   1.860   0.730  10.309  1.1643 -0.5588  0.7407
13309TIP3    H261419   1.815   0.866  10.359  0.0177 -1.4213  2.0922
13310TIP3   OH261420   1.503   3.805  13.136 -0.1604  0.4520  0.8532
13310TIP3    H161421   1.513   3.849  13.220 -2.5580  1.4894  0.6321
13310TIP3    H261422   1.553   3.724  13.146  2.9583  2.3937  1.8355
13311TIP3   OH261423   0.374   5.094   0.445  0.0178  0.2381 -0.2601
13311TIP3    H161424   0.450   5.136   0.484 -0.4585 -0.5464  1.5751
13311TIP3    H261425   0.300   5.148   0.472 -0.5558 -1.4793  1.7682
13312TIP3   OH261426   3.453   7.097   0.649  0.1522  0.1082 -0.1728
13312TIP3    H161427   3.547   7.095   0.667 -0.2318  1.6030  2.2443
13312TIP3    H261428   3.430   7.005   0.638  1.5670 -0.4585  1.2710
13313TIP3   OH261429   0.754   3.880   0.948  0.1388 -0.7488  0.4217
13313TIP3    H161430   0.838   3.913   0.979 -0.2418 -0.3483  1.0202
13313TIP3    H261431   0.774   3.841   0.863  0.5870  1.0968 -0.3532
13314TIP3   OH261432   1.112   5.181   0.657 -0.2290 -0.5350  0.6590
13314TIP3    H161433   1.165   5.231   0.595 -2.9111  0.8695 -0.6233
13314TIP3    H261434   1.113   5.233   0.737 -1.2033  0.4999  0.0219
13315TIP3   OH261435   1.944   6.670   0.220 -0.2203 -0.1408 -0.1099
13315TIP3    H161436   1.933   6.733   0.291 -1.2538 -0.2279 -0.1828
13315TIP3    H261437   2.008   6.608   0.254  1.7419  1.6284 -0.5296
13316TIP3   OH261438   3.559   1.105   1.644  0.6511 -0.4786  0.1832
13316TIP3    H161439   3.637   1.161   1.645 -0.2793  0.8487  0.6590
13316TIP3    H261440   3.498   1.149   1.584  0.5993 -1.9953 -0.9174
13317TIP3   OH261441   0.222   5.850   1.441 -0.0311 -0.1712 -0.5717
13317TIP3    H161442   0.147   5.908   1.425 -0.8806 -1.1551 -0.2315
13317TIP3    H261443   0.255   5.879   1.526 -0.3441 -0.0686 -0.4821
13318TIP3   OH261444   4.956   3.627   3.763 -0.1927 -0.8037  0.2693
13318TIP3    H161445   5.008   3.577   3.826  0.3281  0.2589  0.6948
13318TIP3    H261446   4.865   3.614   3.792 -0.2116 -2.9213 -0.6638
13319TIP3   OH261447   0.123   5.726  15.451  0.4002 -0.1477  0.4466
13319TIP3    H161448   0.128   5.782  15.528 -2.4771  2.3101 -1.0474
13319TIP3    H261449   0.212   5.729  15.414  1.1788  0.6193  2.3037
13320TIP3   OH261450   3.738   6.781   1.213  0.3985  0.0127 -0.5158
13320TIP3    H161451   3.725   6.863   1.165  1.0402  0.6984  0.4665
13320TIP3    H261452   3.706   6.800   1.302  0.7657 -0.7229 -0.2213
13321TIP3   OH261453   2.035   4.865   1.924 -0.4156  0.0391 -0.4347
13321TIP3    H161454   2.094   4.881   1.998 -0.9636  1.1221 -0.2212
13321TIP3    H261455   1.998   4.950   1.904 -1.4767 -0.5321 -0.9402
13322TIP3   OH261456   5.448   0.101  14.346  0.4746 -0.4653  0.0261
13322TIP3    H161457   5.447   0.064  14.434 -0.3792  0.9664  0.6510
13322TIP3    H261458   5.442   0.026  14.287  2.8741 -1.5616  1.1278
13323TIP3   OH261459   4.257   5.956   4.896 -0.4376 -0.0611 -0.5050
13323TIP3    H161460   4.189   5.989   4.955 -0.1817 -0.3480 -0.0534
13323TIP3    H261461   4.316   5.906   4.952  0.4415  0.6216 -0.8080
13324TIP3   OH261462   1.407   1.742  15.535  0.2891 -0.1380 -0.2760
13324TIP3    H161463   1.441   1.830  15.550  1.3037 -0.8736  2.0950
13324TIP3    H261464   1.362   1.746  15.451  1.7899  2.1961 -0.9820
13325TIP3   OH261465   2.357   7.042  11.893  0.3827  0.0936 -0.1839
13325TIP3    H161466   2.324   7.027  11.804  0.7320  1.4433 -0.5512
13325TIP3    H261467   2.278   7.038  11.948  0.0906 -0.1905 -0.6146
13326TIP3   OH261468   3.368   0.714   3.447  0.1300  0.2809 -0.3512
13326TIP3    H161469   3.437   0.647   3.444 -1.5674 -1.5608  0.7078
13326TIP3    H261470   3.309   0.690   3.376  0.1129  1.3627 -0.7112
13327TIP3   OH261471   3.305   3.735  15.574 -0.3253 -0.1384  0.1760
13327TIP3    H161472   3.210   3.744  15.570 -0.2602  0.2513 -0.6287
13327TIP3    H261473   3.333   3.726  15.483  0.3898 -0.4951  0.4178
13328TIP3   OH261474   0.335   6.121  14.744 -0.3771  0.1229 -0.0993
13328TIP3    H161475   0.398   6.141  14.676  1.8215 -0.6144  1.6428
13328TIP3    H261476   0.275   6.058  14.704  0.6930 -0.0675 -1.4255
13329TIP3   OH261477   6.981   6.650  15.031  0.6596  0.8414  1.1214
13329TIP3    H161478   6.937   6.723  14.987  0.6359  1.0472  1.4831
13329TIP3    H261479   6.979   6.579  14.967  2.3579  1.7254  0.0431
13330TIP3   OH261480   5.979   6.457   1.769  0.4744 -0.3301  0.1546
13330TIP3    H161481   5.907   6.422   1.823 -0.7780 -0.2214 -1.3934
13330TIP3    H261482   6.030   6.511   1.829 -0.3743 -0.9200  1.4415
13331TIP3   OH261483   0.176   5.112   4.562  0.4708 -0.9217  0.7911
13331TIP3    H161484   0.111   5.162   4.612  0.7763  0.1805  0.1198
13331TIP3    H261485   0.136   5.102   4.475  0.5434 -1.5709  0.8366
13332TIP3   OH261486   0.037   4.611  14.943 -0.4064 -0.2610  0.0320
13332TIP3    H161487  -0.045   4.645  14.977  0.5294 -0.8563  3.0041
13332TIP3    H261488   0.011   4.540  14.883 -2.0737  0.7467 -0.4624
13333TIP3   OH261489   3.405   3.239   2.054  0.5522 -0.2620 -0.2457
13333TIP3    H161490   3.417   3.152   2.017 -2.6292 -0.8693  0.0620
13333TIP3    H261491   3.376   3.292   1.980  0.4320  0.0615  0.0336
13334TIP3   OH261492   3.421   6.497   0.269  0.1709  0.1021  0.3892
13334TIP3    H161493   3.477   6.540   0.334  0.2734  0.6355 -0.0462
13334TIP3    H261494   3.475   6.492   0.191  0.0808 -0.6282  0.3692
13335TIP3   OH261495   3.171   3.711   2.774  0.1057  0.2260 -0.0451
13335TIP3    H161496   3.243   3.674   2.825  0.3076  0.2564 -0.3089
13335TIP3    H261497   3.199   3.703   2.683 -1.1708 -1.8504 -0.2965
13336TIP3   OH261498   4.382   6.846   1.676 -0.1035 -0.3401 -0.4790
13336TIP3    H161499   4.362   6.755   1.654 -3.3484  0.4270 -0.9385
13336TIP3    H261500   4.391   6.847   1.771 -0.2603 -1.1064 -0.4589
13337TIP3   OH261501   6.779   4.251   0.919 -0.0274 -0.1354 -0.2640
13337TIP3    H161502   6.830   4.308   0.977  1.5812  0.5358 -2.2973
13337TIP3    H261503   6.696   4.298   0.908  0.1835  0.4026  0.3657
13338TIP3   OH261504   3.781   4.973  14.829 -0.0469  0.2115 -0.0578
13338TIP3    H161505   3.843   4.901  14.842  1.0339  1.2792  0.7713
13338TIP3    H261506   3.719   4.939  14.765  0.4234 -1.4811  0.3527
13339TIP3   OH261507   1.391   0.390   1.826 -0.5369  0.5522  0.0736
13339TIP3    H161508   1.470   0.422   1.869 -0.9079  2.1575 -0.3986
13339TIP3    H261509   1.386   0.297   1.850  0.8946  0.6989  0.9849
13340TIP3   OH261510   1.527   1.483   0.442  0.2730  0.1688  0.2448
13340TIP3    H161511   1.448   1.516   0.482 -0.6265 -1.3379 -0.2428
13340TIP3    H261512   1.554   1.409   0.497  1.5582  0.8996  0.6266
13341TIP3   OH261513   3.132   5.971   4.258 -0.1433 -0.3512  0.3333
13341TIP3    H161514   3.086   6.055   4.248 -1.3525 -1.0230  0.1760
13341TIP3    H261515   3.155   5.946   4.169  1.6309  0.5649  0.4992
13342TIP3   OH261516   2.388   0.820  11.807  0.0481  0.2728  0.6440
13342TIP3    H161517   2.395   0.733  11.767 -0.9097  0.3747  0.2463
13342TIP3    H261518   2.294   0.835  11.816  0.1816  1.7186 -0.2705
13343TIP3   OH261519   1.947   5.122   3.843 -0.3626 -0.3677 -0.6558
13343TIP3    H161520   1.923   5.173   3.765  2.1936 -0.4272 -1.5367
13343TIP3    H261521   1.866   5.079   3.869 -1.5685  0.6885 -2.5056
13344TIP3   OH261522   6.604   5.707   2.065  0.1317  0.1284  0.4184
13344TIP3    H161523   6.683   5.750   2.032  0.9117 -0.5995  1.3164
13344TIP3    H261524   6.533   5.748   2.017  0.7959  2.9459  1.7231
13345TIP3   OH261525   6.239   6.605   1.639 -0.3811 -0.0021  0.0268
13345TIP3    H161526   6.205   6.609   1.549 -2.1045  0.0311  0.6738
13345TIP3    H261527   6.250   6.511   1.656 -0.0185 -0.0074 -0.2204
13346TIP3   OH261528   4.020   5.463  15.065  0.1768 -0.1286  0.1511
13346TIP3    H161529   3.987   5.499  14.983  0.9386  0.6940  0.2033
13346TIP3    H261530   4.100   5.417  15.040 -0.6893 -1.6718  0.1127
13347TIP3   OH261531   0.491   1.057   5.549 -0.2925 -0.4334  0.5547
13347TIP3    H161532   0.572   1.051   5.599  1.7099 -1.1494 -2.6265
13347TIP3    H261533   0.470   1.150   5.547 -0.2091 -0.3740  2.3949
13348TIP3   OH261534   3.899   0.524  14.618 -0.1739 -0.0728 -0.1759
13348TIP3    H161535   3.823   0.474  14.590 -0.3083  0.2933 -0.4710
13348TIP3    H261536   3.901   0.600  14.559 -1.2774  1.4591  1.7377
13349TIP3   OH261537   0.867   5.281   3.724  0.0403  0.0200 -0.5713
13349TIP3    H161538   0.849   5.372   3.751 -1.5349 -0.1491 -0.9784
13349TIP3    H261539   0.897   5.289   3.633 -0.0542  0.1394 -0.5930
13350TIP3   OH261540   2.796   6.884   1.943 -0.2265  0.0054  0.0897
13350TIP3    H161541   2.877   6.925   1.915  1.5271 -2.7459  1.0006
13350TIP3    H261542   2.805   6.875   2.038 -1.1423 -1.2448  0.0784
13351TIP3   OH261543   2.460   6.211   0.113 -0.0973 -0.3786  0.2911
13351TIP3    H161544   2.540   6.239   0.069 -0.2277 -0.6296 -0.1103
13351TIP3    H261545   2.404   6.178   0.042 -1.1144  1.1207  0.3805
13352TIP3   OH261546   1.426   2.295  14.908  0.1425  0.2362 -0.3824
13352TIP3    H161547   1.514   2.276  14.876  0.2739 -0.5665  0.4382
13352TIP3    H261548   1.368   2.245  14.850  0.4059 -1.5948  0.8886
13353TIP3   OH261549   0.438   6.280  13.397  0.0740 -0.0024 -0.1210
13353TIP3    H161550   0.464   6.191  13.375  0.6728 -0.3356  1.8100
13353TIP3    H261551   0.356   6.294  13.349  0.1930 -1.4329 -0.7663
13354TIP3   OH261552   2.197   5.344   0.273 -0.0853  0.0240 -0.0724
13354TIP3    H161553   2.243   5.344   0.357  1.1450  1.6640 -0.7294
13354TIP3    H261554   2.137   5.269   0.280  2.1857 -1.7932  1.0610
13355TIP3   OH261555   2.356   4.947   1.009  0.6991  0.4851  0.0032
13355TIP3    H161556   2.406   4.943   1.091  1.2484 -0.7729 -0.3876
13355TIP3    H261557   2.273   4.904   1.029  0.5069  0.8980  0.1140
13356TIP3   OH261558   4.564   5.496   3.288 -0.7053 -0.3593  0.1010
13356TIP3    H161559   4.620   5.574   3.294 -0.6827 -0.3986  0.3850
13356TIP3    H261560   4.506   5.502   3.364 -1.5637  0.0510 -0.5586
13357TIP3   OH261561   6.617   2.094   2.283  0.9234  0.1218 -0.4430
13357TIP3    H161562   6.585   2.174   2.323  0.0963 -0.4771  0.1107
13357TIP3    H261563   6.704   2.081   2.322  0.5999  0.1577  0.2945
13358TIP3   OH261564   4.622   5.428   2.434  0.4928  0.1680  0.3503
13358TIP3    H161565   4.612   5.345   2.481  1.8950 -0.8572 -1.1068
13358TIP3    H261566   4.661   5.403   2.350  1.1043  2.3293 -0.0298
13359TIP3   OH261567   6.000   6.658  13.436  0.0523  0.2010  0.3946
13359TIP3    H161568   5.997   6.753  13.444  2.4482  0.3528 -0.0572
13359TIP3    H261569   5.957   6.626  13.515 -0.6827  1.6497  0.6015
13360TIP3   OH261570   3.912   5.508   5.402  0.4090  0.3056 -0.4867
13360TIP3    H161571   3.950   5.595   5.401  0.8650  0.1330  0.7448
13360TIP3    H261572   3.931   5.475   5.490 -0.8882 -0.5268 -0.5097
13361TIP3   OH261573   3.496   0.021  15.309 -0.2925  0.0005  0.0729
13361TIP3    H161574   3.532  -0.057  15.267 -0.1182  1.1424 -1.9343
13361TIP3    H261575   3.410   0.033  15.270  0.1483  1.4634 -0.4961
13362TIP3   OH261576   4.995   2.809   3.486 -0.0714  0.2253  0.6020
13362TIP3    H161577   5.067   2.758   3.448  0.7325  2.7140 -1.3936
13362TIP3    H261578   4.967   2.867   3.415 -4.0227 -0.6134  1.3596
13363TIP3   OH261579   1.694   5.189   2.119 -0.0490 -0.0903 -0.2283
13363TIP3    H161580   1.777   5.156   2.152 -1.0668 -1.3487  1.1296
13363TIP3    H261581   1.642   5.110   2.102 -0.6767  0.6534 -1.8492
13364TIP3   OH261582   5.409   0.570  14.570  0.3309  0.1527  0.0329
13364TIP3    H161583   5.421   0.591  14.478  0.2122 -1.1407 -0.2908
13364TIP3    H261584   5.480   0.509  14.590  2.1370  2.6525  1.5827
13365TIP3   OH261585   4.608   1.004   1.883  0.2453  0.1337 -0.2599
13365TIP3    H161586   4.591   0.965   1.969  1.3041  2.1618  0.8843
13365TIP3    H261587   4.530   1.056   1.865  0.5586  0.7052  0.0376
13366TIP3   OH261588   6.191   5.306   1.810  0.2375  0.3437 -0.7030
13366TIP3    H161589   6.215   5.220   1.774  1.4008  0.5264 -0.3714
13366TIP3    H261590   6.191   5.364   1.735  1.8435  0.5472 -0.5748
13367TIP3   OH261591   3.796   2.500   3.986 -0.3464 -0.0174  0.4490
13367TIP3    H161592   3.810   2.434   4.053 -1.9497  1.3178  2.1286
13367TIP3    H261593   3.807   2.584   4.031 -1.5243  0.8973 -0.9180
13368TIP3   OH261594   2.858   1.799  15.583 -0.5308 -0.0278  0.1171
13368TIP3    H161595   2.834   1.885  15.548 -0.5441  0.8949  2.3232
13368TIP3    H261596   2.812   1.737  15.527 -2.3456  1.4885 -0.1253
13369TIP3   OH261597   2.937   3.682   0.690 -0.3455 -0.5521 -0.2210
13369TIP3    H161598   2.865   3.728   0.647 -1.0436 -1.3890  0.0357
13369TIP3    H261599   2.960   3.612   0.629  0.8656  0.2722 -0.7140
13370TIP3   OH261600   2.867   0.639  14.925 -0.3192 -0.1268 -0.1709
13370TIP3    H161601   2.888   0.728  14.898 -0.6487 -0.0181 -0.0700
13370TIP3    H261602   2.774   0.629  14.905 -0.7110  0.1443  1.4342
13371TIP3   OH261603   3.679   6.492   0.475 -0.3286  1.0442 -0.3470
13371TIP3    H161604   3.747   6.446   0.525 -0.8240  0.9913  0.2692
13371TIP3    H261605   3.719   6.506   0.388 -0.0812 -0.2982 -0.4514
13372TIP3   OH261606   3.220   0.155  15.467  0.2261 -0.0960 -0.5019
13372TIP3    H161607   3.157   0.178  15.535  0.4974 -1.6220  0.2909
13372TIP3    H261608   3.235   0.237  15.420 -1.4243  0.5587  0.0550
13373TIP3   OH261609   0.553   2.848   2.169 -0.5161  0.5628  0.6167
13373TIP3    H161610   0.598   2.777   2.123  1.1406  1.4766  0.8026
13373TIP3    H261611   0.551   2.820   2.260 -1.5916 -0.1158  0.3934
13374TIP3   OH261612   6.845   4.096  13.396  0.2150 -0.1780  0.7906
13374TIP3    H161613   6.877   4.009  13.418 -1.7549 -0.9097  0.8137
13374TIP3    H261614   6.777   4.114  13.460 -0.2456  0.8795  0.0267
13375TIP3   OH261615   2.135   2.534   3.537 -0.2666 -0.4268 -0.4254
13375TIP3    H161616   2.112   2.442   3.552 -0.0380 -0.3275  0.5627
13375TIP3    H261617   2.222   2.531   3.497 -0.0920 -0.6308 -0.0354
13376TIP3   OH261618   6.202   0.268   0.188  0.4637  0.1506 -0.1228
13376TIP3    H161619   6.264   0.196   0.200  1.1122  0.5710 -0.9448
13376TIP3    H261620   6.151   0.245   0.111 -0.5220 -0.2762  0.6547
13377TIP3   OH261621   5.047   4.673  12.543 -0.4644 -0.3272 -0.3478
13377TIP3    H161622   5.018   4.601  12.599  0.6109  0.2151  0.9499
13377TIP3    H261623   5.141   4.658  12.532 -0.3566  0.5073 -0.6081
13378TIP3   OH261624   1.588   6.309  13.446  0.6399 -0.2248 -0.5300
13378TIP3    H161625   1.656   6.365  13.408 -0.4222  0.3858 -1.5817
13378TIP3    H261626   1.544   6.271  13.370 -0.0182 -0.8159  0.1467
13379TIP3   OH261627   6.127   6.897  12.916 -0.6212  0.1000  0.4175
13379TIP3    H161628   6.172   6.980  12.926 -1.7893  0.6956  0.7662
13379TIP3    H261629   6.059   6.914  12.851  1.0279 -1.3663 -1.7806
13380TIP3   OH261630   3.291   6.767  15.018 -0.1336 -0.4117  0.2176
13380TIP3    H161631   3.238   6.842  14.991 -1.2664 -1.9662 -2.0958
13380TIP3    H261632   3.376   6.781  14.977 -0.7334 -0.9608 -1.2809
13381TIP3   OH261633   4.193   0.719   1.528 -0.6193 -0.6380 -0.1708
13381TIP3    H161634   4.187   0.813   1.539 -0.7512 -0.5364 -1.0625
13381TIP3    H261635   4.152   0.683   1.607 -0.8984  0.0489  0.0019
13382TIP3   OH261636   3.046   3.033  15.243 -0.9100  0.1911 -0.0438
13382TIP3    H161637   3.044   3.008  15.335 -1.5285 -0.1291 -0.1463
13382TIP3    H261638   3.137   3.020  15.216 -1.1115 -1.4534  0.0326
13383TIP3   OH261639   3.997   5.035   3.412  0.2198  0.2748  0.5728
13383TIP3    H161640   3.937   5.097   3.370  1.2937  0.5403 -0.6074
13383TIP3    H261641   4.035   4.985   3.339  1.0904 -0.1983  1.3371
13384TIP3   OH261642   6.029   5.268   0.258  0.1508  0.2909  0.2397
13384TIP3    H161643   6.048   5.306   0.172  1.1981 -1.7573 -0.4565
13384TIP3    H261644   5.935   5.282   0.270 -0.2390 -0.4755 -1.7773
13385TIP3   OH261645   3.967   6.354   3.498  0.2140 -0.1153  0.2633
13385TIP3    H161646   3.990   6.277   3.550  0.5840 -0.5850 -0.5918
13385TIP3    H261647   3.872   6.363   3.510  0.2214 -0.5069  0.6291
13386TIP3   OH261648   1.195   4.667   2.815 -0.1046  0.0592  0.6625
13386TIP3    H161649   1.288   4.665   2.794 -0.3679  0.5311 -0.5892
13386TIP3    H261650   1.184   4.747   2.866  0.5080 -1.0003  2.5064
13387TIP3   OH261651   1.511   6.427  15.480  0.3229 -0.3911 -0.2879
13387TIP3    H161652   1.604   6.448  15.471  1.2034 -4.1772 -0.7120
13387TIP3    H261653   1.508   6.358  15.546 -2.0737 -1.0779 -1.0640
13388TIP3   OH261654   2.323   4.858   1.625  0.1819 -0.1786 -0.6860
13388TIP3    H161655   2.261   4.906   1.572  0.2321 -1.5292 -2.0162
13388TIP3    H261656   2.379   4.925   1.665 -0.7534  0.9111 -1.2060
13389TIP3   OH261657   5.386   6.443   1.233  1.1175  0.0970 -0.3244
13389TIP3    H161658   5.428   6.364   1.199  0.3687 -0.8013  0.7701
13389TIP3    H261659   5.314   6.460   1.172  1.8418  0.4836 -1.0830
13390TIP3   OH261660   1.676   2.381   0.661 -0.3054  0.2304 -0.2220
13390TIP3    H161661   1.652   2.376   0.753  0.4413  1.9683  0.0915
13390TIP3    H261662   1.601   2.344   0.614 -0.5232 -1.0029  1.0950
13391TIP3   OH261663   1.488   4.352   1.592 -0.4922  0.2968 -0.4884
13391TIP3    H161664   1.465   4.444   1.609  0.1409  0.6611 -1.5341
13391TIP3    H261665   1.457   4.336   1.503 -1.0412 -0.6559 -0.1251
13392TIP3   OH261666   2.837   6.073   0.704 -0.3073  0.1177  0.0489
13392TIP3    H161667   2.905   6.062   0.638  0.3135 -0.3462  0.7460
13392TIP3    H261668   2.810   6.164   0.697  1.6866  0.8050  0.9972
13393TIP3   OH261669   4.851   1.670  14.839  0.1418 -0.2482  0.1264
13393TIP3    H161670   4.832   1.605  14.771  0.3392  1.1329 -1.2672
13393TIP3    H261671   4.776   1.729  14.838  2.1315  2.3821 -2.0167
13394TIP3   OH261672   3.755   1.860  14.341 -0.3874 -0.0302  0.3015
13394TIP3    H161673   3.775   1.767  14.334 -0.6098  0.0005 -0.8316
13394TIP3    H261674   3.805   1.890  14.417  1.1579 -0.6681 -0.4425
13395TIP3   OH261675   0.142   3.729   3.074 -0.3354 -0.1527  0.9890
13395TIP3    H161676   0.186   3.814   3.072 -0.5665 -0.0549 -0.3859
13395TIP3    H261677   0.178   3.685   3.152  2.6980 -0.3177 -0.4123
13396TIP3   OH261678   3.977   0.861   0.788  1.0394 -0.3437 -0.0798
13396TIP3    H161679   4.032   0.809   0.847  1.6331 -2.1577 -2.1496
13396TIP3    H261680   3.894   0.870   0.834  2.6349  1.4208  2.6058
13397TIP3   OH261681   6.972   6.208   2.351 -0.8655 -0.0601 -0.5744
13397TIP3    H161682   6.982   6.292   2.307 -0.5293 -0.6334 -1.6068
13397TIP3    H261683   6.942   6.148   2.283  0.3921 -1.1274 -0.2214
13398TIP3   OH261684   0.869   3.781   0.286  0.4164  0.3519 -0.3813
13398TIP3    H161685   0.840   3.780   0.195  0.5164 -0.5616 -0.4064
13398TIP3    H261686   0.943   3.720   0.289  0.1533  0.0536  0.3891
13399TIP3   OH261687   5.615   4.131   2.536 -0.0395  0.1317  0.3954
13399TIP3    H161688   5.574   4.214   2.559  1.3617  0.3035  2.3804
13399TIP3    H261689   5.556   4.064   2.569 -1.2854  0.3017 -1.4093
13400TIP3   OH261690   6.865   3.056  13.799 -0.0749  0.5237  0.2250
13400TIP3    H161691   6.924   3.077  13.726 -0.6776  1.3104 -0.0436
13400TIP3    H261692   6.786   3.023  13.756 -0.3612  0.8150  0.5241
13401TIP3   OH261693   6.059   5.137   3.978  0.0606 -0.1523  0.7811
13401TIP3    H161694   6.001   5.066   4.005  0.7819 -1.5075 -1.1622
13401TIP3    H261695   6.011   5.183   3.909  0.6435 -0.3343  0.2491
13402TIP3   OH261696   0.067   0.477  12.917 -0.4860  0.2524  0.6400
13402TIP3    H161697   0.037   0.428  12.841 -0.0530  1.0199 -0.0356
13402TIP3    H261698   0.055   0.569  12.893 -0.1094  0.5091  1.4000
13403TIP3   OH261699   5.827   5.096  15.230 -0.1309 -0.0340  0.2632
13403TIP3    H161700   5.894   5.161  15.250 -0.8048  0.4350  1.0460
13403TIP3    H261701   5.855   5.017  15.276  1.2054 -0.6042 -1.4958
13404TIP3   OH261702   3.528   7.199  13.668  0.4179  0.2497  0.1486
13404TIP3    H161703   3.487   7.157  13.592  1.3753  0.6159 -0.5751
13404TIP3    H261704   3.536   7.291  13.643  2.0342  0.1095  0.1334
13405TIP3   OH261705   5.533   3.777  14.842 -0.8726 -0.0886  0.1220
13405TIP3    H161706   5.542   3.701  14.786 -0.8763  0.7042 -0.9625
13405TIP3    H261707   5.607   3.833  14.819 -2.2955  1.4036 -0.9244
13406TIP3   OH261708   2.778   0.226   4.196  0.0375 -0.2822  0.2176
13406TIP3    H161709   2.824   0.205   4.278  1.5804 -0.7475 -0.7383
13406TIP3    H261710   2.744   0.142   4.165 -0.5067 -0.1145  0.3696
13407TIP3   OH261711   2.686   6.308   1.790 -0.6686  0.4014 -0.2203
13407TIP3    H161712   2.714   6.304   1.699 -1.2998  1.4241 -0.4573
13407TIP3    H261713   2.698   6.218   1.822 -1.6205 -0.2561 -1.6463
13408TIP3   OH261714   7.116   2.014   2.699 -0.0980 -0.2390 -0.2630
13408TIP3    H161715   7.039   1.981   2.746  0.2496 -1.7910 -0.7391
13408TIP3    H261716   7.186   2.013   2.764 -0.1952  0.0286 -0.1513
13409TIP3   OH261717   6.508   5.279   0.590 -0.6813 -0.4499  0.1671
13409TIP3    H161718   6.477   5.268   0.680 -0.4755 -1.1037  0.1588
13409TIP3    H261719   6.593   5.236   0.589 -0.5818 -0.2384 -0.2816
13410TIP3   OH261720   2.153   6.735   1.012 -0.3199 -0.1768  0.1825
13410TIP3    H161721   2.106   6.776   0.939 -1.1885  0.6304  1.1950
13410TIP3    H261722   2.245   6.759   0.997 -0.5831  0.5845 -0.2469
13411TIP3   OH261723   4.106   4.163   1.045  0.1140 -0.6054  0.3464
13411TIP3    H161724   4.196   4.186   1.020 -0.4898  0.9860 -0.3942
13411TIP3    H261725   4.082   4.228   1.110 -0.1667 -1.6392  1.2962
13412TIP3   OH261726   4.893   0.864  13.463  0.2969  0.1251 -0.1596
13412TIP3    H161727   4.977   0.873  13.508 -0.9321  1.5409  1.9009
13412TIP3    H261728   4.876   0.950  13.425 -0.2975 -0.1092 -0.4341
13413TIP3   OH261729   7.188   2.657   1.424  0.3777 -0.0978 -0.0273
13413TIP3    H161730   7.104   2.697   1.447  0.8475 -0.7008  2.9599
13413TIP3    H261731   7.166   2.567   1.399 -0.0927  0.4210 -1.5228
13414TIP3   OH261732   3.422   5.235   2.067 -0.1507 -0.2609  0.2486
13414TIP3    H161733   3.428   5.284   2.148 -0.7993 -1.1243  0.8325
13414TIP3    H261734   3.433   5.300   1.998 -0.1906  0.5639  1.0170
13415TIP3   OH261735   6.457   5.362  15.023  0.0587  0.2117  0.5950
13415TIP3    H161736   6.440   5.306  15.099  2.1689 -0.5129  0.5621
13415TIP3    H261737   6.418   5.447  15.046  1.2675  0.2069  2.7942
13416TIP3   OH261738   6.607   1.306  12.578  0.2349 -0.2267  0.1451
13416TIP3    H161739   6.608   1.375  12.512 -0.5020  0.7503  1.1540
13416TIP3    H261740   6.674   1.244  12.548  0.6386  0.7271 -0.9636
13417TIP3   OH261741   0.183   5.494  15.190  0.1762 -0.5028  0.0849
13417TIP3    H161742   0.228   5.493  15.106 -0.3301  1.2762 -0.2214
13417TIP3    H261743   0.137   5.578  15.192 -1.0813 -1.1931  1.4657
13418TIP3   OH261744   3.797   3.493  10.694 -0.2759  0.5207 -0.0243
13418TIP3    H161745   3.770   3.469  10.605 -1.3550 -0.6299  0.5911
13418TIP3    H261746   3.765   3.421  10.748 -0.3437  1.6132  1.4093
13419TIP3   OH261747   7.139   0.330   1.340 -0.1924 -0.5858 -0.1151
13419TIP3    H161748   7.092   0.267   1.284  0.2698 -0.6566 -0.4262
13419TIP3    H261749   7.168   0.398   1.280  0.3649 -0.6947  0.0248
13420TIP3   OH261750   0.813   2.702   1.646  0.4876  0.1027 -0.1104
13420TIP3    H161751   0.868   2.700   1.567  1.3047 -0.4445  0.4571
13420TIP3    H261752   0.825   2.790   1.681  0.6939  0.1153 -0.2101
13421TIP3   OH261753   2.053   0.526  13.845  0.0876  0.5232  0.5464
13421TIP3    H161754   2.014   0.516  13.758  0.1005 -0.6266  0.6628
13421TIP3    H261755   2.104   0.606  13.839  1.7586 -0.6162 -1.1485
13422TIP3   OH261756   4.815   5.914   1.230  0.4652 -0.3498 -0.6206
13422TIP3    H161757   4.761   5.839   1.256 -0.6290  0.4496 -0.5838
13422TIP3    H261758   4.789   5.932   1.139 -2.0645  2.3832  0.5727
13423TIP3   OH261759   1.267   3.539   1.327  0.7747  0.7411  0.4384
13423TIP3    H161760   1.179   3.560   1.361  0.7722 -0.2097  1.0301
13423TIP3    H261761   1.299   3.622   1.292 -0.4832  1.0350 -0.0542
13424TIP3   OH261762   2.585   0.890  15.452 -0.0278 -0.3371  0.5642
13424TIP3    H161763   2.540   0.959  15.403  1.6308  1.3474  1.3382
13424TIP3    H261764   2.551   0.899  15.541  1.6846  0.8451  1.1173
13425TIP3   OH261765   6.629   6.939   2.908 -0.3891  0.2981  0.0755
13425TIP3    H161766   6.616   6.876   2.837  0.2046  1.4187 -1.0424
13425TIP3    H261767   6.723   6.951   2.912 -0.4671  0.6944  0.6560
13426TIP3   OH261768   6.278   2.283  15.516  0.4133  0.3266 -0.5030
13426TIP3    H161769   6.374   2.291  15.515  0.4763 -0.3454 -2.1989
13426TIP3    H261770   6.248   2.360  15.564  1.7762  0.9677 -0.6509
13427TIP3   OH261771   5.350   4.278   1.904  0.4001  0.5248 -0.0072
13427TIP3    H161772   5.301   4.209   1.949 -0.0096 -0.2232 -1.5850
13427TIP3    H261773   5.332   4.357   1.956 -1.6323  0.0551  0.0330
13428TIP3   OH261774   4.655   3.582   2.099 -0.2780 -0.0295  0.1144
13428TIP3    H161775   4.675   3.497   2.059  1.5212  1.2388 -1.7800
13428TIP3    H261776   4.565   3.573   2.130 -0.3971 -2.3491 -0.8032
13429TIP3   OH261777   5.795   4.320   1.747  0.5248  0.4725  0.4450
13429TIP3    H161778   5.831   4.260   1.812 -0.2460  1.9120  2.2496
13429TIP3    H261779   5.755   4.389   1.798 -3.4548 -0.2589 -1.4900
13430TIP3   OH261780   1.888   0.093   3.975  0.0934 -0.6122  0.1060
13430TIP3    H161781   1.858   0.130   4.058 -0.5621  0.2345 -0.4991
13430TIP3    H261782   1.983   0.102   3.979  0.0127  0.1648  0.4274
13431TIP3   OH261783   0.645   1.819  15.608  0.1604  0.2180  0.1334
13431TIP3    H161784   0.624   1.750  15.545  0.1261  2.5001 -2.4238
13431TIP3    H261785   0.577   1.810  15.675 -0.3735 -1.6526 -0.6078
13432TIP3   OH261786   1.335   2.307  12.832  0.4721 -0.3172  0.5814
13432TIP3    H161787   1.340   2.295  12.737  0.8317  2.6096  0.1796
13432TIP3    H261788   1.400   2.247  12.868  3.3171  1.5514 -1.3200
13433TIP3   OH261789   5.800   6.698   4.583  0.4229  0.4255 -0.0863
13433TIP3    H161790   5.823   6.614   4.623  1.0305  1.0212  0.8568
13433TIP3    H261791   5.876   6.719   4.529 -0.6154 -0.6252 -1.9983
13434TIP3   OH261792   5.366   0.191   3.209  0.2875 -0.8227  0.4074
13434TIP3    H161793   5.411   0.159   3.288  2.4814 -1.5051 -1.0608
13434TIP3    H261794   5.313   0.265   3.240  0.5410 -1.5165  2.6354
13435TIP3   OH261795   6.592   7.032  14.987 -0.4318  0.0671  0.1909
13435TIP3    H161796   6.534   6.958  15.008 -0.3375  0.3796  1.6015
13435TIP3    H261797   6.534   7.107  14.981 -0.2146  0.3287  1.3119
13436TIP3   OH261798   5.268   1.436  12.334  0.1160 -0.5046 -0.2652
13436TIP3    H161799   5.329   1.431  12.260  1.4592 -0.2449  0.7976
13436TIP3    H261800   5.268   1.348  12.371  2.1679  0.2032  1.5257
13437TIP3   OH261801   6.971   2.820   2.067 -0.1548 -0.2934 -0.2247
13437TIP3    H161802   7.012   2.906   2.063  0.0784 -0.4448 -1.2483
13437TIP3    H261803   7.006   2.780   2.147  2.5997 -0.8796 -1.6863
13438TIP3   OH261804   0.299   4.465   0.388  0.3253  0.5305 -0.4701
13438TIP3    H161805   0.306   4.554   0.353  1.7250  1.1097  1.1971
13438TIP3    H261806   0.383   4.450   0.432 -0.6744 -0.8459  1.0122
13439TIP3   OH261807   3.691   5.224   0.960 -0.9517 -0.0378 -1.3004
13439TIP3    H161808   3.659   5.229   0.870  0.0975 -0.4361 -1.6954
13439TIP3    H261809   3.725   5.135   0.969  0.1119  0.3965 -0.9001
13440TIP3   OH261810   5.183   5.314   1.778  0.0781  0.5336 -0.6675
13440TIP3    H161811   5.164   5.396   1.732 -0.0985 -0.1937 -1.9393
13440TIP3    H261812   5.100   5.265   1.774  0.2771  0.1591 -0.2238
13441TIP3   OH261813   1.940   6.561  11.628  0.5701  0.8810  0.0238
13441TIP3    H161814   1.954   6.467  11.614  0.8661  1.1592 -1.5920
13441TIP3    H261815   1.930   6.598  11.540 -1.5427  2.0722  0.7206
13442TIP3   OH261816   3.514   2.173   0.755  0.2687 -0.4907 -0.7577
13442TIP3    H161817   3.441   2.235   0.748  1.9083  1.5177 -0.6154
13442TIP3    H261818   3.592   2.226   0.737  1.9386 -1.9975  1.7785
13443TIP3   OH261819   6.741   6.636   3.393  0.1418  0.1999 -0.1892
13443TIP3    H161820   6.831   6.604   3.386  0.2534  0.2737  0.8529
13443TIP3    H261821   6.696   6.571   3.447 -0.1375  0.7540  0.2525
13444TIP3   OH261822   0.257   6.063   0.800 -0.8438 -0.0356 -0.2546
13444TIP3    H161823   0.218   5.989   0.754  1.5512 -0.1009 -2.2869
13444TIP3    H261824   0.307   6.024   0.872  1.5619 -0.5432 -2.1625
13445TIP3   OH261825   4.798   5.416   3.827  0.0879 -1.0367  0.5956
13445TIP3    H161826   4.760   5.475   3.762  1.2403 -0.6213  0.2892
13445TIP3    H261827   4.878   5.383   3.786  0.4081 -1.3865  1.4878
13446TIP3   OH261828   7.010   4.040   2.007  0.1497  0.3955  0.0441
13446TIP3    H161829   6.987   3.996   2.089  0.5834  1.8399  0.9392
13446TIP3    H261830   7.054   3.972   1.956 -0.0570 -0.4908  1.0248
13447TIP3   OH261831   3.007   0.086   0.058  0.3926 -0.0182  0.6602
13447TIP3    H161832   2.926   0.046   0.088  0.3262  1.1604  2.0727
13447TIP3    H261833   3.068   0.012   0.048 -0.7606 -0.8780 -0.2025
13448TIP3   OH261834   4.578   1.204  15.050  0.1266  0.3043 -0.0213
13448TIP3    H161835   4.504   1.157  15.088  0.7973  0.1263  1.0856
13448TIP3    H261836   4.630   1.136  15.006 -0.4779  0.4623 -0.9914
13449TIP3   OH261837   4.498   4.062   1.239 -0.9055  0.7025  0.3223
13449TIP3    H161838   4.475   3.973   1.210  1.3752 -0.3612  1.6200
13449TIP3    H261839   4.457   4.070   1.325 -0.7021  0.7377  0.4147
13450TIP3   OH261840   2.968   0.535   1.949 -0.3587  0.3069 -0.2900
13450TIP3    H161841   2.941   0.448   1.921 -1.3452  0.6658 -0.4584
13450TIP3    H261842   3.058   0.523   1.980 -0.7530 -0.9184  0.4065
13451TIP3   OH261843   6.554   2.005   0.026  0.0519 -0.4068 -0.0457
13451TIP3    H161844   6.490   1.991   0.095  0.8231 -2.0808  0.3567
13451TIP3    H261845   6.607   1.925   0.025  2.9422  1.4215  0.4681
13452TIP3   OH261846   4.715   4.564   1.513  0.0121 -0.7238  0.2974
13452TIP3    H161847   4.640   4.506   1.498 -0.5732  0.0140  0.3216
13452TIP3    H261848   4.751   4.535   1.597  0.0622 -1.4095  0.0424
13453TIP3   OH261849   6.281   1.102   4.612  0.0419 -0.3433  0.0233
13453TIP3    H161850   6.200   1.107   4.562  0.4145 -1.3091 -0.6918
13453TIP3    H261851   6.332   1.033   4.569  1.8117  1.1587 -0.3743
13454TIP3   OH261852   2.915   0.042   2.773  0.0541  0.2481  0.3992
13454TIP3    H161853   2.884   0.032   2.683  1.3886  0.3718 -0.0774
13454TIP3    H261854   2.850  -0.005   2.826 -0.4304 -0.2966 -0.6675
13455TIP3   OH261855   7.182   5.247   3.279 -0.0103 -0.2867  0.0708
13455TIP3    H161856   7.215   5.159   3.293 -0.1809 -0.1426  1.4874
13455TIP3    H261857   7.087   5.240   3.290 -0.1813 -0.1972 -1.2868
13456TIP3   OH261858   6.685   0.091   3.306  0.2817  0.3334  0.5112
13456TIP3    H161859   6.749   0.065   3.240  1.3108  2.1581  0.7646
13456TIP3    H261860   6.600   0.074   3.266  0.8697 -3.4199  0.6845
13457TIP3   OH261861   7.163   6.356  15.263  0.7553 -0.8209 -0.0700
13457TIP3    H161862   7.207   6.418  15.320  2.8011 -0.2974 -2.1406
13457TIP3    H261863   7.071   6.384  15.265  1.2063  0.6902  1.0203
13458TIP3   OH261864   6.363   4.974  13.471  0.4061 -0.5832 -0.5840
13458TIP3    H161865   6.277   4.958  13.509 -0.2027  1.6870 -0.9345
13458TIP3    H261866   6.355   5.060  13.428  2.6280 -0.6606 -1.2239
13459TIP3   OH261867   2.032   6.276  15.321  1.0146 -0.3305  0.3829
13459TIP3    H161868   1.989   6.191  15.332 -1.6939  0.3640 -3.7501
13459TIP3    H261869   2.029   6.293  15.227  3.5532  3.3547  0.8399
13460TIP3   OH261870   1.152   4.697  13.109 -0.1906  0.2562 -0.0428
13460TIP3    H161871   1.139   4.788  13.081  1.1674  0.1635 -1.0544
13460TIP3    H261872   1.235   4.698  13.156 -1.1138 -0.1241  1.6521
13461TIP3   OH261873   0.759   5.543   1.096  0.0707  0.5555 -0.5556
13461TIP3    H161874   0.817   5.476   1.060 -0.6973 -0.1352 -0.5035
13461TIP3    H261875   0.688   5.550   1.032 -0.7430  0.0855  0.2901
13462TIP3   OH261876   7.001   1.712   1.570  0.1826 -0.0369 -0.5353
13462TIP3    H161877   7.069   1.767   1.609 -0.9435  0.0986  1.3260
13462TIP3    H261878   7.049   1.642   1.525  1.5603  0.6364 -0.1324
13463TIP3   OH261879   0.662   0.329   0.923 -0.7424 -0.8695  0.5134
13463TIP3    H161880   0.606   0.405   0.908  3.0519  1.6093 -2.2104
13463TIP3    H261881   0.731   0.362   0.981  1.9649 -1.5785 -2.1701
13464TIP3   OH261882   4.136   1.155   1.062  0.0194  0.2906  0.2140
13464TIP3    H161883   4.211   1.176   1.006  0.1944 -2.5152 -0.6726
13464TIP3    H261884   4.066   1.132   1.001 -0.4832 -0.5733  1.0941
13465TIP3   OH261885   1.602   5.792  14.067  0.0688  0.1395 -0.4105
13465TIP3    H161886   1.596   5.716  14.124 -0.2437 -0.0222 -0.6537
13465TIP3    H261887   1.672   5.846  14.104  1.3869 -1.0329 -1.1639
13466TIP3   OH261888   3.413   6.739   5.433 -0.3063 -0.8896 -0.4183
13466TIP3    H161889   3.469   6.794   5.378  1.7716 -3.4227 -0.9507
13466TIP3    H261890   3.458   6.737   5.518 -1.4018 -0.2102  0.1826
13467TIP3   OH261891   0.570   5.538   2.945 -0.0698  0.0969  0.2856
13467TIP3    H161892   0.601   5.466   2.891  1.2445  1.0766 -0.2915
13467TIP3    H261893   0.649   5.589   2.965 -0.7175  0.4366  2.0955
13468TIP3   OH261894   4.339   0.689   0.155 -0.3521 -0.3528 -0.3889
13468TIP3    H161895   4.370   0.773   0.122 -1.7158  0.2031 -0.3116
13468TIP3    H261896   4.287   0.652   0.083 -0.2266 -0.8651 -0.2189
13469TIP3   OH261897   4.175   3.167  15.511 -0.0444  0.0773 -0.7433
13469TIP3    H161898   4.264   3.184  15.539  0.1691 -0.1314 -1.2758
13469TIP3    H261899   4.120   3.212  15.574  0.3748 -1.7515  0.9689
13470TIP3   OH261900   1.360   3.754  13.486  0.0312  0.6207  0.1047
13470TIP3    H161901   1.453   3.732  13.483  0.2035  1.4543 -1.0013
13470TIP3    H261902   1.318   3.689  13.430 -0.1300 -0.0363  0.9614
13471TIP3   OH261903   5.144   5.987  15.072 -0.1398  0.2417 -0.0526
13471TIP3    H161904   5.056   5.949  15.077 -0.7710  1.6216 -0.5555
13471TIP3    H261905   5.184   5.947  14.995 -0.9500  0.8900 -0.8184
13472TIP3   OH261906   4.229   5.253   0.113 -0.2704  0.3165 -0.2237
13472TIP3    H161907   4.276   5.282   0.191  0.1521  0.6429 -0.5996
13472TIP3    H261908   4.249   5.159   0.107  0.2180  0.4200 -0.2922
13473TIP3   OH261909   6.942   4.247  15.117  0.4704 -0.0578 -0.6634
13473TIP3    H161910   6.891   4.327  15.104 -0.4930 -0.8679 -1.9824
13473TIP3    H261911   6.887   4.177  15.083  1.8899 -1.1162 -0.8386
13474TIP3   OH261912   4.571   7.184  10.164  0.4762  0.4186 -0.3982
13474TIP3    H161913   4.503   7.181  10.097 -0.0716 -2.2908  0.2218
13474TIP3    H261914   4.524   7.204  10.245  0.7912  1.2450 -0.4207
13475TIP3   OH261915   6.208   4.032   4.298 -0.5095 -0.7846  0.3075
13475TIP3    H161916   6.235   4.124   4.294  0.0275 -0.8706  1.6748
13475TIP3    H261917   6.200   4.014   4.392  1.8552 -2.8667  0.1360
13476TIP3   OH261918   6.064   3.230  15.055  0.3233 -0.2315  0.7835
13476TIP3    H161919   6.096   3.148  15.018  1.9822 -0.4447  2.5966
13476TIP3    H261920   6.122   3.297  15.019 -0.3931  0.0353  0.1055
13477TIP3   OH261921   6.637   1.784   1.196 -0.8594  0.6736  0.3304
13477TIP3    H161922   6.636   1.735   1.114 -1.7816 -0.8368  1.2175
13477TIP3    H261923   6.649   1.875   1.169 -0.7847  0.1607 -1.4514
13478TIP3   OH261924   6.661   4.365  15.003  0.3390 -0.3046 -0.2476
13478TIP3    H161925   6.744   4.374  14.957 -0.7258 -0.9930 -2.3742
13478TIP3    H261926   6.594   4.379  14.936 -1.2715 -0.1817  1.3288
13479TIP3   OH261927   6.916   5.175   3.268  0.1027 -0.3455 -0.0668
13479TIP3    H161928   6.874   5.219   3.194  0.2784  1.1092  0.6906
13479TIP3    H261929   6.871   5.091   3.273 -2.3402  0.9204  0.3527
13480TIP3   OH261930   2.948   3.594   2.050  0.5424  0.0065 -0.2249
13480TIP3    H161931   2.960   3.622   1.960  2.6352 -0.7770 -0.2170
13480TIP3    H261932   2.923   3.501   2.043  1.3279 -0.2262  0.0175
13481TIP3   OH261933   4.258   2.598  15.469  0.2181  0.4648  0.3472
13481TIP3    H161934   4.248   2.681  15.517  1.2766 -0.1398  1.6527
13481TIP3    H261935   4.275   2.533  15.537  0.1398 -0.7005 -0.7317
13482TIP3   OH261936   4.286   5.651   1.257 -0.3308  0.1652  0.2340
13482TIP3    H161937   4.286   5.569   1.208 -1.5137 -0.6722  1.5932
13482TIP3    H261938   4.219   5.638   1.325  0.3251  1.7896  1.2103
13483TIP3   OH261939   6.137   1.554  13.403 -0.8351 -0.5848  0.4400
13483TIP3    H161940   6.080   1.605  13.345 -0.5508  1.7048  2.0651
13483TIP3    H261941   6.101   1.465  13.400 -1.2191 -0.3774 -2.6668
13484TIP3   OH261942   6.533   6.155  13.943  0.8267  0.5807 -0.0695
13484TIP3    H161943   6.552   6.139  13.851  0.1811 -1.5043  0.1290
13484TIP3    H261944   6.549   6.071  13.986  0.3848  1.3230  1.6029
13485TIP3   OH261945   6.194   1.742  14.302  0.1621  0.6257 -0.5022
13485TIP3    H161946   6.185   1.735  14.207  1.4867 -1.7277 -0.5068
13485TIP3    H261947   6.139   1.671  14.336  2.1078 -0.5035  0.3362
13486TIP3   OH261948   6.953   6.462   3.309 -0.1894 -0.4178  0.0151
13486TIP3    H161949   7.048   6.456   3.311 -0.0401  1.1156 -1.2902
13486TIP3    H261950   6.926   6.393   3.248  0.2836  0.6633 -1.4687
13487TIP3   OH261951   6.432   1.708  13.738 -0.0130  0.4821  0.2471
13487TIP3    H161952   6.505   1.676  13.686  0.1910  1.6287 -0.1879
13487TIP3    H261953   6.371   1.745  13.674 -1.0278 -0.5396  0.5929
13488TIP3   OH261954   3.166   5.040   1.312  1.1459 -0.3403 -0.1108
13488TIP3    H161955   3.193   4.967   1.255  0.3573  0.1764 -1.1654
13488TIP3    H261956   3.248   5.075   1.346  1.9347  1.5770 -3.7276
13489TIP3   OH261957   2.212   2.641   0.196 -0.6709 -0.1957  0.1510
13489TIP3    H161958   2.275   2.582   0.154 -0.9386 -0.0748 -0.4235
13489TIP3    H261959   2.135   2.586   0.212 -0.4551 -0.3182  0.7593
13490TIP3   OH261960   4.725   6.826   1.791  0.0364 -0.0843 -0.5702
13490TIP3    H161961   4.771   6.744   1.809 -0.5034 -0.7165 -1.9365
13490TIP3    H261962   4.635   6.810   1.822  0.1312  0.2763 -0.1105
13491TIP3   OH261963   5.167   1.812  14.252 -0.3625 -0.0361 -0.8424
13491TIP3    H161964   5.153   1.875  14.182 -0.1470  2.0151  0.9266
13491TIP3    H261965   5.081   1.772  14.266 -0.6497  0.3511 -1.4854
13492TIP3   OH261966   5.793   3.298  13.879 -0.0220  0.5080  0.8734
13492TIP3    H161967   5.802   3.270  13.970  2.0744  0.7625  0.7553
13492TIP3    H261968   5.743   3.228  13.837 -1.5311  0.6774  2.3410
13493TIP3   OH261969   7.054   6.875  14.682 -0.2804  0.3209  0.1876
13493TIP3    H161970   7.003   6.826  14.747 -1.9548  2.0694  0.2000
13493TIP3    H261971   7.107   6.935  14.734  1.5916 -1.2395  0.1520
13494TIP3   OH261972   4.026   1.239  13.934 -0.0308 -0.2157  0.0735
13494TIP3    H161973   4.112   1.203  13.957 -0.7055 -2.0648 -0.2271
13494TIP3    H261974   4.016   1.315  13.992  1.9389  0.2208 -0.1301
13495TIP3   OH261975   4.892   2.104  13.261 -0.0655 -0.1899 -0.0096
13495TIP3    H161976   4.826   2.146  13.205  0.3801  0.1967 -0.2517
13495TIP3    H261977   4.841   2.060  13.329 -0.5960 -0.3619 -0.5139
13496TIP3   OH261978   3.822   2.448   2.208 -0.2495  0.2583 -0.0804
13496TIP3    H161979   3.733   2.416   2.195 -0.5004  0.7410  0.4149
13496TIP3    H261980   3.819   2.493   2.293  0.6163 -0.2604  0.2279
13497TIP3   OH261981   6.160   4.603  15.319 -0.6783 -0.4298 -0.4521
13497TIP3    H161982   6.151   4.510  15.300  1.4400 -1.4494  3.0810
13497TIP3    H261983   6.254   4.620  15.313 -0.9040  1.1539  0.2294
13498TIP3   OH261984   5.791   4.859   4.495  0.3291 -0.1504  0.1227
13498TIP3    H161985   5.763   4.798   4.427  1.2466  0.5850 -0.9232
13498TIP3    H261986   5.886   4.858   4.491  0.3553  1.6857 -0.2208
13499TIP3   OH261987   6.954   2.358   2.909 -0.6850 -0.0308 -0.2694
13499TIP3    H161988   7.000   2.397   2.835 -0.0065 -1.7293 -0.7736
13499TIP3    H261989   6.863   2.386   2.898  0.0115  2.4377  0.1241
13500TIP3   OH261990   5.871   1.717   1.349 -0.2023 -0.0112 -0.1356
13500TIP3    H161991   5.892   1.795   1.399  1.3845  0.6054 -1.6871
13500TIP3    H261992   5.922   1.647   1.389 -0.7740 -0.0359  0.5623
13501TIP3   OH261993   6.731   7.169   4.769 -0.1629  0.5662 -0.2544
13501TIP3    H161994   6.637   7.171   4.787 -0.2113 -1.3159 -0.1343
13501TIP3    H261995   6.738   7.152   4.675  0.0645  1.3565 -0.3850
13502TIP3   OH261996   3.257   4.459   0.101 -0.1991 -0.2794 -0.6703
13502TIP3    H161997   3.268   4.423   0.189  1.3316  0.5318 -0.5042
13502TIP3    H261998   3.219   4.546   0.116 -1.7197 -0.8715 -0.9410
13503TIP3   OH261999   6.729   1.802   0.060 -0.4002  0.3314  0.2064
13503TIP3    H162000   6.815   1.760   0.050  0.1641  1.4587  0.2251
13503TIP3    H262001   6.732   1.840   0.147 -0.2420  1.8767 -0.4633
13504TIP3   OH262002   1.830   3.737   4.092  0.0622 -0.5946  0.4026
13504TIP3    H162003   1.784   3.800   4.148 -1.0830 -0.2636 -0.8786
13504TIP3    H262004   1.811   3.766   4.003  1.0603 -1.6837 -0.1792
13505TIP3   OH262005   1.226   1.234   1.795 -0.1944 -0.2822 -0.2738
13505TIP3    H162006   1.152   1.213   1.853  0.2895 -3.2315 -0.6510
13505TIP3    H262007   1.262   1.315   1.831 -1.4310 -0.7331  2.0959
13506TIP3   OH262008   6.582   4.435   0.912  0.4496  0.3193  0.0391
13506TIP3    H162009   6.594   4.514   0.859 -1.3579  1.7684  1.6759
13506TIP3    H262010   6.488   4.424   0.918  0.6307 -0.4658  1.9737
13507TIP3   OH262011   3.405   5.474  14.613 -0.0116  0.1409  0.0372
13507TIP3    H162012   3.394   5.564  14.643  1.3864  0.8419 -1.5007
13507TIP3    H262013   3.378   5.476  14.521  0.9325 -0.8078 -0.2686
13508TIP3   OH262014   4.378   1.832   0.433 -0.4455  0.5548  0.1315
13508TIP3    H162015   4.311   1.865   0.493  0.8719  1.2530  1.2580
13508TIP3    H262016   4.423   1.763   0.483 -1.6400 -1.3440 -1.3529
13509TIP3   OH262017   2.388   2.911   0.209  0.3234  0.0259  0.4464
13509TIP3    H162018   2.332   2.986   0.231  0.7807  0.5515 -0.1822
13509TIP3    H262019   2.342   2.835   0.246  0.3351  0.7195  1.9137
13510TIP3   OH262020   6.524   6.400  15.314 -0.2114  0.2566  0.0859
13510TIP3    H162021   6.546   6.471  15.373 -0.5971  0.1482  0.3635
13510TIP3    H262022   6.432   6.381  15.332  0.0867 -0.7924  0.5260
13511TIP3   OH262023   7.015   6.015   1.327  0.3852  0.7137 -0.1318
13511TIP3    H162024   6.940   5.968   1.365  1.4952 -0.3502  0.7985
13511TIP3    H262025   6.987   6.036   1.238 -0.7777 -0.2486 -0.0132
13512TIP3   OH262026   5.701   2.240   3.828  0.5271  0.6396  0.0568
13512TIP3    H162027   5.735   2.151   3.815  0.8723  0.8265 -0.3423
13512TIP3    H262028   5.639   2.252   3.756  0.1577  0.5629  0.3641
13513TIP3   OH262029   3.812   2.458  14.852  0.1278 -0.2123  0.9027
13513TIP3    H162030   3.809   2.394  14.924 -3.0506 -0.0872  0.9644
13513TIP3    H262031   3.807   2.405  14.773 -1.3576 -0.1234  0.9241
13514TIP3   OH262032   0.426   1.142  12.620  0.1139 -0.3058  0.1736
13514TIP3    H162033   0.470   1.208  12.566 -0.3692  0.0514  0.2080
13514TIP3    H262034   0.390   1.079  12.558 -1.3755  0.6865  0.0091
13515TIP3   OH262035   1.665   0.211   2.087  0.5694  0.3224 -0.1316
13515TIP3    H162036   1.655   0.306   2.083  0.0237  0.2545 -0.4298
13515TIP3    H262037   1.704   0.195   2.173 -0.7657  0.6973  0.5473
13516TIP3   OH262038   0.835   4.238   0.564  0.2034 -0.1987  0.7416
13516TIP3    H162039   0.853   4.144   0.561 -0.6993 -0.3382 -3.2011
13516TIP3    H262040   0.919   4.280   0.546 -0.1517 -0.4233 -1.6377
13517TIP3   OH262041   4.023   0.835  15.585 -0.1258  0.3002  0.0669
13517TIP3    H162042   3.993   0.848  15.675  1.0402  2.5939  0.1535
13517TIP3    H262043   4.031   0.923  15.549  2.5963 -0.4243 -1.2310
13518TIP3   OH262044   5.521   6.126  15.426  0.4157 -0.7705  0.1028
13518TIP3    H162045   5.426   6.117  15.427  0.6603 -4.1082 -1.0801
13518TIP3    H262046   5.544   6.151  15.515 -1.6466  1.5332  0.0425
13519TIP3   OH262047   0.588   5.082  14.526 -0.4345  0.0697 -0.4661
13519TIP3    H162048   0.514   5.090  14.586 -0.8106  0.8085 -1.0229
13519TIP3    H262049   0.658   5.134  14.567 -0.6343  0.4220 -0.5658
13520TIP3   OH262050   2.807   6.433   2.018 -0.3806  0.8311 -0.1316
13520TIP3    H162051   2.766   6.512   2.051 -2.6509 -0.7852  1.0622
13520TIP3    H262052   2.757   6.411   1.939  0.2155  0.5663 -0.4399
13521TIP3   OH262053   6.795   5.984  13.808  0.2568 -0.3527 -0.0666
13521TIP3    H162054   6.814   6.077  13.798 -0.7619 -0.1636 -0.2485
13521TIP3    H262055   6.754   5.977  13.894  1.6485 -0.8479  0.5833
13522TIP3   OH262056   0.312   3.577  15.317  0.0343 -0.2385 -0.0948
13522TIP3    H162057   0.281   3.523  15.244 -2.3967  2.3202 -1.0881
13522TIP3    H262058   0.385   3.627  15.281 -0.1733 -0.1168 -0.3566
13523TIP3   OH262059   0.114   6.217  14.357  0.3676 -0.3780 -0.5675
13523TIP3    H162060   0.192   6.193  14.306  0.8698  1.0361 -0.5011
13523TIP3    H262061   0.069   6.134  14.372  1.0078 -1.0064 -2.0045
13524TIP3   OH262062   0.136   3.691   3.883 -0.5897  0.7976  0.2330
13524TIP3    H162063   0.170   3.620   3.938  0.5087  2.7360  2.1445
13524TIP3    H262064   0.067   3.731   3.937  0.2499  2.4959  0.0840
13525TIP3   OH262065   6.030   6.539   2.653  0.0343  0.1687 -0.0693
13525TIP3    H162066   6.101   6.553   2.715 -1.7627 -2.0407  2.6496
13525TIP3    H262067   5.966   6.607   2.675 -0.3862 -0.2985  0.1572
13526TIP3   OH262068   3.427   6.753   3.976 -0.3357 -0.0676 -0.0840
13526TIP3    H162069   3.335   6.748   4.000 -0.0542 -1.9263  0.6905
13526TIP3    H262070   3.443   6.672   3.928  1.3932 -0.7763  1.6186
13527TIP3   OH262071   0.471   6.122   1.364  0.3571  0.3596 -0.0289
13527TIP3    H162072   0.506   6.035   1.342 -2.2137 -1.7338  3.5918
13527TIP3    H262073   0.510   6.143   1.448  0.5563  2.5423 -0.6350
13528TIP3   OH262074   0.140   3.067   3.531  0.1629  0.6680  0.8247
13528TIP3    H162075   0.181   2.983   3.511  0.5199  1.6368 -2.8874
13528TIP3    H262076   0.198   3.107   3.596  1.1421 -1.0395  1.0317
13529TIP3   OH262077   4.204   2.775   0.922  0.4424 -0.7204 -0.1415
13529TIP3    H162078   4.161   2.737   0.846  1.1938 -1.9776  0.0623
13529TIP3    H262079   4.280   2.822   0.886 -0.1338  0.0678 -0.3295
13530TIP3   OH262080   5.638   5.779  15.557  0.0306 -0.4961  0.6962
13530TIP3    H162081   5.714   5.824  15.520 -0.2505  0.1975  0.9540
13530TIP3    H262082   5.615   5.830  15.635 -0.4748 -0.9105  0.8253
13531TIP3   OH262083   7.114   2.401   4.681 -0.4668 -0.0497 -0.7000
13531TIP3    H162084   7.191   2.459   4.685  0.3625 -1.1365 -0.8483
13531TIP3    H262085   7.141   2.322   4.728 -0.6514 -1.4177 -2.8328
13532TIP3   OH262086   4.456   4.925   1.840  0.0482  0.2493 -0.0665
13532TIP3    H162087   4.378   4.969   1.874  0.8577 -0.1058  2.2948
13532TIP3    H262088   4.429   4.894   1.753 -2.5707 -0.2153  0.8541
13533TIP3   OH262089   0.069   1.242   0.013 -0.1699 -0.1562  0.2797
13533TIP3    H162090   0.106   1.330   0.000 -0.3342 -0.4253 -2.4228
13533TIP3    H262091   0.034   1.243   0.101  0.4613  2.2716  0.5404
13534TIP3   OH262092   1.317   3.797   1.226  0.0451  0.1887  0.1785
13534TIP3    H162093   1.268   3.874   1.200  0.5873  0.0622 -1.2333
13534TIP3    H262094   1.406   3.812   1.193  0.2519 -0.8638  0.2184
13535TIP3   OH262095   5.952   6.957   4.788 -0.1613  0.1852 -0.2214
13535TIP3    H162096   5.950   7.007   4.870 -0.3680  0.7047 -0.5437
13535TIP3    H262097   5.893   6.884   4.805  0.2387 -0.0250  0.2942
13536TIP3   OH262098   6.917   6.724   1.496 -0.0986 -0.1344 -0.6855
13536TIP3    H162099   6.826   6.722   1.466  0.1428  0.6548 -1.4798
13536TIP3    H262100   6.952   6.807   1.462  0.3882  0.4393  1.1576
13537TIP3   OH262101   6.138   2.220   1.364 -0.1407 -0.1282  0.2335
13537TIP3    H162102   6.159   2.280   1.292  0.9282 -0.7717 -0.0162
13537TIP3    H262103   6.224   2.199   1.402 -0.7109  0.2776  1.7536
13538TIP3   OH262104   5.481   5.111   0.988  0.0317  0.5568  0.0088
13538TIP3    H162105   5.544   5.055   0.941 -0.0995 -0.3856  0.9430
13538TIP3    H262106   5.507   5.103   1.080 -0.4765  1.4308  0.2276
13539TIP3   OH262107   5.472   1.090  13.503  0.1912 -0.4572  0.3339
13539TIP3    H162108   5.380   1.064  13.513  0.0189  0.5768  1.4794
13539TIP3    H262109   5.503   1.103  13.592  1.8901 -2.2588  0.0363
13540TIP3   OH262110   2.993   2.432   1.254 -0.1654 -0.0705  0.6897
13540TIP3    H162111   3.009   2.379   1.176 -0.0380 -0.1831  0.7929
13540TIP3    H262112   2.900   2.421   1.273 -0.6995  1.7082 -0.7497
13541TIP3   OH262113   1.201   5.759   5.394 -0.4294 -0.4002 -0.0807
13541TIP3    H162114   1.148   5.812   5.335 -0.2551  0.6502  0.6975
13541TIP3    H262115   1.151   5.755   5.475 -0.9991 -2.4224 -0.4899
13542TIP3   OH262116   3.747   5.920   1.354  0.4272  0.5288  0.0187
13542TIP3    H162117   3.679   5.855   1.364  1.4198 -0.4159  0.7210
13542TIP3    H262118   3.760   5.926   1.259 -0.0830  0.1402 -0.0770
13543TIP3   OH262119   4.693   2.474   3.632 -0.0505 -0.7920  0.0666
13543TIP3    H162120   4.640   2.553   3.644  2.4306  1.3604 -2.3792
13543TIP3    H262121   4.781   2.501   3.659  0.2758 -3.7173  2.2102
13544TIP3   OH262122   1.764   0.993  10.534  0.1522 -0.0398  0.1295
13544TIP3    H162123   1.780   1.079  10.496 -1.5569  0.7117  1.0703
13544TIP3    H262124   1.851   0.954  10.541  0.7545  0.7706 -2.2265
13545TIP3   OH262125   4.130   5.560   1.624  0.0277 -0.1974  0.1322
13545TIP3    H162126   4.211   5.612   1.616 -2.3545  3.5199 -1.1662
13545TIP3    H262127   4.119   5.548   1.718  0.5460  1.8956  0.4900
13546TIP3   OH262128   4.725   2.682   0.925 -0.0037  0.5106  0.0014
13546TIP3    H162129   4.676   2.708   0.847  0.5013  0.7722 -0.2242
13546TIP3    H262130   4.657   2.674   0.993 -0.3556  0.9255 -0.2975
13547TIP3   OH262131   1.333   6.301  13.558 -0.1098  0.5627 -0.5137
13547TIP3    H162132   1.424   6.299  13.531 -0.2055 -0.5947 -0.7905
13547TIP3    H262133   1.285   6.326  13.479 -0.2358 -1.1700 -1.0074
13548TIP3   OH262134   0.688   4.732   1.130 -0.5865  0.1327  0.0440
13548TIP3    H162135   0.764   4.691   1.089 -1.0557 -0.2410 -0.4750
13548TIP3    H262136   0.680   4.817   1.086 -0.9031 -0.1369 -0.4308
13549TIP3   OH262137   4.169   3.491  15.211  0.3464  0.5926  0.2746
13549TIP3    H162138   4.140   3.409  15.170  2.0861  0.1188 -0.0407
13549TIP3    H262139   4.181   3.469  15.303  0.8430  0.4652  0.1845
13550TIP3   OH262140   0.644   2.116   3.044  0.6596 -0.1163  0.0972
13550TIP3    H162141   0.672   2.195   3.091  0.4245 -1.3028  2.2973
13550TIP3    H262142   0.719   2.091   2.991  1.0605  1.0568  0.1038
13551TIP3   OH262143   2.572   3.663  14.989  0.1614 -0.2419  0.0490
13551TIP3    H162144   2.521   3.643  14.910  1.1402  0.5677 -0.7964
13551TIP3    H262145   2.519   3.627  15.060 -0.6031 -1.2340 -0.9868
13552TIP3   OH262146   4.242   6.179   2.447 -0.1192 -0.4884 -0.8394
13552TIP3    H162147   4.200   6.120   2.384  1.0335 -0.9552 -1.1920
13552TIP3    H262148   4.262   6.123   2.522 -0.1534 -0.2597 -0.6593
13553TIP3   OH262149   4.635   6.635  14.224  0.3580 -0.2565  0.0229
13553TIP3    H162150   4.641   6.540  14.216 -1.9733 -0.6196  1.9838
13553TIP3    H262151   4.619   6.651  14.317 -1.4943  1.9075 -0.6109
13554TIP3   OH262152   5.542   4.459   1.798 -0.3648 -0.0443  0.1815
13554TIP3    H162153   5.484   4.392   1.834 -0.0138  0.1883  1.1928
13554TIP3    H262154   5.548   4.437   1.705 -2.9051  0.5258 -0.1749
13555TIP3   OH262155   6.396   4.586   4.855  0.1638 -0.3542  0.1860
13555TIP3    H162156   6.398   4.673   4.816 -0.7609 -0.9272 -1.1971
13555TIP3    H262157   6.303   4.564   4.858  0.4814 -1.9255 -0.9335
13556TIP3   OH262158   5.186   6.615   3.139 -0.0589 -0.0993  0.4733
13556TIP3    H162159   5.190   6.521   3.117  1.2865 -0.0091  0.2930
13556TIP3    H262160   5.103   6.625   3.184 -0.6736 -1.2050 -0.3676
13557TIP3   OH262161   2.448   3.390   3.407  0.2939  0.1612 -0.5291
13557TIP3    H162162   2.435   3.452   3.335 -0.5279  0.6835  0.0579
13557TIP3    H262163   2.536   3.407   3.438  0.4975  0.2254 -1.1348
13558TIP3   OH262164   2.349   4.131  11.659 -0.1358  0.1784  0.2411
13558TIP3    H162165   2.316   4.197  11.598  0.5272  1.3917  1.1675
13558TIP3    H262166   2.282   4.062  11.659 -1.0498  1.0580 -0.4175
13559TIP3   OH262167   0.984   4.919  15.192  0.6619  0.1452 -0.0264
13559TIP3    H162168   1.078   4.936  15.192  0.4601  1.4056 -2.0123
13559TIP3    H262169   0.969   4.866  15.271  2.4637  3.0677  2.3755
13560TIP3   OH262170   4.751   6.470  14.792  0.5644 -0.2898  0.1424
13560TIP3    H162171   4.716   6.529  14.859 -0.0343  0.0234 -0.4355
13560TIP3    H262172   4.814   6.523  14.743 -0.1107 -0.0646 -0.4969
13561TIP3   OH262173   2.236   6.730  13.893 -0.5113 -0.3105 -0.7075
13561TIP3    H162174   2.311   6.729  13.952 -1.2887 -1.4431  0.2872
13561TIP3    H262175   2.275   6.736  13.805  0.6442  1.3439 -0.1012
13562TIP3   OH262176   1.711   5.333  14.069  0.0733 -0.4058  0.1915
13562TIP3    H162177   1.673   5.322  13.981  1.0784  1.8525 -0.5651
13562TIP3    H262178   1.697   5.248  14.111 -0.7061 -1.4491 -2.0375
13563TIP3   OH262179   6.934   5.751   2.734 -0.0157  0.1081 -0.5512
13563TIP3    H162180   6.891   5.796   2.661 -1.8692 -0.2875  0.2760
13563TIP3    H262181   6.991   5.817   2.773 -1.0589  1.1051 -0.6946
13564TIP3   OH262182   2.774   4.911   1.586  0.2849  0.2351  0.6311
13564TIP3    H162183   2.823   4.984   1.624  0.8247 -0.5830  1.5358
13564TIP3    H262184   2.774   4.844   1.655 -0.8314 -0.3388  0.0870
13565TIP3   OH262185   6.906   2.542   2.614 -0.2616  0.0350 -0.1560
13565TIP3    H162186   6.861   2.623   2.591 -0.7213  0.0870  0.9142
13565TIP3    H262187   6.980   2.538   2.553 -1.0543  0.5226 -1.1659
13566TIP3   OH262188   0.142   5.848   0.641 -0.0438 -0.4573  0.4819
13566TIP3    H162189   0.099   5.803   0.569 -1.0536 -1.6496  1.8140
13566TIP3    H262190   0.160   5.780   0.706  2.0576  0.3612  0.8071
13567TIP3   OH262191   0.825   2.940   3.249  0.3438  0.1053  0.4962
13567TIP3    H162192   0.913   2.971   3.267 -0.3583  1.4956  1.6966
13567TIP3    H262193   0.799   2.987   3.169  2.0310 -3.1261 -2.0268
13568TIP3   OH262194   5.413   2.102  14.445  0.0800  0.0606  0.8195
13568TIP3    H162195   5.461   2.080  14.525 -0.6749 -1.6219  0.8255
13568TIP3    H262196   5.371   2.186  14.465  2.2798  1.1147  1.1232
13569TIP3   OH262197   0.303   6.742  14.453 -0.0817 -0.3583  0.4120
13569TIP3    H162198   0.270   6.653  14.457  2.1859 -1.4915 -3.2126
13569TIP3    H262199   0.363   6.749  14.527  0.1772 -2.0540  0.3743
13570TIP3   OH262200   0.205   6.375   2.984 -0.1966  0.2342 -0.0207
13570TIP3    H162201   0.283   6.333   3.021 -0.8274 -0.5911  0.3837
13570TIP3    H262202   0.132   6.325   3.020 -0.8708  0.2623 -1.3346
13571TIP3   OH262203   7.041   5.772   1.126 -0.1500 -0.4388  0.0981
13571TIP3    H162204   7.002   5.750   1.041 -0.8337  1.0817  0.0034
13571TIP3    H262205   7.088   5.854   1.110 -1.7157  0.7885  1.5516
13572TIP3   OH262206   4.886   7.021  15.191 -0.1530 -0.2035  0.0857
13572TIP3    H162207   4.847   7.100  15.153 -0.2411 -1.1799 -1.9400
13572TIP3    H262208   4.816   6.983  15.244 -1.2303 -0.6612 -1.6074
13573TIP3   OH262209   1.556   6.876   3.251  0.2692 -0.3272 -0.0050
13573TIP3    H162210   1.647   6.888   3.279  0.4679  0.2643 -0.8806
13573TIP3    H262211   1.552   6.919   3.166 -0.7142 -0.7725 -0.1843
13574TIP3   OH262212   2.472   0.129   1.020 -0.4517 -0.5044 -0.1845
13574TIP3    H162213   2.507   0.208   1.059 -1.5300  0.0369 -0.2950
13574TIP3    H262214   2.478   0.143   0.926  1.5511 -1.5451 -0.2449
13575TIP3   OH262215   2.339   2.903   2.102 -0.1840  0.0482 -0.7322
13575TIP3    H162216   2.404   2.968   2.129  0.6695 -0.9052 -0.4443
13575TIP3    H262217   2.342   2.903   2.007  1.5764 -1.2797 -0.7110
13576TIP3   OH262218   5.205   4.783   2.976  0.0016  0.1364  0.0127
13576TIP3    H162219   5.288   4.756   3.016 -0.1037 -1.6502 -0.9156
13576TIP3    H262220   5.140   4.722   3.013 -0.7107  0.8123 -0.1120
13577TIP3   OH262221   0.616   6.330  12.211 -0.1307 -0.5690 -0.7675
13577TIP3    H162222   0.696   6.290  12.244  0.5287  1.4913  0.1935
13577TIP3    H262223   0.644   6.413  12.174 -1.6967 -0.2577 -1.2938
13578TIP3   OH262224   0.645   7.017   1.875 -0.3365 -0.0527  0.3745
13578TIP3    H162225   0.635   7.043   1.783  0.3931  1.5298  0.7188
13578TIP3    H262226   0.681   6.928   1.871  1.8997  0.8542 -0.9244
13579TIP3   OH262227   5.559   5.264   3.254  0.1601  0.2135  0.0288
13579TIP3    H162228   5.596   5.236   3.338 -0.3969  0.8217  0.4854
13579TIP3    H262229   5.545   5.358   3.264  1.3523  0.5432 -1.2305
13580TIP3   OH262230   1.300   6.305   0.859 -0.3626  0.0663 -0.2200
13580TIP3    H162231   1.207   6.282   0.863 -0.5542  0.9987  1.2687
13580TIP3    H262232   1.300   6.400   0.849  0.4255  0.1902  0.9093
13581TIP3   OH262233   6.887   4.041   3.664  0.1388  0.0390  0.1037
13581TIP3    H162234   6.794   4.025   3.673  0.5710 -2.0107  1.0999
13581TIP3    H262235   6.913   3.991   3.586 -0.1464  3.1572 -2.1059
13582TIP3   OH262236   6.004   2.030   3.171  0.2915 -0.3954 -0.6306
13582TIP3    H162237   5.990   1.962   3.105 -2.4043 -1.0918  0.5570
13582TIP3    H262238   5.928   2.088   3.161  1.2037  0.9517  0.1478
13583TIP3   OH262239   2.741   1.385  15.013 -0.4674 -0.3910  0.2336
13583TIP3    H162240   2.819   1.340  14.981  0.0036  1.5418 -1.4490
13583TIP3    H262241   2.690   1.405  14.935 -0.4956  2.2220  0.8669
13584TIP3   OH262242   6.821   1.126  12.807 -0.0109  0.3007 -0.3087
13584TIP3    H162243   6.882   1.097  12.875  0.0429 -0.6339 -0.7540
13584TIP3    H262244   6.779   1.045  12.777  0.0575  0.6970 -1.4779
13585TIP3   OH262245   4.338   1.469   1.890 -0.4542  0.3120 -0.0276
13585TIP3    H162246   4.298   1.465   1.803  0.3321  0.0521 -0.3841
13585TIP3    H262247   4.305   1.551   1.928  2.2057  2.4289 -2.0678
13586TIP3   OH262248   6.726   3.694   5.382  0.5674  0.4194 -0.4070
13586TIP3    H162249   6.690   3.617   5.339  0.1832  0.5841 -0.3791
13586TIP3    H262250   6.719   3.764   5.318 -0.4839  0.7866  0.0971
13587TIP3   OH262251   1.676   1.850   4.437  0.0613 -0.0602  0.8338
13587TIP3    H162252   1.595   1.878   4.481 -0.3836  0.8535 -0.5557
13587TIP3    H262253   1.681   1.756   4.454 -0.9268  0.0035  1.5146
13588TIP3   OH262254   0.752   5.922   2.222 -0.4141 -0.3281  0.4567
13588TIP3    H162255   0.829   5.942   2.169 -0.9861  1.7328  0.3341
13588TIP3    H262256   0.682   5.910   2.159 -0.5207 -0.6779  0.6382
13589TIP3   OH262257   6.396   7.085   3.583 -0.0911  0.0247  0.1982
13589TIP3    H162258   6.486   7.054   3.575 -0.4488 -1.0159  0.1181
13589TIP3    H262259   6.366   7.097   3.493 -0.5629 -1.2241  0.1757
13590TIP3   OH262260   3.762   1.742   1.611 -0.5716  0.1362  0.6214
13590TIP3    H162261   3.827   1.694   1.663  0.2701  0.2356 -0.3407
13590TIP3    H262262   3.730   1.810   1.671  0.2009  0.0861  1.0998
13591TIP3   OH262263   4.826   0.994   4.083  0.0412  0.3415 -0.0081
13591TIP3    H162264   4.871   1.026   4.005  1.1092  0.5359  0.6881
13591TIP3    H262265   4.749   1.049   4.090 -1.8944 -1.8060 -2.8340
13592TIP3   OH262266   0.175   4.553   2.896 -0.1094  0.2175 -0.5590
13592TIP3    H162267   0.086   4.568   2.865 -0.2437 -1.8588 -1.2316
13592TIP3    H262268   0.230   4.606   2.838 -0.8623  1.2315 -0.3602
13593TIP3   OH262269   5.960   4.236   3.655 -0.2917 -0.1024 -0.3188
13593TIP3    H162270   6.045   4.257   3.692 -0.6355 -0.7255  0.8572
13593TIP3    H262271   5.978   4.212   3.565  0.7038  0.3208 -0.2335
13594TIP3   OH262272   0.714   0.670   4.897 -0.4538 -0.0433  0.9124
13594TIP3    H162273   0.785   0.617   4.862 -1.0970 -0.5156  0.2951
13594TIP3    H262274   0.639   0.611   4.900 -1.5996  1.2124 -1.2701
13595TIP3   OH262275   5.749   3.055  15.460  0.3612  0.2376  0.0116
13595TIP3    H162276   5.685   3.012  15.403 -0.8235  2.6770 -0.5705
13595TIP3    H262277   5.832   3.014  15.438 -0.4339 -0.3836 -1.9434
13596TIP3   OH262278   1.483   6.392   2.874  0.0750  0.2320  0.0806
13596TIP3    H162279   1.468   6.339   2.953  0.9102  1.4312  1.0599
13596TIP3    H262280   1.511   6.477   2.907  1.0125  0.5709 -1.5353
13597TIP3   OH262281   0.945   1.331   4.724  0.4005  0.1249 -0.0395
13597TIP3    H162282   0.924   1.348   4.815 -1.6975 -0.9425 -0.2892
13597TIP3    H262283   1.019   1.270   4.727  0.4301  0.2033  0.9243
13598TIP3   OH262284   4.706   1.707   4.435 -0.4361 -0.1567 -0.1974
13598TIP3    H162285   4.754   1.687   4.515 -1.0022 -1.8021 -0.2549
13598TIP3    H262286   4.773   1.719   4.368 -0.0590 -1.5276 -0.0759
13599TIP3   OH262287   0.048   2.173   5.653 -0.5529 -0.8336  0.0763
13599TIP3    H162288   0.018   2.262   5.672  2.1179 -0.1609  1.5302
13599TIP3    H262289   0.025   2.158   5.562 -1.5708  1.1232 -0.0129
13600TIP3   OH262290   7.062   1.267   5.255 -0.2124 -0.2904  0.4085
13600TIP3    H162291   7.102   1.181   5.271 -1.0835 -0.8828 -0.5669
13600TIP3    H262292   6.969   1.249   5.245 -0.6251  0.9893  1.7781
13601TIP3   OH262293   3.407   2.787   2.656 -0.2402  0.1161  0.7214
13601TIP3    H162294   3.498   2.767   2.634  0.2074 -0.9189  3.3553
13601TIP3    H262295   3.381   2.851   2.590  2.4821  0.6321  0.0550
13602TIP3   OH262296   2.464   1.761   2.749 -0.4393 -0.3563 -0.3603
13602TIP3    H162297   2.434   1.849   2.772 -0.9502 -0.7560  0.5334
13602TIP3    H262298   2.549   1.774   2.708 -0.6839  0.5861 -0.5634
13603TIP3   OH262299   5.965   0.247   3.418  0.2554  0.5224  0.3245
13603TIP3    H162300   6.060   0.246   3.412  0.2704  0.9929  0.4854
13603TIP3    H262301   5.946   0.198   3.497  0.4089  1.2582  0.8227
13604TIP3   OH262302   2.902   5.241  13.192 -0.0696 -0.2233  0.7817
13604TIP3    H162303   2.871   5.155  13.221 -0.3339  0.2272  1.8707
13604TIP3    H262304   2.968   5.265  13.257  1.3213 -0.3985 -0.5351
13605TIP3   OH262305   3.701   0.697  15.066 -0.1845 -0.3788 -0.0940
13605TIP3    H162306   3.689   0.774  15.009  0.4616 -1.6383 -1.9854
13605TIP3    H262307   3.796   0.683  15.067 -0.2455 -0.7698  0.7863
13606TIP3   OH262308   2.947   1.419   4.129 -0.0705  0.3071  0.4655
13606TIP3    H162309   2.914   1.340   4.087  1.4166 -0.6505  1.0539
13606TIP3    H262310   2.956   1.482   4.057 -3.2652  0.6602  0.3260
13607TIP3   OH262311   3.806   3.945   3.761 -0.0393  0.2373  0.2027
13607TIP3    H162312   3.844   3.948   3.673  0.7267  1.0929  0.5493
13607TIP3    H262313   3.824   4.031   3.798 -0.2645 -0.1452  1.2369
13608TIP3   OH262314   6.276   4.477   2.672  0.4473  0.4433 -0.6651
13608TIP3    H162315   6.260   4.509   2.584 -0.1800  0.6809 -0.4716
13608TIP3    H262316   6.371   4.484   2.684  0.2170  3.3991 -0.1886
13609TIP3   OH262317   6.043   1.820   4.708  0.0945 -0.7984  0.2609
13609TIP3    H162318   6.065   1.801   4.617 -1.1015 -0.5198 -0.0956
13609TIP3    H262319   5.957   1.779   4.721  0.3490 -1.0209  1.3260
13610TIP3   OH262320   1.779   0.985   4.372 -0.4363  0.3560  0.0135
13610TIP3    H162321   1.741   1.058   4.323  0.6965 -0.9213 -2.8129
13610TIP3    H262322   1.819   0.929   4.306  0.2668 -1.9419  2.3085
13611TIP3   OH262323   2.321   6.315   3.959 -0.2476 -0.1590  0.4332
13611TIP3    H162324   2.296   6.245   3.899  0.4159 -0.5462  0.5950
13611TIP3    H262325   2.254   6.382   3.948 -0.4115 -0.4475 -0.3649
13612TIP3   OH262326   1.657   0.172   0.860  0.5337 -0.3615 -0.3599
13612TIP3    H162327   1.687   0.091   0.818 -0.1955 -1.0935  0.5139
13612TIP3    H262328   1.735   0.206   0.903  0.4129 -1.6784  0.9661
13613TIP3   OH262329   4.040   6.842   3.715 -0.4698  0.3030 -0.1664
13613TIP3    H162330   4.093   6.795   3.651  0.2249 -0.2798  0.8346
13613TIP3    H262331   4.019   6.777   3.782 -1.1245  0.9256  0.2440
13614TIP3   OH262332   0.362   2.321  14.755  0.6018  0.2312  0.1251
13614TIP3    H162333   0.449   2.355  14.733  0.7648 -0.4216 -0.2343
13614TIP3    H262334   0.338   2.265  14.681 -0.3199  0.7699  0.0045
13615TIP3   OH262335   6.914   0.184   4.846  0.5327 -0.6096 -0.3083
13615TIP3    H162336   6.880   0.106   4.802 -2.5082  1.4115 -1.6500
13615TIP3    H262337   6.857   0.195   4.922  0.5222  0.7153 -0.5009
13616TIP3   OH262338   2.332   0.664   5.013 -0.0442 -0.0656 -0.1485
13616TIP3    H162339   2.368   0.654   5.101  0.0109 -2.4654 -0.4086
13616TIP3    H262340   2.239   0.681   5.027  0.3257  1.5499  0.4107
13617TIP3   OH262341   0.144   4.154   2.886  0.0084 -0.1406 -0.4487
13617TIP3    H162342   0.215   4.216   2.901 -1.3203  1.2802  0.1311
13617TIP3    H262343   0.144   4.098   2.964 -0.8081  1.1705  0.5149
13618TIP3   OH262344   2.113   6.032   1.888 -0.1354 -0.1328 -0.1358
13618TIP3    H162345   2.069   6.116   1.903 -0.8389 -0.5525  0.1457
13618TIP3    H262346   2.044   5.967   1.896  0.6262 -0.8423  0.7858
13619TIP3   OH262347   7.055   6.931   2.605  0.0685 -0.2221 -0.2248
13619TIP3    H162348   7.058   6.861   2.670  0.7091  1.0531  1.1450
13619TIP3    H262349   6.962   6.944   2.587 -0.1751  0.1469  1.2548
13620TIP3   OH262350   3.703   3.318  15.287 -0.4491  0.3339  0.5017
13620TIP3    H162351   3.616   3.358  15.287 -0.2343  0.7992  1.0314
13620TIP3    H262352   3.759   3.384  15.246 -0.7751 -0.9184 -2.0891
13621TIP3   OH262353   6.582   0.062   3.905  0.4466 -0.0774 -0.4655
13621TIP3    H162354   6.643   0.050   3.833 -1.5015  0.2431 -2.2061
13621TIP3    H262355   6.495   0.054   3.865 -0.6764 -0.0740  1.8673
13622TIP3   OH262356   2.789   0.289   3.212  0.0057  0.8871  0.0228
13622TIP3    H162357   2.851   0.273   3.284 -0.2520 -0.5626 -0.0578
13622TIP3    H262358   2.793   0.209   3.159 -1.3647  1.0921 -0.4106
13623TIP3   OH262359   3.469   2.002   1.677  0.4541  0.3035  0.1357
13623TIP3    H162360   3.438   2.015   1.587  2.8366 -0.1503 -0.7712
13623TIP3    H262361   3.552   1.956   1.668  0.1835 -0.7514  2.6320
13624TIP3   OH262362   6.598   2.819   2.745  0.7382  0.2861  0.0772
13624TIP3    H162363   6.594   2.915   2.742 -0.0199  0.3054  1.3676
13624TIP3    H262364   6.634   2.794   2.660  0.0290  1.6664 -0.6408
13625TIP3   OH262365   1.667   1.601  15.485  0.2694 -0.7175  0.1996
13625TIP3    H162366   1.635   1.562  15.566 -1.0606 -1.4165 -0.6346
13625TIP3    H262367   1.615   1.680  15.474 -1.4852 -2.0369 -1.3384
13626TIP3   OH262368   1.514   0.203   1.576 -0.4311  0.1750  0.1903
13626TIP3    H162369   1.583   0.247   1.625  0.6888 -1.1169 -0.1866
13626TIP3    H262370   1.544   0.113   1.568 -1.6827 -0.1686 -0.8741
13627TIP3   OH262371   0.686   3.332   2.985  0.0363 -0.1022 -0.0810
13627TIP3    H162372   0.731   3.416   2.986 -0.8259  0.3543  1.1936
13627TIP3    H262373   0.599   3.350   3.022 -0.1939 -1.5191  0.1164
13628TIP3   OH262374   4.398   1.992   4.758 -0.4084 -0.3088  0.2537
13628TIP3    H162375   4.467   2.023   4.699 -0.5560 -1.2389 -0.4102
13628TIP3    H262376   4.374   1.906   4.724 -3.2999  0.8321 -0.7210
13629TIP3   OH262377   1.721   5.931   3.333 -0.4996  0.1360 -0.6160
13629TIP3    H162378   1.652   5.976   3.284 -0.3746  0.0890 -0.8347
13629TIP3    H262379   1.753   5.863   3.274 -0.7098 -0.2669 -0.2745
13630TIP3   OH262380   4.771   4.124   4.361 -0.3115 -0.4921 -0.4235
13630TIP3    H162381   4.724   4.092   4.439  0.2300  0.4520  0.2964
13630TIP3    H262382   4.749   4.217   4.357 -0.0696 -0.4724 -1.2190
13631TIP3   OH262383   4.891   7.009   1.899 -0.0770  0.7680 -0.2954
13631TIP3    H162384   4.819   6.951   1.874 -1.7332  2.3694  0.7066
13631TIP3    H262385   4.892   7.077   1.831  0.5621  0.7035 -0.3560
13632TIP3   OH262386   5.139   6.632   2.586 -0.2645  0.3968  0.2554
13632TIP3    H162387   5.154   6.539   2.603  0.6121  0.7317  1.3225
13632TIP3    H262388   5.119   6.636   2.492 -3.0042 -1.1981  0.7204
13633TIP3   OH262389   1.899   4.995   5.410  0.3338  0.1326  0.3197
13633TIP3    H162390   1.841   4.953   5.347  1.2357  0.4036 -0.6969
13633TIP3    H262391   1.845   5.006   5.489 -1.5008  1.8577 -1.1211
13634TIP3   OH262392   6.603   0.615   2.555 -0.7911 -0.1101 -0.5770
13634TIP3    H162393   6.527   0.624   2.498 -0.5507  0.7617 -0.7692
13634TIP3    H262394   6.646   0.535   2.526 -1.2240 -0.2060 -0.9550
13635TIP3   OH262395   1.994   5.041   0.019 -0.2132 -0.3587 -0.0059
13635TIP3    H162396   2.055   4.986  -0.030  0.4138  0.0396  0.3353
13635TIP3    H262397   2.017   5.027   0.110 -1.8945 -1.7102  0.2467
13636TIP3   OH262398   4.720   4.834   1.409 -0.3436 -0.3359 -0.4607
13636TIP3    H162399   4.799   4.878   1.440 -2.4623  1.8989  2.0351
13636TIP3    H262400   4.724   4.747   1.448  0.1366  0.2992  0.9441
13637TIP3   OH262401   4.715   4.745   4.316  0.1080  0.2164  0.0270
13637TIP3    H162402   4.783   4.778   4.375  0.1085  0.2358  0.0157
13637TIP3    H262403   4.641   4.805   4.329 -0.4950 -0.7689  1.2485
13638TIP3   OH262404   0.254   1.567   3.172  0.1983 -0.0999 -0.1630
13638TIP3    H162405   0.264   1.486   3.121 -0.1753  1.1020 -2.2333
13638TIP3    H262406   0.227   1.538   3.259 -1.8002 -2.1209 -1.4003
13639TIP3   OH262407   0.746   1.356   2.676 -0.0119  0.3857  0.5608
13639TIP3    H162408   0.677   1.356   2.609  0.5350  0.0908 -0.0101
13639TIP3    H262409   0.787   1.442   2.667 -1.1167  1.0396  1.7491
13640TIP3   OH262410   0.138   4.831   4.680  0.0698  0.0865 -0.2019
13640TIP3    H162411   0.148   4.776   4.603  1.1346 -1.7215  1.2010
13640TIP3    H262412   0.152   4.920   4.648  0.6672 -0.6648 -2.0583
13641TIP3   OH262413   6.294   0.210   2.003  0.1000 -0.1764 -0.6803
13641TIP3    H162414   6.282   0.195   2.097 -0.1464 -0.9480 -0.8243
13641TIP3    H262415   6.356   0.143   1.976  0.5636  0.3698 -0.9739
13642TIP3   OH262416   4.027   6.021   4.454  0.2118 -0.0425 -0.5504
13642TIP3    H162417   4.077   5.967   4.515 -1.1762 -1.0564 -0.2909
13642TIP3    H262418   3.954   5.965   4.426 -1.2610  1.6723 -0.2590
13643TIP3   OH262419   6.179   1.187   5.797  0.5400  0.0371  0.6029
13643TIP3    H162420   6.259   1.238   5.789 -0.7431  1.7241 -2.0640
13643TIP3    H262421   6.111   1.251   5.816 -0.5124 -1.1551  0.9487
13644TIP3   OH262422   2.897   6.818   3.755  0.3449  0.0419 -1.1661
13644TIP3    H162423   2.984   6.807   3.793  0.1868  1.4331 -0.3581
13644TIP3    H262424   2.900   6.769   3.672  1.4436 -1.0559 -0.4866
13645TIP3   OH262425   0.256   1.231   0.620 -0.6179  0.1734 -0.2041
13645TIP3    H162426   0.309   1.204   0.546 -0.7764 -0.5980 -0.0438
13645TIP3    H262427   0.228   1.149   0.660 -1.1113  0.5823  0.2928
13646TIP3   OH262428   1.138   6.304   1.874 -0.4906  0.6435  0.0587
13646TIP3    H162429   1.202   6.275   1.810 -1.0762 -0.7893  0.1096
13646TIP3    H262430   1.089   6.373   1.829  2.2088  3.0236  0.6302
13647TIP3   OH262431   4.635   1.851  14.912  0.0308 -0.2850  0.2182
13647TIP3    H162432   4.627   1.900  14.830 -1.0891 -0.2421  0.3437
13647TIP3    H262433   4.546   1.847  14.946 -0.2455 -4.0788 -0.7292
13648TIP3   OH262434   1.957   6.371   5.364  0.2988 -0.2215 -0.4019
13648TIP3    H162435   2.009   6.292   5.352  0.2650 -0.3071  0.0260
13648TIP3    H262436   1.866   6.341   5.357  0.1999 -0.6727  2.3833
13649TIP3   OH262437   0.179   1.401   1.722 -0.3807 -0.6030 -0.5055
13649TIP3    H162438   0.177   1.364   1.810 -1.0845 -1.4367 -0.8738
13649TIP3    H262439   0.158   1.494   1.735 -0.7264 -0.7732  0.1746
13650TIP3   OH262440   5.287   5.250   4.899  0.1965 -0.5372 -0.2109
13650TIP3    H162441   5.370   5.274   4.941  0.7666 -2.3431 -0.2840
13650TIP3    H262442   5.240   5.200   4.965 -0.2851 -0.6261 -0.6197
13651TIP3   OH262443   3.800   1.363   2.527 -0.3019  0.0452 -0.5789
13651TIP3    H162444   3.727   1.403   2.480 -0.3243  1.9370  0.9790
13651TIP3    H262445   3.860   1.435   2.545  0.8924 -1.0867  0.0934
13652TIP3   OH262446   3.286   7.120  12.725 -0.6031 -0.1771 -0.0849
13652TIP3    H162447   3.258   7.047  12.781 -0.6394  0.7458  1.1091
13652TIP3    H262448   3.295   7.194  12.784  1.1931  0.3635 -1.0060
13653TIP3   OH262449   5.739   7.040   2.494 -0.0786 -0.4587 -0.1523
13653TIP3    H162450   5.759   7.015   2.404 -0.2683  1.1877 -0.6679
13653TIP3    H262451   5.813   7.095   2.521 -1.1350  0.9869 -0.1277
13654TIP3   OH262452   0.264   0.732   4.652  0.5544 -0.1042 -0.4387
13654TIP3    H162453   0.254   0.826   4.638  0.3084 -0.2096 -0.9728
13654TIP3    H262454   0.197   0.691   4.597  0.3249 -0.5754  0.1763
13655TIP3   OH262455   2.683   7.162   3.453 -0.4953 -0.0524  0.0448
13655TIP3    H162456   2.709   7.251   3.477  0.2570 -0.4682  0.7845
13655TIP3    H262457   2.622   7.136   3.522  0.4599 -0.6714  0.6591
13656TIP3   OH262458   6.509   6.901   0.686  0.4907 -0.5472  0.0352
13656TIP3    H162459   6.522   6.806   0.688  2.6407 -0.2804  0.9442
13656TIP3    H262460   6.598   6.936   0.680 -0.3063  1.4064 -0.6217
13657TIP3   OH262461   1.132   3.822   4.063 -0.4210  0.6380  0.2142
13657TIP3    H162462   1.130   3.819   4.158 -2.0176  0.9622  0.2154
13657TIP3    H262463   1.192   3.893   4.042  0.9737 -0.2937  0.9362
13658TIP3   OH262464   4.428   3.345   4.676 -0.3262  0.3689 -0.7016
13658TIP3    H162465   4.352   3.378   4.725 -0.2124  1.5554 -1.2941
13658TIP3    H262466   4.502   3.390   4.716  0.1447 -1.2748  0.3009
13659TIP3   OH262467   0.824   3.580   2.944 -0.0444 -0.2747  0.0869
13659TIP3    H162468   0.901   3.594   2.999  0.1261  1.4637 -0.5613
13659TIP3    H262469   0.853   3.604   2.856 -0.5135 -2.3519 -0.6504
13660TIP3   OH262470   0.878   2.627   0.696  0.1494 -0.0186  0.0283
13660TIP3    H162471   0.898   2.533   0.700  0.2640  0.0729  2.0224
13660TIP3    H262472   0.954   2.669   0.736  0.6049  1.0142 -1.8682
13661TIP3   OH262473   6.686   0.421   4.287  0.3248 -0.2363 -0.0916
13661TIP3    H162474   6.673   0.512   4.262  2.9250  0.4037  0.8335
13661TIP3    H262475   6.598   0.383   4.283 -0.6829  2.1080 -1.1625
13662TIP3   OH262476   5.561   3.683   5.551  0.5730 -0.4375  0.3656
13662TIP3    H162477   5.572   3.747   5.620 -3.5967 -1.4638  2.1443
13662TIP3    H262478   5.557   3.599   5.597 -0.6419 -1.2783 -1.2152
13663TIP3   OH262479   5.037   0.986   1.161  0.3565  0.3888  0.2133
13663TIP3    H162480   5.114   0.947   1.204 -0.4960 -0.8406  0.6493
13663TIP3    H262481   5.067   1.072   1.131  0.9535  1.3063  3.3228
13664TIP3   OH262482   2.829   5.769   5.897 -0.7449  0.5620 -0.1311
13664TIP3    H162483   2.893   5.698   5.896  0.1184  1.3382 -1.1829
13664TIP3    H262484   2.783   5.761   5.813 -1.5035  0.4799  0.2874
13665TIP3   OH262485   0.807   6.082   1.110 -0.0059  0.9248  0.2176
13665TIP3    H162486   0.755   6.162   1.097 -1.3977 -0.0742 -0.5134
13665TIP3    H262487   0.781   6.025   1.037  0.2000 -0.5862  1.3115
13666TIP3   OH262488   5.970   2.401   1.851  0.0468  0.0462 -0.5461
13666TIP3    H162489   6.036   2.331   1.848 -1.0568 -0.9718 -1.4383
13666TIP3    H262490   5.946   2.415   1.760 -1.0823  0.2973 -0.2191
13667TIP3   OH262491   5.356   2.592   3.510 -0.2120 -0.3163  0.0541
13667TIP3    H162492   5.380   2.632   3.593  1.6874 -0.3819 -0.4383
13667TIP3    H262493   5.304   2.659   3.466  0.6366  0.5809  0.3856
13668TIP3   OH262494   0.744   2.167   2.762  0.5998  0.0109  0.3176
13668TIP3    H162495   0.656   2.179   2.798  1.0618 -1.8892  2.1232
13668TIP3    H262496   0.746   2.225   2.685 -2.9956 -1.5844 -1.0924
13669TIP3   OH262497   1.505   6.001   4.230 -0.5942  0.3148  0.0055
13669TIP3    H162498   1.458   5.923   4.204  0.7713 -1.0931  1.6432
13669TIP3    H262499   1.450   6.042   4.297 -1.2143  0.6567 -0.7120
13670TIP3   OH262500   3.587   0.411   2.156  0.1249  0.5840  0.2951
13670TIP3    H162501   3.662   0.366   2.118  0.3003  0.0422  1.2688
13670TIP3    H262502   3.589   0.388   2.249 -1.4469  0.2838  0.2733
13671TIP3   OH262503   3.443   4.311   3.975 -0.4017  0.8275  0.5717
13671TIP3    H162504   3.352   4.335   3.958 -0.0849  1.3514 -0.4390
13671TIP3    H262505   3.482   4.303   3.888  0.0724 -1.1820  0.9490
13672TIP3   OH262506   0.671   6.917   4.300  0.4482 -0.3223  0.1342
13672TIP3    H162507   0.723   6.837   4.311  0.7812 -0.2384 -0.8150
13672TIP3    H262508   0.589   6.886   4.261  0.1589 -0.3345  0.7499
13673TIP3   OH262509   3.776   6.636  14.425  0.1483  0.2168 -0.1680
13673TIP3    H162510   3.733   6.593  14.350  0.0840  0.2614 -0.1556
13673TIP3    H262511   3.827   6.566  14.466  0.6251  0.3122 -0.5788
13674TIP3   OH262512   1.796   0.988   5.379  0.3571  0.2707  0.5760
13674TIP3    H162513   1.727   0.951   5.323 -0.3413  0.5676  1.2350
13674TIP3    H262514   1.749   1.034   5.448  1.2208  0.7304  0.8710
13675TIP3   OH262515   0.747   5.652  11.801  0.1340  0.4669  0.1916
13675TIP3    H162516   0.774   5.562  11.819 -0.7849 -0.1393 -1.3751
13675TIP3    H262517   0.829   5.702  11.805  0.7896 -0.5846  0.2111
13676TIP3   OH262518   5.642   0.792   4.982 -0.1114  0.0746  0.1008
13676TIP3    H162519   5.731   0.758   4.997 -0.7484 -0.2381  3.5765
13676TIP3    H262520   5.585   0.717   4.998 -1.0641  0.2606 -2.1713
13677TIP3   OH262521   3.294   0.724   4.825 -0.1284  0.4061  0.1782
13677TIP3    H162522   3.340   0.657   4.773 -1.4253  0.4715 -1.0921
13677TIP3    H262523   3.361   0.759   4.883  0.6183 -1.8814  0.7514
13678TIP3   OH262524   5.675   1.394   2.457 -0.1394 -0.6774  0.2894
13678TIP3    H162525   5.652   1.351   2.375  0.9623  0.4966 -0.6711
13678TIP3    H262526   5.609   1.463   2.467  1.3237  0.9842 -1.0949
13679TIP3   OH262527   4.933   4.211   2.171 -0.3902  0.0673  0.1995
13679TIP3    H162528   4.972   4.132   2.208  1.7909  0.8259 -0.3828
13679TIP3    H262529   4.859   4.232   2.228 -0.9058 -2.3005  0.4329
13680TIP3   OH262530   0.588   6.174   1.621  0.0482  0.6965  0.4592
13680TIP3    H162531   0.540   6.201   1.699 -0.4215  1.1192  0.0295
13680TIP3    H262532   0.603   6.080   1.634 -0.7716  0.5897  0.6680
13681TIP3   OH262533   6.258   0.902   3.150 -0.4384 -0.0262 -0.7046
13681TIP3    H162534   6.336   0.928   3.199 -1.1092  1.6832 -0.4848
13681TIP3    H262535   6.221   0.984   3.119 -1.5949 -0.8941 -1.6785
13682TIP3   OH262536   0.945   2.125   2.370  0.2889  0.5778 -0.1955
13682TIP3    H162537   0.867   2.082   2.403 -0.3788  0.7825 -1.4787
13682TIP3    H262538   0.961   2.084   2.285  1.2868  0.8898 -0.1658
13683TIP3   OH262539   4.802   2.600   4.555 -0.7607  0.7221 -0.3965
13683TIP3    H162540   4.888   2.613   4.514 -1.0605  2.6216 -0.4633
13683TIP3    H262541   4.822   2.576   4.645 -0.1329 -1.4084 -1.0698
13684TIP3   OH262542   1.477   0.774   3.433  0.0692  0.6310  1.0374
13684TIP3    H162543   1.385   0.761   3.408  0.4899 -0.9714  0.2740
13684TIP3    H262544   1.494   0.867   3.413 -1.5894  1.1375  1.8981
13685TIP3   OH262545   5.809   2.730   1.019 -0.2747  0.1225  0.4301
13685TIP3    H162546   5.859   2.709   0.940 -0.6659  1.7606 -0.2856
13685TIP3    H262547   5.726   2.766   0.986 -1.9138 -2.4098  1.6005
13686TIP3   OH262548   5.385   3.482   4.525 -0.2896 -0.7226 -0.4021
13686TIP3    H162549   5.379   3.393   4.559 -0.9802  0.1235  1.7479
13686TIP3    H262550   5.476   3.491   4.498  1.0825 -0.5273  3.9000
13687TIP3   OH262551   7.146   0.827   0.947 -0.5215 -0.3132  0.1180
13687TIP3    H162552   7.180   0.751   0.994  1.2989  0.2092 -0.3190
13687TIP3    H262553   7.173   0.902   1.000 -1.1483  0.1059 -0.1506
13688TIP3   OH262554   5.037   2.200   0.302 -0.4621  0.1938  0.4974
13688TIP3    H162555   5.086   2.215   0.221 -0.4290  2.6587  0.9472
13688TIP3    H262556   4.995   2.115   0.289  1.6617 -0.6688 -1.0226
13689TIP3   OH262557   5.777   1.716   1.094  0.9224  0.9509  0.2277
13689TIP3    H162558   5.839   1.732   1.023  3.8342 -3.0163  1.6474
13689TIP3    H262559   5.828   1.728   1.174 -0.6640 -0.4904  1.5047
13690TIP3   OH262560   0.128   0.743   4.405  0.0063 -0.3085  0.0987
13690TIP3    H162561   0.129   0.838   4.420 -1.4867  0.1819 -2.6478
13690TIP3    H262562   0.148   0.733   4.312 -2.9698 -2.4853 -0.3655
13691TIP3   OH262563   2.401   6.430   3.307 -0.9550 -0.0001  0.2439
13691TIP3    H162564   2.432   6.387   3.387 -1.1142 -1.5235 -0.4833
13691TIP3    H262565   2.445   6.515   3.306 -0.0833 -0.4289  1.3857
13692TIP3   OH262566   2.112   2.324   4.572 -0.2661 -0.2696  0.2072
13692TIP3    H162567   2.135   2.388   4.639  1.1364 -0.4631 -0.0796
13692TIP3    H262568   2.148   2.241   4.603  1.7797 -0.0723 -1.4836
13693TIP3   OH262569   2.770   6.915   5.048 -0.2465  0.0205 -0.0821
13693TIP3    H162570   2.682   6.883   5.067 -0.2011  0.6608  1.2033
13693TIP3    H262571   2.824   6.880   5.118  0.0779  1.6366  0.5002
13694TIP3   OH262572   4.733   5.962   2.971  0.0512 -0.4013  0.2539
13694TIP3    H162573   4.788   6.032   2.936 -1.1000  0.4648  0.1812
13694TIP3    H262574   4.747   5.889   2.911 -0.4687  0.4835 -0.9557
13695TIP3   OH262575   0.455   5.988   2.576  0.5118 -0.6569  0.0851
13695TIP3    H162576   0.508   6.056   2.534  0.3765 -0.6577 -0.0897
13695TIP3    H262577   0.470   6.000   2.670  1.9378 -1.5668 -0.0151
13696TIP3   OH262578   1.289   1.863   5.216  0.4334  0.0807 -0.1596
13696TIP3    H162579   1.268   1.825   5.301  0.2898  0.7562  0.1084
13696TIP3    H262580   1.205   1.868   5.171  0.7983 -2.3132 -1.1994
13697TIP3   OH262581   5.523   0.984   2.436 -0.4780  0.9616 -0.5840
13697TIP3    H162582   5.447   1.003   2.491 -0.7515  0.9061 -0.9363
13697TIP3    H262583   5.578   1.062   2.444 -0.8978  1.2907 -0.8619
13698TIP3   OH262584   2.769   6.152   4.727 -0.6425  0.0948  0.2863
13698TIP3    H162585   2.845   6.153   4.669 -0.4852 -0.1559  0.4863
13698TIP3    H262586   2.803   6.117   4.810 -1.3504 -1.6406 -0.1313
13699TIP3   OH262587   0.265   5.545   3.394  0.0275 -0.1178  0.2210
13699TIP3    H162588   0.314   5.558   3.475 -0.3694 -0.1657  0.4697
13699TIP3    H262589   0.318   5.485   3.342  0.4058  0.1180  0.3392
13700TIP3   OH262590   3.339   2.208  15.433  0.4117 -0.8650  0.6279
13700TIP3    H162591   3.266   2.259  15.466  1.4265 -0.2469  1.9503
13700TIP3    H262592   3.308   2.171  15.350 -0.0554  2.5597 -0.7805
13701TIP3   OH262593   1.896   1.973   1.088  0.2486  0.0355  0.0070
13701TIP3    H162594   1.930   2.040   1.148  2.7455 -1.0912 -0.0622
13701TIP3    H262595   1.810   1.952   1.123  0.5822  1.2685  1.6909
13702TIP3   OH262596   4.647   0.696   1.851 -0.1155  0.4560 -0.6660
13702TIP3    H162597   4.610   0.695   1.939  1.2241 -0.0338 -0.0842
13702TIP3    H262598   4.655   0.788   1.829 -0.0822  0.5905 -0.1065
13703TIP3   OH262599   6.729   5.567   0.596  0.0610  0.3062  0.2548
13703TIP3    H162600   6.646   5.562   0.644  0.0911 -2.2682  0.0981
13703TIP3    H262601   6.784   5.501   0.637  1.3126  0.5281 -1.0401
13704TIP3   OH262602   3.848   1.356   4.089 -0.1840 -0.1503  0.0561
13704TIP3    H162603   3.824   1.429   4.032  1.4180  0.6801  0.4146
13704TIP3    H262604   3.871   1.396   4.172 -1.1109 -1.2370  0.8621
13705TIP3   OH262605   3.353   3.852   2.426  0.4552  0.7448  0.5750
13705TIP3    H162606   3.393   3.793   2.362  3.5244 -0.9739  3.9291
13705TIP3    H262607   3.277   3.803   2.458  0.5458  0.4359  0.3258
13706TIP3   OH262608   4.490   0.589   3.739 -0.5390  0.4651  0.6623
13706TIP3    H162609   4.502   0.569   3.832 -0.6887  2.1956  1.0666
13706TIP3    H262610   4.435   0.518   3.706  1.1344 -1.2353  1.4363
13707TIP3   OH262611   0.264   6.967   0.134 -0.1397 -0.3793 -0.0600
13707TIP3    H162612   0.342   6.980   0.188  0.0912 -0.4339 -0.3770
13707TIP3    H262613   0.295   6.914   0.060 -0.4905 -0.4538 -0.1537
13708TIP3   OH262614   3.581   1.607  14.170  0.3618  0.0875  0.2483
13708TIP3    H162615   3.491   1.640  14.159 -0.9407 -2.8881  1.5483
13708TIP3    H262616   3.636   1.675  14.129 -2.5008  1.6005 -1.2851
13709TIP3   OH262617   1.723   5.497   3.795 -0.2013  0.2471  0.6432
13709TIP3    H162618   1.642   5.548   3.798 -0.1011  0.3512  1.5087
13709TIP3    H262619   1.698   5.410   3.826 -0.5034 -0.4334 -1.3852
13710TIP3   OH262620   1.224   1.785  13.802  0.4188  0.3382  0.1634
13710TIP3    H162621   1.233   1.869  13.757  2.4996  0.4177  0.6661
13710TIP3    H262622   1.210   1.808  13.894 -1.7341  0.1502 -0.1004
13711TIP3   OH262623   0.659   2.482   1.741 -0.1448  0.2507 -0.0512
13711TIP3    H162624   0.717   2.446   1.808 -1.6742  0.0259  1.1928
13711TIP3    H262625   0.700   2.564   1.714  0.7341  0.1069  0.8286
13712TIP3   OH262626   3.453   6.572   0.628 -0.2556  0.5774 -0.3155
13712TIP3    H162627   3.446   6.490   0.677  0.2417  0.2723 -0.7539
13712TIP3    H262628   3.535   6.564   0.579 -1.1432  0.5126 -1.8312
13713TIP3   OH262629   6.627   1.098   5.217  0.3336 -0.1502 -0.5455
13713TIP3    H162630   6.652   1.015   5.178 -0.3506  0.3249 -2.0020
13713TIP3    H262631   6.704   1.154   5.203  0.1935 -0.0625 -0.9666
13714TIP3   OH262632   0.196   2.753   2.934  0.1106 -0.2978  0.3328
13714TIP3    H162633   0.160   2.835   2.968 -1.7035  0.1098 -2.4061
13714TIP3    H262634   0.153   2.684   2.986  0.1140  0.4144  1.2821
13715TIP3   OH262635   5.342   1.197   3.220  0.0974 -0.2347  0.0946
13715TIP3    H162636   5.403   1.214   3.149  1.4507 -2.6536  0.6386
13715TIP3    H262637   5.267   1.154   3.178 -0.6311  1.4591 -0.3613
13716TIP3   OH262638   1.755   6.503   4.437 -0.3898 -0.2695 -0.0115
13716TIP3    H162639   1.830   6.541   4.483 -0.9466  0.5582  0.2171
13716TIP3    H262640   1.783   6.414   4.415  0.1170 -0.4546  1.3558
13717TIP3   OH262641   5.712   0.092   5.008  0.0627 -0.8871 -0.3344
13717TIP3    H162642   5.774   0.026   5.038  1.6433  1.8942  2.9635
13717TIP3    H262643   5.760   0.142   4.942  1.3646  1.0373  1.9591
13718TIP3   OH262644   0.362   1.380   4.319  0.1692  0.0481 -0.3713
13718TIP3    H162645   0.272   1.356   4.340 -0.2595  0.4082 -1.8008
13718TIP3    H262646   0.361   1.476   4.315  0.3470  0.0042 -1.5717
13719TIP3   OH262647   2.569   2.695   2.813  0.0406 -0.2906 -0.0867
13719TIP3    H162648   2.663   2.711   2.818  0.2250 -1.0357 -1.0891
13719TIP3    H262649   2.548   2.649   2.894  0.8854 -1.8224 -0.7291
13720TIP3   OH262650   5.555   0.968   2.802 -0.3938  0.0725  0.2042
13720TIP3    H162651   5.539   0.905   2.732  0.4943  0.7515 -0.6296
13720TIP3    H262652   5.650   0.968   2.812 -0.3965  1.2427  0.2379
13721TIP3   OH262653   4.585   1.574   2.510 -0.5678 -0.2375  0.5460
13721TIP3    H162654   4.560   1.576   2.418  0.1744 -1.3310  0.3035
13721TIP3    H262655   4.572   1.663   2.541 -2.1931 -0.1878 -0.2426
13722TIP3   OH262656   3.184   4.448   3.891 -0.2655  0.5497 -0.2274
13722TIP3    H162657   3.144   4.404   3.816 -0.0608 -0.1769  0.0943
13722TIP3    H262658   3.232   4.522   3.852  0.4032 -0.2216 -0.8768
13723TIP3   OH262659   3.091   0.291   0.873 -0.0682  0.1655  0.1174
13723TIP3    H162660   3.110   0.233   0.799  0.4012  0.4625  0.0032
13723TIP3    H262661   2.996   0.300   0.872 -0.2182 -1.2780  0.6483
13724TIP3   OH262662   1.982   4.756   4.145  0.6454 -0.6127 -0.5940
13724TIP3    H162663   1.922   4.830   4.134  0.4017 -0.4610  1.5268
13724TIP3    H262664   1.997   4.723   4.056 -1.1144  0.4990 -1.3173
13725TIP3   OH262665   0.952   2.590   2.320 -0.4899  0.2300 -0.3144
13725TIP3    H162666   0.989   2.588   2.232  1.0863  1.3599  0.2987
13725TIP3    H262667   0.897   2.668   2.321 -1.3074 -0.3429 -0.6102
13726TIP3   OH262668   0.692   5.557   4.415  0.2182  0.7149 -0.3515
13726TIP3    H162669   0.672   5.637   4.366  0.2821  2.4690  2.3949
13726TIP3    H262670   0.777   5.529   4.382  0.2509  1.8374 -1.2579
13727TIP3   OH262671   4.445   5.914   3.179  1.0755  0.2416 -0.2983
13727TIP3    H162672   4.487   5.910   3.094 -0.6912  2.1120 -1.2970
13727TIP3    H262673   4.367   5.859   3.171  1.8048 -0.9580  0.6595
13728TIP3   OH262674   2.506   5.641   4.738 -0.1959 -0.3164 -0.3672
13728TIP3    H162675   2.578   5.658   4.798  0.1107 -0.2691 -0.7456
13728TIP3    H262676   2.429   5.675   4.783 -0.0392 -0.7119  0.2004
13729TIP3   OH262677   0.783   0.918   2.672 -0.0000  0.1009 -0.5329
13729TIP3    H162678   0.731   0.983   2.718  1.1485 -0.1451  1.1684
13729TIP3    H262679   0.795   0.954   2.584 -1.3002  1.1046 -0.3053
13730TIP3   OH262680   6.712   1.644   1.416 -0.1317  0.4513 -0.3384
13730TIP3    H162681   6.796   1.688   1.427  1.2722 -2.1117 -0.3053
13730TIP3    H262682   6.684   1.666   1.327  0.0003  2.2593  0.0660
13731TIP3   OH262683   4.933   6.960   2.167 -0.1856  0.6065 -0.1528
13731TIP3    H162684   4.908   6.982   2.077 -0.5895  0.0301 -0.1842
13731TIP3    H262685   4.852   6.970   2.217 -0.0187  0.6845  0.0989
13732TIP3   OH262686   6.478   1.497   3.483 -0.5061 -0.0666  0.4639
13732TIP3    H162687   6.383   1.492   3.483 -0.4536 -1.0741 -0.4747
13732TIP3    H262688   6.499   1.557   3.412 -0.4168 -0.1311  0.4363
13733TIP3   OH262689   5.495   3.381   0.353  0.0753 -0.4121 -0.5518
13733TIP3    H162690   5.579   3.392   0.397  1.0113 -0.2189 -2.3072
13733TIP3    H262691   5.495   3.290   0.325 -0.2914 -0.4058 -0.5712
13734TIP3   OH262692   0.684   3.626  14.830 -0.5660  0.3600 -0.1971
13734TIP3    H162693   0.661   3.718  14.816 -0.0343  0.5097 -0.0955
13734TIP3    H262694   0.661   3.583  14.747 -1.9463  0.3568  0.1705
13735TIP3   OH262695   7.125   3.319   3.243 -0.3296  0.0930  0.6281
13735TIP3    H162696   7.102   3.400   3.197  0.3516 -0.9134 -1.5716
13735TIP3    H262697   7.146   3.346   3.332 -0.9116  2.2230  0.1328
13736TIP3   OH262698   7.072   4.623   4.385 -0.1402  0.2224  0.2567
13736TIP3    H162699   7.036   4.699   4.431  1.2536 -0.0821  1.9083
13736TIP3    H262700   7.152   4.602   4.433  2.0699  0.6616 -3.0719
13737TIP3   OH262701   1.724   7.102   4.458  0.4267 -0.2288  0.0309
13737TIP3    H162702   1.740   7.131   4.369 -0.0612 -1.3867 -0.4557
13737TIP3    H262703   1.647   7.152   4.487  0.9448  0.5719  0.0181
13738TIP3   OH262704   4.088   2.282   2.534  0.7703 -0.1970 -0.6963
13738TIP3    H162705   4.102   2.322   2.448 -0.2149 -0.2020 -0.8613
13738TIP3    H262706   4.033   2.206   2.516 -0.2566  0.3562  0.0671
13739TIP3   OH262707   1.382   6.657   3.296  0.4188  0.1883 -0.1946
13739TIP3    H162708   1.445   6.728   3.309  1.3268 -0.0619 -2.7854
13739TIP3    H262709   1.425   6.580   3.333  0.6166  0.4580  0.1406
13740TIP3   OH262710   1.709   0.804   0.020 -0.0301 -0.5408  0.4103
13740TIP3    H162711   1.690   0.875  -0.042 -0.8494  0.6588  2.0130
13740TIP3    H262712   1.742   0.733  -0.035  2.0609  1.5238 -1.1075
13741TIP3   OH262713   4.430   0.355   5.517 -0.2461  0.1293 -0.0767
13741TIP3    H162714   4.403   0.309   5.597 -1.0988 -0.0450 -0.4585
13741TIP3    H262715   4.488   0.293   5.473 -0.7103 -0.2505 -0.1652
13742TIP3   OH262716   4.890   1.408   0.507 -0.0387 -0.7235 -0.1959
13742TIP3    H162717   4.818   1.348   0.489 -1.7515  0.6825  1.8370
13742TIP3    H262718   4.867   1.451   0.589  2.5333  0.6500 -0.1198
13743TIP3   OH262719   2.908   2.264   3.381  0.7207 -0.5685 -0.5805
13743TIP3    H162720   2.945   2.199   3.321 -2.0338 -1.7138 -1.1078
13743TIP3    H262721   2.852   2.213   3.440 -1.6304  1.2946 -1.1175
13744TIP3   OH262722   1.803   0.389   5.661 -0.3386 -0.0347 -0.2032
13744TIP3    H162723   1.858   0.419   5.733  0.5925 -0.0073 -0.9171
13744TIP3    H262724   1.737   0.458   5.652  1.0237  1.2100 -0.9922
13745TIP3   OH262725   4.124   0.347   3.773  0.3110  0.3460 -0.0879
13745TIP3    H162726   4.066   0.413   3.734 -1.1615 -2.3663 -2.6918
13745TIP3    H262727   4.198   0.342   3.712  1.2888  0.7971  1.0353
13746TIP3   OH262728   4.981   0.152  15.273 -0.0693 -0.1133 -0.6539
13746TIP3    H162729   4.974   0.088  15.344 -0.6490  0.5782 -0.0825
13746TIP3    H262730   5.052   0.211  15.301 -0.0602 -0.0511 -0.8113
13747TIP3   OH262731   4.092   4.191   2.873 -0.8408 -0.6642 -0.1109
13747TIP3    H162732   4.076   4.270   2.821  1.1051  0.9226  1.5921
13747TIP3    H262733   4.093   4.120   2.809 -0.6976  0.9422 -1.9538
13748TIP3   OH262734   5.744   5.322   0.761  0.1818 -0.0154  0.2641
13748TIP3    H162735   5.824   5.373   0.773 -0.5650  0.7387  2.3138
13748TIP3    H262736   5.774   5.231   0.762  1.3513  0.3223 -1.9992
13749TIP3   OH262737   2.715   0.132   5.540  0.2641  0.2219  0.1081
13749TIP3    H162738   2.711   0.208   5.599  0.6880  0.1297  0.2584
13749TIP3    H262739   2.678   0.061   5.592 -1.4838  0.6349 -0.5386
13750TIP3   OH262740   3.018   1.131   1.515  0.7398 -0.6339  0.0690
13750TIP3    H162741   2.944   1.132   1.575 -0.3891 -0.5537 -1.2958
13750TIP3    H262742   3.062   1.049   1.533 -1.4858 -2.1680 -1.2276
13751TIP3   OH262743   4.848   3.218   1.624  0.8115 -0.0290 -0.5836
13751TIP3    H162744   4.895   3.137   1.646 -2.6941 -1.6347  1.3388
13751TIP3    H262745   4.895   3.286   1.673  2.5525 -1.1867 -0.5753
13752TIP3   OH262746   2.327   1.358   4.499 -0.0771 -0.6794 -0.4372
13752TIP3    H162747   2.251   1.322   4.454  1.2364 -2.1396 -1.5550
13752TIP3    H262748   2.309   1.343   4.592 -2.1285  1.0135 -0.5256
13753TIP3   OH262749   5.129   1.210   1.044  0.4546  0.2182  0.0936
13753TIP3    H162750   5.172   1.168   0.970  1.7804  0.8499  0.4820
13753TIP3    H262751   5.200   1.232   1.104 -0.6982 -1.3674  2.1260
13754TIP3   OH262752   7.133   0.661   4.748 -0.2223  0.1334  0.0555
13754TIP3    H162753   7.073   0.589   4.733 -0.9332  0.3386  1.7775
13754TIP3    H262754   7.178   0.638   4.830  0.6670  0.8830 -0.2141
13755TIP3   OH262755   0.006   1.455  15.334  0.3197  0.0598  0.0864
13755TIP3    H162756  -0.019   1.546  15.316  1.7612 -0.1455 -3.2404
13755TIP3    H262757   0.076   1.462  15.399  0.0259  1.2843  0.2909
13756TIP3   OH262758   0.820   3.629   1.700  0.0426 -0.1158 -0.0668
13756TIP3    H162759   0.845   3.709   1.746 -0.5068 -0.8066  1.4843
13756TIP3    H262760   0.728   3.643   1.675 -0.4958 -0.7930  1.4538
13757TIP3   OH262761   2.348   0.472   0.311 -0.2071 -0.4630  0.1488
13757TIP3    H162762   2.272   0.498   0.363  0.8489  2.4347  0.3457
13757TIP3    H262763   2.421   0.520   0.349  1.3002 -1.3547 -1.5403
13758TIP3   OH262764   3.616   0.215   5.153 -0.1150 -0.4044  0.3344
13758TIP3    H162765   3.580   0.138   5.109  0.3631 -0.2479 -0.3450
13758TIP3    H262766   3.653   0.181   5.234  0.2954 -0.9298 -0.0709
13759TIP3   OH262767   1.395   0.875   3.107  0.2484  0.1118  0.1039
13759TIP3    H162768   1.332   0.823   3.157  0.4916 -0.1569  0.1332
13759TIP3    H262769   1.343   0.916   3.038  0.1638 -0.6991 -0.3210
13760TIP3   OH262770   4.469   1.860   4.434  0.1042  0.6493 -0.2016
13760TIP3    H162771   4.534   1.840   4.367  0.4752  0.0174  0.3451
13760TIP3    H262772   4.506   1.825   4.515 -0.9958  0.1324  0.0868
13761TIP3   OH262773   6.306   3.335   2.436 -0.3562  0.0332  0.3902
13761TIP3    H162774   6.317   3.389   2.515  1.1738 -0.1243  0.2904
13761TIP3    H262775   6.300   3.398   2.364 -0.8403  0.1464  0.5286
13762TIP3   OH262776   4.876   0.902   5.534  0.1439  0.2496 -0.0054
13762TIP3    H162777   4.846   0.869   5.618  0.0745  0.0107 -0.1226
13762TIP3    H262778   4.967   0.874   5.528  0.3092  0.7485  0.2359
13763TIP3   OH262779   6.805   1.291  14.620  0.9565  0.6829 -0.5658
13763TIP3    H162780   6.793   1.368  14.564 -2.2101 -0.3839 -1.4364
13763TIP3    H262781   6.760   1.220  14.573  0.6303 -0.8590  1.9962
13764TIP3   OH262782   2.039   4.392   2.326  0.2616 -0.1686 -0.2561
13764TIP3    H162783   2.080   4.307   2.310 -0.6157 -0.1739 -2.6579
13764TIP3    H262784   2.053   4.441   2.244 -2.0965  0.8121 -0.1165
13765TIP3   OH262785   0.802   3.583   4.544  0.0555 -0.1700 -0.7851
13765TIP3    H162786   0.799   3.653   4.609  1.7357 -0.9380  0.1523
13765TIP3    H262787   0.720   3.591   4.496  0.5113  2.9384 -1.1995
13766TIP3   OH262788   7.166   3.123   5.133 -0.2330 -0.3037  0.2521
13766TIP3    H162789   7.151   3.034   5.165  0.0059 -0.0937  0.9605
13766TIP3    H262790   7.084   3.147   5.091 -0.6667 -0.4772  0.9818
13767TIP3   OH262791   3.830   3.317   4.686  0.5337  0.4230  0.2072
13767TIP3    H162792   3.888   3.289   4.615  0.6521 -0.7880  0.7622
13767TIP3    H262793   3.876   3.390   4.727  0.4387  1.1568 -0.9881
13768TIP3   OH262794   6.656   2.597   3.193 -0.2916  0.0386 -0.4766
13768TIP3    H162795   6.606   2.658   3.139 -2.0160 -0.4112  0.5927
13768TIP3    H262796   6.684   2.648   3.269 -0.1223 -0.0099 -0.5061
13769TIP3   OH262797   1.965   1.766   4.485  0.2208  0.3190  0.5564
13769TIP3    H162798   1.884   1.791   4.530  0.3214 -0.6747  1.2916
13769TIP3    H262799   1.975   1.833   4.417 -2.2167 -0.5654 -0.7587
13770TIP3   OH262800   0.559   6.900   1.452 -0.1341  0.4394  0.5250
13770TIP3    H162801   0.583   6.825   1.507  1.4040  0.4784 -0.0658
13770TIP3    H262802   0.556   6.974   1.513  4.5834  1.0865  0.2083
13771TIP3   OH262803   2.157   1.584   2.391  0.2705 -0.0152 -0.3715
13771TIP3    H162804   2.144   1.615   2.480 -2.8312  0.7218 -1.0024
13771TIP3    H262805   2.237   1.628   2.361  0.2197  1.3084  1.3541
13772TIP3   OH262806   1.505   1.921   5.058 -0.1929  0.0100  0.0863
13772TIP3    H162807   1.559   1.900   5.133 -1.3465  0.1654  0.9826
13772TIP3    H262808   1.415   1.905   5.088 -0.5739 -1.8205 -1.8678
13773TIP3   OH262809   2.193   2.163   2.107  0.0284  0.3584 -0.6385
13773TIP3    H162810   2.099   2.177   2.122  0.2624  0.6120  0.6192
13773TIP3    H262811   2.233   2.248   2.125  0.8846 -0.6005  2.2349
13774TIP3   OH262812   4.733   3.552  15.341  0.2382  0.6156 -0.0963
13774TIP3    H162813   4.776   3.467  15.345  0.8427  0.9152 -0.2672
13774TIP3    H262814   4.750   3.583  15.252 -1.2726  0.2337 -0.5334
13775TIP3   OH262815   6.425   4.475   0.273  0.5152  0.3009 -0.0313
13775TIP3    H162816   6.446   4.567   0.291 -0.2492 -0.0538  3.0362
13775TIP3    H262817   6.330   4.470   0.286  0.4221 -0.7610 -1.0681
13776TIP3   OH262818   5.142   1.669   3.345 -0.0518  0.7642 -0.1339
13776TIP3    H162819   5.118   1.733   3.278  0.8560  1.1788 -0.0663
13776TIP3    H262820   5.143   1.586   3.298  0.5065  1.0407 -0.6156
13777TIP3   OH262821   4.056   1.054   4.111 -0.3736 -0.4862  0.8161
13777TIP3    H162822   4.044   1.046   4.017  2.0909 -2.5534  0.6081
13777TIP3    H262823   4.112   1.130   4.122 -0.5999 -0.2887  0.6159
13778TIP3   OH262824   2.898   1.723   4.327  0.6280  0.3894 -0.2733
13778TIP3    H162825   2.902   1.806   4.375 -0.7945  0.1069  0.3744
13778TIP3    H262826   2.886   1.657   4.396 -2.5810  0.0872 -1.0357
13779TIP3   OH262827   4.437   4.137   2.106  0.0723  0.1051  0.0316
13779TIP3    H162828   4.486   4.106   2.031 -3.4787 -2.0439 -1.5423
13779TIP3    H262829   4.356   4.172   2.069 -1.3576 -0.1576  2.7431
13780TIP3   OH262830   2.499   5.532  15.271  0.0247  0.1652  0.0196
13780TIP3    H162831   2.576   5.570  15.227  0.4519 -1.1923 -0.4363
13780TIP3    H262832   2.489   5.446  15.230 -1.2606  0.0149  0.6498
13781TIP3   OH262833   6.208   1.762   5.834  0.3930 -0.2163  0.3099
13781TIP3    H162834   6.124   1.805   5.851 -0.0036  0.0825 -2.2829
13781TIP3    H262835   6.274   1.829   5.850  0.1450 -0.3374  1.9578
13782TIP3   OH262836   5.655   3.146   0.961  0.0495 -0.1175 -0.4220
13782TIP3    H162837   5.714   3.172   1.032  0.5362 -1.6164 -0.2661
13782TIP3    H262838   5.677   3.055   0.943 -1.1520 -0.2266 -1.4407
13783TIP3   OH262839   5.187   3.929  14.974 -0.1618  0.6854 -0.6091
13783TIP3    H162840   5.234   3.995  15.024 -0.5304  1.3596 -1.1387
13783TIP3    H262841   5.100   3.924  15.015 -0.4483  1.2055 -1.1486
13784TIP3   OH262842   1.221   5.199   3.070 -0.3855 -0.1991 -0.5165
13784TIP3    H162843   1.221   5.228   3.161 -1.2429  0.1029 -0.6025
13784TIP3    H262844   1.226   5.280   3.019  1.4497 -0.4293 -0.7424
13785TIP3   OH262845   6.851   0.515  14.204  0.0431 -0.0098  0.0388
13785TIP3    H162846   6.831   0.608  14.199  0.4005  0.0788  0.2242
13785TIP3    H262847   6.811   0.487  14.286 -2.2923 -0.5832 -1.2495
13786TIP3   OH262848   6.263   5.322   3.465 -0.1157 -0.6342 -0.1751
13786TIP3    H162849   6.236   5.396   3.411  1.3521 -0.8023 -1.1755
13786TIP3    H262850   6.281   5.252   3.402  0.2905 -1.2664  0.6288
13787TIP3   OH262851   0.952   0.496   2.085 -0.3513  0.0286  0.2227
13787TIP3    H162852   0.970   0.585   2.115  0.3933  0.2447 -0.8457
13787TIP3    H262853   1.010   0.484   2.010  0.9520 -2.0365  1.5051
13788TIP3   OH262854   2.660   0.214   2.792  1.0135  0.3641 -0.1487
13788TIP3    H162855   2.696   0.260   2.717  1.1371 -0.7801 -0.7943
13788TIP3    H262856   2.594   0.155   2.756 -0.0600  0.9394  0.8083
13789TIP3   OH262857   2.992   1.002   2.829 -0.3312 -0.3278 -0.0149
13789TIP3    H162858   2.980   1.097   2.825 -1.5227 -0.4976 -0.7252
13789TIP3    H262859   3.051   0.988   2.903 -1.8821  0.8168  1.4801
13790TIP3   OH262860   6.359   1.201   0.715  0.2412  0.0665  0.2698
13790TIP3    H162861   6.320   1.241   0.637 -0.5529 -1.3094 -0.0472
13790TIP3    H262862   6.287   1.196   0.778  0.0254 -1.9569 -0.1155
13791TIP3   OH262863   5.002   2.472   5.473  0.2527 -0.0044  0.1250
13791TIP3    H162864   5.061   2.523   5.416  2.1266 -2.1194  0.1199
13791TIP3    H262865   5.004   2.518   5.557  0.5528  0.9104 -0.3773
13792TIP3   OH262866   6.613   1.685   4.494 -0.4799  0.7757  0.0096
13792TIP3    H162867   6.544   1.644   4.443 -0.6399  0.4297  0.5040
13792TIP3    H262868   6.677   1.714   4.429  0.2067 -1.2823 -0.2770
13793TIP3   OH262869   1.983   0.066   2.240  0.1348  0.5650  0.4996
13793TIP3    H162870   1.993   0.160   2.250  2.0598  0.3093  1.0964
13793TIP3    H262871   1.933   0.055   2.159 -2.0187  2.1410  1.5670
13794TIP3   OH262872   5.300   0.844   0.724 -0.1348 -0.3060  0.0436
13794TIP3    H162873   5.326   0.757   0.693  0.7169  0.6806 -2.1414
13794TIP3    H262874   5.381   0.883   0.758 -0.1335  0.2568 -0.5829
13795TIP3   OH262875   1.357   6.800  15.059  0.1102  0.5349  1.2366
13795TIP3    H162876   1.410   6.870  15.022 -0.7611  1.0748  0.9819
13795TIP3    H262877   1.305   6.768  14.984  2.0451 -1.8335  0.8501
13796TIP3   OH262878   1.172   5.642   4.937  0.3326  0.9547  0.2614
13796TIP3    H162879   1.188   5.561   4.986  1.7743  0.3551 -1.1288
13796TIP3    H262880   1.241   5.701   4.966  1.0331  0.6864 -0.8093
13797TIP3   OH262881   2.822   0.704  14.364  0.0115  0.5193  0.2567
13797TIP3    H162882   2.768   0.747  14.298  0.0087  0.8023  0.4397
13797TIP3    H262883   2.773   0.714  14.446 -1.3012 -2.2402 -0.1554
13798TIP3   OH262884   3.731   2.089   1.231  0.2528 -0.0202 -0.6211
13798TIP3    H162885   3.822   2.115   1.214  0.2099  0.2702 -0.4105
13798TIP3    H262886   3.692   2.166   1.272  0.8350 -1.3112  2.4782
13799TIP3   OH262887   1.057   5.047   3.717 -0.8346  0.4725 -0.0211
13799TIP3    H162888   1.137   5.090   3.746 -0.5970 -0.3428  0.5305
13799TIP3    H262889   0.994   5.119   3.706 -0.4537  0.9518  0.9158
13800TIP3   OH262890   5.039   0.442   0.315  0.1391 -0.1926  0.4786
13800TIP3    H162891   4.955   0.447   0.361  0.0067 -1.1525  0.3607
13800TIP3    H262892   5.077   0.359   0.343  0.7963 -0.0269  0.0938
13801TIP3   OH262893   0.069   7.114   0.032  0.4949 -0.5230  0.8295
13801TIP3    H162894   0.101   7.197   0.068 -0.6963  0.4290 -0.2436
13801TIP3    H262895   0.135   7.050   0.057  0.9911  0.5782  2.4478
13802TIP3   OH262896   2.310   0.123   0.670 -0.1185 -0.6162  0.2569
13802TIP3    H162897   2.287   0.078   0.589  3.6665 -2.2238 -0.0184
13802TIP3    H262898   2.225   0.149   0.708 -2.1567 -3.2421 -2.2497
13803TIP3   OH262899   2.429   1.804   4.084  0.7857 -0.5906  0.0815
13803TIP3    H162900   2.515   1.788   4.122 -0.1455 -0.8353  2.1097
13803TIP3    H262901   2.367   1.768   4.147 -0.8203 -0.4978 -1.3987
13804TIP3   OH262902   2.468   2.190   3.855  0.5768 -0.1652 -0.5111
13804TIP3    H162903   2.438   2.140   3.779 -2.3701 -0.2438  0.6409
13804TIP3    H262904   2.426   2.149   3.930  0.7619  1.9550  0.8086
13805TIP3   OH262905   1.942   0.603   3.841  0.2176 -0.2159  0.3188
13805TIP3    H162906   2.010   0.538   3.822 -1.3425 -2.3545  1.8547
13805TIP3    H262907   1.982   0.663   3.904  1.2952 -0.3452 -0.2348
13806TIP3   OH262908   2.486   0.989   1.565  0.4631  0.7770 -0.1430
13806TIP3    H162909   2.582   0.993   1.558  0.4594  1.8127  0.3193
13806TIP3    H262910   2.460   0.926   1.499  1.6250 -0.9831  1.0281
13807TIP3   OH262911   0.945   2.172   4.347 -0.6622 -0.1377  0.4966
13807TIP3    H162912   1.017   2.165   4.410  0.1629 -0.1547 -0.4305
13807TIP3    H262913   0.988   2.195   4.265 -1.6874 -0.5404 -0.1577
13808TIP3   OH262914   5.057   2.161   4.622  0.1057  0.7431  0.4743
13808TIP3    H162915   5.142   2.181   4.661  0.5636 -0.0413 -0.1211
13808TIP3    H262916   5.070   2.077   4.578 -1.0844  0.4187  0.7291
13809TIP3   OH262917   1.988   0.763   3.618  0.3753  0.1329 -0.2565
13809TIP3    H162918   1.948   0.726   3.697  0.6848  0.3494  0.0033
13809TIP3    H262919   1.917   0.764   3.554 -0.1916  1.0416  0.3794
13810TIP3   OH262920   2.272   1.628   2.952  0.1691 -0.2565  0.8466
13810TIP3    H162921   2.347   1.648   2.897 -0.7588  1.0747  0.0465
13810TIP3    H262922   2.307   1.571   3.020  2.1409  1.2318  1.1196
13811TIP3   OH262923   1.875   2.256  15.232  0.1521 -0.4496  0.2699
13811TIP3    H162924   1.928   2.316  15.180  0.8392  0.0195  1.4761
13811TIP3    H262925   1.934   2.227  15.302 -0.6776 -1.2511  0.6510
13812TIP3   OH262926   3.123   0.102   2.947  0.2978  0.5385  0.4198
13812TIP3    H162927   3.110   0.041   3.019 -0.4244 -0.6528 -0.6837
13812TIP3    H262928   3.058   0.075   2.882  2.3902  0.1808 -1.5829
13813TIP3   OH262929   2.785   0.814   3.730 -0.5525 -0.1580 -0.2077
13813TIP3    H162930   2.775   0.879   3.798 -0.3095  0.5288 -0.8214
13813TIP3    H262931   2.770   0.862   3.648 -0.9707 -0.9926 -0.6321
13814TIP3   OH262932   3.380   1.511   5.055  0.1158 -0.3357  0.3708
13814TIP3    H162933   3.400   1.526   5.148  0.1047  1.6999  0.0702
13814TIP3    H262934   3.461   1.535   5.010 -1.4433  3.6768 -0.5162
13815TIP3   OH262935   1.626   0.130   3.242 -0.1334  0.0484 -0.1895
13815TIP3    H162936   1.559   0.154   3.178  0.3246 -1.1090 -1.1153
13815TIP3    H262937   1.708   0.158   3.202  0.2669 -1.7179 -0.6420
13816TIP3   OH262938   3.477   1.751   4.462  0.0032 -0.1095  0.0984
13816TIP3    H162939   3.561   1.782   4.496 -0.3881 -0.5711  1.5216
13816TIP3    H262940   3.481   1.656   4.471 -0.4689 -0.1715 -0.3113
13817TIP3   OH262941   4.061   6.312   4.628  0.8467  0.0922 -0.2678
13817TIP3    H162942   3.977   6.282   4.664 -0.1996 -0.2033 -2.8977
13817TIP3    H262943   4.127   6.265   4.680 -0.6150 -0.1610  1.3905
13818TIP3   OH262944   4.362   6.750   3.768 -0.4688 -0.4521 -0.4774
13818TIP3    H162945   4.294   6.747   3.835  0.1983  0.5907  0.2722
13818TIP3    H262946   4.426   6.813   3.802  0.1627 -0.3459 -1.8259
13819TIP3   OH262947   6.994   1.617   2.855 -1.0312  0.2667 -0.7208
13819TIP3    H162948   7.070   1.676   2.859 -1.7094  1.0334  1.9387
13819TIP3    H262949   6.936   1.648   2.925 -2.4821 -2.0944 -0.8279
13820TIP3   OH262950   2.929   0.174   4.703 -0.0776 -0.2071  0.1609
13820TIP3    H162951   2.852   0.126   4.734 -0.6183  0.3424 -0.3418
13820TIP3    H262952   2.980   0.191   4.783  0.1204 -1.6177  0.3478
13821TIP3   OH262953   3.775   3.259   2.085 -0.0344 -0.4476 -0.2044
13821TIP3    H162954   3.736   3.291   2.004 -0.6751  1.2228  0.7379
13821TIP3    H262955   3.709   3.199   2.121  0.2040 -1.1032 -0.8404
13822TIP3   OH262956   5.965   0.123   0.835  0.0309  0.2452 -0.6483
13822TIP3    H162957   5.883   0.173   0.839 -0.2246 -0.3056  1.4270
13822TIP3    H262958   6.033   0.188   0.855  0.1598  0.7341 -2.5103
13823TIP3   OH262959   3.744   1.946   1.797  0.2560  0.1328 -0.5775
13823TIP3    H162960   3.727   2.009   1.868  2.8163  0.5545 -0.2774
13823TIP3    H262961   3.838   1.953   1.782  0.3187 -2.5668 -1.5965
13824TIP3   OH262962   5.210   0.931  14.301 -0.0762 -0.6695 -0.1113
13824TIP3    H162963   5.175   1.020  14.304 -0.0100 -0.6319 -0.4880
13824TIP3    H262964   5.299   0.939  14.335 -0.4588 -0.7819  0.9578
13825TIP3   OH262965   6.038   5.040   2.568  0.0885  0.5852 -0.2555
13825TIP3    H162966   6.066   4.949   2.568 -1.4632  0.0775  0.3835
13825TIP3    H262967   5.998   5.053   2.482  2.3619  1.3498 -1.2204
13826TIP3   OH262968   2.813   3.023   0.840  0.1715  0.3000  0.3382
13826TIP3    H162969   2.764   2.953   0.883  0.2629 -0.1237 -0.2346
13826TIP3    H262970   2.903   2.990   0.838  0.0480  0.0097 -0.7930
13827TIP3   OH262971   2.713   5.257   2.768  0.2359  0.4019 -0.5623
13827TIP3    H162972   2.708   5.353   2.768  0.7879  0.4374 -1.2294
13827TIP3    H262973   2.750   5.235   2.853 -1.6489  0.6753  0.3407
13828TIP3   OH262974   4.862   3.513  14.234  0.3954 -0.8390  0.0898
13828TIP3    H162975   4.944   3.472  14.264 -0.4852 -2.6930  0.0183
13828TIP3    H262976   4.849   3.479  14.145 -0.5692 -0.7485  0.1886
13829TIP3   OH262977   0.998   5.628   4.337  0.0934 -0.3670 -0.0937
13829TIP3    H162978   1.023   5.554   4.393 -0.8621 -1.2048 -0.7567
13829TIP3    H262979   1.012   5.596   4.248 -0.3204  0.2542 -0.3845
13830TIP3   OH262980   5.437   0.845   4.546 -1.1402  0.1750 -0.4931
13830TIP3    H162981   5.432   0.844   4.451 -2.0018  0.1485 -0.4451
13830TIP3    H262982   5.443   0.938   4.569  0.3810  0.1284 -0.6356
13831TIP3   OH262983   3.696   5.209   4.275  0.2443 -0.0741 -0.3919
13831TIP3    H162984   3.673   5.202   4.182  0.6444 -0.9775 -0.4241
13831TIP3    H262985   3.788   5.181   4.279 -0.1837 -1.3798  0.4800
13832TIP3   OH262986   5.639   2.236   1.881 -0.8414  0.1376 -0.8110
13832TIP3    H162987   5.691   2.279   1.948  0.2073  0.4969 -1.8422
13832TIP3    H262988   5.550   2.234   1.918 -0.1447 -0.3598  0.8908
13833TIP3   OH262989   5.435   4.436   3.774 -0.3546  0.1611 -0.0023
13833TIP3    H162990   5.374   4.486   3.829  0.3523 -0.4133  1.3365
13833TIP3    H262991   5.380   4.370   3.733 -0.6008 -0.5844  1.4833
13834TIP3   OH262992   3.917   6.023   0.204  0.0378 -0.7296  0.0699
13834TIP3    H162993   3.887   6.033   0.114  0.0819 -0.0037  0.1321
13834TIP3    H262994   3.997   5.971   0.197  0.4772 -0.0062 -0.3907
13835TIP3   OH262995   0.907   6.912   4.550 -0.0298  0.0416 -0.5947
13835TIP3    H162996   0.974   6.882   4.611 -1.2816  0.3744  0.9572
13835TIP3    H262997   0.884   6.834   4.499  1.2907 -0.1447 -0.9209
13836TIP3   OH262998   4.281   5.502   4.662 -0.0857 -0.1721 -1.2157
13836TIP3    H162999   4.307   5.559   4.589  0.5331  0.1361 -0.7521
13836TIP3    H263000   4.326   5.537   4.738 -1.2504 -0.0945 -0.5449
13837TIP3   OH263001   2.348   3.071   3.256 -0.2231 -0.1307  0.1446
13837TIP3    H163002   2.299   3.121   3.321  0.0581  1.2862 -0.7005
13837TIP3    H263003   2.439   3.097   3.270 -0.0951 -0.2744 -0.4103
13838TIP3   OH263004   1.279   2.426   1.656 -0.2840 -0.9796  0.5760
13838TIP3    H163005   1.363   2.468   1.639  0.7138 -1.8844  2.9753
13838TIP3    H263006   1.279   2.410   1.750 -1.6555 -4.0990  0.1169
13839TIP3   OH263007   4.731   1.252   2.446  0.2073  0.1287 -0.1749
13839TIP3    H163008   4.703   1.187   2.382 -0.7044 -1.2879  1.5968
13839TIP3    H263009   4.729   1.335   2.399  0.9336 -1.0561 -2.3536
13840TIP3   OH263010   0.566   0.506   2.898  0.4872 -0.0738 -0.2242
13840TIP3    H163011   0.491   0.553   2.860  0.6730  0.8836  0.5935
13840TIP3    H263012   0.642   0.539   2.850  0.2581 -2.1176 -2.0767
13841TIP3   OH263013   3.993   2.213  14.701 -0.1626 -0.3095  0.4072
13841TIP3    H163014   3.924   2.182  14.760 -0.3956 -0.8588 -0.1530
13841TIP3    H263015   4.062   2.246  14.759 -0.5436 -0.5215  0.9769
13842TIP3   OH263016   0.021   5.160   4.348 -0.2626 -0.3955  0.0693
13842TIP3    H163017  -0.073   5.172   4.355 -0.4080 -0.4804 -1.5386
13842TIP3    H263018   0.058   5.247   4.362 -0.7989  0.3180 -2.6943
13843TIP3   OH263019   4.944   1.572   2.040  0.7853  0.2007  0.2922
13843TIP3    H163020   4.925   1.659   2.005  0.1823 -1.4674 -3.8440
13843TIP3    H263021   4.863   1.523   2.024  1.6904 -1.5545  1.0601
13844TIP3   OH263022   4.246   5.016   2.000 -0.1695  0.0042 -0.1132
13844TIP3    H163023   4.176   5.079   2.016  0.3422  0.0414  2.0792
13844TIP3    H263024   4.226   4.943   2.058  1.6566  0.0576  0.6125
13845TIP3   OH263025   6.490   4.466   1.925  0.1694  0.0002  0.1957
13845TIP3    H163026   6.518   4.551   1.958 -0.0964  0.0218  0.3637
13845TIP3    H263027   6.395   4.466   1.935 -0.1268  0.7811 -2.3856
13846TIP3   OH263028   2.916   2.448   5.697  0.5176  0.5785  0.3400
13846TIP3    H163029   2.989   2.443   5.758  1.2935  0.4822 -0.5857
13846TIP3    H263030   2.957   2.453   5.610 -0.5596 -1.4401 -0.3377
13847TIP3   OH263031   2.521   4.902   2.244 -0.0032  0.0915 -0.1263
13847TIP3    H163032   2.615   4.917   2.249  0.6360 -3.7297  1.8594
13847TIP3    H263033   2.499   4.861   2.327 -3.2818  0.1080 -0.9082
13848TIP3   OH263034   5.634   2.560   1.925  0.5052 -0.5872 -0.3561
13848TIP3    H163035   5.726   2.565   1.900  0.1205 -0.4638 -1.8481
13848TIP3    H263036   5.631   2.595   2.014  1.6818  0.8304 -0.8473
13849TIP3   OH263037   3.162   5.698   6.415  0.6827 -0.7213  0.2584
13849TIP3    H163038   3.185   5.781   6.375  0.3493 -1.0800 -0.6930
13849TIP3    H263039   3.115   5.650   6.347  1.6164 -2.0300  0.5027
13850TIP3   OH263040   1.569   5.475   2.457  0.3525 -0.3238 -0.3437
13850TIP3    H163041   1.539   5.530   2.385 -0.0012 -0.0170  0.0336
13850TIP3    H263042   1.505   5.491   2.527 -0.1298 -1.7105 -0.4525
13851TIP3   OH263043   1.521   3.257   2.346 -0.0470 -0.5701 -0.6306
13851TIP3    H163044   1.511   3.215   2.260  1.2466 -0.5105 -0.8120
13851TIP3    H263045   1.592   3.319   2.335 -1.1456  0.8314 -0.0211
13852TIP3   OH263046   0.110   2.332   3.582  0.0657  0.0596  0.4264
13852TIP3    H163047   0.100   2.391   3.658  0.7510  0.4048  0.2521
13852TIP3    H263048   0.202   2.340   3.558 -0.3792  0.7052 -1.0672
13853TIP3   OH263049   1.559   4.666   0.183 -0.0099 -0.4560 -0.0399
13853TIP3    H163050   1.595   4.748   0.150 -2.1326 -0.4779 -2.5744
13853TIP3    H263051   1.582   4.600   0.118  1.2255 -1.8144  1.7147
13854TIP3   OH263052   5.667   1.171  14.021 -0.1364  0.0741 -0.3108
13854TIP3    H163053   5.639   1.099  14.077 -1.8030  0.6525 -0.3686
13854TIP3    H263054   5.651   1.250  14.074 -2.7172  0.7049 -1.9217
13855TIP3   OH263055   2.596   5.273   5.350  0.2701  0.2303 -0.8390
13855TIP3    H163056   2.533   5.220   5.301 -1.9169  0.5305  1.5627
13855TIP3    H263057   2.559   5.361   5.350  0.8508  0.4749  0.3724
13856TIP3   OH263058   1.217   6.679   1.486  0.6224  0.2815 -0.1692
13856TIP3    H163059   1.245   6.587   1.482 -0.4579 -0.0190 -1.2085
13856TIP3    H263060   1.293   6.728   1.454  1.0070 -0.2996 -0.1595
13857TIP3   OH263061   2.053   6.375   4.484  0.3995 -0.1326  0.0328
13857TIP3    H163062   2.095   6.417   4.410 -2.0965  1.2478 -0.6326
13857TIP3    H263063   2.066   6.436   4.557  2.7352 -1.4276  0.7629
13858TIP3   OH263064   4.961   2.989   5.738  0.1181 -0.1800 -0.2296
13858TIP3    H163065   4.995   3.076   5.761  1.1856 -0.3174 -1.2323
13858TIP3    H263066   4.875   2.986   5.779  0.6746  0.7809  1.0796
13859TIP3   OH263067   1.023   3.168   4.710  0.1289 -0.0375  0.0105
13859TIP3    H163068   1.033   3.145   4.802 -0.3144 -1.6024 -0.3288
13859TIP3    H263069   0.929   3.184   4.699  0.0909 -0.4748 -0.3139
13860TIP3   OH263070   2.718   4.065   5.471 -0.5539 -0.2717 -0.0501
13860TIP3    H163071   2.810   4.063   5.444 -0.3840  0.1797  0.4801
13860TIP3    H263072   2.671   4.023   5.400 -0.2270  1.8039 -1.5420
13861TIP3   OH263073   0.817   6.095   4.874 -0.3023  0.9385 -0.6132
13861TIP3    H163074   0.809   6.190   4.882  1.4202  0.9834  1.0893
13861TIP3    H263075   0.775   6.073   4.791 -0.5240  3.2197 -1.1121
13862TIP3   OH263076   1.491   3.203   1.075  0.1323  0.0471  0.2896
13862TIP3    H163077   1.411   3.165   1.111  0.7660 -0.1954  1.4577
13862TIP3    H263078   1.494   3.171   0.984  0.0237 -1.7076  0.8818
13863TIP3   OH263079   3.838   6.683   5.192 -0.2862  0.3475 -0.0707
13863TIP3    H163080   3.799   6.636   5.266  1.2366 -0.1131  0.4682
13863TIP3    H263081   3.914   6.631   5.168  1.3241  2.3807  0.3915
13864TIP3   OH263082   2.779   4.720   1.793  0.3434 -0.5006 -0.2968
13864TIP3    H163083   2.862   4.689   1.828 -1.2297 -2.8469  1.4873
13864TIP3    H263084   2.720   4.722   1.869 -0.9864  2.1471 -1.3093
13865TIP3   OH263085   6.653   3.948  15.340 -0.4449  0.2916 -0.0007
13865TIP3    H163086   6.560   3.940  15.319 -0.3533 -1.0606  0.0720
13865TIP3    H263087   6.656   3.944  15.436 -0.0217 -3.4508 -0.0837
13866TIP3   OH263088   1.318   6.059   0.353  0.4187  0.0380 -0.6081
13866TIP3    H163089   1.250   6.027   0.412 -0.1622 -0.0493 -1.3155
13866TIP3    H263090   1.278   6.133   0.308  1.1465  0.6347 -0.2832
13867TIP3   OH263091   4.720   2.770   0.256  0.2838 -0.7779 -1.2426
13867TIP3    H163092   4.655   2.798   0.192 -1.5473 -2.6513 -0.2538
13867TIP3    H263093   4.711   2.675   0.260  0.5529 -0.7416  1.5534
13868TIP3   OH263094   3.386   6.511   3.802  0.2454 -0.3371 -0.3266
13868TIP3    H163095   3.291   6.504   3.807  0.1413  1.6871  2.2149
13868TIP3    H263096   3.405   6.518   3.709 -2.2248  0.4569 -0.8190
13869TIP3   OH263097   5.232   4.556   2.048  0.3510  0.2887 -0.4717
13869TIP3    H163098   5.239   4.495   2.121 -0.7950  1.2175  0.4467
13869TIP3    H263099   5.171   4.623   2.078 -0.8580  0.2196 -2.6159
13870TIP3   OH263100   0.909   2.240   1.413 -0.2080 -0.2727  0.5192
13870TIP3    H163101   0.951   2.221   1.329 -0.1038 -2.4285  1.0376
13870TIP3    H263102   0.914   2.335   1.421  0.5498 -0.1099 -1.5135
13871TIP3   OH263103   6.296   6.751  13.568  0.1907  0.8550  0.4864
13871TIP3    H163104   6.232   6.680  13.576  0.2588  0.7967  0.5140
13871TIP3    H263105   6.299   6.770  13.475 -0.2065  1.1688  0.5380
13872TIP3   OH263106   2.940   5.138   3.845  0.0018  0.0085 -0.4269
13872TIP3    H163107   2.974   5.051   3.828 -1.5896 -0.6099 -0.5103
13872TIP3    H263108   2.868   5.148   3.784  0.1499  1.3781 -0.3998
13873TIP3   OH263109   4.968   0.123   2.397 -0.1359 -0.2980  0.2036
13873TIP3    H163110   4.913   0.201   2.392 -0.8882 -0.7536  1.4397
13873TIP3    H263111   4.913   0.052   2.365 -0.5636 -0.9030  2.2194
13874TIP3   OH263112   3.587   5.275   5.193  0.2639  0.4911 -0.4531
13874TIP3    H163113   3.657   5.308   5.250 -1.0044  0.4109  1.2065
13874TIP3    H263114   3.551   5.353   5.151  0.9137  0.6088 -0.7861
13875TIP3   OH263115   2.009   3.487   2.187 -0.3240  0.1094  0.0988
13875TIP3    H163116   1.959   3.406   2.192  0.3364 -0.3236 -0.3389
13875TIP3    H263117   1.951   3.553   2.226 -0.4240 -0.7726  1.5012
13876TIP3   OH263118   2.798   2.678   2.612  0.0059 -0.2541 -0.4300
13876TIP3    H163119   2.848   2.732   2.551 -1.2499  0.0960 -1.1619
13876TIP3    H263120   2.708   2.685   2.582 -0.3801 -1.5556  0.3751
13877TIP3   OH263121   0.085   3.995   4.303  0.4795  0.4221  0.4572
13877TIP3    H163122   0.048   3.995   4.391  0.2325  3.4559  0.3859
13877TIP3    H263123   0.010   3.981   4.245  0.1043  1.9003  0.5645
13878TIP3   OH263124   0.148   4.153   0.877 -0.2551  0.0040 -0.2934
13878TIP3    H163125   0.198   4.200   0.811  0.2450 -0.8003 -0.4859
13878TIP3    H263126   0.187   4.066   0.881  0.1511  0.2393  1.5223
13879TIP3   OH263127   7.145   1.759   4.358  0.0691  0.4445 -1.1382
13879TIP3    H163128   7.191   1.757   4.442  0.5913 -1.7631 -1.4568
13879TIP3    H263129   7.143   1.852   4.334  2.9049  0.7586 -0.3255
13880TIP3   OH263130   3.818   6.461   0.702 -0.4404 -0.1885 -0.0612
13880TIP3    H163131   3.884   6.481   0.769  0.2263  2.7560 -1.5114
13880TIP3    H263132   3.736   6.493   0.738 -0.0614  1.5034 -0.6605
13881TIP3   OH263133   6.849   4.746   4.767  0.0325  0.2594  0.4842
13881TIP3    H163134   6.812   4.797   4.840 -1.0991  0.1810 -0.0178
13881TIP3    H263135   6.889   4.670   4.809  1.0097  1.1488  1.1738
13882TIP3   OH263136   2.097   6.425   3.831 -0.0863  0.1479 -0.4372
13882TIP3    H163137   2.038   6.430   3.906 -0.6383 -0.0876 -0.8505
13882TIP3    H263138   2.081   6.505   3.782  0.6710  0.5607 -0.0142
13883TIP3   OH263139   5.161   5.409   3.399 -0.1805  0.2203  0.2604
13883TIP3    H163140   5.193   5.450   3.318 -1.7252  1.1107  0.0718
13883TIP3    H263141   5.239   5.395   3.452  0.8544 -0.4589 -1.4351
13884TIP3   OH263142   3.714   7.031   4.367  0.5906  0.2236  0.2118
13884TIP3    H163143   3.692   7.111   4.415  0.8614 -0.3881  1.3718
13884TIP3    H263144   3.714   7.058   4.275 -0.7804  1.2209  0.4810
13885TIP3   OH263145   3.697   2.238  15.012  0.0520 -0.3235  0.3416
13885TIP3    H163146   3.618   2.213  15.059 -0.8558  1.1976 -0.3652
13885TIP3    H263147   3.761   2.255  15.081 -0.6805 -0.0548  0.9628
13886TIP3   OH263148   2.480   0.205   1.783  0.3901 -0.0353  0.2538
13886TIP3    H163149   2.421   0.135   1.755  0.2288  0.6294 -1.0671
13886TIP3    H263150   2.567   0.167   1.772  0.4276  0.8810 -3.0849
13887TIP3   OH263151   5.142   3.925   2.554  0.2192 -0.0320  0.2759
13887TIP3    H163152   5.096   4.009   2.552 -0.1391 -0.2519 -1.3747
13887TIP3    H263153   5.084   3.867   2.603  0.0025  0.3972  0.5373
13888TIP3   OH263154   3.949   6.311  14.924 -0.1504 -0.4728  0.3475
13888TIP3    H163155   3.891   6.387  14.929 -0.3786 -0.3963 -2.7316
13888TIP3    H263156   3.908   6.245  14.980 -1.9966  0.3714  0.0051
13889TIP3   OH263157   5.510   2.448   3.949  0.9710  0.0666  0.0650
13889TIP3    H163158   5.575   2.395   3.903  0.4857 -0.6652  0.2157
13889TIP3    H263159   5.440   2.387   3.970 -0.9980  1.3967 -2.3988
13890TIP3   OH263160   4.545   0.577   4.432 -0.1784  0.7518 -0.5254
13890TIP3    H163161   4.612   0.635   4.395  0.4762  0.1491 -0.3017
13890TIP3    H263162   4.488   0.557   4.357  0.9385 -0.1821 -1.1408
13891TIP3   OH263163   2.057   0.189   3.203  0.0369 -0.5828 -0.5559
13891TIP3    H163164   2.067   0.181   3.298  1.4329 -0.8710 -0.7090
13891TIP3    H263165   2.123   0.253   3.178 -1.5637  0.8775 -1.1203
13892TIP3   OH263166   5.390   4.762   1.122  0.0956 -0.6560  0.1925
13892TIP3    H163167   5.338   4.750   1.201  0.2084 -2.1356  0.0513
13892TIP3    H263168   5.429   4.849   1.132 -0.9683 -0.2762  1.1235
13893TIP3   OH263169   1.180   4.449   2.641 -0.3218  0.1051  0.1325
13893TIP3    H163170   1.087   4.427   2.652 -0.4608  1.2027  1.3437
13893TIP3    H263171   1.200   4.503   2.717  0.9597  0.9951 -0.8234
13894TIP3   OH263172   2.214   5.198   2.970  0.3462 -0.2008  0.1083
13894TIP3    H163173   2.227   5.202   3.065 -0.2200 -1.2989  0.2442
13894TIP3    H263174   2.290   5.242   2.933 -0.4597  2.1167  1.1197
13895TIP3   OH263175   0.376   2.443  13.462  0.8010 -0.0752  0.0006
13895TIP3    H163176   0.454   2.488  13.494  0.7100 -0.0411  0.1736
13895TIP3    H263177   0.333   2.410  13.541  0.5543  0.0487 -0.0799
13896TIP3   OH263178   4.339   2.017   4.151  0.5024 -0.2061  0.3436
13896TIP3    H163179   4.376   2.083   4.209  1.3075 -1.7494  1.6371
13896TIP3    H263180   4.296   2.067   4.082  0.6125  1.6627  1.5861
13897TIP3   OH263181   0.962   4.783   2.375  0.2132  0.8366 -0.6793
13897TIP3    H163182   1.037   4.724   2.384 -0.3518  0.0119 -1.3378
13897TIP3    H263183   0.955   4.799   2.280  0.6339  2.3176 -0.4755
13898TIP3   OH263184   2.047   0.715   4.477 -0.2717 -0.5317 -0.0004
13898TIP3    H163185   2.068   0.781   4.543 -1.2032 -1.2212  1.0001
13898TIP3    H263186   2.050   0.763   4.394  2.3133  0.0354  0.3795
13899TIP3   OH263187   3.520   1.646   1.519  0.0930  0.0580  0.4355
13899TIP3    H163188   3.523   1.683   1.430 -0.3778 -0.9725 -0.0169
13899TIP3    H263189   3.597   1.682   1.562  0.7447 -0.0285 -0.6409
13900TIP3   OH263190   0.642   1.804   4.023  0.4662  0.3162 -0.0242
13900TIP3    H163191   0.619   1.807   4.115  1.7168 -0.2364  0.3199
13900TIP3    H263192   0.656   1.710   4.005 -1.0911  0.2582 -1.1153
13901TIP3   OH263193   3.779   0.559   4.872  0.9509  0.3790 -0.4539
13901TIP3    H163194   3.791   0.634   4.813 -1.7751 -0.3331 -2.0023
13901TIP3    H263195   3.754   0.598   4.955  0.5449  1.2656 -0.9775
13902TIP3   OH263196   4.307   6.164  15.492  0.6499  0.0639  0.0512
13902TIP3    H163197   4.390   6.206  15.468  1.1625 -0.3541  1.0615
13902TIP3    H263198   4.326   6.119  15.575 -0.4754 -0.3729  0.0796
13903TIP3   OH263199   4.436   1.949  14.702 -0.2883 -0.5943  0.6192
13903TIP3    H163200   4.390   1.870  14.672  0.3324 -0.8979  0.4541
13903TIP3    H263201   4.366   2.011  14.722 -0.7547 -0.5447 -1.0156
13904TIP3   OH263202   3.520   3.615   1.126  0.1460 -0.7553  0.5137
13904TIP3    H163203   3.608   3.622   1.087 -0.3914  1.7044 -0.3021
13904TIP3    H263204   3.536   3.575   1.211  1.9126 -1.5069 -0.1173
13905TIP3   OH263205   2.227   1.087   2.782  0.3634 -0.0803 -0.1705
13905TIP3    H163206   2.189   1.117   2.699 -0.4864  0.7482  0.4957
13905TIP3    H263207   2.163   1.025   2.817 -0.6103  1.5894  1.1324
13906TIP3   OH263208   3.855   6.887   4.976  0.5107  0.0392 -0.5437
13906TIP3    H163209   3.943   6.895   5.012 -1.0528  2.7750  2.9638
13906TIP3    H263210   3.816   6.813   5.022 -0.1501  1.0062  0.4715
13907TIP3   OH263211   1.128   2.082   2.644  0.0311  0.1828  0.0087
13907TIP3    H163212   1.074   2.150   2.603  2.9447  1.7062 -1.3974
13907TIP3    H263213   1.150   2.118   2.730  0.2406  0.3005 -0.0955
13908TIP3   OH263214   1.502   1.552   2.690 -0.3170 -0.3289 -0.0608
13908TIP3    H163215   1.481   1.644   2.675  1.3333 -0.1079 -1.2152
13908TIP3    H263216   1.422   1.515   2.727 -1.9559  0.9629 -2.1482
13909TIP3   OH263217   3.594   0.603   1.225 -0.0199  0.1572 -0.4159
13909TIP3    H163218   3.633   0.680   1.183 -0.4527  0.5105 -0.1738
13909TIP3    H263219   3.640   0.596   1.309  0.3905 -0.1637 -0.6655
13910TIP3   OH263220   1.648   6.360   5.578  0.1849 -0.2564  0.5010
13910TIP3    H163221   1.654   6.308   5.497  2.2018  1.4843 -0.5297
13910TIP3    H263222   1.718   6.426   5.569 -2.6572  3.0253  1.4625
13911TIP3   OH263223   1.654   1.115   4.806 -0.4529  0.5134  0.6902
13911TIP3    H163224   1.641   1.039   4.749 -0.5883  2.2504 -1.6384
13911TIP3    H263225   1.571   1.162   4.803 -1.0213 -0.1820  3.6444
13912TIP3   OH263226   4.974   2.352   2.589 -0.5498 -0.2555 -0.9163
13912TIP3    H163227   4.968   2.443   2.619  0.8831 -0.6588  0.6164
13912TIP3    H263228   4.904   2.307   2.636 -1.0990 -0.0097 -1.4876
13913TIP3   OH263229   5.421   1.953   1.988  0.0836  0.0559  0.4876
13913TIP3    H163230   5.332   1.918   1.990  0.3657 -0.6304  1.3026
13913TIP3    H263231   5.413   2.041   2.025 -0.1826 -0.1879  1.0117
13914TIP3   OH263232   1.269   2.520   0.236  0.0674  0.0484 -0.2176
13914TIP3    H163233   1.330   2.593   0.242  0.0475  0.0575 -0.1284
13914TIP3    H263234   1.184   2.561   0.216 -0.2197  0.1642  1.1903
13915TIP3   OH263235   3.136   1.125   0.655 -0.4243  0.0344 -0.1218
13915TIP3    H163236   3.078   1.159   0.587 -1.5839 -0.5650  0.5388
13915TIP3    H263237   3.091   1.047   0.688 -0.5511  1.0269  2.2127
13916TIP3   OH263238   2.480   6.331  13.753 -0.3997  0.6791  0.2574
13916TIP3    H163239   2.422   6.283  13.811 -1.2954 -0.8422 -1.8095
13916TIP3    H263240   2.436   6.415  13.737  0.6509  1.8221  3.0139
13917TIP3   OH263241   3.691   1.271   2.045  0.0158  0.0340 -0.0067
13917TIP3    H163242   3.750   1.252   2.118 -1.2711  0.9219  1.2994
13917TIP3    H263243   3.688   1.190   1.995  4.4747  0.7531 -1.7066
13918TIP3   OH263244   1.870   7.068   1.244 -0.8181 -0.0156 -0.4540
13918TIP3    H163245   1.955   7.056   1.202 -1.2091 -1.6297 -0.8100
13918TIP3    H263246   1.812   7.097   1.174 -0.7984  0.1049 -0.4208
13919TIP3   OH263247   0.620   7.088  14.307  0.2001  0.0502 -0.5079
13919TIP3    H163248   0.595   7.139  14.384 -0.1862 -0.0419 -0.5715
13919TIP3    H263249   0.609   7.148  14.234 -0.2178 -0.1147 -0.5795
13920TIP3   OH263250   3.542   2.258   1.463 -0.6324 -0.1343 -0.1511
13920TIP3    H163251   3.471   2.228   1.408 -0.9008  1.5623 -0.7664
13920TIP3    H263252   3.541   2.354   1.454 -0.1302  0.1221  2.0937
13921TIP3   OH263253   2.154   0.133   3.967  0.0101  0.0426 -0.0465
13921TIP3    H163254   2.193   0.151   4.052 -1.8985 -0.3591  0.9519
13921TIP3    H263255   2.228   0.120   3.908  1.3507  1.1843  1.3624
13922TIP3   OH263256   5.682   3.001  14.742  0.4345 -0.4288  0.0914
13922TIP3    H163257   5.655   2.923  14.790  0.5204 -0.6710 -0.2535
13922TIP3    H263258   5.701   2.970  14.654 -1.3035  0.2993 -0.5635
13923TIP3   OH263259   2.549   2.248  15.273 -0.3089 -0.2726  0.2520
13923TIP3    H163260   2.592   2.333  15.280  0.2341 -0.5944  0.9363
13923TIP3    H263261   2.516   2.245  15.184 -1.4351  1.1674  0.6081
13924TIP3   OH263262   1.715   1.345   0.782  0.1225  0.0131  0.6837
13924TIP3    H163263   1.670   1.295   0.714  1.4855 -3.8062  2.4518
13924TIP3    H263264   1.806   1.351   0.751  0.4142 -0.4034  1.4660
13925TIP3   OH263265   2.823   5.498   4.114 -0.2752  0.0628 -0.1117
13925TIP3    H163266   2.855   5.581   4.078  0.5887  0.3204  1.2187
13925TIP3    H263267   2.755   5.523   4.175  0.5378 -0.1455  0.8921
13926TIP3   OH263268   5.848   0.601   2.580 -0.3980  0.2289  0.2206
13926TIP3    H163269   5.877   0.511   2.568  2.2300  0.8617  1.3693
13926TIP3    H263270   5.770   0.594   2.635 -1.4257 -1.4423 -1.3920
13927TIP3   OH263271   3.902   1.802   2.750  0.7287 -0.3679  0.2785
13927TIP3    H163272   3.811   1.825   2.732  0.5832 -0.5495  0.7534
13927TIP3    H263273   3.900   1.768   2.840  1.3892  0.3107  0.5516
13928TIP3   OH263274   2.315   6.261   1.294  0.2462 -0.0124  0.3356
13928TIP3    H163275   2.351   6.205   1.225 -0.5042 -1.4861  1.1201
13928TIP3    H263276   2.381   6.330   1.306  1.2387 -0.7997 -0.5418
13929TIP3   OH263277   2.865   0.161   2.535  0.0068  0.6425  0.5167
13929TIP3    H163278   2.779   0.201   2.522 -0.9246 -1.4923 -0.2485
13929TIP3    H263279   2.923   0.205   2.473 -0.4969  2.2041  1.1489
13930TIP3   OH263280   2.462   6.249   4.474 -0.5066 -0.1257 -0.0284
13930TIP3    H163281   2.391   6.218   4.531 -1.1682  2.1179  0.4250
13930TIP3    H263282   2.421   6.257   4.388 -0.6264  0.4931  0.0835
13931TIP3   OH263283   1.868   0.582   0.483 -0.1452 -0.0295 -0.0666
13931TIP3    H163284   1.863   0.555   0.391 -3.8509 -1.0356  0.3446
13931TIP3    H263285   1.809   0.657   0.490 -1.3722 -1.1305  1.8472
13932TIP3   OH263286   0.492   2.626   2.691  0.6224  0.4790  0.2300
13932TIP3    H163287   0.397   2.624   2.699  0.7080 -1.6935  1.0775
13932TIP3    H263288   0.520   2.694   2.752 -0.2802  0.1352  1.0307
13933TIP3   OH263289   0.434   5.379   0.741  0.4392 -0.7627 -1.0111
13933TIP3    H163290   0.358   5.399   0.686  1.5446  0.0562 -2.2908
13933TIP3    H263291   0.486   5.319   0.688  1.6429  0.2309 -0.9810
13934TIP3   OH263292   2.123   0.538   2.124  0.4159  0.5946  0.0116
13934TIP3    H163293   2.102   0.618   2.075 -0.3226 -0.1455 -0.9063
13934TIP3    H263294   2.217   0.542   2.137  0.6208  0.8496 -1.4370
13935TIP3   OH263295   5.821   6.355   1.995  0.1977 -0.6116  0.0772
13935TIP3    H163296   5.744   6.316   2.036 -0.4249 -1.7271 -2.0411
13935TIP3    H263297   5.894   6.330   2.051 -0.8948 -0.0928  1.7610
13936TIP3   OH263298   3.794   1.300   3.719 -0.0129  0.1764  0.2718
13936TIP3    H163299   3.728   1.330   3.657  0.0621  0.5528  0.3730
13936TIP3    H263300   3.750   1.232   3.770  0.1986 -0.7718 -0.7891
13937TIP3   OH263301   5.914   1.567   4.904 -0.4741  0.1957  0.3893
13937TIP3    H163302   5.980   1.624   4.944 -0.4630  0.0180  0.6233
13937TIP3    H263303   5.837   1.624   4.893 -0.6781  0.0824  1.2239
13938TIP3   OH263304   0.485   1.427   3.823 -0.4047  0.0933 -0.2033
13938TIP3    H163305   0.573   1.446   3.854 -0.3332  0.1939 -0.4635
13938TIP3    H263306   0.463   1.501   3.767 -0.9003  0.3759  0.3608
13939TIP3   OH263307   5.441   6.711   2.789  0.2356  0.3675 -0.3125
13939TIP3    H163308   5.480   6.797   2.805  0.8880  0.1498 -0.7299
13939TIP3    H263309   5.416   6.680   2.876  3.6030 -0.7457  0.3319
13940TIP3   OH263310   0.738   4.669   3.837 -0.2878  0.8520  0.2860
13940TIP3    H163311   0.799   4.735   3.804  0.4912 -0.0179 -0.0231
13940TIP3    H263312   0.653   4.713   3.837  0.1229  1.6603 -0.5148
13941TIP3   OH263313   5.830   4.282   4.647 -0.0697 -0.0875  0.5101
13941TIP3    H163314   5.825   4.208   4.708 -2.8327 -0.0907  0.3521
13941TIP3    H263315   5.845   4.242   4.562 -2.9515 -0.6555  0.2065
13942TIP3   OH263316   0.253   3.377   4.811 -0.3589 -0.0797  0.5383
13942TIP3    H163317   0.232   3.284   4.795  0.0604  0.0039 -0.5226
13942TIP3    H263318   0.278   3.411   4.725 -0.3570  0.9847  0.9572
13943TIP3   OH263319   1.582   1.661   1.985  0.4757 -0.4364  0.0010
13943TIP3    H163320   1.495   1.654   1.948  0.0738  0.1856  0.8003
13943TIP3    H263321   1.586   1.593   2.052  0.6115 -0.4880 -0.0592
13944TIP3   OH263322   5.798   0.700   5.235 -0.1865 -1.0309 -0.0255
13944TIP3    H163323   5.784   0.789   5.265  1.1286  0.5876 -3.9141
13944TIP3    H263324   5.711   0.661   5.233 -0.8818  0.4499  0.8803
13945TIP3   OH263325   1.222   4.018   3.902  0.1869 -0.3420  0.3381
13945TIP3    H163326   1.314   3.996   3.883  0.1815 -0.5856  0.6036
13945TIP3    H263327   1.175   3.990   3.823  0.4464  0.5197 -0.1374
13946TIP3   OH263328   6.151   6.365   5.944  0.3528  0.2134 -0.3530
13946TIP3    H163329   6.181   6.282   5.907 -0.4938 -0.8100  1.1929
13946TIP3    H263330   6.140   6.423   5.868  1.4411 -0.9205 -1.3948
13947TIP3   OH263331   2.139   5.724   4.344  0.5463  0.7166 -0.3154
13947TIP3    H163332   2.082   5.797   4.323 -0.2104  0.1206 -0.3319
13947TIP3    H263333   2.111   5.653   4.287 -0.1534 -0.2614  1.2071
13948TIP3   OH263334   1.345   5.214   5.560  0.1888 -0.3282 -0.4135
13948TIP3    H163335   1.347   5.267   5.639 -0.8793  0.7402 -1.0914
13948TIP3    H263336   1.433   5.220   5.524  0.0056  1.1762 -0.6105
13949TIP3   OH263337   6.822   1.374  15.237 -0.1581 -0.1139 -0.4406
13949TIP3    H163338   6.845   1.464  15.263 -0.1674 -0.4589  0.7621
13949TIP3    H263339   6.727   1.377  15.223 -0.4845 -0.4306  1.6198
13950TIP3   OH263340   4.128   0.018   3.259  0.2587  0.7833  0.1149
13950TIP3    H163341   4.076  -0.018   3.332 -0.6418 -0.6300 -1.1761
13950TIP3    H263342   4.130   0.112   3.276 -1.2225  0.6598  1.1733
13951TIP3   OH263343   6.530   2.209   4.050  0.4759 -0.1547  0.2422
13951TIP3    H163344   6.624   2.190   4.054  0.5116 -0.4118 -1.4089
13951TIP3    H263345   6.488   2.123   4.055  0.3503 -0.0846  0.3943
13952TIP3   OH263346   1.333   4.920   3.238  0.8072 -0.0027  0.0584
13952TIP3    H163347   1.242   4.947   3.227  1.0087  0.6350 -0.0534
13952TIP3    H263348   1.328   4.827   3.260  0.1202  0.0720  0.2218
13953TIP3   OH263349   1.122   5.595   3.154 -0.1435 -0.4077  0.3666
13953TIP3    H163350   1.182   5.577   3.081 -0.2404  0.9053 -0.0471
13953TIP3    H263351   1.169   5.564   3.232  0.0879 -1.5345 -0.2157
13954TIP3   OH263352   0.257   4.874   3.486 -0.4604  0.2780 -0.2708
13954TIP3    H163353   0.303   4.883   3.403 -0.0118 -0.7357 -0.1352
13954TIP3    H263354   0.217   4.960   3.500 -1.2251  0.2106 -1.9231
13955TIP3   OH263355   1.992   4.862   5.676 -0.2651  0.5330  0.2582
13955TIP3    H163356   1.934   4.938   5.664  1.5157  2.0479  1.0245
13955TIP3    H263357   2.030   4.847   5.590 -2.2361 -0.8738 -0.4064
13956TIP3   OH263358   0.923   0.607   0.035 -0.5435 -0.1473 -0.2035
13956TIP3    H163359   0.906   0.633  -0.056 -2.9966 -0.0110  0.2585
13956TIP3    H263360   1.009   0.644   0.055 -0.8420  1.5208 -1.8485
13957TIP3   OH263361   5.296   1.844   4.945  0.2293 -0.6069 -0.1885
13957TIP3    H163362   5.224   1.788   4.973 -0.3857 -0.2919 -1.1159
13957TIP3    H263363   5.336   1.874   5.026 -1.9981  0.9121  0.3970
13958TIP3   OH263364   5.559   3.439   5.660  0.3358  0.7990  0.6542
13958TIP3    H163365   5.598   3.375   5.720  1.7828  1.9301  0.9488
13958TIP3    H263366   5.504   3.387   5.601  2.5830 -0.9068 -0.0071
13959TIP3   OH263367   3.660   4.901   4.823 -0.1188 -0.1945 -0.5222
13959TIP3    H163368   3.730   4.964   4.804  0.6948 -1.3698 -1.5210
13959TIP3    H263369   3.634   4.921   4.912 -0.5667  2.2053 -1.1526
13960TIP3   OH263370   0.676   3.001   1.569 -0.1035  0.0710  0.1763
13960TIP3    H163371   0.654   3.065   1.501 -0.4805 -0.7306 -0.4704
13960TIP3    H263372   0.644   2.918   1.534  0.7023 -0.5265  0.8416
13961TIP3   OH263373   2.536   5.874   2.199 -0.0383 -0.0426 -0.6237
13961TIP3    H163374   2.547   5.778   2.202 -1.5604 -0.2371 -0.9539
13961TIP3    H263375   2.482   5.889   2.122 -2.6149  0.8081  1.3049
13962TIP3   OH263376   2.096   4.030   3.417  0.5836  0.1529  0.4108
13962TIP3    H163377   2.066   3.955   3.365  0.8854  1.6852 -2.0240
13962TIP3    H263378   2.048   4.022   3.500 -2.4240 -0.5043 -1.3235
13963TIP3   OH263379   2.271   3.216   4.906  0.4222 -0.5652 -0.1005
13963TIP3    H163380   2.212   3.155   4.949  0.2897 -1.0924 -1.0047
13963TIP3    H263381   2.316   3.163   4.840  2.3254 -0.3106  0.9624
13964TIP3   OH263382   2.252   1.692   4.539 -0.2848  0.8733  0.0295
13964TIP3    H163383   2.247   1.614   4.594  1.3405  1.6439  1.3052
13964TIP3    H263384   2.168   1.736   4.553 -0.0197  0.8925  1.6536
13965TIP3   OH263385   5.817   1.307   1.671 -1.1482  0.3527  0.2606
13965TIP3    H163386   5.827   1.365   1.746  0.6952  0.9974 -0.4813
13965TIP3    H263387   5.905   1.276   1.652 -1.3463  1.3893 -2.5929
13966TIP3   OH263388   5.229   5.073  14.069  0.0095  0.6327 -0.6329
13966TIP3    H163389   5.232   4.985  14.033 -0.4489  1.0793 -1.7600
13966TIP3    H263390   5.164   5.068  14.139  0.3329 -0.0297 -0.3721
13967TIP3   OH263391   0.216   6.778  15.165 -0.2355 -0.3694  0.8902
13967TIP3    H163392   0.182   6.717  15.099  0.9771  0.5435 -0.6294
13967TIP3    H263393   0.302   6.743  15.189  1.2806  1.5875 -1.3214
13968TIP3   OH263394   5.559   0.102   2.910 -0.1848 -0.0383  0.1893
13968TIP3    H163395   5.605   0.019   2.892  0.9643  1.0033 -1.9088
13968TIP3    H263396   5.492   0.107   2.843 -1.0202  0.1804  1.0402
13969TIP3   OH263397   3.564   0.050   4.908  0.1574  0.4328 -0.3289
13969TIP3    H163398   3.519   0.039   4.824  0.0428 -1.0729 -0.0901
13969TIP3    H263399   3.619   0.127   4.896 -1.3196  1.3732 -1.1376
13970TIP3   OH263400   0.889   4.038   2.845 -0.0242 -0.1334  0.0103
13970TIP3    H163401   0.905   4.132   2.835  0.3250 -0.4154 -2.5611
13970TIP3    H263402   0.801   4.032   2.882  0.5853  1.2237  1.7349
13971TIP3   OH263403   5.040   4.631   3.319 -0.2227 -0.3213 -0.4150
13971TIP3    H163404   5.113   4.627   3.380  1.0520 -0.7137 -1.9534
13971TIP3    H263405   5.040   4.721   3.287 -1.8316  0.3187  1.2470
13972TIP3   OH263406   2.377   3.251  12.540 -0.4632  0.4918 -0.3181
13972TIP3    H163407   2.326   3.326  12.510 -0.5898  0.0313 -1.2754
13972TIP3    H263408   2.348   3.178  12.485  0.6562  0.0470 -0.3473
13973TIP3   OH263409   0.363   0.394   2.017 -0.3166  0.2483  0.6998
13973TIP3    H163410   0.426   0.402   2.088  0.6684  1.4250 -0.2893
13973TIP3    H263411   0.377   0.305   1.983 -0.5223 -0.1769  1.7074
13974TIP3   OH263412   0.149   3.311   5.290  0.3066  0.3440  0.1014
13974TIP3    H163413   0.072   3.268   5.255 -0.4862  1.5931  0.2842
13974TIP3    H263414   0.124   3.403   5.299  0.8608  0.2663  2.8925
13975TIP3   OH263415   2.670   2.990  15.398 -0.4737 -0.6465  0.4148
13975TIP3    H163416   2.633   2.997  15.310 -0.3993  2.8995  0.5982
13975TIP3    H263417   2.602   3.022  15.456  1.4770  2.4356  1.1029
13976TIP3   OH263418   3.707   0.284   4.836 -0.4701  0.3725 -0.1366
13976TIP3    H163419   3.787   0.236   4.816 -0.9815 -0.7232  0.4313
13976TIP3    H263420   3.737   0.372   4.861  0.5103  0.1199 -0.4120
13977TIP3   OH263421   7.197   6.901   4.793 -0.1656  0.0851  0.1470
13977TIP3    H163422   7.107   6.915   4.765 -0.7811 -1.1827  1.3821
13977TIP3    H263423   7.191   6.828   4.855  1.6870  0.1001  0.3699
13978TIP3   OH263424   2.782   1.438   0.503 -0.2563 -0.1476  0.4248
13978TIP3    H163425   2.815   1.517   0.546 -1.7252  1.6489 -1.6208
13978TIP3    H263426   2.689   1.435   0.526  0.4313 -3.1464  3.1644
13979TIP3   OH263427   1.898   2.063   1.961 -0.5274 -0.4111  0.1216
13979TIP3    H163428   1.984   2.035   1.928 -0.4663  0.4396 -0.4356
13979TIP3    H263429   1.917   2.095   2.050  0.0110  1.2945 -0.5866
13980TIP3   OH263430   3.868   1.220   2.234  0.4735  0.7306 -0.1712
13980TIP3    H163431   3.878   1.314   2.248  0.5921  0.6999 -0.0413
13980TIP3    H263432   3.934   1.181   2.292  0.4441  0.5700 -0.2477
13981TIP3   OH263433   0.475   0.261  14.378  0.4581 -0.1069 -0.1822
13981TIP3    H163434   0.408   0.220  14.432  0.4848  1.9363  1.4599
13981TIP3    H263435   0.427   0.318  14.317  0.6019  0.0516 -0.1504
13982TIP3   OH263436   0.153   0.609   3.882  0.3314 -0.3020 -0.3807
13982TIP3    H163437   0.063   0.580   3.867  0.3151 -0.4563  0.0196
13982TIP3    H263438   0.201   0.579   3.805  0.4011 -1.7562  0.2294
13983TIP3   OH263439   2.713   6.703   5.296  0.1093  0.2520  0.0335
13983TIP3    H163440   2.809   6.700   5.299  0.0985  0.9307  1.4267
13983TIP3    H263441   2.685   6.638   5.361 -0.3532  1.4320  1.0244
13984TIP3   OH263442   0.351   3.226   2.767  0.1262 -0.2985 -0.4510
13984TIP3    H163443   0.342   3.248   2.860 -1.0354 -0.7776 -0.4324
13984TIP3    H263444   0.265   3.249   2.730  1.4132  2.3243 -1.9188
13985TIP3   OH263445   2.085   5.905   5.074  0.0858  0.9940  0.4480
13985TIP3    H163446   2.178   5.881   5.082  0.4264  2.9319  2.8859
13985TIP3    H263447   2.040   5.844   5.133 -0.2038  0.1763 -0.5950
13986TIP3   OH263448   5.163   1.313   3.685 -0.0540  0.2649 -0.1427
13986TIP3    H163449   5.250   1.276   3.672  0.3145  1.3005 -0.7566
13986TIP3    H263450   5.120   1.302   3.600 -1.0811 -1.6286  0.5937
13987TIP3   OH263451   0.751   0.384  11.803  0.7027 -0.2169  0.1092
13987TIP3    H163452   0.685   0.328  11.844  0.3152  0.4672  0.4162
13987TIP3    H263453   0.748   0.359  11.710  0.7670 -0.9398  0.2956
13988TIP3   OH263454   0.129   5.412   2.351  0.0780 -0.3061 -0.0329
13988TIP3    H163455   0.209   5.426   2.300 -1.9509  0.7885 -3.0610
13988TIP3    H263456   0.101   5.323   2.328 -0.7851  0.1538 -0.8185
13989TIP3   OH263457   4.051   2.689   3.982  0.1626 -0.4287  0.2855
13989TIP3    H163458   3.988   2.750   4.021  0.6411  0.2288  0.0349
13989TIP3    H263459   4.003   2.650   3.908 -0.3182 -0.7524  0.7567
13990TIP3   OH263460   6.920   3.550   1.680  0.5342  0.0480  0.4480
13990TIP3    H163461   6.957   3.617   1.623  1.1131 -0.6152  0.0435
13990TIP3    H263462   6.852   3.508   1.627 -0.5422  0.9814  1.0458
13991TIP3   OH263463   0.178   1.154   4.312  0.0438  0.4027 -0.8123
13991TIP3    H163464   0.203   1.103   4.388 -0.0929  1.7612  0.1677
13991TIP3    H263465   0.249   1.140   4.249  1.0468  0.6800  0.2396
13992TIP3   OH263466   2.007   2.863   4.297  0.1658  0.5155  0.3645
13992TIP3    H163467   2.006   2.771   4.321  0.6006  0.5399  0.4815
13992TIP3    H263468   1.915   2.885   4.281  0.1612 -0.1568 -0.5419
13993TIP3   OH263469   4.968   6.027   0.152 -0.3675  0.2311  0.3156
13993TIP3    H163470   5.061   6.004   0.163 -0.1365  0.2655 -1.3896
13993TIP3    H263471   4.961   6.115   0.190  0.7661  1.0672 -1.3251
13994TIP3   OH263472   0.718   4.457   1.615  0.3573  0.2637  0.4746
13994TIP3    H163473   0.781   4.427   1.680 -1.5750 -0.2975  2.1437
13994TIP3    H263474   0.666   4.380   1.594  0.1806  0.7242 -0.8550
13995TIP3   OH263475   2.435   1.156   3.774  1.0315 -0.1093 -0.3848
13995TIP3    H163476   2.372   1.228   3.773  0.6232 -0.4555 -0.0227
13995TIP3    H263477   2.498   1.178   3.706  0.8593  0.5450 -0.3319
13996TIP3   OH263478   0.090   7.016   0.363  0.0330  0.3265  0.4927
13996TIP3    H163479   0.132   6.993   0.281 -1.7021  0.8899 -0.5719
13996TIP3    H263480   0.078   6.933   0.409  3.1097  0.2351  1.2383
13997TIP3   OH263481   1.456   5.798   2.628  0.1261  0.1261  0.0733
13997TIP3    H163482   1.413   5.878   2.597 -0.2182 -0.1178 -0.0843
13997TIP3    H263483   1.549   5.822   2.635  0.5023 -0.2902 -2.8557
13998TIP3   OH263484   4.404   0.712   2.733  0.2884  0.0404 -0.0998
13998TIP3    H163485   4.427   0.802   2.714 -0.2010 -0.0850 -1.3540
13998TIP3    H263486   4.338   0.718   2.802  2.9583  0.4480  2.4729
13999TIP3   OH263487   0.457   6.808   5.634 -0.1570 -0.1896  0.1134
13999TIP3    H163488   0.380   6.777   5.682 -0.7520 -0.5322 -1.0521
13999TIP3    H263489   0.421   6.861   5.563  0.7146  0.1629 -0.0655
14000TIP3   OH263490   0.365   4.724   0.253  0.3765  0.0491 -0.5966
14000TIP3    H163491   0.400   4.766   0.174 -0.3096  0.9028 -0.4571
14000TIP3    H263492   0.441   4.714   0.311  0.5175  1.3253 -0.5350
14001TIP3   OH263493   2.321   0.891   1.847 -0.1764  0.4573 -0.2367
14001TIP3    H163494   2.399   0.850   1.884  0.3691  1.8556  0.2247
14001TIP3    H263495   2.353   0.970   1.803 -1.1588  0.2837 -1.2995
14002TIP3   OH263496   1.214   6.557  13.428 -0.1354 -0.1988  0.2100
14002TIP3    H163497   1.284   6.613  13.462  0.7793 -3.2526  3.6710
14002TIP3    H263498   1.147   6.557  13.497 -1.9852 -0.1616 -1.5178
14003TIP3   OH263499   4.314   2.299   0.774  0.1872 -0.3226 -0.8095
14003TIP3    H163500   4.370   2.373   0.798 -1.8317  1.3480 -1.1711
14003TIP3    H263501   4.235   2.339   0.739 -2.0239 -2.6144  1.3845
14004TIP3   OH263502   1.757   0.186  13.467  0.1032  0.4445 -0.1577
14004TIP3    H163503   1.687   0.220  13.522  0.5136 -0.9419  1.2830
14004TIP3    H263504   1.718   0.176  13.380 -1.2608  0.4057  0.4552
14005TIP3   OH263505   4.768   6.842   1.470 -0.0175 -0.3971  0.3914
14005TIP3    H163506   4.794   6.929   1.439 -1.9744  0.4251  0.9456
14005TIP3    H263507   4.772   6.849   1.565 -0.2194 -0.8957  0.4374
14006TIP3   OH263508   4.144   1.919   2.789  0.3664 -0.1985  0.5007
14006TIP3    H163509   4.055   1.891   2.766  0.1914  1.5217 -1.0653
14006TIP3    H263510   4.193   1.912   2.708  1.2566  0.4245  0.9751
14007TIP3   OH263511   3.291   1.040   3.019 -0.2820  0.1471 -0.0532
14007TIP3    H163512   3.317   0.996   2.939  2.5514 -0.5687  1.1981
14007TIP3    H263513   3.352   1.113   3.028 -1.5042  1.1186  0.7231
14008TIP3   OH263514   3.345   0.049   2.536  0.3492 -0.3304  0.3563
14008TIP3    H163515   3.306   0.095   2.462  0.0634  0.1307  0.7860
14008TIP3    H263516   3.419   0.104   2.562  0.7290 -0.7294  0.1224
14009TIP3   OH263517   5.980   3.957   3.320  0.9210  0.2170  0.3223
14009TIP3    H163518   6.071   3.933   3.302  0.9470  1.5808 -1.4866
14009TIP3    H263519   5.977   4.052   3.309 -0.3444  0.4203  2.1511
14010TIP3   OH263520   2.363   2.851   3.478  0.3394  0.7901  0.3866
14010TIP3    H163521   2.300   2.816   3.415 -0.9537  0.2476  1.9611
14010TIP3    H263522   2.315   2.917   3.527  0.6775 -0.3473  2.2899
14011TIP3   OH263523   1.027   4.922   5.136 -0.1524 -0.1953  0.5552
14011TIP3    H163524   1.062   4.888   5.218  0.6017 -0.4723  0.1218
14011TIP3    H263525   1.046   5.016   5.139  2.2270 -0.6009 -0.4461
14012TIP3   OH263526   4.011   1.959   1.714 -0.6974  0.1368 -0.3456
14012TIP3    H163527   4.038   2.036   1.664  2.1901  0.0005  0.9170
14012TIP3    H263528   4.073   1.891   1.688  0.6799 -0.0153  3.1099
14013TIP3   OH263529   1.614   4.360   2.793  0.1950  0.2973  0.6133
14013TIP3    H163530   1.547   4.340   2.728 -0.6638  1.7803  1.0211
14013TIP3    H263531   1.691   4.310   2.764 -0.3760  0.3983 -1.1503
14014TIP3   OH263532   5.335   3.273   1.546 -0.0760 -0.1290  1.0288
14014TIP3    H163533   5.297   3.342   1.600  0.3928  1.5977 -0.8097
14014TIP3    H263534   5.426   3.299   1.534 -0.0553 -0.7332 -0.2063
14015TIP3   OH263535   4.052   7.147   3.522 -0.3142  0.1226 -0.5736
14015TIP3    H163536   4.134   7.181   3.557 -2.5669  1.2765  3.9267
14015TIP3    H263537   4.057   7.053   3.536  0.7227  0.0219 -1.5072
14016TIP3   OH263538   4.663   0.004   0.285 -0.0298  0.2126  0.0004
14016TIP3    H163539   4.719  -0.019   0.358  0.1955 -0.0151 -0.2464
14016TIP3    H263540   4.593  -0.061   0.287 -0.7712  1.0163  0.8441
14017TIP3   OH263541   1.817   6.113   1.744 -0.7625 -0.1644  0.1373
14017TIP3    H163542   1.867   6.080   1.669 -0.2948 -2.1429  1.2870
14017TIP3    H263543   1.726   6.101   1.719 -0.6571  1.1595 -0.9603
14018TIP3   OH263544   5.097   6.228   4.239  0.1860 -0.4393  0.0979
14018TIP3    H163545   5.166   6.168   4.211 -1.5339 -2.3302 -0.2281
14018TIP3    H263546   5.089   6.213   4.333 -0.8903 -1.4257 -0.1445
14019TIP3   OH263547   3.254   4.479   3.052  0.1649 -0.1523  0.2792
14019TIP3    H163548   3.225   4.537   2.983  0.4955 -0.0055  0.2633
14019TIP3    H263549   3.341   4.450   3.025  1.1494  1.4882  1.5965
14020TIP3   OH263550   5.764   6.343   1.565 -0.5575 -0.1789  0.0429
14020TIP3    H163551   5.768   6.409   1.634  2.9900 -1.8299  1.5703
14020TIP3    H263552   5.821   6.378   1.496 -2.4957  0.5398 -1.2132
14021TIP3   OH263553   6.241   1.458   3.162 -0.0292 -0.0431  0.0207
14021TIP3    H163554   6.206   1.519   3.098 -4.3269 -1.4642  0.8771
14021TIP3    H263555   6.268   1.514   3.236  1.6253  1.2562 -1.5128
14022TIP3   OH263556   6.257   3.023   3.921 -0.4921  0.7022  0.7724
14022TIP3    H163557   6.346   3.056   3.906  0.1415 -1.7512 -1.2048
14022TIP3    H263558   6.204   3.063   3.852 -0.3222 -0.0100  0.2162
14023TIP3   OH263559   5.951   3.675   2.857  0.1303  0.3454  0.1334
14023TIP3    H163560   5.989   3.734   2.923  0.5359  0.4399 -0.1839
14023TIP3    H263561   5.973   3.716   2.773  2.2359 -1.3556 -0.1631
14024TIP3   OH263562   3.517   6.329  15.272 -0.1751  0.3780 -0.5583
14024TIP3    H163563   3.431   6.316  15.233 -0.5655  0.3232  0.3004
14024TIP3    H263564   3.500   6.331  15.366  0.5744  1.8191 -0.4482
14025TIP3   OH263565   3.880   1.380   0.562  0.3655  0.2124  0.1819
14025TIP3    H163566   3.925   1.457   0.596 -0.6948  0.5094  0.9448
14025TIP3    H263567   3.793   1.384   0.602 -0.0686 -0.7754 -0.6478
14026TIP3   OH263568   5.665   1.308   2.171 -0.1293  0.1082 -0.0597
14026TIP3    H163569   5.580   1.319   2.129 -0.2426 -0.5361 -0.0043
14026TIP3    H263570   5.706   1.236   2.123  0.4497  0.5259 -0.1940
14027TIP3   OH263571   2.719   3.126   3.466 -0.0806  0.3193 -0.1557
14027TIP3    H163572   2.667   3.052   3.497  2.3853 -2.0358 -1.4269
14027TIP3    H263573   2.689   3.140   3.376 -0.5961  0.9543  0.1073
14028TIP3   OH263574   3.142   6.586  14.893 -0.1673  0.1599  0.2830
14028TIP3    H163575   3.223   6.635  14.908 -0.0231  0.1170 -0.3497
14028TIP3    H263576   3.072   6.645  14.922 -0.0765  1.2437 -1.6073
14029TIP3   OH263577   5.816   0.939   2.880  0.7623 -0.0761 -0.3237
14029TIP3    H163578   5.879   0.868   2.891  0.0976 -0.5270  0.5620
14029TIP3    H263579   5.869   1.013   2.849  1.4589 -0.9418 -1.2306
14030TIP3   OH263580   3.862   3.013  15.239 -0.5558  0.4582  0.0558
14030TIP3    H163581   3.816   3.077  15.294 -0.9787  1.2073 -1.1529
14030TIP3    H263582   3.795   2.951  15.213 -0.5782  0.7036 -0.4772
14031TIP3   OH263583   5.679   6.421  15.466  0.2325 -0.3438 -0.0172
14031TIP3    H163584   5.640   6.386  15.546 -0.4987  0.0308 -0.2011
14031TIP3    H263585   5.617   6.489  15.438  0.2812 -0.7485 -1.1108
14032TIP3   OH263586   1.017   5.909   5.210 -0.0370  0.1003  0.2370
14032TIP3    H163587   1.031   5.985   5.268  0.2844 -1.9361  2.9617
14032TIP3    H263588   0.924   5.888   5.220  0.6278 -2.1067  2.5359
14033TIP3   OH263589   3.885   2.838   2.210 -0.9535 -0.1638 -0.0667
14033TIP3    H163590   3.854   2.787   2.135 -0.9985 -1.7346  0.9848
14033TIP3    H263591   3.911   2.922   2.173  0.1181 -1.3139 -2.0307
14034TIP3   OH263592   2.337   0.913   3.802  0.4549  1.0356  0.7285
14034TIP3    H163593   2.326   0.963   3.883  1.5818  2.4533  0.0325
14034TIP3    H263594   2.371   0.976   3.739  1.2785 -0.4585 -0.3675
14035TIP3   OH263595   2.099   1.379   2.129 -0.4442 -0.3531  0.3415
14035TIP3    H163596   2.129   1.338   2.210  2.7785 -0.1645 -0.6992
14035TIP3    H263597   2.032   1.441   2.158  0.2249 -0.7138  2.8047
14036TIP3   OH263598   4.320   1.746   4.647 -0.5473 -0.1616  0.3983
14036TIP3    H163599   4.323   1.651   4.640  0.8550 -0.1441  0.7273
14036TIP3    H263600   4.233   1.770   4.614 -1.2724 -1.6310  1.2243
14037TIP3   OH263601   7.077   6.563   4.003 -0.2867  0.0404 -0.1271
14037TIP3    H163602   7.066   6.652   4.037 -0.4730  0.6819 -1.7794
14037TIP3    H263603   6.995   6.519   4.026  0.1082  0.0559  1.3569
14038TIP3   OH263604   5.526   2.672   5.123  0.3312 -0.5723 -0.3178
14038TIP3    H163605   5.565   2.589   5.152 -1.9030 -1.5758 -0.0437
14038TIP3    H263606   5.484   2.650   5.040  1.4044  0.7995 -1.2464
14039TIP3   OH263607   5.471   3.528   1.820  0.4378 -0.0396  0.0262
14039TIP3    H163608   5.450   3.621   1.816 -0.5271 -0.2165  0.6968
14039TIP3    H263609   5.405   3.492   1.879  0.2820 -1.2913 -0.8937
14040TIP3   OH263610   2.855   3.910   4.736  0.5266  0.0861 -0.1645
14040TIP3    H163611   2.873   3.999   4.766  0.5422  0.3023 -0.7977
14040TIP3    H263612   2.808   3.922   4.653 -1.9265 -0.4423  1.0865
14041TIP3   OH263613   5.687   6.378   0.382  0.2831 -0.1398 -0.0222
14041TIP3    H163614   5.671   6.469   0.357 -0.6081  0.1142  1.4076
14041TIP3    H263615   5.779   6.362   0.362 -0.0740  0.4319 -2.2357
14042TIP3   OH263616   4.326   7.008   1.888 -0.2216  0.5715  0.5155
14042TIP3    H163617   4.319   6.987   1.795  0.9533 -0.3594  0.6311
14042TIP3    H263618   4.241   7.046   1.910 -0.7073  0.2785 -0.7989
14043TIP3   OH263619   5.713   6.082   1.858  0.2376 -0.1369  0.1181
14043TIP3    H163620   5.727   6.020   1.930 -1.5619  0.0219  0.6492
14043TIP3    H263621   5.770   6.051   1.788 -1.9841 -3.5329 -0.3101
14044TIP3   OH263622   2.803   6.884   6.040 -0.4026  0.6261  0.4033
14044TIP3    H163623   2.837   6.849   6.122 -2.7676 -0.1688  1.0553
14044TIP3    H263624   2.709   6.895   6.054 -0.7962  0.8276 -2.0720
14045TIP3   OH263625   2.276   3.119  15.296  0.4654  1.0042 -0.2701
14045TIP3    H163626   2.188   3.143  15.325  0.9278  0.3203  1.7876
14045TIP3    H263627   2.291   3.033  15.333  0.8740 -0.2332 -3.1325
14046TIP3   OH263628   3.685   2.493   4.465  0.6136  0.4424 -0.1453
14046TIP3    H163629   3.773   2.515   4.495  0.3438 -0.3768  1.2960
14046TIP3    H263630   3.658   2.419   4.521 -1.6412  1.7576  0.5820
14047TIP3   OH263631   6.851   3.982   4.553 -0.7081 -0.0831  0.0642
14047TIP3    H163632   6.801   4.059   4.527 -0.0833 -0.4628 -2.3863
14047TIP3    H263633   6.811   3.910   4.505  0.0490 -0.9522  0.7109
14048TIP3   OH263634   6.109   6.073   0.619  0.0924 -0.5756  0.2089
14048TIP3    H163635   6.095   6.033   0.705 -1.4321 -0.5607 -0.0252
14048TIP3    H263636   6.048   6.147   0.616  2.1796  1.1981  0.2398
14049TIP3   OH263637   3.826   2.702   4.161 -0.3739 -0.4708 -0.0404
14049TIP3    H163638   3.767   2.698   4.236  0.1207 -2.1603  0.2806
14049TIP3    H263639   3.877   2.783   4.174 -1.2563 -0.0260  0.6930
14050TIP3   OH263640   3.958   1.587   2.551  0.5142  0.6385  0.0880
14050TIP3    H163641   3.957   1.650   2.623  1.0841  1.2239 -0.4201
14050TIP3    H263642   4.037   1.535   2.566  1.5247  1.8366 -1.0463
14051TIP3   OH263643   4.167   4.950   3.660 -0.4365  0.3228  0.2269
14051TIP3    H163644   4.076   4.943   3.633 -0.8311  0.0571  1.5950
14051TIP3    H263645   4.217   4.931   3.581 -1.5444 -2.1441  0.0580
14052TIP3   OH263646   3.821   2.828   3.696 -0.3656 -0.0128  0.0513
14052TIP3    H163647   3.877   2.751   3.705  1.7739  1.4714 -0.1279
14052TIP3    H263648   3.771   2.831   3.778  1.3523 -0.1862  1.1275
14053TIP3   OH263649   3.306   1.474   3.309 -0.0374  0.3891  0.0664
14053TIP3    H163650   3.393   1.480   3.269  0.1419  2.3807  0.7255
14053TIP3    H263651   3.282   1.381   3.299  0.9782  0.3626 -2.5322
14054TIP3   OH263652   4.077   4.220   1.474 -0.6227 -0.3667  0.1629
14054TIP3    H163653   4.078   4.252   1.383  1.2654 -0.3676  0.1689
14054TIP3    H263654   4.100   4.128   1.467 -1.2173 -0.5502  0.5951
14055TIP3   OH263655   4.970   3.721   0.077  0.4160  0.4409 -0.1672
14055TIP3    H163656   4.927   3.736   0.161 -1.5976  0.1606 -1.1235
14055TIP3    H263657   5.039   3.657   0.096  0.3224  0.7989  1.3756
14056TIP3   OH263658   1.552   3.879   1.101 -0.2686  0.4780  0.4535
14056TIP3    H163659   1.572   3.972   1.111  0.5144  0.1889  1.7287
14056TIP3    H263660   1.632   3.842   1.064  0.2338 -0.0370  1.9896
14057TIP3   OH263661   3.888   7.074   2.092 -0.0508  0.4462 -0.2443
14057TIP3    H163662   3.843   7.134   2.151 -1.0571  0.7924 -1.3399
14057TIP3    H263663   3.817   7.028   2.046  0.7079  0.9730 -1.9659
14058TIP3   OH263664   7.121   0.922   0.360 -0.1993 -0.4587 -0.2379
14058TIP3    H163665   7.094   0.830   0.351 -0.5754 -0.5437  1.5825
14058TIP3    H263666   7.068   0.956   0.431  1.3950  0.6012  0.4727
14059TIP3   OH263667   0.394   0.053   3.734 -0.4743  0.2424  0.0301
14059TIP3    H163668   0.482   0.023   3.755  0.0630  1.9546  0.3044
14059TIP3    H263669   0.347   0.054   3.817 -0.5525 -0.0222 -0.0105
14060TIP3   OH263670   2.568   0.376   4.924 -0.1443 -0.0681  0.1669
14060TIP3    H163671   2.548   0.459   4.966 -0.7484 -0.4739  0.7016
14060TIP3    H263672   2.599   0.320   4.996  2.3706  0.3532 -0.5454
14061TIP3   OH263673   0.732   3.837   4.214  0.0794 -0.0913  0.3535
14061TIP3    H163674   0.790   3.863   4.142  0.6205 -1.2173  0.3674
14061TIP3    H263675   0.646   3.828   4.174  0.1097  0.6063  0.1231
14062TIP3   OH263676   3.819   0.613   3.479 -0.0303 -0.2961  0.0023
14062TIP3    H163677   3.738   0.663   3.495  1.0064  2.0855 -1.9474
14062TIP3    H263678   3.845   0.583   3.566 -1.5167  1.2660  1.0356
14063TIP3   OH263679   2.952   7.068   3.478  0.0497 -0.2257  0.1485
14063TIP3    H163680   2.947   6.973   3.470  0.6691 -0.4201  1.9655
14063TIP3    H263681   2.863   7.095   3.501 -0.1626 -0.3348 -0.5187
14064TIP3   OH263682   0.894   6.920  14.812 -0.3658 -0.5386 -0.1790
14064TIP3    H163683   0.959   6.869  14.764 -0.7314 -3.3417  2.1599
14064TIP3    H263684   0.815   6.916  14.758  0.4361  0.0866 -1.4229
14065TIP3   OH263685   1.850   5.905   4.715  0.0912 -0.2130  0.2053
14065TIP3    H163686   1.905   5.980   4.737 -0.6446  0.2146  0.6079
14065TIP3    H263687   1.841   5.857   4.798  1.1256 -1.1349 -0.1938
14066TIP3   OH263688   4.508   1.156   3.974 -0.3466  0.3018 -0.2491
14066TIP3    H163689   4.434   1.161   4.035 -0.5515  1.1143 -0.5608
14066TIP3    H263690   4.572   1.219   4.009 -0.7046  1.2022 -1.1926
14067TIP3   OH263691   3.632   6.730   3.142  0.0330 -0.6686 -0.0302
14067TIP3    H163692   3.595   6.723   3.054 -2.2085 -0.8444  0.8952
14067TIP3    H263693   3.705   6.792   3.133 -2.4606  2.1799 -1.3116
14068TIP3   OH263694   5.926   1.913   3.479 -0.1285 -0.2832 -0.0540
14068TIP3    H163695   5.923   2.006   3.454 -0.7875  0.3371  2.2327
14068TIP3    H263696   6.018   1.895   3.495 -0.1739  0.4426  1.0985
14069TIP3   OH263697   3.286   6.231   4.192 -0.1562  0.1572  0.1764
14069TIP3    H163698   3.218   6.179   4.149  2.0956 -1.0801 -2.0296
14069TIP3    H263699   3.346   6.166   4.228  1.2025  1.2209 -0.1415
14070TIP3   OH263700   5.669   1.482   0.275 -0.1879 -0.2008 -0.4211
14070TIP3    H163701   5.648   1.496   0.367  0.9608  0.0469 -0.1981
14070TIP3    H263702   5.607   1.414   0.247 -0.2973 -0.5463  0.6259
14071TIP3   OH263703   5.263   4.388   0.993  0.7586 -0.4689 -0.0823
14071TIP3    H163704   5.176   4.398   0.954 -0.0474 -1.5124  1.4252
14071TIP3    H263705   5.302   4.316   0.945 -0.4109 -2.0595  1.3011
14072TIP3   OH263706   5.050   1.542   3.852  0.0477  0.0509 -0.3104
14072TIP3    H163707   5.108   1.467   3.844 -0.0363 -0.2579  1.6799
14072TIP3    H263708   5.108   1.618   3.847  0.1281 -0.1302 -2.3626
14073TIP3   OH263709   5.514   6.748   2.111 -0.2161  0.0484 -0.0711
14073TIP3    H163710   5.460   6.800   2.052  1.5424 -0.8545 -2.5676
14073TIP3    H263711   5.485   6.658   2.098 -1.7036  0.0871  2.5576
14074TIP3   OH263712   3.733   2.316   0.746 -0.2385 -0.7421  0.1732
14074TIP3    H163713   3.801   2.249   0.759  0.4079  0.1057  1.2742
14074TIP3    H263714   3.772   2.379   0.686 -1.6764 -2.4698 -2.6876
14075TIP3   OH263715   2.504   0.039   4.689 -0.3042  0.1033  0.1436
14075TIP3    H163716   2.411   0.058   4.688 -0.5403 -1.0165  0.2142
14075TIP3    H263717   2.533   0.063   4.777 -0.6718 -0.1951  0.3498
14076TIP3   OH263718   0.677   1.753   3.641  0.2256 -0.1541  0.0496
14076TIP3    H163719   0.695   1.742   3.734  1.7590  0.4936 -0.1623
14076TIP3    H263720   0.741   1.696   3.597 -1.4842 -1.6512 -0.5755
14077TIP3   OH263721   2.765   6.842   0.417  0.2057 -0.4446  0.3767
14077TIP3    H163722   2.713   6.906   0.465  1.3402  0.1843  0.7916
14077TIP3    H263723   2.784   6.885   0.334 -0.6876 -1.0322 -0.1420
14078TIP3   OH263724   5.764   0.933   4.431 -0.0530 -0.6388 -0.3698
14078TIP3    H163725   5.741   0.911   4.521 -2.0740  0.1019 -0.6761
14078TIP3    H263726   5.759   0.850   4.384 -2.3437 -0.5034 -0.4426
14079TIP3   OH263727   5.214   0.275   3.480  0.3288  0.5091 -0.5881
14079TIP3    H163728   5.287   0.215   3.467 -1.2297 -1.9848  1.5718
14079TIP3    H263729   5.158   0.231   3.545 -2.2227  3.1014 -0.9122
14080TIP3   OH263730   1.316   5.093   1.769 -0.0751 -0.1690 -0.7402
14080TIP3    H163731   1.242   5.104   1.709 -1.3906  0.0041  0.8747
14080TIP3    H263732   1.293   5.146   1.845  2.8258  1.8497 -1.1554
14081TIP3   OH263733   3.300   0.524   1.866  0.0430 -0.2684  0.3037
14081TIP3    H163734   3.306   0.467   1.944 -0.2684  0.1587  0.6410
14081TIP3    H263735   3.391   0.540   1.842  0.1808  1.0226  1.6260
14082TIP3   OH263736   6.533   2.382  13.526 -0.7606 -0.2305 -0.1204
14082TIP3    H163737   6.499   2.372  13.437 -0.6508 -0.0907 -0.1783
14082TIP3    H263738   6.474   2.446  13.567  0.5660  1.4570 -0.8172
14083TIP3   OH263739   5.760   0.812  13.215 -0.7991 -0.2273 -0.2623
14083TIP3    H163740   5.698   0.739  13.220 -0.3162 -0.7240 -1.4080
14083TIP3    H263741   5.715   0.885  13.258 -1.2763 -1.1977  0.9207
14084TIP3   OH263742   2.445   5.091   1.739  0.5230  0.1736  0.7420
14084TIP3    H163743   2.398   5.162   1.783  0.6132  0.1726  0.8415
14084TIP3    H263744   2.509   5.061   1.804  0.0283 -0.4554  0.9500
14085TIP3   OH263745   1.399   5.813   1.979  0.0523  0.5353  0.5185
14085TIP3    H163746   1.344   5.815   2.057 -0.9967  0.9431 -0.2222
14085TIP3    H263747   1.420   5.905   1.962 -2.3351  0.7383 -1.4984
14086TIP3   OH263748   0.092   7.139   2.898  0.0068 -0.3959 -0.2028
14086TIP3    H163749   0.123   7.169   2.813  0.5972  2.4161  0.9222
14086TIP3    H263750   0.170   7.141   2.954 -0.5311 -1.4333  0.5869
14087TIP3   OH263751   5.595   4.879   4.678  0.0286  0.0339  0.1422
14087TIP3    H163752   5.657   4.934   4.725  0.0526  0.6840 -0.6341
14087TIP3    H263753   5.648   4.829   4.616  0.2536 -2.3371  2.1756
14088TIP3   OH263754   4.190   3.979   1.476  0.1539 -0.2281 -0.3499
14088TIP3    H163755   4.117   3.935   1.520  0.2320  0.3672  0.3883
14088TIP3    H263756   4.261   3.977   1.540  0.6470 -0.3929 -0.8963
14089TIP3   OH263757   1.055   2.908   3.027  0.1867  0.1975  0.1408
14089TIP3    H163758   1.055   2.891   3.121  0.5565  0.1431  0.1321
14089TIP3    H263759   1.140   2.949   3.010  0.5097 -0.6632 -0.3303
14090TIP3   OH263760   5.367   6.478   2.173  0.3012 -0.4251  0.4906
14090TIP3    H163761   5.313   6.528   2.234  0.8227  1.4899 -0.5936
14090TIP3    H263762   5.305   6.439   2.112  0.0457  0.6539  0.0582
14091TIP3   OH263763   0.278   4.346   1.555  0.3029  0.1404  0.0862
14091TIP3    H163764   0.208   4.382   1.610  0.8440 -1.7377  2.0920
14091TIP3    H263765   0.356   4.349   1.611  1.1223 -0.7888 -0.9845
14092TIP3   OH263766   4.488   1.078   1.486  0.5185 -0.6595 -0.4311
14092TIP3    H163767   4.440   1.058   1.406 -0.2157 -0.3521 -0.0743
14092TIP3    H263768   4.575   1.106   1.456  1.0310 -2.7486 -1.0161
14093TIP3   OH263769   2.169   4.799   0.770  0.0220 -0.6834 -0.1254
14093TIP3    H163770   2.119   4.743   0.710  0.3965 -0.4115 -0.6947
14093TIP3    H263771   2.223   4.739   0.820 -0.9002 -0.9853  0.5215
14094TIP3   OH263772   6.429   0.705  14.780 -0.2140 -0.8562  0.1650
14094TIP3    H163773   6.516   0.732  14.810  0.2823 -0.3287 -1.6696
14094TIP3    H263774   6.388   0.785  14.749 -1.7633 -0.9373  1.9472
14095TIP3   OH263775   3.417   6.869   2.264 -0.1201  0.3699  0.3596
14095TIP3    H163776   3.490   6.874   2.201  0.5580 -0.7899  1.0441
14095TIP3    H263777   3.447   6.921   2.339  0.4409 -0.9522  1.0632
14096TIP3   OH263778   2.897   3.983   0.515  0.9496 -0.1399  0.4079
14096TIP3    H163779   2.952   4.040   0.568 -0.1103  0.0554  1.3008
14096TIP3    H263780   2.822   3.962   0.570  1.0968 -2.0544 -0.0571
14097TIP3   OH263781   2.080   4.257   1.245  0.1243  0.0429 -0.1941
14097TIP3    H163782   2.064   4.239   1.337  0.0290  3.5062  0.5361
14097TIP3    H263783   2.002   4.224   1.200 -0.3573 -0.5704  1.0739
14098TIP3   OH263784   5.036   1.046   0.520 -0.0333 -0.3535 -0.6795
14098TIP3    H163785   5.131   1.050   0.516  0.0791 -0.2934  1.4715
14098TIP3    H263786   5.014   1.068   0.611 -2.0762 -0.6888 -1.0523
14099TIP3   OH263787   5.903   0.401   4.038 -0.4879 -0.0040 -0.3098
14099TIP3    H163788   5.928   0.329   4.096 -4.2553 -1.5675 -0.5307
14099TIP3    H263789   5.976   0.408   3.976  0.5937 -2.6432  0.6012
14100TIP3   OH263790   3.424   3.993   5.258  0.0991  0.9220 -0.1746
14100TIP3    H163791   3.447   4.085   5.251 -0.0624  0.9716 -0.0524
14100TIP3    H263792   3.508   3.947   5.255  0.1687  1.0637 -0.3817
14101TIP3   OH263793   5.074   2.180   5.441  0.2795  0.0310 -0.1130
14101TIP3    H163794   5.048   2.272   5.432  0.1287 -0.1835 -2.1595
14101TIP3    H263795   5.121   2.176   5.524 -1.8172  1.4572  1.1936
14102TIP3   OH263796   5.490   6.292   4.575 -0.6677  0.2002 -0.0542
14102TIP3    H163797   5.495   6.284   4.670 -1.0031  2.1457  0.1377
14102TIP3    H263798   5.457   6.380   4.559 -0.6079 -0.0893 -1.9840
14103TIP3   OH263799   6.149   1.075   3.569  0.6163 -0.2357 -0.2032
14103TIP3    H163800   6.173   0.984   3.586 -1.5015 -0.6823  0.5634
14103TIP3    H263801   6.148   1.117   3.655  0.8625  0.3314 -0.4732
14104TIP3   OH263802   4.316   2.607   5.169 -0.3218  0.4106  0.2548
14104TIP3    H163803   4.225   2.607   5.197  0.0035 -0.2335  1.3691
14104TIP3    H263804   4.315   2.566   5.083 -1.0914  0.4799  0.2316
14105TIP3   OH263805   4.783   2.853   3.659  0.5543  0.0833 -0.3085
14105TIP3    H163806   4.850   2.872   3.594  0.6026 -0.5767 -0.4571
14105TIP3    H263807   4.710   2.910   3.635  0.8904  0.4646 -0.4264
14106TIP3   OH263808   7.030   5.561   4.792 -0.2722  0.5751 -0.0200
14106TIP3    H163809   7.027   5.467   4.779 -1.2452  0.4254  1.1568
14106TIP3    H263810   7.111   5.578   4.839  0.6935  0.5206 -1.6462
14107TIP3   OH263811   4.638   2.607   2.567  0.2823  0.2942  0.5232
14107TIP3    H163812   4.646   2.661   2.489  1.8207 -1.4466 -0.5851
14107TIP3    H263813   4.545   2.587   2.574 -0.1448  2.1956  0.3588
14108TIP3   OH263814   6.908   4.755   0.852  0.4095  0.6787  0.5271
14108TIP3    H163815   6.979   4.796   0.802  0.9343 -0.0206  0.6842
14108TIP3    H263816   6.920   4.661   0.837  0.1291  0.5042  1.3860
14109TIP3   OH263817   3.508   1.677   1.227 -0.5629 -0.0578  0.5912
14109TIP3    H163818   3.418   1.646   1.219 -1.0124  0.9519  1.5811
14109TIP3    H263819   3.556   1.631   1.158 -1.3258 -2.4890  1.6134
14110TIP3   OH263820   2.596   0.514   3.302  0.5476  0.1639  0.3041
14110TIP3    H163821   2.561   0.494   3.389 -0.0795 -0.1351 -0.0107
14110TIP3    H263822   2.652   0.440   3.280 -1.3577 -1.0651 -0.6395
14111TIP3   OH263823   4.159   1.468   4.008 -0.1786 -0.2407 -0.4952
14111TIP3    H163824   4.108   1.490   3.931  0.8889  0.0344 -1.1340
14111TIP3    H263825   4.122   1.521   4.078 -1.0210 -0.3473 -0.8540
14112TIP3   OH263826   1.159   7.121   3.108  0.1658  0.0397 -0.1208
14112TIP3    H163827   1.129   7.032   3.126  1.0614 -0.6800 -2.1367
14112TIP3    H263828   1.236   7.131   3.163  0.0822 -0.4299  0.0886
14113TIP3   OH263829   6.237   7.150   2.826 -0.1972  0.0647 -0.3280
14113TIP3    H163830   6.200   7.229   2.786 -0.3183 -0.7113 -1.7900
14113TIP3    H263831   6.321   7.179   2.861 -0.1345  0.8035 -1.0617
14114TIP3   OH263832   1.826   5.317   3.634  0.7720 -0.2413  0.0594
14114TIP3    H163833   1.879   5.355   3.564  0.6068  1.0446  0.6197
14114TIP3    H263834   1.790   5.393   3.681  1.3251 -1.0854  1.8806
14115TIP3   OH263835   1.769   6.103   4.175 -0.5535  0.5145  0.4826
14115TIP3    H163836   1.674   6.107   4.188 -0.2476  0.3989  2.8485
14115TIP3    H263837   1.780   6.041   4.103 -2.2301  0.1355  0.5232
14116TIP3   OH263838   6.302   3.516   5.412 -0.0918 -0.3999  0.6540
14116TIP3    H163839   6.276   3.541   5.323 -2.6857 -3.2394  0.5551
14116TIP3    H263840   6.255   3.579   5.468  0.1959  0.3204  0.1013
14117TIP3   OH263841   4.403   3.413   3.710 -0.2130 -0.7762  0.6356
14117TIP3    H163842   4.343   3.345   3.680 -2.0165  1.2592 -0.4825
14117TIP3    H263843   4.348   3.490   3.722  2.3044  1.4061 -1.2839
14118TIP3   OH263844   4.028   1.507   1.492  0.3805 -0.5331 -0.7272
14118TIP3    H163845   3.984   1.442   1.437  0.6832 -0.2954 -1.2492
14118TIP3    H263846   4.008   1.479   1.582  2.4718 -2.7269 -0.8902
14119TIP3   OH263847   3.897   2.278   4.558 -0.3964  0.0548 -0.7037
14119TIP3    H163848   3.948   2.210   4.603 -2.1226 -2.3095 -2.1853
14119TIP3    H263849   3.811   2.274   4.599 -0.4905  1.4159 -0.7611
14120TIP3   OH263850   0.889   1.440   1.013  0.1332  0.0069 -0.0603
14120TIP3    H163851   0.844   1.518   0.981  1.3902  1.6129  2.0009
14120TIP3    H263852   0.980   1.453   0.989  0.7143  0.1875  2.1388
14121TIP3   OH263853   5.074   3.299   4.410 -0.3384 -0.4911  0.0695
14121TIP3    H163854   5.078   3.217   4.362 -1.9636 -0.5503  0.0012
14121TIP3    H263855   5.160   3.340   4.396 -0.3748 -1.0503 -1.8996
14122TIP3   OH263856   1.521   5.381   5.199 -0.1643 -0.4774 -0.2794
14122TIP3    H163857   1.439   5.429   5.209  0.6495  1.1371 -1.2770
14122TIP3    H263858   1.525   5.324   5.276 -2.3792 -0.8283 -0.4072
14123TIP3   OH263859   6.387   1.399   2.562  0.0947  0.0305  0.2102
14123TIP3    H163860   6.446   1.458   2.609 -1.2271 -0.3986  2.4823
14123TIP3    H263861   6.330   1.457   2.511 -0.2619  0.6461  1.3080
14124TIP3   OH263862   5.478   4.013   1.770 -0.5011 -0.5411  0.0630
14124TIP3    H163863   5.503   4.097   1.730 -1.5887 -0.1587  0.1616
14124TIP3    H263864   5.542   4.000   1.840 -0.6959  0.5085  0.4464
14125TIP3   OH263865   5.648   1.907   3.548 -0.5802 -0.1296  0.4653
14125TIP3    H163866   5.735   1.870   3.536 -0.4768  0.6435 -1.3534
14125TIP3    H263867   5.612   1.860   3.623 -0.0892 -3.2601 -1.1650
14126TIP3   OH263868   5.464   6.578   3.996  0.9870  0.1814  0.1643
14126TIP3    H163869   5.443   6.594   3.903  1.8387  1.3562  0.1655
14126TIP3    H263870   5.463   6.665   4.036  0.0142 -0.3802  1.4073
14127TIP3   OH263871   3.340   1.434   1.404 -0.2035  0.2159  0.2701
14127TIP3    H163872   3.390   1.494   1.459  0.2983  0.4157 -0.3970
14127TIP3    H263873   3.278   1.490   1.358 -0.3546  0.1044  0.3391
14128TIP3   OH263874   3.613   0.749   4.523 -0.1605 -0.1101 -0.0860
14128TIP3    H163875   3.603   0.686   4.452  0.1556 -3.2502  2.5322
14128TIP3    H263876   3.536   0.805   4.516 -1.7539 -2.3314 -1.0353
14129TIP3   OH263877   4.970   1.301   2.971 -0.1888 -0.2595  0.0464
14129TIP3    H163878   4.879   1.272   2.966 -1.1742  2.3273  1.7658
14129TIP3    H263879   4.976   1.371   2.907  0.3945  0.0373  0.4245
14130TIP3   OH263880   3.979   2.294   1.282 -0.8005 -0.1694  0.0563
14130TIP3    H163881   4.010   2.204   1.268 -1.5363 -0.5286  0.7462
14130TIP3    H263882   4.057   2.340   1.313 -0.7027 -0.8378  0.8250
14131TIP3   OH263883   4.530   4.321   1.400 -0.4599 -0.2729  0.2073
14131TIP3    H163884   4.579   4.334   1.318  1.9038  2.4262  1.9370
14131TIP3    H263885   4.569   4.244   1.440  0.3263  0.0903  0.1401
14132TIP3   OH263886   6.332   6.198   2.296  0.1632  0.0265 -0.1702
14132TIP3    H163887   6.401   6.139   2.327  1.6266  0.2188 -2.8554
14132TIP3    H263888   6.375   6.283   2.288 -1.5347  1.1500  2.2133
14133TIP3   OH263889   2.742   4.680   0.366  0.0384  0.1646 -0.3247
14133TIP3    H163890   2.832   4.650   0.382  0.3805  0.9199 -0.8497
14133TIP3    H263891   2.724   4.739   0.439 -0.6012 -1.2258  0.6558
14134TIP3   OH263892   3.841   0.714  13.782 -0.3976  0.2690 -0.0402
14134TIP3    H163893   3.863   0.788  13.839 -1.5952 -0.3892  1.2985
14134TIP3    H263894   3.918   0.657  13.786 -0.5262  0.1517  1.0786
14135TIP3   OH263895   1.194   5.854   0.633  0.0665  0.0061 -0.3845
14135TIP3    H163896   1.160   5.875   0.720  0.5401 -0.7396 -0.0227
14135TIP3    H263897   1.118   5.864   0.575 -0.9185 -2.1192  0.4759
14136TIP3   OH263898   7.084   5.528   2.710 -0.0612 -0.0835 -0.4235
14136TIP3    H163899   7.076   5.481   2.627 -0.2534  0.1694 -0.5476
14136TIP3    H263900   7.019   5.598   2.705  0.1834  0.1624 -0.2150
14137TIP3   OH263901   2.530   5.259  15.130 -0.5242  0.3417  0.0300
14137TIP3    H163902   2.495   5.181  15.174 -2.2566  0.7817 -0.5435
14137TIP3    H263903   2.620   5.236  15.109 -0.2495 -0.5865  2.1050
14138TIP3   OH263904   0.815   3.666   3.249  0.4329  0.4708 -0.4192
14138TIP3    H163905   0.822   3.570   3.251 -0.4619  0.3912 -0.5949
14138TIP3    H263906   0.899   3.698   3.281  0.0947 -0.3800  1.3626
14139TIP3   OH263907   3.544   2.413   2.158 -0.5600  0.4715 -0.4401
14139TIP3    H163908   3.467   2.378   2.115 -0.3231 -1.0033  0.2899
14139TIP3    H263909   3.517   2.427   2.249 -0.9458  3.1821 -0.9629
14140TIP3   OH263910   4.532   0.576  13.729 -0.6342  0.0780  0.0229
14140TIP3    H163911   4.480   0.613  13.658  1.8865 -0.9630 -2.4821
14140TIP3    H263912   4.617   0.620  13.721  0.0503 -0.9137  1.6438
14141TIP3   OH263913   4.619   3.959   2.455 -0.4148  0.7369 -0.3163
14141TIP3    H163914   4.550   4.010   2.413 -0.7047  0.5568 -0.0625
14141TIP3    H263915   4.576   3.915   2.528 -0.1050  0.3623 -0.3529
14142TIP3   OH263916   3.756   3.341   3.160  0.5079  0.1971 -0.3299
14142TIP3    H163917   3.714   3.292   3.089 -0.9678  0.1691  0.5450
14142TIP3    H263918   3.847   3.313   3.158 -0.7085 -4.3897  1.5852
14143TIP3   OH263919   1.001   6.868   1.341  0.3828  0.3927  0.4600
14143TIP3    H163920   0.922   6.840   1.294  0.2799 -1.5450  1.7380
14143TIP3    H263921   1.007   6.808   1.415  2.4093  1.2855  1.0372
14144TIP3   OH263922   5.515   0.934   2.153  0.2166  0.5460  0.4834
14144TIP3    H163923   5.520   0.905   2.244  3.5913 -0.7385 -0.0506
14144TIP3    H263924   5.587   0.996   2.143  1.2191 -0.9067 -1.8140
14145TIP3   OH263925   0.031   3.469   3.728  0.2528 -0.4649  0.1081
14145TIP3    H163926   0.047   3.564   3.731  0.4779 -0.4878 -0.4711
14145TIP3    H263927   0.116   3.430   3.746  0.0736 -0.5574  0.7719
14146TIP3   OH263928   1.883   6.998   5.397 -0.0488 -0.3873 -0.1944
14146TIP3    H163929   1.917   7.019   5.484  2.0287  0.7610 -1.2269
14146TIP3    H263930   1.794   7.034   5.396  1.0647  2.4984  0.3959
14147TIP3   OH263931   2.226   6.517  14.686  0.0484 -0.1442 -0.1379
14147TIP3    H163932   2.237   6.445  14.747  1.4596  0.0525 -0.1473
14147TIP3    H263933   2.241   6.596  14.738  3.0113 -0.0324 -1.0583
14148TIP3   OH263934   6.264   2.845  14.317 -0.2870 -0.3511 -0.6067
14148TIP3    H163935   6.306   2.914  14.265  1.9322 -2.6733 -2.0153
14148TIP3    H263936   6.284   2.868  14.408  0.6418  0.7161 -1.0644
14149TIP3   OH263937   3.138   2.726  15.356  0.1011 -0.0654  0.2366
14149TIP3    H163938   3.086   2.705  15.279  0.8626 -0.4933 -0.1716
14149TIP3    H263939   3.074   2.733  15.427 -0.4591 -1.0959 -0.1540
14150TIP3   OH263940   3.251   7.155   5.503 -0.3848 -0.5803 -0.0536
14150TIP3    H163941   3.324   7.178   5.445 -0.9731  0.0227 -0.5759
14150TIP3    H263942   3.292   7.136   5.587  0.4132 -0.6900 -0.4618
14151TIP3   OH263943   5.930   6.461   4.204  0.6519 -0.2571 -0.1223
14151TIP3    H163944   5.989   6.386   4.207  0.5982 -0.3807 -1.6466
14151TIP3    H263945   5.862   6.434   4.142 -0.2058  0.4564  0.5053
14152TIP3   OH263946   3.799   2.043   3.005 -0.3134  0.6668 -0.3009
14152TIP3    H163947   3.875   1.987   3.020 -1.2367 -0.2964  0.9416
14152TIP3    H263948   3.835   2.125   2.972  1.2351  0.1053 -0.0420
14153TIP3   OH263949   6.490   1.910   6.248  0.3937  0.0538 -0.3937
14153TIP3    H163950   6.464   1.995   6.213 -1.3397  0.0446  0.8032
14153TIP3    H263951   6.561   1.881   6.191  1.0203  2.3084 -0.7882
14154TIP3   OH263952   5.511   2.961   5.011 -0.1427 -0.3629  0.1112
14154TIP3    H163953   5.541   2.882   5.056  0.7809  0.9304  1.8202
14154TIP3    H263954   5.572   2.973   4.939  0.1157 -0.8334  0.2505
14155TIP3   OH263955   2.104   2.087   5.175 -0.7104  0.1004 -0.0376
14155TIP3    H163956   2.050   2.013   5.203  0.0260 -0.6422 -0.5349
14155TIP3    H263957   2.115   2.140   5.253 -1.5702 -0.1082  0.2350
14156TIP3   OH263958   2.564   0.582   0.446 -0.1924  0.4473 -0.8709
14156TIP3    H163959   2.653   0.549   0.429  0.1427  0.7660  0.2173
14156TIP3    H263960   2.578   0.672   0.475 -0.8112  0.2353  0.0967
14157TIP3   OH263961   1.872   0.551   0.874 -0.0141  0.2867 -0.1938
14157TIP3    H163962   1.838   0.638   0.897 -0.5696  0.5528 -1.9032
14157TIP3    H263963   1.959   0.568   0.837  0.0921  0.0726 -0.0398
14158TIP3   OH263964   2.483   5.265   3.101  0.1112 -0.4341  0.4235
14158TIP3    H163965   2.478   5.261   3.005  0.4216 -0.6974  0.4154
14158TIP3    H263966   2.540   5.340   3.119  0.1572 -0.4619  0.3963
14159TIP3   OH263967   2.102   0.761   1.958 -1.0218  0.1396 -0.7136
14159TIP3    H163968   2.166   0.830   1.943  0.5163 -0.6852  1.8470
14159TIP3    H263969   2.031   0.780   1.896  2.5175 -0.0841 -5.0362
14160TIP3   OH263970   5.174   3.498   5.500 -0.1665 -0.1834  0.5334
14160TIP3    H163971   5.145   3.407   5.511  2.4986 -1.1912 -0.2804
14160TIP3    H263972   5.098   3.543   5.465 -1.0591 -2.4955 -0.6459
14161TIP3   OH263973   0.291   6.575   3.698 -0.6133 -0.2100 -0.3297
14161TIP3    H163974   0.254   6.617   3.776  0.7417 -0.2701  0.3661
14161TIP3    H263975   0.317   6.488   3.728  0.3696 -0.0552 -0.7049
14162TIP3   OH263976   2.958   2.404   3.087 -0.0141  0.2237 -0.6441
14162TIP3    H163977   3.002   2.488   3.101  0.3299 -0.3744  2.1673
14162TIP3    H263978   2.865   2.424   3.101  0.1488  0.0045  0.8784
14163TIP3   OH263979   3.575   4.615   3.118  0.1109  0.1461  0.2228
14163TIP3    H163980   3.502   4.676   3.129  1.5916  2.0216 -0.1038
14163TIP3    H263981   3.596   4.619   3.025 -0.5099 -1.7667 -0.0278
14164TIP3   OH263982   2.526   0.967   5.335  0.0776 -0.3049 -0.3243
14164TIP3    H163983   2.438   0.931   5.318 -1.1487  1.4993  1.9273
14164TIP3    H263984   2.537   0.959   5.430  1.2942  1.8226 -0.2647
14165TIP3   OH263985   3.810   1.401   2.999  0.0607  0.4361 -0.4719
14165TIP3    H163986   3.767   1.333   2.947  0.2962  1.0741 -1.5133
14165TIP3    H263987   3.843   1.355   3.076 -0.4911 -0.4796 -0.7750
14166TIP3   OH263988   6.322   2.403   1.976 -0.6268 -0.4819  0.4099
14166TIP3    H163989   6.398   2.439   1.932 -2.1407  1.1503 -0.9275
14166TIP3    H263990   6.292   2.472   2.034 -1.4111 -0.9005  0.5175
14167TIP3   OH263991   2.706   2.556   0.759 -0.2030  0.0376  0.2216
14167TIP3    H163992   2.798   2.533   0.752 -0.0053  0.3568  1.7633
14167TIP3    H263993   2.705   2.649   0.780 -0.8819  0.0783  0.0393
14168TIP3   OH263994   1.883   2.802   3.173  0.0121 -0.2319  0.2205
14168TIP3    H163995   1.831   2.832   3.247  0.3655 -2.2376  1.3293
14168TIP3    H263996   1.867   2.866   3.104  1.9938  3.3658  2.9351
14169TIP3   OH263997   4.320   3.086   0.679  0.2650 -0.3162  0.2302
14169TIP3    H163998   4.225   3.073   0.669  0.0111  0.1320  1.9576
14169TIP3    H263999   4.348   3.013   0.734  0.6527  0.3895  0.9802
14170TIP3   OH264000   3.062   0.243   4.933 -0.6921  0.2496 -0.1675
14170TIP3    H164001   3.139   0.301   4.931 -0.4067 -0.1453 -1.2301
14170TIP3    H264002   3.072   0.191   5.013  0.0992  0.2692 -0.2534
14171TIP3   OH264003   5.324   5.164   2.898 -0.2883  0.2091 -0.0380
14171TIP3    H164004   5.389   5.134   2.962  0.1347 -0.1995 -0.6518
14171TIP3    H264005   5.241   5.160   2.944 -0.0345 -0.4759  0.3625
14172TIP3   OH264006   2.514   1.714   4.418  0.3967  0.2053 -0.1723
14172TIP3    H164007   2.429   1.701   4.461 -0.0058 -1.1951 -1.3686
14172TIP3    H264008   2.577   1.673   4.477  0.0331 -0.2832 -0.1193
14173TIP3   OH264009   5.856   0.775   0.921 -0.4699  0.2075  0.0429
14173TIP3    H164010   5.763   0.779   0.899 -0.3061  0.4863 -0.6021
14173TIP3    H264011   5.869   0.687   0.956 -0.6977 -0.3082 -1.1430
14174TIP3   OH264012   0.302   0.325   4.112 -0.0342  0.4746 -0.4297
14174TIP3    H164013   0.275   0.299   4.200 -0.1991  1.7297 -0.1059
14174TIP3    H264014   0.317   0.242   4.066  2.6552 -0.1928  1.5628
14175TIP3   OH264015   3.826   3.727   0.405 -0.0200  0.0755  0.2705
14175TIP3    H164016   3.760   3.677   0.358 -0.7622  2.9023 -1.8390
14175TIP3    H264017   3.800   3.720   0.497 -2.5902  0.1298 -0.4062
14176TIP3   OH264018   0.263   4.928  13.452  0.3967 -0.4520 -0.1198
14176TIP3    H164019   0.181   4.911  13.405  0.6719 -0.3224 -0.6530
14176TIP3    H264020   0.331   4.917  13.386  0.9237 -2.0396  0.6764
14177TIP3   OH264021   2.497   6.588   4.350 -0.1113  0.0874  0.0806
14177TIP3    H164022   2.537   6.527   4.287 -1.6885  0.0146 -0.8844
14177TIP3    H264023   2.463   6.531   4.419 -0.2758 -0.0110 -0.0800
14178TIP3   OH264024   5.990   2.247  14.724 -0.0614 -0.4911  0.2839
14178TIP3    H164025   5.987   2.184  14.652  0.4332  0.9352 -1.0156
14178TIP3    H264026   6.001   2.194  14.803  4.9358 -1.7952 -1.1553
14179TIP3   OH264027   5.190   1.191   4.873  0.8281 -0.5215  0.0634
14179TIP3    H164028   5.268   1.203   4.926  1.0445 -0.7344 -0.2019
14179TIP3    H264029   5.160   1.280   4.853  1.6465 -0.4234 -0.7693
14180TIP3   OH264030   5.718   0.766   1.220  0.2638  0.3452  0.0173
14180TIP3    H164031   5.632   0.785   1.257  0.3306 -0.6293  0.6921
14180TIP3    H264032   5.740   0.844   1.170 -1.3472  0.3146 -0.7787
14181TIP3   OH264033   3.673   2.788   0.753 -0.1410  0.1839 -0.1226
14181TIP3    H164034   3.627   2.866   0.782  0.4425  1.2020 -1.8427
14181TIP3    H264035   3.739   2.820   0.692  0.3987 -1.6059 -0.5165
14182TIP3   OH264036   4.465   1.715   4.880 -0.3444  0.3011  0.2529
14182TIP3    H164037   4.406   1.753   4.946  0.7662  0.9634  0.8829
14182TIP3    H264038   4.421   1.731   4.797 -0.8605  1.1630  0.6775
14183TIP3   OH264039   2.822   5.056   0.912  0.3205 -0.3081 -0.0100
14183TIP3    H164040   2.809   5.065   0.818 -0.1980 -3.0581 -0.2368
14183TIP3    H264041   2.914   5.028   0.921  0.0029 -1.2862  0.2149
14184TIP3   OH264042   4.537   5.561   1.699  0.0148 -0.4115 -0.0538
14184TIP3    H164043   4.561   5.640   1.650  1.0322 -0.0179  1.0349
14184TIP3    H264044   4.607   5.552   1.764 -0.1127 -2.1951 -0.1408
14185TIP3   OH264045   4.488   1.362   5.529 -0.1932  0.3984  0.4148
14185TIP3    H164046   4.435   1.441   5.516  0.7848  0.7629 -1.4755
14185TIP3    H264047   4.564   1.392   5.580  0.3585  0.7514 -0.6149
14186TIP3   OH264048   5.501   2.022   6.105 -0.8138  0.1055  0.4376
14186TIP3    H164049   5.448   2.075   6.045 -1.1078 -0.4905  0.1634
14186TIP3    H264050   5.513   2.078   6.182 -1.4581  0.4220  0.3130
14187TIP3   OH264051   5.992   2.143   2.898 -0.1021 -0.2753 -0.4391
14187TIP3    H164052   5.921   2.159   2.961 -1.1546 -1.3328 -1.3150
14187TIP3    H264053   6.064   2.197   2.928 -0.4166 -1.1251  1.9845
14188TIP3   OH264054   4.638   1.253   4.601 -0.0551  0.1078 -0.2025
14188TIP3    H164055   4.691   1.187   4.557 -0.4015 -0.4954  0.2726
14188TIP3    H264056   4.674   1.258   4.689  0.6482  1.3227 -0.5470
14189TIP3   OH264057   4.660   6.868   0.661  0.3617  0.0477 -0.3545
14189TIP3    H164058   4.750   6.836   0.657 -0.2139 -1.4863 -1.4120
14189TIP3    H264059   4.667   6.956   0.697  2.4581  0.6131 -2.0554
14190TIP3   OH264060   1.785   6.306   0.237 -0.3881  0.6884 -0.0331
14190TIP3    H164061   1.769   6.397   0.260 -0.1149  1.2291 -1.9255
14190TIP3    H264062   1.844   6.310   0.162  1.0153 -1.0953  0.9258
14191TIP3   OH264063   7.143   1.500   4.879  0.3971  0.3640 -0.0055
14191TIP3    H164064   7.208   1.570   4.875  0.0422  0.7751  1.2636
14191TIP3    H264065   7.114   1.500   4.970 -0.9962 -0.1649 -0.4493
14192TIP3   OH264066   2.713   2.899   4.508 -0.0688  0.1514 -0.0264
14192TIP3    H164067   2.640   2.863   4.456 -0.7012  0.0765  0.9087
14192TIP3    H264068   2.786   2.840   4.490 -0.2301  0.2388 -0.9921
14193TIP3   OH264069   3.851   5.008   2.701 -0.0213 -0.4631 -0.3208
14193TIP3    H164070   3.798   4.933   2.676 -1.7468  0.5572  0.1564
14193TIP3    H264071   3.867   5.055   2.619  0.0562 -0.7175 -0.4513
14194TIP3   OH264072   2.478   1.222   2.757  0.2574 -0.1967  0.0501
14194TIP3    H164073   2.553   1.165   2.773  0.6251  0.8009  1.9478
14194TIP3    H264074   2.407   1.184   2.808 -1.1953 -2.3567 -3.3686
14195TIP3   OH264075   6.872   1.991   5.707 -0.2226  0.3219  0.1259
14195TIP3    H164076   6.789   1.962   5.744 -0.0590  0.3995  0.5560
14195TIP3    H264077   6.938   1.961   5.770  0.1960 -0.8699 -0.8404
14196TIP3   OH264078   1.855   0.901   3.319 -0.5043  0.2136 -0.5753
14196TIP3    H164079   1.779   0.890   3.261  0.1430  1.0910 -1.6165
14196TIP3    H264080   1.823   0.874   3.405 -1.9807  0.5158 -1.0057
14197TIP3   OH264081   5.445   1.595   2.074 -0.3575  0.8609 -0.6726
14197TIP3    H164082   5.519   1.643   2.034 -0.4207  0.9473 -0.6873
14197TIP3    H264083   5.399   1.556   2.000  0.5648 -0.4810 -0.5507
14198TIP3   OH264084   1.980   5.955   2.183 -0.1381 -0.1178  0.1813
14198TIP3    H164085   1.981   5.912   2.098 -1.4023 -1.7467  0.9616
14198TIP3    H264086   1.980   5.884   2.247 -3.5405  0.9216  1.4997
14199TIP3   OH264087   5.427   5.214   1.707 -0.1005 -0.0420 -0.3828
14199TIP3    H164088   5.347   5.234   1.754 -0.5121 -0.3627 -0.9416
14199TIP3    H264089   5.416   5.124   1.677  0.2919  0.0476 -0.8164
14200TIP3   OH264090   6.209   6.327   1.739  0.8062 -0.3665 -0.0469
14200TIP3    H164091   6.113   6.331   1.734  0.7739 -0.0161  0.6666
14200TIP3    H264092   6.233   6.247   1.693  0.0704 -1.1508  0.9066
14201TIP3   OH264093   5.967   3.802   2.558 -0.1269 -0.0667  0.2074
14201TIP3    H164094   5.925   3.877   2.516  0.6903 -0.1653 -0.8045
14201TIP3    H264095   5.945   3.728   2.502  0.9868 -0.1965 -0.0587
14202TIP3   OH264096   5.147   1.794   3.876 -0.0576 -0.8286 -0.8604
14202TIP3    H164097   5.120   1.885   3.860 -0.3256 -0.5458  1.0672
14202TIP3    H264098   5.242   1.799   3.888 -0.3369 -0.4647  1.3638
14203TIP3   OH264099   4.082   3.580   3.159  0.1608  0.0662  0.4976
14203TIP3    H164100   4.045   3.572   3.072  1.1940 -0.9405  0.1457
14203TIP3    H264101   4.177   3.574   3.146  0.3972  1.1281  1.5505
14204TIP3   OH264102   4.657   4.382   4.364  0.1654  0.0597  0.4139
14204TIP3    H164103   4.626   4.405   4.276 -0.5788  0.1473  0.6985
14204TIP3    H264104   4.578   4.374   4.416  0.6077 -0.0067  1.0817
14205TIP3   OH264105   2.720   4.742   3.126  0.0440  0.2931 -0.2799
14205TIP3    H164106   2.803   4.773   3.089 -1.0951  1.6422 -1.7659
14205TIP3    H264107   2.699   4.664   3.075  0.5381 -0.2342  0.3084
14206TIP3   OH264108   6.699   0.327   4.976 -0.0917  0.2502  0.1439
14206TIP3    H164109   6.720   0.415   4.943 -0.7047  0.8082  1.1878
14206TIP3    H264110   6.606   0.316   4.957  0.0739 -0.3296 -0.3223
14207TIP3   OH264111   3.959   1.014  13.802  0.5315  0.3049 -0.1388
14207TIP3    H164112   3.991   1.079  13.864 -1.1494  0.7493  0.3118
14207TIP3    H264113   4.028   0.948  13.797  1.9161  1.7172  0.0065
14208TIP3   OH264114   3.055   1.836   3.509 -0.5218 -0.2156 -0.0419
14208TIP3    H164115   3.003   1.777   3.564  1.2885 -0.9488  0.9415
14208TIP3    H264116   3.102   1.777   3.450 -0.4513  0.4033 -0.6065
14209TIP3   OH264117   1.001   2.295  13.285 -0.4901 -0.3057  0.5433
14209TIP3    H164118   1.037   2.383  13.269  0.5572 -0.5177  1.6331
14209TIP3    H264119   1.040   2.241  13.217 -1.2449  0.0949 -0.2151
14210TIP3   OH264120   5.013   2.951   2.562 -0.2287 -0.2845 -0.5191
14210TIP3    H164121   4.919   2.945   2.545 -0.2513  1.2414 -1.0165
14210TIP3    H264122   5.035   3.042   2.542  1.2244 -0.4508  0.2747
14211TIP3   OH264123   0.572   6.117   4.628  0.5888 -0.3127 -0.1414
14211TIP3    H164124   0.544   6.036   4.586 -1.5785  0.8787 -1.0891
14211TIP3    H264125   0.659   6.133   4.594  0.3666 -1.3684 -1.2421
14212TIP3   OH264126   4.888   4.434   4.514 -0.2193  0.3223  0.1483
14212TIP3    H164127   4.811   4.407   4.464 -1.0344  2.4796  0.1825
14212TIP3    H264128   4.956   4.370   4.491 -0.7535  0.8752 -3.2446
14213TIP3   OH264129   3.842   4.965   3.623  0.5252  0.6001  0.4121
14213TIP3    H164130   3.853   5.054   3.656  0.7657  1.0718 -0.9070
14213TIP3    H264131   3.871   4.969   3.532  2.0167 -1.1803  0.7697
14214TIP3   OH264132   6.874   6.425   4.146  0.0131  0.6127 -0.8449
14214TIP3    H164133   6.909   6.460   4.229 -1.7057  0.6960 -0.1286
14214TIP3    H264134   6.877   6.330   4.157 -0.4009  0.6266 -0.6032
14215TIP3   OH264135   3.832   0.451   2.614 -0.8861 -0.0289 -0.0963
14215TIP3    H164136   3.895   0.392   2.570 -1.0351 -1.7466  1.9223
14215TIP3    H264137   3.767   0.471   2.546  1.1407  0.7767 -1.8658
14216TIP3   OH264138   6.292   5.071   4.051 -0.0474 -0.3098 -0.2042
14216TIP3    H164139   6.355   5.076   3.979 -0.9013  0.6469 -0.9059
14216TIP3    H264140   6.207   5.086   4.010 -0.6405 -0.6265  0.8749
14217TIP3   OH264141   3.362   5.939   1.625  0.7351  0.0761 -0.0957
14217TIP3    H164142   3.382   6.031   1.608 -0.0444  0.1725 -0.5057
14217TIP3    H264143   3.314   5.939   1.708 -0.4968  0.1895 -0.7967
14218TIP3   OH264144   1.599   0.031   3.642  0.5489 -0.1866  0.3345
14218TIP3    H164145   1.510   0.035   3.609  1.4390 -1.1081 -2.3216
14218TIP3    H264146   1.617   0.120   3.675 -1.4468 -0.1183  1.3107
14219TIP3   OH264147   4.191   0.474  12.026 -0.3347 -0.1698  0.5022
14219TIP3    H164148   4.250   0.457  11.952 -0.7293  0.8203 -0.0470
14219TIP3    H264149   4.171   0.387  12.061 -2.7987 -0.9356 -2.6210
14220TIP3   OH264150   3.595   4.995   2.013 -0.0985 -0.6649  0.0819
14220TIP3    H164151   3.567   4.990   1.921  0.0127  1.9406 -0.1317
14220TIP3    H264152   3.527   5.046   2.056  0.8528 -0.1882  1.0287
14221TIP3   OH264153   1.376   5.985  15.142 -0.2839  0.5970 -0.8371
14221TIP3    H164154   1.306   5.921  15.132 -0.1375  0.6444 -2.2627
14221TIP3    H264155   1.418   5.962  15.226 -0.3127 -1.0900 -1.2660
14222TIP3   OH264156   5.006   1.301   2.287 -0.2107  0.0169  0.3539
14222TIP3    H164157   4.914   1.328   2.295 -0.5677 -1.3790  0.9986
14222TIP3    H264158   5.006   1.240   2.213  0.6421  1.8944 -1.2618
14223TIP3   OH264159   6.467   0.056   5.096  0.0747 -0.1151 -0.5094
14223TIP3    H164160   6.501   0.057   5.185  0.9615 -0.5861 -0.8356
14223TIP3    H264161   6.507   0.133   5.054 -0.3389  0.1051 -0.5037
14224TIP3   OH264162   3.275   5.715   2.201  0.9644 -0.2760 -0.5932
14224TIP3    H164163   3.308   5.738   2.114  0.3037 -0.4687 -0.8937
14224TIP3    H264164   3.309   5.784   2.258  2.6327 -0.9570 -0.7404
14225TIP3   OH264165   4.965   4.989   5.107 -0.7559 -0.5637 -0.0467
14225TIP3    H164166   4.962   4.929   5.032 -0.0456 -0.7453  0.0722
14225TIP3    H264167   4.887   4.967   5.158  0.1848 -2.2707  0.6798
14226TIP3   OH264168   6.351   3.331   4.517  0.7908 -1.0658  0.4923
14226TIP3    H164169   6.322   3.404   4.463  0.4133 -1.0913  0.6523
14226TIP3    H264170   6.272   3.305   4.566  1.2926 -0.5888  1.5745
14227TIP3   OH264171   3.992   3.108   5.558  0.0141  0.0641 -0.5440
14227TIP3    H164172   4.081   3.094   5.590 -0.8683  0.9359  2.4475
14227TIP3    H264173   4.000   3.181   5.496  0.9449  2.4224  2.2208
14228TIP3   OH264174   5.921   1.745   4.211 -0.0107  0.0150  0.1195
14228TIP3    H164175   5.888   1.671   4.159 -1.3856  0.7969 -0.1409
14228TIP3    H264176   5.843   1.785   4.248  0.6713  1.6329 -0.1438
14229TIP3   OH264177   4.317   3.086   1.573 -0.6251 -0.2251 -0.2423
14229TIP3    H164178   4.264   3.132   1.507  0.0156  0.4755 -0.2757
14229TIP3    H264179   4.364   3.019   1.523 -2.9062 -2.1076  0.0838
14230TIP3   OH264180   4.848   4.712   0.262  0.2180 -0.0380 -0.3512
14230TIP3    H164181   4.779   4.648   0.280 -0.5890  0.2798 -2.1544
14230TIP3    H264182   4.870   4.749   0.348 -1.6742 -0.3436  0.2865
14231TIP3   OH264183   3.165   0.915   4.601  0.1201 -0.6088 -0.1051
14231TIP3    H164184   3.092   0.875   4.554 -1.5155  0.7576  1.1959
14231TIP3    H264185   3.182   0.855   4.674 -1.3378  0.2864  0.9899
14232TIP3   OH264186   1.210   0.376   1.606  0.4905  0.1920  0.1460
14232TIP3    H164187   1.232   0.462   1.571  0.0491  0.6902  1.0520
14232TIP3    H264188   1.294   0.340   1.636  0.2909  1.6183  2.5842
14233TIP3   OH264189   3.893   5.453   3.383 -0.2297  0.0426  0.0794
14233TIP3    H164190   3.801   5.425   3.383 -0.1040 -0.4275 -1.6562
14233TIP3    H264191   3.936   5.393   3.445 -1.0758  0.2486  0.8787
14234TIP3   OH264192   6.081   5.380   2.929  0.5492  0.0006  0.2562
14234TIP3    H164193   5.996   5.352   2.896  0.9110 -0.1835 -0.5486
14234TIP3    H264194   6.074   5.475   2.936  0.6842  0.1158 -1.0322
14235TIP3   OH264195   3.936   1.167  14.203  0.3078  0.6135 -0.1263
14235TIP3    H164196   3.941   1.257  14.169  1.0495  0.8266  0.5270
14235TIP3    H264197   3.852   1.162  14.248  0.1603  0.9079 -0.3718
14236TIP3   OH264198   6.578   2.899   3.336 -0.0503  0.1902 -0.0120
14236TIP3    H164199   6.653   2.858   3.379 -0.0112  1.1822  0.8882
14236TIP3    H264200   6.551   2.968   3.396 -3.2328 -1.6958  0.8768
14237TIP3   OH264201   5.149   5.219   2.429 -0.0418 -0.1079  0.7139
14237TIP3    H164202   5.189   5.132   2.430 -0.0657 -0.1224  0.2328
14237TIP3    H264203   5.182   5.260   2.509  0.8900 -0.1382  0.3520
14238TIP3   OH264204   6.576   5.383   2.482  0.1962 -0.3295  0.0664
14238TIP3    H164205   6.671   5.382   2.469  0.7865  0.5361  3.6643
14238TIP3    H264206   6.545   5.456   2.428  1.9349  0.9302  0.7205
14239TIP3   OH264207   5.421   5.396   3.860 -0.4114  0.4685 -0.1466
14239TIP3    H164208   5.389   5.482   3.835 -2.2768 -0.1093  0.1955
14239TIP3    H264209   5.381   5.379   3.945 -0.5061 -0.9614 -0.4607
14240TIP3   OH264210   5.721   2.069   5.953 -0.0495  0.7805 -0.0936
14240TIP3    H164211   5.802   2.018   5.954  0.1129  1.0451  0.4869
14240TIP3    H264212   5.669   2.031   6.023  0.7766  2.5341  1.4984
14241TIP3   OH264213   6.881   2.542  15.465 -0.3269  0.2615  0.0978
14241TIP3    H164214   6.888   2.636  15.451 -1.3542  0.3893  0.3725
14241TIP3    H264215   6.944   2.523  15.534 -0.5090  0.8448  0.4295
14242TIP3   OH264216   3.884   2.910   5.876  0.1859 -0.2029  0.2743
14242TIP3    H164217   3.818   2.855   5.918 -1.0937  0.3212 -1.0302
14242TIP3    H264218   3.842   2.996   5.869  1.0170  0.1382 -0.5657
14243TIP3   OH264219   6.958   1.982   0.964  0.2003  0.3123  0.0824
14243TIP3    H164220   6.877   2.029   0.943  0.6669  1.3373  0.5425
14243TIP3    H264221   6.968   1.993   1.058 -0.9166 -2.7121  0.6239
14244TIP3   OH264222   4.015   5.287   4.507 -0.4121 -0.3544 -0.0431
14244TIP3    H164223   4.012   5.328   4.421  0.6196 -0.3325 -0.0762
14244TIP3    H264224   4.109   5.275   4.524 -0.5126  1.6711  2.0594
14245TIP3   OH264225   3.056   0.654   4.912 -0.0963 -0.4662  0.1641
14245TIP3    H164226   3.143   0.647   4.871 -0.4754 -1.3436 -0.4945
14245TIP3    H264227   3.035   0.747   4.907 -0.3704 -0.6103 -2.1419
14246TIP3   OH264228   0.815   2.826   0.481 -0.5146  0.2004 -0.2241
14246TIP3    H164229   0.719   2.835   0.484 -0.5294 -0.2449  1.0150
14246TIP3    H264230   0.833   2.751   0.538  0.3454 -1.6653 -2.8659
14247TIP3   OH264231   3.351   5.205   3.239  0.4443  0.4558  0.1137
14247TIP3    H164232   3.272   5.170   3.199  0.1600  2.9683 -1.7012
14247TIP3    H264233   3.335   5.201   3.333 -1.1899 -0.5239 -0.1925
14248TIP3   OH264234   3.660   6.095   3.772 -0.0471  0.2777  0.0369
14248TIP3    H164235   3.735   6.062   3.723  0.1088  0.0548  0.4285
14248TIP3    H264236   3.688   6.182   3.802  0.2386 -0.0076  0.6011
14249TIP3   OH264237   3.548   0.119   3.745  0.0306  0.2805  0.2054
14249TIP3    H164238   3.584   0.199   3.708 -3.8761  1.3413 -1.5609
14249TIP3    H264239   3.509   0.146   3.828  0.6179 -0.2501  0.6620
14250TIP3   OH264240   0.991   4.676   3.325 -0.5960  0.7170  0.0277
14250TIP3    H164241   0.927   4.605   3.328 -1.3281  1.2989 -1.6810
14250TIP3    H264242   1.064   4.645   3.379 -0.9118 -1.3179 -0.6978
14251TIP3   OH264243   4.806   0.081   0.067  0.1088 -0.2530  0.1645
14251TIP3    H164244   4.729   0.107   0.018  0.2834  0.4688  0.2508
14251TIP3    H264245   4.776   0.077   0.158  0.6601  2.2077  0.4988
14252TIP3   OH264246   6.669   6.065   0.530  0.9810  0.1348 -0.4412
14252TIP3    H164247   6.665   6.015   0.449 -0.7158 -1.1701  0.4138
14252TIP3    H264248   6.597   6.031   0.583  0.6905  2.4898  0.7579
14253TIP3   OH264249   2.507   6.005   3.848 -0.4320  0.4349 -0.4072
14253TIP3    H164250   2.575   5.955   3.893 -0.9782  0.3532  0.3278
14253TIP3    H264251   2.450   6.037   3.918 -1.0338  0.6831 -1.0057
14254TIP3   OH264252   3.325   2.830   1.447 -0.5608 -0.6581  0.1287
14254TIP3    H164253   3.415   2.821   1.477 -0.5040 -0.5632 -0.0079
14254TIP3    H264254   3.330   2.817   1.352 -0.3763  1.3435 -0.1685
14255TIP3   OH264255   0.537   0.892   1.024 -0.5226  0.8602 -0.3496
14255TIP3    H164256   0.559   0.826   0.957 -1.7607  0.1882 -0.1077
14255TIP3    H264257   0.493   0.962   0.975  0.8188  1.5313 -0.6111
14256TIP3   OH264258   5.693   2.576   3.477  0.4970 -0.6267 -0.1962
14256TIP3    H164259   5.740   2.658   3.463 -0.2335 -0.3624 -1.1463
14256TIP3    H264260   5.655   2.585   3.564  3.7530 -1.6245  1.4438
14257TIP3   OH264261   3.586   5.477   3.742 -0.1141 -0.3050  0.2490
14257TIP3    H164262   3.628   5.561   3.758 -0.1199 -0.0438 -1.0794
14257TIP3    H264263   3.496   5.488   3.773  0.0283  0.0100  0.5456
14258TIP3   OH264264   6.209   1.614   2.471  0.2969 -0.6427  0.4851
14258TIP3    H164265   6.272   1.678   2.503  0.9588 -0.0713 -1.8359
14258TIP3    H264266   6.124   1.651   2.492  0.6306  1.8626 -2.2873
14259TIP3   OH264267   6.453   4.574   3.412  0.0136 -0.2155 -0.9431
14259TIP3    H164268   6.478   4.488   3.444  0.5434  0.2028 -0.2242
14259TIP3    H264269   6.535   4.623   3.405 -0.5611  1.2211  1.6256
14260TIP3   OH264270   0.989   1.594   2.373  0.0799 -0.0299  0.1008
14260TIP3    H164271   1.070   1.640   2.355 -1.0868  1.5913 -1.1529
14260TIP3    H264272   0.920   1.659   2.359 -1.4602 -1.4424  0.8612
14261TIP3   OH264273   4.798   5.882   4.453  0.1100 -0.0048 -1.0681
14261TIP3    H164274   4.816   5.970   4.486  1.8688 -0.2713 -1.2802
14261TIP3    H264275   4.820   5.886   4.360  1.8171 -1.1040 -0.7301
14262TIP3   OH264276   1.987   3.055   3.328 -0.4864  0.0020  0.0422
14262TIP3    H164277   2.011   3.119   3.395  0.0448 -1.4908  1.3232
14262TIP3    H264278   1.965   2.976   3.378  0.5343 -1.3318 -1.5666
14263TIP3   OH264279   1.041   5.730  15.370  0.3057 -0.7385 -0.5322
14263TIP3    H164280   0.980   5.670  15.328  0.4397 -0.6996 -0.7798
14263TIP3    H264281   1.023   5.815  15.330 -0.9342 -0.2955  0.8861
14264TIP3   OH264282   0.936   0.681   3.809 -0.6350 -0.4874 -0.0377
14264TIP3    H164283   0.985   0.686   3.891 -0.4429  0.5809 -0.2144
14264TIP3    H264284   0.960   0.760   3.761  0.2716 -1.7220 -1.7051
14265TIP3   OH264285   1.112   4.522  15.215 -0.4026 -0.3621 -0.7181
14265TIP3    H164286   1.069   4.515  15.130  0.5358 -0.2562 -1.2015
14265TIP3    H264287   1.089   4.441  15.260 -0.0082 -0.8901 -1.4768
14266TIP3   OH264288   3.775   3.621   0.666  0.2918  0.3950  0.0693
14266TIP3    H164289   3.804   3.539   0.705 -0.8631  0.5330  1.2337
14266TIP3    H264290   3.802   3.688   0.729 -1.0012  0.6744  0.3412
14267TIP3   OH264291   6.825   3.438   1.124  0.1819  0.0463  0.0800
14267TIP3    H164292   6.793   3.528   1.117  0.4035  0.1141 -0.0721
14267TIP3    H264293   6.861   3.419   1.037 -0.1165 -0.2850  0.0269
14268TIP3   OH264294   0.841   6.237   3.757  0.4054  0.1977  0.2248
14268TIP3    H164295   0.900   6.184   3.810  1.0513  0.7594  0.0670
14268TIP3    H264296   0.754   6.199   3.773  0.8166 -0.6958  0.3640
14269TIP3   OH264297   0.338   1.018   4.102 -0.1326 -0.1977  0.0726
14269TIP3    H164298   0.372   0.980   4.183 -0.1524  1.1777  0.7372
14269TIP3    H264299   0.293   0.946   4.059  0.3921 -1.0903  0.9955
14270TIP3   OH264300   6.713   6.787   5.149  0.5338  0.0018 -0.0033
14270TIP3    H164301   6.634   6.735   5.161 -0.4270  1.2096 -0.9458
14270TIP3    H264302   6.718   6.803   5.055  1.0776  1.1835  0.2150
14271TIP3   OH264303   2.198   2.098   0.609  0.1377  0.6219  0.5815
14271TIP3    H164304   2.226   2.155   0.681 -3.3045  2.3810  0.6501
14271TIP3    H264305   2.111   2.068   0.635  1.3457 -3.7093 -0.0715
14272TIP3   OH264306   2.985   5.420   3.113  0.3052  0.0461  0.3782
14272TIP3    H164307   2.924   5.348   3.096  0.4827  0.2719 -1.2253
14272TIP3    H264308   2.934   5.499   3.095  0.6428  0.2760  0.4425
14273TIP3   OH264309   6.341   5.767   1.987  0.0591 -0.1566 -0.4201
14273TIP3    H164310   6.323   5.740   2.077  1.8107 -1.4638 -0.4369
14273TIP3    H264311   6.299   5.852   1.978 -0.8445 -0.3943  1.3705
14274TIP3   OH264312   5.460   0.219   1.572  0.7275 -0.0184 -0.7010
14274TIP3    H164313   5.489   0.170   1.494  1.5103 -1.7137  0.6136
14274TIP3    H264314   5.375   0.182   1.593  0.0774  1.1155 -1.3084
14275TIP3   OH264315   2.520   2.703  14.644 -0.1077  0.5763 -1.4355
14275TIP3    H164316   2.597   2.755  14.664 -0.9749  0.8376  1.3741
14275TIP3    H264317   2.447   2.765  14.651 -1.0463 -0.7284  0.9313
14276TIP3   OH264318   3.455   1.518   3.923  0.0032 -0.0947  0.4334
14276TIP3    H164319   3.549   1.525   3.945 -0.4512  1.6545  1.9660
14276TIP3    H264320   3.425   1.609   3.921 -1.9538 -0.7107  1.2987
14277TIP3   OH264321   4.953   2.978   5.254  1.1359 -0.0154 -0.1316
14277TIP3    H164322   5.024   2.971   5.318  0.2264  1.0104  1.0149
14277TIP3    H264323   4.912   2.892   5.255  1.6827 -0.2787 -0.0012
14278TIP3   OH264324   5.859   3.267   2.660  0.0993 -0.2727 -0.7140
14278TIP3    H164325   5.842   3.269   2.566  1.2670 -0.8649 -0.9518
14278TIP3    H264326   5.953   3.252   2.667 -0.3532 -2.8324  0.5454
14279TIP3   OH264327   3.160   6.567   2.570  0.1763 -0.0875  0.1256
14279TIP3    H164328   3.150   6.564   2.475  4.2332 -0.4712 -0.3728
14279TIP3    H264329   3.160   6.660   2.592 -1.9199 -0.0171 -0.0408
14280TIP3   OH264330   2.970   0.863   0.529  0.1807 -0.3532  0.8741
14280TIP3    H164331   3.031   0.799   0.566  0.1636 -1.9486 -1.7803
14280TIP3    H264332   3.023   0.911   0.464 -1.3828 -1.8302 -1.5398
14281TIP3   OH264333   6.815   6.861   2.379 -0.2477 -0.0875  0.2827
14281TIP3    H164334   6.848   6.951   2.378 -1.5273  0.4597  2.8187
14281TIP3    H264335   6.720   6.870   2.379 -0.3929 -1.4531  0.1182
14282TIP3   OH264336   0.510   6.341   2.349 -0.2569 -0.0869  0.0638
14282TIP3    H164337   0.559   6.401   2.405 -0.5944 -2.3904  2.9399
14282TIP3    H264338   0.563   6.262   2.345 -2.7938 -1.9713  1.7712
14283TIP3   OH264339   5.824   5.243   1.370  0.5220 -0.4757  0.0555
14283TIP3    H164340   5.807   5.152   1.345 -0.8637 -0.3538  0.5175
14283TIP3    H264341   5.782   5.254   1.455  1.3473  0.3852  0.3666
14284TIP3   OH264342   3.487   6.791   4.847  0.7495 -0.7924 -1.2195
14284TIP3    H164343   3.470   6.706   4.806 -0.9076 -0.5404 -1.0778
14284TIP3    H264344   3.420   6.849   4.811  1.9978  0.5354 -1.4946
14285TIP3   OH264345   4.494   3.045   1.906 -0.1543  0.2955 -0.3335
14285TIP3    H164346   4.402   3.039   1.881  0.0732 -0.5146 -0.9926
14285TIP3    H264347   4.526   3.122   1.860 -0.3835  0.3028 -0.4842
14286TIP3   OH264348   5.642   0.086   5.310 -0.0680  0.2865 -0.2849
14286TIP3    H164349   5.736   0.096   5.292  0.3060 -2.7024 -0.1281
14286TIP3    H264350   5.630   0.124   5.397  0.8556  1.2651 -0.5693
14287TIP3   OH264351   3.222   6.216   3.747  0.0361  0.4045  0.1746
14287TIP3    H164352   3.179   6.288   3.793  0.5988  0.8818 -0.0289
14287TIP3    H264353   3.153   6.153   3.730 -0.3041  0.5201  1.0979
14288TIP3   OH264354   4.512   1.321   2.606  0.3906 -0.7436 -0.0820
14288TIP3    H164355   4.523   1.415   2.615 -0.0377 -0.6397 -0.6388
14288TIP3    H264356   4.595   1.290   2.570  0.2906 -0.4854 -0.5415
14289TIP3   OH264357   4.885   1.965   1.070 -0.4020  0.4744  0.0004
14289TIP3    H164358   4.796   1.935   1.086  0.3011 -1.2933  0.7113
14289TIP3    H264359   4.880   2.060   1.077 -1.5573  0.2356  3.8180
14290TIP3   OH264360   4.150   0.021  13.132  0.1327 -0.0128 -0.0120
14290TIP3    H164361   4.085   0.039  13.200  0.0698 -0.2454 -0.0094
14290TIP3    H264362   4.138  -0.072  13.111  0.9515 -0.2389  0.5029
14291TIP3   OH264363   4.630   0.766  13.531  0.4629 -0.2678  0.4626
14291TIP3    H164364   4.717   0.802  13.511 -0.3010  1.5117  0.2099
14291TIP3    H264365   4.595   0.825  13.598 -2.4519  2.0112 -2.8797
14292TIP3   OH264366   7.149   3.211   2.989 -0.6687  0.1857 -0.2079
14292TIP3    H164367   7.181   3.121   2.980  1.4038  0.8332  0.3861
14292TIP3    H264368   7.149   3.227   3.084  0.5866  1.3516 -0.3921
14293TIP3   OH264369   5.933   2.759   2.788  0.2902 -0.8225 -0.4500
14293TIP3    H164370   5.973   2.843   2.766 -0.5219 -0.4687 -0.5764
14293TIP3    H264371   5.998   2.716   2.843 -0.3193  0.9324  1.7271
14294TIP3   OH264372   2.058   5.460   0.825  0.1684  0.6083  0.1954
14294TIP3    H164373   2.110   5.536   0.799 -0.2379  0.7301 -0.2741
14294TIP3    H264374   1.980   5.497   0.866 -0.8635  0.4955 -1.6124
14295TIP3   OH264375   6.571   6.563  15.097  0.2058 -0.7479  0.3766
14295TIP3    H164376   6.598   6.476  15.128  0.1832 -0.5997  0.8111
14295TIP3    H264377   6.509   6.594  15.163  0.2190 -0.3963  0.2240
14296TIP3   OH264378   6.556   1.824   4.909  0.4993 -0.0590 -0.3310
14296TIP3    H164379   6.474   1.818   4.957 -0.0843 -0.9144 -1.4201
14296TIP3    H264380   6.592   1.736   4.910  1.1417  0.1963 -0.3252
14297TIP3   OH264381   1.530   0.394   2.289 -0.3150 -0.1484  0.2090
14297TIP3    H164382   1.597   0.331   2.316 -0.8983 -0.2018  1.5612
14297TIP3    H264383   1.575   0.450   2.226  0.1777 -1.9793 -1.1222
14298TIP3   OH264384   2.460   2.961   5.514 -0.2413 -0.0348 -0.2272
14298TIP3    H164385   2.471   3.030   5.579 -0.3937 -0.2122 -0.0117
14298TIP3    H264386   2.529   2.897   5.535 -0.2093 -0.0303 -0.3182
14299TIP3   OH264387   2.025   3.955   1.806 -0.2526 -0.5142  0.3185
14299TIP3    H164388   2.046   3.941   1.898 -1.6090  0.3437  0.7661
14299TIP3    H264389   1.944   4.007   1.807  0.5885  0.8777 -1.3400
14300TIP3   OH264390   6.791   0.934   0.089  0.5522  0.4892 -0.6258
14300TIP3    H164391   6.848   1.006   0.115  3.2856 -1.2609 -1.5075
14300TIP3    H264392   6.760   0.958   0.002  0.8262  0.9504 -0.5997
14301TIP3   OH264393   6.601   3.110   5.251 -0.2833  0.4557 -0.4734
14301TIP3    H164394   6.619   3.152   5.335 -0.6653  1.1286 -0.7160
14301TIP3    H264395   6.531   3.048   5.269 -1.2331  1.4874 -0.5273
14302TIP3   OH264396   1.767   6.025   2.842 -0.2610  0.0952 -0.5920
14302TIP3    H164397   1.747   6.018   2.749  0.6011 -3.2429 -0.6089
14302TIP3    H264398   1.740   5.941   2.879  0.0765  1.0883  2.0401
14303TIP3   OH264399   2.786   2.437  14.636 -0.6314  0.0857 -0.0632
14303TIP3    H164400   2.860   2.496  14.652 -1.5177  0.9917  0.7296
14303TIP3    H264401   2.812   2.386  14.559  0.1899  1.4135 -0.6730
14304TIP3   OH264402   6.928   2.388   4.000 -0.3581  0.0102 -0.7360
14304TIP3    H164403   6.865   2.326   4.038  0.1981  0.9313  1.8072
14304TIP3    H264404   7.005   2.383   4.057  0.5960  1.3165 -1.8593
14305TIP3   OH264405   6.208   4.786   3.831  0.3291  0.6984  0.0918
14305TIP3    H164406   6.290   4.795   3.782 -0.4969  0.8242 -1.2988
14305TIP3    H264407   6.157   4.863   3.805  0.4241  1.5169  2.2553
14306TIP3   OH264408   4.087   5.939   3.251  0.2936 -0.0603  0.2003
14306TIP3    H164409   4.146   6.014   3.255  0.3399 -0.1162  0.5795
14306TIP3    H264410   4.136   5.873   3.202 -0.7297  1.0346 -2.3868
14307TIP3   OH264411   2.781   4.947   2.194 -0.4611  0.0385 -0.1253
14307TIP3    H164412   2.839   5.017   2.225 -0.8520  0.8444 -1.1831
14307TIP3    H264413   2.834   4.868   2.202  0.7337  0.7302 -0.8634
14308TIP3   OH264414   6.759   3.824   3.850  1.0297 -0.1743  0.1080
14308TIP3    H164415   6.666   3.848   3.851  1.1949  0.5858 -1.2090
14308TIP3    H264416   6.760   3.730   3.867  0.0465 -0.1362  0.4373
14309TIP3   OH264417   6.095   3.152   2.472  0.4019 -0.1921  0.0427
14309TIP3    H164418   6.181   3.175   2.437  0.1372  0.4454 -0.1980
14309TIP3    H264419   6.100   3.177   2.565 -0.1474  1.5756 -0.3967
14310TIP3   OH264420   5.366   5.874   4.932 -0.3250  0.4102  0.0631
14310TIP3    H164421   5.441   5.887   4.990  0.0018 -0.5078 -0.1463
14310TIP3    H264422   5.403   5.876   4.843 -0.5729  0.1843 -0.0482
14311TIP3   OH264423   1.917   2.712   4.973 -0.6433  0.0513  0.1356
14311TIP3    H164424   1.974   2.636   4.967  0.0289  0.3851  2.0888
14311TIP3    H264425   1.946   2.758   5.052 -1.2664  2.1529 -0.8355
14312TIP3   OH264426   0.465   2.777   1.794 -0.4585 -0.4872  0.1312
14312TIP3    H164427   0.501   2.716   1.729  1.7321  1.1206 -0.2159
14312TIP3    H264428   0.378   2.800   1.761  0.1618 -0.6226 -1.6131
14313TIP3   OH264429   3.563   6.152   1.956  0.0829  0.2603 -0.0627
14313TIP3    H164430   3.571   6.059   1.937  0.1681  0.1503  0.4859
14313TIP3    H264431   3.480   6.179   1.918 -1.6348 -0.8179  2.8057
14314TIP3   OH264432   0.831   2.577   3.567  0.5260 -0.2921  0.2468
14314TIP3    H164433   0.913   2.627   3.576  0.9436 -0.8566 -0.3337
14314TIP3    H264434   0.796   2.605   3.483  0.0886 -0.0057  0.5260
14315TIP3   OH264435   2.285   0.799   0.373 -0.1984 -0.2965  0.1262
14315TIP3    H164436   2.253   0.719   0.415 -0.0670 -1.5500 -2.0534
14315TIP3    H264437   2.248   0.796   0.285 -1.3227  2.7855  0.4555
14316TIP3   OH264438   3.447   5.814  15.362 -0.4854 -0.0352 -1.0010
14316TIP3    H164439   3.427   5.888  15.304  2.1719 -0.3891 -2.4976
14316TIP3    H264440   3.446   5.738  15.304 -1.1082 -0.8778  0.1054
14317TIP3   OH264441   6.648   6.974   3.569 -0.2922 -0.3623 -0.4378
14317TIP3    H164442   6.621   6.930   3.488 -1.0497  0.8154 -0.8322
14317TIP3    H264443   6.658   6.904   3.633 -1.4355 -1.1053 -1.0759
14318TIP3   OH264444   0.133   7.160   3.311  0.1239  0.1078 -0.2638
14318TIP3    H164445   0.070   7.183   3.379  0.4222  1.6512 -0.4826
14318TIP3    H264446   0.176   7.081   3.343  1.2526  1.5873  2.0353
14319TIP3   OH264447   2.750   1.564   0.853  0.4609  0.0268  0.0141
14319TIP3    H164448   2.738   1.659   0.852 -1.4875 -0.1980 -1.0834
14319TIP3    H264449   2.723   1.537   0.940  1.2272  0.4968  0.4028
14320TIP3   OH264450   0.711   1.004   4.895 -0.3270 -0.6763  0.2770
14320TIP3    H164451   0.759   0.934   4.850 -0.8452 -1.3419  0.7386
14320TIP3    H264452   0.636   1.022   4.838  0.3250  0.1749 -0.3120
14321TIP3   OH264453   4.495   2.935   1.323 -0.4463 -0.2619 -0.4551
14321TIP3    H164454   4.540   2.990   1.387 -0.6472 -0.8471  0.1938
14321TIP3    H264455   4.509   2.846   1.354  0.4152 -0.6215 -1.8477
14322TIP3   OH264456   5.062   2.047   3.834 -0.4964 -0.0044 -0.8119
14322TIP3    H164457   4.975   2.039   3.796 -0.1377  0.6814 -1.7845
14322TIP3    H264458   5.049   2.101   3.912 -0.9208  0.2060 -1.0255
14323TIP3   OH264459   6.209   0.127   2.313  0.7231 -0.2824  0.0432
14323TIP3    H164460   6.122   0.090   2.302  0.1750  0.3740  1.9069
14323TIP3    H264461   6.269   0.054   2.297 -0.2635 -1.4419  1.4970
14324TIP3   OH264462   0.748   2.980   2.588  0.1132  0.3024  0.0127
14324TIP3    H164463   0.782   2.939   2.668  3.0348  1.6669 -0.4643
14324TIP3    H264464   0.654   2.985   2.603  0.1101 -2.9048  1.7560
14325TIP3   OH264465   4.576   5.260   4.681 -0.2122  0.3366  0.3154
14325TIP3    H164466   4.519   5.209   4.739 -0.5422  0.3525  0.0080
14325TIP3    H264467   4.569   5.349   4.713 -2.5513  0.8202 -1.4202
14326TIP3   OH264468   3.075   5.991   3.681  0.2022 -0.2756 -0.3219
14326TIP3    H164469   3.065   5.919   3.619 -3.0962 -1.3717  1.3703
14326TIP3    H264470   3.117   5.950   3.757 -0.0043 -0.0027 -0.0619
14327TIP3   OH264471   6.456   3.885   2.289 -0.7424  0.1094  0.8264
14327TIP3    H164472   6.409   3.837   2.221  0.2758  0.7466 -0.3570
14327TIP3    H264473   6.388   3.913   2.350 -1.5318 -1.4911  0.7168
14328TIP3   OH264474   4.581   6.683   2.498 -0.0169  0.3673 -0.2601
14328TIP3    H164475   4.503   6.657   2.546  0.5545 -0.4567  0.2364
14328TIP3    H264476   4.549   6.718   2.415 -0.9012  0.0413 -0.0518
14329TIP3   OH264477   6.386   4.819   2.368 -0.0110 -0.2068 -0.7280
14329TIP3    H164478   6.381   4.884   2.439 -0.1811 -0.2064 -0.7389
14329TIP3    H264479   6.427   4.866   2.295 -0.4173 -0.0193 -0.8369
14330TIP3   OH264480   1.889   5.365   4.156  0.3226 -0.0545  0.1742
14330TIP3    H164481   1.921   5.454   4.145  2.7124 -0.8055  0.6851
14330TIP3    H264482   1.893   5.327   4.068  2.7424 -0.7224  0.5368
14331TIP3   OH264483   2.090   1.183   0.473 -0.2601 -0.5788 -0.0096
14331TIP3    H164484   2.054   1.242   0.539  1.4227 -1.5440  1.8389
14331TIP3    H264485   2.158   1.234   0.430 -0.0742 -0.5521  0.3118
14332TIP3   OH264486   6.939   2.704   4.446  0.8976 -0.7534  0.1632
14332TIP3    H164487   6.976   2.705   4.534  2.2359 -0.0352 -0.3967
14332TIP3    H264488   6.927   2.611   4.426 -1.8116 -0.8845  2.0646
14333TIP3   OH264489   6.446   0.003   4.819  0.1326  0.4433 -0.5361
14333TIP3    H164490   6.443  -0.025   4.911  1.2517 -0.0857 -0.6553
14333TIP3    H264491   6.446   0.099   4.824  0.9839  0.4165  0.0562
14334TIP3   OH264492   5.615   3.909   3.554 -0.1099 -0.4412  0.4845
14334TIP3    H164493   5.545   3.968   3.581 -0.2521 -0.0049 -0.7742
14334TIP3    H264494   5.680   3.966   3.512  0.3993 -1.0046  0.4861
14335TIP3   OH264495   0.041   2.250   0.137 -0.4003 -0.7484 -0.3086
14335TIP3    H164496   0.039   2.182   0.204 -0.8784 -0.4510 -0.0250
14335TIP3    H264497  -0.029   2.310   0.161 -0.9646 -0.9621 -1.4027
14336TIP3   OH264498   1.231   0.847   0.606 -0.3546  0.1432  0.0494
14336TIP3    H164499   1.183   0.919   0.646 -0.1510 -0.0233  0.6002
14336TIP3    H264500   1.191   0.768   0.643  0.8683  0.0147  1.1395
14337TIP3   OH264501   2.708   6.688   0.043 -0.6591 -0.0423 -0.3970
14337TIP3    H164502   2.765   6.760   0.068  2.6405 -2.4193 -0.8375
14337TIP3    H264503   2.640   6.729  -0.011  0.8044  2.7889 -0.1667
14338TIP3   OH264504   1.415   3.501   3.909  0.7188  0.0819  0.2876
14338TIP3    H164505   1.319   3.506   3.905  0.7221 -0.4743 -0.6024
14338TIP3    H264506   1.444   3.591   3.898  0.3654 -0.0600 -2.1762
14339TIP3   OH264507   2.857   1.950   0.425 -0.5202 -0.1832  0.3695
14339TIP3    H164508   2.941   1.983   0.393 -2.5630  3.4461 -1.6187
14339TIP3    H264509   2.840   1.873   0.372  0.0696  0.9495 -1.5226
14340TIP3   OH264510   3.064   1.171   3.887  0.7824  0.5944  0.6110
14340TIP3    H164511   3.140   1.218   3.920  0.2113  0.8224  1.6187
14340TIP3    H264512   3.101   1.098   3.836  1.6647  0.7030  1.0925
14341TIP3   OH264513   1.703   2.999   2.424  0.3312 -0.0981 -0.3979
14341TIP3    H164514   1.791   3.031   2.441 -0.6789  1.9873  1.0806
14341TIP3    H264515   1.699   2.915   2.469  1.5546 -0.2200 -0.5058
14342TIP3   OH264516   3.962   5.105   1.147 -0.2657  0.2800 -0.3540
14342TIP3    H164517   3.973   5.159   1.226 -0.7835  0.9324 -0.7278
14342TIP3    H264518   3.995   5.159   1.076  2.7242 -1.3169 -0.2677
14343TIP3   OH264519   5.193   0.257   1.320  0.1310 -0.6936 -0.5135
14343TIP3    H164520   5.139   0.274   1.243 -0.3608 -2.6860 -0.6399
14343TIP3    H264521   5.159   0.316   1.387 -1.6332 -1.3054 -0.8604
14344TIP3   OH264522   4.702   3.944   3.200 -0.5905 -1.0122 -0.4576
14344TIP3    H164523   4.719   4.006   3.130  0.3964 -0.4119  0.3022
14344TIP3    H264524   4.737   3.986   3.279 -0.9528 -2.0242  0.2557
14345TIP3   OH264525   2.980   2.352   5.420 -0.2020 -0.1406 -0.1114
14345TIP3    H164526   2.894   2.313   5.401 -0.2005  0.3674 -1.1740
14345TIP3    H264527   3.017   2.373   5.334  1.5940 -1.6259  0.2837
14346TIP3   OH264528   6.022   4.724   4.071  0.2233 -0.1898 -0.4115
14346TIP3    H164529   6.018   4.819   4.076  2.5117  0.0360 -2.3143
14346TIP3    H264530   6.089   4.699   4.134 -0.2083 -0.5392 -0.0834
14347TIP3   OH264531   6.770   2.303  14.312  0.2725 -0.3874 -0.1396
14347TIP3    H164532   6.798   2.296  14.220 -0.0747  2.6653 -0.5265
14347TIP3    H264533   6.699   2.239  14.319 -0.0013 -0.3620 -2.1276
14348TIP3   OH264534   4.022   3.494  13.029  0.3644  0.2231 -0.4398
14348TIP3    H164535   4.117   3.493  13.022  0.2796 -1.4886 -1.8072
14348TIP3    H264536   3.995   3.407  12.998 -1.6306  0.6400  0.0494
14349TIP3   OH264537   4.505   1.806   3.549 -0.5367 -0.6872  0.3684
14349TIP3    H164538   4.594   1.776   3.530  0.6201  1.1365  2.5393
14349TIP3    H264539   4.481   1.760   3.629 -0.4620  0.8075  1.2738
14350TIP3   OH264540   6.785   2.411  12.589 -0.2861 -0.1275 -0.3121
14350TIP3    H164541   6.790   2.373  12.502 -3.3775 -2.3191  0.3654
14350TIP3    H264542   6.856   2.370  12.638  0.9863  0.5387 -1.5631
14351TIP3   OH264543   6.723   0.173   2.504 -0.2722  0.3362 -0.4751
14351TIP3    H164544   6.640   0.197   2.464 -0.9495 -0.6228  0.3547
14351TIP3    H264545   6.789   0.196   2.438 -1.3884 -1.6584 -2.3317
14352TIP3   OH264546   6.759   2.571   2.235  0.4411 -0.0689 -0.1715
14352TIP3    H164547   6.665   2.570   2.222 -0.0100  0.5919  2.7442
14352TIP3    H264548   6.795   2.603   2.152 -1.7896 -1.3900 -1.6840
14353TIP3   OH264549   4.754   6.914   0.968 -0.1813  0.4196 -0.1797
14353TIP3    H164550   4.805   6.842   0.928  0.7271  1.6523 -1.3036
14353TIP3    H264551   4.675   6.872   1.000  1.6636 -1.6312  1.8871
14354TIP3   OH264552   7.038   1.122   4.724 -0.5040 -0.1536 -0.1137
14354TIP3    H164553   7.104   1.191   4.712  1.8176 -2.5313 -1.7038
14354TIP3    H264554   6.955   1.164   4.699  0.6451  2.3968  0.1456
14355TIP3   OH264555   0.005   4.458   0.808 -0.6237 -0.2771  0.2893
14355TIP3    H164556   0.044   4.437   0.723 -0.6713 -2.3800  0.7652
14355TIP3    H264557  -0.032   4.376   0.838  1.2415 -0.0512  3.3496
14356TIP3   OH264558   2.400   6.507   3.603  0.6005  0.0751 -0.8163
14356TIP3    H164559   2.393   6.468   3.690  1.4783 -1.2659 -1.3508
14356TIP3    H264560   2.472   6.461   3.561 -0.2045  0.3014 -2.4806
14357TIP3   OH264561   0.999   1.876   4.587 -0.6211 -0.0310 -0.6516
14357TIP3    H164562   0.935   1.938   4.623  0.8833  0.9267  0.4140
14357TIP3    H264563   1.058   1.857   4.660  2.4407  1.9030 -2.5119
14358TIP3   OH264564   1.695   3.146   1.933  0.2287  0.1620 -0.0386
14358TIP3    H164565   1.684   3.115   2.023  1.4586  0.6177  0.2682
14358TIP3    H264566   1.607   3.138   1.895 -0.8058  2.0773  1.8564
14359TIP3   OH264567   7.015   0.107   4.049 -0.0683  0.4660 -0.4379
14359TIP3    H164568   7.024   0.117   3.955  0.3065 -0.5740 -0.5170
14359TIP3    H264569   7.092   0.150   4.086  0.2020  0.1518 -0.6393
14360TIP3   OH264570   3.522   0.225   4.313  0.1492 -0.3617  0.1313
14360TIP3    H164571   3.581   0.260   4.246  0.5635  0.0211  0.6912
14360TIP3    H264572   3.520   0.131   4.296  0.3910 -0.2910 -0.3065
14361TIP3   OH264573   5.333   0.596   5.674  0.5727  0.3007  0.6258
14361TIP3    H164574   5.319   0.518   5.728  1.1653 -0.8093 -0.7875
14361TIP3    H264575   5.405   0.642   5.717  0.6231 -0.2503  1.1302
14362TIP3   OH264576   4.314   1.030  15.058  0.3427 -0.5108  0.0509
14362TIP3    H164577   4.277   1.099  15.113 -1.2085 -1.2374 -0.0540
14362TIP3    H264578   4.269   1.040  14.974  0.6870 -1.1486 -0.2081
14363TIP3   OH264579   2.142   7.161   3.073  0.1498 -0.2770 -0.3303
14363TIP3    H164580   2.085   7.141   2.999 -0.3173 -0.8546  0.1803
14363TIP3    H264581   2.103   7.238   3.114  0.0312 -0.3554 -0.2945
14364TIP3   OH264582   0.913   1.352   3.747  0.2554 -0.1553 -0.4698
14364TIP3    H164583   0.839   1.297   3.720 -1.9774  1.9009  1.2717
14364TIP3    H264584   0.926   1.412   3.673 -0.9885  0.6093 -0.0888
14365TIP3   OH264585   5.367   3.118   2.684 -0.3829  0.5844  0.1808
14365TIP3    H164586   5.348   3.174   2.609 -0.9812 -0.3508 -0.3726
14365TIP3    H264587   5.422   3.173   2.741 -0.5911  1.5765 -0.5502
14366TIP3   OH264588   4.238   0.092   4.309 -0.3017  0.0309  0.7768
14366TIP3    H164589   4.199   0.008   4.331 -1.6731  0.6847  0.9190
14366TIP3    H264590   4.329   0.085   4.339 -0.1823 -1.6686  0.0413
14367TIP3   OH264591   1.846   4.569   2.984 -0.0577  0.1442 -0.2062
14367TIP3    H164592   1.856   4.481   2.946 -0.0754 -0.2808  0.7701
14367TIP3    H264593   1.903   4.570   3.060 -0.1288  0.9553 -0.1565
14368TIP3   OH264594   0.134   2.287   6.089 -0.6000  0.4223  0.6167
14368TIP3    H164595   0.163   2.324   6.006 -0.3078 -0.0432  0.5095
14368TIP3    H264596   0.062   2.228   6.065  0.1813 -0.5271  0.5644
14369TIP3   OH264597   6.971   2.609   5.573  0.1503  0.3011  0.2015
14369TIP3    H164598   7.031   2.645   5.638  0.3668 -0.2382  0.2993
14369TIP3    H264599   6.937   2.686   5.527  0.7157  0.6220  0.3153
14370TIP3   OH264600   4.915   1.458   1.764 -0.0632  0.4005 -0.0727
14370TIP3    H164601   4.858   1.458   1.841  0.1280 -0.1695  0.0691
14370TIP3    H264602   4.984   1.395   1.785 -0.1085  0.1065 -0.7866
14371TIP3   OH264603   4.033   6.008  14.653  1.3087 -0.7726 -0.3500
14371TIP3    H164604   4.066   5.922  14.680 -0.2853 -2.1759 -2.6903
14371TIP3    H264605   4.092   6.035  14.582  1.3694 -0.2447 -0.1045
14372TIP3   OH264606   5.852   3.168   3.811 -0.3267 -0.4205  0.1639
14372TIP3    H164607   5.938   3.202   3.835  0.3294 -1.3652 -0.8342
14372TIP3    H264608   5.863   3.133   3.722 -2.2111  1.2096 -0.7722
14373TIP3   OH264609   4.448   2.930  12.931  0.1155  0.3110  0.4447
14373TIP3    H164610   4.397   2.874  12.873  1.0691 -0.0233 -0.0888
14373TIP3    H264611   4.392   3.006  12.947 -0.9581 -0.5179  0.7115
14374TIP3   OH264612   5.193   1.575   2.993 -0.0259 -0.4327 -0.3734
14374TIP3    H164613   5.172   1.662   3.027  1.9322  0.0815 -0.3728
14374TIP3    H264614   5.182   1.517   3.068 -1.0711 -0.1396 -0.2978
14375TIP3   OH264615   2.901   6.757   2.182 -0.5468 -0.7076  0.4435
14375TIP3    H164616   2.823   6.701   2.178  0.0309 -1.5098  0.2575
14375TIP3    H264617   2.908   6.781   2.275  0.3841 -2.6646  0.9077
14376TIP3   OH264618   0.419   1.292   4.754 -0.0922 -0.7377 -0.7572
14376TIP3    H164619   0.488   1.357   4.738  0.1488 -0.9142 -0.4438
14376TIP3    H264620   0.362   1.334   4.819 -0.9472 -0.1113 -1.8984
14377TIP3   OH264621   5.684   0.807   4.676  0.1558  0.0704 -0.3069
14377TIP3    H164622   5.674   0.831   4.768  1.7438  2.5198 -0.7386
14377TIP3    H264623   5.594   0.802   4.643 -0.4281 -0.9300  1.3926
14378TIP3   OH264624   7.132   1.584   0.788  0.1130 -0.0511  0.9331
14378TIP3    H164625   7.178   1.668   0.776  0.1834  0.1194  2.2630
14378TIP3    H264626   7.107   1.584   0.880 -0.7831 -1.0559  0.6987
14379TIP3   OH264627   4.873   5.400   0.947 -0.4072 -0.3517 -0.2573
14379TIP3    H164628   4.795   5.416   0.894 -1.3112 -3.2861  0.1578
14379TIP3    H264629   4.847   5.334   1.010  1.5666  0.8651  1.9016
14380TIP3   OH264630   0.463   3.968   1.602  0.0551 -0.3947  0.1304
14380TIP3    H164631   0.378   4.000   1.572 -0.3799  0.0986  1.8142
14380TIP3    H264632   0.474   4.007   1.689  2.4679  0.3985 -0.4775
14381TIP3   OH264633   0.404   6.376   2.625 -0.2758  0.2986  0.1455
14381TIP3    H164634   0.339   6.445   2.617 -0.7705 -0.1324  0.4701
14381TIP3    H264635   0.475   6.404   2.567  0.0333  1.6631  1.1513
14382TIP3   OH264636   6.110   0.064   5.836 -0.8674 -0.4627  0.0375
14382TIP3    H164637   6.192   0.092   5.877 -0.6306 -1.2928  0.1299
14382TIP3    H264638   6.130  -0.020   5.795 -0.8500  0.7977 -2.5878
14383TIP3   OH264639   0.236   6.887   3.318  0.3825 -0.7582  0.1032
14383TIP3    H164640   0.234   6.863   3.410  1.3310 -1.3206 -0.0151
14383TIP3    H264641   0.218   6.805   3.271 -1.0883 -0.2820 -0.1928
14384TIP3   OH264642   6.213   6.842   3.319 -0.0006  0.3491 -0.1921
14384TIP3    H164643   6.206   6.763   3.265 -0.7026  0.9947 -1.0670
14384TIP3    H264644   6.132   6.843   3.369 -1.3037  1.9656 -2.2223
14385TIP3   OH264645   0.605   6.572   1.209  0.3221  0.2315 -0.3710
14385TIP3    H164646   0.515   6.561   1.238  0.4497  1.6759  0.6467
14385TIP3    H264647   0.658   6.550   1.286  0.8234 -0.1275 -0.8142
14386TIP3   OH264648   3.385   3.655   2.933 -0.0516  0.6250  0.3033
14386TIP3    H164649   3.395   3.700   3.017 -2.3775 -1.1474  1.5786
14386TIP3    H264650   3.439   3.576   2.942 -1.4651 -0.3067  0.7058
14387TIP3   OH264651   0.189   6.550   2.775 -0.4098 -0.0664  0.2979
14387TIP3    H164652   0.278   6.583   2.767 -0.9364  1.1308 -0.8282
14387TIP3    H264653   0.194   6.481   2.841  0.8864  1.5998  1.9948
14388TIP3   OH264654   4.061   0.345   0.150  0.0004  0.3865  0.1812
14388TIP3    H164655   4.089   0.263   0.110 -1.8698  0.0429 -0.4559
14388TIP3    H264656   4.031   0.319   0.238 -1.2829  0.2499 -0.2821
14389TIP3   OH264657   6.189   0.395   4.810 -0.5405 -0.2852  0.0743
14389TIP3    H164658   6.129   0.367   4.878 -0.9013  1.2457  0.4013
14389TIP3    H264659   6.220   0.481   4.839  0.3449 -0.2195 -1.0198
14390TIP3   OH264660   4.971   4.183   3.864 -0.3193  0.0652 -0.3082
14390TIP3    H164661   5.043   4.121   3.849 -0.9501 -0.5559 -0.7686
14390TIP3    H264662   4.966   4.191   3.959 -0.3639 -0.7420 -0.2378
14391TIP3   OH264663   5.851   4.709   0.635  0.8473  0.6396 -0.1508
14391TIP3    H164664   5.773   4.760   0.613  0.3403 -0.0839 -0.0257
14391TIP3    H264665   5.851   4.704   0.731  0.8782  0.3712 -0.1640
14392TIP3   OH264666   2.219   4.997   0.513  0.1643  0.3512  0.5990
14392TIP3    H164667   2.206   5.032   0.601 -0.3788 -0.6469  0.9256
14392TIP3    H264668   2.281   4.925   0.526  0.1793  0.2857  0.1509
14393TIP3   OH264669   3.802   3.183   3.440  0.2301 -0.1701  0.1075
14393TIP3    H164670   3.716   3.146   3.421 -0.2300  0.7550  0.3653
14393TIP3    H264671   3.819   3.244   3.368  0.5337 -0.1153  0.2227
14394TIP3   OH264672   5.096   2.684   4.429 -0.1445 -0.6208  0.3067
14394TIP3    H164673   5.190   2.694   4.445 -0.3167 -0.6931  1.3584
14394TIP3    H264674   5.082   2.729   4.345  0.8794 -0.8914 -0.0181
14395TIP3   OH264675   0.356   6.822   2.499  0.2854  0.1485 -0.1217
14395TIP3    H164676   0.291   6.884   2.532  1.4130  1.0771  0.3869
14395TIP3    H264677   0.316   6.784   2.420 -1.7241 -0.8393  1.3304
14396TIP3   OH264678   6.354   1.996   2.451 -0.6824  0.2492 -0.1480
14396TIP3    H164679   6.301   2.073   2.471 -3.6657 -2.1553  1.6048
14396TIP3    H264680   6.371   1.956   2.536  2.2570 -0.2185 -0.8784
14397TIP3   OH264681   5.215   2.383   1.403 -0.0093  0.2546 -0.0907
14397TIP3    H164682   5.205   2.340   1.319  0.1598  0.6568 -0.3176
14397TIP3    H264683   5.252   2.315   1.460 -1.5651 -0.4565  0.0739
14398TIP3   OH264684   4.696   1.251   4.167  0.7021 -0.0812  0.4891
14398TIP3    H164685   4.659   1.225   4.251  1.5412 -0.5347  0.7212
14398TIP3    H264686   4.686   1.346   4.165  1.7078  0.0650  1.6098
14399TIP3   OH264687   4.912   1.871   2.931  0.1512 -0.3450 -0.0655
14399TIP3    H164688   4.952   1.951   2.898 -0.5703  0.3369  0.6952
14399TIP3    H264689   4.878   1.828   2.852  1.3992 -0.3985 -0.5844
14400TIP3   OH264690   7.172   4.128  15.245 -0.0650  0.2762 -0.7405
14400TIP3    H164691   7.106   4.179  15.199 -1.3488  0.4233  1.1962
14400TIP3    H264692   7.212   4.190  15.306 -0.7709 -0.6761  0.7437
14401TIP3   OH264693   1.555   2.881   3.110 -0.5963 -0.2105 -0.1303
14401TIP3    H164694   1.466   2.914   3.098 -0.6986 -0.7020 -0.7586
14401TIP3    H264695   1.609   2.941   3.059 -0.6670 -0.4201 -0.4522
14402TIP3   OH264696   1.649   2.606   5.285  0.4086 -0.1024 -0.4020
14402TIP3    H164697   1.555   2.626   5.284  0.1400 -1.2364  0.6972
14402TIP3    H264698   1.686   2.667   5.349 -0.0277 -1.5028  1.1997
14403TIP3   OH264699   2.586   3.881   5.301  0.3719 -1.0023  0.2021
14403TIP3    H164700   2.658   3.828   5.268 -1.3643 -2.0019 -2.1868
14403TIP3    H264701   2.539   3.823   5.361  0.1040 -1.2266 -0.2207
14404TIP3   OH264702   6.381   4.796   1.043  0.6659 -0.2670 -0.5166
14404TIP3    H164703   6.429   4.744   0.978  2.2705  1.0647 -0.4186
14404TIP3    H264704   6.343   4.731   1.102  0.2608 -1.4452 -2.0178
14405TIP3   OH264705   0.898   3.682   3.663  0.5933  0.6544 -0.2278
14405TIP3    H164706   0.926   3.603   3.618 -0.4621 -1.4738  2.6747
14405TIP3    H264707   0.976   3.738   3.664  2.3607 -1.7270  0.5306
14406TIP3   OH264708   4.376   3.000   1.093  0.0823  0.0617 -0.5101
14406TIP3    H164709   4.398   2.924   1.039  2.2400 -0.0806  0.5415
14406TIP3    H264710   4.428   2.990   1.172 -2.2918  0.8023  1.2086
14407TIP3   OH264711   3.772   5.707   3.467  0.4607  0.1513 -0.0089
14407TIP3    H164712   3.730   5.691   3.552  0.6589  1.0904  0.2697
14407TIP3    H264713   3.805   5.621   3.440 -2.3763 -0.7816 -0.6364
14408TIP3   OH264714   6.025   0.672   4.212 -0.0891  0.4151  0.1834
14408TIP3    H164715   5.940   0.655   4.172  0.6204  1.6317 -1.9010
14408TIP3    H264716   6.059   0.585   4.233 -1.4975 -0.1183  0.3127
14409TIP3   OH264717   4.166   0.422   2.947  0.1644  0.0018  0.0842
14409TIP3    H164718   4.085   0.373   2.934  0.4124 -0.3815 -0.0168
14409TIP3    H264719   4.235   0.367   2.911  0.4494  0.4238 -0.0310
14410TIP3   OH264720   2.951   3.640   3.386  0.0775  0.4867  0.5399
14410TIP3    H164721   3.003   3.708   3.428 -0.8793  0.6111  1.5447
14410TIP3    H264722   2.982   3.558   3.425 -0.7205  0.5917  1.4111
14411TIP3   OH264723   1.319   7.052   3.330  0.1336 -0.2265 -0.2574
14411TIP3    H164724   1.395   6.993   3.333  1.8291  1.8798  0.1273
14411TIP3    H264725   1.250   7.005   3.377  1.0234 -2.4253 -1.0937
14412TIP3   OH264726   2.704   2.412   2.519  0.1735 -0.4197 -0.3528
14412TIP3    H164727   2.665   2.498   2.506  0.7107  0.0885  1.2529
14412TIP3    H264728   2.799   2.428   2.518  0.3445 -1.3418 -2.2794
14413TIP3   OH264729   4.287   1.788   1.810  0.1357  0.1621 -0.3852
14413TIP3    H164730   4.329   1.873   1.813 -0.3662  0.4082 -0.2979
14413TIP3    H264731   4.343   1.735   1.753 -0.1560  0.8800 -1.3326
14414TIP3   OH264732   5.724   6.147   0.772 -0.3245  0.3597  0.2527
14414TIP3    H164733   5.641   6.127   0.816  0.1243  3.3466  2.6256
14414TIP3    H264734   5.787   6.157   0.844  1.7550 -0.2920 -1.4312
14415TIP3   OH264735   2.354   0.825  12.980 -0.4508 -0.7444 -0.1489
14415TIP3    H164736   2.359   0.742  12.933  1.7669 -0.3734 -0.6112
14415TIP3    H264737   2.428   0.877  12.947 -0.6322  0.6632  1.5506
14416TIP3   OH264738   0.236   4.580   1.056 -0.3093  0.3867  0.4540
14416TIP3    H164739   0.256   4.625   1.138 -0.9978  1.5802 -0.0170
14416TIP3    H264740   0.221   4.489   1.081 -1.8333  1.0029  1.8517
14417TIP3   OH264741   1.633   4.322   5.782  0.0722 -0.0608 -0.1335
14417TIP3    H164742   1.540   4.320   5.760 -0.1457  1.0543  0.6705
14417TIP3    H264743   1.640   4.264   5.858  0.2285 -1.0011 -0.8459
14418TIP3   OH264744   2.108   0.395   3.805  0.6743 -0.2150  0.1471
14418TIP3    H164745   2.107   0.300   3.818 -1.1056 -0.4567 -1.4277
14418TIP3    H264746   2.159   0.407   3.725 -1.7061 -0.1530 -1.4122
14419TIP3   OH264747   0.647   6.506   4.845  0.4096  0.0492 -0.1134
14419TIP3    H164748   0.721   6.463   4.803 -0.2071  0.2974 -1.5009
14419TIP3    H264749   0.570   6.456   4.817 -0.1732  1.2015 -0.6240
14420TIP3   OH264750   6.414   4.828   4.741 -0.3293  0.0901 -0.3952
14420TIP3    H164751   6.441   4.919   4.750  0.0220 -0.0253 -0.3021
14420TIP3    H264752   6.402   4.816   4.646  0.2278  0.0522 -0.4565
14421TIP3   OH264753   3.876   2.126   5.216  0.4772  0.3026  0.1601
14421TIP3    H164754   3.877   2.087   5.304 -2.3701 -2.6181 -1.0188
14421TIP3    H264755   3.842   2.215   5.229  1.2346  0.3285  2.1298
14422TIP3   OH264756   1.317   1.270   2.451 -0.7108 -0.1393  0.8182
14422TIP3    H164757   1.292   1.242   2.539 -2.0793 -0.3768  0.3749
14422TIP3    H264758   1.391   1.215   2.428 -1.1549 -0.9570  1.3265
14423TIP3   OH264759   5.463   3.679   0.976  0.2339 -0.2879 -0.6064
14423TIP3    H164760   5.375   3.714   0.989  0.4985  0.1879 -0.0434
14423TIP3    H264761   5.467   3.602   1.033  0.6860  0.5729  0.5432
14424TIP3   OH264762   6.555   1.220   2.197  0.2729 -0.1235  0.3431
14424TIP3    H164763   6.462   1.197   2.200  0.4361 -0.6070  2.1181
14424TIP3    H264764   6.586   1.182   2.115 -1.2572  0.7053 -0.6419
14425TIP3   OH264765   0.941   2.973   1.668 -0.3365 -0.4166 -0.1496
14425TIP3    H164766   1.011   2.993   1.606  0.1665 -0.9728  0.2424
14425TIP3    H264767   0.864   3.017   1.632  0.2146  0.2132 -0.5708
14426TIP3   OH264768   3.314   1.810   0.473 -0.0374  0.1912  0.0636
14426TIP3    H164769   3.280   1.729   0.510  0.0646 -0.8928 -2.1267
14426TIP3    H264770   3.236   1.854   0.438  0.3283 -0.6603 -1.8875
14427TIP3   OH264771   6.875   1.458   2.115 -0.1710  0.4869 -0.5200
14427TIP3    H164772   6.929   1.533   2.090 -0.0249  0.5491 -0.0161
14427TIP3    H264773   6.928   1.382   2.090  0.4549  0.5407  0.5936
14428TIP3   OH264774   1.168   5.377   1.791  0.8880  0.3531  0.0126
14428TIP3    H164775   1.183   5.470   1.802  2.8642 -0.1233  1.6479
14428TIP3    H264776   1.188   5.360   1.699  0.3202  1.5456 -0.3430
14429TIP3   OH264777   2.953   2.891   3.990 -0.0449 -0.0087 -0.0483
14429TIP3    H164778   3.022   2.844   3.943  0.0072  0.1232 -0.1038
14429TIP3    H264779   2.897   2.822   4.025 -1.6086 -0.0885 -2.5766
14430TIP3   OH264780   5.454   6.948   4.865 -0.6362 -0.1299  0.4316
14430TIP3    H164781   5.454   7.043   4.880 -1.8655 -0.1960  0.8353
14430TIP3    H264782   5.375   6.931   4.814  0.3560 -0.7518 -0.9493
14431TIP3   OH264783   1.091   0.298   0.468 -0.5608 -0.5861  0.5450
14431TIP3    H164784   1.046   0.353   0.532  1.6864  1.2946  0.5658
14431TIP3    H264785   1.055   0.325   0.384  1.1810  1.6652  0.4643
14432TIP3   OH264786   5.985   1.036  14.330 -0.3575  0.1501 -0.2724
14432TIP3    H164787   6.062   0.983  14.310 -0.7642 -0.3288 -0.6246
14432TIP3    H264788   6.019   1.123  14.350  0.4091 -0.4745  1.2638
14433TIP3   OH264789   4.477   1.623   5.391 -0.1094  0.0650  0.2019
14433TIP3    H164790   4.541   1.555   5.369 -0.4145 -0.5255  1.1157
14433TIP3    H264791   4.410   1.615   5.322  0.9654  0.9233 -0.9567
14434TIP3   OH264792   1.645   4.430   1.097 -0.6345  0.0318  0.1537
14434TIP3    H164793   1.576   4.474   1.049  0.4839  1.1267 -0.4738
14434TIP3    H264794   1.623   4.337   1.090 -1.5870  0.3130 -0.7343
14435TIP3   OH264795   5.985   3.056  14.852  0.0571 -0.3235  0.2329
14435TIP3    H164796   5.928   2.981  14.868 -1.9875  0.6287 -2.1671
14435TIP3    H264797   5.940   3.129  14.895  0.5852  0.0317  0.1779
14436TIP3   OH264798   2.582   2.837   1.398  0.3235  0.8999 -1.4392
14436TIP3    H164799   2.625   2.903   1.342  1.1912  0.2484 -1.5574
14436TIP3    H264800   2.529   2.786   1.338 -1.3133  2.2455 -1.1658
14437TIP3   OH264801   6.279   3.355   3.635  0.2363  0.1177  0.1573
14437TIP3    H164802   6.296   3.315   3.549  0.4751  0.8389 -0.1382
14437TIP3    H264803   6.362   3.396   3.659  0.3589 -0.6412  1.0403
14438TIP3   OH264804   0.031   3.766   0.762  0.2590  0.2714 -0.2857
14438TIP3    H164805   0.109   3.817   0.781  1.1731 -0.9617 -0.6175
14438TIP3    H264806   0.049   3.679   0.799 -0.6170 -0.2596 -1.0554
14439TIP3   OH264807   6.824   2.098  15.183  0.5025  0.2973  0.4697
14439TIP3    H164808   6.730   2.093  15.201  0.7138  1.7597  2.1229
14439TIP3    H264809   6.839   2.190  15.161  1.4774 -0.0254 -0.2248
14440TIP3   OH264810   6.492   6.942  12.854  0.9961  0.1741  0.2510
14440TIP3    H164811   6.415   6.958  12.800  0.1273 -2.5256  0.6349
14440TIP3    H264812   6.560   6.917  12.791  1.2509  1.4083  0.0223
14441TIP3   OH264813   1.982   4.059   3.086  0.0053  0.0956 -0.8846
14441TIP3    H164814   2.012   3.994   3.022  2.3810  1.5663 -1.3391
14441TIP3    H264815   1.976   4.011   3.169 -0.5115 -1.2220 -1.6867
14442TIP3   OH264816   6.555   2.370   2.329 -0.1556  0.0206  0.0752
14442TIP3    H164817   6.621   2.371   2.399 -0.2792 -0.5559  0.2011
14442TIP3    H264818   6.547   2.462   2.302  2.8626 -0.2482 -1.9827
14443TIP3   OH264819   0.265   1.920   4.777 -0.8354  0.4268  0.0088
14443TIP3    H164820   0.330   1.914   4.847  0.4794  0.8398 -1.1473
14443TIP3    H264821   0.227   2.007   4.786 -0.4316  0.6030 -0.0005
14444TIP3   OH264822   4.767   1.428   2.692 -0.5365 -0.4816 -0.2797
14444TIP3    H164823   4.730   1.489   2.629 -1.4571 -0.3811  0.3447
14444TIP3    H264824   4.839   1.476   2.733 -1.7722  0.5157  0.7989
14445TIP3   OH264825   6.909   0.257   2.966  0.5786  0.1825 -0.4868
14445TIP3    H164826   6.912   0.184   3.028 -0.1766 -0.5170 -1.2531
14445TIP3    H264827   6.842   0.316   3.001  1.5889  0.7862  0.4318
14446TIP3   OH264828   5.113   5.595   0.265 -0.2161 -0.3638 -0.5821
14446TIP3    H164829   5.162   5.668   0.302 -0.4615 -1.1468  1.4040
14446TIP3    H264830   5.134   5.521   0.323 -3.5793 -0.7366  0.2547
14447TIP3   OH264831   6.424   0.359   4.263  0.5410  1.1348 -0.4646
14447TIP3    H164832   6.397   0.267   4.259  0.6628  1.1033 -0.5710
14447TIP3    H264833   6.416   0.382   4.355  0.1199  1.1344 -0.5009
14448TIP3   OH264834   0.315   2.064   4.340 -0.0804 -0.1579  0.2098
14448TIP3    H164835   0.390   2.122   4.355  0.2807  0.0870 -2.3361
14448TIP3    H264836   0.317   2.046   4.247 -3.0647 -0.3658  0.1304
14449TIP3   OH264837   2.526   0.848   4.044 -0.3928  0.1833  0.2885
14449TIP3    H164838   2.526   0.770   4.101  1.0203  0.7823  1.1262
14449TIP3    H264839   2.440   0.887   4.058 -0.4603 -0.2690  1.1922
14450TIP3   OH264840   1.531   5.523   2.937 -0.2256 -0.5828 -0.0165
14450TIP3    H164841   1.477   5.513   2.859  1.5597  2.8753 -1.7785
14450TIP3    H264842   1.596   5.453   2.930 -1.1493 -1.4055 -0.6388
14451TIP3   OH264843   2.620   2.191   1.630  0.2003 -0.6772 -0.1040
14451TIP3    H164844   2.688   2.172   1.566  1.0952 -0.8545  0.8839
14451TIP3    H264845   2.649   2.147   1.710  0.1197  1.2040  0.9988
14452TIP3   OH264846   0.298   1.158   2.138  0.0580  0.0227  0.8871
14452TIP3    H164847   0.285   1.078   2.189 -1.1971  1.0415  2.2010
14452TIP3    H264848   0.290   1.131   2.047  0.1060 -1.4242  1.3098
14453TIP3   OH264849   5.883   1.914   1.518 -0.5879  0.4489 -0.5574
14453TIP3    H164850   5.822   1.972   1.473  1.3424  2.1692 -1.0463
14453TIP3    H264851   5.850   1.908   1.607 -1.1728  1.7895 -0.6756
14454TIP3   OH264852   6.873   2.125   4.615 -0.2264  0.0282  0.4185
14454TIP3    H164853   6.914   2.155   4.696 -0.5891 -2.0338  1.3867
14454TIP3    H264854   6.812   2.056   4.642 -0.7642 -0.3122 -1.5426
14455TIP3   OH264855   0.574   3.932   3.775  0.2119  0.2588  0.6854
14455TIP3    H164856   0.587   3.973   3.860 -1.6208  0.8425  0.7128
14455TIP3    H264857   0.520   3.855   3.793  1.1333 -0.5113  0.2418
14456TIP3   OH264858   2.132   3.594   1.486 -0.4243  0.4204 -0.0308
14456TIP3    H164859   2.096   3.585   1.398 -1.8301  0.2558  0.5394
14456TIP3    H264860   2.223   3.565   1.478 -0.6937 -0.1116 -1.3122
14457TIP3   OH264861   4.349   2.198   1.039 -0.0361  0.2795 -0.0635
14457TIP3    H164862   4.272   2.154   1.076  0.8130 -0.7225  0.5256
14457TIP3    H264863   4.319   2.232   0.955 -1.6810  1.6075  1.0147
14458TIP3   OH264864   3.289   1.556  15.509 -0.1243 -0.2458 -0.2503
14458TIP3    H164865   3.214   1.503  15.537  0.6421 -0.8937  0.5955
14458TIP3    H264866   3.324   1.593  15.590 -0.7935  1.7772 -0.8516
14459TIP3   OH264867   4.798   7.090   1.370 -0.1267  0.4131  0.2364
14459TIP3    H164868   4.791   7.177   1.409 -0.6362  1.1550 -1.4755
14459TIP3    H264869   4.780   7.103   1.277  2.2331 -1.1188 -0.4974
14460TIP3   OH264870   6.709   1.264  14.883  0.8070 -0.3144 -0.0368
14460TIP3    H164871   6.689   1.173  14.908  1.3818 -0.2336  0.7548
14460TIP3    H264872   6.700   1.265  14.788 -3.1036 -0.2444  0.2563
14461TIP3   OH264873   1.127   4.569   5.259  0.1260  0.2481  0.6588
14461TIP3    H164874   1.118   4.536   5.348 -1.1300  1.6884  1.0781
14461TIP3    H264875   1.038   4.594   5.233  0.5515  0.2936 -0.8180
14462TIP3   OH264876   2.084   6.134   4.200 -0.1891  0.0788  0.3462
14462TIP3    H164877   2.048   6.204   4.145 -1.3391  0.4463  1.5159
14462TIP3    H264878   2.015   6.068   4.203 -0.4090  0.3458  1.8243
14463TIP3   OH264879   2.664   2.950   0.248  0.3322  0.2105  0.0728
14463TIP3    H164880   2.570   2.936   0.248  0.1725  1.2692  0.4702
14463TIP3    H264881   2.675   3.041   0.274  1.4316  0.3392 -0.7967
14464TIP3   OH264882   6.728   1.512  14.990  0.7548 -0.1745 -0.3370
14464TIP3    H164883   6.747   1.459  14.913  2.3345 -0.0232 -0.0688
14464TIP3    H264884   6.801   1.494  15.050  1.1447  2.0094 -0.1119
14465TIP3   OH264885   5.560   1.682   0.924  0.6493 -0.0741 -0.4715
14465TIP3    H164886   5.562   1.766   0.879 -0.2787  1.9513  3.0986
14465TIP3    H264887   5.624   1.690   0.995 -0.3065 -1.9007  0.6577
14466TIP3   OH264888   0.852   7.195   0.674 -0.2245  0.0721  0.6918
14466TIP3    H164889   0.774   7.236   0.713  1.2465  4.0579 -0.3010
14466TIP3    H264890   0.922   7.213   0.736  1.0949  1.9721 -1.2883
14467TIP3   OH264891   0.311   2.564   2.104  0.1247  0.2949 -0.3820
14467TIP3    H164892   0.275   2.650   2.081  0.7832  0.4050 -1.0146
14467TIP3    H264893   0.327   2.521   2.020 -0.0907 -0.4081 -0.0711
14468TIP3   OH264894   0.581   6.659   3.638  0.0229  0.0201 -0.5834
14468TIP3    H164895   0.621   6.587   3.688 -0.4191  0.0078 -0.2391
14468TIP3    H264896   0.488   6.655   3.661 -0.1523  0.1482 -1.2538
14469TIP3   OH264897   3.371   2.921   2.384  0.3944  0.8499 -0.0553
14469TIP3    H164898   3.320   2.968   2.318 -2.6261 -0.6453  1.1522
14469TIP3    H264899   3.409   2.846   2.337 -0.6310  0.5465 -0.4031
14470TIP3   OH264900   4.942   3.220   3.227 -0.1559 -0.0342 -0.4276
14470TIP3    H164901   4.927   3.298   3.280  1.1105 -0.2975  0.3551
14470TIP3    H264902   4.855   3.191   3.202 -0.7208  0.7431  0.5824
14471TIP3   OH264903   1.425   6.252   3.089  0.3460  0.1648 -0.0172
14471TIP3    H164904   1.379   6.295   3.162  0.4372 -0.1644  0.2372
14471TIP3    H264905   1.416   6.159   3.107 -4.1981 -0.1646 -3.2193
14472TIP3   OH264906   0.223   0.580   2.594  0.3449  0.1541  0.0998
14472TIP3    H164907   0.198   0.619   2.510 -0.0310 -0.8915 -0.2832
14472TIP3    H264908   0.261   0.495   2.570  1.0453  0.2333  0.9299
14473TIP3   OH264909   7.057   4.129   3.151 -0.0500  0.5434  0.3170
14473TIP3    H164910   7.061   4.190   3.078 -0.3326 -0.4825 -0.5626
14473TIP3    H264911   7.102   4.050   3.120  0.1052  0.2019  1.3573
14474TIP3   OH264912   0.322   2.625   1.568  0.3979 -0.4661 -0.1830
14474TIP3    H164913   0.260   2.601   1.638 -0.2471 -0.1624 -0.6520
14474TIP3    H264914   0.298   2.570   1.494  1.2115 -0.9296 -0.1127
14475TIP3   OH264915   6.196   0.102   5.213 -0.5363 -0.4072  0.1029
14475TIP3    H164916   6.182   0.034   5.147 -1.0387 -1.4276  1.2371
14475TIP3    H264917   6.290   0.099   5.231  0.0628  1.5733 -2.3263
14476TIP3   OH264918   4.763   0.734   4.195  0.2407 -0.1316 -0.1478
14476TIP3    H164919   4.764   0.780   4.111 -2.1276 -1.4675 -0.9348
14476TIP3    H264920   4.721   0.796   4.255  0.5944  0.2414 -0.2777
14477TIP3   OH264921   4.242   3.597   1.342 -0.3510 -0.2747 -0.4773
14477TIP3    H164922   4.221   3.685   1.314  0.2387  0.8049  2.2854
14477TIP3    H264923   4.201   3.588   1.428  0.3623 -2.3756 -0.3085
14478TIP3   OH264924   2.850   1.153   4.052 -0.0668  0.2751 -0.3469
14478TIP3    H164925   2.928   1.152   3.996  0.5760 -2.4574  0.5501
14478TIP3    H264926   2.782   1.111   3.999 -0.9789  2.6285 -1.1180
14479TIP3   OH264927   0.954   0.679   2.975 -0.4912 -0.0762  0.7802
14479TIP3    H164928   0.937   0.721   3.059 -0.2777  0.2163  0.6770
14479TIP3    H264929   0.923   0.589   2.987 -0.0354 -0.1621  1.3212
14480TIP3   OH264930   1.285   2.420   3.121 -0.2004  0.1512 -0.4630
14480TIP3    H164931   1.267   2.502   3.075 -2.0934 -0.3368 -0.6023
14480TIP3    H264932   1.215   2.412   3.186  2.5626  0.9544  2.7676
14481TIP3   OH264933   1.227   0.528   4.199  0.1371 -0.4900  0.3561
14481TIP3    H164934   1.312   0.488   4.217 -0.3055 -0.7480  1.9912
14481TIP3    H264935   1.163   0.461   4.224 -0.5617  0.1694  0.3508
14482TIP3   OH264936   6.705   3.756   2.226  0.1644  0.2581  0.2830
14482TIP3    H164937   6.625   3.807   2.239 -1.0156 -1.5678  0.4200
14482TIP3    H264938   6.772   3.821   2.205 -1.6212  1.7086 -1.1060
14483TIP3   OH264939   6.580   6.980   2.005 -0.5095 -0.5504 -0.2067
14483TIP3    H164940   6.625   6.907   1.962 -1.3277 -1.5556  0.6265
14483TIP3    H264941   6.639   7.006   2.075  2.2438  3.0473 -3.6574
14484TIP3   OH264942   2.024   0.254   1.190 -0.4835 -0.3701  0.0223
14484TIP3    H164943   2.091   0.207   1.141 -0.9317 -0.8183 -0.1731
14484TIP3    H264944   2.040   0.231   1.282  0.9551  1.2361  0.2077
14485TIP3   OH264945   6.706   6.720   4.467 -0.1755 -0.2123  0.8589
14485TIP3    H164946   6.673   6.807   4.447  3.0177  0.7427 -0.5892
14485TIP3    H264947   6.674   6.702   4.555 -1.3194  2.1843  0.9812
14486TIP3   OH264948   5.732   3.721   0.957  0.3506 -0.4807 -0.1611
14486TIP3    H164949   5.749   3.639   0.911  2.6773  0.2375 -0.6345
14486TIP3    H264950   5.638   3.721   0.972  0.3960 -3.4746  0.2971
14487TIP3   OH264951   7.159   2.944   2.975 -0.2390  0.2257  0.4690
14487TIP3    H164952   7.080   2.908   3.016  0.0515 -1.3192 -0.2832
14487TIP3    H264953   7.221   2.952   3.048  0.7408 -3.8234  0.1859
14488TIP3   OH264954   1.438   7.097   2.006  0.3356  0.4337 -0.3397
14488TIP3    H164955   1.428   7.102   2.101  2.0435  3.1834 -0.2338
14488TIP3    H264956   1.482   7.014   1.991 -1.4577 -0.8177  1.0949
14489TIP3   OH264957   4.560   5.940  14.654 -0.4460 -0.2736  0.0605
14489TIP3    H164958   4.546   5.964  14.562  0.6297  0.6736  0.1272
14489TIP3    H264959   4.502   5.866  14.669  0.0400 -1.0185 -1.6431
14490TIP3   OH264960   0.548   2.759   1.435 -0.4770 -0.2370  0.0621
14490TIP3    H164961   0.494   2.693   1.478 -1.3263  0.9845  0.8884
14490TIP3    H264962   0.490   2.799   1.370  0.0637 -0.3542 -0.5027
14491TIP3   OH264963   0.818   0.445   1.443 -0.0848  0.0778 -0.0259
14491TIP3    H164964   0.850   0.387   1.512 -2.9784  0.0146  1.3554
14491TIP3    H264965   0.784   0.522   1.489  1.9249  2.0316 -1.7067
14492TIP3   OH264966   5.179   5.051   3.557  0.2455 -0.3642  0.3326
14492TIP3    H164967   5.196   5.043   3.464 -1.0048 -0.5909  0.1042
14492TIP3    H264968   5.207   4.967   3.594  1.2518 -0.0679  0.2538
14493TIP3   OH264969   6.480   5.819   0.917  0.6185  0.5821  0.0072
14493TIP3    H164970   6.530   5.741   0.891  1.2821  0.8680  0.4179
14493TIP3    H264971   6.545   5.876   0.957  0.5467  2.2173 -2.1364
14494TIP3   OH264972   2.250   3.701   1.053 -0.0195 -0.1888  0.6716
14494TIP3    H164973   2.291   3.655   0.980 -0.5719  0.1954  0.1085
14494TIP3    H264974   2.209   3.632   1.105  0.5521 -0.4842  0.7332
14495TIP3   OH264975   3.335   2.654   5.269 -0.0425  0.3657  0.1293
14495TIP3    H164976   3.240   2.666   5.269 -0.0206  0.5871  0.9013
14495TIP3    H264977   3.365   2.698   5.190 -0.5858  0.2980 -0.1118
14496TIP3   OH264978   5.407   0.461  13.097 -0.1831  0.0688 -0.1427
14496TIP3    H164979   5.392   0.528  13.031 -2.0504 -0.2504 -0.0861
14496TIP3    H264980   5.349   0.389  13.071  0.1219 -0.6178  1.0429
14497TIP3   OH264981   6.004   6.031   3.137  0.2155  0.2682 -0.2742
14497TIP3    H164982   6.031   6.121   3.122  1.4853 -0.6436 -4.1980
14497TIP3    H264983   6.008   5.990   3.050 -0.7965 -3.4371  1.3102
14498TIP3   OH264984   2.724   1.636   1.119  0.0194  0.3493 -0.0950
14498TIP3    H164985   2.749   1.675   1.202 -0.2750  0.7613 -0.1959
14498TIP3    H264986   2.630   1.654   1.111 -0.2065 -0.7535  0.0553
14499TIP3   OH264987   5.271   2.559   4.165  0.2429 -0.2364  0.3224
14499TIP3    H164988   5.361   2.545   4.136  1.2331  0.8219  2.7639
14499TIP3    H264989   5.232   2.471   4.164  1.6187 -0.8612  0.2660
14500TIP3   OH264990   5.524   0.052   4.062 -0.2289 -0.4863  0.0036
14500TIP3    H164991   5.493   0.009   4.141  0.2358  0.6598  0.8195
14500TIP3    H264992   5.499   0.143   4.072  0.0733 -0.2729 -1.0520
14501TIP3   OH264993   5.166   2.671   3.306  0.6698 -0.0097 -0.1798
14501TIP3    H164994   5.159   2.584   3.265  0.5174  0.0633 -0.3088
14501TIP3    H264995   5.218   2.722   3.245 -0.2450  0.3351 -0.6674
14502TIP3   OH264996   4.321   3.863   4.040  0.3757 -0.2924 -0.1469
14502TIP3    H164997   4.397   3.888   4.092 -0.4816  1.0910  0.4760
14502TIP3    H264998   4.254   3.928   4.062 -1.2154 -1.8760 -0.1466
14503TIP3   OH264999   6.221   3.022   4.519 -0.3559  0.2313 -0.2824
14503TIP3    H165000   6.146   3.065   4.480 -1.0962  0.2292  1.1039
14503TIP3    H265001   6.258   3.087   4.578 -1.2165 -0.8385  1.4836
14504TIP3   OH265002   2.164   4.521   3.736 -0.4944 -0.1415  0.4386
14504TIP3    H165003   2.124   4.446   3.691 -0.6784 -0.3956  1.0178
14504TIP3    H265004   2.209   4.483   3.811 -0.3923  0.3040  0.6047
14505TIP3   OH265005   1.660   2.161   2.683  0.4460 -0.2771 -0.7005
14505TIP3    H165006   1.582   2.117   2.716  0.7710  0.1892  0.7152
14505TIP3    H265007   1.634   2.253   2.672  0.7328 -0.1513 -0.3727
14506TIP3   OH265008   6.822   2.358   0.941  0.3868  0.3931 -0.1984
14506TIP3    H165009   6.859   2.445   0.928 -0.9030  0.8828 -0.6982
14506TIP3    H265010   6.833   2.315   0.856  0.6320  0.2189 -0.0788
14507TIP3   OH265011   3.957   3.028   2.059  0.2921 -0.7142 -0.2711
14507TIP3    H165012   3.944   2.997   1.969  1.5666 -0.1092 -0.6776
14507TIP3    H265013   3.930   3.119   2.057 -2.0799 -1.3572  0.5824
14508TIP3   OH265014   7.114   6.750   3.116 -0.1997  0.0173 -0.2935
14508TIP3    H165015   7.156   6.708   3.191 -0.9297 -0.8711 -0.3707
14508TIP3    H265016   7.082   6.834   3.149 -1.1048 -0.6613  0.5630
14509TIP3   OH265017   6.142   0.466   4.349  0.2973  0.2358  0.2200
14509TIP3    H165018   6.231   0.467   4.314  0.1812  0.5951 -0.0714
14509TIP3    H265019   6.147   0.522   4.427  0.3992 -0.0076  0.3886
14510TIP3   OH265020   6.782   4.876   1.080  0.4595 -0.2147  0.7506
14510TIP3    H165021   6.839   4.832   1.017 -1.9419 -2.9075  0.3235
14510TIP3    H265022   6.738   4.944   1.029  2.0881  0.8426  0.7223
14511TIP3   OH265023   1.693   3.375   4.128 -0.1025 -0.1861  0.6746
14511TIP3    H165024   1.664   3.338   4.044 -0.9593  1.8565  0.0547
14511TIP3    H265025   1.612   3.404   4.171  0.3817 -0.7059  1.9799
14512TIP3   OH265026   2.144   1.462  15.365  1.1630 -0.3244 -0.0737
14512TIP3    H165027   2.083   1.432  15.433  0.1023  0.7783 -0.5194
14512TIP3    H265028   2.087   1.495  15.295  2.2641 -0.5834 -1.1025
14513TIP3   OH265029   5.139   1.141   1.408  0.3866 -0.6753  0.4927
14513TIP3    H165030   5.211   1.191   1.446 -0.2165 -0.0282  0.8077
14513TIP3    H265031   5.081   1.208   1.370  0.0797 -1.2004  0.0297
14514TIP3   OH265032   6.735   2.022   4.978  0.2754 -0.3477 -0.1746
14514TIP3    H165033   6.714   2.056   5.065  1.6903  0.7172 -0.2276
14514TIP3    H265034   6.663   1.963   4.957 -1.7721  1.9013  0.3475
14515TIP3   OH265035   7.015   4.099   5.392  0.0362  0.8859  0.2347
14515TIP3    H165036   6.990   4.072   5.303  2.5279 -1.2212  0.1143
14515TIP3    H265037   6.962   4.045   5.450  1.1817 -0.5360 -0.0114
14516TIP3   OH265038   3.890   3.332   2.787  0.0121 -0.2977 -0.3779
14516TIP3    H165039   3.934   3.267   2.841  0.9665  0.3669 -0.3434
14516TIP3    H265040   3.815   3.285   2.749  0.6744 -1.4068 -0.3407
14517TIP3   OH265041   5.323   0.960   3.905 -0.0802 -0.5375  0.0349
14517TIP3    H165042   5.341   0.971   3.811 -0.1161 -2.1332 -0.1699
14517TIP3    H265043   5.384   0.892   3.933  0.2907  0.3070  1.3037
14518TIP3   OH265044   6.268   6.821   5.002  0.1863  0.3396  1.0109
14518TIP3    H165045   6.200   6.756   4.985  0.9610 -0.8035  2.1959
14518TIP3    H265046   6.317   6.825   4.920 -0.8639  0.6498  0.3882
14519TIP3   OH265047   4.694   1.177   1.043 -0.0150 -0.3242 -0.0649
14519TIP3    H165048   4.763   1.243   1.043 -0.2581 -0.0659  0.8720
14519TIP3    H265049   4.614   1.226   1.024 -0.0864 -0.4700 -0.1445
14520TIP3   OH265050   1.049   4.010   3.130 -0.5224 -1.0048 -0.1156
14520TIP3    H165051   1.119   4.000   3.194  0.2348 -1.0433 -0.9385
14520TIP3    H265052   1.094   4.023   3.047 -1.4966 -0.5840 -0.5870
14521TIP3   OH265053   2.425   3.207   2.635 -0.5295 -0.3601 -0.4208
14521TIP3    H165054   2.381   3.165   2.709 -1.5407 -0.7188 -1.2052
14521TIP3    H265055   2.386   3.166   2.557  0.2820  0.2366 -1.1611
14522TIP3   OH265056   0.014   0.265   4.213 -0.5940  0.6542  0.8170
14522TIP3    H165057  -0.040   0.227   4.283  0.0297 -3.6856 -0.8988
14522TIP3    H265058   0.103   0.238   4.233 -0.3877 -0.5739 -1.5347
14523TIP3   OH265059   2.525   3.543   3.150  0.2205  0.2010 -0.5554
14523TIP3    H165060   2.511   3.504   3.063  2.8205 -2.4764  0.1175
14523TIP3    H265061   2.616   3.573   3.148  1.2666 -2.5555  2.1384
14524TIP3   OH265062   4.290   3.492   2.250  0.2114 -0.1061  0.2672
14524TIP3    H165063   4.261   3.405   2.279  1.2451 -1.4914 -2.6586
14524TIP3    H265064   4.226   3.518   2.184  0.9084  0.5276 -0.1685
14525TIP3   OH265065   1.458   4.085   3.238 -0.8552 -0.1379  0.0784
14525TIP3    H165066   1.494   4.157   3.186  0.6405  0.1520  1.4596
14525TIP3    H265067   1.383   4.122   3.284 -0.0279  0.5934  0.8601
14526TIP3   OH265068   0.734   5.369   3.156 -0.5551 -0.4571  0.1030
14526TIP3    H165069   0.795   5.420   3.104 -1.4902  1.3838  0.7620
14526TIP3    H265070   0.698   5.305   3.095 -0.3243  0.5124 -1.0658
14527TIP3   OH265071   4.969   0.213   3.083  0.0744  1.0029 -0.0908
14527TIP3    H165072   5.024   0.278   3.128  1.1303  0.7554 -1.0074
14527TIP3    H265073   4.886   0.258   3.068  1.2638  2.6478 -1.9828
14528TIP3   OH265074   0.456   2.751   2.920  0.0506 -0.2256 -0.0175
14528TIP3    H165075   0.361   2.737   2.926  0.0751 -0.3188  0.1732
14528TIP3    H265076   0.471   2.831   2.971  0.2346 -0.9060  1.0237
14529TIP3   OH265077   5.366   3.015   4.348  0.1635 -0.3385  0.3106
14529TIP3    H165078   5.401   3.071   4.279 -0.9615  0.5965  0.4917
14529TIP3    H265079   5.420   2.937   4.345  0.1270 -0.2933 -1.6090
14530TIP3   OH265080   5.680   3.127   4.343  0.1448 -0.2101 -0.5328
14530TIP3    H165081   5.628   3.186   4.289 -0.6943  0.3694  0.8746
14530TIP3    H265082   5.658   3.039   4.311 -0.5244  0.1121 -0.9550
14531TIP3   OH265083   0.517   7.174   2.482 -0.2821 -0.0870 -0.3475
14531TIP3    H165084   0.572   7.178   2.404 -0.4516  1.7334 -0.4023
14531TIP3    H265085   0.568   7.123   2.545  2.1974  2.8682  0.1373
14532TIP3   OH265086   4.553   2.020   1.951  0.2434  0.1669 -0.2638
14532TIP3    H165087   4.535   1.973   2.032  1.2535 -0.0403 -0.1452
14532TIP3    H265088   4.468   2.029   1.908 -0.3429  0.5161  0.9415
14533TIP3   OH265089   2.563   5.951   4.237 -0.1123  0.1780 -0.5974
14533TIP3    H165090   2.480   5.967   4.191 -1.2739 -1.3741  0.8958
14533TIP3    H265091   2.540   5.889   4.306  2.0864  0.6457  0.5728
14534TIP3   OH265092   1.863   0.608   2.304 -0.3304 -0.1871  0.3005
14534TIP3    H165093   1.895   0.698   2.314 -1.7328  0.1936  1.5224
14534TIP3    H265094   1.786   0.615   2.248  0.0773 -0.7573 -0.3464
14535TIP3   OH265095   3.743   2.792   5.368  0.2825 -0.1771 -0.0393
14535TIP3    H165096   3.735   2.748   5.453  1.3622  0.0555  0.1961
14535TIP3    H265097   3.769   2.881   5.390 -0.2623  0.1146 -0.5825
14536TIP3   OH265098   2.037   6.868   0.798  0.2395  0.2721 -0.3783
14536TIP3    H165099   2.016   6.961   0.790  1.2991  0.4416 -1.4319
14536TIP3    H265100   2.073   6.844   0.712 -0.1775 -1.1552 -0.1793
14537TIP3   OH265101   6.800   4.901   3.320 -0.2381 -0.0827 -0.2319
14537TIP3    H165102   6.850   4.821   3.337 -1.1193 -0.7552 -0.7731
14537TIP3    H265103   6.740   4.908   3.394 -1.2420 -0.7811 -0.9676
14538TIP3   OH265104   5.313   2.210   2.485  0.7971 -0.0685  0.3104
14538TIP3    H165105   5.375   2.193   2.556  1.0252  0.6966  0.3025
14538TIP3    H265106   5.361   2.187   2.406  0.7980 -0.2196  0.3538
14539TIP3   OH265107   1.959   1.204   5.084  0.1031 -0.0795 -0.4579
14539TIP3    H165108   1.906   1.231   5.159  0.2790  1.6902 -0.9490
14539TIP3    H265109   2.049   1.218   5.112  0.2307 -0.8638 -0.4655
14540TIP3   OH265110   0.827   6.605   5.076  0.1224  1.0555  0.2973
14540TIP3    H165111   0.867   6.531   5.123  0.5831 -0.0121 -1.7330
14540TIP3    H265112   0.767   6.564   5.014 -2.5621  2.5763  1.8240
14541TIP3   OH265113   0.355   3.592   2.839 -0.0153 -0.2841 -0.3336
14541TIP3    H165114   0.386   3.644   2.914 -0.7061  1.2242 -1.0739
14541TIP3    H265115   0.425   3.601   2.774 -0.8426  1.0800 -1.0678
14542TIP3   OH265116   0.825   0.448   1.174  0.1849  0.0516  0.0882
14542TIP3    H165117   0.848   0.534   1.140 -1.7510  0.9885  1.1158
14542TIP3    H265118   0.821   0.459   1.268 -2.3321 -0.6058  0.0733
14543TIP3   OH265119   1.417   4.590   2.090 -0.0139  0.3273  0.1270
14543TIP3    H165120   1.328   4.623   2.086 -0.0818  0.1353  0.0795
14543TIP3    H265121   1.411   4.498   2.065  0.0687  0.0624  1.0535
14544TIP3   OH265122   0.525   0.604   4.347 -0.1288  0.2345 -0.2616
14544TIP3    H165123   0.490   0.567   4.428  0.1014  0.7510  0.0741
14544TIP3    H265124   0.615   0.574   4.344 -0.1453  0.1928 -0.3413
14545TIP3   OH265125   2.130   2.255  14.936  0.2980 -0.3855 -0.1652
14545TIP3    H165126   2.143   2.284  14.846  0.8073 -2.7668 -0.9034
14545TIP3    H265127   2.057   2.308  14.968  1.0836  1.5249 -1.4766
14546TIP3   OH265128   2.307   2.436   1.593  0.0936  0.5123 -0.1611
14546TIP3    H165129   2.290   2.349   1.555 -0.3296  1.1745 -1.5447
14546TIP3    H265130   2.273   2.430   1.682  0.8978 -1.0253  0.0707
14547TIP3   OH265131   0.560   3.363   2.257  0.9915  0.2053 -0.8825
14547TIP3    H165132   0.605   3.330   2.335 -2.5490  0.6459  1.4355
14547TIP3    H265133   0.540   3.285   2.206 -0.2222 -0.4850  0.6249
14548TIP3   OH265134   6.588   3.755   1.924 -0.6403  0.1958 -0.2905
14548TIP3    H165135   6.669   3.795   1.893 -0.2053  0.0948  0.6978
14548TIP3    H265136   6.524   3.826   1.923 -0.4122  0.3975 -0.6015
14549TIP3   OH265137   6.588   4.106   4.693 -0.1171  0.0413  0.7361
14549TIP3    H165138   6.628   4.192   4.681 -0.5440  0.2222  0.5980
14549TIP3    H265139   6.612   4.080   4.782  0.9116 -0.1691  0.4055
14550TIP3   OH265140   5.579   5.328   1.199  0.7800  0.5124  0.4604
14550TIP3    H165141   5.576   5.317   1.294  0.8889  2.6147  0.7458
14550TIP3    H265142   5.498   5.375   1.178  0.7871  0.1076 -0.4756
14551TIP3   OH265143   0.528   0.536   3.767  0.0289 -0.4436 -0.0298
14551TIP3    H165144   0.464   0.584   3.715  1.4939 -1.5020 -2.9075
14551TIP3    H265145   0.532   0.584   3.850 -2.2853  1.3435 -0.8900
14552TIP3   OH265146   5.893   1.759   2.516  0.3442  0.3960  0.1749
14552TIP3    H165147   5.915   1.669   2.490 -2.7429 -0.1342 -0.8176
14552TIP3    H265148   5.928   1.813   2.446 -0.4186 -0.3062 -0.7611
14553TIP3   OH265149   7.041   3.609   4.284  0.0295  0.2711  0.0048
14553TIP3    H165150   6.995   3.686   4.251  1.0045 -0.0110 -2.0580
14553TIP3    H265151   6.982   3.572   4.350 -1.5070  1.3961 -0.7232
14554TIP3   OH265152   0.452   0.660   4.961  0.0673  0.3901  0.3054
14554TIP3    H165153   0.425   0.705   5.041 -0.3130  2.3002 -0.8868
14554TIP3    H265154   0.434   0.722   4.890 -0.4098 -1.6063 -1.3737
14555TIP3   OH265155   6.863   2.959   3.658  0.3482  0.3141 -0.3199
14555TIP3    H165156   6.824   2.931   3.740  0.3590  2.8722  0.6093
14555TIP3    H265157   6.956   2.968   3.677 -0.1604  4.7245  0.5890
14556TIP3   OH265158   7.022   0.723   4.350 -0.0617  0.6386  0.3579
14556TIP3    H165159   7.073   0.721   4.268  2.0109 -1.1156  1.6348
14556TIP3    H265160   7.088   0.732   4.419 -1.4770 -1.5476  2.0444
14557TIP3   OH265161   2.183   1.892   5.011  0.0148 -0.1735 -0.0986
14557TIP3    H165162   2.171   1.973   5.060 -1.3324 -0.2014 -0.3535
14557TIP3    H265163   2.264   1.905   4.963 -0.8131  1.5481 -1.1022
14558TIP3   OH265164   3.129   3.474  14.966  0.3731  0.0945  1.1640
14558TIP3    H165165   3.080   3.502  14.888  0.5158 -0.1610  0.9799
14558TIP3    H265166   3.211   3.524  14.962  0.2340  0.3364  1.3346
14559TIP3   OH265167   6.401   3.442   0.262 -0.3855  0.1697 -0.6043
14559TIP3    H165168   6.372   3.523   0.220  1.4320  0.1709 -1.9165
14559TIP3    H265169   6.456   3.471   0.334 -1.3019  0.1264  0.1161
14560TIP3   OH265170   0.324   0.318   1.631 -0.1351 -0.0142 -0.2725
14560TIP3    H165171   0.241   0.355   1.661 -0.1351 -0.5824  0.4210
14560TIP3    H265172   0.299   0.262   1.557 -0.5917 -1.5915  1.0570
14561TIP3   OH265173   2.456   5.443   3.467 -0.4000 -0.4741  0.3096
14561TIP3    H165174   2.461   5.469   3.559 -2.2009 -1.5823  0.7513
14561TIP3    H265175   2.504   5.512   3.420  2.3796 -1.0352  2.2367
14562TIP3   OH265176   0.233   5.039   5.520  0.0751 -0.2391 -0.0688
14562TIP3    H165177   0.287   4.961   5.511 -0.0081 -0.6889  2.9009
14562TIP3    H265178   0.268   5.084   5.597 -0.8431  1.8740 -0.8524
14563TIP3   OH265179   0.556   4.512   4.206  0.8746 -0.0026 -0.8363
14563TIP3    H165180   0.469   4.542   4.179  0.6595 -0.3551 -0.5409
14563TIP3    H265181   0.600   4.490   4.124  0.0718 -1.4923 -0.8961
14564TIP3   OH265182   4.944   3.620   1.285 -0.3873 -0.4007 -0.1761
14564TIP3    H165183   4.857   3.582   1.298 -1.1061  1.0066 -0.7536
14564TIP3    H265184   4.963   3.605   1.193 -0.9736  1.2286 -0.5734
14565TIP3   OH265185   7.082   2.057   4.396  0.2137  0.4519  0.1336
14565TIP3    H165186   7.019   2.085   4.462  1.9611  1.2266  1.5259
14565TIP3    H265187   7.167   2.069   4.438  1.3158  0.0190 -1.9201
14566TIP3   OH265188   1.132   4.036   2.234  0.2242  0.0327  0.8874
14566TIP3    H165189   1.176   3.974   2.291  1.6800  0.5640  0.3512
14566TIP3    H265190   1.112   4.111   2.289 -0.3755 -0.3619  1.2186
14567TIP3   OH265191   1.775   3.159   4.973 -0.0497 -0.0104 -0.2780
14567TIP3    H165192   1.702   3.196   4.923 -0.1342  0.0965 -0.0739
14567TIP3    H265193   1.749   3.068   4.988 -0.1492  0.0316 -0.1924
14568TIP3   OH265194   6.578   5.915   2.627 -0.3883 -0.1582  0.7651
14568TIP3    H165195   6.632   5.956   2.560 -0.2957  1.0194  1.5515
14568TIP3    H265196   6.597   5.964   2.707 -0.6418 -1.4208  1.6206
14569TIP3   OH265197   1.157   2.485   4.752 -0.2692 -0.1415  0.3359
14569TIP3    H165198   1.189   2.419   4.813  0.0226  0.2217  0.5741
14569TIP3    H265199   1.096   2.538   4.804 -0.1893  0.0325  0.2491
14570TIP3   OH265200   7.122   3.391   3.974 -0.0826 -0.1943  0.1262
14570TIP3    H165201   7.168   3.395   3.890 -1.1401 -0.2697 -0.4675
14570TIP3    H265202   7.186   3.421   4.038  1.1105 -1.2239 -0.5540
14571TIP3   OH265203   3.768   4.612   1.831  0.1677  0.6199  0.2171
14571TIP3    H165204   3.711   4.643   1.761  1.0461  1.8640  0.0428
14571TIP3    H265205   3.855   4.647   1.809  0.7442 -0.1572  1.1737
14572TIP3   OH265206   4.872   5.214   4.262  0.4254 -0.3194  0.1089
14572TIP3    H165207   4.931   5.166   4.203 -0.4166 -0.8756 -0.2940
14572TIP3    H265208   4.931   5.264   4.319  1.3072 -1.2288  0.0244
14573TIP3   OH265209   5.846   3.311   1.484  0.0400 -0.5419  0.9312
14573TIP3    H165210   5.875   3.345   1.400 -1.7897 -0.2758  0.3884
14573TIP3    H265211   5.894   3.229   1.495 -0.3717 -1.0427 -0.8104
14574TIP3   OH265212   0.672   7.081   3.172 -0.0192  0.8586  0.0549
14574TIP3    H165213   0.609   7.073   3.100  2.6028 -0.0580 -2.2342
14574TIP3    H265214   0.717   7.164   3.156  1.4997  0.0086 -0.1399
14575TIP3   OH265215   3.289   3.995   0.152  0.6171 -0.1407 -0.3324
14575TIP3    H165216   3.382   3.998   0.172  0.4075  0.4764  0.5896
14575TIP3    H265217   3.284   3.947   0.070  1.6297 -1.4102  0.3251
14576TIP3   OH265218   3.173   6.534   1.678  0.3967 -0.3592 -0.0604
14576TIP3    H165219   3.175   6.625   1.650  0.0068 -0.7395 -1.3839
14576TIP3    H265220   3.182   6.537   1.773  1.3628  0.9955 -0.1918
14577TIP3   OH265221   2.616   3.176  13.732  0.2566 -0.4918  0.0940
14577TIP3    H165222   2.544   3.185  13.669 -0.2394 -1.0401  0.5776
14577TIP3    H265223   2.695   3.176  13.678 -0.0591  0.8472 -0.3877
14578TIP3   OH265224   3.243   2.682   5.735  0.0001  0.0670 -0.2230
14578TIP3    H165225   3.256   2.716   5.647  0.8772 -0.4322 -0.2950
14578TIP3    H265226   3.323   2.705   5.782 -0.3539  0.1048  0.3653
14579TIP3   OH265227   0.223   4.564   5.728 -0.3741 -0.0173 -0.8424
14579TIP3    H165228   0.176   4.482   5.741  0.6265 -0.3968  0.5029
14579TIP3    H265229   0.199   4.592   5.640 -1.5316 -1.2210 -0.9233
14580TIP3   OH265230   4.249   4.317   3.067 -0.2198 -0.2096 -0.2393
14580TIP3    H165231   4.203   4.286   2.989  1.2944 -0.2674 -1.1224
14580TIP3    H265232   4.244   4.412   3.061 -0.6601 -0.2238 -0.0796
14581TIP3   OH265233   3.355   2.281  14.900 -0.2432 -0.4502  0.3062
14581TIP3    H165234   3.409   2.333  14.841 -0.0655 -1.6586 -0.5953
14581TIP3    H265235   3.349   2.195  14.859  1.2190 -1.8123  2.7970
14582TIP3   OH265236   6.573   1.542   2.743 -0.2113 -1.1292 -0.0600
14582TIP3    H165237   6.557   1.635   2.758 -1.1443 -1.2512 -0.2809
14582TIP3    H265238   6.607   1.510   2.826  0.3380 -0.5455 -0.0514
14583TIP3   OH265239   3.670   0.084  14.748  0.0499 -0.3062 -0.5881
14583TIP3    H165240   3.655   0.038  14.830 -0.3295 -0.5498 -0.7932
14583TIP3    H265241   3.692   0.174  14.774 -1.7518  0.0517 -0.2836
14584TIP3   OH265242   0.655   7.116   1.612  0.0693  0.0384 -0.3971
14584TIP3    H165243   0.724   7.172   1.579  1.0725 -0.3107  1.0364
14584TIP3    H265244   0.576   7.170   1.611  0.7314  1.0013 -0.3859
14585TIP3   OH265245   1.747   7.117   2.395  0.1109  0.0531 -0.1741
14585TIP3    H165246   1.767   7.109   2.302 -1.1722  0.9508 -0.5431
14585TIP3    H265247   1.652   7.116   2.399  0.1622 -0.0021  1.1358
14586TIP3   OH265248   5.507   0.990   0.794 -0.0776 -0.3961 -0.4796
14586TIP3    H165249   5.557   1.050   0.850  1.8711 -2.1179 -0.3395
14586TIP3    H265250   5.448   1.047   0.745  1.0543  1.5530  0.3654
14587TIP3   OH265251   0.311   2.091   3.309 -0.8337 -0.5581  0.7212
14587TIP3    H165252   0.244   2.024   3.300 -1.3048 -0.1033  0.8122
14587TIP3    H265253   0.358   2.068   3.389  0.1795 -1.8022 -0.2179
14588TIP3   OH265254   5.339   0.795   1.889  0.0291  0.0332  0.4957
14588TIP3    H165255   5.416   0.738   1.887  0.6662  0.9194 -1.5401
14588TIP3    H265256   5.270   0.741   1.927  0.7684 -1.9333 -0.8755
14589TIP3   OH265257   2.962   5.730   4.776 -0.2755  0.4364  0.3379
14589TIP3    H165258   2.936   5.782   4.700 -3.7938 -3.0032 -0.9671
14589TIP3    H265259   3.057   5.717   4.765 -0.2198  2.4597 -1.8693
14590TIP3   OH265260   5.178   4.395  13.458  0.2424 -0.2092 -0.6603
14590TIP3    H165261   5.208   4.388  13.549  1.3991  1.4415 -0.8915
14590TIP3    H265262   5.207   4.314  13.417 -1.7122 -1.6992  0.8195
14591TIP3   OH265263   4.954   0.021   4.675 -0.1605 -0.0704  0.2783
14591TIP3    H165264   4.939   0.082   4.603 -1.3901 -0.6067  0.0683
14591TIP3    H265265   4.915   0.063   4.751 -1.0116 -0.5781  0.1324
14592TIP3   OH265266   2.053   3.253   3.123 -1.0772  0.3632  0.8388
14592TIP3    H165267   2.126   3.205   3.083  0.2046  1.9527  1.2379
14592TIP3    H265268   2.022   3.195   3.192 -0.7543 -0.7047  0.1026
14593TIP3   OH265269   3.247   0.689   0.427 -0.0112 -0.2219 -0.2298
14593TIP3    H165270   3.292   0.698   0.343 -1.5423  1.0375 -0.9401
14593TIP3    H265271   3.195   0.609   0.417 -1.6000  0.9022 -1.1773
14594TIP3   OH265272   0.501   1.876   3.017 -0.2809  0.5577 -0.2742
14594TIP3    H165273   0.553   1.810   3.062  0.0358  1.0153  0.0361
14594TIP3    H265274   0.555   1.955   3.020 -0.4238  0.6936 -1.1121
14595TIP3   OH265275   1.000   2.116   1.869  0.3984 -0.7027 -0.1481
14595TIP3    H165276   1.000   2.105   1.774 -0.3867 -1.4695 -0.0695
14595TIP3    H265277   1.055   2.045   1.901  0.9277 -0.2472 -0.0512
14596TIP3   OH265278   1.150   3.469   5.003  0.3399  0.0204 -0.2330
14596TIP3    H165279   1.196   3.501   4.925 -0.9096  0.2948 -0.8746
14596TIP3    H265280   1.212   3.409   5.044  1.2831  0.4015 -1.0544
14597TIP3   OH265281   1.657   6.515   0.743  0.4512  0.3386 -0.0911
14597TIP3    H165282   1.576   6.528   0.693  1.0644 -0.0111 -1.1664
14597TIP3    H265283   1.688   6.428   0.718  1.5042  0.7310 -0.1619
14598TIP3   OH265284   2.681   5.119   3.267 -0.0737  0.5312  0.9225
14598TIP3    H165285   2.599   5.155   3.231 -0.4122  1.8859  2.9109
14598TIP3    H265286   2.652   5.047   3.323  0.3175 -0.5428 -0.2364
14599TIP3   OH265287   2.159   2.754   3.318 -0.1438 -0.0859 -0.0173
14599TIP3    H165288   2.110   2.676   3.344 -1.4240  0.9583  0.7167
14599TIP3    H265289   2.094   2.811   3.278  0.8443  0.5101 -0.8113
14600TIP3   OH265290   6.392   2.579   3.031  0.6315 -0.1742 -0.1879
14600TIP3    H165291   6.383   2.488   3.060 -0.1912 -0.4969 -1.4178
14600TIP3    H265292   6.364   2.630   3.107  1.3701 -0.9343  0.6120
14601TIP3   OH265293   5.061   1.301   2.617  0.1806 -0.2674 -0.4262
14601TIP3    H165294   5.032   1.306   2.525 -1.6837  1.3239  0.2051
14601TIP3    H265295   5.025   1.380   2.657  1.2934 -0.7659  1.6072
14602TIP3   OH265296   6.904   6.682   1.777  0.1448  0.1241  0.1586
14602TIP3    H165297   6.909   6.681   1.681 -0.1294  2.3111  0.0961
14602TIP3    H265298   6.991   6.657   1.806 -0.4272 -2.9362 -0.6294
14603TIP3   OH265299   2.863   5.977  14.310 -0.2336 -0.0587 -0.0012
14603TIP3    H165300   2.800   5.963  14.239 -1.7939 -0.7589  1.4679
14603TIP3    H265301   2.835   5.915  14.379  1.9649 -0.2578  0.7494
14604TIP3   OH265302   1.369   0.795   3.926  0.1126  0.9667 -0.5864
14604TIP3    H165303   1.278   0.780   3.952  0.0785  1.2632 -0.5435
14604TIP3    H265304   1.372   0.887   3.900  0.2259  0.7645 -1.3034
14605TIP3   OH265305   5.144   6.954  15.174  0.1008  0.0243  0.8564
14605TIP3    H165306   5.176   6.989  15.091  2.2404 -3.1499  0.2433
14605TIP3    H265307   5.049   6.964  15.170  0.2367  0.4904 -1.6912
14606TIP3   OH265308   4.852   2.102   2.451  0.3361 -0.6549  0.5158
14606TIP3    H165309   4.785   2.058   2.503 -0.2440 -0.4053 -0.0102
14606TIP3    H265310   4.811   2.184   2.423  0.7356 -0.6562 -0.0954
14607TIP3   OH265311   2.720   1.056   2.761 -0.0510  0.8445 -0.6660
14607TIP3    H165312   2.760   1.136   2.727 -0.3980  0.6773 -1.4779
14607TIP3    H265313   2.792   1.008   2.801 -0.2485  2.6708  2.0064
14608TIP3   OH265314   3.911   4.520   5.658  0.3427  0.1995 -0.8586
14608TIP3    H165315   3.872   4.498   5.743 -2.7675  0.1769 -2.2327
14608TIP3    H265316   3.977   4.586   5.679 -1.1623  1.0361  1.4910
14609TIP3   OH265317   0.041   2.076   1.910 -0.4468 -0.1413 -0.3142
14609TIP3    H165318   0.008   2.120   1.988 -1.2255  1.0531 -1.3044
14609TIP3    H265319   0.058   2.146   1.848  0.7652 -1.0242 -1.0158
14610TIP3   OH265320   0.666   3.798   2.800 -0.0986 -0.2568  0.9104
14610TIP3    H165321   0.652   3.892   2.809  0.0058 -0.3349  1.9391
14610TIP3    H265322   0.681   3.767   2.889  0.9620 -1.0728  0.4679
14611TIP3   OH265323   0.482   1.864   4.951  0.6167  0.0816  0.1487
14611TIP3    H165324   0.519   1.838   5.035 -0.6175  2.7237  1.5341
14611TIP3    H265325   0.536   1.818   4.886  2.8190 -0.4122  2.2871
14612TIP3   OH265326   3.568   2.614   3.861 -0.1358 -0.0555  0.5446
14612TIP3    H165327   3.578   2.631   3.767  1.5848  1.8278  1.0562
14612TIP3    H265328   3.633   2.547   3.880 -0.0926 -0.0246  0.5067
14613TIP3   OH265329   3.516   2.698   1.981 -0.3006  0.4751 -0.6058
14613TIP3    H165330   3.563   2.617   2.002 -0.8062 -0.0444 -1.4729
14613TIP3    H265331   3.458   2.712   2.057 -0.3121 -0.0489 -0.5178
14614TIP3   OH265332   6.098   6.285   0.991 -0.2112 -0.2605  0.2980
14614TIP3    H165333   6.098   6.376   0.961 -0.7425  0.3168  1.9733
14614TIP3    H265334   6.185   6.252   0.969  0.0795  0.7344 -0.0694
14615TIP3   OH265335   4.745   4.262   2.407 -0.0037  0.4050 -0.2850
14615TIP3    H165336   4.655   4.231   2.396  0.3249 -0.1122 -1.6965
14615TIP3    H265337   4.735   4.354   2.433 -0.9454  0.5649 -1.1441
14616TIP3   OH265338   6.764   1.841   3.782 -0.4920  0.2577  0.2623
14616TIP3    H165339   6.817   1.803   3.712 -0.5462  0.1989  0.2520
14616TIP3    H265340   6.705   1.901   3.737  0.0831  0.9002  0.3630
14617TIP3   OH265341   1.419   4.350   3.139  0.0527 -0.1102  0.4553
14617TIP3    H165342   1.486   4.418   3.134 -0.6182  0.5682  0.7319
14617TIP3    H265343   1.398   4.331   3.047 -1.6395  1.9184  0.3887
14618TIP3   OH265344   0.738   4.184   3.134 -0.3742 -0.3822  0.4959
14618TIP3    H165345   0.790   4.230   3.199 -0.4724  0.1643  0.1913
14618TIP3    H265346   0.754   4.091   3.151  0.4281 -0.2205  0.6198
14619TIP3   OH265347   0.943   0.036  14.485  0.0236 -0.8366  0.5863
14619TIP3    H165348   0.954   0.123  14.523  1.5754 -0.6699 -0.1892
14619TIP3    H265349   0.862   0.040  14.435  1.1004  0.7717 -1.0707
14620TIP3   OH265350   5.801   6.962   1.869  0.6704 -0.0752  0.1875
14620TIP3    H165351   5.745   6.990   1.941  1.0060 -2.2675  1.3621
14620TIP3    H265352   5.765   6.877   1.842  2.1454 -0.5317 -0.4305
14621TIP3   OH265353   3.090   1.340   2.325  0.6063  0.7283 -1.2346
14621TIP3    H165354   3.145   1.273   2.364 -0.6414 -0.4102 -1.3951
14621TIP3    H265355   3.050   1.298   2.249  0.8527  2.0696 -2.1321
14622TIP3   OH265356   2.347   6.499   3.020  0.6656  0.1830  0.1992
14622TIP3    H165357   2.274   6.555   3.049  0.5365  0.4202 -0.5738
14622TIP3    H265358   2.349   6.428   3.083  0.5261  0.8155  0.9220
14623TIP3   OH265359   5.355   4.503   1.563 -0.0660 -0.9661 -0.5266
14623TIP3    H165360   5.370   4.505   1.468 -0.1595 -0.2949 -0.5278
14623TIP3    H265361   5.288   4.569   1.578  0.5521 -0.4784  0.1116
14624TIP3   OH265362   1.722   1.450   3.672 -0.2490  0.5937  0.1660
14624TIP3    H165363   1.773   1.371   3.686 -1.4478  0.0144  1.3584
14624TIP3    H265364   1.631   1.419   3.665 -0.7171  1.8365  0.5604
14625TIP3   OH265365   1.904   1.097   2.301  0.0283 -0.6559 -0.2255
14625TIP3    H165366   1.978   1.155   2.323 -0.0470 -0.2668 -0.9884
14625TIP3    H265367   1.940   1.009   2.309  0.6789 -0.4593 -0.9594
14626TIP3   OH265368   5.027   2.105   2.842 -0.1631 -0.7089  0.7031
14626TIP3    H165369   5.046   2.074   2.753 -0.9046 -0.5334  0.4769
14626TIP3    H265370   5.098   2.166   2.862 -1.3990  1.3219 -0.8309
14627TIP3   OH265371   5.157   1.411   3.245  0.2405 -0.4305 -0.2552
14627TIP3    H165372   5.230   1.353   3.222  0.9007 -0.1352  1.0543
14627TIP3    H265373   5.114   1.368   3.319  0.0234  0.1651 -0.0318
14628TIP3   OH265374   6.221   1.032   2.721  0.0254  0.1997  0.2152
14628TIP3    H165375   6.126   1.032   2.711  0.0060 -0.2710  0.3855
14628TIP3    H265376   6.237   1.087   2.798 -0.0857  0.5490 -0.0103
14629TIP3   OH265377   6.876   1.905   2.863  0.0093  0.2045  0.4913
14629TIP3    H165378   6.809   1.973   2.855 -1.2571 -0.9456  1.1990
14629TIP3    H265379   6.875   1.880   2.955  0.4853 -0.7470  0.2504
14630TIP3   OH265380   1.733   5.870   0.576  1.0305 -1.0997 -0.2995
14630TIP3    H165381   1.696   5.949   0.538  0.5691 -0.5357  1.3001
14630TIP3    H265382   1.657   5.821   0.608  1.2097 -2.7257 -2.2441
14631TIP3   OH265383   6.423   2.234   1.379 -0.0159  0.0515 -0.4434
14631TIP3    H165384   6.483   2.239   1.304  0.7713 -0.2085  0.1588
14631TIP3    H265385   6.458   2.163   1.433 -1.9084 -1.3372 -0.9632
14632TIP3   OH265386   1.692   4.691   4.253 -0.1873 -0.0979 -0.6505
14632TIP3    H165387   1.758   4.622   4.260 -0.1358  0.0300  0.1166
14632TIP3    H265388   1.735   4.769   4.288 -0.4793  0.1714 -0.8836
14633TIP3   OH265389   4.268   0.616   0.517  0.0106  0.2724 -0.5216
14633TIP3    H165390   4.239   0.573   0.436 -3.0200  0.7817  0.2411
14633TIP3    H265391   4.305   0.544   0.570  0.1746 -0.4012 -1.5273
14634TIP3   OH265392   4.606   0.636   3.972 -0.0351 -0.3150 -0.0343
14634TIP3    H165393   4.573   0.722   3.946 -0.8153 -0.7253 -0.4256
14634TIP3    H265394   4.632   0.647   4.064  2.5019  1.0715 -0.8742
14635TIP3   OH265395   2.015   0.826   2.230 -0.2963  0.0831  0.6616
14635TIP3    H165396   2.062   0.744   2.217 -1.9478 -0.6739 -0.6921
14635TIP3    H265397   1.957   0.834   2.154  0.7143  3.1431  0.1298
14636TIP3   OH265398   0.852   3.210   5.081  0.1346  0.5861 -0.4984
14636TIP3    H165399   0.865   3.252   4.996 -0.2772  0.5539 -0.5799
14636TIP3    H265400   0.786   3.143   5.065 -2.6226  2.9059  0.5298
14637TIP3   OH265401   5.208   3.379   4.161  0.0104  0.2823 -0.5402
14637TIP3    H165402   5.264   3.456   4.152 -0.3780  0.6954  0.4517
14637TIP3    H265403   5.163   3.371   4.077 -0.8030  1.8167 -0.2532
14638TIP3   OH265404   6.765   5.681   5.388  0.5100  0.8914  0.0797
14638TIP3    H165405   6.793   5.759   5.435  1.4192  0.1451  0.8086
14638TIP3    H265406   6.839   5.621   5.395 -0.2533 -0.1136 -0.2973
14639TIP3   OH265407   1.931   6.143   5.018  0.0885 -0.4559 -0.3975
14639TIP3    H165408   1.984   6.216   4.986 -2.8084  1.3075 -1.3958
14639TIP3    H265409   1.984   6.065   5.002  2.3427  1.2239 -1.3573
14640TIP3   OH265410   2.128   1.676   2.689 -0.0949  0.0103  0.2241
14640TIP3    H165411   2.134   1.657   2.783  0.0646 -0.4057  0.1309
14640TIP3    H265412   2.131   1.771   2.684  2.1076 -0.0261  0.4952
14641TIP3   OH265413   3.796   6.127   2.131 -0.3833 -0.5660  0.4511
14641TIP3    H165414   3.748   6.095   2.208 -0.5415  0.4526  0.7735
14641TIP3    H265415   3.728   6.154   2.070 -0.2515  3.3580  1.9317
14642TIP3   OH265416   3.892   0.171   3.525  0.2292  0.1053 -0.5492
14642TIP3    H165417   3.924   0.088   3.560  0.6567 -0.0712 -1.3522
14642TIP3    H265418   3.969   0.214   3.489 -0.0232  0.7732 -0.3127
14643TIP3   OH265419   4.004   5.123   3.094  0.4480  0.0654 -0.4447
14643TIP3    H165420   4.009   5.032   3.121 -1.4879  0.0566 -0.0178
14643TIP3    H265421   3.940   5.123   3.023  0.2403  1.1260 -0.2639
14644TIP3   OH265422   3.020   2.802   4.336 -0.8026  0.1377 -0.1199
14644TIP3    H165423   2.960   2.864   4.293  0.5269  1.2314 -0.4242
14644TIP3    H265424   3.051   2.746   4.265 -0.6550  0.2410 -0.1367
14645TIP3   OH265425   1.609   5.294   1.250 -0.1708  0.9341  0.2023
14645TIP3    H165426   1.623   5.257   1.337 -1.8047  0.4899  0.2906
14645TIP3    H265427   1.696   5.298   1.212  0.4161 -0.0271  1.3995
14646TIP3   OH265428   3.551   1.336   0.857 -0.2179  0.5827  0.7679
14646TIP3    H165429   3.494   1.261   0.840 -0.0568  0.8048 -0.8071
14646TIP3    H265430   3.564   1.375   0.771  2.9454  0.0829  0.9885
14647TIP3   OH265431   2.605   7.064   2.545 -0.7144  0.2088  0.1056
14647TIP3    H165432   2.538   7.125   2.514 -0.8668 -0.4291 -0.8250
14647TIP3    H265433   2.606   7.077   2.640 -2.2948  0.0773  0.1497
14648TIP3   OH265434   1.381   4.819   1.222 -0.1682  0.6383 -0.6615
14648TIP3    H165435   1.403   4.911   1.205 -0.7946  1.3715  2.2882
14648TIP3    H265436   1.428   4.798   1.302 -1.3674 -1.1226 -0.4066
14649TIP3   OH265437   7.083   3.572   3.137 -0.3500  0.0294 -0.0497
14649TIP3    H165438   7.036   3.633   3.194 -1.4478 -0.3569 -0.5322
14649TIP3    H265439   7.166   3.616   3.118  0.6088 -0.3762  2.8966
14650TIP3   OH265440   0.477   0.006  15.527  0.3110  0.1406  0.3786
14650TIP3    H165441   0.535   0.083  15.528 -1.3310  1.4073  2.1751
14650TIP3    H265442   0.390   0.042  15.542 -0.7219 -1.9215 -0.5464
14651TIP3   OH265443   1.785   6.307   2.824  0.4402 -0.5577  0.3402
14651TIP3    H165444   1.717   6.317   2.890 -0.6038 -1.4736 -0.5799
14651TIP3    H265445   1.811   6.215   2.829  0.2514 -0.6675 -0.6268
14652TIP3   OH265446   1.810   6.306   3.145 -0.1862 -0.1795  0.5953
14652TIP3    H165447   1.870   6.357   3.199  0.5096  0.5912 -0.9014
14652TIP3    H265448   1.861   6.231   3.115  0.5273  1.2442 -1.9001
14653TIP3   OH265449   1.531   0.885   1.773 -0.2127  0.0654  0.1040
14653TIP3    H165450   1.468   0.898   1.844  0.7413  0.2779  0.9202
14653TIP3    H265451   1.594   0.956   1.784  1.7137 -1.7596  0.9812
14654TIP3   OH265452   6.438   1.145  14.463  0.1480  0.6997  0.5002
14654TIP3    H165453   6.399   1.224  14.426  0.4903  0.7591  0.2622
14654TIP3    H265454   6.531   1.152  14.443  0.0011 -0.3897 -0.6844
14655TIP3   OH265455   3.014   6.315   3.941 -0.7670 -0.1021  0.0365
14655TIP3    H165456   3.042   6.378   3.875 -0.6197 -0.9059 -0.6747
14655TIP3    H265457   2.925   6.342   3.964 -0.4513  0.7794  0.2517
14656TIP3   OH265458   3.602   1.538  15.497  0.1537  0.0106  0.0969
14656TIP3    H165459   3.549   1.563  15.573  0.6526 -0.2729  0.5361
14656TIP3    H265460   3.583   1.605  15.432 -1.3186 -0.4934 -0.0094
14657TIP3   OH265461   2.083   1.267   4.386  0.1366 -0.2109  0.2927
14657TIP3    H165462   2.026   1.334   4.425 -0.4888 -0.6439  0.1337
14657TIP3    H265463   2.072   1.190   4.442  1.2478 -0.0227  0.7703
14658TIP3   OH265464   1.721   3.338   2.868 -0.3594  0.2441 -0.1417
14658TIP3    H165465   1.680   3.315   2.951  0.4240  1.0927  0.4987
14658TIP3    H265466   1.652   3.327   2.802 -0.7638 -1.1855  0.5117
14659TIP3   OH265467   3.441   5.968   3.197  0.0810 -0.0935 -0.3031
14659TIP3    H165468   3.422   5.909   3.124  2.2948 -0.7096 -0.4079
14659TIP3    H265469   3.425   5.915   3.275  2.5291 -1.0202 -0.3996
14660TIP3   OH265470   1.218   0.963  14.574 -0.1640  0.3266  0.3534
14660TIP3    H165471   1.188   1.050  14.548  1.6092  1.3130  1.5267
14660TIP3    H265472   1.185   0.952  14.663  0.4255  0.2144  0.5632
14661TIP3   OH265473   3.891   5.461   1.487 -1.0155 -0.1793 -0.0092
14661TIP3    H165474   3.953   5.534   1.478 -0.4542 -0.7234 -0.5247
14661TIP3    H265475   3.809   5.495   1.450 -0.5391 -0.0840 -0.9774
14662TIP3   OH265476   6.799   1.149   4.532  0.1381 -0.8991 -0.1244
14662TIP3    H165477   6.764   1.121   4.448  0.2960 -1.3119 -0.0535
14662TIP3    H265478   6.816   1.242   4.521  0.6787 -1.0639 -0.7335
14663TIP3   OH265479   5.986   3.822   2.098  0.4441 -0.1888 -0.4848
14663TIP3    H165480   5.894   3.812   2.121  0.7204 -0.2590  0.6263
14663TIP3    H265481   5.988   3.816   2.003 -1.0584  2.6621 -0.7323
14664TIP3   OH265482   3.886   5.550   2.086 -0.5590  0.0455 -0.3607
14664TIP3    H165483   3.884   5.504   2.170 -0.0384 -0.0436 -0.3944
14664TIP3    H265484   3.805   5.600   2.084 -0.5692  0.0524  0.2014
14665TIP3   OH265485   3.801   6.217   1.356  0.5196  0.0090 -0.0321
14665TIP3    H165486   3.722   6.206   1.303 -0.5552  0.8410  1.3664
14665TIP3    H265487   3.804   6.139   1.410  1.1821 -0.4632 -0.7367
14666TIP3   OH265488   1.573   3.045  15.231 -0.1662 -0.1173  0.2779
14666TIP3    H165489   1.584   3.036  15.136  0.0815 -0.0651  0.2996
14666TIP3    H265490   1.657   3.081  15.261 -0.4840  0.5044  0.4259
14667TIP3   OH265491   1.275   0.543   1.193 -0.3466  1.0509 -0.2013
14667TIP3    H165492   1.213   0.564   1.263 -1.0204 -1.8425  0.1556
14667TIP3    H265493   1.295   0.450   1.206  2.7481  1.4694 -1.3577
14668TIP3   OH265494   1.774   1.491  14.750 -0.5015  0.2728  0.2097
14668TIP3    H165495   1.748   1.484  14.842 -0.6846  1.3507  0.2498
14668TIP3    H265496   1.800   1.583  14.740 -0.1443  0.0689 -0.7265
14669TIP3   OH265497   4.404   4.780   4.942  0.2684 -0.2383  0.2461
14669TIP3    H165498   4.459   4.710   4.976  0.3144 -0.4052 -0.1726
14669TIP3    H265499   4.354   4.809   5.018  0.6226 -0.3735  0.5341
14670TIP3   OH265500   4.371   1.716  14.532 -0.4549  0.3362  0.0277
14670TIP3    H165501   4.365   1.621  14.544 -1.2221  0.4259  0.3833
14670TIP3    H265502   4.344   1.731  14.441  0.2050  0.1644 -0.1985
14671TIP3   OH265503   0.883   0.483   0.279 -0.4814 -0.1756 -0.7087
14671TIP3    H165504   0.937   0.529   0.343  0.9097 -0.4282 -1.6622
14671TIP3    H265505   0.930   0.494   0.196 -1.4386 -1.1621 -1.4045
14672TIP3   OH265506   1.820   1.798   3.484  0.6011 -0.0420 -0.1367
14672TIP3    H165507   1.819   1.750   3.567  1.0469  0.2855  0.0541
14672TIP3    H265508   1.748   1.759   3.434  0.8064 -0.7544  0.1094
14673TIP3   OH265509   2.771   5.066   1.171  0.2248  0.0972  0.4964
14673TIP3    H165510   2.820   5.147   1.181  1.8552 -0.7344 -0.5219
14673TIP3    H265511   2.787   5.040   1.080  0.6113 -1.9094  1.1095
14674TIP3   OH265512   1.046   2.487   3.320 -0.2664  0.0394 -0.7531
14674TIP3    H165513   0.982   2.549   3.286 -1.0457 -0.2184  0.2077
14674TIP3    H265514   1.075   2.526   3.403  0.6468  0.0369 -1.0667
14675TIP3   OH265515   2.973   3.835   0.301  1.0185  0.4210  0.5046
14675TIP3    H165516   2.910   3.767   0.277  2.0743 -0.2839 -0.3741
14675TIP3    H265517   2.927   3.891   0.363 -0.1657 -0.5963  0.5563
14676TIP3   OH265518   4.361   1.161   1.891  0.5949 -0.0527  0.4395
14676TIP3    H165519   4.361   1.215   1.812  0.6180 -2.0575 -0.9497
14676TIP3    H265520   4.268   1.146   1.909  0.6292 -1.5386 -0.5697
14677TIP3   OH265521   1.616   1.143   3.129  0.2337 -0.1047  0.3045
14677TIP3    H165522   1.616   1.078   3.058  1.2266 -0.8265  0.9534
14677TIP3    H265523   1.574   1.220   3.091  1.2117 -0.3070 -1.2423
14678TIP3   OH265524   2.223   5.658   2.061 -0.5604  0.1595  0.2309
14678TIP3    H165525   2.190   5.608   1.987 -1.1821  1.6789 -0.5212
14678TIP3    H265526   2.271   5.731   2.022  1.7894 -0.7592  1.3132
14679TIP3   OH265527   5.755   3.754   5.369  0.4360 -0.3488  0.2738
14679TIP3    H165528   5.824   3.809   5.405  2.2516 -2.1370 -0.4121
14679TIP3    H265529   5.698   3.735   5.444  0.2357  1.7706  0.6773
14680TIP3   OH265530   1.194   0.463   2.715 -0.2987  0.1867 -0.8616
14680TIP3    H165531   1.247   0.480   2.637 -1.0175  2.0047 -0.9745
14680TIP3    H265532   1.108   0.440   2.682 -0.3568  0.0663 -0.6270
14681TIP3   OH265533   2.802   5.185  13.664 -0.3101 -0.2110  0.6268
14681TIP3    H165534   2.825   5.176  13.757 -0.9287  0.5991  0.8653
14681TIP3    H265535   2.798   5.279  13.649 -3.5471 -0.2785  0.6270
14682TIP3   OH265536   4.502   5.804   0.784  0.3929  0.2692  0.1838
14682TIP3    H165537   4.548   5.882   0.752  0.7422  0.9059  2.1240
14682TIP3    H265538   4.425   5.838   0.829  0.6891 -0.4607  1.2827
14683TIP3   OH265539   2.519   3.415  13.561 -0.1117  0.2853 -0.1668
14683TIP3    H165540   2.472   3.459  13.491 -2.2463 -2.0765 -0.2749
14683TIP3    H265541   2.545   3.331  13.524  2.1255  0.5738  0.6656
14684TIP3   OH265542   0.691   1.217   3.728  0.7348 -0.0143 -0.6057
14684TIP3    H165543   0.651   1.210   3.814  0.5666  0.8563 -0.6151
14684TIP3    H265544   0.682   1.129   3.690  0.2882 -0.2401  0.0274
14685TIP3   OH265545   1.910   0.742  12.818  0.5259 -0.4869  0.3827
14685TIP3    H165546   1.938   0.822  12.773 -0.0886 -1.2542 -1.4063
14685TIP3    H265547   1.963   0.673  12.779 -1.2509 -1.4200 -0.4848
14686TIP3   OH265548   1.376   5.590   5.794  0.0943 -0.1426 -0.6133
14686TIP3    H165549   1.471   5.603   5.799  0.3869 -2.2708 -0.2575
14686TIP3    H265550   1.359   5.580   5.700  0.0814  1.0658 -0.7531
14687TIP3   OH265551   0.350   6.046   3.929  0.5866  0.3469 -0.7165
14687TIP3    H165552   0.335   6.141   3.927  2.0201  0.5781 -0.9646
14687TIP3    H265553   0.346   6.024   4.022 -0.0712  0.5896 -0.6806
14688TIP3   OH265554   5.189   2.932   2.782  0.3067 -0.4228 -0.3784
14688TIP3    H165555   5.251   3.005   2.773 -0.4958  0.4587  0.9552
14688TIP3    H265556   5.143   2.929   2.699  1.4808 -0.4685 -1.0374
14689TIP3   OH265557   4.592   6.648   4.629 -0.5012 -0.1481 -0.2115
14689TIP3    H165558   4.558   6.734   4.603 -1.0430 -0.1898  0.3607
14689TIP3    H265559   4.515   6.592   4.634 -0.4590 -0.0343  1.8961
14690TIP3   OH265560   2.625   1.596  12.613  0.1763  0.6384  0.5790
14690TIP3    H165561   2.705   1.609  12.664  1.2522 -0.3818 -0.7936
14690TIP3    H265562   2.653   1.608  12.522 -1.0702 -0.5391  0.0333
14691TIP3   OH265563   2.312   6.939   1.693  0.2007  0.1915  0.8532
14691TIP3    H165564   2.363   6.881   1.637 -1.3905 -0.9151  0.5159
14691TIP3    H265565   2.366   6.951   1.771  0.9146 -1.0564  0.5666
14692TIP3   OH265566   6.816   7.087   0.124  0.3740 -0.7284 -0.2269
14692TIP3    H165567   6.779   7.129   0.046  1.4306  0.3238 -0.1678
14692TIP3    H265568   6.837   7.159   0.183 -0.0220 -1.4973  0.8635
14693TIP3   OH265569   1.189   0.078   1.323  0.0757 -0.0198 -0.1462
14693TIP3    H165570   1.138   0.151   1.290 -1.3328 -2.0182 -2.5477
14693TIP3    H265571   1.125   0.023   1.370  0.4070 -1.4305 -1.3062
14694TIP3   OH265572   5.300   7.091   3.405 -0.0715 -0.0890  0.0940
14694TIP3    H165573   5.246   7.106   3.482 -2.2829 -1.0593 -1.2242
14694TIP3    H265574   5.349   7.172   3.393 -1.0499  0.7091  1.4610
14695TIP3   OH265575   2.706   4.302   0.631 -0.5241 -0.0897  0.0847
14695TIP3    H165576   2.758   4.338   0.702 -1.2370  1.0429  0.0296
14695TIP3    H265577   2.765   4.306   0.555 -0.6955  1.2232  0.0136
14696TIP3   OH265578   2.666   2.518   3.664 -0.0666 -0.0589  0.3297
14696TIP3    H165579   2.643   2.430   3.635  0.5333 -0.3840  0.8141
14696TIP3    H265580   2.582   2.562   3.677 -0.3542 -0.3436 -0.5729
14697TIP3   OH265581   1.843   6.553   1.946 -0.2441 -0.3362 -0.0847
14697TIP3    H165582   1.784   6.520   2.014 -0.8542  0.9426  0.0146
14697TIP3    H265583   1.924   6.572   1.993  0.0803 -1.5532 -0.1225
14698TIP3   OH265584   1.157   0.293  15.542  0.1981 -0.3049  0.7699
14698TIP3    H165585   1.214   0.329  15.610  0.6310 -2.0249  1.3412
14698TIP3    H265586   1.196   0.208  15.520 -1.3861 -0.9035  0.1952
14699TIP3   OH265587   1.847   1.113   1.987  0.0150 -0.8355  0.0334
14699TIP3    H165588   1.941   1.097   1.992  0.3182  0.5192 -0.9395
14699TIP3    H265589   1.822   1.141   2.075  0.7017 -0.2947  0.0569
14700TIP3   OH265590   3.922   1.026   4.342  0.4561 -0.2624 -0.0363
14700TIP3    H165591   3.962   1.040   4.256 -0.8622  1.7025 -0.3473
14700TIP3    H265592   3.828   1.039   4.327  0.1932 -0.1892  1.6348
14701TIP3   OH265593   1.331   2.148   3.911  0.0476  0.0723  0.4726
14701TIP3    H165594   1.309   2.136   3.818 -0.2918  0.1963  0.5365
14701TIP3    H265595   1.365   2.238   3.915 -0.8905  0.4195  0.6477
14702TIP3   OH265596   1.059   0.684   1.620 -0.1455  0.1445  0.1392
14702TIP3    H165597   1.102   0.769   1.628 -1.0867  0.7212 -0.7784
14702TIP3    H265598   0.982   0.691   1.676 -0.3222 -0.0477 -0.0796
14703TIP3   OH265599   0.948   2.136   5.603  0.3554  0.0337  0.2279
14703TIP3    H165600   0.912   2.069   5.661 -1.0068  0.4399 -0.1183
14703TIP3    H265601   0.928   2.105   5.515  0.3846  0.5302  0.0449
14704TIP3   OH265602   2.258   0.305   1.584 -0.0386 -0.1842  0.0564
14704TIP3    H165603   2.278   0.322   1.676 -1.3634 -1.8557  0.6758
14704TIP3    H265604   2.165   0.282   1.583 -0.3632  1.1124 -1.8885
14705TIP3   OH265605   1.740   5.370   0.520  0.8210 -0.0724  0.0959
14705TIP3    H165606   1.734   5.364   0.425  2.5710 -1.2662  0.0360
14705TIP3    H265607   1.834   5.366   0.538  0.6017  1.6413  1.7827
14706TIP3   OH265608   6.673   3.638  13.456 -0.2249 -0.1948 -0.0118
14706TIP3    H165609   6.645   3.725  13.484  0.0832  0.6338 -2.1219
14706TIP3    H265610   6.626   3.624  13.373 -0.1206 -1.9506  0.2124
14707TIP3   OH265611   4.161   5.570   3.572 -0.2708 -0.3369  0.4347
14707TIP3    H165612   4.172   5.655   3.530 -1.9631  0.1869  0.9997
14707TIP3    H265613   4.130   5.513   3.502  0.1626 -0.3097  0.2195
14708TIP3   OH265614   2.319   3.379   2.222 -0.1024  0.0624  0.1910
14708TIP3    H165615   2.331   3.474   2.223  0.8604 -0.0534  0.3194
14708TIP3    H265616   2.399   3.345   2.182 -0.6662 -0.6631 -0.3427
14709TIP3   OH265617   4.744   4.941   0.884  0.1153  0.0271  0.1545
14709TIP3    H165618   4.725   4.986   0.802 -0.7802 -1.2880 -0.3710
14709TIP3    H265619   4.684   4.980   0.947 -1.0920 -0.8327 -0.4411
14710TIP3   OH265620   0.831   3.522   1.417  0.0235  0.5885 -0.2150
14710TIP3    H165621   0.864   3.556   1.501  0.5095 -0.7472  0.1386
14710TIP3    H265622   0.858   3.431   1.416 -0.5713  0.4246 -1.5409
14711TIP3   OH265623   2.512   6.800   5.150 -0.0119 -0.0458 -0.0136
14711TIP3    H165624   2.580   6.753   5.199 -0.1820  0.0321  0.2961
14711TIP3    H265625   2.448   6.733   5.127 -0.9612  0.2629  1.6305
14712TIP3   OH265626   1.862   4.860  14.795  0.0925 -0.2457 -0.4705
14712TIP3    H165627   1.790   4.797  14.785 -1.2625  0.9303  1.4398
14712TIP3    H265628   1.818   4.945  14.796  1.8340  0.6940 -2.3139
14713TIP3   OH265629   4.324   0.008   3.519  0.0356  0.3035 -0.4472
14713TIP3    H165630   4.351   0.053   3.438 -1.9839  1.3001 -0.6043
14713TIP3    H265631   4.392   0.030   3.582  1.5342 -0.2979 -1.7924
14714TIP3   OH265632   0.397   6.542   1.957  0.0187  0.0878  0.2945
14714TIP3    H165633   0.436   6.523   1.872 -0.1530  2.6386 -0.3868
14714TIP3    H265634   0.343   6.464   1.977  0.2202 -0.6094 -1.8151
14715TIP3   OH265635   2.153   2.071   3.759  0.2692 -0.8145 -0.4164
14715TIP3    H165636   2.129   1.995   3.812 -0.6581 -0.3516 -0.1682
14715TIP3    H265637   2.238   2.047   3.720  0.4619 -1.5661  0.4502
14716TIP3   OH265638   1.582   2.065   3.363  0.1702 -0.6270 -0.1362
14716TIP3    H165639   1.544   2.074   3.450  0.8759 -1.6054  0.2836
14716TIP3    H265640   1.677   2.070   3.378  0.3198 -1.4567 -0.7614
14717TIP3   OH265641   2.012   4.922   3.400 -0.0626 -0.5397 -0.1127
14717TIP3    H165642   1.918   4.926   3.414  0.1030 -0.8316  1.1254
14717TIP3    H265643   2.036   4.831   3.418  0.7150 -0.0644  1.3313
14718TIP3   OH265644   2.552   5.611   0.708  0.1508 -1.1095  0.1577
14718TIP3    H165645   2.565   5.566   0.792 -1.4629 -0.9311  0.5120
14718TIP3    H265646   2.571   5.703   0.726 -0.7450 -0.9823  0.4695
14719TIP3   OH265647   3.864   4.046   3.148 -0.6034  0.2701 -0.1451
14719TIP3    H165648   3.908   3.998   3.077 -0.5187 -1.5182  1.0973
14719TIP3    H265649   3.855   3.982   3.218 -1.3391  1.8377  1.2076
14720TIP3   OH265650   1.097   1.818  15.083 -0.4625 -0.1175  0.8879
14720TIP3    H165651   1.005   1.812  15.055 -0.7990  0.1886  1.9067
14720TIP3    H265652   1.132   1.893  15.035 -0.9898  0.3183  1.1940
14721TIP3   OH265653   6.176   4.011   4.608 -0.5074  0.2046  0.1516
14721TIP3    H165654   6.239   4.074   4.644  0.5955 -0.4956 -0.5471
14721TIP3    H265655   6.195   3.929   4.653  0.3639 -0.4830 -1.4434
14722TIP3   OH265656   3.898   2.222   2.107  0.0075 -0.2136 -0.0222
14722TIP3    H165657   3.824   2.163   2.124 -0.9597  1.1301  0.5720
14722TIP3    H265658   3.883   2.296   2.166  0.6278  1.1167 -1.4990
14723TIP3   OH265659   2.011   1.252   2.601 -0.0149 -0.0156  0.3083
14723TIP3    H165660   1.919   1.254   2.628  0.0146 -0.9237  0.4881
14723TIP3    H265661   2.054   1.314   2.660 -0.2672 -0.6610  1.1829
14724TIP3   OH265662   3.424   2.078   0.464 -0.4865  0.4812  0.4797
14724TIP3    H165663   3.446   2.054   0.374  2.9905  1.5902  0.9281
14724TIP3    H265664   3.422   1.995   0.511  2.8063  0.2218  0.3130
14725TIP3   OH265665   2.644   0.328   2.537 -0.2960  0.0097 -0.1561
14725TIP3    H165666   2.637   0.383   2.616  0.5227 -0.8376  0.5214
14725TIP3    H265667   2.632   0.389   2.464 -0.9407  0.8278  0.6174
14726TIP3   OH265668   1.226   5.498   2.330  0.3327 -0.0134 -0.1562
14726TIP3    H165669   1.156   5.511   2.267  1.3442  0.8653 -1.1416
14726TIP3    H265670   1.303   5.476   2.276  1.1009  0.2972  0.7896
14727TIP3   OH265671   2.384   3.438   0.548  0.2097  0.2666 -0.1141
14727TIP3    H165672   2.405   3.347   0.572 -1.5023  0.4954  2.5648
14727TIP3    H265673   2.457   3.489   0.582 -0.1735  0.1547  0.8974
14728TIP3   OH265674   2.330   1.141   5.530 -0.0937  0.4889 -0.3159
14728TIP3    H165675   2.270   1.161   5.602 -1.4723  0.3111 -1.3943
14728TIP3    H265676   2.400   1.089   5.570 -1.1258 -0.0743  0.7868
14729TIP3   OH265677   6.674   2.609   5.561  0.1308 -0.2141 -0.0261
14729TIP3    H165678   6.644   2.694   5.528 -0.5183 -1.0580 -1.6433
14729TIP3    H265679   6.766   2.605   5.534  0.4518  0.4132  0.9561
14730TIP3   OH265680   1.963   2.598   2.249  0.5911 -0.3300  0.0749
14730TIP3    H165681   1.908   2.565   2.178  2.5754 -1.8217 -0.8210
14730TIP3    H265682   1.997   2.681   2.216 -1.0052  0.5606  0.6001
14731TIP3   OH265683   1.659   4.913   1.180 -0.2812  0.2218 -0.0682
14731TIP3    H165684   1.649   4.826   1.219  2.6536 -0.8460 -1.5354
14731TIP3    H265685   1.682   4.896   1.089  1.6005  2.4661 -0.0724
14732TIP3   OH265686   6.927   4.607   4.127 -0.3863 -0.2682  0.2153
14732TIP3    H165687   6.948   4.595   4.220  1.7011 -1.1503 -0.3679
14732TIP3    H265688   6.989   4.552   4.080 -2.8171 -1.5161 -1.6427
14733TIP3   OH265689   2.559   2.508   3.023 -0.3540 -0.1743  0.0976
14733TIP3    H165690   2.619   2.453   3.074 -0.7286 -0.3409  0.3574
14733TIP3    H265691   2.477   2.505   3.071 -1.4813 -2.4256 -1.8674
14734TIP3   OH265692   0.676   4.282   2.508 -0.0987 -0.1976 -0.3182
14734TIP3    H165693   0.598   4.308   2.459 -0.1472 -0.3782 -0.3338
14734TIP3    H265694   0.715   4.211   2.457  0.2522  0.1068 -0.4819
14735TIP3   OH265695   7.157   2.252   4.160 -0.2353  0.0046 -0.0582
14735TIP3    H165696   7.178   2.188   4.092  0.4675 -0.9023  0.9849
14735TIP3    H265697   7.113   2.200   4.228 -0.0064  0.6980  0.6291
14736TIP3   OH265698   2.266   2.585   0.850  0.5834  0.5271  0.4691
14736TIP3    H165699   2.295   2.511   0.903  1.8191  0.2523 -0.5786
14736TIP3    H265700   2.198   2.549   0.793  1.9558 -0.0894 -0.8215
14737TIP3   OH265701   1.413   2.144   1.400  0.1272  0.3181  0.6510
14737TIP3    H165702   1.415   2.082   1.327  0.4116 -0.2723  1.1619
14737TIP3    H265703   1.503   2.177   1.406 -0.3734  2.0386 -0.6847
14738TIP3   OH265704   1.587   3.025   2.166 -0.2307 -0.1440  0.6307
14738TIP3    H165705   1.523   2.953   2.161  1.5762 -1.7344 -0.4706
14738TIP3    H265706   1.617   3.024   2.257 -0.0017 -0.9933  0.5526
14739TIP3   OH265707   3.151   5.569   4.023 -0.3632 -0.1772  0.4229
14739TIP3    H165708   3.244   5.547   4.012 -0.7389 -1.4537 -0.3426
14739TIP3    H265709   3.105   5.486   4.010 -1.5777  0.3370  1.3817
14740TIP3   OH265710   2.201   5.874  12.737 -0.2807  0.3707  0.1475
14740TIP3    H165711   2.242   5.789  12.750  1.0123  0.9792  0.1127
14740TIP3    H265712   2.195   5.884  12.642 -1.4659 -0.1570  0.1540
14741TIP3   OH265713   5.009   4.291   5.458 -0.2598 -0.1016  0.5338
14741TIP3    H165714   5.032   4.344   5.381 -0.3342  0.6706  1.0344
14741TIP3    H265715   5.052   4.335   5.531 -0.3809 -0.6978  0.9713
14742TIP3   OH265716   0.095   1.165   2.658 -0.0932 -0.3949 -0.0003
14742TIP3    H165717   0.071   1.253   2.631 -1.2383 -0.3924  0.9656
14742TIP3    H265718   0.011   1.122   2.676  0.5912 -0.1514  4.2560
14743TIP3   OH265719   1.905   6.760   2.780 -0.0965  0.1937  0.5812
14743TIP3    H165720   1.933   6.694   2.843  0.5710 -1.6165 -1.5409
14743TIP3    H265721   1.975   6.825   2.781  0.5110 -0.4567  0.8196
14744TIP3   OH265722   0.017   1.598   0.174  0.5160  0.0017 -0.2827
14744TIP3    H165723  -0.028   1.529   0.223 -2.0373  2.1925  0.5203
14744TIP3    H265724   0.109   1.586   0.198 -0.0045 -2.3647  0.7723
14745TIP3   OH265725   6.430   2.051  13.912  0.0685 -0.6915 -0.2681
14745TIP3    H165726   6.356   2.069  13.854  0.7358  1.4392 -0.4853
14745TIP3    H265727   6.486   2.128  13.905  1.4451 -1.5231  1.2402
14746TIP3   OH265728   4.798   2.224   1.196 -0.0674  0.6069  0.5760
14746TIP3    H165729   4.844   2.276   1.129 -0.0744  0.2681  0.3107
14746TIP3    H265730   4.729   2.179   1.148  0.8920 -0.8570  0.5241
14747TIP3   OH265731   4.032   0.498   2.255 -0.5213  0.5738 -0.4110
14747TIP3    H165732   4.117   0.531   2.224  0.0638  1.7276  2.2796
14747TIP3    H265733   3.967   0.550   2.207  0.2806 -0.2201 -2.3855
14748TIP3   OH265734   4.796   3.104  15.448  0.2652  0.6498  0.0229
14748TIP3    H165735   4.809   3.029  15.391  0.8828  0.9452 -0.2306
14748TIP3    H265736   4.717   3.146  15.415 -0.6946 -0.4848  0.8284
14749TIP3   OH265737   2.372   2.667   1.300  0.2118  0.0340  0.0096
14749TIP3    H165738   2.288   2.688   1.342 -0.4209 -0.5486 -0.9265
14749TIP3    H265739   2.415   2.607   1.361 -0.6000 -0.6326 -0.0461
14750TIP3   OH265740   1.460   5.869   0.910  0.1906  0.5915  0.0218
14750TIP3    H165741   1.399   5.831   0.848  2.0219  0.2115 -1.5916
14750TIP3    H265742   1.490   5.950   0.870  1.6063  0.2057  0.2418
14751TIP3   OH265743   1.287   0.511   0.780  0.2217 -0.0249 -0.2034
14751TIP3    H165744   1.346   0.437   0.796 -0.4127 -0.1921  1.5629
14751TIP3    H265745   1.310   0.575   0.848  0.2796  1.1133 -1.2691
14752TIP3   OH265746   7.137   4.628  15.519  0.1039 -0.0920  0.2591
14752TIP3    H165747   7.217   4.675  15.494 -0.0392 -0.5481 -1.1080
14752TIP3    H265748   7.067   4.691  15.505  0.2063  0.2409  1.2551
14753TIP3   OH265749   2.404   2.707   1.660  0.9541  0.1120  0.2956
14753TIP3    H165750   2.497   2.718   1.640  0.2178  1.3609 -2.7329
14753TIP3    H265751   2.392   2.612   1.667  2.5508 -0.0376  1.4761
14754TIP3   OH265752   6.422   5.705   2.550  0.5201 -0.1438 -0.0308
14754TIP3    H165753   6.471   5.693   2.469  1.1968  1.4802  0.1269
14754TIP3    H265754   6.467   5.775   2.596 -2.2647  1.8127 -0.1388
14755TIP3   OH265755   0.110   2.597   5.614 -0.3851  0.2208 -0.2799
14755TIP3    H165756   0.056   2.529   5.573 -0.4873 -0.6873  1.3371
14755TIP3    H265757   0.060   2.626   5.689  0.2381  1.1853 -0.2319
14756TIP3   OH265758   3.564   5.869   1.961  0.2547 -0.2160 -0.2113
14756TIP3    H165759   3.641   5.830   1.918 -0.9571 -3.2622  0.2789
14756TIP3    H265760   3.489   5.833   1.914 -0.9750 -0.4436  1.8616
14757TIP3   OH265761   2.998   3.226  14.878 -0.0616  0.3033  0.7863
14757TIP3    H165762   3.008   3.162  14.948  0.0510  0.3871  0.8461
14757TIP3    H265763   3.054   3.299  14.904  0.2316  0.1993  0.4539
14758TIP3   OH265764   0.487   1.588  15.497 -0.5417 -0.3362  0.1377
14758TIP3    H165765   0.430   1.641  15.442  0.0411 -1.1945 -1.3154
14758TIP3    H265766   0.491   1.503  15.453  1.4466 -0.4438  0.4857
14759TIP3   OH265767   2.562   4.487   0.039  0.4926  0.4187 -0.0628
14759TIP3    H165768   2.575   4.457  -0.051  1.5535  0.8358 -0.0641
14759TIP3    H265769   2.605   4.572   0.042  1.3856 -0.0550  1.1177
14760TIP3   OH265770   4.718   2.948   4.831 -0.0383  0.6650  0.0143
14760TIP3    H165771   4.643   2.994   4.794 -0.6512  0.4855  1.0111
14760TIP3    H265772   4.683   2.863   4.858  0.0706  1.2957  2.2412
14761TIP3   OH265773   2.518   2.085   3.117  0.5151 -0.2156 -0.7796
14761TIP3    H165774   2.439   2.035   3.137  0.2595  0.5468  0.1507
14761TIP3    H265775   2.575   2.023   3.071  1.0675 -2.0369  2.1860
14762TIP3   OH265776   2.523   2.707   6.018  0.0457 -0.1709  0.6430
14762TIP3    H165777   2.591   2.669   5.963 -1.4999 -0.2985 -1.2181
14762TIP3    H265778   2.528   2.801   6.002  0.6578 -0.0424  1.5397
14763TIP3   OH265779   2.941   1.940   1.529  0.3528 -0.4498  0.0689
14763TIP3    H165780   2.922   2.034   1.524 -0.0452 -0.4215  1.6387
14763TIP3    H265781   3.035   1.936   1.550  0.3467 -0.3991  0.1069
14764TIP3   OH265782   6.533   0.790   1.346 -0.4028 -0.1104  0.0894
14764TIP3    H165783   6.512   0.744   1.264 -0.8649  0.2432  0.0037
14764TIP3    H265784   6.454   0.782   1.399 -1.4011  2.6358 -0.8778
14765TIP3   OH265785   2.891   4.155   4.843  0.2425 -0.3591  0.6623
14765TIP3    H165786   2.847   4.200   4.916 -1.8961 -1.8895  0.3575
14765TIP3    H265787   2.856   4.198   4.765  0.8406 -0.2345  0.4623
14766TIP3   OH265788   5.775   4.465  15.319  0.1746  0.3060 -0.4039
14766TIP3    H165789   5.764   4.552  15.356 -0.4934  0.5735 -1.2073
14766TIP3    H265790   5.741   4.406  15.386 -0.2797  0.7322 -0.2579
14767TIP3   OH265791   4.002   4.698   2.878 -0.0810  0.4108 -0.0118
14767TIP3    H165792   4.014   4.779   2.926 -0.0222  0.6299 -0.3964
14767TIP3    H265793   4.023   4.720   2.787  0.3472 -0.1287 -0.0504
14768TIP3   OH265794   0.453   1.730   2.235  0.0302 -0.1390 -0.5571
14768TIP3    H165795   0.383   1.766   2.181  0.8806 -1.7324 -2.8193
14768TIP3    H265796   0.408   1.683   2.305 -1.1238  0.3904 -0.9319
14769TIP3   OH265797   1.777   1.581   2.747 -0.2525 -0.1299  0.6813
14769TIP3    H165798   1.798   1.674   2.756 -0.5011  0.0493 -0.4943
14769TIP3    H265799   1.687   1.580   2.715  1.3025 -0.6106 -4.0357
14770TIP3   OH265800   2.659   1.202   5.382 -0.1935 -0.2246 -0.2319
14770TIP3    H165801   2.669   1.238   5.470  0.1868  0.4086 -0.5274
14770TIP3    H265802   2.606   1.124   5.393 -0.0247 -0.2217  0.5796
14771TIP3   OH265803   6.752   0.015   4.509 -0.3601  0.2988  1.0412
14771TIP3    H165804   6.794  -0.032   4.437  0.3102 -0.0597  1.6626
14771TIP3    H265805   6.761   0.107   4.486  2.3801  0.3227  2.0286
14772TIP3   OH265806   1.694   5.966   2.259  0.1616  0.1803 -0.0063
14772TIP3    H165807   1.625   6.029   2.239  0.2316  0.2857  0.0756
14772TIP3    H265808   1.775   6.012   2.237  0.1355 -0.4875 -1.5012
14773TIP3   OH265809   4.363   1.225   5.187 -0.2070  0.3751  0.9626
14773TIP3    H165810   4.436   1.283   5.164 -1.0687  0.9802 -0.2986
14773TIP3    H265811   4.292   1.284   5.211 -1.3285 -0.1026 -1.0422
14774TIP3   OH265812   2.326   4.773   3.649  0.0031 -0.0890  0.5129
14774TIP3    H165813   2.267   4.847   3.631  0.3054 -0.3220 -1.5009
14774TIP3    H265814   2.268   4.705   3.685 -0.4504  0.7508  1.3915
14775TIP3   OH265815   2.214   2.913   5.402  0.8907 -0.2999  0.2236
14775TIP3    H165816   2.163   2.944   5.476 -1.4811 -0.9577 -1.1038
14775TIP3    H265817   2.305   2.923   5.430  0.0602  1.0325  2.5588
14776TIP3   OH265818   1.156   0.057   2.868  0.3078 -0.4910  0.2530
14776TIP3    H165819   1.094   0.021   2.804  0.2079  1.0531 -0.5269
14776TIP3    H265820   1.134   0.011   2.949 -1.8262 -0.0189 -0.0223
14777TIP3   OH265821   0.155   2.580   3.136  0.2104  0.5254 -0.1596
14777TIP3    H165822   0.195   2.496   3.159  0.5181  0.6402 -0.2768
14777TIP3    H265823   0.074   2.583   3.188  1.4877  1.3128  1.8276
14778TIP3   OH265824   3.534   1.131   0.003  0.0953 -0.1272  0.1516
14778TIP3    H165825   3.562   1.207   0.054  1.0331  0.4538 -1.2222
14778TIP3    H265826   3.531   1.162  -0.087  0.5922 -1.7521 -0.4363
14779TIP3   OH265827   2.890   0.613   1.070 -0.3812  0.0905  0.2249
14779TIP3    H165828   2.844   0.698   1.069 -0.5812 -0.0243 -0.4953
14779TIP3    H265829   2.955   0.622   1.139 -0.2402  0.9215 -0.0113
14780TIP3   OH265830   2.428   0.735   4.748 -0.0843 -0.1954 -0.1020
14780TIP3    H165831   2.405   0.739   4.841 -0.1719  1.9929 -0.1798
14780TIP3    H265832   2.344   0.740   4.702  0.1335  1.8523 -0.3163
14781TIP3   OH265833   0.526   4.581   4.622  0.0371 -0.4917  0.0939
14781TIP3    H165834   0.495   4.495   4.594  0.2259  0.1387 -2.1157
14781TIP3    H265835   0.585   4.562   4.695  0.8812 -2.3199 -1.0193
14782TIP3   OH265836   3.071   3.992   5.767  0.6103  0.3870 -0.2244
14782TIP3    H165837   3.048   4.049   5.694  0.8182  1.2850  0.3990
14782TIP3    H265838   2.991   3.990   5.821 -0.5225 -2.5882 -1.9332
14783TIP3   OH265839   1.361   3.202   4.201 -0.1834 -0.1405  0.1938
14783TIP3    H165840   1.409   3.220   4.120 -0.9485 -0.6179 -0.3764
14783TIP3    H265841   1.429   3.184   4.266  0.3983 -1.3820 -0.7467
14784TIP3   OH265842   1.240   2.440   4.298  0.2911  0.0725 -0.1022
14784TIP3    H165843   1.325   2.470   4.331 -0.0236  1.2328 -0.3137
14784TIP3    H265844   1.188   2.425   4.377  1.3355 -2.7303  0.1366
14785TIP3   OH265845   4.168   2.109   0.578  0.6810  0.0178 -0.1276
14785TIP3    H165846   4.191   2.191   0.621  0.0787 -0.1578  0.5530
14785TIP3    H265847   4.203   2.041   0.636 -0.1425 -0.2230  0.0951
14786TIP3   OH265848   0.827   3.291   1.200 -0.0517  0.7819  0.0744
14786TIP3    H165849   0.918   3.278   1.225 -0.0740  1.7751  0.6826
14786TIP3    H265850   0.823   3.262   1.108  0.7530  0.2579  0.2047
14787TIP3   OH265851   2.373   1.473   4.138 -0.1183 -0.1100  0.1827
14787TIP3    H165852   2.419   1.482   4.054 -0.7267  1.1110 -0.0353
14787TIP3    H265853   2.418   1.401   4.183  1.1963  0.2471 -0.5360
14788TIP3   OH265854   2.266   6.651   5.284 -0.4874 -0.1379 -0.5127
14788TIP3    H165855   2.175   6.674   5.303 -0.0159  2.2407 -0.9295
14788TIP3    H265856   2.278   6.677   5.192  0.6030 -0.4829 -0.4715
14789TIP3   OH265857   4.448   5.118   3.538 -0.2897 -0.6235  0.2742
14789TIP3    H165858   4.540   5.136   3.555 -0.1470 -1.8689  0.8605
14789TIP3    H265859   4.447   5.071   3.455 -0.6638  2.0037 -1.2585
14790TIP3   OH265860   6.129   6.647   3.571 -0.4594 -0.1269 -0.6027
14790TIP3    H165861   6.209   6.646   3.517  0.2165  0.4486  0.3823
14790TIP3    H265862   6.065   6.598   3.519 -0.2369  1.6297 -2.5834
14791TIP3   OH265863   1.169   1.577  14.817  0.6303  0.2554 -0.5318
14791TIP3    H165864   1.097   1.541  14.870 -0.2590 -1.5081 -2.8435
14791TIP3    H265865   1.243   1.520  14.836  0.1056 -0.8437 -1.7338
14792TIP3   OH265866   0.556   4.349   0.465 -1.0089  0.0921 -0.0451
14792TIP3    H165867   0.641   4.313   0.492 -0.4794  1.1423 -0.2671
14792TIP3    H265868   0.503   4.272   0.443  0.5958 -0.4938 -2.0004
14793TIP3   OH265869   3.781   4.222   3.895 -0.8756 -0.4223  1.0438
14793TIP3    H165870   3.716   4.291   3.884 -0.7682 -0.5599 -0.6080
14793TIP3    H265871   3.783   4.204   3.989 -1.4312  1.3108  1.3908
14794TIP3   OH265872   5.075   0.317   1.041  0.0458 -0.2472  0.1960
14794TIP3    H165873   5.151   0.271   1.004  0.3900  0.2362  0.2971
14794TIP3    H265874   5.075   0.402   0.997  1.3915  0.9675  2.4137
14795TIP3   OH265875   4.548   4.037   1.892  0.3385  0.3405  0.2023
14795TIP3    H165876   4.614   4.078   1.835 -0.6257 -0.5592 -1.6114
14795TIP3    H265877   4.586   3.952   1.915 -1.1896 -1.2544 -2.8959
14796TIP3   OH265878   0.138   3.810   4.984  0.3829 -0.2838 -0.1861
14796TIP3    H165879   0.178   3.725   5.004  0.5381 -0.8417 -2.6331
14796TIP3    H265880   0.206   3.857   4.936 -0.6614  0.1411 -1.2673
14797TIP3   OH265881   5.407   1.875   5.563 -0.3371  0.1848  0.1532
14797TIP3    H165882   5.421   1.918   5.647 -1.8388 -0.0357  0.5281
14797TIP3    H265883   5.420   1.944   5.498 -2.1449  1.0888  0.7240
14798TIP3   OH265884   4.701   3.750   3.503  0.1686  0.1420  0.9706
14798TIP3    H165885   4.611   3.781   3.503 -0.1679 -0.7859 -0.0544
14798TIP3    H265886   4.698   3.665   3.547  0.1124 -0.9809 -1.1157
14799TIP3   OH265887   0.019   2.004   3.212  0.0251 -0.1613 -0.3420
14799TIP3    H165888  -0.026   2.068   3.156 -0.4831  0.3930  0.6841
14799TIP3    H265889   0.094   1.975   3.160 -0.3843  0.4185 -1.2699
14800TIP3   OH265890   1.148   5.310   4.720  0.1440  0.6835 -0.2505
14800TIP3    H165891   1.093   5.233   4.731  1.1303 -0.3034 -2.0842
14800TIP3    H265892   1.212   5.304   4.790  0.5611 -0.4735 -0.7273
14801TIP3   OH265893   3.784   6.986   3.097  0.0325 -0.5379  0.3956
14801TIP3    H165894   3.778   7.082   3.102 -1.3054 -0.6397  1.1954
14801TIP3    H265895   3.838   6.969   3.020  3.0926  0.8961  2.1410
14802TIP3   OH265896   2.074   2.857   0.312  0.4077 -0.2219  0.3241
14802TIP3    H165897   2.022   2.869   0.233  1.5444  0.6231 -0.3151
14802TIP3    H265898   2.127   2.779   0.295 -1.4005 -1.7056  1.3993
14803TIP3   OH265899   3.291   3.716   5.099 -0.0689  0.2602 -0.3021
14803TIP3    H165900   3.234   3.767   5.156  0.1416  0.0921  0.0603
14803TIP3    H265901   3.323   3.779   5.034 -2.1057 -0.0205 -1.6189
14804TIP3   OH265902   2.883   1.022  15.206 -0.2072 -0.0284  0.0032
14804TIP3    H165903   2.964   0.976  15.226 -0.5257 -0.6362 -0.0933
14804TIP3    H265904   2.879   1.023  15.110 -0.2328  0.1456  0.0063
14805TIP3   OH265905   4.426   0.348   2.221 -0.0290  0.8806 -0.0619
14805TIP3    H165906   4.506   0.398   2.205  0.5074  0.3390  0.8499
14805TIP3    H265907   4.434   0.319   2.312  0.2129 -1.7761 -0.8785
14806TIP3   OH265908   5.413   0.566   5.043 -0.5220  0.0998  0.2813
14806TIP3    H165909   5.347   0.631   5.068 -0.3955  0.2325  0.2725
14806TIP3    H265910   5.365   0.500   4.994 -0.9409 -0.6539  1.6856
14807TIP3   OH265911   3.087   0.728   2.750 -0.0656 -0.2812 -0.1776
14807TIP3    H165912   3.151   0.675   2.797 -1.0338 -2.0296 -0.8019
14807TIP3    H265913   3.002   0.698   2.782 -0.6258  3.7205  2.5218
14808TIP3   OH265914   2.852   2.433   5.128  0.3973 -0.2036 -0.3633
14808TIP3    H165915   2.938   2.405   5.160 -0.0300  0.3200  1.3019
14808TIP3    H265916   2.855   2.418   5.034  1.9548 -1.1504 -0.1805
14809TIP3   OH265917   5.369   3.512   2.919 -0.5402 -0.3199  0.9360
14809TIP3    H165918   5.366   3.608   2.914 -1.3676 -0.4018 -0.3681
14809TIP3    H265919   5.278   3.485   2.915 -0.2187 -1.2395 -0.5467
14810TIP3   OH265920   2.785   2.177   1.426  0.2829  0.1137 -0.2841
14810TIP3    H165921   2.764   2.247   1.364 -0.3323 -1.2286 -1.6301
14810TIP3    H265922   2.880   2.170   1.424  0.2885  0.3223 -0.8347
14811TIP3   OH265923   0.692   2.426   2.623  0.0914 -0.0334 -0.6860
14811TIP3    H165924   0.629   2.495   2.643 -0.7192 -0.7838 -0.6342
14811TIP3    H265925   0.650   2.375   2.554  0.7185 -0.4293 -0.7733
14812TIP3   OH265926   3.330   2.384   4.469 -0.6167  0.7046  0.0028
14812TIP3    H165927   3.369   2.346   4.390  1.1495 -0.0709  1.2089
14812TIP3    H265928   3.350   2.477   4.463 -0.3024  0.6155 -0.3773
14813TIP3   OH265929   2.359   6.638   1.437  1.1466 -0.2379  0.3513
14813TIP3    H165930   2.415   6.659   1.511  0.1776 -1.4612  1.4377
14813TIP3    H265931   2.286   6.699   1.444  0.5073 -1.0873  1.0200
14814TIP3   OH265932   2.774   3.411  15.114  0.0070 -0.2926  0.2374
14814TIP3    H165933   2.846   3.352  15.137 -0.4746 -0.6951  0.7467
14814TIP3    H265934   2.812   3.498  15.120  1.0447 -0.5971 -1.7027
14815TIP3   OH265935   2.247   0.532   3.985 -0.0854  0.1981 -0.3543
14815TIP3    H165936   2.205   0.480   3.917 -0.9769 -2.1963  1.9261
14815TIP3    H265937   2.242   0.477   4.064  3.0577  1.8319  1.1056
14816TIP3   OH265938   2.273   5.466   2.272  0.2265 -0.4400 -0.0556
14816TIP3    H165939   2.336   5.519   2.322 -0.2241  0.5989 -0.5775
14816TIP3    H265940   2.229   5.529   2.215  0.7760 -1.6141 -1.8090
14817TIP3   OH265941   0.223   1.367   1.999 -0.2953 -0.0490 -0.0662
14817TIP3    H165942   0.191   1.429   2.065  0.5075  1.2946 -0.9111
14817TIP3    H265943   0.239   1.287   2.048 -2.8126 -0.1007  0.7828
14818TIP3   OH265944   2.795   4.257   2.490 -0.6394  0.1945  0.0259
14818TIP3    H165945   2.844   4.337   2.473  0.0886 -0.0122  1.0911
14818TIP3    H265946   2.716   4.286   2.535 -1.0509  0.4419 -0.8517
14819TIP3   OH265947   0.313   4.048   2.668  0.3932  0.3237  0.1248
14819TIP3    H165948   0.276   4.106   2.601  1.3477  0.5251 -0.2438
14819TIP3    H265949   0.271   4.075   2.749  1.5984  2.2418  0.1363
14820TIP3   OH265950   1.222   2.320  14.688 -0.3586  0.1244 -0.3021
14820TIP3    H165951   1.198   2.268  14.611  1.5366 -1.0657 -0.1435
14820TIP3    H265952   1.142   2.365  14.713 -1.5592 -1.2031 -1.6457
14821TIP3   OH265953   0.333   6.153   1.131  0.5345 -0.1972 -0.5051
14821TIP3    H165954   0.375   6.080   1.085  2.9149  0.1626  0.9926
14821TIP3    H265955   0.381   6.160   1.214 -0.8841  1.8625  0.1923
14822TIP3   OH265956   7.082   2.682   5.019  0.0634  0.0223  0.7220
14822TIP3    H165957   7.048   2.772   5.023 -1.9213 -0.6736 -0.0407
14822TIP3    H265958   7.166   2.686   5.066 -0.0676  2.2390  0.8142
14823TIP3   OH265959   0.963   5.652   1.914 -0.0271 -0.0398 -0.4773
14823TIP3    H165960   1.042   5.651   1.860  0.0343 -1.1971 -0.3717
14823TIP3    H265961   0.893   5.672   1.853  0.0409 -1.3656 -0.9930
14824TIP3   OH265962   6.527   3.526   3.177  0.3532 -0.2510 -0.9807
14824TIP3    H165963   6.600   3.588   3.177 -0.6837  0.9810 -1.8304
14824TIP3    H265964   6.562   3.449   3.222  1.2326  1.4260  1.3255
14825TIP3   OH265965   0.763   4.322   4.933  0.1967  0.5397 -0.2342
14825TIP3    H165966   0.858   4.309   4.929  0.1563  0.4516 -1.0333
14825TIP3    H265967   0.733   4.305   4.843 -0.7256 -0.6041  0.2732
14826TIP3   OH265968   5.411   1.626   4.640  0.6695  0.2820  0.8188
14826TIP3    H165969   5.500   1.636   4.607 -0.4839  0.8510 -2.2710
14826TIP3    H265970   5.364   1.581   4.570 -1.3180 -0.6579  2.6895
14827TIP3   OH265971   3.783   5.311   3.830 -0.3123  0.7310  0.1757
14827TIP3    H165972   3.731   5.356   3.763  0.6329  0.9258 -0.4303
14827TIP3    H265973   3.719   5.289   3.899 -1.1375  1.2466 -0.4148
14828TIP3   OH265974   1.047   1.975  11.206  0.2746  0.7227  0.1028
14828TIP3    H165975   1.127   1.932  11.236  0.5044  1.3831  0.4270
14828TIP3    H265976   0.980   1.907  11.212  1.1260 -0.3337 -1.7291
14829TIP3   OH265977   1.131   6.485   3.564 -0.3548  0.8900  0.7743
14829TIP3    H165978   1.165   6.565   3.605 -0.1254  0.8685  0.6249
14829TIP3    H265979   1.111   6.512   3.474 -0.1484  0.7442  0.6849
14830TIP3   OH265980   1.933   1.181   1.629  0.4089  0.3924 -0.3730
14830TIP3    H165981   2.011   1.129   1.608 -0.2733 -0.1284 -1.6982
14830TIP3    H265982   1.951   1.267   1.591 -0.8052 -0.5359 -3.2816
14831TIP3   OH265983   2.434   2.618   4.533  0.0365  0.1797 -0.4074
14831TIP3    H165984   2.358   2.584   4.486 -1.7462  2.5912  0.5896
14831TIP3    H265985   2.456   2.699   4.487  0.4941  0.7149  0.7339
14832TIP3   OH265986   0.615   5.629   4.735 -0.2772  0.4723  0.0198
14832TIP3    H165987   0.564   5.589   4.664  1.6289 -1.9572 -0.0482
14832TIP3    H265988   0.614   5.564   4.805  3.0128  0.1957 -0.1274
14833TIP3   OH265989   0.907   0.164   4.997 -0.3806 -0.3258 -0.1361
14833TIP3    H165990   0.839   0.205   5.050 -1.5270 -1.4912 -0.6848
14833TIP3    H265991   0.862   0.136   4.917  0.7559 -1.0045 -0.5521
14834TIP3   OH265992   3.651   0.036   2.190  0.1640  0.6990 -0.0995
14834TIP3    H165993   3.592   0.085   2.247  0.5566  1.7515 -0.5872
14834TIP3    H265994   3.612   0.041   2.103 -0.8906 -1.6384  0.1851
14835TIP3   OH265995   4.788   3.262   3.739  0.5443  0.3150  0.0094
14835TIP3    H165996   4.814   3.264   3.831  0.4426  0.5267  0.0343
14835TIP3    H265997   4.739   3.343   3.726  0.5052  0.2566 -0.2155
14836TIP3   OH265998   3.164   3.206   3.748  0.6240  0.1382  0.4330
14836TIP3    H165999   3.128   3.157   3.674 -0.8598  0.1111  1.1465
14836TIP3    H266000   3.092   3.210   3.811  1.3030  1.6898  1.1307
14837TIP3   OH266001   5.220   0.247   4.710  0.0653 -0.2072  0.6612
14837TIP3    H166002   5.223   0.171   4.653 -1.2802 -0.5492  1.0473
14837TIP3    H266003   5.215   0.322   4.650 -0.1180 -0.4945  0.3169
14838TIP3   OH266004   3.133   5.860   0.389 -0.1986 -0.1440  0.3202
14838TIP3    H166005   3.083   5.804   0.330  0.3222  0.8518 -1.0782
14838TIP3    H266006   3.225   5.840   0.370 -0.0212  0.4240  0.5550
14839TIP3   OH266007   0.211   5.440   2.591 -1.0027  0.0639  0.0105
14839TIP3    H166008   0.180   5.461   2.503 -1.6762 -0.6307  0.0774
14839TIP3    H266009   0.181   5.351   2.607 -1.8984  0.5811  1.3838
14840TIP3   OH266010   6.989   4.323   2.059  0.3189  0.1701 -0.3277
14840TIP3    H166011   6.931   4.338   2.133  0.5415  1.0986 -0.3331
14840TIP3    H266012   7.024   4.235   2.073 -1.4149 -0.5661 -0.5605
14841TIP3   OH266013   2.845   2.516   0.217 -0.3428 -0.5226 -0.3859
14841TIP3    H166014   2.805   2.512   0.303  0.9488 -2.9505  0.1436
14841TIP3    H266015   2.822   2.603   0.184  0.3453  0.9979  2.9564
14842TIP3   OH266016   3.447   6.433   4.072 -0.1437 -0.3085 -0.5345
14842TIP3    H166017   3.385   6.377   4.117 -1.7416  1.4262 -0.5223
14842TIP3    H266018   3.412   6.443   3.984  0.4041  0.2272 -0.7015
14843TIP3   OH266019   7.132   5.501   1.560 -0.8068  0.0007 -0.1441
14843TIP3    H166020   7.153   5.415   1.523 -0.6830 -0.3703  0.7718
14843TIP3    H266021   7.116   5.557   1.484  0.0150 -0.6054 -0.7638
14844TIP3   OH266022   6.399   1.174   0.027  0.5913  0.0059  0.2213
14844TIP3    H166023   6.446   1.126   0.096 -1.2104 -2.3963 -0.1553
14844TIP3    H266024   6.468   1.219  -0.021  1.9177  1.6582  3.4873
14845TIP3   OH266025   6.179   6.899   0.945  0.2532  0.0748  0.0495
14845TIP3    H166026   6.251   6.962   0.953 -0.6441  1.0895  0.2421
14845TIP3    H266027   6.100   6.952   0.956 -0.4748 -1.4475  2.4833
14846TIP3   OH266028   4.973   3.969   2.885 -0.2111  0.1142 -0.0049
14846TIP3    H166029   5.028   4.029   2.834 -0.8877  0.3922 -0.4155
14846TIP3    H266030   4.919   4.026   2.939 -0.6901 -0.1356 -0.2189
14847TIP3   OH266031   5.462   3.260  14.585 -0.5990 -0.1611  0.9792
14847TIP3    H166032   5.537   3.241  14.641 -0.1848  0.2157  0.5493
14847TIP3    H266033   5.400   3.305  14.642  0.6550  2.0293  0.6363
14848TIP3   OH266034   4.691   1.361   5.710 -0.0194  0.1148 -0.2640
14848TIP3    H166035   4.761   1.407   5.757  0.4336 -1.6006  0.7861
14848TIP3    H266036   4.688   1.274   5.751 -0.1240 -1.1802 -2.9246
14849TIP3   OH266037   3.463   0.447   1.523 -0.5954  0.2276 -0.0746
14849TIP3    H166038   3.546   0.401   1.534 -0.1008  0.6370 -2.0048
14849TIP3    H266039   3.404   0.383   1.482 -0.9404  0.2510  0.3763
14850TIP3   OH266040   0.842   6.186  15.206 -0.8612 -0.1221 -1.1903
14850TIP3    H166041   0.831   6.224  15.293  0.7682  0.3463 -1.1800
14850TIP3    H266042   0.778   6.232  15.152  1.2033  2.8305 -1.2262
14851TIP3   OH266043   5.123   5.740   3.241 -0.6063 -0.7773  0.2076
14851TIP3    H166044   5.198   5.799   3.243  0.4291 -2.0733  0.9601
14851TIP3    H266045   5.143   5.674   3.307 -2.1212 -1.5076 -0.0348
14852TIP3   OH266046   2.405   6.739   5.502 -0.2956 -0.9701  0.2991
14852TIP3    H166047   2.351   6.818   5.506  3.0432  1.5554 -1.3871
14852TIP3    H266048   2.388   6.703   5.415 -0.6704 -1.2441  0.4852
14853TIP3   OH266049   1.556   0.815   2.415  0.4887 -0.2177 -0.3211
14853TIP3    H166050   1.466   0.801   2.443  0.1059  1.1928 -0.8106
14853TIP3    H266051   1.602   0.736   2.443 -0.6078 -0.3502  1.1663
14854TIP3   OH266052   4.913   2.310   2.989  0.3055  0.1024  0.6076
14854TIP3    H166053   4.848   2.332   2.923  0.2985 -1.1652  0.1884
14854TIP3    H266054   4.959   2.234   2.954  0.5661 -0.3384  1.8779
14855TIP3   OH266055   3.164   6.967   4.421  0.2473  0.1926 -0.1812
14855TIP3    H166056   3.113   6.897   4.461 -0.9221  0.1440 -1.7295
14855TIP3    H266057   3.255   6.944   4.440 -0.2207 -0.4028  1.4794
14856TIP3   OH266058   2.809   0.910   4.495  0.3345  0.1672 -0.0665
14856TIP3    H166059   2.762   0.857   4.560  1.6697 -1.0959 -0.0941
14856TIP3    H266060   2.806   0.999   4.531  0.4704 -0.3969  1.4065
14857TIP3   OH266061   4.706   4.947   4.638 -0.6119  0.2140 -0.5504
14857TIP3    H166062   4.629   5.004   4.625  1.3540  2.6397 -1.9430
14857TIP3    H266063   4.735   4.926   4.550 -0.5261 -1.9803 -0.0328
14858TIP3   OH266064   2.483   1.786   3.384  0.1690  0.2939 -0.7354
14858TIP3    H166065   2.410   1.755   3.439 -0.1195  2.4504  0.1340
14858TIP3    H266066   2.444   1.799   3.298 -0.0715 -0.1808 -0.7042
14859TIP3   OH266067   5.752   4.515   1.975  0.2503  0.0033  0.0742
14859TIP3    H166068   5.701   4.568   2.037 -0.1399 -1.9292  1.4695
14859TIP3    H266069   5.686   4.461   1.931  0.8407 -0.7497  0.1104
14860TIP3   OH266070   6.190   1.205   1.944 -0.6528 -0.0898  0.6471
14860TIP3    H166071   6.214   1.265   1.874  0.7709  0.0015  1.1919
14860TIP3    H266072   6.196   1.258   2.024 -0.2809 -0.7166  1.0381
14861TIP3   OH266073   3.978   1.883   0.908 -0.0567 -0.1510  0.4600
14861TIP3    H166074   3.980   1.826   0.984  1.0441 -1.1465 -0.3120
14861TIP3    H266075   4.066   1.878   0.871  0.0380  1.9857  0.3409
14862TIP3   OH266076   2.340   4.430   2.426  0.0007  0.6360 -0.7224
14862TIP3    H166077   2.358   4.520   2.455  2.1691  0.7173 -2.2137
14862TIP3    H266078   2.247   4.431   2.403 -0.6892  1.7358  1.9167
14863TIP3   OH266079   5.872   4.479   0.494  0.4644  0.0821  0.5344
14863TIP3    H166080   5.786   4.443   0.514  0.3151 -0.5477 -1.1582
14863TIP3    H266081   5.876   4.561   0.542 -1.2831  0.3507  0.2345
14864TIP3   OH266082   4.774   6.413   0.665  0.2690  0.5284  0.1601
14864TIP3    H166083   4.724   6.394   0.586  0.4387  2.1234 -0.3464
14864TIP3    H266084   4.712   6.454   0.724 -0.1298 -1.6459  1.3033
14865TIP3   OH266085   2.697   4.420   2.998 -0.2388  0.0924 -0.1472
14865TIP3    H166086   2.749   4.431   2.919  1.1203 -0.7782  0.6145
14865TIP3    H266087   2.625   4.362   2.972  0.7341 -0.9637 -0.5208
14866TIP3   OH266088   6.176   3.557   5.171  0.3537  0.6144 -0.4477
14866TIP3    H166089   6.253   3.551   5.113  1.3493 -0.1680  0.9196
14866TIP3    H266090   6.151   3.650   5.167 -1.1703  0.1248 -4.0800
14867TIP3   OH266091   6.364   7.176   5.529  0.4874 -0.0256 -0.0063
14867TIP3    H166092   6.440   7.210   5.483  0.7126 -1.7303 -0.9105
14867TIP3    H266093   6.346   7.242   5.596  3.7212 -0.3890  1.2875
14868TIP3   OH266094   4.052   2.165   2.912  0.1112  0.3587  0.4924
14868TIP3    H166095   4.101   2.087   2.887 -0.8908  0.0564 -0.5674
14868TIP3    H266096   4.095   2.237   2.865 -1.7050 -0.1922 -2.1318
14869TIP3   OH266097   3.738   1.267   5.041 -0.2934  0.3973 -0.1221
14869TIP3    H166098   3.665   1.306   4.993  0.1013 -0.5043 -1.4772
14869TIP3    H266099   3.711   1.177   5.057  0.1530  0.3073  0.1422
14870TIP3   OH266100   2.555   6.974   0.560 -0.7448 -0.0319  0.4935
14870TIP3    H166101   2.540   6.889   0.601 -0.1024 -0.3499  0.0800
14870TIP3    H266102   2.489   6.979   0.490 -1.6878  0.4106  1.4017
14871TIP3   OH266103   0.233   5.118   2.607 -0.3598 -0.0619 -0.3192
14871TIP3    H166104   0.258   5.038   2.559 -1.5959 -0.2194 -0.7185
14871TIP3    H266105   0.313   5.171   2.607  1.3404 -2.4531  2.3845
14872TIP3   OH266106   4.397   6.300  11.715 -0.2886 -0.3412  0.1888
14872TIP3    H166107   4.442   6.384  11.712  1.0131 -1.0522 -0.7494
14872TIP3    H266108   4.443   6.246  11.651 -1.3675 -1.6481  0.4912
14873TIP3   OH266109   5.299   2.416   2.800 -0.0508  0.1684 -0.3753
14873TIP3    H166110   5.362   2.388   2.734 -0.6421  0.1179 -0.9306
14873TIP3    H266111   5.298   2.344   2.864  1.2109  0.6487  0.1780
14874TIP3   OH266112   3.390   3.760   4.051  0.3194  0.0947 -0.0816
14874TIP3    H166113   3.309   3.763   4.102  0.9601  2.4780  0.8212
14874TIP3    H266114   3.388   3.838   3.996  1.6107 -0.2908 -0.7125
14875TIP3   OH266115   5.070   6.485   1.498 -0.2266  0.3646 -0.6953
14875TIP3    H166116   5.162   6.508   1.485 -0.3772  1.6144  0.3457
14875TIP3    H266117   5.072   6.394   1.528  0.6371  0.2412 -1.0959
14876TIP3   OH266118   2.036   6.708   2.104 -0.9273  0.3213 -0.9070
14876TIP3    H166119   2.096   6.688   2.176 -1.5830 -0.7559 -0.6391
14876TIP3    H266120   2.047   6.802   2.088 -0.6200  0.5217  0.4499
14877TIP3   OH266121   3.506   0.470   5.344  0.0591 -1.1156 -0.1924
14877TIP3    H166122   3.484   0.502   5.431 -0.4860  0.2787 -0.8272
14877TIP3    H266123   3.506   0.375   5.353 -1.9244 -1.0403  0.8691
14878TIP3   OH266124   5.834   1.966   3.877 -0.1299  0.0357 -0.0657
14878TIP3    H166125   5.826   1.997   3.967 -1.4561 -1.7162  0.4477
14878TIP3    H266126   5.759   1.907   3.865  0.8077 -0.8336 -1.8654
14879TIP3   OH266127   3.410   2.657   4.587 -0.1150  0.2067 -0.6515
14879TIP3    H166128   3.483   2.678   4.644 -0.2718 -0.1660 -0.3099
14879TIP3    H266129   3.349   2.730   4.598 -0.5586 -0.3024  0.3610
14880TIP3   OH266130   4.441   2.221   2.542  0.4734 -0.1878 -0.1231
14880TIP3    H166131   4.459   2.138   2.498  2.8608  0.2339 -0.0504
14880TIP3    H266132   4.421   2.197   2.632 -1.1442 -0.8215 -0.6306
14881TIP3   OH266133   0.409   5.199   4.410  0.0966 -0.5829  0.2474
14881TIP3    H166134   0.445   5.142   4.342  0.4466 -0.6835  0.5154
14881TIP3    H266135   0.331   5.152   4.441 -0.2861 -0.3490 -0.3548
14882TIP3   OH266136   4.646   2.256   5.113 -0.6537  0.4819  0.8563
14882TIP3    H166137   4.571   2.247   5.172 -0.2076 -0.5934  1.2732
14882TIP3    H266138   4.722   2.249   5.170 -0.2094 -1.0062  0.1081
14883TIP3   OH266139   0.362   1.365  13.387  0.4155  0.3804 -0.2290
14883TIP3    H166140   0.303   1.333  13.319 -0.7847  2.8439 -0.4149
14883TIP3    H266141   0.426   1.419  13.340 -0.0452  1.5868  0.4940
14884TIP3   OH266142   4.911   4.716   1.165 -1.0154 -0.0004 -0.2591
14884TIP3    H166143   4.841   4.696   1.227 -1.0415 -0.4875 -0.4417
14884TIP3    H266144   4.915   4.812   1.163 -0.4730  0.0145  1.0978
14885TIP3   OH266145   3.243   1.101   1.930 -0.5421  0.3149 -0.3569
14885TIP3    H166146   3.280   1.014   1.920 -0.2539  0.2704  0.9481
14885TIP3    H266147   3.225   1.131   1.841  2.4066  0.2434 -1.0273
14886TIP3   OH266148   2.573   0.653   3.029  0.3994  0.3439 -0.0288
14886TIP3    H166149   2.640   0.607   3.080 -0.2061  1.6165  1.9769
14886TIP3    H266150   2.494   0.647   3.082 -0.4793  0.9594 -1.2387
14887TIP3   OH266151   6.066   5.978   1.841 -0.0087  0.4775  0.3291
14887TIP3    H166152   6.092   6.003   1.929  1.6073  0.3373 -0.0778
14887TIP3    H266153   6.107   6.044   1.784 -0.4792  0.1898 -0.3568
14888TIP3   OH266154   2.343   1.289   1.960 -0.7083 -0.6301  0.0676
14888TIP3    H166155   2.363   1.263   1.870  1.7029  2.1731 -0.3053
14888TIP3    H266156   2.329   1.384   1.955 -0.6418 -0.4434  2.6089
14889TIP3   OH266157   6.134   3.387   4.690  0.1552  0.3887  0.3403
14889TIP3    H166158   6.077   3.461   4.709 -1.1088 -0.4353 -0.2187
14889TIP3    H266159   6.133   3.334   4.770 -0.0579  0.2489  0.2457
14890TIP3   OH266160   4.440   3.856   0.608  0.6190  0.1381  0.2104
14890TIP3    H166161   4.466   3.883   0.520  0.8885 -1.8180 -0.3217
14890TIP3    H266162   4.453   3.761   0.610  0.0179  0.0632  2.1543
14891TIP3   OH266163   2.485   0.239   0.194  0.1286  0.0067 -0.3929
14891TIP3    H166164   2.420   0.294   0.239  1.1434  1.1714 -0.3308
14891TIP3    H266165   2.515   0.178   0.261 -0.0180  0.2458 -0.1081
14892TIP3   OH266166   4.542   3.874   2.974 -0.2596 -0.5604 -0.1548
14892TIP3    H166167   4.447   3.870   2.983 -0.4796  0.8353 -1.5754
14892TIP3    H266168   4.575   3.870   3.064 -1.6703 -0.5712  0.3805
14893TIP3   OH266169   2.229   1.885  15.570 -0.0230  0.7492  0.4315
14893TIP3    H166170   2.296   1.933  15.521 -0.0845  0.2499 -0.1486
14893TIP3    H266171   2.183   1.835  15.503 -1.6069  1.8271  0.6930
14894TIP3   OH266172   2.058   3.681  15.604  0.0900 -0.0300 -0.4452
14894TIP3    H166173   2.069   3.610  15.541  0.6430 -0.3320 -0.0124
14894TIP3    H266174   1.963   3.692  15.611 -0.0284 -1.1415 -0.0699
14895TIP3   OH266175   4.144   0.910   3.213  0.1756 -0.6209  0.2984
14895TIP3    H166176   4.072   0.847   3.224 -0.7240  0.7485  2.4939
14895TIP3    H266177   4.113   0.968   3.143 -1.4363  0.6958  2.0551
14896TIP3   OH266178   5.237   7.038   5.338  0.7570  0.3421  0.3845
14896TIP3    H166179   5.242   7.130   5.365 -0.5040  0.1107  1.4614
14896TIP3    H266180   5.312   6.996   5.380  2.8528  1.3384 -2.1790
14897TIP3   OH266181   6.036   4.224   0.697  0.2046 -0.4648 -0.2931
14897TIP3    H166182   6.042   4.263   0.610 -0.8886 -0.4833 -0.3824
14897TIP3    H266183   5.967   4.274   0.741  0.0205 -1.1473  0.1950
14898TIP3   OH266184   4.284   1.042   1.300  0.3063  0.3448 -0.3171
14898TIP3    H166185   4.327   0.973   1.248  0.8319  1.1324 -0.9489
14898TIP3    H266186   4.233   1.091   1.236 -3.4434 -1.9732  0.7800
14899TIP3   OH266187   4.978   0.576   2.687  0.6989  0.9867 -0.1016
14899TIP3    H166188   4.924   0.497   2.675  1.3296  0.4237  0.7342
14899TIP3    H266189   4.914   0.648   2.688 -0.3640  0.1086  3.5054
14900TIP3   OH266190   4.228   1.953  14.893 -0.0184  0.7851 -0.4500
14900TIP3    H166191   4.149   1.905  14.915  0.2664  0.0722 -0.9444
14900TIP3    H266192   4.299   1.892  14.911  0.2535  0.4251 -2.6268
14901TIP3   OH266193   4.270   6.931   0.700 -0.1247 -0.1631 -0.4001
14901TIP3    H166194   4.199   6.986   0.732  0.2636  1.0065 -1.5101
14901TIP3    H266195   4.316   6.985   0.636  1.8904 -0.8279  0.4336
14902TIP3   OH266196   3.639   3.740   4.161  0.0233  0.0521 -0.0691
14902TIP3    H166197   3.554   3.760   4.124 -0.2817  0.5166  0.8642
14902TIP3    H266198   3.701   3.760   4.091 -0.6808 -1.0530 -1.0314
14903TIP3   OH266199   7.187   3.165   2.600 -0.1169  0.1723 -0.1279
14903TIP3    H166200   7.223   3.253   2.615 -0.5669  0.8609 -2.8536
14903TIP3    H266201   7.226   3.136   2.518 -1.2528 -1.5003 -0.1053
14904TIP3   OH266202   3.331   3.650   3.499  0.0729  0.1047 -0.0884
14904TIP3    H166203   3.305   3.559   3.490  0.7598 -0.2762  1.6447
14904TIP3    H266204   3.413   3.648   3.549  0.3916  1.6315 -0.5016
14905TIP3   OH266205   6.660   3.385  15.508 -0.1616  0.2553  0.3625
14905TIP3    H166206   6.687   3.429  15.589  1.2550 -0.9598  0.5694
14905TIP3    H266207   6.597   3.319  15.538  1.3684 -1.1084  0.6870
14906TIP3   OH266208   0.955   0.292   1.636 -0.2088 -0.2290  0.0490
14906TIP3    H166209   1.041   0.306   1.596 -0.2557  0.8700  0.3315
14906TIP3    H266210   0.970   0.304   1.730 -1.1152  2.2577 -0.0901
14907TIP3   OH266211   1.562   6.868   2.041 -0.0942  0.2564  0.0149
14907TIP3    H166212   1.529   6.797   1.986 -0.8902 -0.0438  0.8676
14907TIP3    H266213   1.578   6.827   2.126  1.0156  0.7396  0.0409
14908TIP3   OH266214   3.569   3.404   0.852  0.4895 -0.0159  0.1634
14908TIP3    H166215   3.518   3.479   0.820 -0.2768 -0.4225  0.4142
14908TIP3    H266216   3.554   3.335   0.787 -0.6492 -0.6772  1.0991
14909TIP3   OH266217   6.025   1.229   4.102 -0.0912  0.0550  0.3712
14909TIP3    H166218   6.006   1.167   4.172 -0.7865  0.5057  0.5914
14909TIP3    H266219   6.107   1.271   4.128 -0.6021  0.5735  1.1663
14910TIP3   OH266220   4.693   2.268   1.889  0.0560  0.0555 -0.1960
14910TIP3    H166221   4.757   2.257   1.819 -3.8013 -0.3304 -3.9279
14910TIP3    H266222   4.668   2.179   1.913  0.9064  0.2009  1.2733
14911TIP3   OH266223   6.011   3.872  15.102 -0.4742 -1.0530 -0.3410
14911TIP3    H166224   5.994   3.787  15.142 -2.7312 -0.9817 -1.0450
14911TIP3    H266225   5.959   3.872  15.022 -0.9840  1.1905 -0.0577
14912TIP3   OH266226   4.356   2.465  15.251  0.0913 -0.0295 -0.4317
14912TIP3    H166227   4.423   2.411  15.292  0.1728  0.5833  0.2337
14912TIP3    H266228   4.323   2.522  15.321 -2.3470 -1.5153 -0.2904
14913TIP3   OH266229   3.824   4.415   0.946  0.2615  0.1199 -0.7006
14913TIP3    H166230   3.733   4.417   0.919 -0.0315  0.3912  0.2972
14913TIP3    H266231   3.867   4.481   0.892 -0.2775  0.5225 -0.6351
14914TIP3   OH266232   5.616   0.876   3.718  0.0341  0.3891  0.2249
14914TIP3    H166233   5.553   0.907   3.652  0.8966 -0.0271 -0.8116
14914TIP3    H266234   5.680   0.825   3.668 -0.5982 -1.9471  1.6993
14915TIP3   OH266235   1.585   1.503  12.737 -0.2164 -0.6099  0.5176
14915TIP3    H166236   1.542   1.532  12.657  0.0908 -0.8391  0.2677
14915TIP3    H266237   1.678   1.498  12.714 -0.0615 -0.1583  1.0382
14916TIP3   OH266238   0.451   4.414   3.552  0.0057  0.0976 -0.0597
14916TIP3    H166239   0.527   4.407   3.496 -0.8083 -0.5164 -1.1010
14916TIP3    H266240   0.449   4.506   3.580 -0.2360  0.6885 -1.9662
14917TIP3   OH266241   3.453   2.234   1.806  0.2997  0.3296 -0.7341
14917TIP3    H166242   3.448   2.162   1.743  0.6471  0.6209 -1.1003
14917TIP3    H266243   3.380   2.291   1.784 -0.1862 -0.0884 -0.2178
14918TIP3   OH266244   6.413   2.179   4.620  0.4223 -0.4580 -0.3521
14918TIP3    H166245   6.338   2.215   4.668  0.2734 -2.0647  0.6464
14918TIP3    H266246   6.456   2.256   4.582 -0.1259  0.7409  1.4018
14919TIP3   OH266247   5.623   0.588  13.227 -0.2844 -0.2918 -0.3891
14919TIP3    H166248   5.657   0.507  13.264 -1.4300 -0.5185  0.1857
14919TIP3    H266249   5.556   0.560  13.164 -0.5305  0.2012 -0.3479
14920TIP3   OH266250   5.578   4.154   1.058 -0.5760 -0.2846  0.1197
14920TIP3    H166251   5.651   4.093   1.067  0.3955  0.8163 -0.1468
14920TIP3    H266252   5.592   4.220   1.126 -0.3471  0.9010 -1.0572
14921TIP3   OH266253   3.478   2.883   5.648 -0.1114  0.6475 -0.3755
14921TIP3    H166254   3.490   2.846   5.736  1.7891  0.7468 -0.5667
14921TIP3    H266255   3.471   2.807   5.591  0.5476  0.5680 -0.3599
14922TIP3   OH266256   1.619   3.393   4.927 -0.4234 -0.3540 -0.1785
14922TIP3    H166257   1.580   3.477   4.903 -1.7544 -0.8760  0.1351
14922TIP3    H266258   1.689   3.416   4.988 -2.0718  0.4162  1.4973
14923TIP3   OH266259   3.791   6.858   1.856 -0.3997  0.4498  0.3774
14923TIP3    H166260   3.840   6.785   1.896 -2.9591 -1.6959 -0.2835
14923TIP3    H266261   3.795   6.840   1.762  1.1898  2.6561 -0.0024
14924TIP3   OH266262   4.907   7.106   5.722 -0.1856 -0.5491 -0.0084
14924TIP3    H166263   4.943   7.022   5.750 -0.5107 -1.2109 -1.5397
14924TIP3    H266264   4.984   7.158   5.699  0.0382 -0.2690  1.3293
14925TIP3   OH266265   4.498   3.932  15.234  0.1988 -0.4533  0.0496
14925TIP3    H166266   4.437   3.909  15.304 -0.6463  0.5732 -0.3250
14925TIP3    H266267   4.456   3.901  15.154 -0.8948  2.1726 -0.4496
14926TIP3   OH266268   6.246   5.521   2.393  0.4512 -0.1857  0.0895
14926TIP3    H166269   6.313   5.571   2.440 -0.2248 -0.5211  1.4381
14926TIP3    H266270   6.294   5.474   2.325  1.3722  0.7627  0.0717
14927TIP3   OH266271   5.461   1.567   2.812  0.0674  0.3226 -0.1317
14927TIP3    H166272   5.424   1.590   2.727 -0.8935 -0.0777  0.1691
14927TIP3    H266273   5.394   1.592   2.876  0.4873 -0.0145  0.4526
14928TIP3   OH266274   5.062   6.962   2.430  0.1857  0.2999  0.2997
14928TIP3    H166275   4.981   6.988   2.472 -0.0929 -0.5003  0.2645
14928TIP3    H266276   5.043   6.967   2.336 -0.4543 -1.7500  0.2784
14929TIP3   OH266277   1.499   0.010   4.021  0.4355 -0.7773 -0.5000
14929TIP3    H166278   1.485   0.102   3.998  1.0793 -0.2906  1.0291
14929TIP3    H266279   1.411  -0.027   4.026  0.0953  0.1308  0.3726
14930TIP3   OH266280   2.002   4.705   3.876  0.4170  0.1793  0.0723
14930TIP3    H166281   2.002   4.793   3.838 -2.0772  0.3737  0.3825
14930TIP3    H266282   2.061   4.655   3.821 -0.8241  1.2060 -2.2520
14931TIP3   OH266283   3.916   0.776   3.270 -0.1161  0.2382 -0.0783
14931TIP3    H166284   3.849   0.777   3.202 -1.6545 -0.5397  1.3955
14931TIP3    H266285   3.886   0.711   3.333  0.8270  1.5676  1.8147
14932TIP3   OH266286   4.922   6.481   5.093 -0.3780 -0.1463 -0.2068
14932TIP3    H166287   4.947   6.526   5.174  0.4097 -0.9193 -0.0121
14932TIP3    H266288   4.887   6.397   5.121 -0.0378 -0.4480 -0.6676
14933TIP3   OH266289   6.495   5.865   3.390 -0.1724 -0.2128  0.4074
14933TIP3    H166290   6.543   5.832   3.314 -1.0893 -0.5786 -0.0301
14933TIP3    H266291   6.526   5.955   3.402  1.0398 -0.6311  0.4990
14934TIP3   OH266292   5.058   2.499   3.576  0.0662 -0.1322 -0.0498
14934TIP3    H166293   5.013   2.583   3.565 -0.5728 -0.5077 -0.3882
14934TIP3    H266294   5.142   2.521   3.615 -0.2773  0.6223  0.2686
14935TIP3   OH266295   6.054   4.485   3.178 -0.0559  0.0622  0.1716
14935TIP3    H166296   6.014   4.505   3.263  1.3148  0.8376  0.6733
14935TIP3    H266297   6.004   4.536   3.115  1.0166  2.1756  0.9709
14936TIP3   OH266298   6.200   6.103   1.582  0.6890  0.3464 -0.8803
14936TIP3    H166299   6.150   6.097   1.501  0.2781  1.0131 -0.6764
14936TIP3    H266300   6.270   6.038   1.572  0.3313  0.0613 -1.5464
14937TIP3   OH266301   5.130   6.426   4.911 -0.2203  0.2539 -0.4162
14937TIP3    H166302   5.206   6.423   4.970 -0.3619 -2.5291 -0.3143
14937TIP3    H266303   5.057   6.451   4.967 -0.0498 -0.7438  0.2646
14938TIP3   OH266304   6.804   1.484   2.613 -0.2828  0.4922  0.6313
14938TIP3    H166305   6.788   1.401   2.568 -0.6375  1.0769 -0.3357
14938TIP3    H266306   6.717   1.513   2.641 -0.1944  0.6788  0.7130
14939TIP3   OH266307   4.280   6.559  14.163  0.5687 -0.0826  0.1671
14939TIP3    H166308   4.331   6.559  14.082 -2.0482  1.3694 -1.5704
14939TIP3    H266309   4.249   6.469  14.172 -1.6582  0.4044 -2.1787
14940TIP3   OH266310   4.480   4.613   1.159  0.0109 -0.0190  0.4297
14940TIP3    H166311   4.548   4.547   1.171 -0.3583 -0.5027 -0.0985
14940TIP3    H266312   4.429   4.581   1.084 -1.8335 -0.5597  1.8678
14941TIP3   OH266313   3.215   4.823   1.141 -0.4198 -0.7556 -0.2055
14941TIP3    H166314   3.190   4.748   1.087  0.9588 -0.9544 -0.5785
14941TIP3    H266315   3.293   4.858   1.098 -0.3444  0.1590  0.6630
14942TIP3   OH266316   0.479   5.491   4.028 -0.1299  0.6271  0.1070
14942TIP3    H166317   0.555   5.549   4.021  0.0519  0.3591 -0.1005
14942TIP3    H266318   0.516   5.403   4.031 -0.5559  0.3206 -2.6297
14943TIP3   OH266319   1.680   2.368   3.075  0.2060 -0.3780  0.0759
14943TIP3    H166320   1.717   2.299   3.021  1.4993  1.8811 -1.9960
14943TIP3    H266321   1.595   2.334   3.103  1.9004 -3.8012  1.2180
14944TIP3   OH266322   2.599   3.003   2.117 -0.1635  0.1481  0.4369
14944TIP3    H166323   2.598   2.955   2.034 -0.1260 -0.0786  0.5680
14944TIP3    H266324   2.631   2.940   2.181 -1.6062 -0.1034  0.9037
14945TIP3   OH266325   0.587   4.859   4.955  0.4586 -0.2161  0.2299
14945TIP3    H166326   0.500   4.840   4.919  0.6274 -1.0404  0.2472
14945TIP3    H266327   0.639   4.782   4.934  1.7328  1.0821 -1.4910
14946TIP3   OH266328   0.692   4.445   0.938 -0.5604  0.0814  0.0970
14946TIP3    H166329   0.640   4.396   1.002 -0.0318  0.8240  1.1210
14946TIP3    H266330   0.648   4.529   0.931 -1.1322 -0.3226 -1.2137
14947TIP3   OH266331   5.168   6.415   3.648  0.5150 -0.0377  0.1625
14947TIP3    H166332   5.121   6.483   3.600  1.3431  1.2781  1.1868
14947TIP3    H266333   5.124   6.409   3.732  0.3477 -0.8883  0.0172
14948TIP3   OH266334   4.607   0.123   4.654  0.0922  0.5283 -0.3463
14948TIP3    H166335   4.696   0.158   4.647  0.6601 -1.1266 -1.9102
14948TIP3    H266336   4.595   0.104   4.747  0.7924  2.1933  0.1063
14949TIP3   OH266337   5.844   1.514   4.068  0.5074  0.3488 -0.1469
14949TIP3    H166338   5.887   1.434   4.098 -0.6574 -0.5225 -0.7782
14949TIP3    H266339   5.754   1.506   4.098  0.1049  0.8996 -1.1848
14950TIP3   OH266340   0.241   4.461   4.624  0.4021 -0.4414  0.5750
14950TIP3    H166341   0.323   4.422   4.654 -0.1078 -1.9685  0.0430
14950TIP3    H266342   0.173   4.397   4.648 -0.3072 -0.4851 -1.4241
14951TIP3   OH266343   6.399   1.848   3.799 -0.1776  0.6096 -0.1433
14951TIP3    H166344   6.443   1.896   3.729 -1.4345  2.1391  0.0836
14951TIP3    H266345   6.306   1.854   3.777 -0.4202 -0.9506  0.3911
14952TIP3   OH266346   3.779   1.290   3.345 -0.1271 -0.7447 -0.4759
14952TIP3    H166347   3.764   1.383   3.361  0.2765 -1.0665  1.9397
14952TIP3    H266348   3.701   1.247   3.379  1.6999 -1.6262  2.7669
14953TIP3   OH266349   5.212   0.182   4.223  0.0969  0.0772  0.1684
14953TIP3    H166350   5.119   0.198   4.243  0.0525  2.5193 -1.6399
14953TIP3    H266351   5.211   0.113   4.158 -0.5398  0.7445 -0.5418
14954TIP3   OH266352   6.007   4.217   3.377 -0.2656  0.0688 -0.0745
14954TIP3    H166353   6.101   4.224   3.389 -0.4853 -0.8162  2.5161
14954TIP3    H266354   5.980   4.303   3.345  1.5870 -0.1473 -2.3654
14955TIP3   OH266355   5.291   6.386   1.666 -0.1722  0.3747 -0.5528
14955TIP3    H166356   5.362   6.330   1.698 -0.8837  1.8681  3.9485
14955TIP3    H266357   5.220   6.326   1.646 -0.0721 -0.5885  1.8305
14956TIP3   OH266358   2.565   1.207   3.308  0.5915  0.0311  0.1536
14956TIP3    H166359   2.599   1.155   3.236  0.2189  0.9426 -0.6904
14956TIP3    H266360   2.471   1.217   3.289  0.5193  0.3930  0.6879
14957TIP3   OH266361   3.158   2.422   5.821 -0.2681  0.4709  0.7879
14957TIP3    H166362   3.218   2.483   5.778 -0.9726  0.9547  0.4852
14957TIP3    H266363   3.191   2.415   5.910  1.1671 -0.4840  0.2167
14958TIP3   OH266364   5.465   2.638   1.454 -0.2873  0.8300  0.0543
14958TIP3    H166365   5.389   2.660   1.509  0.2512 -0.5346  1.3828
14958TIP3    H266366   5.530   2.705   1.475  0.6278 -0.7895  2.5982
14959TIP3   OH266367   6.653   6.996   4.377  0.2874 -0.0235  0.1156
14959TIP3    H166368   6.608   7.022   4.457  0.6586  0.4236  0.1844
14959TIP3    H266369   6.604   7.039   4.307  0.7806  0.7088  0.2136
14960TIP3   OH266370   2.879   1.041   1.830 -0.0034  0.8619 -0.0838
14960TIP3    H166371   2.870   1.136   1.822  1.2889  1.1827  2.0077
14960TIP3    H266372   2.826   1.018   1.907  3.0722  0.5139  2.0262
14961TIP3   OH266373   5.173   2.854   5.853 -0.3650  0.3831  0.0852
14961TIP3    H166374   5.111   2.904   5.801 -0.0288  1.0727  0.3322
14961TIP3    H266375   5.196   2.913   5.925 -0.4144 -0.3550  0.7093
14962TIP3   OH266376   4.793   0.639  15.131 -0.4592 -0.1598 -0.1062
14962TIP3    H166377   4.882   0.608  15.147 -1.1422 -1.9044  0.3129
14962TIP3    H266378   4.776   0.700  15.203  0.6783  0.8181 -0.6396
14963TIP3   OH266379   2.091   7.117   4.824 -0.3718  0.3919 -0.1334
14963TIP3    H166380   2.000   7.123   4.794 -0.1360  0.4062 -0.8559
14963TIP3    H266381   2.139   7.175   4.765  0.6554 -2.1755 -1.9218
14964TIP3   OH266382   4.392   4.761   1.488  0.3722  0.1398  0.3883
14964TIP3    H166383   4.350   4.787   1.406 -0.3268 -0.9045  0.4026
14964TIP3    H266384   4.484   4.785   1.477  0.2904 -0.0429 -0.7119
14965TIP3   OH266385   1.345   6.929   3.862  0.1303 -0.1282  0.3152
14965TIP3    H166386   1.330   6.891   3.949 -1.3031  1.2005  0.6574
14965TIP3    H266387   1.312   7.018   3.868  2.1247  0.7455 -0.9245
14966TIP3   OH266388   6.963   6.273   1.589 -0.0106 -0.1288 -0.2419
14966TIP3    H166389   6.978   6.179   1.577 -0.9251 -0.0886 -1.8061
14966TIP3    H266390   6.868   6.282   1.594  0.1129  0.6012  0.9540
14967TIP3   OH266391   1.394   2.434   3.906  0.4733 -0.0045 -0.3868
14967TIP3    H166392   1.407   2.484   3.986 -0.1420 -1.0217  0.3589
14967TIP3    H266393   1.464   2.464   3.847  1.9184 -0.4051  1.0854
14968TIP3   OH266394   6.209   4.462  14.210  0.1771  0.3768  0.6925
14968TIP3    H166395   6.234   4.543  14.166 -2.2811 -0.3335 -2.1364
14968TIP3    H266396   6.123   4.481  14.248  0.8946 -0.0196  2.6004
14969TIP3   OH266397   0.990   6.788   1.609  0.0614 -0.1077 -0.1283
14969TIP3    H166398   1.082   6.777   1.584  0.0579 -0.3703 -0.0243
14969TIP3    H266399   0.992   6.794   1.705  0.2219  2.2388 -0.2551
14970TIP3   OH266400   4.034   6.396   2.544 -0.0738  0.1379  0.4001
14970TIP3    H166401   3.951   6.372   2.502 -0.5237 -0.8696  1.8194
14970TIP3    H266402   4.089   6.318   2.536  0.3714  0.4514  0.3791
14971TIP3   OH266403   5.620   0.651   3.376 -0.1108  0.1236 -0.3295
14971TIP3    H166404   5.562   0.711   3.330 -0.0956  0.1488 -0.3155
14971TIP3    H266405   5.670   0.608   3.306  1.7466  2.0170 -0.2190
14972TIP3   OH266406   0.090   1.274   2.911 -0.2353 -0.0205  0.0270
14972TIP3    H166407   0.091   1.195   2.857  0.9545 -0.8252  1.1852
14972TIP3    H266408   0.099   1.346   2.848  0.7482 -0.9170 -0.8835
14973TIP3   OH266409   5.164   5.936  14.177 -0.8930 -0.7464  0.6066
14973TIP3    H166410   5.090   5.928  14.238 -0.3775  0.5526  1.4261
14973TIP3    H266411   5.241   5.936  14.234 -0.3806  0.0881 -0.0856
14974TIP3   OH266412   3.176   2.152  14.481 -0.0220  0.2111  0.5392
14974TIP3    H166413   3.212   2.137  14.394  0.5090 -0.2123  0.8297
14974TIP3    H266414   3.182   2.067  14.525 -1.0075  0.2244  0.7248
14975TIP3   OH266415   1.588   6.710   4.360  0.0953 -0.3179 -0.3181
14975TIP3    H166416   1.647   6.636   4.374  0.4030  0.0486  0.3710
14975TIP3    H266417   1.598   6.764   4.439  0.3381  0.7688 -1.0791
14976TIP3   OH266418   1.653   3.950   5.470  0.1086  0.4880 -0.3642
14976TIP3    H166419   1.566   3.987   5.486 -0.9465 -1.8493 -0.4122
14976TIP3    H266420   1.639   3.883   5.403  2.1237  0.7402 -1.0716
14977TIP3   OH266421   0.166   5.393   0.325 -0.0319 -0.1156  0.2046
14977TIP3    H166422   0.118   5.315   0.296 -0.7574  0.3409  0.1600
14977TIP3    H266423   0.221   5.361   0.397  1.8259 -1.2644 -1.6928
14978TIP3   OH266424   3.806   2.182   1.547 -0.4265 -0.3349  0.0483
14978TIP3    H166425   3.784   2.158   1.637  0.2863  0.4938  0.4577
14978TIP3    H266426   3.723   2.210   1.509 -0.3250  1.6801  1.2204
14979TIP3   OH266427   5.461   4.507   4.907  0.1413 -0.2529  0.3156
14979TIP3    H166428   5.411   4.431   4.878 -1.2910  0.3569  1.1092
14979TIP3    H266429   5.550   4.475   4.917 -0.1392 -1.4325 -0.8835
14980TIP3   OH266430   1.857   3.892  15.236 -0.2804 -0.0425  0.9021
14980TIP3    H166431   1.920   3.822  15.253 -2.4208 -1.8195  1.7493
14980TIP3    H266432   1.825   3.875  15.147 -2.1971 -1.2946  1.8092
14981TIP3   OH266433   3.883   2.644   4.759 -0.1474  0.1536 -0.1801
14981TIP3    H166434   3.885   2.666   4.852  0.8157  0.5604 -0.2966
14981TIP3    H266435   3.813   2.700   4.723  0.7227  1.3601 -0.0392
14982TIP3   OH266436   4.430   4.247  14.475  0.3011  0.1315  1.1218
14982TIP3    H166437   4.407   4.202  14.394  0.7074 -1.1190  1.6859
14982TIP3    H266438   4.388   4.333  14.468 -1.9870 -0.9867  0.8276
14983TIP3   OH266439   3.808   0.264   1.321 -0.2256 -0.4739  0.1687
14983TIP3    H166440   3.822   0.355   1.296 -1.4144 -0.9049 -2.1721
14983TIP3    H266441   3.716   0.247   1.299  0.8212 -3.1515 -2.5010
14984TIP3   OH266442   2.593   1.451   4.450 -0.3067 -0.4444 -0.5405
14984TIP3    H166443   2.500   1.436   4.466 -0.4004 -0.5907 -1.1887
14984TIP3    H266444   2.613   1.397   4.374 -0.0228  0.6596 -1.2640
14985TIP3   OH266445   4.377   2.928   2.523 -0.0273  0.1945 -0.3595
14985TIP3    H166446   4.304   2.921   2.461 -0.2357  0.9156 -0.1984
14985TIP3    H266447   4.450   2.886   2.479  0.0950  1.6091 -1.5018
14986TIP3   OH266448   2.036   6.135   4.755  0.3177 -0.2838 -0.4088
14986TIP3    H166449   2.082   6.157   4.674 -0.2961  0.3241 -0.5918
14986TIP3    H266450   1.958   6.190   4.754 -0.1975 -0.9985  0.1132
14987TIP3   OH266451   2.930   6.821   2.466 -0.5486 -0.0059  0.1529
14987TIP3    H166452   2.895   6.910   2.470  2.2607  1.1679 -0.6745
14987TIP3    H266453   3.025   6.831   2.467 -0.0948 -2.7805 -3.0739
14988TIP3   OH266454   2.461   6.693   4.821 -0.2399  0.0966  0.1228
14988TIP3    H166455   2.504   6.779   4.816  0.7315 -0.4594 -1.3189
14988TIP3    H266456   2.528   6.631   4.794 -1.1895 -1.0475  0.3663
14989TIP3   OH266457   3.027   3.819   0.003  0.0928 -0.1361  0.4988
14989TIP3    H166458   2.933   3.838  -0.007  0.1759  0.1164  0.1963
14989TIP3    H266459   3.049   3.850   0.090  0.2842  1.3825 -0.0791
14990TIP3   OH266460   4.161   0.049   2.204  0.4471  0.6829  0.0950
14990TIP3    H166461   4.077   0.094   2.198  1.7687  3.2086 -0.1730
14990TIP3    H266462   4.186   0.030   2.113  0.4332  0.4243  0.1431
14991TIP3   OH266463   4.746   6.465  15.511 -0.5343  0.8285 -0.6075
14991TIP3    H166464   4.708   6.551  15.532  0.3802  1.3133 -0.9335
14991TIP3    H266465   4.758   6.467  15.416 -1.4712 -0.0582 -0.7500
14992TIP3   OH266466   5.018   4.934   2.576  0.4673  0.2053 -0.2537
14992TIP3    H166467   5.002   4.941   2.670 -0.1259 -0.1701 -0.3227
14992TIP3    H266468   4.931   4.921   2.538  0.9664 -2.5325 -0.5899
14993TIP3   OH266469   2.318   4.410   3.967  0.1915 -0.0118 -0.4906
14993TIP3    H166470   2.304   4.387   4.059 -0.6020  0.4276 -0.5006
14993TIP3    H266471   2.389   4.475   3.970  1.2290 -1.1331 -0.3248
14994TIP3   OH266472   6.172   6.359   1.419  0.1069 -0.2740 -0.0842
14994TIP3    H166473   6.152   6.270   1.390  0.0011 -1.2757  2.9070
14994TIP3    H266474   6.124   6.415   1.358 -1.4541 -2.3163 -0.7936
14995TIP3   OH266475   5.770   0.093  14.518 -0.0809  0.4007 -0.2955
14995TIP3    H166476   5.816   0.166  14.475  0.4258  0.0785 -0.3017
14995TIP3    H266477   5.836   0.026  14.528 -1.2796 -1.3333 -3.2303
14996TIP3   OH266478   3.763   5.672   2.479 -0.2586 -0.1475  0.1658
14996TIP3    H166479   3.800   5.761   2.479  0.9763 -0.6542 -0.4877
14996TIP3    H266480   3.709   5.669   2.558  0.2675  0.9575  0.5821
14997TIP3   OH266481   1.232   4.224   3.334  0.4628 -0.3079 -0.0527
14997TIP3    H166482   1.246   4.298   3.394  1.5014  0.4710 -1.2253
14997TIP3    H266483   1.253   4.260   3.248 -0.7710 -1.4867 -0.8575
14998TIP3   OH266484   2.958   5.207   1.440 -0.1907 -0.3275 -0.6620
14998TIP3    H166485   3.005   5.142   1.388 -0.0025 -1.2338  0.6232
14998TIP3    H266486   3.019   5.280   1.448  1.5162 -1.9372  1.9488
14999TIP3   OH266487   3.989   2.305   3.850 -0.4577  0.4917 -0.6791
14999TIP3    H166488   3.917   2.337   3.904  0.0609  3.2375 -1.5517
14999TIP3    H266489   4.064   2.303   3.909 -1.1246 -2.1831  0.1784
15000TIP3   OH266490   4.457   1.110   3.567  0.5061 -0.0958  0.1709
15000TIP3    H166491   4.489   1.026   3.602  0.9571  0.1360  0.3147
15000TIP3    H266492   4.395   1.085   3.499  2.5202 -0.5579 -1.5293
15001TIP3   OH266493   5.813   2.231   3.122  0.3565 -0.0176  0.8997
15001TIP3    H166494   5.770   2.242   3.207 -1.5303  0.7032 -0.1124
15001TIP3    H266495   5.848   2.318   3.101 -2.6134  0.8229 -0.8256
15002TIP3   OH266496   5.639   0.491   2.741  0.3921  0.2387  0.2072
15002TIP3    H166497   5.648   0.402   2.705 -2.3894  0.4341 -1.1370
15002TIP3    H266498   5.616   0.476   2.833  0.4067 -0.4273  0.1101
15003TIP3   OH266499   6.213   7.039   5.726 -0.5278 -0.1369  0.0525
15003TIP3    H166500   6.282   7.073   5.668 -0.5495  0.5918  0.4451
15003TIP3    H266501   6.253   6.964   5.769 -0.1451 -0.0222 -0.0954
15004TIP3   OH266502   6.554   4.198   3.985  0.4250  0.6512 -0.3987
15004TIP3    H166503   6.640   4.230   3.959  1.4054 -1.3865  0.2730
15004TIP3    H266504   6.571   4.117   4.033 -1.8505  0.3025 -0.0969
15005TIP3   OH266505   4.983   5.351   1.385  0.4943  0.7201  0.1859
15005TIP3    H166506   4.983   5.397   1.469 -0.5185  0.6299  0.2413
15005TIP3    H266507   4.905   5.296   1.388  0.9106  0.0907 -0.4739
15006TIP3   OH266508   2.699   1.439   1.943  0.3035 -0.1476 -0.6118
15006TIP3    H166509   2.672   1.402   2.027 -1.5202  0.1876 -1.0138
15006TIP3    H266510   2.793   1.451   1.950  0.4015 -1.6104  0.8054
15007TIP3   OH266511   1.596   4.675   0.722  0.4507  0.7239  0.5362
15007TIP3    H166512   1.562   4.660   0.633  2.2775  0.5923 -0.1587
15007TIP3    H266513   1.585   4.591   0.766 -1.4076  1.0696  0.7785
15008TIP3   OH266514   4.205   3.581   1.655  0.2380 -0.8271 -0.4377
15008TIP3    H166515   4.294   3.605   1.682 -0.3308  2.7894 -1.4789
15008TIP3    H266516   4.150   3.606   1.729 -0.3928  1.4639 -1.6235
15009TIP3   OH266517   1.538   2.635   3.249 -0.4668  0.1503  0.5387
15009TIP3    H166518   1.574   2.715   3.213  1.1606 -0.1623  1.3999
15009TIP3    H266519   1.508   2.585   3.173 -0.2905  1.0049 -0.0933
15010TIP3   OH266520   0.290   3.193   3.712  0.0461  0.0907  0.1752
15010TIP3    H166521   0.296   3.126   3.780 -2.3310  0.2237  0.5625
15010TIP3    H266522   0.311   3.275   3.756  0.0383 -0.0145  0.3741
15011TIP3   OH266523   3.129   2.276   0.451 -0.1660 -0.2692  0.1766
15011TIP3    H166524   3.180   2.217   0.395 -1.1664 -1.2815  0.3150
15011TIP3    H266525   3.050   2.227   0.472  0.0637  0.2018  2.2781
15012TIP3   OH266526   4.749   4.372  15.125  0.3503 -0.2445 -0.1642
15012TIP3    H166527   4.677   4.431  15.146  0.9440 -0.0747  1.4810
15012TIP3    H266528   4.712   4.284  15.138  0.5078 -0.1521  0.9418
15013TIP3   OH266529   5.682   2.835   5.256  0.5457  0.6419  0.3184
15013TIP3    H166530   5.634   2.776   5.198 -1.3065  1.2792  1.1580
15013TIP3    H266531   5.719   2.778   5.324  0.6893  0.1878 -0.1371
15014TIP3   OH266532   6.228   6.447  13.384 -0.6098 -0.7698  0.0298
15014TIP3    H166533   6.198   6.381  13.447 -0.3227 -0.6627  0.2783
15014TIP3    H266534   6.323   6.446  13.391 -0.7150  3.0168  3.5281
15015TIP3   OH266535   0.841   5.792   1.213 -0.0150  0.6071 -0.0913
15015TIP3    H166536   0.931   5.822   1.204  0.1794 -0.2089 -0.9329
15015TIP3    H266537   0.843   5.702   1.183 -0.5439 -0.3667  2.6420
15016TIP3   OH266538   2.481   5.440   2.060  0.3280  0.0218 -0.0319
15016TIP3    H166539   2.507   5.362   2.109 -0.0820  1.0942  1.9479
15016TIP3    H266540   2.473   5.509   2.126 -0.0389  1.5764 -1.6400
15017TIP3   OH266541   0.687   7.092   0.481 -0.2455  0.0837  0.0310
15017TIP3    H166542   0.626   7.026   0.514  1.0458 -0.7110  0.8577
15017TIP3    H266543   0.750   7.105   0.552  1.3117 -0.0704 -1.2838
15018TIP3   OH266544   2.083   3.651   2.459  0.3587  0.3293  0.0642
15018TIP3    H166545   2.165   3.609   2.433  0.7659  1.8395 -1.1529
15018TIP3    H266546   2.018   3.580   2.459  1.1757 -0.4373 -1.2439
15019TIP3   OH266547   1.607   1.281   4.556  0.2060 -0.0742  0.1170
15019TIP3    H166548   1.557   1.316   4.630 -1.3810 -2.5822  0.3178
15019TIP3    H266549   1.682   1.238   4.597 -1.3055 -2.5074  0.4254
15020TIP3   OH266550   4.342   2.000   5.464  0.4534  0.6622  0.2069
15020TIP3    H166551   4.339   2.075   5.523 -0.4212  1.0806 -0.3677
15020TIP3    H266552   4.423   1.955   5.488  0.5347  1.2847  1.1619
15021TIP3   OH266553   3.397   4.959   4.327  0.0761 -0.4791  0.3099
15021TIP3    H166554   3.460   5.017   4.370 -1.6266  0.3861  1.6403
15021TIP3    H266555   3.315   4.971   4.374 -0.8899 -2.2963 -0.8222
15022TIP3   OH266556   1.959   0.123   5.567 -0.2021  0.4389  0.4167
15022TIP3    H166557   1.916   0.186   5.625 -1.4277 -0.3813  0.4102
15022TIP3    H266558   1.964   0.043   5.618  1.8593  0.6677  0.6203
15023TIP3   OH266559   5.964   4.458   4.399 -0.4068 -0.2436  1.1116
15023TIP3    H166560   6.013   4.375   4.397 -1.9189 -1.2496  3.0686
15023TIP3    H266561   6.018   4.519   4.348 -0.3201 -2.9661 -2.2504
15024TIP3   OH266562   6.961   2.760   1.503 -0.6668 -0.8145 -0.4826
15024TIP3    H166563   6.940   2.676   1.544  0.2774 -0.4158  0.8579
15024TIP3    H266564   6.901   2.823   1.543 -1.9346 -0.9631 -2.0804
15025TIP3   OH266565   6.903   0.365   3.768 -0.2888 -0.2869 -0.6017
15025TIP3    H166566   6.950   0.286   3.796 -1.6619 -1.1672 -0.7710
15025TIP3    H266567   6.823   0.366   3.821 -0.2986  0.9881 -0.6098
15026TIP3   OH266568   1.307   6.089   4.721  0.5860 -0.2986  0.1919
15026TIP3    H166569   1.306   6.031   4.797  2.2298  0.1823  0.5841
15026TIP3    H266570   1.381   6.148   4.735 -0.4030  1.2185 -0.7218
15027TIP3   OH266571   2.364   0.356   2.604  0.2570 -0.4403  0.1711
15027TIP3    H166572   2.301   0.373   2.674  1.1978 -0.2505  0.9807
15027TIP3    H266573   2.423   0.291   2.640  0.1836 -1.0654 -0.8008
15028TIP3   OH266574   5.422   3.154   1.854  0.0351  0.9344  0.1415
15028TIP3    H166575   5.472   3.074   1.838 -2.0503 -0.0963 -1.6053
15028TIP3    H266576   5.487   3.218   1.882  1.7045 -1.4488  1.8951
15029TIP3   OH266577   6.609   4.401   6.078 -0.2721 -0.2830  0.2250
15029TIP3    H166578   6.515   4.394   6.097 -0.0179 -0.2199  1.5666
15029TIP3    H266579   6.630   4.493   6.094 -0.4050  0.1724 -2.1448
15030TIP3   OH266580   6.156   2.481   4.372  0.7202 -0.5292 -0.4994
15030TIP3    H166581   6.225   2.431   4.328 -0.2584 -1.2579 -1.2324
15030TIP3    H266582   6.093   2.501   4.303  0.8612  1.3175 -0.1047
15031TIP3   OH266583   0.217   4.397   2.242  0.1418  0.6335 -0.5680
15031TIP3    H166584   0.218   4.392   2.146  0.3500 -0.7877 -0.4951
15031TIP3    H266585   0.171   4.318   2.270 -1.0310  1.6746  0.4733
15032TIP3   OH266586   2.014   5.698   2.821 -0.3488 -0.4877 -0.0261
15032TIP3    H166587   1.919   5.703   2.818 -0.3296  0.3013  0.8135
15032TIP3    H266588   2.033   5.606   2.801 -1.3819 -1.1794  2.0629
15033TIP3   OH266589   2.779   3.232   4.904 -0.5217 -0.5663  0.3634
15033TIP3    H166590   2.830   3.293   4.850  0.7232 -1.3315  0.6397
15033TIP3    H266591   2.747   3.167   4.842 -0.2983 -0.6489  0.3332
15034TIP3   OH266592   2.218   1.585   1.118 -0.0797  0.4276 -0.5291
15034TIP3    H166593   2.159   1.655   1.087 -0.6273 -0.0459 -0.5566
15034TIP3    H266594   2.211   1.588   1.213 -0.6511 -0.0661 -0.5576
15035TIP3   OH266595   0.543   6.024   5.014  0.6625  0.0267 -0.1116
15035TIP3    H166596   0.579   6.041   5.101  1.3680  1.7940 -0.7257
15035TIP3    H266597   0.604   5.962   4.975  0.4702 -0.5942  0.5659
15036TIP3   OH266598   6.696   6.390   1.921  0.1722  0.2434  0.3010
15036TIP3    H166599   6.688   6.312   1.977  0.8596  0.1042  0.2165
15036TIP3    H266600   6.607   6.423   1.912 -0.3383 -1.3985 -0.8876
15037TIP3   OH266601   0.966   6.496   1.713 -0.7992  0.2084  0.6313
15037TIP3    H166602   0.947   6.438   1.639  0.6015 -1.4753  1.5743
15037TIP3    H266603   0.893   6.483   1.774 -1.8817  1.4894 -0.3523
15038TIP3   OH266604   1.776   4.617   5.410  0.5204 -0.1265 -0.3698
15038TIP3    H166605   1.700   4.559   5.410 -0.2637  0.8557  1.0843
15038TIP3    H266606   1.835   4.580   5.476  0.7591 -0.2139 -0.6331
15039TIP3   OH266607   4.288   6.036   2.704  0.3695 -0.4097 -0.0067
15039TIP3    H166608   4.369   5.986   2.715  0.0010 -0.7651  1.1174
15039TIP3    H266609   4.232   6.008   2.776  0.3667  2.0550  1.0141
15040TIP3   OH266610   5.433   4.853  14.342  0.0295 -0.0127 -0.1064
15040TIP3    H166611   5.518   4.826  14.307  0.2544  1.3174 -0.6247
15040TIP3    H266612   5.434   4.825  14.433  0.2479 -1.7189 -0.6164
15041TIP3   OH266613   1.373   4.672   5.279 -0.2030  1.1318  0.4515
15041TIP3    H166614   1.287   4.635   5.261  0.0582  0.8295 -0.2292
15041TIP3    H266615   1.407   4.620   5.352 -0.2820  0.7302  0.2043
15042TIP3   OH266616   5.391   3.954   4.225 -0.5742 -0.7297 -0.4289
15042TIP3    H166617   5.483   3.976   4.214 -0.8271  0.2274 -0.6557
15042TIP3    H266618   5.352   3.969   4.139 -1.3660  1.0004  0.2118
15043TIP3   OH266619   2.858   6.950   0.797  0.4488  0.1411  0.1164
15043TIP3    H166620   2.837   6.936   0.889 -1.1218 -1.0814 -0.4028
15043TIP3    H266621   2.864   7.045   0.788 -1.8904  0.4027  0.9656
15044TIP3   OH266622   5.847   5.664   1.324 -0.1839 -0.6388 -0.7353
15044TIP3    H166623   5.867   5.581   1.366  0.7144 -0.9559 -1.7585
15044TIP3    H266624   5.890   5.730   1.377  0.7644 -1.0151 -1.0320
15045TIP3   OH266625   2.821   4.201   1.003  0.3585  0.3504  0.0767
15045TIP3    H166626   2.823   4.287   0.962  1.5964 -0.1246 -0.8887
15045TIP3    H266627   2.823   4.219   1.097  1.1496  1.3697 -0.1232
15046TIP3   OH266628   6.862   5.543   4.273 -0.0297 -0.5629  0.0658
15046TIP3    H166629   6.857   5.504   4.186  1.6623 -1.1097  0.2032
15046TIP3    H266630   6.771   5.545   4.304 -0.4463 -1.7976 -1.0749
15047TIP3   OH266631   5.529   3.275   2.826 -0.1510  0.2495 -0.2802
15047TIP3    H166632   5.459   3.334   2.855  1.2584  1.1177  1.4870
15047TIP3    H266633   5.600   3.334   2.799  0.0866 -0.6187 -1.6175
15048TIP3   OH266634   2.922   3.275   3.225 -0.0593 -0.3347  0.3839
15048TIP3    H166635   2.932   3.276   3.130  0.1252 -1.2554  0.3935
15048TIP3    H266636   2.861   3.203   3.242  1.4958 -1.5174  1.1056
15049TIP3   OH266637   5.148   2.291   0.534  0.3299 -0.1062  0.0772
15049TIP3    H166638   5.094   2.278   0.456 -0.4531  3.8706 -0.1607
15049TIP3    H266639   5.235   2.264   0.508 -0.0093  0.8098 -2.1059
15050TIP3   OH266640   3.011   4.536   5.334 -0.0358 -0.3432  0.0846
15050TIP3    H166641   3.099   4.500   5.329  0.2018  0.0807  1.2466
15050TIP3    H266642   2.954   4.459   5.342  0.4460 -0.5043  2.2166
15051TIP3   OH266643   4.844   5.695   4.184  0.0605 -0.6824 -0.0565
15051TIP3    H166644   4.754   5.684   4.212 -0.1911 -1.1433 -1.0282
15051TIP3    H266645   4.842   5.768   4.123  0.1482 -1.4419 -0.9735
15052TIP3   OH266646   4.362   0.032   0.611  0.2060  0.3016 -0.1602
15052TIP3    H166647   4.438   0.049   0.556 -0.4804  2.1756 -0.5578
15052TIP3    H266648   4.398   0.028   0.700  0.5682  2.9908 -0.1382
15053TIP3   OH266649   1.099   6.052   5.532 -0.2783  0.3902  0.1019
15053TIP3    H166650   1.049   6.127   5.501  0.9665  0.9697 -0.5211
15053TIP3    H266651   1.149   6.086   5.606 -1.0790 -0.2865  0.9722
15054TIP3   OH266652   0.437   7.177   1.142 -0.1519 -0.0055  0.1376
15054TIP3    H166653   0.500   7.113   1.174  0.0935 -0.1519 -0.6357
15054TIP3    H266654   0.353   7.146   1.176  0.1553  0.0483  0.9501
15055TIP3   OH266655   2.849   2.482   2.782  0.4167 -0.4932  0.2378
15055TIP3    H166656   2.823   2.548   2.719  1.1700 -1.0153 -0.6377
15055TIP3    H266657   2.862   2.530   2.864  1.1490  0.4646 -0.4378
15056TIP3   OH266658   5.994   3.804   5.738 -0.0934  0.3472  1.0947
15056TIP3    H166659   5.946   3.735   5.693  0.2603  0.8481 -0.0552
15056TIP3    H266660   5.925   3.862   5.772 -0.3311  0.4407  0.4561
15057TIP3   OH266661   5.052   4.898   4.126  0.5805  0.5721 -0.0538
15057TIP3    H166662   4.992   4.906   4.201 -0.3340  0.1490 -0.7246
15057TIP3    H266663   5.097   4.814   4.141  0.0789  0.2738 -0.2008
15058TIP3   OH266664   0.016   7.049   4.053  0.3920 -0.1366 -0.5912
15058TIP3    H166665  -0.066   7.073   4.009 -0.2948 -0.0555  0.7249
15058TIP3    H266666   0.007   7.082   4.142  1.4267 -1.0415 -0.1359
15059TIP3   OH266667   2.195   2.245   2.835 -0.2194 -0.0981 -0.1885
15059TIP3    H166668   2.254   2.246   2.910 -0.6435  0.2921  0.1428
15059TIP3    H266669   2.116   2.290   2.865 -0.7378 -0.7230 -0.5889
15060TIP3   OH266670   1.063   4.569   4.513  0.2338  0.0824 -0.1422
15060TIP3    H166671   1.027   4.627   4.446 -0.0168  0.8528  0.6440
15060TIP3    H266672   1.092   4.492   4.465  1.0982  1.0876 -1.2892
15061TIP3   OH266673   5.463   1.714   2.306  0.1083 -0.8899  0.2615
15061TIP3    H166674   5.386   1.770   2.297  2.3654  2.0126 -1.9011
15061TIP3    H266675   5.456   1.651   2.234  0.7475  0.6460 -1.1611
15062TIP3   OH266676   0.804   5.761  14.088  0.4238  0.1145 -0.1048
15062TIP3    H166677   0.760   5.727  14.166 -1.5639  0.1101 -1.1809
15062TIP3    H266678   0.818   5.684  14.032  1.5437  0.1626  0.1007
15063TIP3   OH266679   3.819   3.156   5.770  0.3923 -0.3717  0.7438
15063TIP3    H166680   3.864   3.146   5.687  0.2322  0.7595  0.5133
15063TIP3    H266681   3.883   3.196   5.828 -0.0079  0.3677  0.6842
15064TIP3   OH266682   3.982   3.225   4.492  0.1330  0.3618 -0.1583
15064TIP3    H166683   4.077   3.218   4.507  0.0762 -0.8629 -0.3549
15064TIP3    H266684   3.972   3.216   4.397 -0.2878 -0.7506 -0.0109
15065TIP3   OH266685   2.505   5.371   1.363  0.0265  0.5675 -0.0547
15065TIP3    H166686   2.528   5.299   1.423  1.5791  2.2155  1.3952
15065TIP3    H266687   2.589   5.411   1.341 -0.9484  2.8665  0.3387
15066TIP3   OH266688   2.836   5.587   2.929  0.1185 -0.0167  0.3121
15066TIP3    H166689   2.760   5.614   2.981 -0.2976 -1.9902  0.7399
15066TIP3    H266690   2.802   5.578   2.840 -0.0494 -0.4860  0.4245
15067TIP3   OH266691   0.125   6.651   3.257  0.6195 -0.5431 -0.3022
15067TIP3    H166692   0.159   6.628   3.170 -1.0767  1.3713 -1.5179
15067TIP3    H266693   0.144   6.574   3.311  2.4205 -1.4622 -2.1469
15068TIP3   OH266694   5.336   5.038   4.308  0.4613 -0.2396 -0.1975
15068TIP3    H166695   5.404   5.016   4.371 -1.3689  1.1577  2.3199
15068TIP3    H266696   5.263   4.981   4.330 -0.8907  1.6144  0.2390
15069TIP3   OH266697   3.118   2.419   5.196  0.3959  0.3204 -0.6001
15069TIP3    H166698   3.193   2.401   5.140 -1.8875 -0.9712 -3.3568
15069TIP3    H266699   3.107   2.514   5.192  2.2494  0.6211  0.4259
15070TIP3   OH266700   0.939   4.657  14.957 -0.4409  0.1599 -0.1258
15070TIP3    H166701   1.003   4.728  14.954 -2.1464  1.7717  0.7268
15070TIP3    H266702   0.870   4.689  15.015 -2.0993 -1.4848 -1.1311
15071TIP3   OH266703   6.185   4.154   1.912 -0.1835  0.0921  0.4164
15071TIP3    H166704   6.176   4.220   1.843  1.9603 -0.4599 -0.4376
15071TIP3    H266705   6.098   4.116   1.920 -0.8227  1.2085 -0.9224
15072TIP3   OH266706   4.419   6.365   3.116 -0.2961  0.0087  0.0080
15072TIP3    H166707   4.435   6.394   3.206  0.4539 -0.5315  0.0581
15072TIP3    H266708   4.488   6.301   3.100 -0.0332  0.5754 -1.1694
15073TIP3   OH266709   2.668   1.032   0.398  0.4593 -0.3555 -0.1633
15073TIP3    H166710   2.741   1.060   0.343  0.9427  1.0517  1.1775
15073TIP3    H266711   2.656   1.103   0.461 -2.0166 -0.5873 -0.2979
15074TIP3   OH266712   4.700   2.162   3.959  0.9019 -0.3138  0.0868
15074TIP3    H166713   4.769   2.118   4.009 -0.2542 -0.5115  1.5315
15074TIP3    H266714   4.673   2.235   4.015 -1.3648 -1.3524  0.3820
15075TIP3   OH266715   6.535   1.800   2.283  0.7356  0.2123  0.6442
15075TIP3    H166716   6.572   1.712   2.293 -2.2516 -0.8740  3.0934
15075TIP3    H266717   6.608   1.860   2.296  2.0418 -1.8562  3.1492
15076TIP3   OH266718   7.144   1.233   4.427  0.5356 -0.2106 -0.6941
15076TIP3    H166719   7.227   1.229   4.379  0.3009  0.6235 -1.1673
15076TIP3    H266720   7.152   1.311   4.482  0.7084 -1.0244  0.4574
15077TIP3   OH266721   5.977   3.279   1.759  0.4730  0.2147  0.1918
15077TIP3    H166722   6.013   3.365   1.781  1.6498  0.3643 -2.2022
15077TIP3    H266723   6.030   3.217   1.809  0.8892  0.7498  0.4144
15078TIP3   OH266724   1.749   5.631   4.285 -0.2703 -0.0564 -0.4805
15078TIP3    H166725   1.802   5.646   4.207 -0.9646  3.5950 -0.3110
15078TIP3    H266726   1.792   5.682   4.353 -0.7608 -1.7052  1.1062
15079TIP3   OH266727   2.347   2.200   0.395  0.3327  0.0319  0.1153
15079TIP3    H166728   2.326   2.157   0.312  0.6126  0.3991 -0.1492
15079TIP3    H266729   2.293   2.155   0.460  0.0237 -0.1809 -0.2858
15080TIP3   OH266730   0.407   1.828   3.673  0.2644 -0.3689 -0.0727
15080TIP3    H166731   0.410   1.919   3.703  0.5055 -0.4474  0.1495
15080TIP3    H266732   0.499   1.801   3.668  0.2865  0.0797 -2.2706
15081TIP3   OH266733   5.520   6.317  13.659 -0.6184 -0.5148  0.0499
15081TIP3    H166734   5.457   6.345  13.725 -1.3218 -1.1573 -0.3407
15081TIP3    H266735   5.532   6.223  13.675 -0.8252 -0.6817 -0.7630
15082TIP3   OH266736   5.252   4.881   2.731 -0.1819  0.5516 -0.0326
15082TIP3    H166737   5.171   4.873   2.681 -1.2124 -0.5679  1.7426
15082TIP3    H266738   5.235   4.832   2.812  2.4621 -0.1537  0.1305
15083TIP3   OH266739   5.745   3.018   5.587 -0.0367  0.8344  0.0675
15083TIP3    H166740   5.808   2.969   5.640  0.4187 -0.8926 -2.0117
15083TIP3    H266741   5.692   3.065   5.651  1.4001 -0.0925  1.9920
15084TIP3   OH266742   3.378   2.481   1.282  0.1316 -0.0173 -0.0289
15084TIP3    H166743   3.364   2.400   1.234  0.8490 -1.1482  1.6451
15084TIP3    H266744   3.313   2.478   1.353  2.7756 -1.0796  2.4539
15085TIP3   OH266745   4.789   2.555   3.114  0.2322  0.6670 -0.3404
15085TIP3    H166746   4.880   2.529   3.127 -0.4028 -1.1841  0.6854
15085TIP3    H266747   4.778   2.560   3.019  0.4120 -2.9798 -0.6095
15086TIP3   OH266748   3.652   3.587  15.063  0.4787  0.7026 -0.3867
15086TIP3    H166749   3.672   3.632  15.145  1.8943  0.7897 -0.7750
15086TIP3    H266750   3.731   3.537  15.042 -0.4583 -0.6359 -0.8463
15087TIP3   OH266751   4.711   3.432  14.754  0.2216 -0.5093 -0.7238
15087TIP3    H166752   4.701   3.364  14.821 -3.6035 -0.0873 -0.7626
15087TIP3    H266753   4.623   3.444  14.719  1.3448  2.4759 -2.7136
15088TIP3   OH266754   2.978   4.652   1.955  0.2164 -0.4616 -0.4315
15088TIP3    H166755   3.067   4.625   1.935 -0.1666 -0.3529 -2.3686
15088TIP3    H266756   2.935   4.571   1.984  0.5253 -0.8394 -1.0119
15089TIP3   OH266757   4.094   6.095   2.932  0.0082  0.0912 -0.1537
15089TIP3    H166758   4.040   6.168   2.904  1.6341  1.1829 -0.5266
15089TIP3    H266759   4.038   6.045   2.991 -1.0292  1.8121  0.3666
15090TIP3   OH266760   2.547   1.841   5.136  0.3053  0.2085  0.6938
15090TIP3    H166761   2.632   1.882   5.148  0.9716 -1.0431  0.3794
15090TIP3    H266762   2.511   1.833   5.225 -0.2005  2.1881  0.6828
15091TIP3   OH266763   4.500   0.218   0.429 -0.4566 -0.1736 -0.1648
15091TIP3    H166764   4.566   0.180   0.372 -2.7521 -3.1280 -0.9279
15091TIP3    H266765   4.428   0.241   0.371 -1.0090  0.9968  0.9523
15092TIP3   OH266766   4.801   5.202   0.630 -0.0513 -0.0558 -0.2101
15092TIP3    H166767   4.734   5.149   0.588  0.2705  1.0459 -2.1857
15092TIP3    H266768   4.753   5.277   0.666 -0.1956 -0.4791  0.4737
15093TIP3   OH266769   6.207   4.855   4.220 -0.0072  0.1648 -0.3828
15093TIP3    H166770   6.238   4.877   4.131 -0.8927  0.3856 -0.6388
15093TIP3    H266771   6.204   4.939   4.265  1.9481 -0.1329  0.3497
15094TIP3   OH266772   5.149   2.731   1.175  0.5697  0.1115  0.1200
15094TIP3    H166773   5.070   2.739   1.121 -0.3290 -1.3119  1.1881
15094TIP3    H266774   5.197   2.658   1.136  1.9942  1.7562 -1.2782
15095TIP3   OH266775   5.290   1.496  15.324 -0.5839  0.5297 -0.0751
15095TIP3    H166776   5.228   1.448  15.270 -0.0079 -1.6516  1.1719
15095TIP3    H266777   5.341   1.548  15.261 -1.8888  0.3272 -1.3275
15096TIP3   OH266778   1.824   5.759   3.142  0.2715  0.2315 -0.2475
15096TIP3    H166779   1.773   5.758   3.061 -0.4442  2.6079  0.1250
15096TIP3    H266780   1.860   5.671   3.149 -0.2077 -0.2006 -2.7901
15097TIP3   OH266781   2.417   5.268  14.643 -0.4005  0.5268  0.5788
15097TIP3    H166782   2.365   5.316  14.578  0.7252  2.8485  1.3653
15097TIP3    H266783   2.446   5.189  14.596 -1.4801  1.0473 -1.0279
15098TIP3   OH266784   3.895   6.846   0.720  0.0635  0.1616 -0.1034
15098TIP3    H166785   3.962   6.870   0.784  0.1078 -0.1335 -0.0397
15098TIP3    H266786   3.932   6.870   0.635 -0.2692  1.1847  0.0330
15099TIP3   OH266787   4.839   0.354   2.615  0.6389  0.3260  0.3802
15099TIP3    H166788   4.803   0.349   2.526  2.2828  0.3578 -0.3077
15099TIP3    H266789   4.806   0.276   2.658 -0.6646  0.6121 -0.0621
15100TIP3   OH266790   1.358   5.820   5.075  0.5061  0.0260 -0.1831
15100TIP3    H166791   1.398   5.851   5.156 -1.7794 -0.0572  0.9935
15100TIP3    H266792   1.306   5.894   5.043 -1.9681 -1.3239  0.6677
15101TIP3   OH266793   0.643   2.239   3.363 -0.0409 -0.0450  0.0705
15101TIP3    H166794   0.615   2.155   3.397 -0.1928 -0.6432 -1.5035
15101TIP3    H266795   0.652   2.295   3.440 -1.3026 -1.0952  0.9821
15102TIP3   OH266796   2.380   1.109   2.470 -0.3639 -0.0947  0.4714
15102TIP3    H166797   2.430   1.101   2.551 -0.0217 -0.7912  0.1998
15102TIP3    H266798   2.392   1.024   2.426 -1.6233 -0.2019  0.3141
15103TIP3   OH266799   6.968   6.417   2.160 -0.3866 -0.3447  0.6497
15103TIP3    H166800   6.949   6.380   2.074  0.0937  1.7792 -0.4240
15103TIP3    H266801   6.924   6.503   2.159  0.2125 -0.0034  2.2495
15104TIP3   OH266802   1.717   6.626  15.445  0.1748 -0.4129  0.2107
15104TIP3    H166803   1.801   6.655  15.410  0.4177 -1.3937 -0.0423
15104TIP3    H266804   1.652   6.662  15.384  0.4194  0.1857  0.3004
15105TIP3   OH266805   5.935   2.229  15.337  0.2563  0.1314 -0.0096
15105TIP3    H166806   5.898   2.289  15.402  2.0060  0.7159  0.4679
15105TIP3    H266807   5.960   2.286  15.264 -1.2182 -0.4581 -0.9993
15106TIP3   OH266808   5.418   4.640   2.708  0.4749  0.0298 -0.0123
15106TIP3    H166809   5.444   4.675   2.623  0.3605  0.5313  0.1621
15106TIP3    H266810   5.354   4.702   2.742 -0.9961 -1.2078 -0.4432
15107TIP3   OH266811   5.845   5.879   3.410  0.7413 -0.1718 -0.1220
15107TIP3    H166812   5.934   5.899   3.381  1.4465  0.0389  2.0722
15107TIP3    H266813   5.856   5.810   3.475 -0.7542 -0.5452 -0.2612
15108TIP3   OH266814   5.124   6.433   5.651  0.0550  0.3511  0.2669
15108TIP3    H166815   5.094   6.375   5.721 -0.5036  0.4478  0.1133
15108TIP3    H266816   5.211   6.400   5.627 -0.1201 -0.2152  0.4109
15109TIP3   OH266817   2.952   2.945   3.157  0.1216  0.2812 -0.0212
15109TIP3    H166818   2.989   2.858   3.140 -0.4709  0.5083 -2.7711
15109TIP3    H266819   3.028   3.003   3.160  0.3993 -0.0817  0.0524
15110TIP3   OH266820   4.970   4.228   3.556 -0.6249  0.2338  0.0180
15110TIP3    H166821   4.961   4.227   3.651 -2.3781 -0.4974 -0.1319
15110TIP3    H266822   4.979   4.321   3.534  0.3731  0.3691  0.9296
15111TIP3   OH266823   5.139   5.049  11.404 -0.0263  0.2547 -0.5789
15111TIP3    H166824   5.073   5.058  11.472  0.9578  0.6875  0.3315
15111TIP3    H266825   5.100   4.989  11.340 -0.9746 -0.1051  0.3272
15112TIP3   OH266826   2.010   5.501   3.439  0.4177  0.4973  0.1741
15112TIP3    H166827   2.022   5.592   3.414  0.3386  0.2766 -0.6590
15112TIP3    H266828   2.025   5.451   3.359 -0.3849 -0.1660  0.4257
15113TIP3   OH266829   0.027   1.958   2.453  0.2791 -0.0406  0.0160
15113TIP3    H166830   0.000   1.878   2.407  1.9018 -1.5456  1.5879
15113TIP3    H266831  -0.011   1.949   2.540 -0.7734  1.6314 -0.2663
15114TIP3   OH266832   7.020   3.959   0.142 -0.1585 -0.0948 -0.5100
15114TIP3    H166833   7.105   3.925   0.171  0.6311  0.1268 -2.4640
15114TIP3    H266834   7.027   3.960   0.047 -2.3621 -0.0532 -0.6861
15115TIP3   OH266835   4.910   2.627   2.605 -0.3258 -0.6275  0.1688
15115TIP3    H166836   4.819   2.602   2.589 -0.6371  0.6793 -0.1836
15115TIP3    H266837   4.907   2.676   2.687  0.2937 -1.8459  0.9256
15116TIP3   OH266838   2.758   5.411   1.436 -0.5760 -0.1667  0.0643
15116TIP3    H166839   2.797   5.325   1.451  0.3875  0.4910  1.4279
15116TIP3    H266840   2.780   5.462   1.515  0.1256  1.7760 -1.3365
15117TIP3   OH266841   4.816   1.369   0.158 -0.1092  0.4882  0.0155
15117TIP3    H166842   4.909   1.365   0.137  0.3489 -0.9155  2.1280
15117TIP3    H266843   4.788   1.277   0.159 -1.5598  0.9106 -0.7877
15118TIP3   OH266844   6.143   3.382   3.177 -0.2002  0.2549  0.2603
15118TIP3    H166845   6.120   3.439   3.251  0.3721  0.1788  0.4965
15118TIP3    H266846   6.069   3.322   3.170 -0.2402  0.2385  0.7941
15119TIP3   OH266847   5.686   0.216   5.541 -0.0994 -0.2136  0.2971
15119TIP3    H166848   5.770   0.209   5.587  0.4803  1.3719 -0.5183
15119TIP3    H266849   5.660   0.307   5.551  0.6699  0.5000 -3.6248
15120TIP3   OH266850   5.546   1.943   2.672 -0.6186 -0.0261  0.0554
15120TIP3    H166851   5.609   1.997   2.720  0.8020 -1.4084 -0.1909
15120TIP3    H266852   5.482   1.916   2.737 -0.2754  0.4096  0.5717
15121TIP3   OH266853   4.653   0.324   5.024 -0.0162  0.1328  0.1713
15121TIP3    H166854   4.685   0.279   5.103 -0.2203 -0.6708 -0.1961
15121TIP3    H266855   4.594   0.391   5.058  1.1219  0.8394  0.7884
15122TIP3   OH266856   5.809   4.951   1.292  0.1766  0.3381 -0.1931
15122TIP3    H166857   5.883   4.898   1.318  0.8555  1.9708  1.3230
15122TIP3    H266858   5.738   4.926   1.352  0.3825  0.8237  0.2649
15123TIP3   OH266859   0.067   2.123   1.067  0.0470 -0.0535  0.1981
15123TIP3    H166860  -0.009   2.179   1.081  1.2085  1.7546 -0.5632
15123TIP3    H266861   0.076   2.074   1.148 -1.1592  0.6770  0.7807
15124TIP3   OH266862   3.381   0.869   2.041  0.0451  0.3681 -0.5013
15124TIP3    H166863   3.450   0.813   2.076  0.7025 -0.2601 -2.7279
15124TIP3    H266864   3.299   0.825   2.067  0.5117 -0.2711 -0.0982
15125TIP3   OH266865   6.399   6.314   1.931  0.6142 -0.0344  0.0708
15125TIP3    H166866   6.331   6.310   1.864 -0.5195 -0.8135  1.2460
15125TIP3    H266867   6.381   6.395   1.979  1.0605  0.2144 -0.1796
15126TIP3   OH266868   2.649   1.543   5.176  0.2325  0.2050 -0.5652
15126TIP3    H166869   2.671   1.546   5.083  0.4498 -0.7443 -0.5412
15126TIP3    H266870   2.723   1.500   5.218  0.2883  0.9212  0.1023
15127TIP3   OH266871   6.425   0.417   2.244  0.7093  0.1117  0.1112
15127TIP3    H166872   6.334   0.431   2.270  0.6714 -1.8153  1.1478
15127TIP3    H266873   6.476   0.474   2.302  0.2577  0.0860  0.5334
15128TIP3   OH266874   6.151   0.477   3.253  0.4611  0.5003 -0.7863
15128TIP3    H166875   6.071   0.501   3.300 -0.2117  1.2821 -2.2920
15128TIP3    H266876   6.189   0.407   3.305 -1.1373  0.2211  0.0381
15129TIP3   OH266877   5.603   0.007   1.134 -0.3314 -0.1760 -0.5277
15129TIP3    H166878   5.636  -0.008   1.222  0.8882  0.3389 -0.8961
15129TIP3    H266879   5.509  -0.014   1.140 -0.4828  0.9027  1.1455
15130TIP3   OH266880   4.705   3.256   2.560  0.1020  0.0421 -0.0223
15130TIP3    H166881   4.679   3.316   2.490 -0.8403  1.2295  1.2990
15130TIP3    H266882   4.767   3.307   2.612  0.5854 -0.7353  0.1702
15131TIP3   OH266883   6.588   3.189   3.154  0.5812 -0.0419  0.4503
15131TIP3    H166884   6.514   3.136   3.124  1.4866 -0.1327 -1.7607
15131TIP3    H266885   6.664   3.134   3.140  1.5184  1.6847 -1.6406
15132TIP3   OH266886   4.939   5.781   0.713 -0.3315  0.4257  0.0870
15132TIP3    H166887   4.943   5.863   0.664  2.1078  0.1014 -0.3054
15132TIP3    H266888   4.957   5.806   0.803  1.1534  0.2314 -0.1513
15133TIP3   OH266889   2.885   1.680   3.652 -0.2157 -0.6681 -0.0334
15133TIP3    H166890   2.793   1.673   3.625 -0.2396 -1.2973  0.1810
15133TIP3    H266891   2.881   1.675   3.748 -0.0286  0.2098  0.0250
15134TIP3   OH266892   5.461   1.267   3.634  0.7223 -0.3121  0.1212
15134TIP3    H166893   5.548   1.236   3.608  0.6331  0.0788 -0.6525
15134TIP3    H266894   5.474   1.360   3.652  0.8343 -0.6145  1.7322
15135TIP3   OH266895   6.444   5.563   3.920  0.6380 -0.1660  0.1095
15135TIP3    H166896   6.411   5.495   3.861  0.0854  0.5493 -0.4149
15135TIP3    H266897   6.442   5.523   4.007  2.0838 -1.4665 -0.4229
15136TIP3   OH266898   6.142   4.027   1.369  0.2684  0.0040  0.1848
15136TIP3    H166899   6.213   3.977   1.328 -0.0961 -0.3180 -0.0671
15136TIP3    H266900   6.173   4.117   1.370  1.2009 -0.3310  1.2341
15137TIP3   OH266901   2.895   6.322  14.823 -0.7491  0.5021 -0.2461
15137TIP3    H166902   2.907   6.243  14.875 -0.9276  1.0405  0.6222
15137TIP3    H266903   2.968   6.379  14.847  0.9604 -0.4701 -2.9195
15138TIP3   OH266904   6.329   6.557   1.170 -0.0766  0.1690 -0.3724
15138TIP3    H166905   6.395   6.517   1.227  0.2849  0.2549 -0.7277
15138TIP3    H266906   6.245   6.537   1.212  0.2073  0.5754  0.4080
15139TIP3   OH266907   5.480   3.870   1.345  0.1166 -0.1156  0.1082
15139TIP3    H166908   5.479   3.784   1.304  0.1385 -0.5452  0.9917
15139TIP3    H266909   5.573   3.893   1.350  0.1091 -0.0267 -0.1547
15140TIP3   OH266910   3.631   0.611   4.271 -0.3993  0.9386  0.2738
15140TIP3    H166911   3.621   0.547   4.201 -0.2839 -0.3148  1.3785
15140TIP3    H266912   3.644   0.694   4.226  1.1734 -0.0776 -1.1897
15141TIP3   OH266913   3.417   2.372   5.640  0.7533  0.0023  0.1218
15141TIP3    H166914   3.353   2.343   5.575 -0.0535  0.0368  0.8880
15141TIP3    H266915   3.498   2.329   5.615  0.3097 -0.4305 -0.5831
15142TIP3   OH266916   5.464   2.518   4.374 -0.0976 -0.2627 -0.0024
15142TIP3    H166917   5.424   2.596   4.412 -2.0138 -1.5514  0.6795
15142TIP3    H266918   5.397   2.482   4.317  1.1372 -0.8979 -1.0875
15143TIP3   OH266919   4.817   2.887   1.416  0.0231  0.6841  0.2724
15143TIP3    H166920   4.799   2.945   1.342  0.6506  1.2785  0.5790
15143TIP3    H266921   4.747   2.822   1.413  0.6665  0.0458 -1.5059
15144TIP3   OH266922   0.589   6.967   0.790 -0.6556 -0.3386 -0.4491
15144TIP3    H166923   0.545   6.909   0.852  1.3422 -0.3581  1.0017
15144TIP3    H266924   0.682   6.959   0.811 -0.2127  2.2531 -1.2087
15145TIP3   OH266925   0.755   4.694   1.944 -0.3844 -0.8128  0.0570
15145TIP3    H166926   0.797   4.755   1.884  1.5543 -1.2098  0.9707
15145TIP3    H266927   0.667   4.729   1.956 -0.1862  0.2991 -1.5353
15146TIP3   OH266928   0.141   6.439   1.431 -0.3119  0.6821  0.0753
15146TIP3    H166929   0.178   6.411   1.515 -1.4378 -0.3845  0.2159
15146TIP3    H266930   0.049   6.414   1.435 -0.8128  2.2990 -0.7466
15147TIP3   OH266931   6.498   3.144   2.440  0.1366 -0.2374 -0.7394
15147TIP3    H166932   6.417   3.194   2.454 -0.0625 -0.9898  0.9233
15147TIP3    H266933   6.564   3.211   2.423 -0.3163  0.5576  0.5183
15148TIP3   OH266934   1.644   3.015   4.650 -0.2094  0.0856  0.2816
15148TIP3    H166935   1.559   3.026   4.693  0.6874 -0.7377  2.3242
15148TIP3    H266936   1.700   2.975   4.717  1.5207 -0.2878 -1.3435
15149TIP3   OH266937   6.884   6.876   3.344 -0.5188  0.4621  0.2820
15149TIP3    H166938   6.955   6.849   3.402 -0.2182  0.4146 -0.1039
15149TIP3    H266939   6.833   6.796   3.329  0.4086  0.0676 -0.9126
15150TIP3   OH266940   1.525   3.393   2.603  0.1796  0.1631 -0.1620
15150TIP3    H166941   1.512   3.335   2.528  3.2283 -0.0489 -0.5985
15150TIP3    H266942   1.559   3.474   2.566  0.1209  0.6592  0.8485
15151TIP3   OH266943   5.177   4.785   0.250  0.2503  0.1148 -0.0362
15151TIP3    H166944   5.240   4.841   0.294  1.1309 -0.4950 -0.5055
15151TIP3    H266945   5.124   4.748   0.320  0.5643  0.4439  0.3733
15152TIP3   OH266946   4.850   3.329   1.339 -0.9029  0.0482 -0.0185
15152TIP3    H166947   4.768   3.294   1.304  0.3530 -3.8972  0.7705
15152TIP3    H266948   4.846   3.309   1.433  0.4373  0.9134  0.2309
15153TIP3   OH266949   6.082   3.972   1.637  0.2019  0.1784  0.2999
15153TIP3    H166950   6.109   3.980   1.546 -0.4887 -0.7083  0.0038
15153TIP3    H266951   6.163   3.965   1.686  0.5600 -0.4201 -0.3637
15154TIP3   OH266952   5.615   5.080   3.747 -0.1336  0.2562 -0.2516
15154TIP3    H166953   5.546   5.018   3.771  0.5679 -1.3387 -2.2501
15154TIP3    H266954   5.691   5.052   3.797 -0.3694  0.7718  0.4035
15155TIP3   OH266955   0.514   4.760   0.669 -0.4453  0.2533 -0.3018
15155TIP3    H166956   0.495   4.684   0.724 -0.1018  0.0669 -0.4383
15155TIP3    H266957   0.516   4.726   0.579  0.0315  0.3620 -0.3345
15156TIP3   OH266958   6.445   4.244   3.036  0.6722 -0.4731  0.0969
15156TIP3    H166959   6.377   4.310   3.051  0.5638 -0.7257  0.7807
15156TIP3    H266960   6.405   4.182   2.975  0.9151  0.2977 -0.8416
15157TIP3   OH266961   6.562   4.670   2.616 -0.3249 -0.4810 -0.3522
15157TIP3    H166962   6.473   4.699   2.638 -0.0174  1.8521 -1.9763
15157TIP3    H266963   6.602   4.650   2.700 -1.5001  1.1521  0.6161
15158TIP3   OH266964   6.597   0.651   0.713 -0.2497 -0.4262 -0.0809
15158TIP3    H166965   6.667   0.603   0.757 -0.6619 -0.4128  0.6089
15158TIP3    H266966   6.589   0.733   0.762  0.3513  0.2895 -1.1586
15159TIP3   OH266967   3.075   4.869   4.323 -0.5116  0.0320  0.4470
15159TIP3    H166968   2.988   4.879   4.361 -1.3700 -3.3002 -0.4548
15159TIP3    H266969   3.066   4.900   4.233 -0.5374  0.4760  0.6019
15160TIP3   OH266970   6.482   6.909   4.096 -0.0759 -0.1821 -0.0288
15160TIP3    H166971   6.530   6.990   4.112 -0.0446 -0.4739  1.4624
15160TIP3    H266972   6.425   6.928   4.022 -0.1295  1.2350  0.3739
15161TIP3   OH266973   2.298   2.158   2.589  0.0844 -0.1195  0.2457
15161TIP3    H166974   2.386   2.123   2.601 -0.3058 -1.6290 -0.9941
15161TIP3    H266975   2.277   2.202   2.671  2.5845  1.6316 -0.0205
15162TIP3   OH266976   1.361   2.739   1.839 -0.2042  0.3113  0.3227
15162TIP3    H166977   1.422   2.705   1.774 -0.1387  1.8103 -0.4216
15162TIP3    H266978   1.275   2.727   1.800 -0.4085 -1.8581  1.3986
15163TIP3   OH266979   6.438   6.644  14.004 -0.1428 -0.5206 -0.4529
15163TIP3    H166980   6.354   6.601  14.014 -0.2260 -0.3808 -0.5607
15163TIP3    H266981   6.430   6.697  13.925  0.6626 -1.9514 -1.4964
15164TIP3   OH266982   7.096   2.092   2.195 -0.1013 -0.0438  0.4527
15164TIP3    H166983   7.132   2.145   2.267  0.1926 -0.0142  0.2856
15164TIP3    H266984   7.111   2.001   2.223 -0.1573 -0.0355  0.5123
15165TIP3   OH266985   6.886   6.114   3.347  0.4034 -0.5609  0.1618
15165TIP3    H166986   6.865   6.099   3.255 -0.0036 -0.4984  0.2463
15165TIP3    H266987   6.884   6.027   3.387 -1.0306 -0.3966  0.4542
15166TIP3   OH266988   3.742   4.498   3.588  0.1091  0.5715  0.2410
15166TIP3    H166989   3.815   4.437   3.594 -0.0497  0.5084  1.5599
15166TIP3    H266990   3.702   4.478   3.503 -0.2907 -1.5792  0.8962
15167TIP3   OH266991   1.078   2.956   4.158 -0.3549  0.3626  0.3931
15167TIP3    H166992   0.992   2.926   4.129  0.7898 -2.0239 -0.6403
15167TIP3    H266993   1.096   2.905   4.237  0.8436 -0.4167 -0.3669
15168TIP3   OH266994   5.828   5.439   4.119  0.2789  0.1732 -0.1518
15168TIP3    H166995   5.862   5.501   4.055 -0.7722  1.0403  0.1150
15168TIP3    H266996   5.850   5.477   4.204 -1.6223  0.9264  0.0306
15169TIP3   OH266997   6.149   3.225   2.752  0.2674  0.5592  0.0245
15169TIP3    H166998   6.241   3.202   2.764 -0.1423 -0.5685  1.1363
15169TIP3    H266999   6.123   3.267   2.834 -1.1545 -2.4156  1.1613
15170TIP3   OH267000   3.092   6.313   0.404 -0.3860  0.3139 -0.1661
15170TIP3    H167001   3.036   6.366   0.347  0.1746  0.8794 -0.2043
15170TIP3    H267002   3.042   6.234   0.421 -1.7252  1.3519  0.8158
15171TIP3   OH267003   5.114   2.722   2.457 -0.0902  0.0120 -0.8190
15171TIP3    H167004   5.039   2.684   2.503  1.2528 -1.4684  0.2293
15171TIP3    H267005   5.102   2.816   2.464 -1.4093 -0.2091  0.0569
15172TIP3   OH267006   2.344   3.450   5.219 -0.1094 -0.3880 -0.6547
15172TIP3    H167007   2.415   3.399   5.258 -0.3572 -0.4137 -0.2374
15172TIP3    H267008   2.388   3.506   5.155  0.5439  0.8964  0.8868
15173TIP3   OH267009   5.143   1.515   1.067 -0.1315 -0.0765 -0.3798
15173TIP3    H167010   5.090   1.531   1.145 -0.3329  0.2173 -0.5734
15173TIP3    H267011   5.200   1.442   1.091  0.6158  0.7544  0.4422
15174TIP3   OH267012   3.913   6.387   2.052 -0.6512  0.7270 -0.0945
15174TIP3    H167013   3.948   6.423   2.134 -1.2056  1.0491  0.0035
15174TIP3    H267014   3.906   6.293   2.069 -0.9361  0.8163  0.2931
15175TIP3   OH267015   3.278   5.147   1.853 -0.5361 -0.7194  0.3576
15175TIP3    H167016   3.336   5.163   1.927 -2.0213 -0.5120  1.5075
15175TIP3    H267017   3.329   5.172   1.776  0.7258 -0.1152  1.3802
15176TIP3   OH267018   5.680   6.695   1.655  0.4053 -0.4703  0.6963
15176TIP3    H167019   5.705   6.625   1.595 -1.2580 -1.4180  1.0528
15176TIP3    H267020   5.663   6.650   1.738 -0.2088  0.4062  1.0540
15177TIP3   OH267021   0.452   3.002   5.267 -0.6857 -0.1637 -0.0400
15177TIP3    H167022   0.473   2.915   5.301  1.5022  0.3175 -0.0805
15177TIP3    H267023   0.517   3.060   5.306 -3.3701  1.8390  1.6177
15178TIP3   OH267024   3.873   0.869   1.403 -0.2852 -0.5165 -0.1696
15178TIP3    H167025   3.826   0.945   1.369 -0.6098 -1.2282 -1.3517
15178TIP3    H267026   3.951   0.905   1.444 -2.0704  0.7103  2.2242
15179TIP3   OH267027   4.800   5.035   2.780 -0.5895 -0.2812  0.4594
15179TIP3    H167028   4.721   4.983   2.764 -1.0994  0.3765  0.8114
15179TIP3    H267029   4.774   5.125   2.760 -0.4816  0.1929  2.3427
15180TIP3   OH267030   6.946   0.595   5.312 -0.2739  0.0093 -0.2970
15180TIP3    H167031   6.962   0.634   5.398  0.1694  0.0138 -0.3803
15180TIP3    H267032   7.010   0.635   5.254  1.0204 -1.7268 -0.1179
15181TIP3   OH267033   3.390   4.245   5.521 -0.4166 -0.1019  0.3574
15181TIP3    H167034   3.317   4.277   5.574 -1.4123  1.8329 -2.0992
15181TIP3    H267035   3.466   4.251   5.578 -1.4746  1.8730  1.6141
15182TIP3   OH267036   0.324   4.248   4.133 -0.1564  0.3902 -0.3388
15182TIP3    H167037   0.229   4.236   4.127  0.2620 -2.7648 -1.2693
15182TIP3    H267038   0.347   4.214   4.219  0.3162 -0.0910 -0.6568
15183TIP3   OH267039   5.602   5.943   5.138 -0.4480  0.0720  0.0992
15183TIP3    H167040   5.618   6.000   5.212 -0.2997  1.1471 -0.7465
15183TIP3    H267041   5.600   5.855   5.175  1.1868  0.4503  1.1496
15184TIP3   OH267042   2.664   2.432   1.013  0.3874 -0.4640 -0.8849
15184TIP3    H167043   2.663   2.494   0.940  1.2243 -1.5369 -1.8389
15184TIP3    H267044   2.723   2.362   0.983  2.8894  0.3696  1.8857
15185TIP3   OH267045   1.835   3.671   2.274 -0.2614  0.4087  0.2035
15185TIP3    H167046   1.818   3.735   2.343  0.1195  0.9654 -0.2124
15185TIP3    H267047   1.816   3.718   2.192 -1.1421 -0.3829 -0.0470
15186TIP3   OH267048   6.204   2.392   4.621 -0.5322  0.3036 -0.2125
15186TIP3    H167049   6.183   2.391   4.528 -1.4340 -0.3632 -0.0155
15186TIP3    H267050   6.278   2.452   4.629  0.4400 -0.6851 -1.5456
15187TIP3   OH267051   3.905   4.384   5.009  0.3094  0.4616  0.2244
15187TIP3    H167052   3.880   4.469   4.972 -0.0920  0.2173 -0.0732
15187TIP3    H267053   3.970   4.349   4.948 -1.8831 -0.8814 -1.4300
15188TIP3   OH267054   2.812   4.079   3.917  0.1884 -0.7751  0.4881
15188TIP3    H167055   2.905   4.101   3.920 -0.0553  0.1543  1.0942
15188TIP3    H267056   2.798   4.045   3.828  1.1173 -0.9945  0.4252
15189TIP3   OH267057   0.139   3.390   5.756 -0.3486 -0.0592  0.5375
15189TIP3    H167058   0.076   3.411   5.688 -0.0892  1.5347  0.7869
15189TIP3    H267059   0.095   3.411   5.838  0.7769  1.8501  0.6831
15190TIP3   OH267060   3.617   6.153   3.262 -0.0928 -0.2642  0.1309
15190TIP3    H167061   3.533   6.106   3.262 -0.4103  0.3018  1.1617
15190TIP3    H267062   3.676   6.095   3.309 -0.1889 -0.1596  0.3814
15191TIP3   OH267063   3.715   4.829   4.554 -0.0382 -0.8147  0.4800
15191TIP3    H167064   3.681   4.867   4.635 -0.1201  0.7425 -0.2551
15191TIP3    H267065   3.689   4.737   4.557  0.5566 -0.9306  2.5294
15192TIP3   OH267066   7.094   0.578   1.743 -0.2922 -0.0148  0.3429
15192TIP3    H167067   7.124   0.621   1.663 -0.2657 -1.3209 -0.3630
15192TIP3    H267068   7.030   0.639   1.780 -0.8840  0.2540 -1.0896
15193TIP3   OH267069   4.820   4.134  15.340 -0.0824  0.0656 -0.4086
15193TIP3    H167070   4.767   4.129  15.420  1.1093  0.1627  0.3985
15193TIP3    H267071   4.758   4.116  15.270 -1.2020  0.2330  0.5176
15194TIP3   OH267072   0.276   0.715   0.751  0.3229  0.1143 -0.0189
15194TIP3    H167073   0.353   0.712   0.694  0.5348  1.4592  0.1687
15194TIP3    H267074   0.271   0.628   0.791  0.3104 -0.7771 -1.8976
15195TIP3   OH267075   6.914   1.950   5.282  0.0696 -0.0314 -0.2018
15195TIP3    H167076   6.926   2.043   5.261  1.8629 -0.1173  0.3676
15195TIP3    H267077   6.868   1.914   5.207  0.9144  0.9608 -1.2048
15196TIP3   OH267078   0.238   0.951   4.878 -0.2585 -0.2330 -0.2490
15196TIP3    H167079   0.189   1.033   4.879 -0.8289 -0.5305 -2.1403
15196TIP3    H267080   0.170   0.884   4.890  0.1458 -0.4597  0.8051
15197TIP3   OH267081   5.685   7.054   2.850  0.0739 -0.3484 -0.5378
15197TIP3    H167082   5.773   7.017   2.842  0.4134  0.4916 -0.7470
15197TIP3    H267083   5.642   7.029   2.768  0.4391  0.0647 -0.8635
15198TIP3   OH267084   4.245   1.426   4.983 -0.0205 -0.6116 -0.0855
15198TIP3    H167085   4.182   1.356   4.999 -1.2376 -0.1421 -2.5916
15198TIP3    H267086   4.193   1.506   4.984  0.8153 -0.0550 -0.6008
15199TIP3   OH267087   5.744   4.648  13.471  0.0593  0.2639  0.0128
15199TIP3    H167088   5.679   4.696  13.523  1.2443  1.6376  0.2656
15199TIP3    H267089   5.755   4.565  13.516 -3.0449 -0.8555 -1.1772
15200TIP3   OH267090   4.941   1.792   5.210 -0.0267 -0.1543 -0.3880
15200TIP3    H167091   4.913   1.857   5.275  1.5681 -1.4026  1.6185
15200TIP3    H267092   4.868   1.786   5.149 -1.1626  1.7858  0.7301
15201TIP3   OH267093   4.032   3.881   2.174  0.6955  0.5132  0.0033
15201TIP3    H167094   4.020   3.852   2.264  0.5387  3.5812  1.0289
15201TIP3    H267095   3.977   3.823   2.122 -2.3855  1.2362  2.3468
15202TIP3   OH267096   5.591   5.991   4.437 -0.2830  0.9410  0.2359
15202TIP3    H167097   5.624   5.928   4.373  1.8093  2.4669 -0.2182
15202TIP3    H267098   5.578   6.072   4.387  2.8065  2.5779  1.9858
15203TIP3   OH267099   5.603   0.900  15.079 -0.1454 -0.0009 -0.3139
15203TIP3    H167100   5.668   0.829  15.074 -0.5082 -0.2562 -1.5243
15203TIP3    H267101   5.572   0.910  14.989 -1.0542  0.8075  0.0892
15204TIP3   OH267102   4.059   3.837   5.148 -0.0218 -0.3430  0.5951
15204TIP3    H167103   4.052   3.745   5.124  1.8765 -0.3596  0.0495
15204TIP3    H267104   4.048   3.839   5.243  0.6385 -1.2251  0.6922
15205TIP3   OH267105   0.899   1.389   1.579  0.3501  0.3825  0.3649
15205TIP3    H167106   0.992   1.402   1.559  0.8958 -1.8378  1.3557
15205TIP3    H267107   0.862   1.354   1.498  0.7152 -0.2763  0.4837
15206TIP3   OH267108   3.435   6.313   4.765 -0.0163  0.0618 -0.1332
15206TIP3    H167109   3.511   6.350   4.720  0.4369 -1.0131 -0.2609
15206TIP3    H267110   3.456   6.320   4.858 -0.6397  1.6146 -0.0931
15207TIP3   OH267111   5.542   4.218   1.578  0.2365 -0.5064 -0.0295
15207TIP3    H167112   5.634   4.217   1.604  0.5992 -1.5609 -1.3021
15207TIP3    H267113   5.542   4.268   1.496 -0.0844 -1.8703 -0.8680
15208TIP3   OH267114   6.931   0.447   0.482 -0.2661 -0.1314 -0.4911
15208TIP3    H167115   6.918   0.388   0.556 -0.5455 -0.1516 -0.5564
15208TIP3    H267116   6.888   0.528   0.508 -2.5274 -0.9246 -1.6412
15209TIP3   OH267117   0.843   6.330   3.151  0.4737 -0.1602  0.0526
15209TIP3    H167118   0.844   6.272   3.227  0.7538 -0.8789 -0.4918
15209TIP3    H267119   0.935   6.338   3.125  0.4410  0.5598  0.1459
15210TIP3   OH267120   2.753   3.690   2.589 -0.6532 -0.1179  0.1933
15210TIP3    H167121   2.749   3.782   2.566 -0.5544 -0.0102  0.6113
15210TIP3    H267122   2.788   3.688   2.678 -0.7839 -0.5511  0.2390
15211TIP3   OH267123   6.120   2.501   3.357  0.0367 -0.2801  0.9152
15211TIP3    H167124   6.192   2.538   3.306 -0.1616 -1.0742  0.0408
15211TIP3    H267125   6.071   2.577   3.388  0.4976  0.2298  0.4043
15212TIP3   OH267126   6.519   1.837   0.822  0.0598 -0.0203 -0.0958
15212TIP3    H167127   6.593   1.808   0.875  0.0156  0.5139  0.2606
15212TIP3    H267128   6.512   1.931   0.841 -1.1886 -0.2260  0.4650
15213TIP3   OH267129   2.972   2.806   2.444  0.0288  0.9350  0.1805
15213TIP3    H167130   3.028   2.867   2.493 -1.2124  1.7867  0.5486
15213TIP3    H267131   2.971   2.842   2.355 -0.5125  1.3214  0.3422
15214TIP3   OH267132   4.976   4.396   0.369 -0.6126 -0.6145  0.3303
15214TIP3    H167133   4.986   4.468   0.307 -0.5357  0.3335  1.4052
15214TIP3    H267134   5.061   4.354   0.372 -0.0729  0.4953  1.1610
15215TIP3   OH267135   5.420   6.218   2.790 -0.4519  0.2909  0.2652
15215TIP3    H167136   5.515   6.225   2.784 -0.2263 -1.5190  1.4807
15215TIP3    H267137   5.403   6.128   2.816 -2.6372 -0.1553 -2.4174
15216TIP3   OH267138   3.512   5.754   1.472 -0.3019 -0.2328 -0.7492
15216TIP3    H167139   3.475   5.749   1.560  0.7018  1.1106 -0.2367
15216TIP3    H267140   3.457   5.817   1.425 -0.0153  0.0780 -0.6683
15217TIP3   OH267141   3.753   1.261  15.140  0.7608 -0.3057 -0.2896
15217TIP3    H167142   3.672   1.244  15.090  0.4962 -1.1081  0.4071
15217TIP3    H267143   3.809   1.186  15.121  0.8707 -0.3453  0.1976
15218TIP3   OH267144   5.381   3.170   0.036  0.1266  0.1922  0.6541
15218TIP3    H167145   5.290   3.142   0.027 -0.1446  1.3871 -0.4677
15218TIP3    H267146   5.412   3.127   0.115 -1.5750  0.1965  1.3289
15219TIP3   OH267147   6.026   4.603   3.760 -0.2460 -0.0782  0.1473
15219TIP3    H167148   6.101   4.544   3.748  0.6234  1.1454 -0.5397
15219TIP3    H267149   6.062   4.680   3.804 -0.8957  0.9339 -1.0587
15220TIP3   OH267150   6.615   3.099   2.691 -0.1944  0.7159  0.0813
15220TIP3    H167151   6.564   3.094   2.610  0.2199 -0.9230 -0.0951
15220TIP3    H267152   6.667   3.179   2.682 -1.1027  1.2291 -0.6980
15221TIP3   OH267153   6.802   4.876   5.112 -0.6026 -0.2243 -0.1262
15221TIP3    H167154   6.892   4.907   5.128 -1.7677  2.2072  1.9838
15221TIP3    H267155   6.798   4.791   5.156  0.5845 -0.2092  0.0293
15222TIP3   OH267156   2.595   3.144   1.313  0.2576  0.1690 -0.0680
15222TIP3    H167157   2.524   3.080   1.310  0.6511 -0.4007  2.1853
15222TIP3    H267158   2.654   3.117   1.242 -1.8299  0.7593 -2.0671
15223TIP3   OH267159   0.153   3.751   4.501  0.4469  0.1751 -0.3912
15223TIP3    H167160   0.070   3.754   4.548  0.0009  1.3870 -1.2353
15223TIP3    H267161   0.182   3.660   4.509 -0.3482  0.0173  0.9427
15224TIP3   OH267162   2.714   5.394   4.948  0.4583  0.1021  0.7767
15224TIP3    H167163   2.737   5.312   4.991  0.2153  0.6328  1.9272
15224TIP3    H267164   2.702   5.456   5.019 -1.0957  0.6990  0.0208
15225TIP3   OH267165   6.093   1.242   2.330 -0.3254 -0.2636  0.7572
15225TIP3    H167166   6.163   1.183   2.302 -1.6117 -0.9772 -1.0383
15225TIP3    H267167   6.051   1.196   2.403  0.1278 -0.5039  0.8700
15226TIP3   OH267168   1.587   7.064   3.065 -1.0608 -0.0644 -0.5282
15226TIP3    H167169   1.543   7.017   2.995  0.4698 -0.2110 -1.4116
15226TIP3    H267170   1.539   7.146   3.073 -2.1367 -0.6634 -0.7458
15227TIP3   OH267171   4.877   3.165   4.913  0.1410  0.0475 -0.1514
15227TIP3    H167172   4.950   3.124   4.867  0.5349 -0.6572  1.0724
15227TIP3    H267173   4.804   3.103   4.902 -0.0405  0.3408 -0.6370
15228TIP3   OH267174   3.674   3.478   3.912  0.0954 -0.9139 -0.0440
15228TIP3    H167175   3.622   3.481   3.992  0.4749  1.3308  0.1636
15228TIP3    H267176   3.764   3.495   3.940 -0.1199  2.4206 -1.1676
15229TIP3   OH267177   0.143   7.090   2.329 -0.1494 -0.0566  0.9698
15229TIP3    H167178   0.059   7.050   2.305 -1.0970  1.3695  1.8135
15229TIP3    H267179   0.146   7.084   2.425  0.3430  0.5840  0.9980
15230TIP3   OH267180   3.444   5.412   1.206 -0.7773 -0.2299  0.0605
15230TIP3    H167181   3.460   5.357   1.283  3.2775  0.3409 -0.2448
15230TIP3    H267182   3.444   5.351   1.132 -0.8861 -0.3546  0.1640
15231TIP3   OH267183   3.796   6.343   5.059  0.4127  0.3214  0.4455
15231TIP3    H167184   3.709   6.376   5.078  1.4017  2.8589  0.7202
15231TIP3    H267185   3.839   6.339   5.144  0.5564 -1.0216  0.3244
15232TIP3   OH267186   5.800   4.434   3.739 -0.5612 -0.1677 -0.1933
15232TIP3    H167187   5.869   4.496   3.719 -0.6701 -0.1711 -0.5686
15232TIP3    H267188   5.836   4.349   3.713 -0.7475 -0.1569 -0.4773
15233TIP3   OH267189   6.729   0.998   2.403  0.0076  0.6949 -0.1078
15233TIP3    H167190   6.765   0.933   2.463  0.0883  0.8264 -0.0138
15233TIP3    H267191   6.641   0.968   2.385 -0.1333  0.8322  0.3394
15234TIP3   OH267192   4.849   5.777   1.530  0.6242  0.2457  0.0421
15234TIP3    H167193   4.878   5.717   1.599 -0.1889 -1.9189 -1.4401
15234TIP3    H267194   4.928   5.793   1.478  1.7613  3.5728  2.5775
15235TIP3   OH267195   2.481   4.205   2.282 -0.1929 -0.3137 -0.3409
15235TIP3    H167196   2.566   4.195   2.239 -0.2261 -0.0382 -0.4724
15235TIP3    H267197   2.494   4.275   2.345 -0.3321 -0.2531 -0.3811
15236TIP3   OH267198   2.057   2.609   0.545  0.3750  0.3080 -0.0548
15236TIP3    H167199   2.025   2.549   0.612 -0.6895  1.8540  0.8336
15236TIP3    H267200   2.136   2.566   0.512  0.3840 -0.9378  1.4906
15237TIP3   OH267201   0.048   5.949   4.997 -0.0700  0.0454 -0.0983
15237TIP3    H167202   0.143   5.944   4.985  0.0052  1.7833 -0.4071
15237TIP3    H267203   0.012   5.946   4.908 -0.2171  0.8237 -0.0678
15238TIP3   OH267204   0.870   3.203   0.938  0.5411  0.6000  0.1875
15238TIP3    H167205   0.966   3.200   0.930  0.5548  0.5006  0.3930
15238TIP3    H267206   0.840   3.127   0.890  0.5984  0.2853  0.6426
15239TIP3   OH267207   6.861   5.775   1.987 -0.2281  0.6759 -0.0459
15239TIP3    H167208   6.882   5.841   2.053 -1.4738  0.4859  0.5660
15239TIP3    H267209   6.927   5.787   1.919  2.0223 -0.1465  1.9326
15240TIP3   OH267210   0.953   0.336   2.668  0.3083 -0.6502 -0.1440
15240TIP3    H167211   0.937   0.255   2.620 -1.2900  0.0990 -0.9196
15240TIP3    H267212   0.916   0.320   2.755 -0.7762 -0.4787 -0.5600
15241TIP3   OH267213   2.645   5.237   0.282 -0.4410  0.3069 -0.6327
15241TIP3    H167214   2.627   5.267   0.371 -1.3839  0.9537 -1.0341
15241TIP3    H267215   2.576   5.277   0.229 -0.3388 -0.6986 -1.5352
15242TIP3   OH267216   6.507   1.638   6.202  0.3351  0.0568  0.0073
15242TIP3    H167217   6.588   1.660   6.155 -0.4498  0.6340 -1.1075
15242TIP3    H267218   6.484   1.718   6.249 -0.6568  0.5441 -1.2820
15243TIP3   OH267219   6.933   2.017   6.277  0.0817  0.1183  0.1235
15243TIP3    H167220   6.853   2.035   6.326 -1.1282 -1.0258 -1.3474
15243TIP3    H267221   6.936   1.922   6.270  2.3598  0.0579  1.3846
15244TIP3   OH267222   5.237   3.740   4.303  0.4832  0.1560 -0.4863
15244TIP3    H167223   5.274   3.811   4.251  0.0991 -0.9125 -2.2675
15244TIP3    H267224   5.268   3.660   4.260 -1.0619 -0.7489  0.0424
15245TIP3   OH267225   0.209   1.327  13.939 -0.4472  0.5988 -0.0931
15245TIP3    H167226   0.171   1.391  13.879 -2.0484  1.1969  1.4722
15245TIP3    H267227   0.206   1.244  13.892 -0.2833  1.3234 -1.3858
15246TIP3   OH267228   0.706   4.086   1.950  0.4769 -0.2045  0.2731
15246TIP3    H167229   0.633   4.128   1.903  0.6274 -1.3243 -0.9967
15246TIP3    H267230   0.676   4.080   2.040  0.0420  1.7022  0.2866
15247TIP3   OH267231   4.258   2.389   3.269 -0.2598  0.0686  0.1792
15247TIP3    H167232   4.173   2.361   3.233 -0.2559 -0.8031  0.8431
15247TIP3    H267233   4.259   2.353   3.358  0.6085  0.4868  0.3375
15248TIP3   OH267234   3.667   2.416   1.854  0.3680  0.2553 -0.4099
15248TIP3    H167235   3.736   2.356   1.825 -0.5500 -0.2433 -1.6198
15248TIP3    H267236   3.587   2.364   1.850 -0.5550  1.7632 -2.2143
15249TIP3   OH267237   1.635   2.485   3.770 -0.0686 -0.0559 -0.4158
15249TIP3    H167238   1.636   2.527   3.684  1.3402 -0.7214 -0.7459
15249TIP3    H267239   1.646   2.392   3.751  1.8138 -0.0594  0.5359
15250TIP3   OH267240   4.260   2.020   1.545 -0.0618 -0.5655 -0.2134
15250TIP3    H167241   4.187   2.078   1.524  0.8505  0.7377  0.1028
15250TIP3    H267242   4.225   1.932   1.536 -1.7242  0.0427  0.1192
15251TIP3   OH267243   6.005   4.500   2.753  0.1246  0.5900  0.4314
15251TIP3    H167244   6.019   4.536   2.841 -1.2468 -0.0742  0.9279
15251TIP3    H267245   6.092   4.472   2.726  0.4661  0.2211  1.8385
15252TIP3   OH267246   6.529   1.595   1.657 -0.1196 -0.1147  0.1089
15252TIP3    H167247   6.570   1.549   1.584  0.4378 -1.0909  1.0138
15252TIP3    H267248   6.592   1.661   1.684 -0.4837  0.4949 -0.5310
15253TIP3   OH267249   3.777   7.173   1.430 -0.4030  0.1604  0.6068
15253TIP3    H167250   3.775   7.238   1.360 -0.6996 -0.8679 -0.3580
15253TIP3    H267251   3.869   7.167   1.455 -0.1475 -0.2427 -0.4301
15254TIP3   OH267252   5.704   6.825   4.842  0.5746 -0.3151  0.0173
15254TIP3    H167253   5.698   6.758   4.774 -0.1401 -0.4990  0.2574
15254TIP3    H267254   5.620   6.871   4.838  0.5077 -0.3644  0.8172
15255TIP3   OH267255   2.748   3.945   4.484  0.0741 -0.0260  0.2337
15255TIP3    H167256   2.669   3.981   4.445 -0.4766 -1.0984  0.3370
15255TIP3    H267257   2.785   3.889   4.415 -1.6845 -3.0940  1.6606
15256TIP3   OH267258   3.437   1.214   4.795 -0.3119 -0.5084  0.3592
15256TIP3    H167259   3.378   1.169   4.734 -1.8998  0.5486  1.0619
15256TIP3    H267260   3.512   1.240   4.742  1.4357 -5.2909  0.2315
15257TIP3   OH267261   3.275   6.127   1.855 -0.3416  0.0421 -0.2247
15257TIP3    H167262   3.249   6.169   1.937 -0.6319 -0.3031 -0.1374
15257TIP3    H267263   3.208   6.154   1.792 -0.1836  0.2124 -0.3205
15258TIP3   OH267264   5.298   1.673   0.387  0.3624 -0.2716 -0.2361
15258TIP3    H167265   5.264   1.753   0.348  1.2538  0.0855 -0.2984
15258TIP3    H267266   5.283   1.684   0.481  0.6252  0.0379 -0.2309
15259TIP3   OH267267   6.626   4.378   4.242 -0.4124 -0.5656  0.0280
15259TIP3    H167268   6.662   4.356   4.156 -2.2837 -1.5082 -0.5500
15259TIP3    H267269   6.699   4.369   4.303  1.2481  1.3670 -1.6324
15260TIP3   OH267270   4.073   4.011   2.644 -0.2951  0.0826  0.7388
15260TIP3    H167271   4.095   4.086   2.590 -0.6342 -0.3910 -0.0616
15260TIP3    H267272   4.076   3.936   2.585 -0.4471 -0.4714  1.4166
15261TIP3   OH267273   0.175   2.191   4.825 -0.0403  0.1038  0.1547
15261TIP3    H167274   0.258   2.230   4.852  0.4604  0.1866 -1.4391
15261TIP3    H267275   0.108   2.240   4.872  0.8391 -0.3138  1.8543
15262TIP3   OH267276   1.449   3.049   0.342 -0.0653  0.2682  0.1586
15262TIP3    H167277   1.361   3.085   0.358  0.7637  2.5194 -0.1441
15262TIP3    H267278   1.504   3.088   0.409  0.8927 -0.4249 -0.2089
15263TIP3   OH267279   1.635   5.794   2.962 -0.1209 -0.3733  0.3756
15263TIP3    H167280   1.545   5.827   2.955  0.3695  0.4026 -2.8516
15263TIP3    H267281   1.634   5.710   2.916  0.9618 -0.0070 -0.3386
15264TIP3   OH267282   1.409   0.298   4.254  0.2002  0.3535  0.1221
15264TIP3    H167283   1.436   0.297   4.162 -0.6076 -0.0623 -0.1172
15264TIP3    H267284   1.486   0.269   4.302  0.8599  1.2661 -0.3634
15265TIP3   OH267285   2.369   2.426   1.043 -0.0524  0.0481  0.9315
15265TIP3    H167286   2.463   2.422   1.064 -0.1754  2.4690  2.0484
15265TIP3    H267287   2.325   2.409   1.127 -0.6744 -2.2077  0.2037
15266TIP3   OH267288   1.795   0.611   4.430 -0.4403 -0.0140 -0.1165
15266TIP3    H167289   1.889   0.619   4.447 -0.1875 -2.6931  0.0771
15266TIP3    H267290   1.776   0.677   4.364  1.7149  0.1730 -0.5825
15267TIP3   OH267291   0.415   2.386  15.590  0.3466 -0.2924  0.8720
15267TIP3    H167292   0.378   2.307  15.628  2.4724 -1.5622  0.4182
15267TIP3    H267293   0.346   2.422  15.535  0.1766 -3.2333 -0.9197
15268TIP3   OH267294   5.729   2.606   3.176  0.1187  0.0160 -0.0983
15268TIP3    H167295   5.702   2.604   3.268  0.1757 -0.2837 -0.0872
15268TIP3    H267296   5.647   2.620   3.127  0.1128  0.3560  0.0080
15269TIP3   OH267297   6.655   6.685   1.509 -0.0058  0.2180 -0.2772
15269TIP3    H167298   6.592   6.748   1.474 -1.0462  0.9048  2.6570
15269TIP3    H267299   6.616   6.657   1.592  2.6743 -0.7694  0.6935
15270TIP3   OH267300   4.125   5.127   4.052 -0.2399  0.8484  0.4515
15270TIP3    H167301   4.209   5.144   4.095 -0.2230  0.3139  0.6305
15270TIP3    H267302   4.131   5.036   4.022 -0.0904  1.3300 -1.0487
15271TIP3   OH267303   4.338   1.520   3.594 -0.0293 -0.2826 -0.0882
15271TIP3    H167304   4.333   1.439   3.645 -0.1225 -0.5637 -0.5320
15271TIP3    H267305   4.383   1.494   3.513 -1.2248 -0.1857 -0.8034
15272TIP3   OH267306   3.350   4.532   1.312  0.3237 -0.3715  0.1623
15272TIP3    H167307   3.351   4.437   1.325 -1.1244 -0.4358 -0.1394
15272TIP3    H267308   3.260   4.552   1.289  1.0239  0.8581 -1.5523
15273TIP3   OH267309   2.443   4.308   3.732  0.0273 -0.1340 -0.7374
15273TIP3    H167310   2.426   4.353   3.815  2.0326 -0.6079 -0.0444
15273TIP3    H267311   2.447   4.215   3.755  0.4342 -0.2824 -1.3775
15274TIP3   OH267312   6.170   2.293   3.520 -0.0385  0.0378  0.0532
15274TIP3    H167313   6.148   2.375   3.476 -0.5478 -1.6678 -3.0259
15274TIP3    H267314   6.085   2.256   3.544 -0.0939 -1.5387 -2.3768
15275TIP3   OH267315   0.772   2.772   5.580  0.1190  0.2602 -0.3164
15275TIP3    H167316   0.824   2.713   5.526 -0.1724 -1.1465  0.8974
15275TIP3    H267317   0.815   2.857   5.572  2.4939 -0.8316  0.5233
15276TIP3   OH267318   2.151   0.820  15.438 -0.1420 -0.1606  0.1716
15276TIP3    H167319   2.175   0.729  15.453  2.5376  0.8243  2.2052
15276TIP3    H267320   2.154   0.831  15.343  2.2624 -1.4835  0.0736
15277TIP3   OH267321   0.778   3.892   3.121 -0.1475  0.4191  0.0464
15277TIP3    H167322   0.797   3.803   3.150  1.3031  0.8897  0.5718
15277TIP3    H267323   0.863   3.936   3.120 -0.4870  1.1299 -2.5176
15278TIP3   OH267324   0.473   0.297   3.423 -0.0779 -0.0852  0.1682
15278TIP3    H167325   0.481   0.393   3.424  1.1425 -0.1829  0.1787
15278TIP3    H267326   0.379   0.281   3.411 -0.1643  1.1130 -0.8457
15279TIP3   OH267327   1.716   0.603   2.545  1.1189  1.1534  0.3261
15279TIP3    H167328   1.715   0.549   2.624 -0.7483 -0.1951 -0.5826
15279TIP3    H267329   1.791   0.571   2.495  0.4916 -0.0899  0.1567
15280TIP3   OH267330   2.848   2.707   2.964 -0.1572 -0.3454  0.5918
15280TIP3    H167331   2.816   2.782   3.013 -0.0987 -0.3864  0.6931
15280TIP3    H267332   2.940   2.699   2.990 -0.4922 -1.2259  1.5528
15281TIP3   OH267333   1.646   1.655   5.099 -0.3414 -0.1096  0.2327
15281TIP3    H167334   1.613   1.679   5.186 -2.1506 -2.3292  0.2155
15281TIP3    H267335   1.741   1.661   5.107 -0.4187 -1.3594  2.7071
15282TIP3   OH267336   5.873   0.734   0.542 -0.6997  0.0737 -0.1715
15282TIP3    H167337   5.858   0.645   0.511  1.6745 -0.7168  0.8249
15282TIP3    H267338   5.869   0.788   0.463 -2.9352 -0.7802 -0.6852
15283TIP3   OH267339   6.372   3.543   2.609  0.1950 -0.3430  0.5997
15283TIP3    H167340   6.389   3.571   2.698  1.4098  0.3611  0.1461
15283TIP3    H267341   6.356   3.623   2.560 -3.8059 -0.8693  0.8196
15284TIP3   OH267342   3.444   0.999   3.528  0.0907 -0.0151 -0.4245
15284TIP3    H167343   3.510   1.035   3.468  1.6684  0.7605  1.7170
15284TIP3    H267344   3.425   0.912   3.494 -0.1715  0.9622 -2.9008
15285TIP3   OH267345   6.118   5.446   4.030 -0.5537 -0.5668  0.1262
15285TIP3    H167346   6.109   5.380   4.099  1.3243  1.5913  2.5248
15285TIP3    H267347   6.164   5.400   3.960 -0.3630 -2.1556  1.2513
15286TIP3   OH267348   6.753   2.047   3.463  0.0248 -0.3265 -0.2263
15286TIP3    H167349   6.775   2.113   3.528  0.6286  1.3092 -2.0482
15286TIP3    H267350   6.836   2.026   3.420  0.0541 -3.1890  1.1342
15287TIP3   OH267351   4.903   2.789   5.565 -0.5080 -0.5437  0.1188
15287TIP3    H167352   4.895   2.868   5.618  0.5275 -0.7418  0.5924
15287TIP3    H267353   4.894   2.717   5.628  1.4917 -0.7806  0.1823
15288TIP3   OH267354   2.293   1.252   0.070 -0.9931 -0.3497  0.6278
15288TIP3    H167355   2.274   1.233  -0.022 -1.7180 -1.1215  0.9364
15288TIP3    H267356   2.362   1.318   0.067 -2.5700  1.2726 -0.4885
15289TIP3   OH267357   6.300   1.024   4.876 -0.2098 -0.2601  0.4561
15289TIP3    H167358   6.302   1.067   4.790  2.1930 -0.6467  0.2819
15289TIP3    H267359   6.216   0.980   4.879 -1.6525  2.3319 -0.4235
15290TIP3   OH267360   3.464   5.179   4.908  0.0424  0.3529  0.0182
15290TIP3    H167361   3.444   5.121   4.982  0.4616 -0.8163 -0.7666
15290TIP3    H267362   3.558   5.195   4.914 -0.3680  2.4678  1.2924
15291TIP3   OH267363   4.568   3.383   3.920 -0.0636  0.8174 -0.4597
15291TIP3    H167364   4.517   3.329   3.982  2.1489 -0.5687  0.1947
15291TIP3    H267365   4.530   3.362   3.835 -0.2556 -0.6351 -0.0470
15292TIP3   OH267366   1.472   6.749   1.456 -0.1855  0.2970  0.1134
15292TIP3    H167367   1.458   6.839   1.428  0.4489  0.2313 -0.4161
15292TIP3    H267368   1.498   6.703   1.376 -1.2091 -0.5106  0.2320
15293TIP3   OH267369   1.328   0.280   3.366 -0.2710 -0.0490 -0.2797
15293TIP3    H167370   1.393   0.265   3.298  0.3101  0.8881  0.0536
15293TIP3    H267371   1.365   0.351   3.419 -0.5776 -0.9553  1.1817
15294TIP3   OH267372   1.645   1.872   3.831  0.0034  0.0641 -0.0238
15294TIP3    H167373   1.712   1.804   3.827  0.0391  0.0786  0.3286
15294TIP3    H267374   1.694   1.954   3.833 -0.0107  0.0572  0.7340
15295TIP3   OH267375   2.487   4.296   1.088 -0.0016  0.1684  0.1570
15295TIP3    H167376   2.442   4.212   1.077  0.7175 -0.2463  0.3496
15295TIP3    H267377   2.480   4.314   1.181  0.7862 -0.2187  0.2975
15296TIP3   OH267378   6.147   3.741   4.719  0.6155 -0.6025  0.4516
15296TIP3    H167379   6.092   3.743   4.641  1.5006  1.1073 -0.1481
15296TIP3    H267380   6.088   3.710   4.789 -1.3048  1.7860 -0.0272
15297TIP3   OH267381   6.210   6.579   3.190 -0.0623 -0.6765  0.2539
15297TIP3    H167382   6.257   6.525   3.254  1.3694  2.4342  1.9164
15297TIP3    H267383   6.119   6.552   3.199  0.5327 -2.4391  1.3857
15298TIP3   OH267384   3.577   6.228   6.198 -0.8746  0.4810  0.0291
15298TIP3    H167385   3.631   6.172   6.254 -1.8490  1.3004  1.8270
15298TIP3    H267386   3.488   6.197   6.212 -1.2191  1.2578 -0.4172
15299TIP3   OH267387   5.585   2.270   4.430 -0.3329 -0.2192 -0.3009
15299TIP3    H167388   5.553   2.359   4.417 -2.0470 -0.8590 -0.5568
15299TIP3    H267389   5.680   2.279   4.434 -0.4186  1.4551 -1.6320
15300TIP3   OH267390   6.133   2.614   2.901  0.5160  0.9598  0.1521
15300TIP3    H167391   6.171   2.648   2.820  1.9713 -0.9167  0.0147
15300TIP3    H267392   6.207   2.576   2.948 -1.2062 -3.2018 -0.3439
15301TIP3   OH267393   3.768   5.659   2.801  0.3930 -0.2275  0.0288
15301TIP3    H167394   3.675   5.658   2.822  0.5303 -0.2729  0.6183
15301TIP3    H267395   3.783   5.748   2.768  0.1936 -0.1424  0.1624
15302TIP3   OH267396   1.515   3.731   2.442  0.2847 -0.2576 -0.2029
15302TIP3    H167397   1.481   3.661   2.387  0.1632  0.8883 -1.5966
15302TIP3    H267398   1.589   3.691   2.488  0.6473 -1.1099 -1.4964
15303TIP3   OH267399   3.224   2.336   1.633 -0.8070 -0.2862  0.7115
15303TIP3    H167400   3.167   2.283   1.578 -0.8343 -1.5684  1.9376
15303TIP3    H267401   3.222   2.423   1.593 -1.5284 -0.9674 -0.7726
15304TIP3   OH267402   6.614   3.597   0.977 -0.2125  0.0177 -0.1324
15304TIP3    H167403   6.527   3.568   0.952 -0.1309 -0.2426 -0.1221
15304TIP3    H267404   6.650   3.637   0.897  0.3799 -1.6037 -0.7032
15305TIP3   OH267405   3.280   4.786   1.692 -0.7345  0.0328 -0.9188
15305TIP3    H167406   3.217   4.721   1.662 -0.8913 -1.0366  1.5910
15305TIP3    H267407   3.240   4.870   1.669 -3.3402 -0.6125  1.0285
15306TIP3   OH267408   3.479   3.673   0.539 -0.1773 -0.3795  0.6737
15306TIP3    H167409   3.495   3.756   0.495  0.4131 -0.9256 -0.1796
15306TIP3    H267410   3.517   3.684   0.626 -0.0829  0.2408  0.5543
15307TIP3   OH267411   6.481   2.465   2.812  0.2199 -0.4040  0.4798
15307TIP3    H167412   6.432   2.510   2.880 -1.8755 -0.4259 -0.9753
15307TIP3    H267413   6.473   2.521   2.735  1.8320 -0.8059 -0.0164
15308TIP3   OH267414   1.795   0.849   0.275  0.5189  0.1129 -0.7482
15308TIP3    H167415   1.773   0.826   0.185 -0.2641  0.7162 -0.7203
15308TIP3    H267416   1.718   0.821   0.325 -0.4631  2.7320 -0.7098
15309TIP3   OH267417   0.585   4.286   4.399 -0.4142  0.6455 -0.4019
15309TIP3    H167418   0.608   4.356   4.339  0.6642  1.2720  0.7244
15309TIP3    H267419   0.655   4.221   4.389 -0.0226  0.9230  0.4227
15310TIP3   OH267420   1.984   6.636   4.829 -0.8160  0.1128  0.1674
15310TIP3    H167421   1.985   6.712   4.887  1.6632 -0.5404  1.0352
15310TIP3    H267422   1.980   6.560   4.887  0.9992 -0.5205 -0.4739
15311TIP3   OH267423   4.310   3.909   2.177 -0.4390  0.3329 -0.0525
15311TIP3    H167424   4.215   3.917   2.181 -0.5129  0.1948 -1.3732
15311TIP3    H267425   4.340   3.998   2.156 -0.2333  0.4781  0.8119
15312TIP3   OH267426   2.323   3.563   4.488 -0.0141 -0.5066 -0.3702
15312TIP3    H167427   2.271   3.548   4.567 -0.5101 -0.5701 -0.7067
15312TIP3    H267428   2.410   3.587   4.520 -0.6976  1.2250  0.2139
15313TIP3   OH267429   0.400   0.525   1.445 -0.5132 -0.0100 -0.1125
15313TIP3    H167430   0.306   0.527   1.465 -0.6918 -0.8640 -0.8274
15313TIP3    H267431   0.426   0.434   1.461  0.0398  0.0555 -0.5969
15314TIP3   OH267432   1.481   5.845   5.329 -0.2244 -0.1356  0.0073
15314TIP3    H167433   1.489   5.914   5.395  1.6804 -2.0327  1.8407
15314TIP3    H267434   1.399   5.799   5.351 -0.6325  0.4839 -0.2064
15315TIP3   OH267435   6.981   7.030  13.229 -0.4729  0.6433 -0.9481
15315TIP3    H167436   6.944   6.941  13.234 -0.5414  0.6898 -0.6458
15315TIP3    H267437   6.909   7.084  13.196  0.1791  0.2160 -3.1674
15316TIP3   OH267438   2.331   2.059   5.989  0.2843 -0.1139  0.9308
15316TIP3    H167439   2.402   2.078   5.929 -0.2403  0.5792  0.5233
15316TIP3    H267440   2.348   1.970   6.019  1.0925 -0.0996  0.5217
15317TIP3   OH267441   3.516   0.247   2.394  0.1503  0.7817  0.3557
15317TIP3    H167442   3.439   0.303   2.403 -0.2640  0.4050 -0.7052
15317TIP3    H267443   3.553   0.243   2.482 -0.8386  1.2609  0.8069
15318TIP3   OH267444   2.036   1.088  13.742  0.1082 -0.4628 -0.1627
15318TIP3    H167445   2.075   1.146  13.676  1.1537  0.1519  0.9595
15318TIP3    H267446   2.071   1.121  13.825 -1.8267 -0.7127  0.7746
15319TIP3   OH267447   3.485   3.401   2.939  0.0813 -0.2759 -0.0592
15319TIP3    H167448   3.537   3.321   2.947  0.1810 -0.1225  0.8516
15319TIP3    H267449   3.400   3.378   2.978  0.5347  0.4431  1.3829
15320TIP3   OH267450   6.134   5.353   5.001  0.3463  0.2174  0.2172
15320TIP3    H167451   6.043   5.325   5.011 -0.5195  2.3574 -1.2722
15320TIP3    H267452   6.146   5.419   5.070  0.6410  0.2218  0.1591
15321TIP3   OH267453   6.509   2.786   5.214  0.1655  0.3512  0.4307
15321TIP3    H167454   6.596   2.751   5.194  0.8597  0.5061  2.9479
15321TIP3    H267455   6.477   2.732   5.287 -1.6414  0.6262 -0.1310
15322TIP3   OH267456   4.612   3.231   3.402 -0.5433  0.3422 -0.3050
15322TIP3    H167457   4.623   3.319   3.438 -0.5432 -0.3385  1.4200
15322TIP3    H267458   4.663   3.231   3.322 -0.7148  1.9758 -0.4325
15323TIP3   OH267459   5.642   5.386  14.972  0.4071 -0.3710 -0.2426
15323TIP3    H167460   5.734   5.404  14.951  0.0881  0.4250 -1.0127
15323TIP3    H267461   5.645   5.330  15.049  1.4886  2.3975  1.7858
15324TIP3   OH267462   5.710   0.065   3.569 -0.1793 -0.0202 -0.2368
15324TIP3    H167463   5.740   0.085   3.658 -1.7598 -0.0826  0.3257
15324TIP3    H267464   5.730   0.144   3.519  0.5510  0.0847  0.2014
15325TIP3   OH267465   6.763   3.853   5.860  0.3244  0.3080  0.3992
15325TIP3    H167466   6.707   3.782   5.893  0.1072 -0.2298 -1.1194
15325TIP3    H267467   6.826   3.810   5.803 -0.3570  1.4310 -1.2504
15326TIP3   OH267468   2.217   4.070   4.236  0.7057  0.3701 -0.1579
15326TIP3    H167469   2.270   4.075   4.316 -1.3949 -0.6924  1.3536
15326TIP3    H267470   2.180   4.158   4.226  0.4936  0.3507  0.4107
15327TIP3   OH267471   1.094   5.071   4.065 -0.3626  0.2281 -0.1380
15327TIP3    H167472   1.089   5.129   4.142  0.1663 -0.3460  0.3415
15327TIP3    H267473   1.163   5.009   4.088  1.1438  1.2158 -1.8735
15328TIP3   OH267474   1.159   1.828   3.063 -0.6780 -0.4527 -0.2609
15328TIP3    H167475   1.123   1.778   2.989  0.1070 -0.6743 -0.4904
15328TIP3    H267476   1.173   1.916   3.027  0.4776 -0.7758 -0.6057
15329TIP3   OH267477   3.758   1.077   2.535 -0.5559 -0.0361 -0.4268
15329TIP3    H167478   3.761   1.163   2.493  0.9454 -0.4035 -1.1116
15329TIP3    H267479   3.850   1.058   2.556 -1.1122 -0.5281  1.6627
15330TIP3   OH267480   3.372   1.736   3.649 -0.0734  0.3524  0.3085
15330TIP3    H167481   3.375   1.786   3.730  0.6838  0.3845  0.2601
15330TIP3    H267482   3.445   1.674   3.655 -0.6428 -0.3486  0.1072
15331TIP3   OH267483   1.166   1.036   2.484 -0.4777 -0.0987 -0.3925
15331TIP3    H167484   1.177   1.104   2.417 -0.1024 -0.0897 -0.3242
15331TIP3    H267485   1.190   0.955   2.440 -1.0057 -0.1945 -0.4959
15332TIP3   OH267486   3.969   5.405   3.067 -0.0767 -0.1314  0.0695
15332TIP3    H167487   4.014   5.330   3.106  0.8240  0.8978  1.0740
15332TIP3    H267488   3.885   5.371   3.038 -0.3784 -1.1513  2.0665
15333TIP3   OH267489   3.440   3.125   1.705  0.8143  0.3704 -0.4333
15333TIP3    H167490   3.377   3.197   1.700  1.6971  1.1921  0.0706
15333TIP3    H267491   3.492   3.133   1.625 -0.0462 -0.6350 -1.1147
15334TIP3   OH267492   2.691   4.524   1.313  0.2280 -0.0109  0.1998
15334TIP3    H167493   2.598   4.524   1.336 -0.3266  0.4518 -1.9509
15334TIP3    H267494   2.706   4.610   1.273  1.2679 -0.5968 -0.6867
15335TIP3   OH267495   5.749   1.776   4.730 -0.6542  0.1771  0.1379
15335TIP3    H167496   5.713   1.744   4.647 -0.1482 -1.9674  0.7186
15335TIP3    H267497   5.677   1.767   4.792 -0.1394 -0.9926  0.5713
15336TIP3   OH267498   2.944   1.606   3.899  0.6708  0.0717  0.7698
15336TIP3    H167499   2.981   1.538   3.842  0.1937  0.6561 -0.2468
15336TIP3    H267500   3.021   1.652   3.934  0.9396  0.4399 -0.2941
15337TIP3   OH267501   0.987   1.565   0.665 -0.4204 -0.0906  0.5721
15337TIP3    H167502   1.044   1.621   0.717 -0.1361  0.2265 -0.0633
15337TIP3    H267503   0.976   1.612   0.582 -1.0743 -0.4571  0.4423
15338TIP3   OH267504   6.268   3.331   2.101  0.0374  0.1099  0.9318
15338TIP3    H167505   6.312   3.246   2.102  0.1122  0.1441  0.5993
15338TIP3    H267506   6.334   3.392   2.133  1.1095  0.5809 -2.0858
15339TIP3   OH267507   5.022   0.824   2.971  0.0252 -0.5896 -0.3515
15339TIP3    H167508   5.069   0.807   2.889 -0.8347 -0.3089 -0.9094
15339TIP3    H267509   5.092   0.842   3.034  0.6565  2.3831 -1.7537
15340TIP3   OH267510   1.932   4.851   0.911  0.3760  0.6637 -0.8092
15340TIP3    H167511   2.028   4.858   0.905  0.6103  0.3248  1.6908
15340TIP3    H267512   1.916   4.757   0.917  0.0698  0.8020  0.7686
15341TIP3   OH267513   2.158   1.032   1.547  0.0367  0.2820  0.6375
15341TIP3    H167514   2.254   1.029   1.547  0.0549  0.6492  1.3889
15341TIP3    H267515   2.132   0.939   1.548  0.3787  0.1787  0.0270
15342TIP3   OH267516   3.363   2.913   0.332 -0.9315  0.4098  0.2177
15342TIP3    H167517   3.397   2.927   0.243 -1.0570 -1.6840 -0.2000
15342TIP3    H267518   3.269   2.903   0.320 -0.8000 -1.1607  0.4015
15343TIP3   OH267519   4.898   5.384  15.055 -0.2149  0.6451  0.0525
15343TIP3    H167520   4.852   5.351  15.132 -1.1286  0.2262 -0.6691
15343TIP3    H267521   4.948   5.309  15.022  0.6894  0.9912  0.5973
15344TIP3   OH267522   0.461   5.602   5.441 -0.2906  0.2716  0.0185
15344TIP3    H167523   0.522   5.601   5.366  0.2000  0.5801  0.4089
15344TIP3    H267524   0.389   5.545   5.414  0.1100  0.0069 -0.5062
15345TIP3   OH267525   3.806   6.675   3.508 -0.5807  0.5570 -0.0539
15345TIP3    H167526   3.839   6.604   3.452 -0.8572 -0.8573  1.5571
15345TIP3    H267527   3.823   6.755   3.457 -0.2196 -0.6404 -1.8681
15346TIP3   OH267528   7.122   6.766   4.426  0.7233  0.0187  0.4297
15346TIP3    H167529   7.213   6.783   4.400  1.3947 -2.1048  1.3346
15346TIP3    H267530   7.129   6.731   4.515 -0.9898 -0.3221  0.4382
15347TIP3   OH267531   5.035   3.037   3.834 -0.5088  0.1561  0.0118
15347TIP3    H167532   5.091   3.108   3.802 -1.0960 -0.0761 -1.5737
15347TIP3    H267533   4.948   3.056   3.798 -0.9254 -0.7611  0.5007
15348TIP3   OH267534   1.074   5.040   4.529 -0.2047  0.3680  0.0104
15348TIP3    H167535   1.142   5.051   4.595 -0.8047  0.7805  0.5656
15348TIP3    H267536   1.056   4.946   4.529  0.7589  0.1816 -0.5364
15349TIP3   OH267537   2.652   1.793   1.587  0.0761  0.3338  0.2969
15349TIP3    H167538   2.627   1.760   1.673 -2.1381  0.4382 -0.2971
15349TIP3    H267539   2.711   1.866   1.605 -0.6650  0.5806  1.7396
15350TIP3   OH267540   5.521   6.359  14.779 -0.0449 -0.2256 -0.3089
15350TIP3    H167541   5.506   6.444  14.737 -1.5621 -0.1243  0.4294
15350TIP3    H267542   5.615   6.358  14.797 -0.0449  1.3873 -0.1536
15351TIP3   OH267543   0.638   5.175   2.995  0.2629 -0.2453 -0.7042
15351TIP3    H167544   0.547   5.145   2.989  0.4284 -0.8920 -0.0160
15351TIP3    H267545   0.682   5.133   2.922  0.1672 -0.5165 -0.6083
15352TIP3   OH267546   5.420   0.038   4.331 -0.1122 -0.2777 -0.2670
15352TIP3    H167547   5.392   0.022   4.421 -0.5883  0.6789 -0.2411
15352TIP3    H267548   5.366   0.111   4.301 -0.1984 -0.8084 -1.4461
15353TIP3   OH267549   6.733   4.089   2.828  0.0350  0.6007  0.2974
15353TIP3    H167550   6.748   4.065   2.919 -0.4993  1.2055  0.5499
15353TIP3    H267551   6.769   4.177   2.820  3.5110 -0.8491 -1.0578
15354TIP3   OH267552   1.173   0.623   3.653  0.0907 -0.8133 -0.5115
15354TIP3    H167553   1.102   0.627   3.716 -0.0681 -1.6896 -0.6206
15354TIP3    H267554   1.191   0.714   3.630 -0.2711 -0.5308  0.3234
15355TIP3   OH267555   0.173   4.084   3.364  0.9916  0.0844  0.8119
15355TIP3    H167556   0.269   4.087   3.370  1.0028 -1.1078  1.3011
15355TIP3    H267557   0.146   4.174   3.383  2.1242  1.0940 -2.0814
15356TIP3   OH267558   6.779   4.289  15.373  0.3584  0.5852 -0.0689
15356TIP3    H167559   6.807   4.250  15.456 -0.3605  1.7583  0.7379
15356TIP3    H267560   6.821   4.235  15.306  1.3539 -0.0635  1.0601
15357TIP3   OH267561   0.431   3.097   2.098  0.1179 -0.3047 -0.0344
15357TIP3    H167562   0.450   3.015   2.142  0.8455 -1.1092 -1.8199
15357TIP3    H267563   0.488   3.097   2.021  0.3545  2.0045  0.1063
15358TIP3   OH267564   3.384   0.733   2.378 -0.4926  0.6431 -0.3839
15358TIP3    H167565   3.375   0.828   2.385 -0.6611  0.4645  2.4008
15358TIP3    H267566   3.298   0.699   2.402  0.5979 -0.2917  2.4264
15359TIP3   OH267567   1.543   6.574   3.772 -0.5717  0.0659 -0.4614
15359TIP3    H167568   1.507   6.628   3.842 -1.1150  1.9663 -2.1842
15359TIP3    H267569   1.466   6.533   3.732 -0.2511 -1.1096  0.0821
15360TIP3   OH267570   3.783   2.569   0.162  0.2001 -0.7727  0.1839
15360TIP3    H167571   3.712   2.506   0.153  0.4859 -1.3588  1.8552
15360TIP3    H267572   3.754   2.629   0.230  0.9202 -0.4952  0.2562
15361TIP3   OH267573   2.222   3.471   1.237 -0.2138  0.1657 -0.0401
15361TIP3    H167574   2.309   3.442   1.210  0.3112  1.4034  0.2934
15361TIP3    H267575   2.174   3.390   1.254  0.8898 -0.5235 -0.1760
15362TIP3   OH267576   0.780   2.296  14.443  0.0612 -0.1838  0.3843
15362TIP3    H167577   0.693   2.257  14.438 -1.2783  2.8608 -0.6427
15362TIP3    H267578   0.769   2.375  14.495  1.5921  1.8405 -2.2369
15363TIP3   OH267579   2.154   6.978   3.538 -0.4618 -0.2501  0.0734
15363TIP3    H167580   2.160   6.891   3.498  0.9173  0.1385 -0.5936
15363TIP3    H267581   2.080   7.020   3.495  0.3466 -0.2269 -1.3054
15364TIP3   OH267582   6.631   3.755   4.789 -0.1361  0.3589 -0.2126
15364TIP3    H167583   6.552   3.718   4.749  0.6944 -0.2178 -1.3644
15364TIP3    H267584   6.599   3.817   4.854 -1.5467 -1.0166  0.4348
15365TIP3   OH267585   6.607   2.805   3.019  0.1701  0.2261 -0.0880
15365TIP3    H167586   6.542   2.859   3.064 -0.3015 -1.3507  1.1469
15365TIP3    H267587   6.592   2.824   2.926  0.3486  2.5706  0.3282
15366TIP3   OH267588   5.102   0.097   2.642 -0.2216 -0.0223  0.5876
15366TIP3    H167589   5.059   0.148   2.573  1.7853 -0.2356 -0.8644
15366TIP3    H267590   5.050   0.017   2.648  1.7068 -1.6977 -3.3896
15367TIP3   OH267591   2.286   5.029   4.591 -0.2233  0.1878 -0.1933
15367TIP3    H167592   2.289   5.123   4.609 -0.1102 -0.2223  2.1366
15367TIP3    H267593   2.208   5.017   4.538 -0.9101  1.4474  0.5151
15368TIP3   OH267594   3.468   3.107   2.528 -0.6995  0.5235  0.0434
15368TIP3    H167595   3.442   3.041   2.465 -1.8973  2.4823 -1.5564
15368TIP3    H267596   3.386   3.141   2.563 -0.1973  2.7254 -0.8227
15369TIP3   OH267597   6.711   6.570   3.935 -0.6702  0.1311  0.1450
15369TIP3    H167598   6.648   6.629   3.976 -0.1784  0.1385  0.8887
15369TIP3    H267599   6.753   6.525   4.008 -0.5421 -0.6312 -0.3913
15370TIP3   OH267600   0.858   2.901   2.334  0.1908 -0.1072  0.0966
15370TIP3    H167601   0.890   2.991   2.326  1.0702 -0.4133  0.1510
15370TIP3    H267602   0.774   2.910   2.379  0.3415  0.6791  0.2335
15371TIP3   OH267603   2.415   6.267  15.086 -0.3277  0.1009 -0.6033
15371TIP3    H167604   2.424   6.306  15.174  0.3188 -0.0305 -0.6121
15371TIP3    H267605   2.440   6.337  15.027  2.6449 -0.8840 -0.5563
15372TIP3   OH267606   4.550   6.384   3.365  0.8661  0.0313 -1.1759
15372TIP3    H167607   4.616   6.321   3.392 -0.8447 -0.5386  1.9778
15372TIP3    H267608   4.590   6.470   3.383  1.2439 -0.2853 -0.4723
15373TIP3   OH267609   1.804   2.648   3.928  0.4057 -0.4144  0.0803
15373TIP3    H167610   1.730   2.614   3.879 -0.0210  1.1361 -0.3961
15373TIP3    H267611   1.871   2.580   3.924  0.4456 -0.2335 -2.8176
15374TIP3   OH267612   3.062   4.936   0.912  0.7142 -0.9460 -0.0681
15374TIP3    H167613   3.089   4.900   0.996  1.7134 -0.2636 -0.0850
15374TIP3    H267614   3.140   4.933   0.857  1.3515  2.7901  0.4758
15375TIP3   OH267615   0.765   2.282   5.225 -0.0510  0.5454  0.3430
15375TIP3    H167616   0.751   2.348   5.157  0.6162  0.6122  0.2653
15375TIP3    H267617   0.710   2.310   5.298 -1.0945  0.2570 -0.3104
15376TIP3   OH267618   1.163   4.694   2.070  0.2131 -0.2488  0.3537
15376TIP3    H167619   1.085   4.737   2.106 -0.7600 -0.7698 -1.0985
15376TIP3    H267620   1.129   4.617   2.024  1.4860  0.0531 -1.1169
15377TIP3   OH267621   3.481   2.969   2.894  0.1650 -0.7482 -0.5379
15377TIP3    H167622   3.393   2.940   2.918  0.3870 -1.7701 -0.9258
15377TIP3    H267623   3.530   2.888   2.880  0.6809 -0.1978 -2.0741
15378TIP3   OH267624   0.104   2.800   3.435 -0.0535  1.0696 -0.2074
15378TIP3    H167625   0.038   2.869   3.429 -1.3809 -0.1083  0.4402
15378TIP3    H267626   0.096   2.767   3.524  0.4884 -0.0009 -0.5476
15379TIP3   OH267627   6.525   2.004   2.024  0.2820 -0.4681  0.2969
15379TIP3    H167628   6.580   2.081   2.010 -2.4536  1.5612  0.2645
15379TIP3    H267629   6.507   1.972   1.936 -1.4265  1.0076  0.0653
15380TIP3   OH267630   3.572   1.731   3.173 -0.0582 -0.2162  0.1903
15380TIP3    H167631   3.556   1.637   3.171  0.2556 -0.3119  1.9028
15380TIP3    H267632   3.509   1.765   3.235  0.1615  0.6474 -0.0535
15381TIP3   OH267633   0.250   0.256   4.369 -0.1266  0.4340 -0.0445
15381TIP3    H167634   0.325   0.198   4.380 -0.0827  0.8380  2.0488
15381TIP3    H267635   0.185   0.224   4.432 -0.1769  2.4791  0.9842
15382TIP3   OH267636   0.721   2.540   5.112 -0.7782  0.1169 -0.3042
15382TIP3    H167637   0.653   2.555   5.047 -1.4368 -1.7029 -0.0757
15382TIP3    H267638   0.800   2.580   5.075 -1.8134  1.6291 -0.8806
15383TIP3   OH267639   4.622   3.076   3.617 -0.0416  0.3938  0.5331
15383TIP3    H167640   4.612   3.121   3.533  0.6846 -1.0455 -0.3390
15383TIP3    H267641   4.681   3.133   3.667  0.6701  0.5529 -0.4672
15384TIP3   OH267642   5.173   2.151   5.712  0.3550 -0.3779 -0.0822
15384TIP3    H167643   5.264   2.148   5.741 -0.1442 -0.7864  1.4818
15384TIP3    H267644   5.133   2.218   5.767 -0.3211 -0.2925 -0.6728
15385TIP3   OH267645   1.848   6.523   5.563 -0.0173  0.3813  0.0758
15385TIP3    H167646   1.917   6.574   5.606 -0.8587  1.7568 -0.1397
15385TIP3    H267647   1.893   6.471   5.497  0.8966  0.8030  0.3653
15386TIP3   OH267648   6.343   5.324   2.203 -0.3846  0.3687 -0.0886
15386TIP3    H167649   6.337   5.360   2.114 -2.3691  2.2685  0.7700
15386TIP3    H267650   6.426   5.277   2.204 -0.3311  0.3175 -2.9507
15387TIP3   OH267651   3.733   0.635   1.441 -0.1346  1.2843 -0.3131
15387TIP3    H167652   3.796   0.590   1.497  0.7065  1.5290 -1.0365
15387TIP3    H267653   3.780   0.714   1.411 -1.1525  2.0054 -0.0280
15388TIP3   OH267654   1.880   3.343   4.731 -0.4969  0.1263 -0.2398
15388TIP3    H167655   1.785   3.348   4.716 -0.4861  1.7434  0.1513
15388TIP3    H267656   1.903   3.427   4.769  1.0976 -0.2935 -0.2253
15389TIP3   OH267657   1.545   0.557   4.536 -0.0036  0.6753  0.2002
15389TIP3    H167658   1.574   0.558   4.628  1.6395  2.1317 -0.3082
15389TIP3    H267659   1.627   0.559   4.486 -0.8996 -0.0508 -1.3015
15390TIP3   OH267660   5.779   2.342   4.751  0.2108  0.5080 -0.0598
15390TIP3    H167661   5.781   2.246   4.746 -1.3059  0.5661 -2.3987
15390TIP3    H267662   5.695   2.361   4.793  0.4655  0.8248  0.3082
15391TIP3   OH267663   6.573   1.993   3.647 -0.5496  0.3880  0.2716
15391TIP3    H167664   6.518   2.070   3.664 -1.5313 -0.4709  1.0857
15391TIP3    H267665   6.604   2.005   3.558  1.2772  2.9209  1.1855
15392TIP3   OH267666   6.232   0.396  12.810 -1.4968  0.4484 -0.2321
15392TIP3    H167667   6.167   0.462  12.834 -1.4449  0.2425  0.4928
15392TIP3    H267668   6.297   0.399  12.881 -0.7487  0.6136 -0.9189
15393TIP3   OH267669   1.079   4.330   0.146 -0.1536 -0.9350  0.1166
15393TIP3    H167670   1.117   4.415   0.127  0.3763 -1.2958 -0.4340
15393TIP3    H267671   1.063   4.332   0.240  0.7331 -0.5872  0.2658
15394TIP3   OH267672   3.511   5.207   1.691  0.0570  0.1488  0.1003
15394TIP3    H167673   3.516   5.113   1.710 -1.1439  0.5878  2.8024
15394TIP3    H267674   3.602   5.237   1.694  0.2318 -0.5060  1.5142
15395TIP3   OH267675   6.782   2.896   3.910 -0.2461  0.2041 -0.2515
15395TIP3    H167676   6.690   2.902   3.937 -0.4211  0.1996 -0.8531
15395TIP3    H267677   6.819   2.828   3.967 -0.1503  1.5140  1.2793
15396TIP3   OH267678   2.482   0.979   3.012  0.4660 -0.6258  0.3610
15396TIP3    H167679   2.403   0.960   3.062  0.0753  1.3069  0.4860
15396TIP3    H267680   2.451   0.998   2.924  0.7554  0.4179  0.4785
15397TIP3   OH267681   6.068   7.071   3.723 -0.2792 -0.4641 -0.3874
15397TIP3    H167682   6.064   6.978   3.748  1.7493 -1.1795 -2.4657
15397TIP3    H267683   6.014   7.077   3.644  0.5585 -0.1754 -0.9565
15398TIP3   OH267684   0.351   4.036   4.741  0.0383 -0.8855 -0.1715
15398TIP3    H167685   0.355   3.972   4.812  1.2458 -1.3231 -0.6065
15398TIP3    H267686   0.377   3.986   4.663 -1.0356 -0.3569 -0.8751
15399TIP3   OH267687   1.050   3.545   0.967  0.2856 -0.1124 -0.3793
15399TIP3    H167688   1.012   3.492   0.897  1.6174 -1.6887  0.0636
15399TIP3    H267689   1.097   3.482   1.022  4.1629  1.8401 -1.3304
15400TIP3   OH267690   0.539   1.952  14.690 -0.0301 -0.0668  0.4744
15400TIP3    H167691   0.618   1.922  14.644 -0.1943 -2.0192  1.4206
15400TIP3    H267692   0.565   1.957  14.782 -1.1659 -1.3316  0.8765
15401TIP3   OH267693   1.871   4.720   2.365 -0.3079  0.0386 -0.1303
15401TIP3    H167694   1.891   4.646   2.422 -0.5968 -1.1547 -1.5426
15401TIP3    H267695   1.817   4.778   2.419  0.4483 -0.4564  1.1926
15402TIP3   OH267696   0.867   0.676   4.147  0.1506 -0.3531 -0.1134
15402TIP3    H167697   0.863   0.646   4.237  0.0024 -0.2281 -0.0769
15402TIP3    H267698   0.823   0.762   4.149  0.2674 -0.2901 -0.2771
15403TIP3   OH267699   2.263   4.115   1.845 -0.4604  0.6112 -0.0673
15403TIP3    H167700   2.262   4.107   1.941  0.4205  1.6322  0.0334
15403TIP3    H267701   2.185   4.068   1.817 -0.6887  0.2299  1.1513
15404TIP3   OH267702   6.780   4.274   4.519 -0.4576  0.2714 -0.1094
15404TIP3    H167703   6.777   4.367   4.541  1.2698  0.2081  0.5019
15404TIP3    H267704   6.848   4.268   4.451  2.7104 -1.0869  3.0257
15405TIP3   OH267705   1.011   5.992   4.199 -0.2550  0.4419  0.5142
15405TIP3    H167706   0.945   5.948   4.252  1.2830  0.2011  2.2884
15405TIP3    H267707   0.984   6.084   4.198 -2.3268 -0.1175 -1.4693
15406TIP3   OH267708   2.409   2.835   4.821 -0.3687  0.1431  0.2579
15406TIP3    H167709   2.381   2.924   4.799 -0.6519  0.7918  3.0569
15406TIP3    H267710   2.329   2.783   4.817 -0.5096  0.3565  0.3023
15407TIP3   OH267711   1.748   2.579   4.663  0.4431 -0.0540  0.6904
15407TIP3    H167712   1.829   2.618   4.630  0.2682 -0.4349 -0.1930
15407TIP3    H267713   1.747   2.491   4.628  0.0378 -0.3271  1.3685
15408TIP3   OH267714   4.150   2.938   2.923  0.1036  0.1974 -1.2388
15408TIP3    H167715   4.168   2.851   2.888 -1.2116 -0.0676 -1.2837
15408TIP3    H267716   4.162   2.929   3.018 -0.4018 -0.1365 -1.2046
15409TIP3   OH267717   0.584   5.627   3.702 -0.3566 -0.4332  0.0037
15409TIP3    H167718   0.639   5.683   3.646  0.9197 -1.0075  0.6580
15409TIP3    H267719   0.537   5.688   3.758  3.3184 -0.0529  2.8398
15410TIP3   OH267720   3.679   4.148   4.162 -0.0180 -0.3919  0.5797
15410TIP3    H167721   3.668   4.201   4.241  1.3533 -0.2825  0.7088
15410TIP3    H267722   3.708   4.063   4.194  3.9850  0.6667  0.0501
15411TIP3   OH267723   3.803   3.346  14.918 -0.4603 -0.0158  0.0534
15411TIP3    H167724   3.883   3.297  14.935 -0.6902 -0.6637 -0.6751
15411TIP3    H267725   3.820   3.395  14.837 -0.2465  1.0878  0.7562
15412TIP3   OH267726   2.324   3.147   5.219  0.2983 -0.8308  0.1340
15412TIP3    H167727   2.412   3.177   5.194  0.4035 -0.4851  0.9059
15412TIP3    H267728   2.316   3.061   5.176  1.1399 -1.0149  0.3237
15413TIP3   OH267729   0.538   6.885   2.981 -0.0121 -0.1544  0.9100
15413TIP3    H167730   0.503   6.947   2.917  0.4139  0.1652  0.9866
15413TIP3    H267731   0.591   6.824   2.929  1.1056  0.6636  1.0720
15414TIP3   OH267732   0.840   2.428   5.711 -0.0267  0.6269 -0.1394
15414TIP3    H167733   0.828   2.386   5.797  0.7206  1.1555  0.2285
15414TIP3    H267734   0.833   2.521   5.729 -0.5545  0.7107 -0.7731
15415TIP3   OH267735   3.000   1.387   3.737 -0.7708 -0.0164 -0.1461
15415TIP3    H167736   3.083   1.404   3.692 -0.9315 -1.2539 -0.9212
15415TIP3    H267737   3.015   1.304   3.782 -1.4157  0.0336  0.1555
15416TIP3   OH267738   4.000   2.534   4.483 -0.6454 -0.1236 -0.0002
15416TIP3    H167739   3.982   2.453   4.530 -2.5076  0.6176  0.5883
15416TIP3    H267740   4.064   2.580   4.538 -0.8037 -0.4655  0.4684
15417TIP3   OH267741   5.591   2.522   5.490  0.4468 -0.2624 -0.4730
15417TIP3    H167742   5.681   2.518   5.458  0.5195 -0.0807 -0.2891
15417TIP3    H267743   5.574   2.615   5.502  0.2518 -0.3002 -0.4583
15418TIP3   OH267744   0.301   0.329   3.751  0.0747  0.0598  0.4792
15418TIP3    H167745   0.363   0.398   3.776  0.4841  0.8169 -2.4968
15418TIP3    H267746   0.356   0.251   3.743  0.3250  0.3017 -0.2119
15419TIP3   OH267747   0.237   2.342   2.554  0.4191 -0.0282 -0.6975
15419TIP3    H167748   0.270   2.400   2.486 -1.3023  0.5008 -1.1060
15419TIP3    H267749   0.210   2.401   2.625 -0.9063 -0.3378 -0.9290
15420TIP3   OH267750   7.067   2.897   3.311  0.0125 -0.0472 -0.1035
15420TIP3    H167751   7.040   2.989   3.316  0.5671  0.2820 -2.5671
15420TIP3    H267752   7.027   2.865   3.231  0.2547 -1.8434  0.4722
15421TIP3   OH267753   1.746   3.385   1.467  0.4478 -0.2118  0.7444
15421TIP3    H167754   1.784   3.417   1.385 -0.1238  0.0008  0.5535
15421TIP3    H267755   1.820   3.373   1.526  0.7367  0.8814  0.6093
15422TIP3   OH267756   0.405   7.096   0.613  0.1553 -0.3354  0.0643
15422TIP3    H167757   0.462   7.051   0.675  0.9879 -0.3041 -0.6569
15422TIP3    H267758   0.317   7.079   0.644  0.4938 -1.7838  0.2701
15423TIP3   OH267759   0.345   1.633   2.519 -0.0987  0.0603 -0.1958
15423TIP3    H167760   0.372   1.699   2.584  0.7448 -1.9146  1.5050
15423TIP3    H267761   0.331   1.553   2.570  0.7759 -1.5901 -2.4731
15424TIP3   OH267762   4.450   0.749   2.418 -0.0302 -0.4967 -0.0093
15424TIP3    H167763   4.436   0.655   2.429 -0.1734 -0.7977 -2.5079
15424TIP3    H267764   4.469   0.760   2.325  3.0093  1.5630  0.7677
15425TIP3   OH267765   1.664   6.579   3.364 -0.4772  0.9114 -0.1988
15425TIP3    H167766   1.637   6.620   3.446  2.4041  0.1885  1.1929
15425TIP3    H267767   1.612   6.498   3.360 -1.0782  1.2489  0.6168
15426TIP3   OH267768   1.481   5.608   4.881  0.3639  0.4896  0.7989
15426TIP3    H167769   1.522   5.651   4.957 -0.4594  0.0115  1.5245
15426TIP3    H267770   1.488   5.672   4.810 -0.9791  1.9108  1.9118
15427TIP3   OH267771   1.225   2.657   5.033  0.1440 -0.3658 -0.7168
15427TIP3    H167772   1.281   2.666   5.111 -0.5545  0.4767 -0.3008
15427TIP3    H267773   1.272   2.705   4.965  0.5487 -0.7408 -0.7071
15428TIP3   OH267774   6.325   1.797   2.644  0.4791  0.2505  0.0332
15428TIP3    H167775   6.401   1.790   2.701 -0.7426  1.1571  1.8319
15428TIP3    H267776   6.255   1.829   2.701 -1.4063 -1.0955 -1.4459
15429TIP3   OH267777   5.506   3.295   2.233 -0.0145  0.3758  0.0677
15429TIP3    H167778   5.447   3.274   2.305  1.7003 -0.8871  1.1481
15429TIP3    H267779   5.450   3.332   2.165 -1.8731  0.1594  1.4627
15430TIP3   OH267780   4.766   3.434   2.933  0.0058  0.1665 -0.1123
15430TIP3    H167781   4.795   3.418   2.843  0.3112  0.1748 -0.0144
15430TIP3    H267782   4.811   3.514   2.959  2.2236 -1.4372  1.0751
15431TIP3   OH267783   6.851   3.924   5.557  0.3109 -0.7141 -0.0070
15431TIP3    H167784   6.910   3.859   5.594 -1.2635 -0.1580  3.6962
15431TIP3    H267785   6.799   3.876   5.493 -0.1138 -2.8603  1.9089
15432TIP3   OH267786   0.202   3.879   3.689 -0.3037  0.4723  0.3507
15432TIP3    H167787   0.159   3.824   3.755 -1.8066 -0.1580 -1.1052
15432TIP3    H267788   0.130   3.921   3.643  0.6656 -0.1706 -1.8017
15433TIP3   OH267789   3.661   7.060   3.420  0.3128 -0.1117  0.0806
15433TIP3    H167790   3.705   7.086   3.501 -0.8906  1.8211  0.1462
15433TIP3    H267791   3.585   7.010   3.448 -0.2096  0.7214  0.1643
15434TIP3   OH267792   6.808   1.157   1.359 -0.1871  0.1261  0.0772
15434TIP3    H167793   6.758   1.107   1.424 -0.0959  0.0121  0.0594
15434TIP3    H267794   6.854   1.224   1.410 -0.6543  0.4687  0.0489
15435TIP3   OH267795   4.627   3.277  14.993  0.1308  0.1656  0.7300
15435TIP3    H167796   4.578   3.248  15.070 -1.7716  0.2243 -0.4441
15435TIP3    H267797   4.676   3.200  14.966  0.9003  0.1721  2.0523
15436TIP3   OH267798   0.524   5.641  15.142 -0.1589  0.0464  0.2864
15436TIP3    H167799   0.600   5.688  15.107 -0.5482 -0.2577 -0.9742
15436TIP3    H267800   0.561   5.563  15.182 -0.0543 -1.7841 -3.1976
15437TIP3   OH267801   5.932   2.637   1.930 -0.2530  0.6001  0.1903
15437TIP3    H167802   5.913   2.616   2.021 -0.3816  1.1131  0.2844
15437TIP3    H267803   5.957   2.554   1.890 -2.0895 -0.0044  0.2249
15438TIP3   OH267804   4.127   4.669   4.490 -0.3920 -0.2405 -0.0878
15438TIP3    H167805   4.075   4.748   4.509 -1.4655 -0.9573 -0.0090
15438TIP3    H267806   4.142   4.630   4.576 -1.5419 -1.1665 -0.2997
15439TIP3   OH267807   2.364   1.652   3.855  0.3827 -0.9116  0.6040
15439TIP3    H167808   2.356   1.707   3.933 -0.2989  0.0169 -0.1125
15439TIP3    H267809   2.441   1.597   3.872  0.9395  0.1014  1.4241
15440TIP3   OH267810   4.214   2.921   1.858  0.4576 -0.0268  0.1228
15440TIP3    H167811   4.162   3.001   1.857 -1.3033 -1.1554 -0.8748
15440TIP3    H267812   4.198   2.880   1.773  0.7349 -1.8118  0.8986
15441TIP3   OH267813   0.324   5.134   4.948 -1.0889 -0.6075 -0.3719
15441TIP3    H167814   0.372   5.140   5.031 -0.2174 -1.3259 -0.8125
15441TIP3    H267815   0.232   5.129   4.974 -0.9620  1.1168  0.4767
15442TIP3   OH267816   0.629   2.745   4.868  0.4583  0.2762 -0.3350
15442TIP3    H167817   0.713   2.707   4.841  0.1712  0.8003 -2.0220
15442TIP3    H267818   0.570   2.670   4.874  0.6274  0.1036 -0.7973
15443TIP3   OH267819   3.663   2.609   5.188 -0.3761 -0.3691  0.4817
15443TIP3    H167820   3.691   2.671   5.256 -0.0084  0.7568 -0.6701
15443TIP3    H267821   3.578   2.641   5.160 -0.5860 -0.9086  0.4918
15444TIP3   OH267822   3.009   3.379   2.749  0.4549  0.8967  0.1261
15444TIP3    H167823   2.970   3.464   2.731 -0.0389  0.6619  0.0863
15444TIP3    H267824   2.942   3.332   2.799  0.6931  0.5043  0.0781
15445TIP3   OH267825   6.837   2.882   1.720  0.1578  0.2834  0.2050
15445TIP3    H167826   6.875   2.859   1.804 -2.1602  1.0652  1.5024
15445TIP3    H267827   6.791   2.965   1.736 -0.3802  0.4065 -1.8007
15446TIP3   OH267828   4.414   4.250  15.238  0.2292  0.2379 -0.3628
15446TIP3    H167829   4.405   4.281  15.148 -1.4908  1.1979  0.1075
15446TIP3    H267830   4.324   4.234  15.267  0.5656  2.1231  1.9027
15447TIP3   OH267831   3.734   4.002   2.277 -0.3097 -0.1651  0.3935
15447TIP3    H167832   3.694   4.089   2.268  0.3953  0.2795  1.4043
15447TIP3    H267833   3.826   4.016   2.253 -0.3248 -0.7583 -0.0102
15448TIP3   OH267834   5.955   2.555   2.450  0.0299  0.2470 -0.2176
15448TIP3    H167835   5.892   2.483   2.461  0.0372  0.0704 -1.2565
15448TIP3    H267836   6.021   2.539   2.517 -0.7605  0.1429  0.5536
15449TIP3   OH267837   0.159   1.553   3.786  0.1045 -0.0447  0.2772
15449TIP3    H167838   0.183   1.512   3.869  3.5791 -3.1258 -2.0582
15449TIP3    H267839   0.095   1.492   3.748 -0.8474  0.9293  0.2927
15450TIP3   OH267840   0.482   1.396   2.887 -0.2354  0.1079  0.2298
15450TIP3    H167841   0.398   1.429   2.854 -0.4917 -1.3132 -0.6030
15450TIP3    H267842   0.465   1.376   2.979 -1.2198 -1.4456 -0.2712
15451TIP3   OH267843   2.814   6.492   4.543 -0.4040  0.5485  0.2520
15451TIP3    H167844   2.790   6.458   4.629 -0.9607 -0.2169 -0.2068
15451TIP3    H267845   2.785   6.583   4.544 -0.4235  0.5372  0.8618
15452TIP3   OH267846   6.030   7.090   3.382 -0.5951  0.2246 -0.4586
15452TIP3    H167847   6.116   7.129   3.397 -1.4020  2.0483 -0.5596
15452TIP3    H267848   6.006   7.117   3.294  0.0957 -2.9058 -1.6639
15453TIP3   OH267849   7.074   2.943   1.316 -0.5183 -0.5960 -0.2172
15453TIP3    H167850   7.008   2.990   1.264  0.4883  0.2448 -0.7497
15453TIP3    H267851   7.024   2.905   1.388 -1.6931 -0.4727 -0.9343
15454TIP3   OH267852   1.810   3.089   3.912 -0.6555 -0.1862 -0.6408
15454TIP3    H167853   1.740   3.152   3.895 -0.8461  0.0101  0.8144
15454TIP3    H267854   1.890   3.136   3.889 -0.6637  1.1808  1.9075
15455TIP3   OH267855   6.851   1.353   2.975  0.4723 -0.1214 -0.1148
15455TIP3    H167856   6.785   1.322   2.914 -0.7952  0.8670  0.7143
15455TIP3    H267857   6.848   1.449   2.967 -0.3398  0.0772  2.0814
15456TIP3   OH267858   3.053   3.710   1.787 -0.1481 -0.1756 -0.1789
15456TIP3    H167859   3.047   3.778   1.854  0.5705  0.7553 -1.0665
15456TIP3    H267860   2.967   3.711   1.744 -0.3346 -0.2438  0.1808
15457TIP3   OH267861   6.697   3.623   2.495 -0.0755 -0.2472 -0.6854
15457TIP3    H167862   6.650   3.661   2.569  0.7189 -2.4044  0.9976
15457TIP3    H267863   6.674   3.678   2.420 -0.9408  1.9426  1.1506
15458TIP3   OH267864   3.220   3.534   4.765  0.3483 -0.6441 -0.0407
15458TIP3    H167865   3.301   3.579   4.744 -1.4023  2.0362 -1.4132
15458TIP3    H267866   3.206   3.549   4.858  0.4909  0.4765 -0.2012
15459TIP3   OH267867   5.760   1.057   0.596 -0.4303 -0.4467  0.8527
15459TIP3    H167868   5.733   0.965   0.594  1.2545 -0.9525 -0.4070
15459TIP3    H267869   5.817   1.062   0.673 -1.1037 -0.2726  1.3448
15460TIP3   OH267870   3.150   2.226   4.878 -0.6396  0.4320 -0.6216
15460TIP3    H167871   3.080   2.291   4.891 -0.1430  0.4070  2.3230
15460TIP3    H267872   3.229   2.269   4.911  0.1732 -0.7220 -1.0512
15461TIP3   OH267873   1.444   6.921  13.133  0.3753 -0.4631 -0.0285
15461TIP3    H167874   1.414   6.831  13.139 -1.2524 -0.1221 -2.5002
15461TIP3    H267875   1.395   6.958  13.059  2.3749  1.9102 -0.2191
15462TIP3   OH267876   3.699   1.693  13.797 -0.0677  0.4562 -1.0013
15462TIP3    H167877   3.779   1.715  13.750  0.4490 -1.9074 -1.2793
15462TIP3    H267878   3.720   1.711  13.889  1.7293 -2.5118 -0.7373
15463TIP3   OH267879   5.759   6.237   4.517 -0.5756  0.3906 -0.1156
15463TIP3    H167880   5.674   6.270   4.546  0.0460  0.5224  1.6561
15463TIP3    H267881   5.754   6.238   4.422 -1.9227  2.0311 -0.0576
15464TIP3   OH267882   5.822   4.025   1.120 -0.3297  0.6249 -0.1296
15464TIP3    H167883   5.833   4.068   1.204 -3.3222  0.3486  0.4528
15464TIP3    H267884   5.897   3.965   1.113 -0.8235 -0.4528  3.0336
15465TIP3   OH267885   2.204   0.165   4.728 -0.1639  0.1696 -0.1868
15465TIP3    H167886   2.279   0.212   4.692  1.6336 -1.0571  1.8486
15465TIP3    H267887   2.189   0.205   4.813 -1.1688 -0.2852 -0.1472
15466TIP3   OH267888   3.390   5.675   1.797  0.4997  0.1225  0.1891
15466TIP3    H167889   3.324   5.729   1.841  1.1706 -0.8408  2.4689
15466TIP3    H267890   3.339   5.612   1.747 -0.3907 -1.1362  2.5749
15467TIP3   OH267891   3.270   6.156   4.589  0.2347  0.0495  0.4082
15467TIP3    H167892   3.360   6.135   4.563  0.4137  0.6984  0.4893
15467TIP3    H267893   3.277   6.180   4.681  0.0069  0.2818  0.3644
15468TIP3   OH267894   2.790   1.194   2.380 -0.5446  0.5064 -0.3444
15468TIP3    H167895   2.709   1.143   2.382 -0.4235  0.3007 -0.7992
15468TIP3    H267896   2.854   1.138   2.423 -1.2868  1.7979  2.6527
15469TIP3   OH267897   1.642   6.063   1.093 -0.7376  0.4335 -0.1851
15469TIP3    H167898   1.714   6.123   1.080 -0.1313 -0.0137  1.0450
15469TIP3    H267899   1.584   6.106   1.156 -0.4348 -0.1444  0.4989
15470TIP3   OH267900   5.040   6.916   2.939  0.1826  0.1442 -1.1095
15470TIP3    H167901   5.004   6.827   2.945 -1.3258  0.6495 -2.3959
15470TIP3    H267902   5.087   6.917   2.856  0.0127  0.6161 -1.1980
15471TIP3   OH267903   2.020   0.902   5.214  0.3023 -0.8805 -0.2264
15471TIP3    H167904   1.957   0.972   5.232 -0.0315 -1.6553  1.7560
15471TIP3    H267905   1.966   0.823   5.204  0.8448 -1.2839 -0.0340
15472TIP3   OH267906   6.942   1.191   2.273 -0.3754  0.1023 -0.3449
15472TIP3    H167907   6.869   1.252   2.283 -0.6606 -0.0835 -1.1970
15472TIP3    H267908   6.902   1.105   2.288 -0.7136 -0.1447 -2.3928
15473TIP3   OH267909   3.192   0.106   1.823 -0.3236 -0.0216  0.1802
15473TIP3    H167910   3.154   0.192   1.809 -1.1246 -0.4751 -0.4557
15473TIP3    H267911   3.285   0.117   1.801  0.0545  1.2106  2.2391
15474TIP3   OH267912   6.205   1.630   5.115  0.0703  0.3301  0.2938
15474TIP3    H167913   6.234   1.664   5.030  0.2061 -3.3315 -1.2131
15474TIP3    H267914   6.128   1.683   5.137 -0.6605  0.5705 -2.6760
15475TIP3   OH267915   4.874   3.299   4.058  0.5780  0.6127  0.1534
15475TIP3    H167916   4.922   3.218   4.073  0.5895  0.4852 -0.5860
15475TIP3    H267917   4.853   3.331   4.146 -1.3182 -1.3054  0.4219
15476TIP3   OH267918   3.007   1.160   2.112 -0.0851  0.1036  0.0063
15476TIP3    H167919   3.061   1.135   2.037 -0.3739  1.7330 -0.7525
15476TIP3    H267920   2.993   1.078   2.159  1.6486 -0.6192 -0.6989
15477TIP3   OH267921   4.835   4.999   3.360  0.6031 -0.5289 -0.4168
15477TIP3    H167922   4.749   5.041   3.361  0.7589 -0.2260  0.0347
15477TIP3    H267923   4.875   5.023   3.443  2.2714  1.7006 -1.8259
15478TIP3   OH267924   0.337   5.599   1.867 -0.2095 -0.1637 -0.3951
15478TIP3    H167925   0.399   5.572   1.798  1.0806  0.0401  0.6714
15478TIP3    H267926   0.312   5.517   1.910  1.7667  0.0616  1.2150
15479TIP3   OH267927   1.555   3.421   1.785 -0.1575 -0.4181  0.1538
15479TIP3    H167928   1.583   3.496   1.732 -0.3261  0.9304  1.9140
15479TIP3    H267929   1.571   3.345   1.730  1.5810  0.7847 -1.0597
15480TIP3   OH267930   2.235   3.456   4.767  0.0385 -0.5305  0.7851
15480TIP3    H167931   2.158   3.477   4.716 -0.0922  0.1537  1.2527
15480TIP3    H267932   2.240   3.360   4.767 -0.6775 -0.5632  0.5682
15481TIP3   OH267933   6.839   6.954   1.830 -0.0456 -0.7724 -0.5324
15481TIP3    H167934   6.831   6.862   1.806 -2.8268 -0.8483  0.4368
15481TIP3    H267935   6.869   6.954   1.920  0.3510 -0.7190 -0.6640
15482TIP3   OH267936   6.179   3.195   4.899  0.7787 -0.4835  0.4514
15482TIP3    H167937   6.214   3.106   4.903 -0.9004 -1.1796  0.0387
15482TIP3    H267938   6.197   3.232   4.986 -0.1103 -1.8353  1.2047
15483TIP3   OH267939   3.293   2.323   2.090 -0.4433  0.3772 -0.2678
15483TIP3    H167940   3.234   2.302   2.162  0.5667  1.5629  0.9201
15483TIP3    H267941   3.272   2.258   2.022 -0.6177 -1.4556  1.5028
15484TIP3   OH267942   1.853   5.016   1.588  0.6987 -0.6489  0.1096
15484TIP3    H167943   1.798   5.041   1.514  0.5059  1.6906  0.9942
15484TIP3    H267944   1.791   5.008   1.661  1.3945  0.9881  0.8856
15485TIP3   OH267945   4.466   0.095   1.700  0.6328 -0.1199  0.0139
15485TIP3    H167946   4.537   0.066   1.643  0.1594 -0.3563 -0.4530
15485TIP3    H267947   4.386   0.080   1.650  0.1645 -0.9468  0.9957
15486TIP3   OH267948   0.176   2.558   4.649  0.3298 -0.0324 -0.4707
15486TIP3    H167949   0.148   2.597   4.567  0.9335  1.4838  0.0308
15486TIP3    H267950   0.182   2.631   4.710  0.9068 -0.9901  0.6491
15487TIP3   OH267951   7.085   4.274   2.916 -0.4691 -0.0966 -0.2208
15487TIP3    H167952   7.033   4.317   2.847 -2.1097 -0.9289  0.4666
15487TIP3    H267953   7.145   4.217   2.868 -0.7338  0.2626 -0.9993
15488TIP3   OH267954   2.454   7.106   3.590  0.3083  0.3931  0.1247
15488TIP3    H167955   2.395   7.101   3.666 -1.3057 -0.9706 -1.1881
15488TIP3    H267956   2.397   7.128   3.517  1.6344  0.2332 -0.9762
15489TIP3   OH267957   6.454   3.302   5.451 -0.4688 -0.0015  0.0566
15489TIP3    H167958   6.386   3.238   5.434 -0.3421  0.2027 -1.2802
15489TIP3    H267959   6.408   3.386   5.451 -0.0182  0.2861 -2.3815
15490TIP3   OH267960   1.302   3.914   2.877 -0.5217  0.5152 -0.3014
15490TIP3    H167961   1.371   3.927   2.811 -0.2930  0.0501 -0.1527
15490TIP3    H267962   1.272   3.825   2.863 -0.1392  0.2477  0.5406
15491TIP3   OH267963   1.908   2.188   3.886  0.4828  0.2818 -0.0785
15491TIP3    H167964   1.848   2.142   3.944  0.2311 -1.1752 -1.4639
15491TIP3    H267965   1.987   2.135   3.886  1.5352  1.8180  1.1839
15492TIP3   OH267966   0.592   1.751   0.734  0.5979 -0.3720  0.4273
15492TIP3    H167967   0.512   1.719   0.777 -1.0016  1.2051 -1.3198
15492TIP3    H267968   0.610   1.686   0.667  0.9952 -0.8998  1.0329
15493TIP3   OH267969   1.892   5.694   0.485  0.3158 -0.2970 -0.2597
15493TIP3    H167970   1.931   5.648   0.559 -0.7595  0.0077  0.5102
15493TIP3    H267971   1.825   5.750   0.524  0.2073  0.3759 -1.3980
15494TIP3   OH267972   5.802   5.081  14.935 -0.2068 -0.4231 -0.4221
15494TIP3    H167973   5.790   4.987  14.921  1.0043 -0.6481 -0.0004
15494TIP3    H267974   5.812   5.090  15.030  1.3868 -0.0729 -0.6117
15495TIP3   OH267975   0.853   4.887  11.395 -0.4437 -0.3604 -0.1835
15495TIP3    H167976   0.826   4.978  11.411  1.1682  0.6161 -2.6472
15495TIP3    H267977   0.779   4.847  11.351 -0.9896 -0.1248  0.5058
15496TIP3   OH267978   4.281   4.817   2.333  0.3585 -0.3603 -0.1345
15496TIP3    H167979   4.273   4.749   2.266 -0.2146  1.0774 -1.5743
15496TIP3    H267980   4.206   4.875   2.317  0.7138  0.4883  1.1979
15497TIP3   OH267981   3.068   2.411   3.534  0.2284 -0.1527  0.4515
15497TIP3    H167982   3.010   2.370   3.470  0.3979 -0.1552  0.3011
15497TIP3    H267983   3.092   2.340   3.593  1.0009 -0.4011 -0.1545
15498TIP3   OH267984   4.552   4.634   0.563  0.8375  0.0741 -0.4041
15498TIP3    H167985   4.457   4.641   0.562  0.8295  0.1649  0.7266
15498TIP3    H267986   4.583   4.725   0.557  0.8409  0.1402  0.5954
15499TIP3   OH267987   3.811   2.064   4.211  0.1866 -0.3270 -0.2311
15499TIP3    H167988   3.790   2.050   4.304  1.5344 -0.3076  0.0787
15499TIP3    H267989   3.888   2.121   4.212 -0.9131  1.2229 -1.3840
15500TIP3   OH267990   2.040   3.423   3.565  0.1917 -0.3284 -0.1641
15500TIP3    H167991   2.080   3.505   3.537  2.9476 -0.9135  1.8567
15500TIP3    H267992   1.947   3.435   3.549  0.8035  2.2774 -2.1325
15501TIP3   OH267993   2.170   0.769   2.461  0.0919 -0.7950 -0.1813
15501TIP3    H167994   2.132   0.857   2.466 -0.6055 -0.9925 -1.7183
15501TIP3    H267995   2.224   0.770   2.382  1.0169 -1.3998  0.4287
15502TIP3   OH267996   5.496   4.713   2.454 -0.3962 -0.0806 -0.8487
15502TIP3    H167997   5.544   4.792   2.430 -0.3790 -0.3032 -1.5669
15502TIP3    H267998   5.419   4.714   2.397 -1.4339  0.4720  0.5600
15503TIP3   OH267999   3.066   0.164   6.056  0.1089  0.1724 -0.7611
15503TIP3    H168000   2.995   0.226   6.071  1.3982  1.1641  1.4374
15503TIP3    H268001   3.021   0.083   6.032 -1.7484  0.8696  0.2225
15504TIP3   OH268002   5.028   4.051   0.074  0.4504  0.0379 -0.2893
15504TIP3    H168003   5.073   3.971   0.101 -0.2658 -0.3296 -0.1786
15504TIP3    H268004   5.098   4.110   0.047  1.4224  1.0784  4.0277
15505TIP3   OH268005   3.164   6.791   3.815  0.2248 -0.7234  0.9824
15505TIP3    H168006   3.169   6.779   3.909 -1.8247  0.3840  1.2655
15505TIP3    H268007   3.178   6.884   3.800 -2.6494 -0.2952  0.5391
15506TIP3   OH268008   1.621   4.084   2.917 -0.3115 -0.5932  0.5967
15506TIP3    H168009   1.596   4.031   2.841  0.3102 -1.5175  1.0251
15506TIP3    H268010   1.554   4.152   2.922 -0.2461 -0.3943 -0.9005
15507TIP3   OH268011   2.692   6.146   3.309 -0.0514 -0.4212 -0.0504
15507TIP3    H168012   2.772   6.155   3.361 -0.9453  0.2197  1.2394
15507TIP3    H268013   2.671   6.236   3.282 -0.7993 -0.4833  0.3141
15508TIP3   OH268014   1.530   5.256   0.256  0.7107  0.3207  0.1635
15508TIP3    H168015   1.494   5.265   0.168  1.0490  1.2870  0.1188
15508TIP3    H268016   1.620   5.288   0.249  1.4790 -1.7531  0.3599
15509TIP3   OH268017   2.576   3.292  15.255 -0.1948  0.1727 -0.2774
15509TIP3    H168018   2.560   3.203  15.223 -1.2245  0.5896 -0.9368
15509TIP3    H268019   2.663   3.313  15.221  1.2933 -1.6041  2.2254
15510TIP3   OH268020   0.877   4.903   4.043  0.3509 -0.3171 -0.0457
15510TIP3    H168021   0.805   4.941   3.991  0.0710  1.1884  1.3780
15510TIP3    H268022   0.947   4.967   4.036  0.7615 -0.7195  0.3758
15511TIP3   OH268023   2.111   1.338   1.464  0.3846 -0.3199  0.3195
15511TIP3    H168024   2.106   1.381   1.379 -0.4127 -0.3122  0.3658
15511TIP3    H268025   2.183   1.275   1.455  0.8557  0.2778 -0.0875
15512TIP3   OH268026   5.646   3.835   2.474 -0.4923  0.6412  0.0302
15512TIP3    H168027   5.633   3.746   2.506  0.6395  1.0056  1.5504
15512TIP3    H268028   5.582   3.888   2.521  0.3813  0.9933  0.8283
15513TIP3   OH268029   3.815   1.082   3.998 -0.2162  0.2352  0.1536
15513TIP3    H168030   3.851   1.170   4.000 -1.6846  0.8455  1.7509
15513TIP3    H268031   3.720   1.094   4.008 -0.6854 -1.4105 -1.8905
15514TIP3   OH268032   5.447   5.487   2.587  0.1146  0.0490  0.0700
15514TIP3    H168033   5.504   5.564   2.582  0.3747 -0.0303  1.6252
15514TIP3    H268034   5.507   5.412   2.588 -0.0288 -0.0637  0.9788
15515TIP3   OH268035   2.701   3.290   1.536 -0.5708 -0.0729 -0.8351
15515TIP3    H168036   2.678   3.242   1.616  0.9504  0.1788 -0.2333
15515TIP3    H268037   2.678   3.231   1.465  0.3692 -1.2883 -0.1284
15516TIP3   OH268038   7.176   4.164   5.127  0.0182 -0.4596 -0.2580
15516TIP3    H168039   7.106   4.224   5.098  0.3198  0.5160  0.9734
15516TIP3    H268040   7.142   4.077   5.108 -0.5819  0.0758 -1.7668
15517TIP3   OH268041   2.407   4.657   0.845 -0.1406 -0.2077  0.2572
15517TIP3    H168042   2.409   4.630   0.937 -0.9628 -1.4583 -0.0844
15517TIP3    H268043   2.486   4.617   0.807 -0.8362 -1.3121 -0.0247
15518TIP3   OH268044   1.126   1.717   0.848 -0.1378  0.0640  0.3858
15518TIP3    H168045   1.085   1.779   0.908  0.3211 -0.0229  0.7951
15518TIP3    H268046   1.210   1.697   0.889  0.1093 -0.1167 -0.2084
15519TIP3   OH268047   2.570   4.951   4.920  0.4940  0.6185 -0.6805
15519TIP3    H168048   2.621   4.943   5.001  0.6948 -1.0095 -0.9519
15519TIP3    H268049   2.635   4.972   4.853  1.0221 -2.4905 -1.2211
15520TIP3   OH268050   3.954   5.562   3.785  0.3470 -0.4242 -0.0627
15520TIP3    H168051   4.027   5.555   3.724  2.3614  0.8457  2.1012
15520TIP3    H268052   3.914   5.475   3.785  1.1035 -0.7950 -2.1671
15521TIP3   OH268053   3.592   5.690   4.029  0.3386 -0.0520  0.3758
15521TIP3    H168054   3.528   5.622   4.048 -0.3676  0.3445 -0.5712
15521TIP3    H268055   3.642   5.699   4.111  0.6806 -1.9465  0.4022
15522TIP3   OH268056   1.682   6.495  12.055 -0.0739 -0.0104 -0.3511
15522TIP3    H168057   1.711   6.571  12.106  0.4216 -0.7461  0.4773
15522TIP3    H268058   1.764   6.455  12.024 -0.2917 -0.7455  0.0111
15523TIP3   OH268059   0.939   3.349   2.224  0.5449  0.2057  0.1255
15523TIP3    H168060   0.871   3.302   2.273  0.1834  2.3318  1.7286
15523TIP3    H268061   0.946   3.301   2.141 -1.1715 -1.4937  0.9133
15524TIP3   OH268062   7.015   0.275   0.266  0.2031 -0.2856  0.3221
15524TIP3    H168063   7.017   0.197   0.322 -0.3236 -0.3542  0.2468
15524TIP3    H268064   6.994   0.347   0.326  0.8374 -0.1800  0.4167
15525TIP3   OH268065   0.532   1.117   1.864  0.0569  0.0236 -0.1410
15525TIP3    H168066   0.533   1.210   1.888 -0.6918 -0.1830  0.6981
15525TIP3    H268067   0.575   1.114   1.778 -2.6174  1.5540 -1.5961
15526TIP3   OH268068   5.039   3.768   4.491  0.2035 -0.5095 -0.2596
15526TIP3    H168069   5.123   3.779   4.446  0.3808 -2.4041 -0.4567
15526TIP3    H268070   4.977   3.745   4.422 -0.1694 -0.5332  0.0763
15527TIP3   OH268071   3.442   6.504   3.542 -0.1950 -0.0632 -0.2522
15527TIP3    H168072   3.459   6.584   3.491  0.9289 -0.7645 -1.0097
15527TIP3    H268073   3.503   6.440   3.505 -0.3733 -0.9805  1.0492
15528TIP3   OH268074   7.124   5.005   5.945 -0.2794 -0.5233  0.3999
15528TIP3    H168075   7.203   5.059   5.943 -1.5284  1.2688 -1.5190
15528TIP3    H268076   7.083   5.026   6.029 -0.7428  1.5343 -0.3138
15529TIP3   OH268077   5.537   0.982   4.221  0.3850 -0.1332 -0.1455
15529TIP3    H168078   5.491   0.899   4.213  0.5393 -0.1278 -1.0650
15529TIP3    H268079   5.589   0.973   4.301  1.0219 -1.2080 -0.6834
15530TIP3   OH268080   3.368   0.615   0.177 -0.4512 -0.1861 -0.1026
15530TIP3    H168081   3.324   0.618   0.092  1.1361  2.6906 -0.8817
15530TIP3    H268082   3.448   0.565   0.160 -1.0842 -1.3187  0.1937
15531TIP3   OH268083   2.997   6.278   2.246  0.1312 -0.2490  0.0963
15531TIP3    H168084   2.971   6.301   2.335 -0.4537 -1.3377  0.2201
15531TIP3    H268085   2.915   6.277   2.197  0.6045  1.5783 -0.7501
15532TIP3   OH268086   4.069   4.794   2.564  0.1842 -0.0090 -0.3196
15532TIP3    H168087   4.109   4.753   2.487  1.2720 -0.6722  0.5815
15532TIP3    H268088   4.126   4.868   2.584 -0.6648  0.7709 -0.7415
15533TIP3   OH268089   4.684   5.763   3.283  0.3621 -0.4831  0.1552
15533TIP3    H168090   4.612   5.823   3.264 -0.2928 -2.1698 -3.1059
15533TIP3    H268091   4.746   5.815   3.334 -0.9861  2.4209 -1.0471
15534TIP3   OH268092   5.777   4.127   4.886 -0.5923  0.1263  0.6073
15534TIP3    H168093   5.700   4.075   4.862  0.2426 -0.5465 -0.6811
15534TIP3    H268094   5.810   4.085   4.966 -0.2764 -0.9652 -0.0842
15535TIP3   OH268095   3.442   7.194  15.589 -0.8392  0.8888  0.1201
15535TIP3    H168096   3.458   7.198  15.495  0.1136  1.0714  0.2830
15535TIP3    H268097   3.427   7.285  15.614  2.2984  1.2764  0.7085
15536TIP3   OH268098   3.693   4.597   4.870  0.5722  0.0076 -0.5456
15536TIP3    H168099   3.773   4.615   4.921  1.8250 -2.0705 -1.6885
15536TIP3    H268100   3.649   4.681   4.864  2.6228  1.1805  0.2532
15537TIP3   OH268101   0.586   5.836   1.558  0.7760  0.3852 -0.6744
15537TIP3    H168102   0.551   5.747   1.567  0.9556  0.3940  0.1917
15537TIP3    H268103   0.598   5.848   1.464 -0.4891 -0.0332 -0.8953
15538TIP3   OH268104   1.863   6.707   1.454  0.3792  0.4413  0.0146
15538TIP3    H168105   1.845   6.629   1.506  0.4922 -0.7632 -1.7315
15538TIP3    H268106   1.798   6.705   1.384  2.1056  0.4779 -1.5972
15539TIP3   OH268107   7.012   3.632   1.372  0.2811  0.0420 -0.3513
15539TIP3    H168108   7.001   3.704   1.433  0.1132  0.5016 -0.9171
15539TIP3    H268109   6.950   3.565   1.402 -1.0115  0.9275 -1.0040
15540TIP3   OH268110   0.267   1.203   1.533  0.4161 -0.4662 -0.1612
15540TIP3    H168111   0.236   1.269   1.594  1.6434 -2.1698  2.4127
15540TIP3    H268112   0.357   1.185   1.561  1.0137 -1.2773 -2.5048
15541TIP3   OH268113   4.492   4.297   3.398 -0.3902  0.3448  0.0574
15541TIP3    H168114   4.514   4.390   3.393  1.3779 -0.0825 -0.5033
15541TIP3    H268115   4.540   4.256   3.326  0.3164 -1.2561  1.3786
15542TIP3   OH268116   1.130   0.904   4.645  0.4894  0.0219 -0.6725
15542TIP3    H168117   1.082   0.825   4.667  0.4716 -0.2958 -1.8186
15542TIP3    H268118   1.178   0.882   4.565  1.5815  0.7192 -0.2238
15543TIP3   OH268119   2.595   3.617   4.554  0.3171  0.0004  0.9746
15543TIP3    H168120   2.617   3.706   4.526 -0.5823 -0.4570 -1.2428
15543TIP3    H268121   2.608   3.618   4.649 -0.3775  2.7078  1.0728
15544TIP3   OH268122   3.849   4.244   1.625  0.1436  0.4073  0.2229
15544TIP3    H168123   3.868   4.173   1.687  0.7402  0.7875  0.4802
15544TIP3    H268124   3.934   4.263   1.584 -0.1486  0.5131 -0.3301
15545TIP3   OH268125   4.063   1.437   4.611 -0.4086  0.1845  0.0182
15545TIP3    H168126   4.051   1.511   4.671 -3.4446  0.2673 -0.5852
15545TIP3    H268127   4.113   1.473   4.538 -1.2305  1.4766  0.0744
15546TIP3   OH268128   2.849   5.253  15.439 -0.0566  0.2532 -0.2225
15546TIP3    H168129   2.798   5.200  15.499 -0.6077  1.0979  0.0687
15546TIP3    H268130   2.812   5.341  15.447  2.7446  1.3484  1.5307
15547TIP3   OH268131   5.739   3.459   2.800 -0.3244 -0.0947  0.4119
15547TIP3    H168132   5.805   3.527   2.816  0.5188 -0.9701  0.7232
15547TIP3    H268133   5.788   3.388   2.757 -1.0160 -0.8391  0.8493
15548TIP3   OH268134   4.930   1.510   4.995  0.2211 -0.2590  0.2926
15548TIP3    H168135   4.881   1.589   4.970 -0.1429  0.0793  1.9798
15548TIP3    H268136   4.979   1.486   4.916 -3.0883 -0.9417 -1.6609
15549TIP3   OH268137   0.145   5.274  13.874 -0.1786  0.0192  0.0247
15549TIP3    H168138   0.139   5.339  13.944 -1.5343 -0.7325  0.6145
15549TIP3    H268139   0.222   5.222  13.896  0.2167  0.6610  0.1905
15550TIP3   OH268140   5.097   4.773   2.159  0.3616  0.1370 -0.3807
15550TIP3    H168141   5.109   4.839   2.227  0.6416 -1.3790  1.0811
15550TIP3    H268142   5.104   4.821   2.077 -1.0954  2.1973  0.6624
15551TIP3   OH268143   3.762   3.377   5.183  0.2588  0.0149 -0.0236
15551TIP3    H168144   3.693   3.444   5.185  1.0114  0.7800  3.3202
15551TIP3    H268145   3.715   3.296   5.167 -1.1671  0.8484 -0.1836
15552TIP3   OH268146   2.351   3.113   0.501 -0.4266  0.2592 -0.8841
15552TIP3    H168147   2.436   3.085   0.534 -0.5918 -0.7958 -1.3162
15552TIP3    H268148   2.294   3.113   0.578 -0.0286  1.0098 -0.5883
15553TIP3   OH268149   2.110   3.165   3.983  0.1498 -0.0874 -0.2383
15553TIP3    H168150   2.033   3.176   4.038  1.2278  3.1945  0.6944
15553TIP3    H268151   2.159   3.093   4.025 -0.1507  0.8685  1.7988
15554TIP3   OH268152   5.534   6.470   3.355  0.0501  0.0384  0.6169
15554TIP3    H168153   5.470   6.529   3.393 -0.1532  0.2398 -0.0351
15554TIP3    H268154   5.574   6.426   3.430 -2.3057 -1.6268  0.9752
15555TIP3   OH268155   2.652   1.023   3.883 -0.5026  0.2588 -0.0207
15555TIP3    H168156   2.578   1.071   3.847 -0.9980  0.3651  1.1134
15555TIP3    H268157   2.612   0.952   3.933  0.1692  0.1305  0.3446
15556TIP3   OH268158   3.564   4.976   3.310 -0.5808 -0.3787  0.3102
15556TIP3    H168159   3.581   5.055   3.258  0.3389  0.1374  1.3939
15556TIP3    H268160   3.490   4.934   3.265 -2.5672  2.2358  0.9624
15557TIP3   OH268161   3.138   6.205   2.716  0.1599  0.0943  0.7018
15557TIP3    H168162   3.084   6.280   2.741  0.5645  0.6591 -0.0914
15557TIP3    H268163   3.076   6.141   2.682  0.1327  1.4426 -1.9112
15558TIP3   OH268164   6.294   1.088   5.178 -0.0463  0.1108  0.3320
15558TIP3    H168165   6.289   1.078   5.083  0.2489 -1.2137  0.4473
15558TIP3    H268166   6.246   1.169   5.197  2.1407  1.8216 -1.1958
15559TIP3   OH268167   7.197   1.890   1.672 -0.1057  0.3409  0.3766
15559TIP3    H168168   7.152   1.952   1.730 -0.6228  0.7133 -0.4171
15559TIP3    H268169   7.288   1.892   1.701 -0.2272  1.0507  0.7258
15560TIP3   OH268170   2.729   5.676  15.200 -0.2677 -0.4568  0.1986
15560TIP3    H168171   2.784   5.714  15.268  0.1093  1.1036 -0.9648
15560TIP3    H268172   2.788   5.662  15.126 -0.9730 -0.8105 -0.3021
15561TIP3   OH268173   1.813   1.881   4.202 -0.2830  0.1910 -0.1457
15561TIP3    H168174   1.775   1.882   4.290 -0.1334  0.0127 -0.0781
15561TIP3    H268175   1.869   1.803   4.201 -0.4688  0.0590 -0.4766
15562TIP3   OH268176   1.281   5.173   3.782  0.4764 -0.0823 -0.6362
15562TIP3    H168177   1.353   5.182   3.720  0.4842  1.1132 -0.4606
15562TIP3    H268178   1.289   5.249   3.839  1.4790 -2.0284  1.9042
15563TIP3   OH268179   0.729   5.880   3.653  0.0477  0.2251  0.2002
15563TIP3    H168180   0.680   5.861   3.573  1.0998  1.4673 -0.7539
15563TIP3    H268181   0.813   5.835   3.641 -0.1516 -0.3857  1.0384
15564TIP3   OH268182   3.901   2.952  13.743  0.1683 -0.1832 -0.0965
15564TIP3    H168183   3.975   3.004  13.775  0.8532 -1.2941  0.1541
15564TIP3    H268184   3.941   2.871  13.711 -0.8248 -0.3155 -1.0082
15565TIP3   OH268185   2.771   5.127  15.187 -0.2985 -0.6611  0.4670
15565TIP3    H168186   2.764   5.179  15.267 -2.7176 -1.3952  0.7688
15565TIP3    H268187   2.794   5.040  15.218  0.6305 -0.5113  0.2037
15566TIP3   OH268188   4.154   5.565   2.925 -0.1270  0.4444  0.1824
15566TIP3    H168189   4.204   5.492   2.890  0.3507  0.6778  0.3753
15566TIP3    H268190   4.078   5.524   2.966  0.2661  0.0369  0.5106
15567TIP3   OH268191   4.523   5.632   4.129  0.2937 -0.1119 -0.5197
15567TIP3    H168192   4.551   5.701   4.190 -0.3689  0.3853 -0.7662
15567TIP3    H268193   4.481   5.566   4.185 -1.7079  1.0635 -0.5675
15568TIP3   OH268194   1.308   1.742   3.286  0.2348  0.0653  0.1127
15568TIP3    H168195   1.245   1.755   3.358 -0.3316 -0.2276 -0.3241
15568TIP3    H268196   1.259   1.766   3.207  0.6756 -0.1632 -0.2320
15569TIP3   OH268197   3.945   0.909   1.116  0.4022 -0.0954 -0.4536
15569TIP3    H168198   4.025   0.867   1.086  1.9297  2.1709  0.3251
15569TIP3    H268199   3.955   0.914   1.211 -0.1254  1.2789 -0.4677
15570TIP3   OH268200   6.785   3.894   1.817  0.6142  0.3382  0.5225
15570TIP3    H168201   6.873   3.909   1.850  1.2418 -1.9299 -0.0130
15570TIP3    H268202   6.763   3.973   1.767  2.9208  0.3368 -0.5423
15571TIP3   OH268203   0.235   3.675   2.222 -0.1798 -0.5204 -0.4644
15571TIP3    H168204   0.186   3.650   2.301  0.7767  0.3665  0.4295
15571TIP3    H268205   0.324   3.690   2.254  0.0948  0.3581 -1.6414
15572TIP3   OH268206   3.838   5.771   5.614 -0.3132 -0.0642 -0.2304
15572TIP3    H168207   3.769   5.793   5.676 -1.7603  0.2136 -1.9136
15572TIP3    H268208   3.848   5.676   5.620  1.0365  0.1919  1.9436
15573TIP3   OH268209   1.580   1.796   3.346 -0.7503  0.1352  0.1808
15573TIP3    H168210   1.584   1.889   3.369 -0.8923  0.0214  0.6812
15573TIP3    H268211   1.491   1.783   3.312 -1.4991 -0.2811  2.2142
15574TIP3   OH268212   0.273   5.442   5.252  0.1555  0.7056  0.2461
15574TIP3    H168213   0.241   5.357   5.282 -1.8622  1.4260  0.2118
15574TIP3    H268214   0.204   5.504   5.277  0.8737  2.1048 -1.1368
15575TIP3   OH268215   1.191   4.373   2.192 -0.0741 -0.6553  0.2006
15575TIP3    H168216   1.186   4.355   2.286 -0.0368  0.5576  0.4499
15575TIP3    H268217   1.102   4.358   2.159 -1.1445  2.8452  1.1999
15576TIP3   OH268218   0.138   4.737   5.517 -0.3277  0.3227  0.7499
15576TIP3    H168219   0.100   4.791   5.587  0.9342 -0.9570  2.4680
15576TIP3    H268220   0.232   4.754   5.522 -0.2379  0.3078 -0.7331
15577TIP3   OH268221   1.403   3.334   4.750 -0.0062  0.0514  0.1898
15577TIP3    H168222   1.484   3.341   4.802 -0.8887 -0.1091  1.6067
15577TIP3    H268223   1.355   3.414   4.770 -0.3322  0.0119 -0.4320
15578TIP3   OH268224   3.629   4.451   5.548  0.5235 -1.1563 -0.0346
15578TIP3    H168225   3.718   4.469   5.577 -0.0746 -0.4507  1.4531
15578TIP3    H268226   3.609   4.364   5.585 -0.4513  0.0034  2.2798
15579TIP3   OH268227   5.597   3.438   5.150  0.2580 -0.0621 -0.0653
15579TIP3    H168228   5.635   3.370   5.205  0.0224 -0.6914 -0.6716
15579TIP3    H268229   5.637   3.425   5.065 -1.3046 -0.7502 -0.7186
15580TIP3   OH268230   6.036   4.437   1.955  0.5010 -0.7158 -0.4884
15580TIP3    H168231   5.941   4.444   1.944  0.5962 -0.3129 -1.0847
15580TIP3    H268232   6.069   4.415   1.868  1.1078  0.8115 -0.6654
15581TIP3   OH268233   4.123   4.080   4.096 -0.2979 -0.8048  0.0976
15581TIP3    H168234   4.051   4.137   4.070 -1.0907 -1.7372  0.2130
15581TIP3    H268235   4.200   4.118   4.054 -1.2643 -1.3013 -2.2643
15582TIP3   OH268236   4.708   1.188   5.365  0.6298  0.0935 -0.1354
15582TIP3    H168237   4.620   1.208   5.334  0.1063 -0.0578  1.2037
15582TIP3    H268238   4.760   1.264   5.340 -0.1890  0.8038  0.2674
15583TIP3   OH268239   0.804   1.632   2.754 -0.5530 -0.4930  0.3612
15583TIP3    H168240   0.718   1.650   2.793  0.4588  2.6953  1.2545
15583TIP3    H268241   0.806   1.686   2.674  0.6080 -0.5529  0.3366
15584TIP3   OH268242   1.633   3.636   1.336  0.0433 -0.0810  0.3705
15584TIP3    H168243   1.584   3.688   1.399  1.7333  0.1834  1.4926
15584TIP3    H268244   1.630   3.547   1.371 -0.3082 -0.2047  0.0261
15585TIP3   OH268245   2.600   5.610   2.282 -0.0138 -0.6493  0.3388
15585TIP3    H168246   2.644   5.533   2.247  2.0785 -0.0553  1.5986
15585TIP3    H268247   2.563   5.581   2.366 -1.3643 -0.9210 -0.3287
15586TIP3   OH268248   4.730   0.942  15.062  0.5565 -0.3739 -1.2054
15586TIP3    H168249   4.798   0.968  15.124 -0.1329  0.1210 -0.6526
15586TIP3    H268250   4.651   0.934  15.115  0.2706 -1.3494 -1.7733
15587TIP3   OH268251   3.671   3.118  14.421  0.7482 -0.1901  0.6834
15587TIP3    H168252   3.585   3.155  14.440 -0.3235 -2.4466  0.3655
15587TIP3    H268253   3.656   3.024  14.412  2.9440 -0.4325 -1.1196
15588TIP3   OH268254   2.160   5.175  14.408  0.1016 -0.0146  0.0698
15588TIP3    H168255   2.156   5.086  14.441  1.2872  0.9434  2.9075
15588TIP3    H268256   2.200   5.167  14.322 -1.6914 -2.3958 -0.6020
15589TIP3   OH268257   1.227   5.663   1.818 -0.4002  0.2598 -0.0971
15589TIP3    H168258   1.275   5.673   1.736 -0.1057  0.4885  0.1028
15589TIP3    H268259   1.285   5.699   1.885 -0.9965  0.8702  0.0973
15590TIP3   OH268260   4.461   4.302   1.100 -0.9112  0.2602  0.4581
15590TIP3    H168261   4.422   4.257   1.175 -1.6815  1.3597  0.7302
15590TIP3    H268262   4.444   4.244   1.026 -2.1366  0.2262  0.7560
15591TIP3   OH268263   2.285   5.333   4.615  0.2762 -0.4236  0.0631
15591TIP3    H168264   2.369   5.338   4.661  0.5854  2.0487 -0.7161
15591TIP3    H268265   2.225   5.386   4.667 -0.4793 -1.0786 -0.1208
15592TIP3   OH268266   1.870   3.838   1.303  0.0517 -0.3056 -0.1856
15592TIP3    H168267   1.812   3.763   1.316  2.1949 -2.0547 -0.5833
15592TIP3    H268268   1.912   3.851   1.388  0.0788  0.1288 -0.2638
15593TIP3   OH268269   5.331   6.853   3.071  0.0159  0.0305  0.2830
15593TIP3    H168270   5.282   6.898   3.002 -0.6241  1.4793  1.6327
15593TIP3    H268271   5.295   6.765   3.073 -1.2606  0.5375  0.0226
15594TIP3   OH268272   0.636   1.487   0.517  0.3955  0.5507  0.9503
15594TIP3    H168273   0.659   1.462   0.607  2.5891  0.9027  0.4961
15594TIP3    H268274   0.585   1.414   0.484  0.7485 -0.1873  2.0182
15595TIP3   OH268275   2.427   5.305   2.829 -0.0642 -0.0376 -0.3504
15595TIP3    H168276   2.453   5.239   2.765  1.3896 -1.1524  1.3334
15595TIP3    H268277   2.441   5.389   2.786  2.1171 -0.7407 -1.0364
15596TIP3   OH268278   0.382   2.125   3.684 -0.1719  0.0242 -0.3268
15596TIP3    H168279   0.372   2.205   3.632 -2.4437  1.3507  1.9978
15596TIP3    H268280   0.451   2.146   3.747  0.1612 -0.3374 -0.5695
15597TIP3   OH268281   2.848   0.496   4.808  0.6363 -0.0360 -0.2459
15597TIP3    H168282   2.845   0.402   4.824  0.8268 -0.1325 -0.7783
15597TIP3    H268283   2.935   0.523   4.838  0.4770  0.0171  0.1666
15598TIP3   OH268284   2.360   0.187   1.352 -0.5430 -0.1512 -0.5557
15598TIP3    H168285   2.336   0.230   1.434  1.5787  0.2362 -0.1061
15598TIP3    H268286   2.387   0.099   1.378  2.0638  0.6195 -0.5614
15599TIP3   OH268287   3.329   6.119   4.964 -0.4200  0.0233 -0.5693
15599TIP3    H168288   3.360   6.206   4.987 -1.2537  0.8888 -2.6709
15599TIP3    H268289   3.264   6.098   5.031  0.2979  0.7050  0.3450
15600TIP3   OH268290   6.706   6.080  12.548  0.7178 -0.1213 -1.1203
15600TIP3    H168291   6.691   6.059  12.456 -0.4576 -0.1819 -0.9206
15600TIP3    H268292   6.707   5.996  12.592 -1.4515  0.0308 -0.6977
15601TIP3   OH268293   5.868   3.578   5.630 -0.2111 -0.7397 -0.0088
15601TIP3    H168294   5.902   3.549   5.545  0.8703 -1.2877  0.5976
15601TIP3    H268295   5.789   3.526   5.643 -0.4576 -0.5526 -0.7426
15602TIP3   OH268296   4.181   0.536   0.798 -0.1000  0.7094 -0.2593
15602TIP3    H168297   4.266   0.495   0.781 -0.2825  0.2708 -0.1307
15602TIP3    H268298   4.200   0.603   0.864 -0.1081 -0.4276  0.9266
15603TIP3   OH268299   1.187   4.576   3.509 -0.5306 -0.5578 -0.2391
15603TIP3    H168300   1.169   4.493   3.553  2.8506 -1.0805  0.2940
15603TIP3    H268301   1.191   4.640   3.580  2.5122 -0.9855  0.0502
15604TIP3   OH268302   0.094   5.775   3.226  0.0976  0.0352 -0.5451
15604TIP3    H168303   0.046   5.699   3.260  0.5987 -0.6991 -1.4408
15604TIP3    H268304   0.179   5.740   3.200  0.6133  1.0624 -0.2497
15605TIP3   OH268305   6.646   5.618   1.330  0.6071 -0.2516 -0.0475
15605TIP3    H168306   6.692   5.535   1.342  1.2241  0.5619  4.2551
15605TIP3    H268307   6.561   5.605   1.371  0.5619  1.0621  0.3207
15606TIP3   OH268308   3.015   1.486  14.303  0.6010 -0.3099 -0.0613
15606TIP3    H168309   2.957   1.420  14.339  0.8571 -0.2087  0.5335
15606TIP3    H268310   3.031   1.547  14.375  1.8494 -0.6112 -0.0703
15607TIP3   OH268311   3.266   2.680   3.634  0.5374  0.0032  0.2219
15607TIP3    H168312   3.196   2.723   3.584 -0.1281 -1.0616  0.2326
15607TIP3    H268313   3.230   2.595   3.658  1.4711 -0.1494  1.1021
15608TIP3   OH268314   1.880   1.440   1.626 -0.2108  0.0773  0.1617
15608TIP3    H168315   1.785   1.446   1.620 -0.3177 -0.9896  0.7190
15608TIP3    H268316   1.896   1.395   1.709  0.8199  1.6654  0.8456
15609TIP3   OH268317   0.503   2.113   5.548  1.0218 -0.0480  0.2003
15609TIP3    H168318   0.448   2.139   5.622  1.1345  0.8713 -0.0320
15609TIP3    H268319   0.457   2.147   5.471  0.9805 -0.8720 -0.1518
15610TIP3   OH268320   0.330   1.697   4.075 -0.3039 -0.4654  0.1149
15610TIP3    H168321   0.360   1.710   3.985  1.4390 -1.6268  0.4885
15610TIP3    H268322   0.291   1.610   4.075  0.7452 -0.9482  0.7192
15611TIP3   OH268323   2.866   1.841   2.064 -0.2399  0.4120  0.0925
15611TIP3    H168324   2.892   1.902   2.133  0.7741 -0.7187  0.7130
15611TIP3    H268325   2.788   1.798   2.098 -0.1602  0.3740  0.2269
15612TIP3   OH268326   2.972   5.809   2.900 -0.2329 -0.0544 -0.2363
15612TIP3    H168327   2.926   5.728   2.923 -1.1565  0.3413 -0.7043
15612TIP3    H268328   2.907   5.862   2.855  0.1599  1.2579  0.7060
15613TIP3   OH268329   3.020   4.053   2.999 -0.5350 -0.5432 -0.0706
15613TIP3    H168330   3.020   4.099   2.916  2.5647 -0.8035 -0.2716
15613TIP3    H268331   2.992   4.119   3.063 -0.7892  0.2480 -0.9875
15614TIP3   OH268332   2.777   4.893   3.525  0.6016 -0.6319 -0.3524
15614TIP3    H168333   2.723   4.869   3.450  1.2715  1.6489 -1.6402
15614TIP3    H268334   2.721   4.950   3.578  0.1924 -2.0876  0.8059
15615TIP3   OH268335   2.130   3.307   1.858 -0.2258 -0.8911  0.2978
15615TIP3    H168336   2.199   3.371   1.841  0.2905 -1.3935  0.4768
15615TIP3    H268337   2.065   3.354   1.909 -0.7242  0.0097 -1.1405
15616TIP3   OH268338   2.249   4.679   5.176 -0.3535  0.3606  0.3583
15616TIP3    H168339   2.308   4.672   5.251 -0.5203 -2.0693  0.3286
15616TIP3    H268340   2.169   4.634   5.205 -1.2736  1.4499 -0.4698
15617TIP3   OH268341   1.135   3.586   1.583 -0.7360  0.5432 -0.3063
15617TIP3    H168342   1.228   3.598   1.566 -0.6647 -1.4171 -1.3902
15617TIP3    H268343   1.130   3.563   1.676 -0.0367 -0.4441 -0.5096
15618TIP3   OH268344   4.947   6.907   4.191  0.3170  0.7644  0.1903
15618TIP3    H168345   5.035   6.875   4.211  0.9922  2.4804  0.0677
15618TIP3    H268346   4.888   6.843   4.232  1.6327  0.5329  1.7617
15619TIP3   OH268347   4.853   0.511   1.946 -0.3003  0.2005  0.4361
15619TIP3    H168348   4.906   0.555   2.013  1.4589  0.9494 -1.3867
15619TIP3    H268349   4.793   0.578   1.915 -1.1244 -0.1506  1.2549
15620TIP3   OH268350   1.740   4.164   2.615  0.2292  0.2854 -0.4949
15620TIP3    H168351   1.664   4.155   2.557  0.8060  0.9659 -1.3669
15620TIP3    H268352   1.764   4.075   2.638 -1.0511  0.0737  0.0651
15621TIP3   OH268353   2.850   4.696   4.105 -0.4376 -0.1090 -0.2493
15621TIP3    H168354   2.874   4.669   4.194  0.2063  0.1120 -0.3516
15621TIP3    H268355   2.787   4.767   4.118  1.9350  2.0185  0.0835
15622TIP3   OH268356   1.878   0.470   1.910  0.1738 -0.3535  0.2163
15622TIP3    H168357   1.886   0.528   1.834 -0.1351  2.7235  2.4165
15622TIP3    H268358   1.968   0.452   1.936  0.2803 -1.4851 -0.9185
15623TIP3   OH268359   2.440   5.841   3.628  0.7285 -0.2615 -0.1011
15623TIP3    H168360   2.348   5.820   3.611  0.5811  1.3138 -1.3423
15623TIP3    H268361   2.440   5.882   3.714  0.3511 -0.7856  0.1487
15624TIP3   OH268362   4.911   5.129   3.577 -0.7590  0.6351 -0.5737
15624TIP3    H168363   5.005   5.114   3.587 -0.6435  1.0432 -1.0345
15624TIP3    H268364   4.874   5.102   3.661 -0.2410  0.3980 -0.4170
15625TIP3   OH268365   5.686   0.716   4.281 -0.5493 -0.3025 -0.6785
15625TIP3    H168366   5.724   0.726   4.194  0.6260  0.5730 -0.0665
15625TIP3    H268367   5.644   0.630   4.279 -0.7862 -0.1621 -2.2062
15626TIP3   OH268368   3.959   3.501   1.519 -0.0399 -0.0529 -0.2174
15626TIP3    H168369   3.993   3.425   1.472 -1.1254 -1.3220  1.0144
15626TIP3    H268370   4.015   3.509   1.596 -1.2928 -0.9878  0.8171
15627TIP3   OH268371   3.268   2.684   2.112  0.3363 -0.5358 -0.1995
15627TIP3    H168372   3.235   2.771   2.136  1.0907 -0.6063  1.1299
15627TIP3    H268373   3.226   2.624   2.173  0.1838 -1.0576 -0.8084
15628TIP3   OH268374   4.274   4.981   0.093 -0.1722  0.3615  0.2762
15628TIP3    H168375   4.187   4.945   0.077 -0.2444  0.4411  0.4754
15628TIP3    H268376   4.321   4.970   0.011 -0.4582  0.5593  0.0855
15629TIP3   OH268377   2.383   5.400  15.485  0.1815  0.0168 -0.3792
15629TIP3    H168378   2.384   5.466  15.415 -2.2996  0.1217 -0.3695
15629TIP3    H268379   2.299   5.355  15.474  1.1289 -2.0804  0.6236
15630TIP3   OH268380   1.041   6.743   4.762 -0.1339 -0.7077  0.5758
15630TIP3    H168381   1.025   6.660   4.808  1.0143 -0.2656  1.8073
15630TIP3    H268382   1.087   6.717   4.682 -1.5959 -1.4320 -0.0476
15631TIP3   OH268383   3.367   4.438   4.695  0.0857 -0.2705  0.0928
15631TIP3    H168384   3.337   4.461   4.783 -0.3885  0.5805 -0.2895
15631TIP3    H268385   3.318   4.358   4.674 -0.8245  0.2928  0.0566
15632TIP3   OH268386   3.964   1.620   1.782 -0.5668 -0.7546  0.3140
15632TIP3    H168387   4.017   1.699   1.793 -0.4001 -0.7959 -0.1624
15632TIP3    H268388   3.965   1.578   1.868  0.7462 -1.1075  0.1263
15633TIP3   OH268389   4.147   6.387   3.262  0.0558  0.1367 -0.1013
15633TIP3    H168390   4.085   6.418   3.196  1.3497  0.9254 -0.9619
15633TIP3    H268391   4.093   6.368   3.339 -1.3911 -0.2304 -1.1829
15634TIP3   OH268392   2.934   0.230   1.217 -0.1038 -0.4779  0.4335
15634TIP3    H168393   2.869   0.298   1.233  0.2471 -0.3402  1.2888
15634TIP3    H268394   2.887   0.164   1.166 -0.3179  0.6131 -0.8249
15635TIP3   OH268395   4.624   4.156   2.693 -0.2642 -0.4016 -0.1436
15635TIP3    H168396   4.675   4.080   2.664  0.1810  0.2320 -1.0403
15635TIP3    H268397   4.541   4.119   2.722 -0.3530 -1.1534 -1.3316
15636TIP3   OH268398   3.145   2.056  14.850  0.1656 -0.3656 -0.6170
15636TIP3    H168399   3.064   2.018  14.882  1.1150 -0.8913  1.2489
15636TIP3    H268400   3.118   2.134  14.801 -1.4368 -0.4298  0.1484
15637TIP3   OH268401   5.776   7.124   3.945 -0.1370 -0.5944 -0.2468
15637TIP3    H168402   5.814   7.193   3.890 -0.7483 -0.7141 -0.8322
15637TIP3    H268403   5.700   7.167   3.987  1.2763 -0.0188  1.8074
15638TIP3   OH268404   5.096   4.999   1.667 -0.0459 -0.4607 -0.2589
15638TIP3    H168405   5.034   4.927   1.656 -0.0863 -0.8125  2.0436
15638TIP3    H268406   5.045   5.069   1.709  1.2446 -1.0433  2.4126
15639TIP3   OH268407   4.170   2.207   5.187 -0.2767 -0.1322 -0.0183
15639TIP3    H168408   4.208   2.210   5.099 -0.1204  0.7949  0.0831
15639TIP3    H268409   4.083   2.168   5.173  0.6987 -2.3360 -0.2386
15640TIP3   OH268410   5.364   0.626   1.102 -0.0157  0.2366  0.1927
15640TIP3    H168411   5.389   0.537   1.076 -0.9621  0.3980 -1.3573
15640TIP3    H268412   5.269   0.624   1.107 -0.0607  1.2399 -0.1345
15641TIP3   OH268413   3.599   4.437  15.102 -0.7691  0.2517  0.7374
15641TIP3    H168414   3.518   4.397  15.135  0.2030 -1.7805  0.7868
15641TIP3    H268415   3.649   4.363  15.068 -0.4411  1.9208 -2.5721
15642TIP3   OH268416   5.486   6.854   3.912 -0.4923 -0.0162 -0.1894
15642TIP3    H168417   5.469   6.943   3.881  1.0150  0.5771  0.6264
15642TIP3    H268418   5.516   6.807   3.834  0.4673  0.6844 -0.2512
15643TIP3   OH268419   0.830   5.859   4.338 -0.2992 -0.5708 -0.2623
15643TIP3    H168420   0.883   5.784   4.366 -1.3301 -0.2776  2.7479
15643TIP3    H268421   0.743   5.842   4.376 -1.3420  0.7488 -1.9671
15644TIP3   OH268422   6.881   3.821  13.452 -0.0364  0.0223  0.0651
15644TIP3    H168423   6.830   3.742  13.433  1.1905 -0.3730 -1.6725
15644TIP3    H268424   6.933   3.798  13.529  0.4228 -0.9479 -0.5134
15645TIP3   OH268425   0.822   6.430  13.978 -0.2439 -0.0637  0.2635
15645TIP3    H168426   0.844   6.458  14.066 -0.3318  0.9477 -0.0165
15645TIP3    H268427   0.727   6.440  13.973 -0.0753  1.5019 -0.4504
15646TIP3   OH268428   1.906   5.155   2.457 -0.5272 -0.2114 -0.6278
15646TIP3    H168429   1.976   5.219   2.467 -1.0716  0.1107  1.5166
15646TIP3    H268430   1.913   5.124   2.367  3.2545 -1.2262 -0.0576
15647TIP3   OH268431   6.176   2.810   4.054  0.7035 -0.3592 -0.0622
15647TIP3    H168432   6.178   2.896   4.011  1.8985  0.4879  1.6188
15647TIP3    H268433   6.113   2.759   4.003 -0.5735  1.7420 -0.6533
15648TIP3   OH268434   0.214   2.503   3.773  0.3089  0.4274  0.0870
15648TIP3    H168435   0.178   2.570   3.830 -1.6009  0.4141 -1.0444
15648TIP3    H268436   0.213   2.423   3.826 -0.9596  0.5219  0.2192
15649TIP3   OH268437   2.852   6.310   2.524 -0.0804  0.0745 -0.2178
15649TIP3    H168438   2.785   6.365   2.483 -1.2488  1.3917  3.2552
15649TIP3    H268439   2.890   6.366   2.592  2.5798 -1.6099 -0.2590
15650TIP3   OH268440   2.518   3.137   4.218  0.2144  0.1451  0.3108
15650TIP3    H168441   2.568   3.171   4.292  1.0128 -0.8174  0.2328
15650TIP3    H268442   2.444   3.196   4.209 -0.0555  0.0923  2.0718
15651TIP3   OH268443   0.990   2.863  12.775 -0.2574 -0.5069  0.3540
15651TIP3    H168444   0.906   2.872  12.820 -0.9645  0.7705 -1.1687
15651TIP3    H268445   1.051   2.833  12.843 -1.7032 -0.4149  1.7135
15652TIP3   OH268446   0.572   0.396   5.540 -0.9242  0.1671  0.6046
15652TIP3    H168447   0.498   0.347   5.505 -0.8483 -0.5671  1.4630
15652TIP3    H268448   0.587   0.359   5.627 -0.7046  1.5281  1.1686
15653TIP3   OH268449   2.138   5.520   4.133 -0.0476  0.0054 -0.0626
15653TIP3    H168450   2.155   5.463   4.208 -1.4157 -0.3710 -0.0098
15653TIP3    H268451   2.129   5.460   4.059  0.3336  0.2949 -0.3439
15654TIP3   OH268452   4.210   5.251   2.813  0.3453 -0.0583 -0.2954
15654TIP3    H168453   4.151   5.178   2.829  0.7964 -0.0045  1.7333
15654TIP3    H268454   4.292   5.226   2.856  0.5935  1.5202  0.1921
15655TIP3   OH268455   1.073   2.310   5.207 -0.0152 -0.5374  0.6449
15655TIP3    H168456   0.999   2.364   5.234  0.5673  0.1108  0.9637
15655TIP3    H268457   1.136   2.318   5.279  1.5333  1.1678 -0.8205
15656TIP3   OH268458   2.574   4.867   3.319 -0.1947 -0.1263  0.0865
15656TIP3    H168459   2.521   4.923   3.262  2.0165  1.8162 -0.1199
15656TIP3    H268460   2.620   4.809   3.259 -0.8073 -0.6902  0.1590
15657TIP3   OH268461   4.797   1.740  12.638 -0.1457 -0.5780 -0.3780
15657TIP3    H168462   4.769   1.664  12.588  1.6331 -1.1415 -0.5382
15657TIP3    H268463   4.717   1.770  12.682 -0.9287 -2.3479 -0.5414
15658TIP3   OH268464   3.622   6.269   1.155 -0.2404  0.0272  0.4859
15658TIP3    H168465   3.567   6.258   1.077  1.0314 -0.3435 -0.3668
15658TIP3    H268466   3.623   6.364   1.169 -0.2033  0.1270 -0.1480
15659TIP3   OH268467   1.124   2.242   5.792  0.5223 -0.0232  0.3892
15659TIP3    H168468   1.049   2.223   5.736  1.1816 -1.3855 -0.0563
15659TIP3    H268469   1.101   2.323   5.836 -1.5138 -0.7669  0.7546
15660TIP3   OH268470   1.010   2.324   2.587  0.7134 -0.7121  0.1928
15660TIP3    H168471   0.986   2.309   2.496 -0.5998 -1.3966  0.6382
15660TIP3    H268472   0.934   2.368   2.625  0.4127 -2.3269  1.4842
15661TIP3   OH268473   3.868   1.287  15.493  0.0227  0.6228  0.2845
15661TIP3    H168474   3.874   1.338  15.573 -2.2343  2.0704 -0.4305
15661TIP3    H268475   3.913   1.339  15.427  0.2223  0.3188  0.1753
15662TIP3   OH268476   3.498   3.843   5.573  0.2065 -0.5105  0.3714
15662TIP3    H168477   3.471   3.791   5.497 -0.4768  0.0786  0.2068
15662TIP3    H268478   3.588   3.869   5.553 -0.9342  2.1493 -1.6551
15663TIP3   OH268479   1.380   4.175   4.249  0.1669 -0.0985  0.1402
15663TIP3    H168480   1.474   4.197   4.257  0.1337 -0.7469  2.9372
15663TIP3    H268481   1.371   4.091   4.294 -1.8685  0.2722  0.4762
15664TIP3   OH268482   3.511   3.274  15.597 -1.1265  0.8256 -0.3246
15664TIP3    H168483   3.497   3.305  15.687  1.3446  2.0168 -0.3251
15664TIP3    H268484   3.462   3.336  15.543  1.2136  2.9902 -0.0906
15665TIP3   OH268485   5.005   1.125   5.141 -0.5597  0.3029 -0.0665
15665TIP3    H168486   5.013   1.192   5.073 -0.5083 -1.5116 -1.9020
15665TIP3    H268487   5.094   1.114   5.174 -0.5236  0.9517  0.0663
15666TIP3   OH268488   1.501   5.531   3.941  0.2360  0.2888  0.2598
15666TIP3    H168489   1.480   5.576   3.860 -1.4288  0.4525  0.7752
15666TIP3    H268490   1.476   5.593   4.010  0.8670 -0.1743  0.9119
15667TIP3   OH268491   6.111   4.250   3.079  0.0371 -0.4556  0.0665
15667TIP3    H168492   6.037   4.252   3.019 -1.3573 -1.0195  1.7347
15667TIP3    H268493   6.100   4.328   3.134 -0.8739 -1.9646  2.1017
15668TIP3   OH268494   0.718   5.418   2.744 -0.4273 -0.0626 -0.4171
15668TIP3    H168495   0.697   5.505   2.710  1.6696  0.7061  0.1829
15668TIP3    H268496   0.748   5.369   2.667 -0.3100  0.1787 -0.5264
15669TIP3   OH268497   3.230   4.017   5.500  0.2279  0.0942 -0.3834
15669TIP3    H168498   3.292   4.090   5.489  0.1455  0.4734  1.4986
15669TIP3    H268499   3.285   3.939   5.503  0.4423  0.2256 -0.8575
15670TIP3   OH268500   4.112   4.616   5.446  0.0414  0.1944  0.3394
15670TIP3    H168501   4.147   4.530   5.423  0.7910  0.1555  1.5704
15670TIP3    H268502   4.184   4.659   5.491 -0.8727  0.8482  1.1936
15671TIP3   OH268503   2.977   1.265   4.368 -0.5148  0.1810  0.1230
15671TIP3    H168504   2.949   1.295   4.281  1.7568 -0.4198 -0.8368
15671TIP3    H268505   3.065   1.230   4.354 -0.0431  0.2694  2.7109
15672TIP3   OH268506   6.950   4.352   4.325 -0.3563 -0.6367 -0.1900
15672TIP3    H168507   7.014   4.420   4.304  0.7476 -1.8940 -0.9101
15672TIP3    H268508   6.960   4.287   4.256 -1.0133 -1.8107  0.8083
15673TIP3   OH268509   6.266   0.289   3.027  0.4444 -0.2256 -0.4229
15673TIP3    H168510   6.173   0.267   3.032  0.4709 -0.4256 -0.7965
15673TIP3    H268511   6.274   0.342   2.948  0.7898 -0.9038 -0.8387
15674TIP3   OH268512   2.432   1.109   4.324  1.0488 -0.0772 -0.0149
15674TIP3    H168513   2.443   1.081   4.416  1.1741 -0.0677 -0.0271
15674TIP3    H268514   2.508   1.163   4.306  0.7672  0.3347  0.0293
15675TIP3   OH268515   4.060   3.640   0.590 -0.2971  0.0803 -0.6657
15675TIP3    H168516   3.978   3.690   0.586  1.1685  2.6503  0.0183
15675TIP3    H268517   4.091   3.638   0.500  1.4731  3.7451 -0.2537
15676TIP3   OH268518   0.803   4.665  11.694 -0.3981 -0.1232  0.3873
15676TIP3    H168519   0.711   4.657  11.667 -0.3713  0.7900  0.0184
15676TIP3    H268520   0.849   4.599  11.642 -0.4671  1.1083 -1.3036
15677TIP3   OH268521   2.571   6.612   3.181  0.3580 -0.5314  1.1540
15677TIP3    H168522   2.520   6.650   3.110 -0.1456  0.1323  1.8631
15677TIP3    H268523   2.639   6.677   3.200  1.3950 -1.3544  0.3005
15678TIP3   OH268524   6.249   0.664   5.262  0.3281 -0.1578 -0.3431
15678TIP3    H168525   6.325   0.682   5.207  0.0029 -0.7001 -0.9906
15678TIP3    H268526   6.285   0.646   5.349  0.9432 -0.4340 -0.6520
15679TIP3   OH268527   2.978   3.284   1.693  0.6423 -0.3430  0.2760
15679TIP3    H168528   2.924   3.308   1.618  1.5788 -1.0646 -0.6425
15679TIP3    H268529   3.021   3.202   1.667  2.4950  0.4235  0.7985
15680TIP3   OH268530   6.420   3.439   1.425  0.1137  0.2246 -0.3196
15680TIP3    H168531   6.334   3.480   1.435  1.3299  2.4882  1.2844
15680TIP3    H268532   6.473   3.505   1.379  1.7913  0.0219  1.2814
15681TIP3   OH268533   0.444   2.205   2.680 -0.1006 -0.3692  0.5554
15681TIP3    H168534   0.397   2.272   2.630  0.7598 -0.0496  0.1627
15681TIP3    H268535   0.435   2.126   2.627  1.4990  0.1511 -0.5453
15682TIP3   OH268536   4.050   5.664   0.444 -0.4611 -0.7673 -0.3817
15682TIP3    H168537   3.985   5.617   0.392 -0.9207 -0.6881  0.1128
15682TIP3    H268538   4.019   5.755   0.442  0.7960 -0.3494 -1.9101
15683TIP3   OH268539   1.484   2.011   3.655 -0.5763 -0.4921  0.3974
15683TIP3    H168540   1.529   2.087   3.692 -1.6125  0.1843  0.2860
15683TIP3    H268541   1.538   1.936   3.681  0.5198  0.2853  0.4065
15684TIP3   OH268542   1.028   2.990   1.377  0.3804  0.3709  0.2232
15684TIP3    H168543   1.110   2.942   1.363  0.3975 -0.0472  1.6953
15684TIP3    H268544   0.959   2.925   1.363  0.3198  0.5393 -0.2702
15685TIP3   OH268545   1.566   3.241   3.926 -0.0513  0.6360 -0.2108
15685TIP3    H168546   1.511   3.177   3.881  0.1079 -0.0875  0.6161
15685TIP3    H268547   1.530   3.326   3.900 -1.7914  0.1715  0.5905
15686TIP3   OH268548   2.909   2.289  14.922  0.4144  0.4841 -0.5993
15686TIP3    H168549   2.945   2.330  14.844  4.1268 -1.1935  0.0991
15686TIP3    H268550   2.920   2.195  14.908  0.0858  0.1080  1.4428
15687TIP3   OH268551   6.834   0.662  14.591  0.0566 -0.0073 -0.5073
15687TIP3    H168552   6.861   0.735  14.646 -0.9227 -0.5608  0.7386
15687TIP3    H268553   6.767   0.698  14.533 -1.3183 -0.1813  0.9377
15688TIP3   OH268554   4.434   3.789   1.171  0.6195  0.1215  0.2964
15688TIP3    H168555   4.483   3.735   1.109  2.1692  0.2393  1.4122
15688TIP3    H268556   4.342   3.774   1.147  1.1444 -0.7435 -1.2672
15689TIP3   OH268557   0.761   4.140  13.232  0.7598  0.0635 -0.7938
15689TIP3    H168558   0.690   4.159  13.170  0.3202  0.2865 -0.2267
15689TIP3    H268559   0.840   4.138  13.178  0.2522 -0.7027 -1.5110
15690TIP3   OH268560   2.662   6.140   0.911  0.2745 -0.2316 -0.1724
15690TIP3    H168561   2.600   6.181   0.851 -2.0464 -2.0648  0.9210
15690TIP3    H268562   2.724   6.095   0.853  0.5502  1.5112 -1.2659
15691TIP3   OH268563   6.438   3.603   4.406 -0.2972  0.1874 -0.5130
15691TIP3    H168564   6.461   3.657   4.331  1.2950 -0.4977 -0.5277
15691TIP3    H268565   6.353   3.637   4.435 -0.0065  1.7117 -1.4246
15692TIP3   OH268566   1.228   6.576   1.800  0.4721  0.0126 -0.0480
15692TIP3    H168567   1.189   6.650   1.846  0.2011  0.1218 -0.4520
15692TIP3    H268568   1.159   6.546   1.740  0.1398 -1.3088  0.9579
15693TIP3   OH268569   0.770   3.977   1.510  0.3153 -0.0293 -0.0883
15693TIP3    H168570   0.826   4.047   1.475  0.9675 -0.5481 -0.1084
15693TIP3    H268571   0.768   3.992   1.604  0.7777 -0.1985 -0.0456
15694TIP3   OH268572   4.866   0.182   4.495 -0.1459 -0.0678  0.4314
15694TIP3    H168573   4.915   0.136   4.427  0.2584 -0.2528  0.8398
15694TIP3    H268574   4.844   0.267   4.456 -1.4218 -0.8342 -0.5475
15695TIP3   OH268575   7.025   4.170   3.416 -0.1750  0.1280 -0.0770
15695TIP3    H168576   7.097   4.231   3.432 -0.5723  0.4119  0.6269
15695TIP3    H268577   7.029   4.153   3.321  1.1927 -0.3354  0.0495
15696TIP3   OH268578   6.979   2.938   5.002  0.5565  0.0713  0.3580
15696TIP3    H168579   6.950   3.001   5.068  1.8362  0.2240  0.7741
15696TIP3    H268580   6.945   2.973   4.920  1.2080  1.2732  0.5916
15697TIP3   OH268581   4.592   6.332   4.635  0.1296  0.0795 -0.4617
15697TIP3    H168582   4.604   6.360   4.725 -2.2047 -0.4812  0.0602
15697TIP3    H268583   4.580   6.414   4.586  0.0092  0.3177 -0.0312
15698TIP3   OH268584   2.785   1.158  15.435 -0.0217 -0.2796 -0.0151
15698TIP3    H168585   2.831   1.098  15.375  0.8400 -1.0826  1.4219
15698TIP3    H268586   2.758   1.231  15.379  2.0615 -0.3068 -1.1316
15699TIP3   OH268587   6.222   5.842   1.427 -0.0147 -0.3719  0.5549
15699TIP3    H168588   6.226   5.747   1.434 -0.5791 -0.3864  0.7353
15699TIP3    H268589   6.128   5.861   1.420  0.0071  0.2761  1.9754
15700TIP3   OH268590   5.171   0.747   2.740  0.2330  0.1350  0.1818
15700TIP3    H168591   5.122   0.678   2.694 -1.5340  0.4960  1.4847
15700TIP3    H268592   5.194   0.809   2.671 -2.5154  0.7346 -0.2501
15701TIP3   OH268593   5.928   1.230   3.642  0.1601 -0.7693 -0.1053
15701TIP3    H168594   5.947   1.162   3.578 -3.2055 -1.4479 -0.4606
15701TIP3    H268595   5.957   1.311   3.600  0.2773 -1.4946 -1.4331
15702TIP3   OH268596   1.816   0.175   3.064 -0.1414  0.4671 -0.0650
15702TIP3    H168597   1.853   0.114   3.001 -0.0220  1.4800 -0.9916
15702TIP3    H268598   1.889   0.201   3.120 -0.6786 -2.1079  1.9154
15703TIP3   OH268599   3.992   3.811   1.604 -0.1434  0.2386 -0.1333
15703TIP3    H168600   3.987   3.754   1.681  0.1035 -1.7070 -1.5037
15703TIP3    H268601   3.903   3.842   1.591 -0.1693  0.6483  0.9795
15704TIP3   OH268602   2.426   1.401   5.413  0.4756 -0.0584  0.0938
15704TIP3    H168603   2.432   1.379   5.320  0.8771 -0.0601  0.1190
15704TIP3    H268604   2.429   1.317   5.457 -1.4276 -0.1834  0.0368
15705TIP3   OH268605   3.239   2.633   1.839 -0.1344 -0.8771 -0.2364
15705TIP3    H168606   3.282   2.578   1.773  0.0293 -2.1809  0.9229
15705TIP3    H268607   3.276   2.603   1.922 -1.1781 -0.0406  0.5420
15706TIP3   OH268608   1.462   3.350   2.049  0.0638  0.1150  0.3474
15706TIP3    H168609   1.483   3.376   1.960 -2.8364  0.5547 -0.2678
15706TIP3    H268610   1.476   3.255   2.050  1.5727  0.3216 -0.1148
15707TIP3   OH268611   3.179   5.498   5.099 -0.5557  0.3347 -0.0491
15707TIP3    H168612   3.243   5.494   5.171 -1.6055 -1.1157  0.8386
15707TIP3    H268613   3.156   5.590   5.092  1.6167  0.8885 -0.3783
15708TIP3   OH268614   3.668   3.524   0.291 -0.2300  0.0542 -0.3410
15708TIP3    H168615   3.686   3.551   0.201  0.1480  2.7585  0.5246
15708TIP3    H268616   3.577   3.496   0.290 -0.0331 -0.5739 -1.7058
15709TIP3   OH268617   0.999   4.628   4.773  0.2346  0.3170  0.4130
15709TIP3    H168618   0.977   4.721   4.768 -1.2647 -0.0335  0.1088
15709TIP3    H268619   1.033   4.606   4.686 -2.2686 -0.0798 -0.5261
15710TIP3   OH268620   2.197   1.725   5.294 -0.0875 -0.2386  0.0403
15710TIP3    H168621   2.276   1.744   5.345  1.2244  0.1319 -2.0968
15710TIP3    H268622   2.223   1.737   5.203 -2.5575 -0.3216 -0.7198
15711TIP3   OH268623   2.981   1.409   1.392 -0.3837  0.0956 -0.2337
15711TIP3    H168624   3.008   1.350   1.321 -1.1085  1.9266 -2.1016
15711TIP3    H268625   2.994   1.359   1.472  1.0254 -1.8278 -1.6302
15712TIP3   OH268626   3.021   3.971   2.539  0.3448  0.0020 -0.2847
15712TIP3    H168627   2.950   3.985   2.477  0.9868 -0.7324 -1.1850
15712TIP3    H268628   3.029   3.876   2.546  1.6874  0.0769 -0.7110
15713TIP3   OH268629   3.688   5.334   4.688 -0.3837  0.6810 -0.1447
15713TIP3    H168630   3.768   5.334   4.741  0.1164 -1.1294 -0.8623
15713TIP3    H268631   3.702   5.403   4.623  0.8432 -0.0000 -0.6189
15714TIP3   OH268632   6.110   3.724   0.402  0.0739  0.0791  0.2032
15714TIP3    H168633   6.115   3.783   0.326 -0.1412  0.3244  0.3795
15714TIP3    H268634   6.085   3.781   0.474  1.1702  0.0112  0.6391
15715TIP3   OH268635   3.250   3.468   2.439  0.0717 -0.1384 -0.4772
15715TIP3    H168636   3.316   3.456   2.370  0.0703  1.0089 -0.6847
15715TIP3    H268637   3.301   3.471   2.520  0.0118 -2.2323 -0.3440
15716TIP3   OH268638   2.996   3.546   1.395  0.4382  0.6587  0.6239
15716TIP3    H168639   3.046   3.472   1.359 -0.0137 -0.1928  1.7163
15716TIP3    H268640   3.041   3.567   1.477  0.7915  1.8599  0.1358
15717TIP3   OH268641   2.759   6.379   4.022 -0.3045  0.1513  0.6275
15717TIP3    H168642   2.689   6.403   3.961 -0.3068 -1.2508  0.0411
15717TIP3    H268643   2.716   6.373   4.107 -1.2549 -2.1911  0.0204
15718TIP3   OH268644   2.361   6.572  13.663 -0.0579 -0.4438  0.6180
15718TIP3    H168645   2.281   6.578  13.609 -1.3502 -2.5618  2.1836
15718TIP3    H268646   2.431   6.603  13.606 -1.8377  0.2982 -1.2264
15719TIP3   OH268647   4.133   4.682   5.883 -0.6179  0.3972  0.3010
15719TIP3    H168648   4.152   4.596   5.844  1.2344  1.1005 -0.3829
15719TIP3    H268649   4.219   4.724   5.891 -1.6331  2.7283 -0.6473
15720TIP3   OH268650   1.225   1.668   2.164 -0.3688  0.5729 -0.2207
15720TIP3    H168651   1.212   1.688   2.072  0.7781 -0.4583 -0.6285
15720TIP3    H268652   1.219   1.572   2.169  1.3304  0.4766  0.4608
15721TIP3   OH268653   5.375   6.012   3.060 -0.5118  0.3897 -0.2261
15721TIP3    H168654   5.469   6.003   3.044 -0.3681  0.1038  0.7748
15721TIP3    H268655   5.369   6.040   3.151 -1.4373 -0.4779 -0.0227
15722TIP3   OH268656   4.851   6.407   2.104 -0.1713  0.2554  0.1982
15722TIP3    H168657   4.844   6.334   2.043 -1.2984  0.1214  0.4840
15722TIP3    H268658   4.925   6.385   2.160 -0.1657 -0.4043 -0.0692
15723TIP3   OH268659   5.967   7.180   1.483 -0.1644 -0.1410 -0.0955
15723TIP3    H168660   6.044   7.210   1.531 -0.3545  1.1866 -0.5948
15723TIP3    H268661   5.899   7.168   1.550 -0.4667  1.8226 -0.0164
15724TIP3   OH268662   1.945   2.192   2.199  0.6352 -0.3983 -0.0852
15724TIP3    H168663   1.981   2.212   2.286 -1.4540  0.9643  0.5115
15724TIP3    H268664   1.850   2.198   2.211  0.1031 -4.8037 -1.3989
15725TIP3   OH268665   6.604   0.101   1.487 -0.0607 -0.2631  0.4339
15725TIP3    H168666   6.587   0.025   1.542  0.8536  0.9913  2.5582
15725TIP3    H268667   6.698   0.115   1.494 -0.1809  0.9055 -0.1144
15726TIP3   OH268668   3.057   2.692   5.253  0.1718 -0.4732 -0.0312
15726TIP3    H168669   2.971   2.663   5.282  0.0859 -0.8099 -0.6133
15726TIP3    H268670   3.039   2.765   5.193  0.3841  0.8079  1.4080
15727TIP3   OH268671   6.493   1.270   4.996 -0.1233 -0.1902 -0.4198
15727TIP3    H168672   6.567   1.243   4.942  1.1712  1.2250  0.6183
15727TIP3    H268673   6.521   1.250   5.086 -0.8763  0.6265  0.0007
15728TIP3   OH268674   5.255   3.367   5.894  0.0229  0.4434  0.4596
15728TIP3    H168675   5.338   3.321   5.908 -0.3395 -0.4765 -0.3883
15728TIP3    H268676   5.277   3.459   5.908  1.0656  0.1602  0.7739
15729TIP3   OH268677   2.156   6.320   3.195 -0.6128  0.7253 -0.1030
15729TIP3    H168678   2.092   6.388   3.214 -1.1652 -0.2349  1.6411
15729TIP3    H268679   2.236   6.349   3.238 -0.0568  1.5727 -1.6692
15730TIP3   OH268680   1.416   6.096   3.953 -0.2440  0.1638  0.0903
15730TIP3    H168681   1.343   6.038   3.976  1.7261 -2.5067 -0.1970
15730TIP3    H268682   1.420   6.093   3.858  1.5584 -1.4242  0.1931
15731TIP3   OH268683   1.511   4.425  15.104 -0.1135  0.2049  0.3723
15731TIP3    H168684   1.449   4.440  15.032  0.8535 -0.3316 -0.5974
15731TIP3    H268685   1.461   4.444  15.183 -1.5817 -0.4261 -0.3786
15732TIP3   OH268686   6.722   0.862   2.054  0.2747  0.5352  0.2008
15732TIP3    H168687   6.660   0.908   1.998 -1.0754 -1.7446 -0.2084
15732TIP3    H268688   6.725   0.773   2.019  0.1077 -0.6936  3.1713
15733TIP3   OH268689   6.325   4.297   4.213 -0.1321  0.3152 -0.1184
15733TIP3    H168690   6.398   4.293   4.151  1.3666  0.5132  1.6178
15733TIP3    H268691   6.366   4.296   4.299 -2.2449 -1.4124  0.9201
15734TIP3   OH268692   3.603   4.762   3.501  0.1290  0.2079 -0.3436
15734TIP3    H168693   3.577   4.682   3.455 -0.2459  0.3885 -0.4506
15734TIP3    H268694   3.548   4.831   3.462  1.0387  0.6586 -0.8375
15735TIP3   OH268695   4.793   5.051   3.864 -0.2380  0.3002  0.1360
15735TIP3    H168696   4.883   5.079   3.882 -0.1543  1.3381 -1.7600
15735TIP3    H268697   4.740   5.096   3.931  0.1927  3.0772 -1.3079
15736TIP3   OH268698   4.539   3.288   1.765 -0.0268 -0.5971  0.2462
15736TIP3    H168699   4.633   3.284   1.783  0.3727  2.7665 -0.9214
15736TIP3    H268700   4.502   3.336   1.839 -0.4245  0.4698 -0.6326
15737TIP3   OH268701   3.130   6.295   5.409  0.1543  0.2463 -0.4766
15737TIP3    H168702   3.090   6.373   5.447  0.0427  0.0969 -0.2880
15737TIP3    H268703   3.218   6.323   5.384 -0.0814  0.5879 -0.9370
15738TIP3   OH268704   1.122   0.256   3.052 -0.8188 -0.5879  0.2482
15738TIP3    H168705   1.168   0.207   2.984  1.0526  0.5527  0.6336
15738TIP3    H268706   1.168   0.234   3.133 -0.5489  1.0347  0.5585
15739TIP3   OH268707   3.481   6.968   3.032  0.8886  0.1664  0.1120
15739TIP3    H168708   3.529   6.885   3.041 -1.2608 -1.0727  0.6350
15739TIP3    H268709   3.486   7.008   3.119  0.4396 -0.2799  0.3484
15740TIP3   OH268710   0.385   4.063   2.303 -0.3032 -0.4738 -0.0079
15740TIP3    H168711   0.454   4.100   2.247 -1.6082 -0.3111 -1.5363
15740TIP3    H268712   0.378   3.972   2.276 -0.0223 -0.7442  0.8229
15741TIP3   OH268713   5.655   5.656   0.930  0.1008  0.4342  0.3760
15741TIP3    H168714   5.626   5.742   0.960 -0.9970  0.1622  0.1164
15741TIP3    H268715   5.679   5.669   0.838 -0.9617  0.2580  0.0745
15742TIP3   OH268716   4.264   5.237   4.573  0.2685 -0.4641 -0.5491
15742TIP3    H168717   4.283   5.331   4.566 -0.9764 -0.1054  0.6501
15742TIP3    H268718   4.330   5.204   4.635 -0.0604 -0.1350 -0.0158
15743TIP3   OH268719   0.433   4.119   0.413 -0.1727 -0.5666 -0.0547
15743TIP3    H168720   0.515   4.073   0.396  0.9272  1.1644  0.4413
15743TIP3    H268721   0.381   4.057   0.464  1.3796 -1.1598  0.8415
15744TIP3   OH268722   1.583   6.162   3.723  0.1119 -0.3400  0.2518
15744TIP3    H168723   1.609   6.245   3.682 -0.0946 -0.6260 -0.4623
15744TIP3    H268724   1.655   6.142   3.783  2.4821 -2.0789 -3.0361
15745TIP3   OH268725   6.191   3.217   0.074  0.5091 -0.6719 -0.3204
15745TIP3    H168726   6.279   3.179   0.084  0.7732 -0.2511 -1.0417
15745TIP3    H268727   6.135   3.161   0.128  1.0985 -1.3678 -0.4173
15746TIP3   OH268728   6.106   2.780  13.981  0.9999 -0.3951  0.0239
15746TIP3    H168729   6.156   2.790  13.900 -1.7479  0.4872 -1.6377
15746TIP3    H268730   6.065   2.693  13.973 -1.5734  0.8457 -0.9406
15747TIP3   OH268731   3.554   2.376   0.144 -0.1527 -0.4703 -0.0477
15747TIP3    H168732   3.536   2.380   0.050  1.1882  0.3138 -0.2793
15747TIP3    H268733   3.506   2.299   0.174  1.0837 -1.9687 -1.7677
15748TIP3   OH268734   0.485   3.021   2.626 -0.3130 -0.4945  0.4631
15748TIP3    H168735   0.425   3.051   2.558 -0.5947 -2.3091 -0.0966
15748TIP3    H268736   0.466   3.079   2.701  1.4466  2.9030 -1.5971
15749TIP3   OH268737   0.049   4.365  14.799  0.3180  0.2014 -0.1402
15749TIP3    H168738   0.020   4.280  14.834 -0.4323  0.4045 -0.2657
15749TIP3    H268739   0.026   4.362  14.706 -1.6970  1.3766  0.2823
15750TIP3   OH268740   1.937   6.499   5.095 -0.1705  0.4881  0.3010
15750TIP3    H168741   2.011   6.447   5.063  0.3005  0.5802  1.2308
15750TIP3    H268742   1.938   6.486   5.190 -2.4214 -0.9350  0.1821
15751TIP3   OH268743   0.428   1.745   2.804 -0.4596  0.1870 -0.4715
15751TIP3    H168744   0.463   1.817   2.751  1.2990  0.2494  0.7470
15751TIP3    H268745   0.431   1.778   2.894  0.0542 -1.2937  0.0596
15752TIP3   OH268746   1.964   1.612   1.421  0.2317 -0.4321  0.2246
15752TIP3    H168747   1.949   1.559   1.499  1.4246 -1.7568 -0.4308
15752TIP3    H268748   1.886   1.596   1.366  0.0260 -0.5453  0.5482
15753TIP3   OH268749   4.018   2.360   4.831 -0.3893  0.3211  0.3657
15753TIP3    H168750   4.031   2.378   4.738 -0.6433 -0.5878  0.1505
15753TIP3    H268751   3.940   2.410   4.855 -0.4314  0.4076  0.0472
15754TIP3   OH268752   1.168   1.958   2.005  0.3296 -0.0174  0.1885
15754TIP3    H168753   1.157   1.927   2.095 -0.4719 -1.2931 -0.3328
15754TIP3    H268754   1.220   2.038   2.013 -2.4127  1.6716  2.0950
15755TIP3   OH268755   3.667   0.337   3.328  0.3100  0.6474  0.5524
15755TIP3    H168756   3.681   0.423   3.288 -0.5049  0.2703 -0.5806
15755TIP3    H268757   3.741   0.325   3.387  1.3513  1.3818 -0.5935
15756TIP3   OH268758   4.671   2.161   5.543 -0.0820 -0.3809 -0.4309
15756TIP3    H168759   4.612   2.130   5.612  1.7842  1.6393  2.1708
15756TIP3    H268760   4.759   2.149   5.579  0.8591  3.2558 -1.2787
15757TIP3   OH268761   4.694   2.916  14.183  0.1647 -0.0565  0.2637
15757TIP3    H168762   4.631   2.851  14.153 -1.3060  0.9815  1.0590
15757TIP3    H268763   4.771   2.865  14.210 -0.7585 -1.4025  0.3719
15758TIP3   OH268764   2.316   4.992   4.863 -0.1675  0.2670 -0.4217
15758TIP3    H168765   2.338   5.016   4.773 -1.7316 -0.5085 -1.0283
15758TIP3    H268766   2.401   4.975   4.904  0.6040  1.2153 -1.5661
15759TIP3   OH268767   7.175   4.497   1.544  0.5061 -0.2458 -0.3273
15759TIP3    H168768   7.200   4.511   1.453 -0.7926  2.3805 -0.3237
15759TIP3    H268769   7.125   4.575   1.568 -2.3474 -2.5324  1.5338
15760TIP3   OH268770   4.439   5.000   3.254 -0.5537  0.0001 -0.2072
15760TIP3    H168771   4.531   4.980   3.234 -0.2411  0.6357  0.5497
15760TIP3    H268772   4.391   4.976   3.175  0.0919 -1.6354 -0.1268
15761TIP3   OH268773   2.678   5.200   2.362  0.3065  0.0506  0.0217
15761TIP3    H168774   2.604   5.184   2.304  1.9436 -0.9594 -1.8540
15761TIP3    H268775   2.728   5.270   2.320 -0.3978  1.8870  2.1054
15762TIP3   OH268776   4.744   0.424   3.008  0.0629  0.1730  0.1266
15762TIP3    H168777   4.781   0.507   3.039 -1.0668  0.9373 -0.5290
15762TIP3    H268778   4.723   0.440   2.916 -0.6121 -0.6755  0.1286
15763TIP3   OH268779   0.606   4.747  13.976  0.4355  0.1267 -0.7377
15763TIP3    H168780   0.691   4.765  14.017  0.0593 -0.5461  0.3492
15763TIP3    H268781   0.562   4.687  14.036 -1.6264  2.0083 -0.2906
15764TIP3   OH268782   6.540   5.282   5.752 -0.0745  0.2830  0.1503
15764TIP3    H168783   6.479   5.340   5.795 -1.5490 -1.3942  0.3700
15764TIP3    H268784   6.591   5.339   5.694 -1.9644  1.6627 -0.1798
15765TIP3   OH268785   2.268   6.386   5.870 -0.8327  0.2544 -0.1279
15765TIP3    H168786   2.227   6.367   5.785 -0.5055  1.8415 -0.6660
15765TIP3    H268787   2.230   6.322   5.930 -0.7724 -1.1479 -1.5587
15766TIP3   OH268788   0.463   4.735   3.864  0.4070 -0.7055 -0.4732
15766TIP3    H168789   0.404   4.770   3.930  2.7401 -0.2342  1.4216
15766TIP3    H268790   0.440   4.642   3.857 -0.7167 -0.4678  0.0345
15767TIP3   OH268791   7.076   6.232  15.006  0.2286 -0.5847  0.0627
15767TIP3    H168792   7.103   6.275  15.087  0.6672  0.8689 -0.8221
15767TIP3    H268793   7.151   6.243  14.948 -0.4508 -0.7563 -0.8528
15768TIP3   OH268794   0.889   6.034   1.407  0.8881 -0.5628  0.8541
15768TIP3    H168795   0.925   5.946   1.422  1.8128 -0.0053  1.9823
15768TIP3    H268796   0.828   6.022   1.334  3.0355 -1.6206 -0.8392
15769TIP3   OH268797   2.570   3.075   1.646 -0.5767 -0.2912 -0.5490
15769TIP3    H168798   2.516   3.049   1.571  0.3155 -2.1874 -0.5751
15769TIP3    H268799   2.508   3.106   1.711 -1.3484  1.6679 -2.1557
15770TIP3   OH268800   1.296   1.678   2.441  0.0568  0.5688  0.1491
15770TIP3    H168801   1.292   1.684   2.345  2.3927  1.6418  0.0816
15770TIP3    H268802   1.377   1.631   2.459  1.3849  3.2805  1.6275
15771TIP3   OH268803   4.497   7.112   1.467 -0.5174 -0.2594  0.0891
15771TIP3    H168804   4.441   7.058   1.522  0.3247 -1.0306  0.1997
15771TIP3    H268805   4.559   7.051   1.428 -0.3114  0.4600 -0.7321
15772TIP3   OH268806   5.825   4.204   1.351  0.1160 -0.3225 -0.6207
15772TIP3    H168807   5.920   4.204   1.364  0.0040  0.5872  0.2162
15772TIP3    H268808   5.803   4.295   1.333 -0.9028 -0.1464  1.4781
15773TIP3   OH268809   2.018   3.919   4.899 -0.1194 -0.5607  0.2235
15773TIP3    H168810   1.977   3.963   4.973 -1.7454 -0.9318 -0.4524
15773TIP3    H268811   2.107   3.898   4.929  0.7254  3.1562  0.5877
15774TIP3   OH268812   6.228   6.580   5.768  0.5633  0.1020 -0.0056
15774TIP3    H168813   6.320   6.589   5.744  1.2890  0.0435  2.6475
15774TIP3    H268814   6.215   6.645   5.837 -1.4672  0.2865 -0.5449
15775TIP3   OH268815   4.398   0.785   1.254 -0.1830  0.1230 -0.5450
15775TIP3    H168816   4.452   0.739   1.318  0.1138  1.9229  0.5507
15775TIP3    H268817   4.308   0.760   1.276 -0.0410  0.2746  0.2327
15776TIP3   OH268818   2.104   0.758   3.306  0.2729 -0.4452 -0.5697
15776TIP3    H168819   2.021   0.800   3.326  0.3567 -0.0670 -1.0186
15776TIP3    H268820   2.092   0.667   3.334  0.1846 -0.0695  0.6403
15777TIP3   OH268821   3.168   0.348   1.697 -0.3780 -0.1107  0.4196
15777TIP3    H168822   3.139   0.386   1.614  0.2111 -1.7229 -0.5324
15777TIP3    H268823   3.245   0.399   1.721 -0.8028  0.6432  0.2077
15778TIP3   OH268824   5.669   7.179   1.420  0.3553 -0.2420  0.0739
15778TIP3    H168825   5.702   7.221   1.499 -3.1766  0.5591  1.1939
15778TIP3    H268826   5.643   7.091   1.448  0.1387 -0.3545 -0.4619
15779TIP3   OH268827   6.472   3.278   3.410 -0.0678 -1.0039  0.4937
15779TIP3    H168828   6.493   3.254   3.320  0.5117 -1.1090  0.6517
15779TIP3    H268829   6.548   3.329   3.439 -0.6917 -0.1176  0.5994
15780TIP3   OH268830   6.827   3.026   5.541 -0.3098 -0.0717 -0.0377
15780TIP3    H168831   6.858   3.013   5.631 -1.1039  1.7137  0.5209
15780TIP3    H268832   6.793   3.116   5.540 -2.0277 -0.7133 -1.6253
15781TIP3   OH268833   6.155   6.214   4.012 -0.2149 -0.7798  0.9092
15781TIP3    H168834   6.130   6.239   3.924 -1.5144 -1.6340  1.0134
15781TIP3    H268835   6.240   6.255   4.026  0.4229 -1.3568 -1.0652
15782TIP3   OH268836   7.127   4.597   1.027 -0.2706 -0.1903  0.8091
15782TIP3    H168837   7.161   4.565   0.943 -0.5145 -0.8340  0.9543
15782TIP3    H268838   7.165   4.684   1.036  1.2084 -0.8418  0.8973
15783TIP3   OH268839   3.114   6.946  14.929  0.0272 -0.9908 -0.0115
15783TIP3    H168840   3.075   7.034  14.928 -0.1931 -1.0774 -1.8304
15783TIP3    H268841   3.044   6.889  14.895  1.1536 -1.3959 -1.7221
15784TIP3   OH268842   6.468   3.136   2.050 -0.3376  0.0298  0.0866
15784TIP3    H168843   6.543   3.186   2.017 -0.1325 -0.7089 -0.5862
15784TIP3    H268844   6.440   3.083   1.975 -1.3824  0.1217  0.4046
15785TIP3   OH268845   6.009   5.167   3.085 -0.4869  0.4829 -0.5360
15785TIP3    H168846   5.966   5.169   3.171 -1.0738 -1.8325 -0.7450
15785TIP3    H268847   6.038   5.257   3.071 -0.8763  1.0137  1.8383
15786TIP3   OH268848   1.268   5.758   3.810  0.0386  0.0435  0.8232
15786TIP3    H168849   1.293   5.838   3.764 -2.4022  1.3127  1.6343
15786TIP3    H268850   1.257   5.785   3.901 -0.5771 -1.2523  1.1446
15787TIP3   OH268851   3.913   2.064   3.407  0.2701 -0.1374 -0.5362
15787TIP3    H168852   3.963   2.103   3.335 -1.8461  2.7080 -0.5229
15787TIP3    H268853   3.822   2.084   3.388 -0.5186 -1.1339  1.9015
15788TIP3   OH268854   6.788   0.359  14.456 -0.2590 -0.5856 -0.5108
15788TIP3    H168855   6.752   0.270  14.450 -0.3132 -0.6906  1.2295
15788TIP3    H268856   6.881   0.346  14.475  0.0019 -0.2756 -1.5449
15789TIP3   OH268857   6.814   3.124   2.262 -0.2632 -0.0895  0.0400
15789TIP3    H168858   6.741   3.174   2.298  0.4570  1.3627 -0.4863
15789TIP3    H268859   6.892   3.173   2.289  0.5937 -2.2239  1.5573
15790TIP3   OH268860   3.501   6.486   2.439  0.5308 -0.5896  0.2988
15790TIP3    H168861   3.445   6.492   2.361  0.5490  0.7675  0.3741
15790TIP3    H268862   3.450   6.434   2.501 -0.4079  0.1233  0.1482
15791TIP3   OH268863   2.066   3.125   5.105 -0.1333  0.7857  0.1815
15791TIP3    H168864   2.068   3.063   5.032  0.2689  1.3786 -0.3190
15791TIP3    H268865   1.987   3.103   5.153 -0.6999  0.7472 -0.7555
15792TIP3   OH268866   3.279   6.861   3.533 -0.9786 -0.1374  0.1511
15792TIP3    H168867   3.192   6.841   3.499 -0.7114 -0.7972 -0.1589
15792TIP3    H268868   3.292   6.798   3.604 -1.0966  0.5228  0.7622
15793TIP3   OH268869   4.961   2.142   4.322 -0.3300  0.2006 -0.4297
15793TIP3    H168870   5.029   2.108   4.379 -0.7931 -0.0762 -0.0397
15793TIP3    H268871   4.881   2.136   4.374 -0.9457 -1.1115 -1.4971
15794TIP3   OH268872   4.922   5.989   4.853  0.5409 -0.2973  0.4852
15794TIP3    H168873   4.900   5.998   4.945  2.8142 -0.5040  1.0608
15794TIP3    H268874   4.951   5.899   4.843  0.1956 -0.3154 -0.4705
15795TIP3   OH268875   2.866   4.066   3.354 -0.5103  0.6049 -0.3266
15795TIP3    H168876   2.848   4.135   3.289 -0.6972  0.4540 -0.4337
15795TIP3    H268877   2.848   3.985   3.308 -0.5226  0.4919 -0.1206
15796TIP3   OH268878   4.852   1.712   1.692 -0.3722  0.1566  0.0719
15796TIP3    H168879   4.909   1.785   1.667 -1.7997  1.1107 -0.4524
15796TIP3    H268880   4.906   1.659   1.750  1.0772  1.0005 -0.4578
15797TIP3   OH268881   6.240   6.421   4.523  0.0970 -0.8674 -0.1067
15797TIP3    H168882   6.181   6.477   4.574  0.1030 -0.7646 -0.2117
15797TIP3    H268883   6.224   6.446   4.432  1.6338  0.4870 -0.0351
15798TIP3   OH268884   5.892   4.163   1.933  0.0919  0.3284 -0.4076
15798TIP3    H168885   5.906   4.219   2.009 -1.2673 -0.5218  0.5026
15798TIP3    H268886   5.826   4.100   1.961  1.1772 -1.4020 -1.5813
15799TIP3   OH268887   3.985   6.769   4.241  0.4622  0.6816 -0.1200
15799TIP3    H168888   3.960   6.680   4.265  0.1610  0.6121 -0.6786
15799TIP3    H268889   3.922   6.794   4.172  0.0960  1.5802  0.5228
15800TIP3   OH268890   6.458   4.061   1.046  0.0998 -0.4193  0.5106
15800TIP3    H168891   6.398   4.108   0.988  1.4640 -0.5002 -1.0010
15800TIP3    H268892   6.496   4.129   1.102 -0.8528 -0.2720  0.9787
15801TIP3   OH268893   1.981   5.133   1.873 -0.1970  0.0558  0.0395
15801TIP3    H168894   1.966   5.203   1.937  1.3629 -0.7903  1.3585
15801TIP3    H268895   2.031   5.175   1.803  1.2207  0.1409  1.0907
15802TIP3   OH268896   5.764   3.536  14.377 -0.3320  0.4534  0.1450
15802TIP3    H168897   5.856   3.552  14.357 -0.5747  2.0957  0.2825
15802TIP3    H268898   5.751   3.443  14.357  0.8421  0.6753 -1.7819
15803TIP3   OH268899   5.731   7.133   4.708  0.0462 -0.2248 -0.4544
15803TIP3    H168900   5.794   7.061   4.715 -0.6246 -0.7932 -0.2202
15803TIP3    H268901   5.694   7.124   4.620 -0.4580 -0.5175 -0.2133
15804TIP3   OH268902   4.625   2.856  14.774 -1.0644 -0.1738  0.0147
15804TIP3    H168903   4.682   2.829  14.846 -0.2253  0.6169 -0.3410
15804TIP3    H268904   4.541   2.815  14.793 -0.9640  0.3969  1.6715
15805TIP3   OH268905   3.710   4.903   3.011  0.0495  1.0829 -0.4894
15805TIP3    H168906   3.645   4.944   3.068 -0.8479 -0.9126 -0.0389
15805TIP3    H268907   3.792   4.907   3.061 -0.2122  1.5327 -0.0936
15806TIP3   OH268908   5.908   4.631   3.004 -0.3823 -0.4532 -0.2270
15806TIP3    H168909   5.910   4.719   3.040 -2.4839 -0.6001  0.3589
15806TIP3    H268910   5.831   4.630   2.947  0.3143 -1.5560 -1.1815
15807TIP3   OH268911   1.724   1.239   2.601  0.2199  0.2661 -0.4633
15807TIP3    H168912   1.755   1.254   2.512  0.5266 -1.2702 -0.6186
15807TIP3    H268913   1.689   1.324   2.628 -2.7161 -0.0122 -3.1245
15808TIP3   OH268914   2.443   0.975   4.565  0.2897  0.4779 -0.5900
15808TIP3    H168915   2.428   0.903   4.627  2.8992  0.5989  0.2265
15808TIP3    H268916   2.429   1.054   4.617  2.0566  0.5743 -0.2329
15809TIP3   OH268917   2.633   1.245   5.102 -0.4520 -0.5235  0.2575
15809TIP3    H168918   2.568   1.314   5.088  1.0074  0.7059 -0.6006
15809TIP3    H268919   2.640   1.237   5.198  0.9538  2.0573  0.3923
15810TIP3   OH268920   2.157   0.802   0.138  0.6975 -0.0847 -0.0404
15810TIP3    H168921   2.067   0.832   0.145  0.4207 -0.7319 -0.8137
15810TIP3    H268922   2.182   0.821   0.047  0.9498 -0.9855 -0.1662
15811TIP3   OH268923   4.328   2.122   2.267  0.1258  0.5456  0.2242
15811TIP3    H168924   4.298   2.144   2.179 -1.0848 -0.2725  0.4204
15811TIP3    H268925   4.353   2.206   2.305  2.8908  0.6396 -1.6910
15812TIP3   OH268926   7.043   3.348   1.813  0.5596  0.0923  0.2906
15812TIP3    H168927   7.017   3.437   1.787  0.5316  0.2734  0.9327
15812TIP3    H268928   7.019   3.342   1.905 -2.0941 -1.5692 -0.4458
15813TIP3   OH268929   1.459   4.448   3.524 -0.4412  0.4893  0.6261
15813TIP3    H168930   1.528   4.501   3.484 -0.0200 -0.3548  0.2287
15813TIP3    H268931   1.378   4.482   3.487 -0.1933  1.0363  0.5805
15814TIP3   OH268932   6.352   6.643   2.502 -0.0456 -0.1908  0.6772
15814TIP3    H168933   6.301   6.645   2.583  1.3657  0.6697  1.5505
15814TIP3    H268934   6.331   6.725   2.458  0.3113  0.0033  0.8686
15815TIP3   OH268935   3.166   2.215   2.365  0.0432  0.2689  0.0358
15815TIP3    H168936   3.249   2.207   2.411 -0.8041 -1.0041  1.3644
15815TIP3    H268937   3.109   2.264   2.425  0.4698  3.0852 -1.7557
15816TIP3   OH268938   0.818   1.004   2.418 -0.2755 -0.3875 -0.3829
15816TIP3    H168939   0.815   1.012   2.323 -0.3855 -0.5771 -0.3957
15816TIP3    H268940   0.864   1.083   2.447 -0.4317 -0.2242 -0.5767
15817TIP3   OH268941   5.204   0.758   2.439 -0.3371  0.2073  0.1948
15817TIP3    H168942   5.274   0.735   2.378 -1.5591 -0.6159 -0.9360
15817TIP3    H268943   5.145   0.683   2.437 -0.9865  0.6566  1.5432
15818TIP3   OH268944   4.967   3.486   5.208  0.1380  0.5237 -0.2799
15818TIP3    H168945   4.933   3.400   5.234  2.4871 -0.3353  0.0707
15818TIP3    H268946   4.963   3.539   5.288 -0.9040  0.6212 -0.3890
15819TIP3   OH268947   0.379   6.525   4.189  0.1605 -0.0728  0.2886
15819TIP3    H168948   0.358   6.509   4.097 -0.8237  1.4741  0.2286
15819TIP3    H268949   0.360   6.442   4.233  0.0834 -0.6404 -0.8169
15820TIP3   OH268950   5.565   0.451   2.464  0.2798  0.0629 -0.1025
15820TIP3    H168951   5.475   0.462   2.434  0.3206  0.1024 -0.2114
15820TIP3    H268952   5.605   0.537   2.449  0.0236  0.3838  1.0096
15821TIP3   OH268953   0.437   6.894   4.474  0.1358 -0.0629  0.1985
15821TIP3    H168954   0.461   6.824   4.535  0.5503  0.9222  1.1949
15821TIP3    H268955   0.521   6.931   4.445 -0.0929  0.6729  0.4649
15822TIP3   OH268956   1.153   3.658   3.352 -0.1439 -0.2934 -0.2809
15822TIP3    H168957   1.239   3.617   3.345 -0.2797 -0.5296 -0.5844
15822TIP3    H268958   1.172   3.750   3.371  0.2290  0.0392 -2.1868
15823TIP3   OH268959   7.014   4.959   4.700  0.2608  0.1112 -0.5595
15823TIP3    H168960   7.030   4.951   4.607 -0.1276  0.3960 -0.6542
15823TIP3    H268961   6.975   4.875   4.725 -0.7750  0.4855 -0.8982
15824TIP3   OH268962   1.792   0.397   3.511 -0.0818 -0.2282 -0.1942
15824TIP3    H168963   1.762   0.321   3.460 -2.8203 -0.5851  1.8454
15824TIP3    H268964   1.811   0.361   3.598 -1.3246  1.4038  0.7676
15825TIP3   OH268965   3.166   5.504   2.313 -0.5028 -0.0176  0.2307
15825TIP3    H168966   3.211   5.586   2.293 -1.5662  0.8349  1.2628
15825TIP3    H268967   3.130   5.476   2.229  0.3069  0.2885 -0.2271
15826TIP3   OH268968   1.096   3.419   4.207  0.2594 -0.4934 -0.0961
15826TIP3    H168969   1.175   3.471   4.216 -0.2563  0.3370 -0.3113
15826TIP3    H268970   1.027   3.472   4.246 -0.3660 -0.7773 -0.7953
15827TIP3   OH268971   0.043   7.062   1.074  0.1185 -0.0077 -0.3009
15827TIP3    H168972   0.085   7.082   1.158  0.7105 -0.5270 -0.4737
15827TIP3    H268973   0.115   7.048   1.013 -0.3099  0.1501 -0.8500
15828TIP3   OH268974   2.166   4.578   2.049  0.6515  0.1698 -0.1001
15828TIP3    H168975   2.195   4.654   1.998  1.3017 -0.7935 -1.1811
15828TIP3    H268976   2.241   4.559   2.107  1.2017 -0.7652 -1.1142
15829TIP3   OH268977   5.968   6.606   5.030  0.2626  0.8776  0.1381
15829TIP3    H168978   5.887   6.647   5.000 -0.5535  0.9179  2.3106
15829TIP3    H268979   5.989   6.651   5.112  1.6718 -0.1315  0.3506
15830TIP3   OH268980   1.188   3.921   3.388  0.2283  0.0832  0.5069
15830TIP3    H168981   1.160   3.946   3.476  0.7109 -2.1999  1.3488
15830TIP3    H268982   1.274   3.961   3.378  0.6585 -0.5668  1.5203
15831TIP3   OH268983   5.189   2.806   4.152 -0.2208  0.0928  0.0463
15831TIP3    H168984   5.211   2.826   4.061  0.9040 -0.6336  0.1474
15831TIP3    H268985   5.196   2.710   4.158 -0.4264  0.1232  0.8521
15832TIP3   OH268986   3.197   2.453  15.445 -0.6065 -0.3167 -0.1500
15832TIP3    H168987   3.168   2.537  15.408  0.3557 -0.1818 -0.6186
15832TIP3    H268988   3.289   2.467  15.464  0.1725 -2.0201 -2.4382
15833TIP3   OH268989   2.902   5.101   1.790 -0.1922 -0.1698 -0.2713
15833TIP3    H168990   2.938   5.085   1.877  0.0431  0.4238 -0.2573
15833TIP3    H268991   2.832   5.165   1.805  1.4578  1.7995 -0.8298
15834TIP3   OH268992   2.011   2.597   4.595 -0.0574 -0.6256  0.0253
15834TIP3    H168993   1.991   2.660   4.526  0.9298  0.1289  0.4245
15834TIP3    H268994   2.034   2.516   4.549  0.5145 -0.1495 -0.5248
15835TIP3   OH268995   2.043   0.785   1.500 -0.7626 -0.5876  0.2258
15835TIP3    H168996   1.994   0.703   1.500 -1.9261  0.1071  0.0129
15835TIP3    H268997   1.979   0.852   1.521 -0.1723  0.4903 -1.2891
15836TIP3   OH268998   3.554   3.145  15.094 -0.6068 -0.1920  0.0471
15836TIP3    H168999   3.606   3.197  15.155 -3.3259  0.0696  2.2405
15836TIP3    H269000   3.498   3.210  15.050 -2.1464 -0.9402  0.8850
15837TIP3   OH269001   2.036   4.574   0.650  0.4359  0.2108  0.2484
15837TIP3    H169002   1.961   4.632   0.660  1.3824  1.4343  0.2814
15837TIP3    H269003   2.017   4.524   0.571 -0.4612  0.4378  0.3157
15838TIP3   OH269004   3.534   4.901   1.750  0.6048 -0.6220  1.0217
15838TIP3    H169005   3.457   4.846   1.764 -0.1759  0.0842 -0.3745
15838TIP3    H269006   3.585   4.856   1.684  0.8510 -0.5436  1.1563
15839TIP3   OH269007   4.448   3.005   4.221  0.0438  0.0830 -0.1017
15839TIP3    H169008   4.376   2.948   4.195 -1.5498  2.1210 -0.2418
15839TIP3    H269009   4.478   3.044   4.139 -0.2785  1.0638  0.2457
15840TIP3   OH269010   1.434   4.016   3.598 -0.1039 -0.0171  0.7061
15840TIP3    H169011   1.500   4.042   3.662  0.3792  1.0963 -0.2251
15840TIP3    H269012   1.452   4.071   3.522 -2.4647  0.7107  0.6491
15841TIP3   OH269013   3.817   0.018   3.805 -0.2436  0.0509  0.4873
15841TIP3    H169014   3.840  -0.065   3.762 -0.5893 -0.5991  1.5420
15841TIP3    H269015   3.725   0.031   3.782 -0.3738 -0.1985  0.8575
15842TIP3   OH269016   5.077   5.504   0.541 -0.0388 -0.4763 -0.5068
15842TIP3    H169017   5.144   5.490   0.608  1.5886  0.6556 -1.8728
15842TIP3    H269018   5.020   5.572   0.578  0.4720 -0.3208 -0.0014
15843TIP3   OH269019   3.128   6.808   5.820  0.0724 -0.2873 -0.4952
15843TIP3    H169020   3.153   6.899   5.828  1.6402 -0.8175  0.9243
15843TIP3    H269021   3.041   6.803   5.861  1.4052 -0.0180  2.5418
15844TIP3   OH269022   6.576   4.103   5.278 -0.1520 -0.4970 -0.7601
15844TIP3    H169023   6.650   4.139   5.328  1.2182 -0.7413 -2.5735
15844TIP3    H269024   6.499   4.144   5.317  0.7924 -1.4259  2.2012
15845TIP3   OH269025   6.197   4.544   5.260  0.0198 -0.1847  0.2304
15845TIP3    H169026   6.132   4.480   5.290  0.4085 -0.5921  0.2088
15845TIP3    H269027   6.250   4.561   5.338  0.6278 -0.7565 -0.0494
15846TIP3   OH269028   5.173   4.233   3.216  0.1906  0.1546  0.5683
15846TIP3    H169029   5.234   4.195   3.154  0.2035  0.8310  0.1615
15846TIP3    H269030   5.117   4.160   3.243  0.4750 -0.2327  0.1122
15847TIP3   OH269031   6.609   2.863   5.504 -0.3571 -0.2928  0.6052
15847TIP3    H169032   6.521   2.899   5.489 -0.3356 -0.3130  0.4382
15847TIP3    H269033   6.659   2.937   5.538 -0.3448 -0.1939  0.3713
15848TIP3   OH269034   3.795   3.623   5.347  0.1124  0.3173  0.3400
15848TIP3    H169035   3.738   3.688   5.307  0.2287  1.0013  1.2563
15848TIP3    H269036   3.878   3.633   5.301 -0.0034  0.5096  0.1679
15849TIP3   OH269037   3.780   5.907   2.691  0.1754 -0.0773 -0.2158
15849TIP3    H169038   3.685   5.914   2.678  0.2856  0.1914 -0.9125
15849TIP3    H269039   3.810   5.998   2.696  0.2962 -0.1669  0.8027
15850TIP3   OH269040   1.936   5.458   6.104  0.0128  0.2672  0.0534
15850TIP3    H169041   1.982   5.483   6.024 -0.4806 -0.5814 -0.4909
15850TIP3    H269042   1.907   5.369   6.089  0.0035  0.0621  1.2214
15851TIP3   OH269043   1.681   2.550   2.871  0.0539  0.0676 -0.2033
15851TIP3    H169044   1.603   2.539   2.817 -0.4535  1.7395  0.1798
15851TIP3    H269045   1.662   2.502   2.951 -0.6984  0.7034  0.0001
15852TIP3   OH269046   0.809   3.009   0.750  0.2230 -0.3231 -0.1725
15852TIP3    H169047   0.872   2.938   0.752  0.2145 -0.3607 -0.9390
15852TIP3    H269048   0.724   2.966   0.741  0.3209 -0.1981 -2.0364
15853TIP3   OH269049   0.782   6.815   3.190  0.2424  0.0751  0.4585
15853TIP3    H169050   0.737   6.900   3.190 -1.1318 -0.6459  0.3021
15853TIP3    H269051   0.740   6.766   3.261 -0.4143 -1.2159 -0.8036
15854TIP3   OH269052   7.065   5.046   0.912 -0.0338 -0.4347 -0.0179
15854TIP3    H169053   7.050   5.008   0.826  3.0186  2.3273 -1.9004
15854TIP3    H269054   7.073   5.140   0.896  0.7394  0.1261  3.2431
15855TIP3   OH269055   1.064   3.011  14.639  0.0053 -0.1273 -0.1507
15855TIP3    H169056   1.104   3.092  14.606 -2.0259  0.7950 -0.4126
15855TIP3    H269057   1.001   3.040  14.704  1.5319 -1.7392  2.1145
15856TIP3   OH269058   4.052   3.559  13.951  0.1372  0.1167 -0.0540
15856TIP3    H169059   4.107   3.512  13.888  0.5947  0.4228  0.1159
15856TIP3    H269060   4.088   3.535  14.037 -0.8925 -0.8172  0.1289
15857TIP3   OH269061   4.191   4.115   4.415 -0.0292 -0.8382  0.5262
15857TIP3    H169062   4.140   4.062   4.354 -1.2349 -0.4538  1.1746
15857TIP3    H269063   4.176   4.205   4.389  1.1681 -0.7600  0.0821
15858TIP3   OH269064   6.220   3.175   1.419 -0.3010  0.1735 -0.0666
15858TIP3    H169065   6.227   3.183   1.324 -1.3453 -0.8670 -0.2532
15858TIP3    H269066   6.269   3.249   1.454  2.3813 -0.9541 -1.3543
15859TIP3   OH269067   1.316   3.639   2.834 -0.4016 -0.0844  0.4073
15859TIP3    H169068   1.289   3.549   2.851  0.4671 -0.1945  1.2663
15859TIP3    H269069   1.400   3.648   2.880 -0.0349  0.8825 -0.4211
15860TIP3   OH269070   4.791   6.014   3.468  0.5733  0.0201 -0.4602
15860TIP3    H169071   4.766   5.994   3.558  1.3230  3.2970  0.5646
15860TIP3    H269072   4.710   6.044   3.427  0.5088 -0.1586 -0.4631
15861TIP3   OH269073   2.818   3.812   5.054 -0.0491 -0.3498  0.1562
15861TIP3    H169074   2.913   3.820   5.061 -0.0159 -2.0716  2.1712
15861TIP3    H269075   2.785   3.902   5.062  1.5489  0.7220 -4.1478
15862TIP3   OH269076   7.169   6.956  13.034 -0.0390  0.6497 -0.1763
15862TIP3    H169077   7.115   6.981  13.110  0.2550 -0.3750  0.3757
15862TIP3    H269078   7.207   6.872  13.058  1.1469  0.9634 -0.9141
15863TIP3   OH269079   2.276   3.993   1.396  0.4045  0.8110 -0.2484
15863TIP3    H169080   2.277   3.925   1.463  0.7596  0.4372 -0.6315
15863TIP3    H269081   2.233   4.068   1.438 -2.4041 -0.5081 -0.7007
15864TIP3   OH269082   1.418   5.853  15.393 -0.2263  0.0465 -0.1142
15864TIP3    H169083   1.332   5.873  15.429 -0.7368 -0.5674 -0.9849
15864TIP3    H269084   1.476   5.852  15.470 -0.3704  3.5120  0.1215
15865TIP3   OH269085   6.003   5.700   4.457 -0.2304  0.3938 -0.4007
15865TIP3    H169086   6.020   5.728   4.367 -1.5338 -0.3429 -0.8914
15865TIP3    H269087   5.964   5.613   4.448  0.8556 -0.2356  0.9473
15866TIP3   OH269088   5.177   0.751   4.711 -0.0979  0.1113 -0.0466
15866TIP3    H169089   5.261   0.755   4.664  1.5225 -1.5717  2.6136
15866TIP3    H269090   5.124   0.692   4.658  1.7985 -1.9732  0.2665
15867TIP3   OH269091   1.551   0.686   3.713 -0.2657  0.1324  0.0853
15867TIP3    H169092   1.480   0.711   3.773  0.5441  0.4534  0.9187
15867TIP3    H269093   1.541   0.745   3.638 -1.3392 -0.3326 -0.1512
15868TIP3   OH269094   5.576   1.913   0.781 -0.0652 -0.3295  0.2552
15868TIP3    H169095   5.583   1.885   0.690  1.0777  0.6574  0.0300
15868TIP3    H269096   5.545   2.003   0.776 -0.3250 -0.3816  0.8617
15869TIP3   OH269097   2.707   6.967   4.280  0.1959  0.3038  0.5480
15869TIP3    H169098   2.709   6.872   4.297 -3.4619  0.0260 -0.2073
15869TIP3    H269099   2.639   7.000   4.338 -0.3405  2.0806 -1.0549
15870TIP3   OH269100   3.116   2.694   2.751  0.6592  0.6200 -0.4643
15870TIP3    H169101   3.067   2.770   2.779  1.0753  0.6765  0.1356
15870TIP3    H269102   3.081   2.672   2.665 -0.9318  0.1979  0.2822
15871TIP3   OH269103   4.687   0.198   5.616 -0.2908  0.6754  0.4772
15871TIP3    H169104   4.656   0.255   5.686 -0.0103 -0.1190  1.2658
15871TIP3    H269105   4.721   0.257   5.549 -0.7807  1.4487  0.9169
15872TIP3   OH269106   3.042   7.156   4.094 -0.0110 -0.1342  0.0429
15872TIP3    H169107   2.994   7.073   4.093 -1.9848  0.9641 -1.4012
15872TIP3    H269108   3.027   7.191   4.182 -0.7518 -0.4514  0.0481
15873TIP3   OH269109   3.598   4.967   5.208  0.0685 -0.0798  0.2169
15873TIP3    H169110   3.543   4.934   5.280  1.6235 -1.8343  0.6295
15873TIP3    H269111   3.631   5.051   5.240 -2.6982  1.2460 -0.2233
15874TIP3   OH269112   2.120   3.996   2.062 -0.0054  1.0463  0.9960
15874TIP3    H169113   2.073   3.921   2.097 -0.1216  1.0155  0.7719
15874TIP3    H269114   2.122   4.059   2.134  1.5618  0.1646  1.7524
15875TIP3   OH269115   3.692   6.354   3.441  0.1756 -0.6679  0.5574
15875TIP3    H169116   3.659   6.292   3.376 -2.2614 -0.1069  1.2204
15875TIP3    H269117   3.724   6.428   3.389  2.5497 -2.1564 -0.2052
15876TIP3   OH269118   6.446   4.056   2.748  0.2270 -0.1986  0.1116
15876TIP3    H169119   6.539   4.068   2.768 -0.0144  1.2824  0.4142
15876TIP3    H269120   6.406   4.037   2.833  0.2602 -0.8632 -0.0227
15877TIP3   OH269121   6.325   2.735  15.472  0.0862  0.5192  0.3064
15877TIP3    H169122   6.376   2.700  15.400 -1.5899 -2.2778  0.4181
15877TIP3    H269123   6.314   2.828  15.450  2.0994  0.3767 -1.4976
15878TIP3   OH269124   6.721   2.886   0.817 -0.2011 -0.4088 -0.2678
15878TIP3    H169125   6.675   2.868   0.899  1.2693  0.2396  0.7155
15878TIP3    H269126   6.700   2.977   0.797 -1.5805 -0.9350 -1.2976
15879TIP3   OH269127   3.648   1.032   2.267 -0.8784  0.3866 -0.4853
15879TIP3    H169128   3.711   0.980   2.318 -2.0815  0.2028  0.8697
15879TIP3    H269129   3.693   1.115   2.250 -0.3901  0.3904  0.7510
15880TIP3   OH269130   3.334   5.241   3.979  0.0088  0.4745 -0.0151
15880TIP3    H169131   3.303   5.260   3.891  2.0924 -0.2155 -0.9499
15880TIP3    H269132   3.293   5.157   4.002  0.4990 -0.0132 -0.8907
15881TIP3   OH269133   5.235   4.131   4.362  0.1544 -0.1201  0.0259
15881TIP3    H169134   5.310   4.185   4.383  0.2808  0.7940 -2.6151
15881TIP3    H269135   5.272   4.052   4.323 -0.1784 -0.5803  0.6294
15882TIP3   OH269136   4.801   3.248   0.559  0.1178 -0.2895 -0.2947
15882TIP3    H169137   4.848   3.309   0.616  1.7052  1.6954 -3.5793
15882TIP3    H269138   4.867   3.218   0.497 -1.8727 -1.3087 -1.9774
15883TIP3   OH269139   5.582   5.640   2.950 -0.3459  0.2173 -0.0641
15883TIP3    H169140   5.666   5.676   2.978 -0.3149 -0.0456  0.1858
15883TIP3    H269141   5.600   5.600   2.865  0.5094 -2.5302  1.3378
15884TIP3   OH269142   4.247   0.960   2.852  0.1129 -0.0036  0.1468
15884TIP3    H169143   4.278   0.876   2.887  0.7937  0.2705  0.2099
15884TIP3    H269144   4.194   0.997   2.923  0.9752  0.2609  0.6657
15885TIP3   OH269145   5.977   0.980   5.539  0.0988  0.3985  0.2242
15885TIP3    H169146   6.033   0.915   5.496 -1.0307  1.1258 -2.4806
15885TIP3    H269147   6.031   1.059   5.542 -0.6969  1.1037 -2.3948
15886TIP3   OH269148   0.029   0.878   2.461  0.0322 -0.9588  0.2107
15886TIP3    H169149  -0.004   0.809   2.404  1.0833  0.7968 -2.6450
15886TIP3    H269150  -0.049   0.918   2.499 -0.9193 -0.0913 -2.5549
15887TIP3   OH269151   3.266   3.248   4.689  0.4139 -0.1756 -0.0736
15887TIP3    H169152   3.204   3.178   4.711  0.1616 -0.3628 -1.3375
15887TIP3    H269153   3.212   3.325   4.673  0.7023  0.3578  1.4482
15888TIP3   OH269154   4.660   5.802   4.793 -0.1316  0.4157 -0.5698
15888TIP3    H169155   4.581   5.797   4.847 -0.3069 -0.8718 -0.9310
15888TIP3    H269156   4.649   5.882   4.742 -0.7612  0.7394  0.0587
15889TIP3   OH269157   4.290   1.521   1.565 -0.0093 -0.1278  0.2566
15889TIP3    H169158   4.200   1.517   1.531  0.4259  1.4468 -1.1641
15889TIP3    H269159   4.326   1.435   1.545 -0.6533 -0.1652 -0.8211
15890TIP3   OH269160   4.073   4.427   4.370 -0.5950 -0.5894 -0.5583
15890TIP3    H169161   4.070   4.516   4.404 -1.0775 -0.8738  0.1494
15890TIP3    H269162   4.055   4.372   4.446  0.8591 -1.3502 -0.7550
15891TIP3   OH269163   5.032   0.958   4.313 -0.5441  0.2017 -0.0794
15891TIP3    H169164   5.122   0.951   4.281 -0.4745 -1.1116  0.3457
15891TIP3    H269165   4.978   0.954   4.235 -0.2691 -0.2191 -0.2502
15892TIP3   OH269166   6.068   7.121   0.647  0.4867 -0.6005  0.3072
15892TIP3    H169167   6.025   7.179   0.710 -0.8689  1.8369 -2.7651
15892TIP3    H269168   5.998   7.062   0.618  0.1731  0.6289 -1.5381
15893TIP3   OH269169   4.624   7.021   4.491  0.4370  0.7322  0.1279
15893TIP3    H169170   4.709   7.025   4.535  0.8407 -0.0541 -0.5589
15893TIP3    H269171   4.564   6.988   4.558  1.1528 -0.9738 -0.0508
15894TIP3   OH269172   5.966   4.733   3.536  0.1865 -0.2728 -0.2918
15894TIP3    H169173   5.989   4.705   3.625  0.2805 -1.1178 -0.5717
15894TIP3    H269174   6.046   4.717   3.485 -0.5586 -1.9564 -0.9986
15895TIP3   OH269175   4.208   6.105  13.012 -0.8381  0.3661  0.0481
15895TIP3    H169176   4.260   6.104  13.092 -0.5641 -1.3830 -0.1110
15895TIP3    H269177   4.133   6.048  13.031  1.1148 -3.0798 -2.0669
15896TIP3   OH269178   3.788   3.998   1.840  0.3169  0.2216 -0.0960
15896TIP3    H169179   3.753   3.955   1.918  0.2882  1.6875  0.7113
15896TIP3    H269180   3.724   3.977   1.771  0.6788 -1.6214  0.0948
15897TIP3   OH269181   1.934   1.569   2.230 -0.0088 -0.0918 -0.9271
15897TIP3    H169182   2.014   1.580   2.282 -0.2510 -1.7517 -0.1623
15897TIP3    H269183   1.943   1.633   2.159  1.7279  0.1499 -0.5342
15898TIP3   OH269184   3.406   4.680   5.162 -0.0182 -0.6709 -0.0512
15898TIP3    H169185   3.434   4.653   5.075 -0.5182 -1.0429 -0.1010
15898TIP3    H269186   3.462   4.632   5.222  0.5274 -0.1863 -0.1696
15899TIP3   OH269187   5.480   4.887   5.597  0.2026 -0.5954 -0.3348
15899TIP3    H169188   5.529   4.840   5.664 -0.3587  1.1961  1.3915
15899TIP3    H269189   5.538   4.891   5.522  3.1999  2.3326  1.9659
15900TIP3   OH269190   2.602   5.882   2.506 -0.7221 -0.3263  0.0322
15900TIP3    H169191   2.544   5.850   2.436  0.3495  1.3818 -1.6940
15900TIP3    H269192   2.595   5.977   2.501  2.5476 -0.0413 -0.5581
15901TIP3   OH269193   0.156   3.573   1.366 -0.1866  0.5255  0.2368
15901TIP3    H169194   0.181   3.571   1.458  1.0385 -0.0041 -0.0988
15901TIP3    H269195   0.068   3.536   1.364 -0.2487  0.6090  1.1971
15902TIP3   OH269196   0.569   3.836   1.931 -0.1268  0.1569 -0.0447
15902TIP3    H169197   0.655   3.861   1.896  0.0187  0.4426  0.5088
15902TIP3    H269198   0.560   3.888   2.011 -1.2330  0.8706 -0.6068
15903TIP3   OH269199   4.534   3.755   4.552 -0.5179  0.0938 -0.4037
15903TIP3    H169200   4.531   3.741   4.647  2.2153  1.4949 -0.0468
15903TIP3    H269201   4.569   3.673   4.517  2.6263  1.0704  0.2969
15904TIP3   OH269202   5.448   2.479  14.664  0.5071 -0.1452 -0.1682
15904TIP3    H169203   5.397   2.560  14.666  1.1096  0.3106 -1.8570
15904TIP3    H269204   5.528   2.503  14.616  0.2364 -1.9723 -1.5819
15905TIP3   OH269205   0.094   6.282   1.188 -0.6738 -0.3233 -0.3182
15905TIP3    H169206   0.176   6.261   1.143  0.0045  0.7857  0.3679
15905TIP3    H269207   0.113   6.265   1.281 -1.4446 -0.7192 -0.2305
15906TIP3   OH269208   6.594   5.862   3.004 -0.4187 -0.1226  0.0992
15906TIP3    H169209   6.663   5.927   3.014  1.3226 -1.6526 -1.5794
15906TIP3    H269210   6.608   5.800   3.076 -0.1070 -0.3768 -0.1812
15907TIP3   OH269211   3.210   6.412   1.328  0.1382  0.3640 -0.6724
15907TIP3    H169212   3.159   6.479   1.283 -1.7703 -0.6970 -0.1417
15907TIP3    H269213   3.182   6.329   1.289 -0.8707 -0.4893  1.7410
15908TIP3   OH269214   1.397   0.254   5.313  0.2857 -0.2696 -0.6027
15908TIP3    H169215   1.402   0.178   5.371 -2.9142 -0.1883 -0.1468
15908TIP3    H269216   1.468   0.240   5.250  3.6842 -0.5390  3.0304
15909TIP3   OH269217   4.336   1.598   2.870  0.2308 -0.5074  0.0988
15909TIP3    H169218   4.241   1.590   2.865  0.2437 -2.7640  2.3830
15909TIP3    H269219   4.368   1.508   2.876  2.3353  0.2979  1.7480
15910TIP3   OH269220   5.280   4.168   0.796 -0.2034  0.0751  0.2031
15910TIP3    H169221   5.244   4.120   0.871  0.1821 -0.3874  0.0951
15910TIP3    H269222   5.353   4.113   0.766  1.1611  1.4295  0.9752
15911TIP3   OH269223   3.229   6.843   2.589  0.2549  0.9745  0.6244
15911TIP3    H169224   3.307   6.809   2.634  0.0063  0.6834  0.8432
15911TIP3    H269225   3.205   6.921   2.639  0.3044  0.9680  0.6588
15912TIP3   OH269226   0.466   2.883   4.698 -0.4492  0.1259  0.2074
15912TIP3    H169227   0.524   2.870   4.622 -0.5252 -0.5640  0.2670
15912TIP3    H269228   0.518   2.855   4.773 -1.3630 -1.8771  0.1079
15913TIP3   OH269229   6.551   6.570  15.544 -0.0458  0.3986 -0.0686
15913TIP3    H169230   6.585   6.636  15.604  1.3742 -0.5205  0.1614
15913TIP3    H269231   6.509   6.505  15.600  0.9865 -0.2908 -0.0879
15914TIP3   OH269232   0.268   6.486   3.437 -0.9294  0.5906 -0.3139
15914TIP3    H169233   0.339   6.500   3.375  0.8223 -2.5146  0.8730
15914TIP3    H269234   0.297   6.531   3.517 -0.3088 -0.5871  0.1373
15915TIP3   OH269235   5.901   0.965  15.501 -0.0463  0.7365 -0.1894
15915TIP3    H169236   5.919   1.058  15.493 -1.8448  1.6272  4.3509
15915TIP3    H269237   5.968   0.933  15.562  0.2895 -0.8995 -1.3597
15916TIP3   OH269238   5.007   6.432   3.011  0.2173  0.6098 -0.7885
15916TIP3    H169239   4.953   6.478   3.076  0.3403  1.3085 -1.1717
15916TIP3    H269240   5.007   6.341   3.039 -0.3331  0.7860 -0.2168
15917TIP3   OH269241   5.631   4.332   0.455  0.2849  0.1189  0.1117
15917TIP3    H169242   5.577   4.361   0.529  0.1064 -1.9934  0.8557
15917TIP3    H269243   5.643   4.238   0.470  0.2546 -0.3562 -2.5548
15918TIP3   OH269244   0.246   0.308   1.131  0.3077 -0.0300  0.3960
15918TIP3    H169245   0.337   0.315   1.162  0.0436  0.6001  1.0290
15918TIP3    H269246   0.199   0.269   1.204  0.1273 -0.6839 -0.0632
15919TIP3   OH269247   0.232   6.742   5.769 -0.4136  0.6229  0.4361
15919TIP3    H169248   0.285   6.762   5.846 -0.3354 -1.4056  0.9450
15919TIP3    H269249   0.191   6.658   5.790  0.2424 -0.3491 -2.0442
15920TIP3   OH269250   4.695   0.102   2.196  0.1931  0.5754 -0.2478
15920TIP3    H169251   4.635   0.104   2.121  1.6198  1.3932 -1.4087
15920TIP3    H269252   4.702   0.010   2.219  0.5728  0.1869 -1.8366
15921TIP3   OH269253   6.047   1.845   0.675 -0.1366 -0.4186 -0.4274
15921TIP3    H169254   6.123   1.816   0.624  1.1679 -0.7038  1.6504
15921TIP3    H269255   6.072   1.933   0.706 -0.3180 -0.8426  0.9344
15922TIP3   OH269256   1.150   3.469   2.332  0.3309 -0.3912 -0.0389
15922TIP3    H169257   1.095   3.425   2.267 -0.2962  0.6834 -0.2466
15922TIP3    H269258   1.135   3.420   2.413 -0.6260 -0.3419 -0.1843
15923TIP3   OH269259   6.675   6.295   3.404 -0.0675 -0.1012  0.3715
15923TIP3    H169260   6.621   6.268   3.330 -0.9732  0.3975  0.8450
15923TIP3    H269261   6.753   6.240   3.398 -1.2141 -1.7601  0.4448
15924TIP3   OH269262   0.320   0.691   1.224 -0.0005  0.8622 -0.0233
15924TIP3    H169263   0.260   0.668   1.296  0.8061  1.2275  0.7815
15924TIP3    H269264   0.343   0.782   1.241  1.2799  0.5334  0.0425
15925TIP3   OH269265   4.370   4.549   5.551  0.1773 -0.2073  0.3129
15925TIP3    H169266   4.380   4.513   5.463 -0.3889  1.7968 -0.5974
15925TIP3    H269267   4.323   4.481   5.600 -3.0184  0.2207 -2.0152
15926TIP3   OH269268   0.396   5.687   2.139  0.1480 -0.2639 -0.1226
15926TIP3    H169269   0.390   5.660   2.047  1.8608 -1.4496  0.0958
15926TIP3    H269270   0.483   5.726   2.147 -0.4553  0.9626  0.7371
15927TIP3   OH269271   6.319   2.077   3.468  0.2022 -0.5750  0.0188
15927TIP3    H169272   6.263   2.154   3.474 -0.4916 -1.1110  0.6581
15927TIP3    H269273   6.356   2.067   3.556  2.3410  0.5286 -0.7437
15928TIP3   OH269274   5.601   5.674   1.212 -0.2248  0.4253 -0.1328
15928TIP3    H169275   5.611   5.659   1.118  1.6460 -3.6321  0.5937
15928TIP3    H269276   5.688   5.659   1.248 -0.8731  2.0770  2.2431
15929TIP3   OH269277   6.771   4.689   0.202 -0.0135 -0.1930  0.1117
15929TIP3    H169278   6.677   4.704   0.204 -0.0361 -0.4302  0.7995
15929TIP3    H269279   6.790   4.664   0.111 -0.4200  1.0847 -0.3448
15930TIP3   OH269280   2.986   7.084   2.178 -0.3210  0.0692 -0.0063
15930TIP3    H169281   2.907   7.070   2.231  0.1307 -2.3403  0.1044
15930TIP3    H269282   3.054   7.034   2.222  0.9054  0.8757 -0.9526
15931TIP3   OH269283   6.224   6.742   4.113  0.6206  0.1941  0.0808
15931TIP3    H169284   6.189   6.772   4.030 -0.1484 -1.3291 -0.1628
15931TIP3    H269285   6.225   6.820   4.169  0.3332  1.0309 -1.0739
15932TIP3   OH269286   6.670   2.585   1.473 -0.3440  0.2694 -0.1768
15932TIP3    H169287   6.582   2.549   1.470  0.0306 -0.8764  1.6942
15932TIP3    H269288   6.720   2.532   1.411 -1.0660  1.2035 -1.5583
15933TIP3   OH269289   1.359   2.142   3.118  0.2201  0.1187 -0.0856
15933TIP3    H169290   1.352   2.233   3.148 -1.2979  0.0638 -0.2174
15933TIP3    H269291   1.448   2.115   3.142  0.0244  1.0134  1.7230
15934TIP3   OH269292   1.454   0.555   0.246 -0.0902  0.1427 -0.1157
15934TIP3    H169293   1.423   0.620   0.309  1.0240 -0.1265  0.7488
15934TIP3    H269294   1.508   0.495   0.299  0.3026 -0.4890 -1.2068
15935TIP3   OH269295   2.251   5.849   2.261 -0.3400 -0.3217 -0.1466
15935TIP3    H169296   2.248   5.789   2.187 -1.6554 -1.2365  0.6306
15935TIP3    H269297   2.271   5.934   2.222 -3.1408 -0.3709 -1.8421
15936TIP3   OH269298   2.046   4.524   3.166 -0.1861  0.4428  0.1370
15936TIP3    H169299   2.113   4.455   3.159 -0.6123  0.1919 -2.0826
15936TIP3    H269300   1.995   4.500   3.243  1.3904 -0.1598  1.0256
15937TIP3   OH269301   2.809   4.913   4.364  0.4226  0.7258  0.2863
15937TIP3    H169302   2.744   4.946   4.303  1.3856 -0.8223 -1.6420
15937TIP3    H269303   2.766   4.840   4.409 -0.5740  2.4031  2.1252
15938TIP3   OH269304   0.429   0.722   2.180 -0.3068  0.0793  0.3816
15938TIP3    H169305   0.371   0.693   2.110  0.8805 -0.1102 -0.5271
15938TIP3    H269306   0.399   0.810   2.200 -0.9379 -0.0299 -0.0585
15939TIP3   OH269307   4.800   4.898   2.124  0.0657 -0.0067 -0.1441
15939TIP3    H169308   4.807   4.940   2.037  0.1671 -1.1099 -0.6738
15939TIP3    H269309   4.729   4.835   2.115 -0.2918  0.2683  0.7461
15940TIP3   OH269310   1.188   0.283  14.100 -0.2809  0.1647 -0.2937
15940TIP3    H169311   1.184   0.372  14.067  1.0031 -0.4765 -2.2996
15940TIP3    H269312   1.281   0.263  14.105 -0.5490 -1.2292 -0.3929
15941TIP3   OH269313   5.833   3.707   3.424  0.1292 -0.0132 -0.0784
15941TIP3    H169314   5.848   3.703   3.518  0.5548  1.0700 -0.0934
15941TIP3    H269315   5.864   3.794   3.398  0.6423 -0.5453 -1.3210
15942TIP3   OH269316   5.398   0.478   1.398  0.2621 -0.1026  0.2362
15942TIP3    H169317   5.443   0.557   1.369  0.5021  0.2289  1.4846
15942TIP3    H269318   5.305   0.500   1.392  0.2044 -0.8332 -2.4682
15943TIP3   OH269319   3.933   1.413   1.169  0.0422 -0.4118 -0.2178
15943TIP3    H169320   3.937   1.341   1.231 -1.2048 -0.5377 -0.2801
15943TIP3    H269321   3.843   1.413   1.137  0.7439 -0.5836 -2.2882
15944TIP3   OH269322   5.293   6.039   4.104 -0.2171  0.1124 -0.1580
15944TIP3    H169323   5.361   5.996   4.051 -0.1809  0.4143 -0.3601
15944TIP3    H269324   5.312   6.132   4.094 -0.7406  0.2006 -0.3136
15945TIP3   OH269325   4.206   5.390   2.077 -0.3743  0.2023 -0.6740
15945TIP3    H169326   4.217   5.466   2.134 -0.8297  0.4132 -0.8655
15945TIP3    H269327   4.247   5.318   2.125 -3.1593 -0.2213  1.1784
15946TIP3   OH269328   1.660   3.766  13.569  0.4633  0.0902  0.3147
15946TIP3    H169329   1.620   3.853  13.573 -1.6545 -0.8564 -0.1526
15946TIP3    H269330   1.651   3.731  13.657  2.1974  0.6944  0.7637
15947TIP3   OH269331   6.981   5.557   0.475 -0.2031  0.0390  0.0485
15947TIP3    H169332   6.968   5.485   0.414  0.5320 -0.8600  0.9327
15947TIP3    H269333   6.893   5.580   0.505 -0.3900 -0.9165  0.2393
15948TIP3   OH269334   0.896   3.850   1.853 -0.2867  0.4808  0.1746
15948TIP3    H169335   0.867   3.874   1.941  0.7400  0.4393  0.5370
15948TIP3    H269336   0.970   3.909   1.835  1.7787 -1.8464  0.7562
15949TIP3   OH269337   3.286   3.477   0.523  0.4511 -0.1466 -0.3879
15949TIP3    H169338   3.280   3.453   0.430 -0.4102 -0.3507 -0.2810
15949TIP3    H269339   3.364   3.532   0.528 -0.6521  1.5540 -1.5853
15950TIP3   OH269340   5.958   4.098  14.720 -0.3269 -0.0232  0.2500
15950TIP3    H169341   6.024   4.144  14.668  0.1134 -0.6775  0.2140
15950TIP3    H269342   5.906   4.168  14.760 -1.0458  0.4693 -1.5399
15951TIP3   OH269343   5.493   1.925  14.978 -0.2974  0.0889 -0.2129
15951TIP3    H169344   5.520   1.957  15.064 -0.4882 -0.6739  0.1360
15951TIP3    H269345   5.558   1.860  14.954 -1.3408 -1.1592  0.2635
15952TIP3   OH269346   4.464   4.121   4.197  0.0004 -0.0756 -0.3402
15952TIP3    H169347   4.470   4.197   4.140 -0.6379  0.2299 -0.0042
15952TIP3    H269348   4.389   4.139   4.253 -1.8468 -2.1935 -2.0709
15953TIP3   OH269349   0.636   6.184  14.653 -0.3921  0.3855 -0.0832
15953TIP3    H169350   0.604   6.100  14.620  3.1565 -1.2594  0.4495
15953TIP3    H269351   0.698   6.215  14.587  2.2950 -0.0466  2.1185
15954TIP3   OH269352   3.479   0.123   3.371  0.0899 -0.3130 -0.1908
15954TIP3    H169353   3.550   0.185   3.359  1.1184 -1.7498 -1.6364
15954TIP3    H269354   3.411   0.152   3.311  0.6232 -0.6546 -0.9638
15955TIP3   OH269355   5.777   6.319   2.949 -0.0138 -0.6140 -0.0789
15955TIP3    H169356   5.727   6.395   2.917  3.8537  2.2480  0.4211
15955TIP3    H269357   5.733   6.295   3.030 -1.9511  0.3667 -0.7781
15956TIP3   OH269358   0.816   1.315   0.046 -0.2194  0.6171  0.0759
15956TIP3    H169359   0.907   1.288   0.054 -0.6253 -0.3966  1.4218
15956TIP3    H269360   0.819   1.410   0.041  0.9929  0.5338 -1.1935
15957TIP3   OH269361   2.738   6.012   1.375  0.0505 -0.4152  0.5388
15957TIP3    H169362   2.646   5.988   1.367  0.3934 -1.7538  0.5487
15957TIP3    H269363   2.783   5.959   1.309  0.7920  0.3701  0.4012
15958TIP3   OH269364   4.750   0.487   0.470 -0.2026 -0.0742 -0.4961
15958TIP3    H169365   4.655   0.482   0.463 -0.3499  1.3824  0.1382
15958TIP3    H269366   4.768   0.470   0.563  0.2164 -1.0322 -0.7472
15959TIP3   OH269367   0.759   3.997   2.448  0.2687  0.3439  0.0522
15959TIP3    H169368   0.676   3.972   2.489  0.1772 -0.7174 -0.7480
15959TIP3    H269369   0.825   3.945   2.494  0.5861  1.7500  1.1979
15960TIP3   OH269370   1.849   0.402   4.590  0.5879  0.0865  0.2867
15960TIP3    H169371   1.816   0.487   4.562  0.8565 -0.2643 -1.1291
15960TIP3    H269372   1.860   0.410   4.685  0.6382  1.6316  0.1583
15961TIP3   OH269373   2.976   6.346  15.263 -0.5578  0.7088  0.1222
15961TIP3    H169374   2.898   6.344  15.207 -0.6705 -0.3162  0.2979
15961TIP3    H269375   3.004   6.437  15.262  0.2514  0.4755 -2.7100
15962TIP3   OH269376   2.972   5.755   0.955 -0.1483 -0.1897  0.7083
15962TIP3    H169377   3.010   5.792   0.876 -1.1616  0.8770  0.7132
15962TIP3    H269378   2.969   5.660   0.938 -0.7427  0.0737 -0.6736
15963TIP3   OH269379   6.795   3.565   4.911 -0.0364  0.1843  0.0707
15963TIP3    H169380   6.846   3.518   4.846  0.1761 -0.4165  0.6563
15963TIP3    H269381   6.724   3.605   4.862  1.8762  2.3630 -0.9979
15964TIP3   OH269382   5.872   2.318   5.058  0.1944 -0.0706 -0.5273
15964TIP3    H169383   5.886   2.309   4.964 -0.8622 -1.6501 -0.5402
15964TIP3    H269384   5.951   2.282   5.098 -0.6065 -2.1734 -0.7656
15965TIP3   OH269385   6.902   4.403  14.815  0.5794  0.0022  0.1568
15965TIP3    H169386   6.937   4.434  14.731  3.7144 -0.5460  1.1626
15965TIP3    H269387   6.933   4.467  14.879  0.6532 -1.0799  1.2344
15966TIP3   OH269388   4.038   5.234   3.786  0.2536  0.4239  0.0524
15966TIP3    H169389   3.952   5.259   3.819 -0.3004  1.1201 -1.8598
15966TIP3    H269390   4.078   5.185   3.858 -1.9365 -0.3601  0.7860
15967TIP3   OH269391   6.286   2.066  14.805  0.5845 -0.2513  0.1221
15967TIP3    H169392   6.221   2.105  14.863  0.6973  0.1645 -0.0250
15967TIP3    H269393   6.355   2.036  14.863  0.8437  0.4465  0.1822
15968TIP3   OH269394   0.696   4.943   1.357 -0.6334 -0.2462 -0.4297
15968TIP3    H169395   0.699   4.858   1.400 -1.3481 -0.2422 -0.3731
15968TIP3    H269396   0.603   4.962   1.347 -0.4740 -0.3398 -2.1558
15969TIP3   OH269397   4.239   2.260  14.887  0.5150  0.5767 -0.4082
15969TIP3    H169398   4.203   2.189  14.940 -0.3518  0.7065 -0.8085
15969TIP3    H269399   4.334   2.248  14.891  0.4203  0.1699  0.5842
15970TIP3   OH269400   2.473   0.567   3.851 -0.1476 -0.5108 -0.5666
15970TIP3    H169401   2.437   0.648   3.816  0.8201  0.0225 -0.3543
15970TIP3    H269402   2.417   0.546   3.926 -0.0009  0.3286 -0.2175
15971TIP3   OH269403   4.584   2.862   5.223  0.3028 -0.1305  0.2236
15971TIP3    H169404   4.599   2.901   5.137  2.7313 -0.7091  0.3450
15971TIP3    H269405   4.557   2.772   5.205 -2.4792  0.7044  0.0177
15972TIP3   OH269406   2.904   4.059   4.200  0.3835 -0.2407 -0.7385
15972TIP3    H169407   2.827   4.016   4.237 -0.0268  0.2231 -1.0536
15972TIP3    H269408   2.888   4.061   4.106  1.5073 -1.5823 -0.9871
15973TIP3   OH269409   3.573   1.902   2.950 -0.9167 -0.6697 -0.2102
15973TIP3    H169410   3.556   1.840   3.021  0.7201 -2.7474 -1.5568
15973TIP3    H269411   3.646   1.955   2.981 -0.6119 -1.1525 -0.1024
15974TIP3   OH269412   2.197   2.520   1.843  0.5285  0.3066 -0.0806
15974TIP3    H169413   2.145   2.445   1.875 -0.6192  0.2439 -1.9726
15974TIP3    H269414   2.140   2.596   1.857 -0.0412  0.2666 -1.9535
15975TIP3   OH269415   6.942   2.605   3.237 -1.0555  0.9485  0.1209
15975TIP3    H169416   6.931   2.562   3.322 -2.0764  1.9703  0.5159
15975TIP3    H269417   6.882   2.559   3.178 -0.4665  0.3475 -0.0209
15976TIP3   OH269418   6.830   3.328  15.239  0.3922  0.1170  0.1814
15976TIP3    H169419   6.854   3.316  15.331 -0.2973 -2.5149  0.0538
15976TIP3    H269420   6.735   3.336  15.239  0.4691  1.1000 -0.2172
15977TIP3   OH269421   2.074   1.914   3.979 -0.1203  0.1524 -0.4170
15977TIP3    H169422   2.151   1.904   4.037  0.4335  2.1007 -0.7974
15977TIP3    H269423   2.020   1.838   3.999  1.8315 -1.1764 -0.0069
15978TIP3   OH269424   0.059   5.679   2.084  0.0706 -0.2206 -0.1223
15978TIP3    H169425   0.033   5.613   2.020 -0.3547 -0.3719  0.2017
15978TIP3    H269426   0.147   5.652   2.112 -0.6502 -1.4574  1.0472
15979TIP3   OH269427   1.213   1.355   2.832 -0.2984 -0.7139  0.4799
15979TIP3    H169428   1.137   1.413   2.837  0.1820  0.0874 -1.2005
15979TIP3    H269429   1.193   1.283   2.892 -1.6242  0.3587  1.3346
15980TIP3   OH269430   3.421   2.240   2.586 -0.0645  0.7846 -0.2257
15980TIP3    H169431   3.384   2.152   2.580 -0.4856  0.9475 -0.0286
15980TIP3    H269432   3.386   2.275   2.668 -1.6744  1.9643 -1.3831
15981TIP3   OH269433   3.455   6.016   4.280 -0.2370 -0.4835 -0.1391
15981TIP3    H169434   3.489   6.038   4.366  1.9750 -1.7537 -0.6416
15981TIP3    H269435   3.420   5.928   4.289 -1.5939  0.0521 -0.1212
15982TIP3   OH269436   7.134   4.136   1.726 -0.0384 -0.7901 -0.4298
15982TIP3    H169437   7.134   4.191   1.648 -0.9552  1.3398  1.0280
15982TIP3    H269438   7.041   4.130   1.751  0.2369 -1.5084  0.4450
15983TIP3   OH269439   4.877   2.159  15.209 -0.3501  0.0337  0.2425
15983TIP3    H169440   4.817   2.130  15.277 -0.2644  1.0666  0.7785
15983TIP3    H269441   4.964   2.154  15.250 -0.5207  3.1719  1.1660
15984TIP3   OH269442   1.416   1.995  15.296 -0.0783 -0.1453  0.2397
15984TIP3    H169443   1.363   2.068  15.265 -1.8884 -1.2425  0.6390
15984TIP3    H269444   1.356   1.920  15.295  1.2078 -1.2277  1.6371
15985TIP3   OH269445   4.459   2.786   4.727  0.0449 -0.0688 -0.2969
15985TIP3    H169446   4.537   2.744   4.691 -0.3331 -0.5616 -0.5397
15985TIP3    H269447   4.393   2.778   4.658  0.7542  3.3537 -1.5105
15986TIP3   OH269448   3.239   2.499   3.333  0.2176 -0.5694  0.0044
15986TIP3    H169449   3.176   2.496   3.405 -0.2050 -0.0675 -0.3397
15986TIP3    H269450   3.190   2.536   3.259  1.5755  2.1540  0.4159
15987TIP3   OH269451   3.449   3.965   0.895 -0.2951  0.6133 -0.2666
15987TIP3    H169452   3.516   4.034   0.890  0.0288  0.2495 -0.9385
15987TIP3    H269453   3.400   3.972   0.813 -0.3146  0.0995 -0.2990
15988TIP3   OH269454   3.347   2.178   1.279 -0.1538 -0.1626  0.2040
15988TIP3    H169455   3.317   2.171   1.188  0.2442 -1.8515  0.1784
15988TIP3    H269456   3.306   2.104   1.323 -3.2178  2.6229  2.2663
15989TIP3   OH269457   0.506   0.303  15.339 -0.0696 -0.1701 -0.7572
15989TIP3    H169458   0.581   0.261  15.296  1.7098  1.3921  0.7676
15989TIP3    H269459   0.501   0.261  15.424 -2.4387 -1.9356 -1.7131
15990TIP3   OH269460   5.012   2.809   1.581  0.5924  0.5038  0.0564
15990TIP3    H169461   4.961   2.853   1.512  0.3599  1.0471  0.5726
15990TIP3    H269462   5.074   2.755   1.533  0.5254  0.9863 -0.5924
15991TIP3   OH269463   6.322   3.583   3.913 -0.3763  0.0962 -0.5121
15991TIP3    H169464   6.275   3.570   3.831 -0.9929 -1.0742  0.0149
15991TIP3    H269465   6.279   3.525   3.975  1.3265 -0.4710  0.1671
15992TIP3   OH269466   0.076   2.983   2.210  0.5867 -0.3017  0.2140
15992TIP3    H169467   0.111   2.923   2.144  0.8351 -0.4774  0.5084
15992TIP3    H269468   0.002   3.025   2.166  0.9674 -0.1625 -0.2950
15993TIP3   OH269469   6.309   5.964  13.022 -0.0611 -0.5699  0.3018
15993TIP3    H169470   6.241   5.903  12.994  0.3778 -1.4674  1.1895
15993TIP3    H269471   6.371   5.911  13.072  2.2124 -0.1189 -1.9308
15994TIP3   OH269472   5.038   0.717   4.444  0.1184  0.1092  0.3309
15994TIP3    H169473   5.018   0.782   4.378 -0.8163  0.0559  0.5549
15994TIP3    H269474   4.968   0.725   4.508  1.4170  0.6894  1.7205
15995TIP3   OH269475   4.963   2.395   3.333  0.0115 -0.3571  0.2471
15995TIP3    H169476   5.039   2.375   3.279 -1.3711  1.3308 -2.4236
15995TIP3    H269477   4.999   2.422   3.418  2.2900 -1.2077 -0.4348
15996TIP3   OH269478   0.672   5.506   1.910  0.1205  0.0946  0.0950
15996TIP3    H169479   0.626   5.553   1.840 -0.2071 -1.7069 -0.9368
15996TIP3    H269480   0.761   5.495   1.877  0.5675  1.1441  0.9108
15997TIP3   OH269481   0.661   6.089  14.922  0.2331 -0.4147 -0.3777
15997TIP3    H169482   0.652   6.152  14.850  3.7786 -0.3305 -0.7961
15997TIP3    H269483   0.609   6.127  14.993 -0.4523  1.2678 -1.7351
15998TIP3   OH269484   6.334   3.868   1.198  0.0407  0.8579  0.5618
15998TIP3    H169485   6.418   3.854   1.242 -1.0944 -0.1176  2.4767
15998TIP3    H269486   6.352   3.937   1.134  2.7970 -0.7699 -0.5121
15999TIP3   OH269487   4.508   2.733  14.095  0.0201  0.1109 -0.6374
15999TIP3    H169488   4.423   2.757  14.057  0.6287 -1.3903 -3.0099
15999TIP3    H269489   4.487   2.669  14.162 -0.8984  1.3308  0.2658
16000TIP3   OH269490   3.587   4.754   2.286 -0.2432  0.0767 -0.2952
16000TIP3    H169491   3.558   4.786   2.201  0.9805 -3.1095 -2.0035
16000TIP3    H269492   3.510   4.708   2.321 -0.1172 -0.4267 -0.6646
16001TIP3   OH269493   0.854   2.075   2.110  0.1454  0.1541  0.7846
16001TIP3    H169494   0.881   2.159   2.148  0.8771  0.4269 -0.3111
16001TIP3    H269495   0.909   2.065   2.033  0.7119 -1.7873  1.4216
16002TIP3   OH269496   6.425   6.692   5.361  0.1456 -0.4542  0.1700
16002TIP3    H169497   6.392   6.602   5.358  2.0981 -1.2350  1.0017
16002TIP3    H269498   6.484   6.693   5.436 -1.7356  2.2294  1.6755
16003TIP3   OH269499   6.528   4.427   5.123  0.1784  0.4686 -0.0754
16003TIP3    H169500   6.450   4.385   5.087 -1.2063  3.5068 -0.7776
16003TIP3    H269501   6.559   4.484   5.053  0.8572  2.0970  1.5202
16004TIP3   OH269502   7.076   3.147  13.260 -1.0245  0.8373  0.1207
16004TIP3    H169503   7.110   3.062  13.287 -2.0200  0.0563 -1.0086
16004TIP3    H269504   7.020   3.128  13.185 -0.3512  2.6303 -0.8913
16005TIP3   OH269505   6.790   2.062   0.298  0.3700  0.2820 -0.2103
16005TIP3    H169506   6.830   1.982   0.331 -0.6879  0.2909  1.1860
16005TIP3    H269507   6.696   2.050   0.315  0.2612  2.0420  0.5717
16006TIP3   OH269508   4.349   1.414   4.180  0.3638  0.2154 -0.1108
16006TIP3    H169509   4.427   1.470   4.170  1.8799 -1.8912 -0.2634
16006TIP3    H269510   4.293   1.438   4.106  1.2126  1.1660 -0.4576
16007TIP3   OH269511   4.545   3.134   0.371  0.3156 -0.1005  0.1358
16007TIP3    H169512   4.612   3.202   0.372  1.0007 -0.7756  1.8016
16007TIP3    H269513   4.588   3.058   0.410 -1.1124 -0.8352  0.2854
16008TIP3   OH269514   1.054   3.184   3.954  0.3301 -0.1133 -0.2794
16008TIP3    H169515   0.993   3.252   3.925 -0.7494 -1.0650 -0.2956
16008TIP3    H269516   1.042   3.113   3.892 -0.0723 -1.1260  0.9186
16009TIP3   OH269517   5.171   3.253   3.741  0.8923 -0.0979 -0.3630
16009TIP3    H169518   5.258   3.224   3.769  0.8665  0.8239  0.6814
16009TIP3    H269519   5.187   3.303   3.661  1.8397  3.6125  2.0218
16010TIP3   OH269520   3.710   4.049   4.988 -0.2514 -0.5577 -1.0511
16010TIP3    H169521   3.667   4.126   4.952 -1.0656 -0.1266  0.7867
16010TIP3    H269522   3.782   4.083   5.042 -1.7077 -0.9474  1.2200
16011TIP3   OH269523   6.837   5.234  15.467  0.1575  0.6207 -0.5296
16011TIP3    H169524   6.749   5.248  15.431 -0.8924  1.4607  2.2887
16011TIP3    H269525   6.828   5.156  15.522  1.2209  0.6557 -0.3133
16012TIP3   OH269526   2.078   6.113   0.120  0.2291 -0.1669  0.2187
16012TIP3    H169527   2.020   6.052   0.166 -2.8124  2.1274 -0.4655
16012TIP3    H269528   2.053   6.105   0.028  0.7902  1.0446 -0.0445
16013TIP3   OH269529   2.385   4.250  15.521 -0.4100  0.1883  0.2662
16013TIP3    H169530   2.411   4.219  15.607 -2.0204 -1.2284  0.2898
16013TIP3    H269531   2.463   4.240  15.466  0.1614 -0.3943  1.1846
16014TIP3   OH269532   5.120   6.071   0.974  0.3557 -0.1924  0.1553
16014TIP3    H169533   5.093   5.991   1.019 -0.2686  1.5636  3.0395
16014TIP3    H269534   5.206   6.091   1.009  0.3405  0.6142 -0.2528
16015TIP3   OH269535   2.897   5.726   0.209 -0.4181  0.0178 -0.1633
16015TIP3    H169536   2.823   5.669   0.228 -1.2119  0.4218 -2.0174
16015TIP3    H269537   2.861   5.797   0.156  1.5701 -0.6133 -2.4635
16016TIP3   OH269538   3.374   2.940   3.274 -0.1161 -0.2818 -0.0022
16016TIP3    H169539   3.336   2.942   3.186  0.3558 -0.2039 -0.2062
16016TIP3    H269540   3.393   2.847   3.289 -1.1696 -0.4244  0.4376
16017TIP3   OH269541   4.970   0.926   1.606 -0.0520  0.2765  0.4332
16017TIP3    H169542   4.922   0.922   1.523 -0.2739  0.8365  0.5339
16017TIP3    H269543   5.048   0.873   1.591 -0.1111  0.3430 -0.1174
16018TIP3   OH269544   0.900   3.680   2.321 -0.4637  0.0699 -0.2490
16018TIP3    H169545   0.895   3.721   2.408 -0.4683 -1.3853  0.4472
16018TIP3    H269546   0.948   3.599   2.335  1.0623  0.6508 -1.9514
16019TIP3   OH269547   2.096   0.800  14.103 -0.5471  0.1889 -0.1511
16019TIP3    H169548   2.129   0.863  14.038  1.4814 -0.3242  0.3425
16019TIP3    H269549   2.023   0.846  14.145 -0.5803  1.3183 -1.3922
16020TIP3   OH269550   0.571   5.540   1.637  0.0509 -0.3607  0.2216
16020TIP3    H169551   0.655   5.577   1.609  0.4966 -1.4163  0.1303
16020TIP3    H269552   0.526   5.518   1.555 -0.8096  1.2321  0.2342
16021TIP3   OH269553   3.370   3.291   4.972  0.4169 -0.3372  0.0397
16021TIP3    H169554   3.293   3.331   5.012 -0.4221 -2.3556  0.5324
16021TIP3    H269555   3.348   3.283   4.879  0.0624 -0.7877  0.1574
16022TIP3   OH269556   3.882   6.248   4.394  0.2301  0.0521  0.0175
16022TIP3    H169557   3.834   6.191   4.334 -0.1730  0.6095 -0.1975
16022TIP3    H269558   3.952   6.193   4.430 -0.2331 -0.6104 -0.0889
16023TIP3   OH269559   6.541   5.624   2.315 -0.4057  0.6319 -0.1652
16023TIP3    H169560   6.540   5.675   2.233  1.3250  0.6746 -0.1701
16023TIP3    H269561   6.622   5.575   2.312 -0.3969  0.5124  1.4750
16024TIP3   OH269562   4.930   3.243   0.231  0.4099  0.2345 -0.1963
16024TIP3    H169563   4.980   3.204   0.303 -1.8344 -2.0755  0.1858
16024TIP3    H269564   4.893   3.323   0.269 -0.3492 -0.6993  1.0825
16025TIP3   OH269565   3.937   6.010   3.717 -0.0784  0.7917  0.6209
16025TIP3    H169566   4.018   6.061   3.707 -1.0599  2.5953  1.6637
16025TIP3    H269567   3.952   5.932   3.664  2.2005  1.2760  0.4803
16026TIP3   OH269568   5.113   2.995   1.312  0.2286 -0.3048 -0.0972
16026TIP3    H169569   5.107   2.906   1.278  1.6209 -0.5205  0.2177
16026TIP3    H269570   5.154   2.985   1.398 -2.2932  0.3403  1.2353
16027TIP3   OH269571   0.737   3.062   3.019 -0.3734 -0.2763  0.0923
16027TIP3    H169572   0.765   2.999   2.953 -1.3721 -0.0092 -0.5949
16027TIP3    H269573   0.765   3.147   2.985 -0.0615 -0.2299  0.4619
16028TIP3   OH269574   0.776   2.803  13.860 -0.0499 -0.1951 -0.7140
16028TIP3    H169575   0.755   2.885  13.815 -0.0916  0.0524 -0.2507
16028TIP3    H269576   0.790   2.829  13.951  2.0107 -0.3961 -0.9503
16029TIP3   OH269577   0.776   6.329  15.428  0.7954 -0.0827  0.6950
16029TIP3    H169578   0.827   6.298  15.503  0.0488  0.7192  1.5273
16029TIP3    H269579   0.690   6.290  15.439 -0.0150  1.8998  1.4987
16030TIP3   OH269580   2.606   5.603   0.981  0.5167  0.0204  0.7010
16030TIP3    H169581   2.662   5.626   1.056  1.3943 -2.5977  0.8992
16030TIP3    H269582   2.541   5.543   1.017  0.6618 -0.8916 -0.5416
16031TIP3   OH269583   1.148   1.503   1.479  0.6051 -0.4307 -0.0909
16031TIP3    H169584   1.111   1.518   1.391  0.6184  2.5374  0.3599
16031TIP3    H269585   1.175   1.590   1.508  0.3773 -1.3444  2.9695
16032TIP3   OH269586   6.893   2.813   5.401 -0.0176 -0.0383 -0.1278
16032TIP3    H169587   6.835   2.800   5.326 -1.3608  0.1527  0.8804
16032TIP3    H269588   6.853   2.883   5.451 -0.8232 -2.2783  2.4664
16033TIP3   OH269589   5.009   4.379   1.952  0.3178  0.5334 -0.2844
16033TIP3    H169590   4.999   4.321   2.027 -3.6231  1.0499 -0.3002
16033TIP3    H269591   5.041   4.462   1.989 -0.7690  0.5212  0.6860
16034TIP3   OH269592   7.066   1.631   2.040 -0.5008  0.1220 -0.3055
16034TIP3    H169593   7.024   1.615   1.955 -2.0078  1.3570  0.1818
16034TIP3    H269594   7.160   1.631   2.021 -0.7027 -2.4798 -1.4582
16035TIP3   OH269595   6.898   5.024   4.239  0.7474 -0.1078  0.0974
16035TIP3    H169596   6.920   5.004   4.147 -0.2610 -2.5732  0.3568
16035TIP3    H269597   6.938   5.110   4.254  1.2403  0.1959 -2.5419
16036TIP3   OH269598   7.176   3.291  12.683  0.0759  0.1599 -0.3103
16036TIP3    H169599   7.143   3.315  12.770 -1.1602  2.5075 -1.3879
16036TIP3    H269600   7.270   3.311  12.688  0.1467 -0.3551  0.6805
16037TIP3   OH269601   5.660   3.360   3.773 -0.0583  0.2071 -0.2539
16037TIP3    H169602   5.741   3.309   3.775 -0.5937 -0.6990 -1.3856
16037TIP3    H269603   5.689   3.451   3.765  0.8648 -0.0241  0.3396
16038TIP3   OH269604   1.909   2.534   1.665  0.4024 -0.0443  0.2664
16038TIP3    H169605   1.837   2.552   1.725 -1.1178 -0.5283 -1.3876
16038TIP3    H269606   1.980   2.505   1.722 -0.9741 -0.4029  1.8475
16039TIP3   OH269607   1.255   0.435  15.111  0.3244 -0.2290 -0.0583
16039TIP3    H169608   1.217   0.463  15.194  3.1869 -1.4224  1.7400
16039TIP3    H269609   1.188   0.379  15.072 -1.9677  2.1148  0.3317
16040TIP3   OH269610   6.901   6.987   5.570 -0.0012  0.0816  0.0687
16040TIP3    H169611   6.822   7.023   5.610  0.3938 -0.8756  1.7493
16040TIP3    H269612   6.944   6.939   5.641 -0.2603 -3.2665 -1.9415
16041TIP3   OH269613   6.467   0.754   1.073 -0.2290 -0.0307  0.0444
16041TIP3    H169614   6.424   0.669   1.065  0.2173 -0.2942  0.4277
16041TIP3    H269615   6.425   0.808   1.006 -2.0868  0.1023  1.2659
16042TIP3   OH269616   6.608   5.611   5.135 -0.3177 -0.0615  0.3405
16042TIP3    H169617   6.629   5.697   5.170  0.6685 -0.6716  1.3058
16042TIP3    H269618   6.672   5.597   5.065 -1.8078  0.8439 -1.2212
16043TIP3   OH269619   6.254   4.240   3.452  0.2394 -0.3942  0.2819
16043TIP3    H169620   6.298   4.214   3.371  1.4213  0.1384  0.7415
16043TIP3    H269621   6.300   4.192   3.521 -0.3344 -0.3378  0.7145
16044TIP3   OH269622   5.245   3.736  15.533  0.0617  0.1913  0.5702
16044TIP3    H169623   5.332   3.751  15.496  0.2042  0.7388  1.1122
16044TIP3    H269624   5.185   3.753  15.461  0.3934  0.0930  0.2709
16045TIP3   OH269625   4.402   3.459   1.960 -0.4326  0.0050  0.1703
16045TIP3    H169626   4.355   3.393   2.010  1.0118  0.0695  1.6479
16045TIP3    H269627   4.363   3.542   1.985  0.8155  0.1089  1.8131
16046TIP3   OH269628   0.027   5.260   1.440  0.2916  0.1440 -0.5299
16046TIP3    H169629   0.055   5.185   1.492 -1.2728  0.1882  0.3971
16046TIP3    H269630   0.099   5.274   1.379  1.9390 -0.2157  1.2760
16047TIP3   OH269631   2.568   6.263   0.369 -0.0161 -0.5587  0.0693
16047TIP3    H169632   2.634   6.194   0.363 -0.2996 -0.6941 -1.7513
16047TIP3    H269633   2.531   6.269   0.281 -1.2365  0.6987  0.6438
16048TIP3   OH269634   1.046   6.956   2.157  0.1339  0.3136 -0.4822
16048TIP3    H169635   1.050   6.866   2.189 -0.2246  0.9246  1.3096
16048TIP3    H269636   0.959   6.986   2.180  0.7733  1.6209  0.2875
16049TIP3   OH269637   3.803   5.111   5.359 -0.1456 -0.6744  0.2559
16049TIP3    H169638   3.812   5.016   5.365  0.8138 -0.4987  2.0003
16049TIP3    H269639   3.805   5.141   5.450  1.3071  1.1579 -0.3436
16050TIP3   OH269640   0.837   6.214   5.880  0.4305 -0.3394  0.2211
16050TIP3    H169641   0.925   6.195   5.846  1.2593  0.5999  1.7987
16050TIP3    H269642   0.786   6.135   5.859  2.1217 -1.6528  0.9028
16051TIP3   OH269643   1.354   5.864   2.248 -0.4766  0.0618 -0.1550
16051TIP3    H169644   1.304   5.896   2.322  2.8802 -1.8570  3.1207
16051TIP3    H269645   1.397   5.942   2.212  1.0144  0.5148  2.4931
16052TIP3   OH269646   0.010   0.949   1.903  0.2831  0.1200 -0.7280
16052TIP3    H169647  -0.024   0.991   1.824  0.2874  0.8418 -0.3509
16052TIP3    H269648   0.105   0.961   1.897  0.1885  1.2594 -0.0047
16053TIP3   OH269649   4.427   5.621   3.845 -0.0529  0.3729 -0.6147
16053TIP3    H169650   4.461   5.615   3.934  1.9094  1.5375 -1.2399
16053TIP3    H269651   4.373   5.542   3.834  0.5330 -0.3047  1.2501
16054TIP3   OH269652   0.137   6.997   2.596 -0.0300 -0.0937 -0.3556
16054TIP3    H169653   0.048   6.978   2.624 -0.3859 -1.7478 -2.4625
16054TIP3    H269654   0.190   6.989   2.675 -1.7450  0.9998  0.9281
16055TIP3   OH269655   6.867   3.104   5.176  0.1930  0.4020  0.0148
16055TIP3    H169656   6.771   3.099   5.184  0.0533  1.3596 -0.9744
16055TIP3    H269657   6.888   3.193   5.203  0.8563  0.0435  0.6736
16056TIP3   OH269658   6.875   6.305   3.075 -0.0022 -0.2849 -0.2527
16056TIP3    H169659   6.795   6.356   3.063  0.3032  0.3445  0.3465
16056TIP3    H269660   6.919   6.309   2.990 -0.6184 -0.6528 -0.5886
16057TIP3   OH269661   1.939   2.529   0.134 -0.0063 -0.4744  0.3806
16057TIP3    H169662   1.969   2.552   0.046 -3.0147 -1.9158 -1.1274
16057TIP3    H269663   1.922   2.613   0.176  1.2840  0.2373 -0.4973
16058TIP3   OH269664   5.979   2.506   1.524 -0.2581  0.6337 -0.2804
16058TIP3    H169665   5.887   2.512   1.499 -0.3065  0.1338 -0.2405
16058TIP3    H269666   5.998   2.412   1.523  0.5212  0.7962 -1.2425
16059TIP3   OH269667   6.310   4.799   2.819 -0.3717  0.0873 -0.6574
16059TIP3    H169668   6.254   4.857   2.872 -1.4302  0.5625 -2.2776
16059TIP3    H269669   6.302   4.714   2.862  2.1184  1.3226  2.4540
16060TIP3   OH269670   0.443   3.651   5.139 -0.4216 -0.5622 -0.5386
16060TIP3    H169671   0.381   3.704   5.189  0.5911  1.7907 -1.6838
16060TIP3    H269672   0.505   3.618   5.204  0.0319  1.2722 -0.0096
16061TIP3   OH269673   0.935   2.851   4.784 -0.4663 -0.1220 -0.1835
16061TIP3    H169674   0.915   2.926   4.840 -0.8927 -1.8120  2.0239
16061TIP3    H269675   0.874   2.859   4.711 -0.8014  1.4472  0.2468
16062TIP3   OH269676   1.919   2.346   2.751  0.1024  0.8309  0.2699
16062TIP3    H169677   1.889   2.435   2.764  0.8972  0.9902  1.0341
16062TIP3    H269678   1.927   2.337   2.656 -0.3943  1.4275  0.1729
16063TIP3   OH269679   3.443   2.976   1.943 -0.7032  0.3423 -0.0369
16063TIP3    H169680   3.444   2.880   1.936  1.0859  0.0494  3.0969
16063TIP3    H269681   3.457   3.007   1.853  0.1419 -2.3742 -0.8912
16064TIP3   OH269682   4.186   1.338   5.370 -0.1115 -0.2096 -0.0637
16064TIP3    H169683   4.196   1.427   5.337 -1.4291 -1.1271 -3.1340
16064TIP3    H269684   4.135   1.347   5.450 -0.5822  1.7578 -0.5776
16065TIP3   OH269685   0.986   3.665   1.227 -0.1135  0.1701 -0.2708
16065TIP3    H169686   0.951   3.602   1.290  0.7630  0.4637  0.5179
16065TIP3    H269687   1.011   3.612   1.151 -1.2431 -0.1745 -0.3981
16066TIP3   OH269688   1.640   3.078   0.564  0.2979 -0.0535  0.4717
16066TIP3    H169689   1.710   3.128   0.523 -1.5082  0.7275 -1.7659
16066TIP3    H269690   1.671   2.987   0.560  1.2740  0.2992 -0.2828
16067TIP3   OH269691   3.504   1.235   2.429 -0.1056 -0.1565  0.1253
16067TIP3    H169692   3.444   1.298   2.389  2.9637  1.0410 -2.8511
16067TIP3    H269693   3.532   1.179   2.357  1.9914 -0.9788  1.5264
16068TIP3   OH269694   0.222   3.313   2.425  0.4922  0.5273  0.1848
16068TIP3    H169695   0.251   3.388   2.477 -0.3005 -0.0857  1.5668
16068TIP3    H269696   0.195   3.350   2.341  1.5009  1.5904  0.3238
16069TIP3   OH269697   7.038   0.505   3.144 -0.1295 -0.2950  0.2050
16069TIP3    H169698   7.006   0.583   3.099 -2.8671 -2.5705 -2.0357
16069TIP3    H269699   7.098   0.464   3.081  3.2743  1.1828  2.3350
16070TIP3   OH269700   5.910   5.965   5.417  0.2876  0.4566 -0.2087
16070TIP3    H169701   5.980   6.023   5.387  1.8365 -0.1129  2.1921
16070TIP3    H269702   5.953   5.904   5.477 -1.7495 -1.6868 -0.8375
16071TIP3   OH269703   2.821   3.759   3.780  0.0166  0.1121 -0.0537
16071TIP3    H169704   2.776   3.732   3.700  0.9796 -0.1715 -0.5046
16071TIP3    H269705   2.829   3.854   3.772  1.1908 -0.0545 -0.8606
16072TIP3   OH269706   1.432   6.156   5.305 -0.2753 -0.1805  0.2547
16072TIP3    H169707   1.430   6.131   5.397 -0.3863 -0.8768  0.0671
16072TIP3    H269708   1.501   6.101   5.267 -0.2717  0.0625 -0.0884
16073TIP3   OH269709   4.477   6.959   4.898 -0.2995  0.4086  0.4160
16073TIP3    H169710   4.447   6.975   4.988 -0.8623  0.7317  0.1736
16073TIP3    H269711   4.545   7.026   4.883 -1.7053  1.7391 -0.1325
16074TIP3   OH269712   4.387   5.398   3.519  0.1131 -0.3361 -0.3932
16074TIP3    H169713   4.356   5.315   3.555  1.2795  0.0060  1.4745
16074TIP3    H269714   4.332   5.464   3.561  1.0932  0.0255  0.3480
16075TIP3   OH269715   4.230   4.238   2.554  0.3685 -0.0023 -0.3102
16075TIP3    H169716   4.225   4.334   2.556  2.3540  0.1171  0.2408
16075TIP3    H269717   4.302   4.220   2.494  1.3889 -1.0824  1.2081
16076TIP3   OH269718   4.143   0.284   4.708 -0.1715 -0.5896  0.3756
16076TIP3    H169719   4.123   0.321   4.622  0.6474  0.9514  0.8159
16076TIP3    H269720   4.234   0.308   4.723 -0.5690 -0.0927  2.0460
16077TIP3   OH269721   0.416   0.935   6.093 -0.5661 -0.0522  0.1368
16077TIP3    H169722   0.369   0.858   6.125 -0.8100  0.0010 -0.0913
16077TIP3    H269723   0.399   1.002   6.159  0.7054 -0.5576  0.9977
16078TIP3   OH269724   5.153   3.124   1.858 -0.6456 -0.2572 -0.0350
16078TIP3    H169725   5.248   3.121   1.849 -0.4615  2.0947  0.8607
16078TIP3    H269726   5.125   3.186   1.790 -1.1130  2.2939  2.4220
16079TIP3   OH269727   1.036   2.268   4.113 -0.1361  0.1104 -0.0341
16079TIP3    H169728   1.106   2.326   4.144 -0.5602  0.9474 -0.6179
16079TIP3    H269729   1.064   2.240   4.027 -0.9941  1.2975 -0.7247
16080TIP3   OH269730   1.937   5.336   4.566  0.1176 -0.1285  0.4416
16080TIP3    H169731   1.920   5.267   4.630  1.1196 -1.4954 -0.7369
16080TIP3    H269732   1.957   5.413   4.619 -2.3013 -0.3691  1.7922
16081TIP3   OH269733   6.617   5.895   5.112 -0.5963 -0.0311 -0.2382
16081TIP3    H169734   6.675   5.932   5.178 -0.4924  0.7081 -0.7447
16081TIP3    H269735   6.675   5.873   5.039 -0.6813 -1.0228 -0.0137
16082TIP3   OH269736   5.960   6.687  15.579  0.0540  0.0491  0.4736
16082TIP3    H169737   5.890   6.694  15.514  0.9333 -1.9144 -0.7199
16082TIP3    H269738   5.922   6.725  15.658 -1.6439  0.8920 -0.7102
16083TIP3   OH269739   1.370   5.951  14.860 -0.2714 -0.1090  0.9249
16083TIP3    H169740   1.328   5.982  14.940  1.5593  2.3789  0.9538
16083TIP3    H269741   1.392   6.030  14.811  1.4145 -1.4783 -0.6219
16084TIP3   OH269742   5.650   4.862   5.814 -0.0592 -0.2811  0.4614
16084TIP3    H169743   5.736   4.858   5.855  0.1617  1.1677  0.1819
16084TIP3    H269744   5.613   4.775   5.826  0.9838 -0.5816  1.5825
16085TIP3   OH269745   2.324   0.139  14.562 -0.3743 -0.0190  0.2947
16085TIP3    H169746   2.289   0.100  14.482  0.2269 -1.0815  0.5383
16085TIP3    H269747   2.253   0.194  14.596 -1.0057 -0.4092 -0.3913
16086TIP3   OH269748   0.590   6.768   5.166  0.2755 -0.0425 -0.0670
16086TIP3    H169749   0.635   6.798   5.245  1.6313 -1.3097 -0.3255
16086TIP3    H269750   0.647   6.700   5.131 -0.7845 -0.1473 -1.6284
16087TIP3   OH269751   4.159   0.652   4.449  0.3927 -0.1922  0.0557
16087TIP3    H169752   4.181   0.559   4.440  0.3949 -0.1647 -0.2347
16087TIP3    H269753   4.217   0.684   4.518  0.0871 -0.5080  0.4564
16088TIP3   OH269754   5.658   6.517   2.803 -0.1447  0.0273 -0.0067
16088TIP3    H169755   5.610   6.477   2.731  0.0791 -0.9407  0.3715
16088TIP3    H269756   5.611   6.598   2.822 -1.0859 -0.4662 -0.2412
16089TIP3   OH269757   4.647   3.057   4.024  0.2551 -0.4004 -0.2750
16089TIP3    H169758   4.671   3.023   4.110 -0.8392  0.6647  0.4675
16089TIP3    H269759   4.661   3.151   4.030 -0.9119 -0.1767 -0.8810
16090TIP3   OH269760   0.162   2.766   2.390  0.6165 -0.0436  0.1490
16090TIP3    H169761   0.186   2.814   2.470 -1.9212  1.3044  0.1630
16090TIP3    H269762   0.137   2.835   2.328 -1.5525 -1.2378 -0.3575
16091TIP3   OH269763   1.511   2.156   4.831  0.2245 -0.0865 -0.5670
16091TIP3    H169764   1.570   2.084   4.853 -1.9464 -2.0950 -1.0927
16091TIP3    H269765   1.527   2.172   4.738  1.1238  0.4864 -0.3090
16092TIP3   OH269766   7.175   0.442   5.387  0.3899 -0.9502 -0.0288
16092TIP3    H169767   7.195   0.355   5.353  0.6928 -0.7588 -0.3523
16092TIP3    H269768   7.093   0.467   5.344  1.6147 -0.0273 -1.9356
16093TIP3   OH269769   4.618   2.387   4.641  0.2291  0.0724 -0.0280
16093TIP3    H169770   4.658   2.454   4.585 -1.0376  0.9729  0.1286
16093TIP3    H269771   4.686   2.320   4.649  0.9876  0.6367 -1.3994
16094TIP3   OH269772   1.432   7.186   2.714  0.5845  0.6204  0.5419
16094TIP3    H169773   1.349   7.215   2.753 -2.0106 -0.4984 -3.7847
16094TIP3    H269774   1.433   7.091   2.728  1.1728  0.6245  0.5488
16095TIP3   OH269775   0.085   5.141   2.389 -0.2300  0.1818 -0.2589
16095TIP3    H169776   0.037   5.059   2.382  0.7999 -0.3038 -2.0977
16095TIP3    H269777   0.116   5.144   2.480 -0.6574 -1.2428 -0.0646
16096TIP3   OH269778   5.548   4.106   0.036 -0.5020  0.2993 -0.7222
16096TIP3    H169779   5.599   4.155   0.101 -0.7520  0.8031 -0.9049
16096TIP3    H269780   5.457   4.119   0.062 -0.4810 -2.3207  0.8385
16097TIP3   OH269781   5.329   3.190   5.100 -0.2274 -0.1111  0.1876
16097TIP3    H169782   5.402   3.139   5.133 -0.2683  0.4062  1.0872
16097TIP3    H269783   5.328   3.172   5.006 -0.1007 -1.5802  0.4472
16098TIP3   OH269784   2.016   5.765   2.416  0.0212  0.1285  0.1217
16098TIP3    H169785   1.973   5.688   2.453 -0.8512  2.3124  3.9241
16098TIP3    H269786   2.089   5.782   2.475  1.3150  1.1777 -1.7341
16099TIP3   OH269787   5.773   3.882   0.706 -0.3063 -0.1341 -0.0450
16099TIP3    H169788   5.755   3.857   0.797  0.6324  0.5325  0.3373
16099TIP3    H269789   5.724   3.819   0.654 -1.0926 -0.3514  0.9280
16100TIP3   OH269790   3.288   1.225   1.579 -0.0259  0.0212  0.1613
16100TIP3    H169791   3.309   1.270   1.497  0.5897  1.1894  0.9616
16100TIP3    H269792   3.208   1.176   1.559  0.3321 -0.0279 -1.2530
16101TIP3   OH269793   6.103   3.954   2.309  0.3335 -0.0214 -0.0573
16101TIP3    H169794   6.034   4.017   2.333  0.6607  0.4280 -0.2916
16101TIP3    H269795   6.063   3.899   2.242 -0.1891 -0.5188  0.6485
16102TIP3   OH269796   4.864   7.129   2.762  0.0886 -0.9453 -0.1969
16102TIP3    H169797   4.816   7.048   2.778 -0.8266 -0.0254  1.9137
16102TIP3    H269798   4.918   7.141   2.841  0.9259  0.0214 -0.8906
16103TIP3   OH269799   0.608   3.530   4.376 -0.1999  0.2836  0.2716
16103TIP3    H169800   0.646   3.517   4.289 -0.1815 -0.9740  0.4644
16103TIP3    H269801   0.523   3.488   4.372 -0.5676  0.9828  0.5992
16104TIP3   OH269802   2.832   5.199   3.057 -0.0431  0.0310 -0.4227
16104TIP3    H169803   2.770   5.181   3.128 -1.2505 -1.5240 -1.8217
16104TIP3    H269804   2.910   5.148   3.079 -0.5983 -0.8463 -0.4273
16105TIP3   OH269805   5.872   1.251   0.414 -0.0296 -0.3047  0.3517
16105TIP3    H169806   5.896   1.289   0.498 -0.1348  2.5772 -0.8569
16105TIP3    H269807   5.795   1.198   0.433  0.1193  0.0827  2.1252
16106TIP3   OH269808   2.834   4.287   0.382 -0.3428 -0.3739 -0.1768
16106TIP3    H169809   2.807   4.200   0.354 -0.2799 -0.5241  0.2284
16106TIP3    H269810   2.913   4.273   0.434 -0.0604 -0.0299 -0.5059
16107TIP3   OH269811   0.462   3.175   5.883  0.3143 -0.2042  0.1163
16107TIP3    H169812   0.456   3.115   5.958 -0.4183 -0.3748 -0.0725
16107TIP3    H269813   0.462   3.262   5.923  1.0376 -0.3217  0.3736
16108TIP3   OH269814   5.582   5.255   4.747  0.2745 -1.3904  0.0134
16108TIP3    H169815   5.607   5.243   4.655  1.4728 -1.5226  0.3570
16108TIP3    H269816   5.580   5.350   4.758 -1.3329 -1.3468 -0.5419
16109TIP3   OH269817   1.293   0.146   2.090  0.0534 -0.8041 -0.6451
16109TIP3    H169818   1.380   0.155   2.130  0.1579 -4.3540  0.1153
16109TIP3    H269819   1.311   0.121   1.999 -0.1745 -0.6630 -0.7287
16110TIP3   OH269820   5.926   0.775   1.441  0.2775  0.1554 -0.1420
16110TIP3    H169821   5.891   0.726   1.367  2.3935 -1.4902 -0.1009
16110TIP3    H269822   5.882   0.737   1.518  1.1068 -0.9851 -0.2093
16111TIP3   OH269823   5.580   0.685   1.987 -0.2734  0.2709  0.2358
16111TIP3    H169824   5.615   0.772   1.967  1.1050 -0.1903  0.5882
16111TIP3    H269825   5.605   0.631   1.912 -1.1353  0.1722  0.0127
16112TIP3   OH269826   1.566   0.966  15.195 -0.8004  0.2611 -1.1376
16112TIP3    H169827   1.558   0.890  15.137 -3.3177  1.2770 -2.1775
16112TIP3    H269828   1.485   0.965  15.247 -0.1512  1.3792 -0.0789
16113TIP3   OH269829   1.461   3.810   1.512  0.0722 -0.2981 -0.3458
16113TIP3    H169830   1.414   3.833   1.432 -0.4447  3.1806  0.8484
16113TIP3    H269831   1.494   3.894   1.545 -0.0914 -1.5660  3.2585
16114TIP3   OH269832   0.017   2.068   5.906  0.0605  0.0981 -0.6195
16114TIP3    H169833   0.037   2.084   5.814  1.0089 -1.7651 -0.7597
16114TIP3    H269834   0.082   2.003   5.934 -0.5234  0.2791  1.2332
16115TIP3   OH269835   6.692   6.490   2.930  0.3470 -0.1563  0.3392
16115TIP3    H169836   6.713   6.575   2.970  0.1388 -0.7089  1.6611
16115TIP3    H269837   6.605   6.470   2.963  0.2942 -0.7586 -0.1831
16116TIP3   OH269838   5.367   4.676   1.811  0.4761 -0.2950 -0.3771
16116TIP3    H169839   5.434   4.609   1.798  0.8492 -0.2510  1.2970
16116TIP3    H269840   5.285   4.626   1.817  0.6359 -0.5266 -0.1022
16117TIP3   OH269841   0.442   5.888  12.805  0.0618  0.2736  0.2883
16117TIP3    H169842   0.483   5.871  12.890  2.1297  1.1311 -0.5137
16117TIP3    H269843   0.477   5.973  12.778 -2.0997  0.9225 -0.5412
16118TIP3   OH269844   4.350   6.453   4.800  0.4200 -0.1716  0.1815
16118TIP3    H169845   4.305   6.530   4.767  0.2112  0.2504  1.4146
16118TIP3    H269846   4.290   6.380   4.783  0.2187  0.0718 -0.1511
16119TIP3   OH269847   0.688   0.491  15.007 -0.0920 -0.4530 -0.4206
16119TIP3    H169848   0.723   0.418  14.956  0.3874  0.1005 -0.9004
16119TIP3    H269849   0.711   0.569  14.956 -0.1665  0.0683  0.3265
16120TIP3   OH269850   6.651   2.621   0.768 -0.6996 -0.5213 -0.6126
16120TIP3    H169851   6.702   2.701   0.759 -0.5431 -0.7672 -2.0303
16120TIP3    H269852   6.704   2.565   0.824 -0.8852  0.4293  0.5157
16121TIP3   OH269853   5.906   6.105   2.270 -0.1103  0.3486  0.4147
16121TIP3    H169854   5.922   6.128   2.362  0.3691 -0.3442  0.5049
16121TIP3    H269855   5.963   6.164   2.220 -0.0065  0.3892  0.5801
16122TIP3   OH269856   7.060   2.986   4.287  0.1864  0.4533 -0.0901
16122TIP3    H169857   7.007   3.040   4.229 -0.6237  0.2434  0.4465
16122TIP3    H269858   7.010   2.982   4.369  0.2845 -1.0029 -0.0776
16123TIP3   OH269859   0.515   3.794   0.219  0.1178 -0.3846  1.4758
16123TIP3    H169860   0.549   3.710   0.251  2.2772  0.2633  0.9606
16123TIP3    H269861   0.557   3.859   0.274 -0.3411  0.4610  0.8298
16124TIP3   OH269862   4.306   0.064   4.954  0.0617  0.3484 -0.2327
16124TIP3    H169863   4.398   0.039   4.957 -0.3156 -0.9588  1.0990
16124TIP3    H269864   4.274   0.050   5.043 -1.0695  2.2437 -0.3016
16125TIP3   OH269865   4.653   2.353   3.368  0.1423  0.4029  0.0726
16125TIP3    H169866   4.668   2.373   3.461 -1.6850 -0.7469  0.6545
16125TIP3    H269867   4.558   2.343   3.362  0.3872 -1.0541 -1.6211
16126TIP3   OH269868   6.350   2.971  15.057  0.3740 -0.1638 -0.5384
16126TIP3    H169869   6.415   2.930  15.115 -0.4934 -1.4857 -0.4745
16126TIP3    H269870   6.376   2.944  14.969  0.1246 -0.4018 -0.5405
16127TIP3   OH269871   7.110   0.445   0.899 -0.3301  0.2680 -0.3057
16127TIP3    H169872   7.091   0.531   0.863 -1.4044  0.5594  0.9336
16127TIP3    H269873   7.172   0.461   0.970 -1.6882  0.2009  0.9134
16128TIP3   OH269874   5.956   6.825   3.410  0.2347  0.4004  0.3219
16128TIP3    H169875   5.866   6.843   3.385  0.5320 -0.0700 -1.1253
16128TIP3    H269876   6.001   6.908   3.398  0.3476  0.2108 -0.6039
16129TIP3   OH269877   3.597   0.673   3.666  0.2256 -0.0900  0.1591
16129TIP3    H169878   3.518   0.691   3.615  0.3824  0.2356  0.0274
16129TIP3    H269879   3.565   0.626   3.743 -0.0929  0.0081  0.0888
16130TIP3   OH269880   2.796   6.795   3.171  0.1070 -0.0920  0.5522
16130TIP3    H169881   2.861   6.777   3.103 -0.1615  1.1624 -0.0426
16130TIP3    H269882   2.812   6.885   3.197 -1.1528  0.1109  0.6648
16131TIP3   OH269883   4.678   6.716   2.134  0.1205  0.7006 -0.4823
16131TIP3    H169884   4.667   6.636   2.185  0.7569  0.1368 -1.2265
16131TIP3    H269885   4.600   6.720   2.078  1.4935 -0.9617 -2.5639
16132TIP3   OH269886   6.989   5.621   5.156  0.6937 -0.1125  0.2912
16132TIP3    H169887   6.953   5.618   5.244  0.3989 -0.6756  0.1581
16132TIP3    H269888   6.996   5.528   5.130 -1.3369  0.0835 -1.1332
16133TIP3   OH269889   0.273   2.264   0.959  0.4486  0.7507 -1.4482
16133TIP3    H169890   0.220   2.322   0.904 -1.6449  0.9460  0.6799
16133TIP3    H269891   0.212   2.197   0.989  1.5195  0.6701  0.6448
16134TIP3   OH269892   6.357   3.491   0.916  0.2887  0.2659 -0.1276
16134TIP3    H169893   6.300   3.449   0.851  0.6786 -3.3297  1.7254
16134TIP3    H269894   6.309   3.569   0.944 -1.3494  0.0957 -2.3399
16135TIP3   OH269895   2.517   6.916   3.406 -0.7790 -0.6007 -0.6015
16135TIP3    H169896   2.427   6.904   3.376 -0.4671  0.1889 -1.8970
16135TIP3    H269897   2.509   6.965   3.487 -1.4691  0.3738 -1.2491
16136TIP3   OH269898   4.150   6.143   3.587 -0.5655 -0.4489  0.0857
16136TIP3    H169899   4.199   6.222   3.566 -1.2026 -0.0364  0.1431
16136TIP3    H269900   4.141   6.098   3.504  1.1534 -1.2454  0.3082
16137TIP3   OH269901   0.193   1.593   1.149 -0.0266 -0.3770  0.4195
16137TIP3    H169902   0.157   1.526   1.091 -1.8506  0.3198  0.7238
16137TIP3    H269903   0.241   1.544   1.216 -0.8459 -1.3559  0.3026
16138TIP3   OH269904   4.944   0.514   4.267  0.2451 -0.0831 -0.5052
16138TIP3    H169905   4.884   0.576   4.225  0.2472 -0.1826 -0.6565
16138TIP3    H269906   4.987   0.565   4.336  0.1767  0.0588 -0.5666
16139TIP3   OH269907   5.935   3.952   3.837  0.3136 -0.7400  0.2140
16139TIP3    H169908   6.001   4.000   3.888 -1.8953  1.2669  1.2589
16139TIP3    H269909   5.900   4.017   3.776 -4.1801 -0.3112  3.0202
16140TIP3   OH269910   5.967   0.806   1.750  0.1340 -0.1337  0.3783
16140TIP3    H169911   6.006   0.727   1.787 -1.0772  0.2632  2.5941
16140TIP3    H269912   5.879   0.780   1.724 -0.2552  0.4689  1.0742
16141TIP3   OH269913   4.190   0.823   3.497  0.4536 -0.0276 -0.1582
16141TIP3    H169914   4.106   0.789   3.527 -1.0079  4.0323  0.6838
16141TIP3    H269915   4.174   0.853   3.408  1.5916 -1.0022 -0.7136
16142TIP3   OH269916   4.055   2.635   3.201  0.0540 -0.3882  0.1576
16142TIP3    H169917   4.008   2.556   3.172 -0.3306 -0.2725  0.4679
16142TIP3    H269918   4.131   2.640   3.143 -0.1834 -0.7159 -0.1833
16143TIP3   OH269919   7.094   1.990   3.977  0.3057 -0.1056 -0.4561
16143TIP3    H169920   7.147   1.911   3.969  0.3323 -0.1619  0.2492
16143TIP3    H269921   7.131   2.050   3.912  1.6789  0.0999  0.4991
16144TIP3   OH269922   6.906   2.350   2.123  0.0649  0.6360 -0.1948
16144TIP3    H169923   6.976   2.321   2.182 -0.0006 -0.7076 -0.7427
16144TIP3    H269924   6.872   2.430   2.163  2.2071  1.5548 -0.1512
16145TIP3   OH269925   1.527   1.390   5.171 -0.2682 -0.4359 -0.5074
16145TIP3    H169926   1.584   1.459   5.137 -0.8211 -0.7122 -2.0302
16145TIP3    H269927   1.538   1.395   5.266 -0.9718  2.3386 -0.5232
16146TIP3   OH269928   6.663   3.826   1.537 -0.3762  0.0681  0.6243
16146TIP3    H169929   6.754   3.818   1.566 -0.3674  1.2901  0.9796
16146TIP3    H269930   6.611   3.814   1.617 -0.5190 -0.3773  0.4660
16147TIP3   OH269931   1.002   6.607   1.102 -0.5491  0.0251  0.6900
16147TIP3    H169932   1.031   6.526   1.143 -0.1883  0.0316  0.4406
16147TIP3    H269933   1.073   6.669   1.118 -0.2864 -0.0448 -0.1786
16148TIP3   OH269934   6.417   6.300   0.961 -0.0660 -0.1331  0.0733
16148TIP3    H169935   6.400   6.207   0.945  0.6307 -0.4711  1.2741
16148TIP3    H269936   6.457   6.303   1.048  0.5068  1.2255 -0.2197
16149TIP3   OH269937   6.203   7.048   4.196 -0.0185  0.9725 -0.1261
16149TIP3    H169938   6.195   7.099   4.115  1.4356 -0.1871 -1.0212
16149TIP3    H269939   6.113   7.043   4.230 -0.3487  3.2097 -0.5703
16150TIP3   OH269940   7.196   7.188   4.835 -0.4438  0.2649  0.0158
16150TIP3    H169941   7.107   7.178   4.869 -0.4499  1.4018  0.3494
16150TIP3    H269942   7.221   7.100   4.806 -2.1837  0.1948 -1.3383
16151TIP3   OH269943   0.069   0.248   2.328 -0.4824 -0.2198 -0.3092
16151TIP3    H169944  -0.017   0.231   2.288 -1.0167  1.9857 -0.1561
16151TIP3    H269945   0.048   0.293   2.410  0.8787  3.4649 -1.8772
16152TIP3   OH269946   5.321   6.939   4.461  0.5728 -0.0296  0.1090
16152TIP3    H169947   5.286   6.912   4.376  1.9159  0.8280 -0.7368
16152TIP3    H269948   5.407   6.897   4.466  0.3597 -0.3608  1.2078
16153TIP3   OH269949   0.234   3.275   3.212  0.2303 -0.4859 -0.3601
16153TIP3    H169950   0.264   3.303   3.299  0.1597 -2.4679  0.3279
16153TIP3    H269951   0.139   3.278   3.217  0.2294  0.1357 -0.6371
16154TIP3   OH269952   0.629   5.232   4.028 -0.1622 -0.6835 -0.0093
16154TIP3    H169953   0.617   5.192   3.942 -0.3820  0.5550 -0.5593
16154TIP3    H269954   0.719   5.264   4.028  0.2508 -1.8041  0.7032
16155TIP3   OH269955   4.040   6.030   5.059 -0.5581 -0.4198  0.0091
16155TIP3    H169956   4.032   6.005   5.151 -0.1623 -3.0124 -0.6178
16155TIP3    H269957   3.956   6.004   5.020 -1.4161  2.3069 -0.0252
16156TIP3   OH269958   0.935   6.280   2.292  0.9009  0.5651  0.3896
16156TIP3    H169959   0.987   6.201   2.307  0.5702  0.1328 -0.7614
16156TIP3    H269960   0.973   6.344   2.353  2.7419  0.2434 -0.3803
16157TIP3   OH269961   6.437   3.007   3.615  0.4756  0.1210 -0.5125
16157TIP3    H169962   6.490   2.930   3.635 -1.4176 -0.7313  1.4472
16157TIP3    H269963   6.452   3.066   3.689  0.8211  1.0383 -1.3102
16158TIP3   OH269964   2.218   4.430   0.797 -0.7294 -0.5864 -0.5648
16158TIP3    H169965   2.160   4.493   0.753  0.6073  2.2414  1.5822
16158TIP3    H269966   2.304   4.446   0.758 -0.5751 -1.8846 -0.7783
16159TIP3   OH269967   0.341   5.148   1.515  0.1149 -0.5154  0.7228
16159TIP3    H169968   0.346   5.222   1.455 -3.0875 -2.1615 -1.6935
16159TIP3    H269969   0.399   5.082   1.476  1.3007 -0.1096  1.7462
16160TIP3   OH269970   3.963   6.797  14.696 -0.4966 -0.5041  0.3227
16160TIP3    H169971   3.996   6.829  14.780 -0.0498 -3.5270  1.3633
16160TIP3    H269972   3.960   6.875  14.640  0.3868  1.3388  2.7501
16161TIP3   OH269973   2.056   4.967   2.894 -0.0683  0.4104 -0.2499
16161TIP3    H169974   2.074   4.876   2.918  0.2247  0.5501  0.0699
16161TIP3    H269975   2.123   5.017   2.941 -0.2330  0.7901 -0.4232
16162TIP3   OH269976   6.945   3.861   1.525  0.4320  0.2715  0.0242
16162TIP3    H169977   6.917   3.909   1.447  0.9997  0.0512 -0.3225
16162TIP3    H269978   7.031   3.897   1.546  1.1079 -0.9854 -0.5765
16163TIP3   OH269979   4.539   5.101   1.008 -0.0969  0.6180 -0.2058
16163TIP3    H169980   4.455   5.112   0.964 -0.5991  2.1660  1.0803
16163TIP3    H269981   4.517   5.061   1.092  0.6997 -0.9615 -0.7260
16164TIP3   OH269982   6.964   5.272   2.425  0.3123 -0.4230 -0.3460
16164TIP3    H169983   6.895   5.206   2.422  0.9362 -1.1875  1.2070
16164TIP3    H269984   7.045   5.221   2.432  0.7951  0.4874  1.0322
16165TIP3   OH269985   0.154   0.827  14.553  0.0595 -0.3852 -0.2529
16165TIP3    H169986   0.236   0.869  14.525  1.6238 -1.7186  2.1815
16165TIP3    H269987   0.110   0.893  14.607  1.0551 -0.7739  1.0462
16166TIP3   OH269988   5.075   4.116   1.385 -0.0897 -0.4099 -0.5673
16166TIP3    H169989   5.158   4.085   1.423  0.1924 -0.7167 -1.4131
16166TIP3    H269990   5.020   4.137   1.461  1.3209  1.3141  0.0151
16167TIP3   OH269991   3.304   1.618   2.931 -0.3063  0.0188  0.0587
16167TIP3    H169992   3.397   1.637   2.928 -0.5320  1.1814  0.1368
16167TIP3    H269993   3.282   1.589   2.842  0.0332  0.1864 -0.0789
16168TIP3   OH269994   0.698   5.895   0.886 -0.2017 -0.6794 -0.7439
16168TIP3    H169995   0.690   5.813   0.837  3.0764 -0.9254 -0.9736
16168TIP3    H269996   0.715   5.961   0.819 -0.5485 -0.2040 -0.3629
16169TIP3   OH269997   6.829   3.785   4.198  0.3717 -0.3198  0.2491
16169TIP3    H169998   6.766   3.775   4.269 -0.1142  0.9984  0.0200
16169TIP3    H269999   6.776   3.807   4.122  1.0907  0.7195  0.0361
16170TIP3   OH270000   0.425   4.940   1.339 -0.2441  0.7697  0.0727
16170TIP3    H170001   0.414   4.845   1.335  2.4935  0.3841  0.7247
16170TIP3    H270002   0.337   4.975   1.328 -1.1556 -1.8121 -1.1662
16171TIP3   OH270003   1.745   3.262  15.249 -0.2439  0.4173 -0.3006
16171TIP3    H170004   1.736   3.346  15.294  0.3921  0.7930 -0.8697
16171TIP3    H270005   1.683   3.266  15.176 -0.6514  0.1484  0.0266
16172TIP3   OH270006   2.020   6.384   2.678 -0.5625  0.6016  0.1866
16172TIP3    H170007   1.947   6.397   2.739 -0.4396  0.9486  0.2580
16172TIP3    H270008   2.047   6.472   2.653  0.5969  0.5240  1.0760
16173TIP3   OH270009   4.064   5.378   0.979  0.1052  0.3575 -0.4036
16173TIP3    H170010   4.026   5.369   0.891 -0.9255 -1.1522  0.1778
16173TIP3    H270011   3.991   5.408   1.033  0.8386  1.6742 -0.1118
16174TIP3   OH270012   5.123   6.028   2.944  0.4863 -0.0873  0.5385
16174TIP3    H170013   5.209   6.020   2.984 -0.3584 -0.8499  2.2231
16174TIP3    H270014   5.126   5.969   2.869  1.6718  0.4581  0.1454
16175TIP3   OH270015   0.096   2.074   2.903  0.3020 -0.3776  0.6059
16175TIP3    H170016   0.186   2.099   2.925 -0.1735  1.0788  0.9422
16175TIP3    H270017   0.043   2.149   2.931 -1.0747 -1.4561  0.9264
16176TIP3   OH270018   4.110   6.944   3.189 -0.2605 -0.4131 -0.0581
16176TIP3    H170019   4.134   7.036   3.203  0.3408 -0.7202  0.9480
16176TIP3    H270020   4.021   6.948   3.154 -1.2885  0.4701  2.5404
16177TIP3   OH270021   4.441   5.563   3.052  0.3578 -0.5360 -0.0507
16177TIP3    H170022   4.401   5.479   3.028 -0.2172 -0.1398 -0.4812
16177TIP3    H270023   4.487   5.544   3.134  0.3820 -1.3153 -0.2345
16178TIP3   OH270024   1.230   5.563  15.481 -0.1696 -0.1599  0.0362
16178TIP3    H170025   1.180   5.622  15.424  0.1665  0.5557  0.4760
16178TIP3    H270026   1.260   5.619  15.553  1.9225 -0.4277 -0.6099
16179TIP3   OH270027   1.208   6.094   1.384 -0.2863  0.1224  0.3185
16179TIP3    H170028   1.173   6.021   1.334 -0.6450 -0.0270  0.7944
16179TIP3    H270029   1.303   6.085   1.376 -0.2817 -1.4057  1.8248
16180TIP3   OH270030   4.798   6.008   2.269 -0.1317 -0.1840 -0.4662
16180TIP3    H170031   4.733   6.052   2.324  1.0675  0.0577  0.7965
16180TIP3    H270032   4.808   5.921   2.309  0.5465 -0.1008 -0.4564
16181TIP3   OH270033   0.681   6.644   3.389 -0.3968  0.0841  0.8766
16181TIP3    H170034   0.638   6.676   3.468  0.5239  0.8859  1.0595
16181TIP3    H270035   0.743   6.578   3.420  0.9027  1.3306  0.9754
16182TIP3   OH270036   1.684   5.580   5.390 -0.3382  0.6016 -0.0869
16182TIP3    H170037   1.659   5.535   5.310  0.9268 -1.9284  0.8987
16182TIP3    H270038   1.636   5.535   5.459 -0.5760  2.0709  0.7399
16183TIP3   OH270039   5.691   2.185   5.318  0.5554 -0.4572 -0.4091
16183TIP3    H170040   5.649   2.161   5.401  1.1801 -2.4398 -0.6267
16183TIP3    H270041   5.745   2.261   5.339  1.4525 -1.5222  1.2352
16184TIP3   OH270042   1.830   5.092  14.469  0.1912 -0.1663 -0.1506
16184TIP3    H170043   1.901   5.135  14.517  1.0067 -1.7812  0.1204
16184TIP3    H270044   1.753   5.108  14.522  0.9225 -1.1229  1.2452
16185TIP3   OH270045   1.365   2.174  12.563  0.4440  0.2391 -0.2424
16185TIP3    H170046   1.422   2.217  12.500  0.0817 -0.0809 -0.7872
16185TIP3    H270047   1.277   2.201  12.538  0.3001  0.1643  0.1691
16186TIP3   OH270048   6.286   6.897   1.909 -0.1856 -0.6569  0.5005
16186TIP3    H170049   6.351   6.944   1.856  0.8718 -2.1180  0.4779
16186TIP3    H270050   6.202   6.917   1.866  0.1211  1.8379  0.9533
16187TIP3   OH270051   0.385   3.931   0.577 -0.1239 -0.4979 -0.3690
16187TIP3    H170052   0.375   3.837   0.591 -0.0685 -0.4683 -0.1224
16187TIP3    H270053   0.461   3.955   0.631  0.4546 -0.4852 -1.1696
16188TIP3   OH270054   6.374   2.574   4.707  0.0171  0.2862 -0.3304
16188TIP3    H170055   6.360   2.612   4.793 -0.2714 -0.1481 -0.1835
16188TIP3    H270056   6.405   2.647   4.653  0.3231  0.5295  0.1718
16189TIP3   OH270057   3.094   0.592   1.240 -1.2216  0.4993  0.2491
16189TIP3    H170058   3.134   0.512   1.206 -2.3781  0.0383 -0.0396
16189TIP3    H270059   3.167   0.640   1.281 -0.7081 -1.2108  1.3876
16190TIP3   OH270060   1.216   4.919   2.481  0.4220 -0.3111  0.8811
16190TIP3    H170061   1.225   4.825   2.464 -1.1926 -0.1593 -0.9035
16190TIP3    H270062   1.298   4.957   2.451  0.5124 -0.9727  0.2932
16191TIP3   OH270063   1.139   6.181   3.640  0.1995 -0.2348 -0.0728
16191TIP3    H170064   1.138   6.249   3.572  1.2872 -0.2548 -0.1220
16191TIP3    H270065   1.050   6.147   3.642  0.6467 -1.7332 -2.9983
16192TIP3   OH270066   5.977   4.612   5.085 -0.0855 -0.4325 -0.2671
16192TIP3    H170067   6.018   4.567   5.012  1.7164  0.3348  0.2506
16192TIP3    H270068   6.022   4.696   5.090  0.6017 -0.9200  2.4395
16193TIP3   OH270069   2.682   1.298   3.002  0.1734  0.1769 -0.4045
16193TIP3    H170070   2.763   1.283   2.953  0.9670  0.8663  0.6680
16193TIP3    H270071   2.671   1.218   3.055  0.7233  0.5181  0.2299
16194TIP3   OH270072   1.576   4.732   0.458  0.7330 -0.4609 -0.3327
16194TIP3    H170073   1.572   4.826   0.439  0.6035 -0.5640 -0.8154
16194TIP3    H270074   1.623   4.695   0.383  0.6019 -0.8104 -0.2406
16195TIP3   OH270075   1.347   3.285   1.480  0.0010  0.4222  0.4879
16195TIP3    H170076   1.321   3.279   1.572  1.2311  0.0928  0.8221
16195TIP3    H270077   1.355   3.379   1.464 -1.4477  0.5376  0.3503
16196TIP3   OH270078   0.585   3.575   0.413  1.1403 -0.1540  0.2288
16196TIP3    H170079   0.586   3.479   0.409 -1.2699 -0.1802 -0.4458
16196TIP3    H270080   0.589   3.595   0.507 -1.4974 -1.0247  0.5704
16197TIP3   OH270081   5.938   1.007   0.814 -0.0852 -0.3012  0.3675
16197TIP3    H170082   6.020   0.988   0.768  0.8166  0.6606  1.5288
16197TIP3    H270083   5.919   0.928   0.864 -0.1190 -0.6971 -0.2678
16198TIP3   OH270084   4.856   6.570   1.870  0.1688  0.1542  0.3867
16198TIP3    H170085   4.857   6.525   1.954 -0.4802 -0.3706  0.1180
16198TIP3    H270086   4.948   6.578   1.845  0.3317 -0.1503  0.9019
16199TIP3   OH270087   3.481   3.199   1.017 -0.0594  0.2078 -0.9393
16199TIP3    H170088   3.487   3.280   0.967  0.5325  1.0420  0.4482
16199TIP3    H270089   3.405   3.212   1.074  0.9313  0.3865  0.3438
16200TIP3   OH270090   7.089   5.769   3.939 -0.6301  0.2473  0.4715
16200TIP3    H170091   7.175   5.760   3.979 -0.3193 -0.0767 -0.2605
16200TIP3    H270092   7.035   5.810   4.007  0.8052  2.9593  0.0338
16201TIP3   OH270093   1.434   5.165   2.733 -0.2083 -0.7363  0.4275
16201TIP3    H170094   1.385   5.245   2.715 -0.0576 -0.4870  1.1007
16201TIP3    H270095   1.505   5.164   2.669 -0.9159 -0.9525 -0.3674
16202TIP3   OH270096   0.072   3.266   4.605  0.3695  0.2246  0.2576
16202TIP3    H170097   0.010   3.256   4.533  0.3293 -1.8536  0.5628
16202TIP3    H270098   0.113   3.352   4.590 -1.8184  1.1726 -0.5208
16203TIP3   OH270099   0.495   4.289  15.584  0.4074 -0.0958  0.4410
16203TIP3    H170100   0.487   4.261  15.493  2.5274  2.8440 -0.7350
16203TIP3    H270101   0.544   4.218  15.627 -0.7912 -1.5987 -0.6213
16204TIP3   OH270102   3.587   6.027  15.107  0.4473 -0.2344  0.1127
16204TIP3    H170103   3.552   5.957  15.051 -1.2274  0.1592  0.6278
16204TIP3    H270104   3.509   6.072  15.139  1.4093 -0.1140  2.3339
16205TIP3   OH270105   6.545   1.235   4.391 -0.0038 -0.8527  0.3694
16205TIP3    H170106   6.606   1.278   4.331  0.5652 -1.4223  0.5317
16205TIP3    H270107   6.530   1.300   4.460  1.3874 -1.1453  0.9717
16206TIP3   OH270108   5.950   3.567   3.231  0.3378  0.3836 -0.0447
16206TIP3    H170109   5.888   3.539   3.164 -1.2048  0.8282  1.1495
16206TIP3    H270110   5.905   3.638   3.277  2.5098  2.0284 -0.3573
16207TIP3   OH270111   6.581   5.869   0.322  0.0551 -0.7277 -0.0757
16207TIP3    H170112   6.581   5.800   0.388 -3.4980  0.5860  1.4310
16207TIP3    H270113   6.589   5.823   0.239 -1.6713 -2.9586  0.9382
16208TIP3   OH270114   0.808   1.302   5.432  0.5513  0.5369  0.0133
16208TIP3    H170115   0.897   1.271   5.419  0.0171 -0.2979 -1.9083
16208TIP3    H270116   0.756   1.252   5.368 -1.0724  1.9387  0.2038
16209TIP3   OH270117   2.015   3.234  13.686  0.6124  0.0184 -0.0253
16209TIP3    H170118   2.082   3.287  13.729  0.6274  0.3142 -0.4093
16209TIP3    H270119   2.050   3.217  13.598  0.4001 -0.2352 -0.0631
16210TIP3   OH270120   0.662   7.000   3.461  0.0571  0.5477  0.2684
16210TIP3    H170121   0.670   7.007   3.366 -4.9347 -0.4774 -0.3928
16210TIP3    H270122   0.599   7.068   3.485  0.3796  0.0422  2.6686
16211TIP3   OH270123   0.441   2.774   6.037  0.0937  0.3288  0.0647
16211TIP3    H170124   0.397   2.733   6.112 -0.9966  1.8475  0.2786
16211TIP3    H270125   0.480   2.854   6.072  0.1407  0.7079 -0.8389
16212TIP3   OH270126   1.161   5.419   4.465 -0.4013  0.2893 -0.1041
16212TIP3    H170127   1.153   5.367   4.545 -0.5928 -0.1617 -0.4153
16212TIP3    H270128   1.223   5.488   4.487  0.7830 -0.7774 -0.0622
16213TIP3   OH270129   6.425   2.756   3.933 -0.8405  0.2145 -0.0122
16213TIP3    H170130   6.430   2.672   3.979  1.6450 -0.5766 -1.5822
16213TIP3    H270131   6.335   2.785   3.944 -1.3330 -1.9062  1.8818
16214TIP3   OH270132   1.223   6.230   1.609  0.0881 -0.0129 -0.2851
16214TIP3    H170133   1.291   6.289   1.576 -0.9185 -0.0682 -2.5265
16214TIP3    H270134   1.208   6.167   1.538 -1.6870 -0.5220  0.4993
16215TIP3   OH270135   0.693   3.637  14.430 -0.1631 -0.5825  0.2970
16215TIP3    H170136   0.597   3.642  14.423 -0.1816 -0.5954  0.5438
16215TIP3    H270137   0.725   3.684  14.353 -0.3543  0.9303  1.1312
16216TIP3   OH270138   4.701   5.732   0.954  0.2853  0.3060  0.7818
16216TIP3    H170139   4.651   5.712   1.033 -0.9847  1.2917  0.2562
16216TIP3    H270140   4.636   5.765   0.892  1.4279  0.5815 -0.3061
16217TIP3   OH270141   6.243   0.859   1.438  0.1128 -0.2157 -0.2789
16217TIP3    H170142   6.150   0.837   1.434  0.0509 -0.0301  0.1233
16217TIP3    H270143   6.274   0.818   1.519  0.5862 -1.0531 -0.8819
16218TIP3   OH270144   5.296   3.407   1.994 -0.0816 -0.3065 -0.0388
16218TIP3    H170145   5.258   3.341   1.936  0.7382 -1.1719  0.4057
16218TIP3    H270146   5.226   3.426   2.057 -0.4799 -0.3995 -0.4456
16219TIP3   OH270147   0.063   1.831   1.233  0.0371  0.4081  0.8328
16219TIP3    H170148   0.046   1.786   1.316 -3.5635  0.6689  0.3322
16219TIP3    H270149   0.123   1.773   1.186 -0.7663 -1.5400  2.1329
16220TIP3   OH270150   2.010   5.680   5.223  0.0992  0.3381 -0.3315
16220TIP3    H170151   2.096   5.678   5.181 -0.3331 -1.7929 -1.1785
16220TIP3    H270152   1.958   5.615   5.176 -0.6606 -1.5720  2.9298
16221TIP3   OH270153   5.271   1.868   0.116 -0.4423  0.1501  0.1432
16221TIP3    H170154   5.219   1.928   0.064 -1.4173  0.1192  1.0665
16221TIP3    H270155   5.218   1.789   0.124  0.3872 -0.4562 -0.1777
16222TIP3   OH270156   7.066   6.412   5.450 -0.2886  0.2753  0.9086
16222TIP3    H170157   7.124   6.437   5.521 -1.2982 -0.1455  1.9018
16222TIP3    H270158   7.041   6.494   5.409 -0.0249  0.5479  1.2984
16223TIP3   OH270159   5.624   2.014  14.678  0.2983 -0.3289 -0.6848
16223TIP3    H170160   5.682   1.938  14.684  3.2727  1.9569  0.1829
16223TIP3    H270161   5.537   1.978  14.698  1.6666 -3.4333  0.0521
16224TIP3   OH270162   3.881   5.411   0.558 -0.3969 -0.0861  0.3363
16224TIP3    H170163   3.913   5.477   0.620 -1.4916  1.1410 -0.3661
16224TIP3    H270164   3.798   5.382   0.596 -0.3845 -0.3507  0.1561
16225TIP3   OH270165   3.192   4.111  14.976 -0.1354 -0.6207 -0.1630
16225TIP3    H170166   3.170   4.018  14.978  1.0812 -0.9327 -0.6220
16225TIP3    H270167   3.137   4.150  15.043 -1.5679 -1.4691 -0.8262
16226TIP3   OH270168   6.837   0.629   5.833 -0.2997 -0.3751  0.1018
16226TIP3    H170169   6.816   0.600   5.921  0.6610 -0.6385  0.2538
16226TIP3    H270170   6.928   0.660   5.839 -0.9986  1.8956 -0.2343
16227TIP3   OH270171   1.785   1.581   0.344  0.1260 -0.0725  0.2994
16227TIP3    H170172   1.720   1.534   0.395 -0.3099 -0.9837 -1.0732
16227TIP3    H270173   1.736   1.650   0.300  0.7178  1.5263  2.0935
16228TIP3   OH270174   0.683   1.036   5.734  0.0600 -0.5235 -0.4489
16228TIP3    H170175   0.687   0.971   5.804  1.0761  0.9788  0.9234
16228TIP3    H270176   0.765   1.085   5.742  0.3281 -0.4948 -2.8745
16229TIP3   OH270177   4.473   2.297   3.715  0.0717 -0.0963  0.2115
16229TIP3    H170178   4.536   2.367   3.730  0.7301 -0.9709  1.6581
16229TIP3    H270179   4.525   2.225   3.679 -0.3473 -0.3132  0.0394
16230TIP3   OH270180   3.296   0.902  13.722  0.0649 -0.2103 -0.6104
16230TIP3    H170181   3.380   0.940  13.750  0.0975 -1.2147  0.6973
16230TIP3    H270182   3.321   0.835  13.658  0.3454 -1.0300  0.3330
16231TIP3   OH270183   5.897   5.777   2.417  0.4405 -0.1319 -0.7717
16231TIP3    H170184   5.883   5.714   2.488 -1.1196 -1.2951 -2.0906
16231TIP3    H270185   5.897   5.863   2.461  0.1857 -0.8741  0.7091
16232TIP3   OH270186   5.742   3.316   0.453  0.1371  0.5277 -0.0588
16232TIP3    H170187   5.819   3.368   0.429  0.7725 -1.1419 -1.7878
16232TIP3    H270188   5.766   3.276   0.537  1.0033  0.3423 -0.3888
16233TIP3   OH270189   7.177   7.105   3.739 -0.6916 -0.1327 -0.4223
16233TIP3    H170190   7.103   7.046   3.752  0.2071 -0.9176  1.2769
16233TIP3    H270191   7.254   7.053   3.763  0.0210  2.0922  2.5229
16234TIP3   OH270192   0.166   6.254   4.469 -0.4947 -0.7756 -0.3207
16234TIP3    H170193   0.146   6.345   4.448  1.2701 -0.3021 -0.0160
16234TIP3    H270194   0.123   6.203   4.400 -2.8112  0.1752  0.3741
16235TIP3   OH270195   2.272   6.712   5.025  0.3855  0.3618  0.2851
16235TIP3    H170196   2.336   6.707   4.954 -0.0719  0.3396 -0.1239
16235TIP3    H270197   2.210   6.780   4.997  0.2197  0.3756  0.6759
16236TIP3   OH270198   0.252   6.292   3.699 -0.5010  0.4813 -0.1885
16236TIP3    H170199   0.157   6.283   3.706 -0.5995  0.4475 -1.3960
16236TIP3    H270200   0.285   6.202   3.693 -0.3613  0.4809  0.5862
16237TIP3   OH270201   2.490   2.874   4.341  0.7680  0.7168 -0.2272
16237TIP3    H170202   2.452   2.810   4.281 -1.5463  2.3223 -0.5828
16237TIP3    H270203   2.515   2.947   4.285 -0.2268  1.7045  0.5893
16238TIP3   OH270204   1.859   0.386  15.569  0.2995 -0.3265  0.5823
16238TIP3    H170205   1.947   0.356  15.545 -0.0697 -0.2049 -0.9913
16238TIP3    H270206   1.821   0.312  15.617  1.0515 -0.5991  0.7623
16239TIP3   OH270207   4.775   3.940   3.697 -0.4426 -0.2977  0.2704
16239TIP3    H170208   4.760   3.850   3.670  0.2236 -0.6282  0.9854
16239TIP3    H270209   4.771   3.938   3.792  0.5820  0.2350  0.3335
16240TIP3   OH270210   5.990   4.695   5.707  0.8889  0.5066  0.0673
16240TIP3    H170211   6.024   4.616   5.748  0.1955  0.1533 -0.0350
16240TIP3    H270212   5.941   4.739   5.776  1.0970  0.7422  0.0653
16241TIP3   OH270213   2.097   5.246   1.367 -0.7751 -0.5770 -0.5233
16241TIP3    H170214   2.108   5.306   1.441  0.3662 -2.0594  0.5386
16241TIP3    H270215   2.179   5.253   1.317 -1.0731 -0.4545 -1.0026
16242TIP3   OH270216   1.396   3.791   3.166  0.3625 -0.0668 -0.4299
16242TIP3    H170217   1.399   3.868   3.109 -0.2428 -0.0607 -0.4564
16242TIP3    H270218   1.460   3.809   3.235 -1.2975  1.4003  0.7550
16243TIP3   OH270219   1.658   3.655  14.774  0.2419 -0.1320 -0.0765
16243TIP3    H170220   1.734   3.678  14.722  1.9189 -0.6473  2.0670
16243TIP3    H270221   1.585   3.703  14.734  2.3295  3.1862 -0.0350
16244TIP3   OH270222   0.607   0.841   5.928  0.4014 -0.0789 -0.1337
16244TIP3    H170223   0.622   0.758   5.974  0.6115 -0.2465 -0.4997
16244TIP3    H270224   0.549   0.890   5.986  2.6182  0.7381  1.5024
16245TIP3   OH270225   3.541   0.212   1.305  0.0736 -0.0355  0.6456
16245TIP3    H170226   3.454   0.184   1.334 -0.4646  1.6298  0.6916
16245TIP3    H270227   3.547   0.185   1.214  0.3422 -2.0328  1.2350
16246TIP3   OH270228   6.446   2.229   2.707  0.0249  0.1753  0.3708
16246TIP3    H170229   6.400   2.254   2.627  0.8550 -0.8074 -0.4299
16246TIP3    H270230   6.471   2.312   2.747  0.5423  0.6687 -0.9445
16247TIP3   OH270231   0.166   5.707   3.987  0.0632  0.1686 -0.1078
16247TIP3    H170232   0.196   5.616   3.989 -1.3710 -0.3270 -0.3706
16247TIP3    H270233   0.201   5.747   4.066  0.9510 -0.5358 -0.1477
16248TIP3   OH270234   6.508   2.510   4.004  0.5005 -0.3405  0.4644
16248TIP3    H170235   6.541   2.421   4.011  1.0160 -0.4888 -2.7496
16248TIP3    H270236   6.581   2.559   3.965 -0.0201  1.3398  1.5543
16249TIP3   OH270237   0.292   1.507   1.389  0.0080 -0.1877  0.4276
16249TIP3    H170238   0.322   1.598   1.383  1.1274 -0.5517  0.2695
16249TIP3    H270239   0.332   1.474   1.470  0.8338 -0.9591 -0.2764
16250TIP3   OH270240   5.408   5.283   4.497 -0.3476  0.1121  0.3262
16250TIP3    H170241   5.376   5.210   4.549 -0.9974 -0.1158 -0.3942
16250TIP3    H270242   5.365   5.360   4.535 -1.2462 -0.1177 -0.2237
16251TIP3   OH270243   0.886   5.340   1.800  0.2053 -0.2687  0.0761
16251TIP3    H170244   0.979   5.343   1.823  0.2922  0.0925 -0.3172
16251TIP3    H270245   0.884   5.354   1.705 -0.3035  0.6109  0.2090
16252TIP3   OH270246   1.027   7.058   4.775 -0.8455 -0.0590  0.5435
16252TIP3    H170247   1.022   6.976   4.825 -2.7206 -0.5561 -0.4258
16252TIP3    H270248   1.099   7.044   4.714 -0.5888 -0.6494  0.9698
16253TIP3   OH270249   2.289   6.211   2.993  0.0127  0.3017  0.0723
16253TIP3    H170250   2.248   6.237   3.075 -1.9241  2.0477 -1.3830
16253TIP3    H270251   2.216   6.199   2.933  1.3821 -1.1393 -1.3712
16254TIP3   OH270252   5.966   2.601   3.816 -0.3411 -0.1413  0.1312
16254TIP3    H170253   6.046   2.570   3.859 -0.1787 -1.1071 -0.8411
16254TIP3    H270254   5.992   2.612   3.724 -0.7251  1.7303  0.2304
16255TIP3   OH270255   5.115   0.372   3.251  0.0889  0.1234  0.4927
16255TIP3    H170256   5.073   0.452   3.283 -0.7487 -0.2962  0.4439
16255TIP3    H270257   5.143   0.326   3.330 -0.1638  0.0685  0.5508
16256TIP3   OH270258   3.000   6.215   4.234 -0.2083  0.3096 -0.4698
16256TIP3    H170259   3.008   6.253   4.147 -0.4253  1.7272  0.1189
16256TIP3    H270260   2.909   6.232   4.259 -0.3514 -0.7307 -0.2500
16257TIP3   OH270261   1.254   2.147   1.606 -0.1367 -0.0858 -0.2192
16257TIP3    H170262   1.313   2.152   1.530  1.0441 -0.2062  0.6761
16257TIP3    H270263   1.225   2.237   1.619  1.2748  0.2853  0.4349
16258TIP3   OH270264   0.547   1.806   5.209  0.0604 -0.0969  0.1395
16258TIP3    H170265   0.617   1.823   5.272 -0.3574  2.5727 -0.0447
16258TIP3    H270266   0.467   1.815   5.259 -0.2123 -0.8139 -0.1600
16259TIP3   OH270267   6.221   6.831   0.252 -0.2927 -0.7330  0.1816
16259TIP3    H170268   6.178   6.755   0.214  0.6219 -0.6369 -1.0620
16259TIP3    H270269   6.179   6.906   0.211 -0.5721 -0.5814  0.7369
16260TIP3   OH270270   5.557   1.629   1.679  0.0765  0.8504  0.3949
16260TIP3    H170271   5.495   1.587   1.738  0.6846  0.2776  0.6267
16260TIP3    H270272   5.527   1.604   1.591 -0.3984  1.1131  0.4761
16261TIP3   OH270273   4.747   5.612   5.242 -0.0131 -0.2044 -0.0095
16261TIP3    H170274   4.716   5.540   5.188 -0.2201 -0.0277 -0.1291
16261TIP3    H270275   4.759   5.685   5.180 -0.4163  0.0471  0.2088
16262TIP3   OH270276   0.539   5.421   3.523  0.0802  0.2871 -0.8523
16262TIP3    H170277   0.634   5.422   3.508  0.0100  0.1543 -1.3206
16262TIP3    H270278   0.527   5.470   3.605  0.5398  0.4116 -0.8558
16263TIP3   OH270279   6.358   0.642   2.429  0.3980  0.0785 -0.4005
16263TIP3    H170280   6.284   0.592   2.394 -0.2910  2.1467 -1.9892
16263TIP3    H270281   6.323   0.683   2.509  0.5009 -0.6868  0.0453
16264TIP3   OH270282   4.676   6.052  15.283  0.0446 -0.2727 -0.8382
16264TIP3    H170283   4.614   6.122  15.305  0.0625 -0.5160  0.0432
16264TIP3    H270284   4.751   6.068  15.341 -0.4669 -1.7092  0.2575
16265TIP3   OH270285   0.381   5.491   2.328 -0.0897  0.2402 -0.0089
16265TIP3    H170286   0.375   5.546   2.406 -1.2076 -1.5524  1.2205
16265TIP3    H270287   0.382   5.552   2.255 -1.8677  1.8780  1.2880
16266TIP3   OH270288   2.496   4.611   3.945  0.0439 -0.0708  0.2217
16266TIP3    H170289   2.575   4.632   3.895  0.1933 -0.1746  0.4127
16266TIP3    H270290   2.477   4.692   3.994  0.0192 -0.0368  0.1559
16267TIP3   OH270291   6.108   4.941   5.639 -0.0556 -0.0806  0.1783
16267TIP3    H170292   6.101   4.845   5.642  0.1116 -0.0725  0.8299
16267TIP3    H270293   6.069   4.970   5.722  2.6174  0.2541  1.3658
16268TIP3   OH270294   2.196   4.869   2.207  0.3867  0.5298  0.1222
16268TIP3    H170295   2.150   4.822   2.276 -1.4046  1.6599 -0.2723
16268TIP3    H270296   2.285   4.878   2.240  0.6725 -2.6492  0.4309
16269TIP3   OH270297   2.932   5.443   0.344 -0.1481  0.8340 -0.5211
16269TIP3    H170298   2.846   5.470   0.377 -0.4610 -1.4980  0.6978
16269TIP3    H270299   2.914   5.399   0.261 -0.2519 -0.2996  0.0833
16270TIP3   OH270300   4.973   2.899   0.623 -0.4294 -0.2683  0.3336
16270TIP3    H170301   4.923   2.926   0.545  0.6141 -1.5230 -0.7783
16270TIP3    H270302   5.049   2.957   0.623 -1.0407  0.5580  1.1309
16271TIP3   OH270303   0.941   4.137   3.365 -0.0927 -0.4667 -0.0189
16271TIP3    H170304   0.972   4.121   3.454 -0.3157 -3.2311 -0.3702
16271TIP3    H270305   1.018   4.120   3.310 -0.2874 -0.0681 -0.4136
16272TIP3   OH270306   4.820   0.624   3.791 -0.1309 -0.5166  0.2382
16272TIP3    H170307   4.758   0.588   3.854  0.2337 -2.2542 -0.3574
16272TIP3    H270308   4.798   0.581   3.708  0.3908  0.5651 -0.4778
16273TIP3   OH270309   0.269   3.399   3.908 -0.6542 -0.2319  0.4931
16273TIP3    H170310   0.210   3.373   3.979  0.2548  0.3535  1.4689
16273TIP3    H270311   0.354   3.409   3.950 -0.5509  2.3119 -0.2638
16274TIP3   OH270312   0.260   3.873   0.845 -0.5888 -0.6942  0.0704
16274TIP3    H170313   0.334   3.906   0.793 -1.4518  1.4703  0.1582
16274TIP3    H270314   0.297   3.855   0.931  0.0743 -0.6658 -0.2072
16275TIP3   OH270315   6.212   2.490   3.862  0.2023 -0.0101 -0.3865
16275TIP3    H170316   6.208   2.399   3.892 -1.6498  0.2876  0.3764
16275TIP3    H270317   6.285   2.529   3.911 -0.6095 -0.4370  1.2217
16276TIP3   OH270318   6.743   1.092  14.448  0.5239  0.1888 -0.1267
16276TIP3    H170319   6.837   1.074  14.457  0.4306 -0.6111 -0.6570
16276TIP3    H270320   6.726   1.087  14.354 -0.1843 -0.4075  0.0224
16277TIP3   OH270321   4.516   5.931   4.371 -0.7156 -0.5131 -0.0143
16277TIP3    H170322   4.561   5.995   4.425 -0.4117  0.0219 -0.8848
16277TIP3    H270323   4.568   5.925   4.291 -1.3718 -0.9880 -0.4211
16278TIP3   OH270324   0.448   4.637   1.613  0.4731  0.3080 -0.1596
16278TIP3    H170325   0.522   4.581   1.591 -0.3086 -0.8202  0.0566
16278TIP3    H270326   0.468   4.721   1.571  0.0824 -1.1223 -3.2816
16279TIP3   OH270327   4.604   1.048   2.280  0.3843  0.1493 -0.1175
16279TIP3    H170328   4.601   0.964   2.235  0.3068  0.5114 -0.8073
16279TIP3    H270329   4.513   1.074   2.289  0.4480  0.7217 -1.0059
16280TIP3   OH270330   2.731   6.837   2.688  0.0236  0.2087 -0.3124
16280TIP3    H170331   2.727   6.742   2.680 -0.0806 -0.0185  2.1919
16280TIP3    H270332   2.724   6.869   2.598 -1.9034 -2.0705 -1.0110
16281TIP3   OH270333   1.914   5.599   0.214  0.2176  0.0045  0.3812
16281TIP3    H170334   1.920   5.624   0.306 -0.6044  0.9814  0.1745
16281TIP3    H270335   1.997   5.626   0.176 -0.0153  0.9339  0.5223
16282TIP3   OH270336   6.709   3.556   3.833  0.3826  1.2034 -0.3198
16282TIP3    H170337   6.723   3.483   3.773 -3.4649 -0.0872  0.2235
16282TIP3    H270338   6.773   3.542   3.903  0.4498 -1.0072 -0.7958
16283TIP3   OH270339   6.404   4.817   4.478  0.3224  0.1939  0.1147
16283TIP3    H170340   6.336   4.866   4.431 -2.2363 -0.5940  2.7946
16283TIP3    H270341   6.433   4.750   4.415 -0.1346  1.6365 -1.6799
16284TIP3   OH270342   0.169   5.030  14.946 -0.2248 -0.4447 -0.4111
16284TIP3    H170343   0.173   5.116  14.903  0.3915 -1.3072 -2.1440
16284TIP3    H270344   0.139   5.048  15.035 -1.2405  1.4323 -1.1276
16285TIP3   OH270345   1.567   4.529   3.009  0.3275  0.8119  0.1615
16285TIP3    H170346   1.644   4.579   3.036  0.4783 -0.1957  1.7065
16285TIP3    H270347   1.595   4.480   2.932  1.4695 -0.1116  1.1492
16286TIP3   OH270348   3.652   3.110   4.752  0.1129  0.2098 -0.5962
16286TIP3    H170349   3.711   3.171   4.708 -1.1005  0.3184 -2.1035
16286TIP3    H270350   3.708   3.037   4.778  0.6968 -0.2664 -3.1487
16287TIP3   OH270351   0.683   5.677   3.994 -0.3998 -0.2775 -0.1981
16287TIP3    H170352   0.672   5.706   4.085 -0.9656 -0.0630 -0.3349
16287TIP3    H270353   0.659   5.753   3.942  2.9245  0.6566 -0.5143
16288TIP3   OH270354   3.262   4.033   1.128 -0.0545  0.0032  0.1187
16288TIP3    H170355   3.273   3.944   1.094 -0.5995 -0.0136 -0.0108
16288TIP3    H270356   3.170   4.039   1.151  0.3493 -0.0342  1.7602
16289TIP3   OH270357   6.253   5.633   0.687 -0.0020 -0.3800 -0.6167
16289TIP3    H170358   6.216   5.712   0.647  0.6267 -0.6276 -1.7013
16289TIP3    H270359   6.234   5.643   0.780  0.0202  1.0302 -0.7443
16290TIP3   OH270360   0.680   4.165   3.642  0.1866  0.0845 -0.0725
16290TIP3    H170361   0.608   4.182   3.582  0.8720  0.2956 -0.8516
16290TIP3    H270362   0.648   4.097   3.700 -1.0722  1.0156  0.3524
16291TIP3   OH270363   0.166   1.206   3.955 -0.1266 -0.4517  0.4984
16291TIP3    H170364   0.071   1.214   3.963  0.1067 -0.2331  3.5375
16291TIP3    H270365   0.184   1.113   3.967 -0.0107 -0.6892 -1.2815
16292TIP3   OH270366   0.048   1.945   5.295 -0.1840  0.2178  0.8346
16292TIP3    H170367   0.006   1.905   5.219  1.1203 -0.1927  0.3216
16292TIP3    H270368  -0.017   1.937   5.365 -1.2721  0.3166 -0.1501
16293TIP3   OH270369   1.060   5.993   4.946  0.6501 -0.1320  0.3257
16293TIP3    H170370   0.969   6.021   4.933  0.5067  1.4348  3.9541
16293TIP3    H270371   1.060   5.951   5.033  3.5270  0.6244  0.7474
16294TIP3   OH270372   5.464   6.810   4.162 -0.6302 -0.3058  0.0580
16294TIP3    H170373   5.478   6.838   4.072 -0.3251  0.8769  0.4661
16294TIP3    H270374   5.550   6.822   4.204 -0.9881 -0.0235  0.7162
16295TIP3   OH270375   2.099   5.855   3.235  0.0260  0.0315  0.2558
16295TIP3    H170376   2.137   5.871   3.148 -0.4190 -1.0889 -0.1557
16295TIP3    H270377   2.013   5.818   3.216  0.1672 -0.7923  1.1699
16296TIP3   OH270378   1.857   4.750  15.119  0.2426 -0.0914  0.1143
16296TIP3    H170379   1.857   4.806  15.041 -1.8118 -1.0740 -0.6424
16296TIP3    H270380   1.855   4.661  15.084 -2.0516 -0.5237  1.2318
16297TIP3   OH270381   6.878   0.981   2.928  0.2096 -0.6494 -0.4047
16297TIP3    H170382   6.871   1.023   2.842  2.6642  1.3774  0.3354
16297TIP3    H270383   6.805   1.017   2.978  0.2746  0.1144 -0.8452
16298TIP3   OH270384   1.680   5.841   2.024  0.2094 -0.7247 -0.6361
16298TIP3    H170385   1.605   5.894   1.996 -2.2450 -3.2122  1.0730
16298TIP3    H270386   1.679   5.846   2.119  0.9589 -2.4641 -0.5177
16299TIP3   OH270387   3.156   0.125  13.767 -0.1032 -0.5415 -0.1549
16299TIP3    H170388   3.184   0.035  13.785 -1.4970 -0.7962  0.8221
16299TIP3    H270389   3.139   0.162  13.853  0.7663  0.7718 -0.5366
16300TIP3   OH270390   3.989   4.397   0.638 -0.2838 -0.0731 -0.1454
16300TIP3    H170391   4.001   4.439   0.723  1.8908 -1.8521  0.4842
16300TIP3    H270392   4.075   4.404   0.596 -1.4287  1.1438 -2.4033
16301TIP3   OH270393   0.630   0.748   3.401 -0.4675  0.3166  0.2484
16301TIP3    H170394   0.723   0.762   3.421 -0.3307 -0.6139  0.2550
16301TIP3    H270395   0.626   0.659   3.368 -1.2714  0.5781 -0.3571
16302TIP3   OH270396   3.387   5.515   3.330  0.6182 -0.1566  0.5710
16302TIP3    H170397   3.373   5.601   3.370  0.3576  0.3158 -0.5151
16302TIP3    H270398   3.334   5.455   3.382  0.8390  0.3298  1.3666
16303TIP3   OH270399   6.751   0.161   4.243  0.2408  0.1576  0.9007
16303TIP3    H170400   6.827   0.148   4.187 -0.3959  0.1344  0.0371
16303TIP3    H270401   6.729   0.253   4.234  0.4685  0.2808  1.5442
16304TIP3   OH270402   3.501   4.146   4.460 -0.4981 -0.0224  0.2378
16304TIP3    H170403   3.489   4.219   4.400 -1.1663  0.4831  0.9751
16304TIP3    H270404   3.437   4.080   4.430 -0.4328  0.0011  0.0470
16305TIP3   OH270405   1.217   6.841   0.860 -0.2411  0.8892 -0.5426
16305TIP3    H170406   1.312   6.855   0.860 -0.1558  0.3110 -0.2954
16305TIP3    H270407   1.184   6.896   0.931  0.2561 -1.2085  1.3712
16306TIP3   OH270408   3.281   4.198   2.780 -0.1480 -0.3669  0.1744
16306TIP3    H170409   3.309   4.126   2.723  0.3018  0.0029 -0.0739
16306TIP3    H270410   3.194   4.222   2.747  0.2018 -0.0114 -0.4911
16307TIP3   OH270411   2.384   4.367   3.461 -0.4952  0.3547  0.0077
16307TIP3    H170412   2.414   4.363   3.552  0.4804 -0.5083 -0.3471
16307TIP3    H270413   2.412   4.453   3.430  3.3886 -1.1579 -0.9109
16308TIP3   OH270414   1.581   5.833   4.723 -0.0455  0.3725 -0.2616
16308TIP3    H170415   1.675   5.825   4.709  0.0424 -2.8211  1.6850
16308TIP3    H270416   1.542   5.789   4.647  0.0969 -0.5447  0.1894
16309TIP3   OH270417   4.899   5.284   2.402 -0.2433  0.6471  0.1535
16309TIP3    H170418   4.982   5.238   2.406 -0.2837  0.4955 -0.5820
16309TIP3    H270419   4.837   5.218   2.372  0.0464  1.6043 -2.7024
16310TIP3   OH270420   0.322   6.598   1.610  0.4403  0.0269  0.3644
16310TIP3    H170421   0.291   6.625   1.696  2.6847  2.3093  0.5144
16310TIP3    H270422   0.244   6.603   1.554 -0.3979  1.4292  1.6153
16311TIP3   OH270423   5.254   2.063   1.737 -0.2879  0.3304  0.1743
16311TIP3    H170424   5.308   2.137   1.708  1.7109 -0.8538  0.7966
16311TIP3    H270425   5.299   2.030   1.815 -0.7878 -1.9780 -0.4979
16312TIP3   OH270426   3.057   0.130   3.884  0.7015  0.7069  0.7191
16312TIP3    H170427   3.069   0.086   3.800 -1.1248 -0.4037  1.0074
16312TIP3    H270428   3.048   0.059   3.947 -2.6157  1.4259  1.1494
16313TIP3   OH270429   2.438   7.076   0.783 -0.3766  0.0680 -0.3974
16313TIP3    H170430   2.389   7.148   0.743 -2.0057 -0.4205  0.6713
16313TIP3    H270431   2.514   7.064   0.726 -1.3353  1.0433 -1.9052
16314TIP3   OH270432   0.137   0.420   1.801  0.0688 -0.6851 -0.6988
16314TIP3    H170433   0.059   0.365   1.796 -0.7659  0.1265  2.1619
16314TIP3    H270434   0.172   0.403   1.888  0.8067  1.9203 -0.4334
16315TIP3   OH270435   3.024   4.781   3.094  0.0190 -0.2616 -0.6829
16315TIP3    H170436   3.055   4.872   3.099  2.2969 -1.0776  0.7493
16315TIP3    H270437   3.069   4.744   3.019  0.8717 -0.8368  0.1005
16316TIP3   OH270438   0.428   1.632   4.489 -0.0618  0.0253 -0.0756
16316TIP3    H170439   0.466   1.572   4.554 -1.7381 -1.3973 -0.3802
16316TIP3    H270440   0.350   1.668   4.532 -1.1797 -0.9221 -1.2817
16317TIP3   OH270441   2.589   4.643   1.996 -0.1101  0.4288  0.1255
16317TIP3    H170442   2.595   4.640   2.092 -1.4014  1.0598  0.2391
16317TIP3    H270443   2.495   4.648   1.978  0.1923  2.1472 -1.1164
16318TIP3   OH270444   1.437   0.970   4.522 -0.1593 -0.3202 -0.6779
16318TIP3    H170445   1.373   1.036   4.498 -0.5918 -0.5545 -0.1976
16318TIP3    H270446   1.506   0.977   4.456  0.1308  1.0673 -0.2239
16319TIP3   OH270447   5.443   6.115   5.459  0.0250 -0.3621 -0.1610
16319TIP3    H170448   5.534   6.117   5.432 -0.3314 -0.8242 -1.4156
16319TIP3    H270449   5.399   6.178   5.403 -0.5696 -0.7048 -0.0869
16320TIP3   OH270450   1.391   5.104   1.162 -0.2578  0.2450 -0.1614
16320TIP3    H170451   1.460   5.147   1.213 -0.1124  0.2088 -0.3266
16320TIP3    H270452   1.431   5.090   1.076 -0.0259 -0.9359  0.1276
16321TIP3   OH270453   3.161   2.906   5.042  0.1478 -0.5000 -0.1251
16321TIP3    H170454   3.086   2.930   4.989 -1.1537 -1.2293  1.3387
16321TIP3    H270455   3.237   2.925   4.987 -1.0708  0.9434 -1.3359
16322TIP3   OH270456   5.005   6.027   1.377  0.3146  0.4244 -0.0700
16322TIP3    H170457   5.092   5.993   1.358  0.2306 -0.8632  1.6987
16322TIP3    H270458   4.946   5.974   1.323  0.5074  0.3002 -0.1582
16323TIP3   OH270459   3.195   6.777   4.775 -0.7523  0.4216  0.0972
16323TIP3    H170460   3.210   6.686   4.801 -1.8448  0.3716  0.5833
16323TIP3    H270461   3.140   6.771   4.697  0.0432  0.6450 -0.4878
16324TIP3   OH270462   5.366   6.506   5.572 -0.2434 -0.3593  0.4208
16324TIP3    H170463   5.416   6.436   5.530 -0.8626 -1.4297  1.4288
16324TIP3    H270464   5.424   6.538   5.641  0.4418  0.8299 -0.6858
16325TIP3   OH270465   1.247   6.977   4.621  0.0037  0.2350  0.2247
16325TIP3    H170466   1.261   6.994   4.528 -0.0388  0.5798  0.2804
16325TIP3    H270467   1.330   6.941   4.652 -0.5061 -1.4052 -0.2994
16326TIP3   OH270468   4.639   0.937   4.360 -0.2313 -0.6174 -0.0312
16326TIP3    H170469   4.726   0.953   4.397 -0.7819  2.6270 -0.0615
16326TIP3    H270470   4.578   0.964   4.428 -1.2498 -2.7988 -0.0453
16327TIP3   OH270471   6.382   6.643   1.999  0.4454 -0.1813  0.3577
16327TIP3    H170472   6.385   6.739   2.005 -0.9454 -0.0401 -0.9675
16327TIP3    H270473   6.290   6.623   1.980  0.7468 -1.7774  0.5421
16328TIP3   OH270474   5.395   2.760   0.415 -0.0536 -0.3481  0.5496
16328TIP3    H170475   5.467   2.778   0.355  0.2037 -0.2658  0.8850
16328TIP3    H270476   5.379   2.666   0.406  0.5679 -0.5002  1.0065
16329TIP3   OH270477   3.515   5.191   6.122  1.0334 -0.3590  0.2636
16329TIP3    H170478   3.595   5.215   6.168  0.2359  2.0953  0.4280
16329TIP3    H270479   3.527   5.227   6.034  0.6585 -1.1334 -0.1059
16330TIP3   OH270480   2.099   4.910   5.174  0.5138 -0.1690  0.0989
16330TIP3    H170481   2.012   4.872   5.161  0.2347  1.4681 -3.2624
16330TIP3    H270482   2.160   4.839   5.153  0.0003 -0.4009 -0.6103
16331TIP3   OH270483   4.129   4.030   1.781  0.0670  0.2333 -0.0171
16331TIP3    H170484   4.149   4.050   1.690  0.5801  1.3853  0.3317
16331TIP3    H270485   4.067   3.958   1.777 -1.0855  1.2735 -1.3293
16332TIP3   OH270486   4.873   6.666   4.579  0.1614  0.2211  0.4471
16332TIP3    H170487   4.882   6.759   4.560  0.5497  0.2030  0.5343
16332TIP3    H270488   4.780   6.654   4.601 -0.0222  0.4758 -0.1585
16333TIP3   OH270489   6.908   6.558   5.253 -0.1743 -0.7506 -0.0882
16333TIP3    H170490   6.830   6.504   5.266 -0.1662 -0.1520  2.7380
16333TIP3    H270491   6.875   6.638   5.210 -0.3305 -2.4541 -3.3323
16334TIP3   OH270492   4.956   5.973   1.737  0.7810  0.1091 -0.0009
16334TIP3    H170493   4.907   5.956   1.657  0.1015  2.3756 -0.1040
16334TIP3    H270494   4.993   5.888   1.761 -0.2487 -0.9047 -1.8771
16335TIP3   OH270495   3.494   0.789   4.986  0.2105 -0.3934 -0.2156
16335TIP3    H170496   3.560   0.752   5.045 -0.0006 -0.8764 -0.2754
16335TIP3    H270497   3.517   0.881   4.979  0.1868 -0.3105  0.6929
16336TIP3   OH270498   5.812   4.991   1.658  0.2365 -0.4440 -0.1090
16336TIP3    H170499   5.872   4.948   1.597 -0.3809 -1.3230 -0.1029
16336TIP3    H270500   5.857   4.987   1.743  0.8527  0.2938 -0.3951
16337TIP3   OH270501   5.962   1.398   3.305  1.1166  0.6955 -0.0639
16337TIP3    H170502   5.910   1.472   3.336 -1.6867 -1.1998 -0.0892
16337TIP3    H270503   6.051   1.433   3.300  0.5514  3.0105  3.5331
16338TIP3   OH270504   3.200   6.710   1.188 -0.6735 -0.7142  0.2585
16338TIP3    H170505   3.138   6.653   1.142 -1.5970 -0.3493  1.0393
16338TIP3    H270506   3.153   6.738   1.267  0.8951 -1.3666  1.4597
16339TIP3   OH270507   1.014   4.525   1.929  0.2278 -0.3363 -0.0860
16339TIP3    H170508   1.025   4.513   1.835 -0.5619  2.4840 -0.6005
16339TIP3    H270509   0.924   4.557   1.938  1.3339  2.5558  1.2535
16340TIP3   OH270510   6.971   3.935   2.526 -0.1251 -0.1872 -0.0761
16340TIP3    H170511   6.879   3.947   2.548 -0.4946  2.3258 -2.6675
16340TIP3    H270512   7.018   3.954   2.607 -1.7301  1.6979  0.4493
16341TIP3   OH270513   7.089   6.757   2.815  0.4758 -0.2648  0.6606
16341TIP3    H170514   7.090   6.667   2.783 -0.8298 -0.7111  1.8180
16341TIP3    H270515   7.105   6.750   2.909  3.1689  0.9439  0.3379
16342TIP3   OH270516   3.932   3.464   4.925  0.9219 -0.0209  0.4168
16342TIP3    H170517   3.894   3.378   4.946 -0.2146 -0.0157 -1.5222
16342TIP3    H270518   3.867   3.527   4.956  0.1860  0.0415 -1.2471
16343TIP3   OH270519   0.670   0.298   3.729 -0.2945 -0.4776 -0.8695
16343TIP3    H170520   0.617   0.378   3.723 -0.7690 -0.7804 -0.7061
16343TIP3    H270521   0.693   0.278   3.638  2.3157  1.4971 -0.7043
16344TIP3   OH270522   3.036   5.861   2.408  0.4550  0.2771 -0.1331
16344TIP3    H170523   3.082   5.836   2.488 -2.0988 -2.4965  0.5509
16344TIP3    H270524   2.985   5.938   2.433  2.7504  1.9050 -0.2602
16345TIP3   OH270525   1.349   6.027   2.500 -0.4648  0.4046 -0.3673
16345TIP3    H170526   1.318   6.093   2.439  0.1617  1.2681  0.2400
16345TIP3    H270527   1.347   6.070   2.585  1.1013  0.0347 -0.1305
16346TIP3   OH270528   3.611   6.908   3.761 -0.6258  0.5998 -0.0063
16346TIP3    H170529   3.568   6.855   3.693  1.0205  1.1220 -1.4729
16346TIP3    H270530   3.547   6.910   3.832 -2.1610 -0.4314 -1.2982
16347TIP3   OH270531   0.989   6.382   5.185  0.4819 -0.1012 -0.3700
16347TIP3    H170532   0.949   6.306   5.226  0.9213  0.2063  0.6413
16347TIP3    H270533   1.052   6.346   5.123  0.0132 -0.5655 -0.5826
16348TIP3   OH270534   2.198   6.163   2.195  0.2897 -0.5649 -0.0507
16348TIP3    H170535   2.133   6.094   2.180 -0.5743  0.1192  0.5421
16348TIP3    H270536   2.210   6.203   2.108 -0.0137 -0.7530 -0.1811
16349TIP3   OH270537   5.833   4.977   5.214 -0.2557 -0.6115 -0.2703
16349TIP3    H170538   5.753   5.023   5.188  0.2187  0.5703  0.3415
16349TIP3    H270539   5.856   4.924   5.137 -0.0976  1.1629 -1.4878
16350TIP3   OH270540   5.900   0.414   2.270 -0.0097 -0.0912 -0.1478
16350TIP3    H170541   5.839   0.485   2.252 -1.9165 -1.4881  0.5881
16350TIP3    H270542   5.846   0.335   2.267  1.7365 -1.3535  0.7179
16351TIP3   OH270543   2.661   6.985  15.394 -0.9129  0.0936 -0.1725
16351TIP3    H170544   2.695   7.023  15.313  0.7290  0.2717  0.5888
16351TIP3    H270545   2.632   7.061  15.445  1.2628  0.2934  0.8422
16352TIP3   OH270546   0.028   0.647   0.154  0.1579  0.2731 -0.5188
16352TIP3    H170547   0.111   0.628   0.197  0.1770  1.8475  0.1785
16352TIP3    H270548  -0.037   0.639   0.224 -0.3787 -1.5853 -1.1967
16353TIP3   OH270549   0.335   4.902  12.805 -0.1391  0.2498  0.1582
16353TIP3    H170550   0.290   4.983  12.777 -1.7704 -0.7079 -0.0570
16353TIP3    H270551   0.352   4.855  12.723  0.2287  0.0756  0.3377
16354TIP3   OH270552   0.316   5.522   3.810 -0.7161 -0.4399 -0.0410
16354TIP3    H170553   0.378   5.498   3.879 -0.7453  0.1589  0.1942
16354TIP3    H270554   0.251   5.451   3.811  0.4650 -1.5610 -0.9215
16355TIP3   OH270555   0.570   5.003   0.208 -0.1675  0.4531  0.4284
16355TIP3    H170556   0.530   5.018   0.293 -0.0816  0.2572  0.5033
16355TIP3    H270557   0.650   4.954   0.227 -1.5625 -2.0681  0.0060
16356TIP3   OH270558   1.115   5.860   1.237 -0.6267  0.1126  0.2433
16356TIP3    H170559   1.152   5.784   1.281  2.0521  0.2846 -1.5562
16356TIP3    H270560   1.184   5.888   1.176 -2.1874  2.9771 -0.2977
16357TIP3   OH270561   1.049   1.998  15.499  0.0072 -0.4056  0.0098
16357TIP3    H170562   1.112   2.030  15.435 -0.0841 -0.7009 -0.2319
16357TIP3    H270563   0.974   2.057  15.490 -0.8120 -1.6246 -1.5696
16358TIP3   OH270564   5.088   3.147   0.027 -0.0896 -0.2343 -0.4544
16358TIP3    H170565   5.076   3.054   0.046 -2.7695 -0.0448 -1.0531
16358TIP3    H270566   5.033   3.192   0.091  0.2685  0.8876 -0.9180
16359TIP3   OH270567   7.096   6.021   1.699 -0.5979  0.7964  0.5544
16359TIP3    H170568   7.042   5.942   1.712 -3.8231  3.0086  1.2974
16359TIP3    H270569   7.157   6.020   1.772 -0.3656 -1.1686  0.3789
16360TIP3   OH270570   2.740   0.416   1.240 -0.1284 -0.0818 -0.4428
16360TIP3    H170571   2.774   0.482   1.179  2.1971  0.0552  0.9153
16360TIP3    H270572   2.646   0.430   1.242  0.4302  4.2354  0.9151
16361TIP3   OH270573   4.209   4.655   3.232 -0.0965  0.5520 -0.5389
16361TIP3    H170574   4.212   4.621   3.142 -0.9595  1.2976 -0.8571
16361TIP3    H270575   4.163   4.587   3.282  0.5784  0.0370 -0.6183
16362TIP3   OH270576   6.756   6.401   2.670 -0.4426  0.5819 -0.4611
16362TIP3    H170577   6.681   6.403   2.729 -1.3105 -1.5535 -1.4264
16362TIP3    H270578   6.831   6.422   2.726 -1.5261  0.8500  0.9114
16363TIP3   OH270579   4.056   4.772   1.464  0.2367  0.5342 -0.5535
16363TIP3    H170580   4.140   4.806   1.433  0.0836  1.7500  0.3476
16363TIP3    H270581   4.002   4.850   1.477 -0.1443 -0.0554  1.4347
16364TIP3   OH270582   6.813   1.319   5.185 -0.0020  0.2601  0.1958
16364TIP3    H170583   6.733   1.361   5.216 -0.0944  0.7015 -0.6144
16364TIP3    H270584   6.849   1.381   5.122 -0.9116 -1.4760 -2.1512
16365TIP3   OH270585   2.445   4.992   3.078 -0.1100 -0.0909  0.5705
16365TIP3    H170586   2.358   4.993   3.118 -1.5411  0.4390 -2.4046
16365TIP3    H270587   2.455   5.081   3.044  0.6626 -0.7751 -1.0046
16366TIP3   OH270588   1.740   0.490   3.112 -0.6456  0.0364  0.3592
16366TIP3    H170589   1.741   0.394   3.114  0.1663  0.0074 -0.9524
16366TIP3    H270590   1.831   0.515   3.125 -0.7972  0.6231  0.2794
16367TIP3   OH270591   1.621   1.486   4.803  0.2897 -0.4870 -0.5282
16367TIP3    H170592   1.552   1.471   4.868 -0.5553  1.7985 -0.8639
16367TIP3    H270593   1.647   1.577   4.816  2.6173 -1.0467 -1.0338
16368TIP3   OH270594   6.723   3.984   3.371 -0.4590 -0.0858 -0.8418
16368TIP3    H170595   6.691   4.035   3.445  0.9246  0.0503 -0.3170
16368TIP3    H270596   6.783   3.921   3.410 -3.5441 -3.3992 -1.2521
16369TIP3   OH270597   1.284   5.557   5.178 -0.1995  0.5444  0.5459
16369TIP3    H170598   1.222   5.569   5.250  1.8569 -0.3759  2.5359
16369TIP3    H270599   1.308   5.645   5.152  0.3897  0.8764  2.1962
16370TIP3   OH270600   4.520   0.103   5.391 -0.4659 -0.0192 -0.2790
16370TIP3    H170601   4.499   0.035   5.455 -0.9049 -0.1613 -0.5697
16370TIP3    H270602   4.612   0.091   5.372 -0.4625 -0.3169 -0.0762
16371TIP3   OH270603   1.498   4.496   5.475 -0.1680  0.1779  0.9173
16371TIP3    H170604   1.501   4.402   5.492 -1.9516 -0.1406 -0.4268
16371TIP3    H270605   1.487   4.535   5.562  0.3983 -0.8508  1.4668
16372TIP3   OH270606   6.966   5.296   4.605 -0.6318 -0.3857 -0.5441
16372TIP3    H170607   7.012   5.226   4.651 -0.5317 -1.9695 -2.9504
16372TIP3    H270608   6.877   5.293   4.639  0.6758  2.0635  3.4300
16373TIP3   OH270609   4.180   6.468   1.960  0.0468  0.0234 -0.2030
16373TIP3    H170610   4.153   6.376   1.955  0.1912 -0.1638  1.9774
16373TIP3    H270611   4.154   6.505   1.875 -1.9199 -1.5144 -0.3168
16374TIP3   OH270612   4.027   3.256  13.908 -0.4354 -0.2721  0.0640
16374TIP3    H170613   4.093   3.320  13.881  0.4975 -1.6947 -1.1307
16374TIP3    H270614   3.943   3.295  13.883 -0.0326  1.3589  1.1909
16375TIP3   OH270615   1.111   2.986   3.285  0.6676  0.0843  0.3800
16375TIP3    H170616   1.127   3.078   3.260 -0.7172  0.3215  0.3400
16375TIP3    H270617   1.124   2.985   3.379  1.5581  0.1324  0.2620
16376TIP3   OH270618   1.204   3.093   5.444  0.1341  0.1713  0.6583
16376TIP3    H170619   1.142   3.095   5.517  0.8756 -1.8413  1.3854
16376TIP3    H270620   1.152   3.068   5.369  0.0503 -1.6400  1.2949
16377TIP3   OH270621   3.984   0.034  13.955 -0.1811 -0.1194 -0.3130
16377TIP3    H170622   4.074   0.024  13.987  0.0710 -1.3113 -1.3952
16377TIP3    H270623   3.971   0.129  13.948  1.0805  0.0440 -0.4204
16378TIP3   OH270624   0.802   2.300   1.905  0.3621  0.4022  0.2881
16378TIP3    H170625   0.872   2.236   1.896 -0.8542 -0.8257 -0.6268
16378TIP3    H270626   0.784   2.305   1.999  0.2999 -0.7671  0.3349
16379TIP3   OH270627   5.002   6.812   5.392  0.2750  0.0513 -0.0856
16379TIP3    H170628   5.078   6.867   5.375  1.3050 -1.3192  0.0093
16379TIP3    H270629   5.030   6.752   5.461 -1.8420  1.4374  2.0588
16380TIP3   OH270630   2.925   0.333   2.881 -0.6030 -0.7055 -0.5893
16380TIP3    H170631   2.992   0.307   2.944  1.5559  0.8161 -2.2039
16380TIP3    H270632   2.884   0.250   2.854  1.8641 -1.8587 -0.9291
16381TIP3   OH270633   1.564   5.539  14.184 -0.5075  0.1457 -0.2935
16381TIP3    H170634   1.648   5.493  14.174  0.3901  1.6658  0.1002
16381TIP3    H270635   1.570   5.582  14.269 -0.0033  3.5722 -1.9530
16382TIP3   OH270636   2.753   0.076   3.037 -0.3278 -1.0475  0.3195
16382TIP3    H170637   2.716   0.112   2.957  0.8718  0.5779  0.4783
16382TIP3    H270638   2.676   0.054   3.091 -1.1126  2.1966  0.6125
16383TIP3   OH270639   4.756   6.825   3.445 -0.2172 -0.1210 -0.1284
16383TIP3    H170640   4.827   6.776   3.487 -1.5694 -1.3150  0.8128
16383TIP3    H270641   4.768   6.809   3.351  0.7992 -0.2792  0.0282
16384TIP3   OH270642   0.158   0.287   0.510 -1.0074  0.7787  0.0326
16384TIP3    H170643   0.247   0.308   0.481 -0.1995  2.3241  3.4091
16384TIP3    H270644   0.104   0.354   0.469 -0.3148  1.1934 -0.2263
16385TIP3   OH270645   3.957   1.134   0.814  0.2074  0.8794 -0.3245
16385TIP3    H170646   3.874   1.129   0.861  0.8467  1.2827  0.8725
16385TIP3    H270647   3.981   1.042   0.798 -0.3630  0.7586 -0.5059
16386TIP3   OH270648   3.445   4.350   2.906  0.4379 -0.5667 -0.2774
16386TIP3    H170649   3.410   4.275   2.858  1.1110 -0.3891 -1.0628
16386TIP3    H270650   3.495   4.311   2.977 -0.7493 -0.8300  0.4250
16387TIP3   OH270651   3.252   3.234   2.676  0.5456  0.5252 -0.6182
16387TIP3    H170652   3.328   3.292   2.684  0.4285  0.3532  2.5529
16387TIP3    H270653   3.177   3.290   2.698  0.3219 -0.5353  1.4317
16388TIP3   OH270654   3.580   6.041   2.882 -0.0278 -0.1065  0.4506
16388TIP3    H170655   3.632   6.024   2.961  1.0365  0.3074 -0.1661
16388TIP3    H270656   3.519   6.110   2.909  0.3054  0.0090  0.9214
16389TIP3   OH270657   4.442   2.878   0.840  0.4986 -0.5567 -0.3405
16389TIP3    H170658   4.493   2.947   0.798  1.2266 -0.2035  1.0887
16389TIP3    H270659   4.495   2.799   0.829  1.5832 -0.1259  1.4514
16390TIP3   OH270660   5.435   3.312   5.430  0.2203  0.6269  0.0046
16390TIP3    H170661   5.514   3.294   5.379  0.7233 -0.9900  1.2985
16390TIP3    H270662   5.400   3.393   5.393  1.0936  0.0248 -2.2624
16391TIP3   OH270663   4.396   4.274  14.949  0.2828 -0.3813  0.8099
16391TIP3    H170664   4.391   4.184  14.915  0.5058 -0.3519  0.6974
16391TIP3    H270665   4.469   4.313  14.901  1.1013 -0.5766  1.8917
16392TIP3   OH270666   0.505   6.283   4.864 -0.2518  0.2741 -0.1661
16392TIP3    H170667   0.413   6.256   4.855  0.1859 -1.5145  0.4693
16392TIP3    H270668   0.552   6.231   4.799  0.7452 -1.3279  1.7341
16393TIP3   OH270669   5.165   1.738   4.185 -0.1814 -0.0574  0.4272
16393TIP3    H170670   5.210   1.792   4.121 -1.4576  0.2970 -0.1929
16393TIP3    H270671   5.182   1.648   4.156 -0.5230  0.0944 -0.2626
16394TIP3   OH270672   6.665   4.356   3.185  0.2164  0.7343 -0.5317
16394TIP3    H170673   6.616   4.301   3.124  1.6925 -1.4536  0.2220
16394TIP3    H270674   6.735   4.394   3.132 -0.5947  1.6685 -0.9686
16395TIP3   OH270675   1.537   0.468   5.418  0.2100 -0.4919 -0.3131
16395TIP3    H170676   1.472   0.406   5.386 -0.1045 -1.2389  1.7249
16395TIP3    H270677   1.489   0.522   5.481  0.8585  0.8625 -0.9535
16396TIP3   OH270678   4.301   1.441   1.211 -0.0055  0.1115 -0.1868
16396TIP3    H170679   4.218   1.481   1.183  0.3289  1.5914  0.8597
16396TIP3    H270680   4.307   1.462   1.304  2.5154  1.7566 -0.6863
16397TIP3   OH270681   0.685   4.826   3.122 -0.3965  0.0437 -0.2667
16397TIP3    H170682   0.694   4.914   3.158  0.0922  0.3038 -1.0055
16397TIP3    H270683   0.774   4.793   3.115 -0.4454  0.1286 -1.5287
16398TIP3   OH270684   0.001   5.517   3.259 -0.7628 -0.0297  0.6474
16398TIP3    H170685  -0.023   5.425   3.262 -1.7583  0.1754 -0.3681
16398TIP3    H270686   0.092   5.520   3.287 -0.5717 -1.3806  0.1796
16399TIP3   OH270687   3.875   0.982   1.805  0.2681 -0.6484  0.7399
16399TIP3    H170688   3.900   0.938   1.886  1.0975 -2.6958 -0.5906
16399TIP3    H270689   3.784   0.957   1.790  0.2312 -0.5691  0.8269
16400TIP3   OH270690   4.653   6.212   3.131  0.1690 -0.2074  0.3229
16400TIP3    H170691   4.648   6.119   3.112  0.3445 -0.1311 -0.1177
16400TIP3    H270692   4.740   6.224   3.170 -0.0663 -0.3143  0.8762
16401TIP3   OH270693   1.993   2.355   1.899 -0.1076 -0.3005  0.0288
16401TIP3    H170694   1.958   2.401   1.975 -1.3454 -0.4502 -0.4211
16401TIP3    H270695   1.918   2.303   1.867  0.5699 -0.7109 -0.9145
16402TIP3   OH270696   0.494   2.058   3.923 -0.4262  0.6608 -0.0175
16402TIP3    H170697   0.414   2.047   3.975 -1.7905  0.7294 -2.0727
16402TIP3    H270698   0.550   1.985   3.951 -0.7826  1.1730  2.1383
16403TIP3   OH270699   6.680   5.875   4.355 -0.8590  0.1453  0.0569
16403TIP3    H170700   6.634   5.958   4.352  0.4162  1.0199  2.8774
16403TIP3    H270701   6.611   5.810   4.370 -1.5338  1.0784  1.1075
16404TIP3   OH270702   2.340   6.547   1.146  0.1050 -0.2762 -0.5977
16404TIP3    H170703   2.306   6.559   1.235  0.0467  0.6989 -0.7467
16404TIP3    H270704   2.265   6.563   1.089  0.1498 -0.8634 -0.8191
16405TIP3   OH270705   7.191   0.390   2.529  0.2861  0.1051  0.3345
16405TIP3    H170706   7.219   0.481   2.513 -0.6127  0.3001 -0.1780
16405TIP3    H270707   7.119   0.398   2.591  1.3967 -0.3982  1.7046
16406TIP3   OH270708   0.347   5.343   1.311 -0.4835 -0.0527  0.1428
16406TIP3    H170709   0.304   5.360   1.227 -0.9608 -0.0280  0.3881
16406TIP3    H270710   0.439   5.361   1.295 -0.7546  1.2576 -0.0132
16407TIP3   OH270711   0.308   4.118   3.814  0.0829 -0.2636 -0.6291
16407TIP3    H170712   0.393   4.132   3.856 -0.4432 -0.5273  0.5229
16407TIP3    H270713   0.311   4.028   3.782  0.4232 -0.1102 -1.0390
16408TIP3   OH270714   1.460   1.283   3.554  0.0451 -0.0358  0.2561
16408TIP3    H170715   1.425   1.354   3.501 -1.0875 -0.5159  0.3635
16408TIP3    H270716   1.397   1.272   3.625  0.3466 -0.9701  0.3885
16409TIP3   OH270717   3.765   5.732   1.813  0.8488  0.3617  0.6652
16409TIP3    H170718   3.820   5.672   1.763 -1.6377 -0.5364 -1.0438
16409TIP3    H270719   3.727   5.791   1.748 -3.1509 -1.4017  1.2556
16410TIP3   OH270720   2.156   5.650   0.649  0.2225  0.6462 -0.3431
16410TIP3    H170721   2.172   5.598   0.570  0.8803  0.2159  0.0719
16410TIP3    H270722   2.170   5.741   0.620 -0.1491  0.5360 -0.8715
16411TIP3   OH270723   0.300   6.805   1.165  0.4446  0.0023 -0.2093
16411TIP3    H170724   0.262   6.851   1.090  1.9427  0.6802 -0.5578
16411TIP3    H270725   0.387   6.780   1.136  0.6731 -0.6152  0.9739
16412TIP3   OH270726   5.476   6.669  14.165 -0.1710 -0.4200 -0.6472
16412TIP3    H170727   5.457   6.576  14.176 -2.3562 -0.1762 -1.8063
16412TIP3    H270728   5.390   6.708  14.147  0.4229  2.1260  1.7103
16413TIP3   OH270729   0.789   0.129   3.092 -0.0808  0.8701 -0.6875
16413TIP3    H170730   0.817   0.124   3.001  0.6081  2.3449 -0.5649
16413TIP3    H270731   0.697   0.153   3.088  0.1921  1.8690 -0.9782
16414TIP3   OH270732   1.514   0.356  15.173 -0.1530  0.5030 -0.3523
16414TIP3    H170733   1.515   0.371  15.267 -1.5190  0.0246 -0.2406
16414TIP3    H270734   1.426   0.383  15.145  0.3283  0.8884 -1.5278
16415TIP3   OH270735   1.814   0.784   2.954  0.0433 -0.3634  0.4090
16415TIP3    H170736   1.860   0.700   2.946 -1.1291 -0.7965 -2.5835
16415TIP3    H270737   1.753   0.771   3.026  1.3236 -1.3515  1.3474
16416TIP3   OH270738   0.522   5.646   0.808 -0.6694  0.2610  0.1522
16416TIP3    H170739   0.491   5.555   0.807 -0.4118  0.1699  0.5660
16416TIP3    H270740   0.470   5.689   0.740  0.3086 -0.5575 -1.1463
16417TIP3   OH270741   2.337   6.343   2.485 -0.1424 -0.1064 -0.4161
16417TIP3    H170742   2.345   6.367   2.578 -1.9132  0.9790 -0.5214
16417TIP3    H270743   2.394   6.405   2.440  0.7411 -0.6497 -0.0666
16418TIP3   OH270744   7.166   3.708   1.620  0.4722  0.0326 -0.6051
16418TIP3    H170745   7.238   3.646   1.627  1.8179  1.6398  0.2544
16418TIP3    H270746   7.180   3.751   1.535  1.8858  1.9328  0.5458
16419TIP3   OH270747   1.884   3.737   3.604 -0.0405 -0.5458  0.0083
16419TIP3    H170748   1.884   3.643   3.625  2.1360 -0.4028  0.7648
16419TIP3    H270749   1.976   3.763   3.608 -0.7523  1.9514  1.2268
16420TIP3   OH270750   3.033   0.624  12.341  0.0651  0.0095 -0.0770
16420TIP3    H170751   3.088   0.607  12.417  1.5994  1.7520 -0.7526
16420TIP3    H270752   3.092   0.618  12.266 -1.5891 -2.4990 -1.2562
16421TIP3   OH270753   0.499   5.797   2.809  0.0403  0.6751 -0.3167
16421TIP3    H170754   0.451   5.716   2.793 -0.3766  0.9165 -0.2876
16421TIP3    H270755   0.592   5.772   2.804 -0.0627 -0.1874  1.6243
16422TIP3   OH270756   3.141   4.396   3.455  0.4192  0.1417 -0.3313
16422TIP3    H170757   3.216   4.453   3.473  0.0640  0.5718 -0.1998
16422TIP3    H270758   3.096   4.439   3.382 -0.6263  0.7864  0.6575
16423TIP3   OH270759   6.807   6.352   4.450  0.1592 -0.4265  0.2716
16423TIP3    H170760   6.720   6.381   4.422  0.6606 -0.1676 -1.0287
16423TIP3    H270761   6.866   6.424   4.429  0.7048 -0.5963  1.1566
16424TIP3   OH270762   2.838   1.450   2.276  0.0243 -0.4362  0.3558
16424TIP3    H170763   2.924   1.421   2.306 -1.2221 -3.3099  1.2998
16424TIP3    H270764   2.779   1.377   2.296 -2.3663  0.8412 -1.6972
16425TIP3   OH270765   4.191   2.306   4.062  0.1685  0.2125 -0.4120
16425TIP3    H170766   4.117   2.302   4.123 -1.6738  1.2383 -2.5128
16425TIP3    H270767   4.265   2.333   4.116 -0.7009 -1.8656  1.9577
16426TIP3   OH270768   0.729   1.159   4.034  0.4176 -0.5729 -0.0317
16426TIP3    H170769   0.722   1.230   4.098  0.8071  1.5116 -2.2332
16426TIP3    H270770   0.641   1.150   3.998  0.6060 -0.4715 -0.5198
16427TIP3   OH270771   3.979   1.476   2.024 -0.0962 -0.0129 -0.9518
16427TIP3    H170772   3.957   1.484   2.117 -1.4250  0.0556 -1.2667
16427TIP3    H270773   4.045   1.406   2.021  1.2847  1.1938  0.2366
16428TIP3   OH270774   3.305   7.043   3.953 -0.0120  0.0965  0.5980
16428TIP3    H170775   3.330   7.132   3.925  1.2065 -0.7395 -1.1098
16428TIP3    H270776   3.241   7.056   4.022 -1.3364  2.3070 -1.0055
16429TIP3   OH270777   6.356   3.104   1.741 -0.0994  0.5401  0.1417
16429TIP3    H170778   6.382   3.069   1.656  1.0872  1.9900 -0.1134
16429TIP3    H270779   6.361   3.199   1.730 -0.4455  0.7419  1.6727
16430TIP3   OH270780   0.451   6.048   0.562  0.2479  0.0168 -0.0115
16430TIP3    H170781   0.367   6.021   0.599  0.2127  0.5302  0.2970
16430TIP3    H270782   0.489   6.107   0.628 -0.2433  1.7077 -1.1941
16431TIP3   OH270783   1.406   0.529   2.535 -0.0379 -0.1121 -0.4114
16431TIP3    H170784   1.479   0.586   2.510 -0.1225  1.2277  2.1298
16431TIP3    H270785   1.443   0.441   2.532  0.7468  0.2563 -2.2544
16432TIP3   OH270786   3.742   2.368   5.303  0.0299  0.1951 -0.0866
16432TIP3    H170787   3.766   2.356   5.394  1.5580  0.3664 -0.4548
16432TIP3    H270788   3.777   2.455   5.281  2.7477 -1.2627 -1.7928
16433TIP3   OH270789   0.837   3.246   0.621  0.6794 -0.4254 -0.0098
16433TIP3    H170790   0.753   3.290   0.605  0.8022  0.2511  1.1470
16433TIP3    H270791   0.812   3.159   0.653  0.4347 -0.6241 -0.7137
16434TIP3   OH270792   4.067   1.238   2.773  0.5918  0.0579 -0.1662
16434TIP3    H170793   3.986   1.254   2.724  0.1016  0.2722  0.6998
16434TIP3    H270794   4.111   1.169   2.724 -0.5910 -0.7498 -0.1106
16435TIP3   OH270795   5.405   5.429   3.535 -0.1574  0.2865  0.6955
16435TIP3    H170796   5.418   5.359   3.599  0.5368  0.3689  0.6489
16435TIP3    H270797   5.493   5.464   3.520 -0.4781  1.0344  0.5653
16436TIP3   OH270798   0.770   0.163   1.507 -0.1196 -0.1040 -0.0503
16436TIP3    H170799   0.791   0.118   1.424 -0.2815 -1.5222  0.6622
16436TIP3    H270800   0.854   0.198   1.536  0.6245 -2.5899  0.9176
16437TIP3   OH270801   3.031   1.994   2.753  0.0202 -0.2129  0.2050
16437TIP3    H170802   2.982   2.055   2.807 -0.4335  0.3610 -0.8431
16437TIP3    H270803   2.967   1.927   2.729 -0.0020 -0.0097 -0.3164
16438TIP3   OH270804   1.034   5.312   3.500 -0.0102  0.5577 -0.0384
16438TIP3    H170805   1.090   5.281   3.571  0.1570 -0.8769 -0.7852
16438TIP3    H270806   1.071   5.274   3.421 -1.2807  0.6348 -0.6943
16439TIP3   OH270807   1.108   3.563   1.891 -0.0084 -0.4101 -0.1563
16439TIP3    H170808   1.044   3.633   1.899 -0.2248 -0.3654 -2.0364
16439TIP3    H270809   1.055   3.483   1.889 -0.0077 -0.3954 -1.3482
16440TIP3   OH270810   2.916   0.595   2.889 -0.3553 -0.1384 -0.0773
16440TIP3    H170811   2.863   0.614   2.966  1.6516  0.3739  1.2119
16440TIP3    H270812   2.887   0.508   2.861  0.3354 -1.2468  2.5252
16441TIP3   OH270813   4.735   4.874  14.811  0.3577 -0.3713 -0.0033
16441TIP3    H170814   4.824   4.839  14.812  0.2071 -0.7479  0.4917
16441TIP3    H270815   4.679   4.797  14.825 -0.1775 -0.5096 -2.6701
16442TIP3   OH270816   1.013   2.906   1.948  0.6432  0.4128  0.3449
16442TIP3    H170817   0.992   2.900   1.855  0.5633  1.0332  0.3173
16442TIP3    H270818   0.937   2.951   1.987  0.7423  0.2922  0.6796
16443TIP3   OH270819   1.925   0.453   4.836  0.0646  0.5519 -0.1668
16443TIP3    H170820   2.021   0.450   4.843  0.2142  1.0993 -1.7310
16443TIP3    H270821   1.900   0.531   4.885  0.3481  0.0235  0.8417
16444TIP3   OH270822   3.796   6.522   3.245  0.2302 -1.2490  0.1999
16444TIP3    H170823   3.875   6.492   3.199  0.2596  0.7265 -1.0959
16444TIP3    H270824   3.764   6.596   3.193 -1.9322 -1.3941  1.2609
16445TIP3   OH270825   3.591   6.568   5.006 -0.1740  0.0999  0.6251
16445TIP3    H170826   3.567   6.649   4.959  0.6311 -1.2514 -2.2417
16445TIP3    H270827   3.686   6.567   5.004 -0.1914 -1.2897 -0.0690
16446TIP3   OH270828   6.942   2.816   3.074 -0.0992  0.0674 -0.4873
16446TIP3    H170829   6.949   2.730   3.117  0.8460  0.6797  0.6089
16446TIP3    H270830   6.885   2.800   2.999 -0.4722 -1.3815  0.0781
16447TIP3   OH270831   4.899   4.432   4.110  0.0541  0.0899 -0.1399
16447TIP3    H170832   4.826   4.474   4.155 -0.5837  0.5547 -1.5957
16447TIP3    H270833   4.861   4.401   4.028  1.7733  1.3610 -1.4260
16448TIP3   OH270834   1.716   2.702   4.176  0.8469 -0.0521 -0.0559
16448TIP3    H170835   1.716   2.798   4.176 -3.5816  0.0472  0.4048
16448TIP3    H270836   1.761   2.678   4.095  3.3826  2.3313  0.5752
16449TIP3   OH270837   4.067   4.969   2.270  0.3435  0.2582 -0.0703
16449TIP3    H170838   4.056   5.048   2.217 -0.1345  0.7393  0.7349
16449TIP3    H270839   3.980   4.929   2.271  0.2902  0.3930  0.5773
16450TIP3   OH270840   3.774   0.285   1.944 -0.0174 -0.3813 -0.4309
16450TIP3    H170841   3.710   0.215   1.931  0.5920 -1.1688  0.6357
16450TIP3    H270842   3.850   0.258   1.892  0.9016 -1.4683  1.4227
16451TIP3   OH270843   1.724   0.030   4.202  0.0630 -0.0902 -0.3011
16451TIP3    H170844   1.710   0.102   4.264  0.5077  0.6486 -1.0525
16451TIP3    H270845   1.645   0.029   4.149 -0.3449 -0.7649  0.3109
16452TIP3   OH270846   6.673   0.028   0.919  0.0559  1.2657 -0.0788
16452TIP3    H170847   6.717   0.099   0.965  2.2628 -0.6181  0.8632
16452TIP3    H270848   6.744  -0.030   0.891 -1.6430 -0.3846 -1.1193
16453TIP3   OH270849   7.071   2.263   2.570 -0.3700  0.1755  0.0651
16453TIP3    H170850   7.136   2.293   2.507 -1.0763 -1.8672 -1.7030
16453TIP3    H270851   7.107   2.181   2.604 -1.4336 -0.3537 -0.0478
16454TIP3   OH270852   4.566   2.654   4.424 -0.1195  0.1756  0.1076
16454TIP3    H170853   4.654   2.621   4.444  0.1727 -0.2316 -1.7840
16454TIP3    H270854   4.577   2.748   4.416 -0.0140  0.2136  0.6992
16455TIP3   OH270855   4.935   7.148  15.472 -0.1257  0.2809 -0.2587
16455TIP3    H170856   4.846   7.117  15.461  1.0877 -3.3530 -0.3522
16455TIP3    H270857   4.934   7.199  15.553 -2.6266  1.9166 -1.2571
16456TIP3   OH270858   3.991   6.963   0.503 -0.1072 -0.5124 -0.1224
16456TIP3    H170859   4.081   6.961   0.470 -1.1137 -1.0377 -3.0684
16456TIP3    H270860   3.983   7.048   0.546  1.4650  0.0589 -0.9113
16457TIP3   OH270861   3.175   4.944   1.978  0.3634 -0.1056 -0.7230
16457TIP3    H170862   3.239   4.877   1.955  0.8555 -0.2921  1.1017
16457TIP3    H270863   3.202   5.021   1.930 -0.3348 -1.2488 -3.0343
16458TIP3   OH270864   1.181   2.500   3.755 -0.2626 -0.1019 -0.2672
16458TIP3    H170865   1.254   2.457   3.801  0.7980  0.7193 -1.1466
16458TIP3    H270866   1.140   2.555   3.821 -0.2990 -0.8239  0.3231
16459TIP3   OH270867   4.693   0.059   3.238 -0.3576  0.3462 -0.7806
16459TIP3    H170868   4.788   0.062   3.242 -0.1376 -1.3096 -3.6343
16459TIP3    H270869   4.672   0.100   3.154 -2.1611  0.4509 -0.2970
16460TIP3   OH270870   1.480   0.239   2.596  0.2850 -0.0781  0.2389
16460TIP3    H170871   1.546   0.263   2.661  1.5303 -1.5166 -0.4681
16460TIP3    H270872   1.464   0.146   2.611  0.2827 -0.3288 -1.2397
16461TIP3   OH270873   1.456   3.180   5.409 -0.0561 -0.0558 -0.1242
16461TIP3    H170874   1.365   3.161   5.431 -0.4636  0.4891 -1.2879
16461TIP3    H270875   1.506   3.155   5.487 -1.0794 -1.4347  0.0944
16462TIP3   OH270876   0.389   2.086   5.810 -0.3677  0.0765 -0.8088
16462TIP3    H170877   0.392   2.171   5.854  0.8313  0.3670 -1.4144
16462TIP3    H270878   0.382   2.022   5.881  1.6694  0.5359 -0.1423
16463TIP3   OH270879   1.429   2.722   0.644  0.1400 -0.0753 -0.5165
16463TIP3    H170880   1.392   2.770   0.719  1.1573  1.3370 -0.9009
16463TIP3    H270881   1.352   2.694   0.595 -0.5452 -1.1355  1.1206
16464TIP3   OH270882   5.404   5.572   2.298  0.0880 -0.4008  0.5463
16464TIP3    H170883   5.396   5.569   2.393 -2.5184 -0.3830  0.3450
16464TIP3    H270884   5.338   5.510   2.266 -0.6085  1.2434 -1.3003
16465TIP3   OH270885   2.009   2.786  15.025 -0.5193 -0.3467  0.2747
16465TIP3    H170886   2.029   2.831  15.107  2.6216 -0.2653 -0.4530
16465TIP3    H270887   2.067   2.827  14.960 -3.2265 -0.1227 -2.0801
16466TIP3   OH270888   2.667   4.704   4.456  0.3321 -0.2141 -0.2109
16466TIP3    H170889   2.749   4.659   4.479  1.1411  1.4132  0.1932
16466TIP3    H270890   2.619   4.708   4.538  0.4750  0.0749 -0.1393
16467TIP3   OH270891   2.226   0.338   3.550  0.1703 -0.0098  0.2966
16467TIP3    H170892   2.177   0.260   3.576  1.5117 -0.4754  1.4894
16467TIP3    H270893   2.270   0.313   3.469 -0.1504 -0.1734  0.1727
16468TIP3   OH270894   2.354   0.070   2.372  0.1880 -0.5981  0.0051
16468TIP3    H170895   2.311   0.155   2.374 -0.3623 -0.7245 -3.3709
16468TIP3    H270896   2.443   0.089   2.344 -0.2849 -1.2169 -1.9826
16469TIP3   OH270897   5.262   6.638  13.867 -0.8250 -0.4651  0.2118
16469TIP3    H170898   5.342   6.684  13.839 -1.8644  0.5558 -1.1407
16469TIP3    H270899   5.262   6.648  13.962  1.1663 -1.3218  0.3344
16470TIP3   OH270900   5.021   2.811   1.872  0.0742 -0.7992  0.3682
16470TIP3    H170901   5.086   2.876   1.847 -1.8672  1.3290  0.7298
16470TIP3    H270902   4.981   2.785   1.789  0.3517 -0.9965  0.2955
16471TIP3   OH270903   0.104   6.024   1.898  0.2580 -0.6398  0.5036
16471TIP3    H170904   0.152   6.094   1.942 -0.0481  0.1609 -0.4192
16471TIP3    H270905   0.025   6.012   1.952 -0.5720  0.9772 -0.3110
16472TIP3   OH270906   3.614   2.770   0.347  0.0557 -0.0744  0.2028
16472TIP3    H170907   3.537   2.827   0.336 -0.2989 -0.4725  0.5604
16472TIP3    H270908   3.578   2.681   0.341  0.6758 -0.2568 -0.7936
16473TIP3   OH270909   1.992   6.017   2.500  0.1435  0.0446  0.0785
16473TIP3    H170910   2.079   6.055   2.486 -0.1850  1.2991  1.2609
16473TIP3    H270911   1.999   5.927   2.469  1.7308  0.2788 -0.2741
16474TIP3   OH270912   2.895   3.067   4.199 -0.1825  0.1037 -0.3066
16474TIP3    H170913   2.844   3.144   4.173 -0.0169  0.4261  0.3236
16474TIP3    H270914   2.909   3.019   4.117  0.0247  0.9269 -0.7550
16475TIP3   OH270915   6.071   5.938   1.121  0.4870 -0.4235 -0.3583
16475TIP3    H170916   6.138   5.955   1.055 -1.2535  0.9069 -1.8357
16475TIP3    H270917   6.045   5.847   1.106  1.6009 -0.8052 -0.0728
16476TIP3   OH270918   2.695   5.126   0.024  0.3522  0.0067  0.2952
16476TIP3    H170919   2.627   5.141  -0.041 -0.0461  1.5686  1.0581
16476TIP3    H270920   2.667   5.176   0.101  1.3522 -0.9498  1.3011
16477TIP3   OH270921   4.838   0.979   0.324  0.8500  0.6614 -0.1100
16477TIP3    H170922   4.883   0.907   0.280  0.0394  0.4333 -0.5835
16477TIP3    H270923   4.907   1.028   0.366  1.4701 -0.0855 -0.2440
16478TIP3   OH270924   4.510   1.245   0.226  0.3298  0.1040 -0.2613
16478TIP3    H170925   4.465   1.329   0.213  0.2034  0.0641 -0.0858
16478TIP3    H270926   4.472   1.188   0.159 -0.7036 -0.2493  0.6069
16479TIP3   OH270927   2.156   6.935   4.183  0.0370 -0.1117 -0.2139
16479TIP3    H170928   2.196   7.018   4.208  0.4592 -0.1346 -0.8014
16479TIP3    H270929   2.227   6.871   4.188  0.4994  0.1320 -2.8223
16480TIP3   OH270930   3.465   0.493   3.107  0.5943 -0.4326  0.5079
16480TIP3    H170931   3.383   0.537   3.131  2.0101  4.3435 -2.6327
16480TIP3    H270932   3.437   0.409   3.072 -2.9125  0.6993  0.3181
16481TIP3   OH270933   3.471   0.554   4.698  0.4103 -0.0555 -0.3444
16481TIP3    H170934   3.486   0.464   4.668 -2.6563 -0.4193 -0.9795
16481TIP3    H270935   3.534   0.607   4.648  1.3825 -1.6840 -0.8935
16482TIP3   OH270936   0.132   5.619   4.922  0.3921  0.1042  0.3896
16482TIP3    H170937   0.222   5.640   4.949  0.4729  0.5012 -0.1755
16482TIP3    H270938   0.095   5.703   4.895  0.7763 -0.4688 -2.0634
16483TIP3   OH270939   6.338   6.924  15.152 -0.1025 -0.1498  0.0188
16483TIP3    H170940   6.377   6.849  15.196 -1.1044 -0.5861  0.1930
16483TIP3    H270941   6.327   6.989  15.221  0.1173 -0.1150  0.0202
16484TIP3   OH270942   2.908   3.863   2.840 -0.2940  0.0482 -0.4757
16484TIP3    H170943   2.946   3.939   2.885 -0.8860  0.5081 -0.7466
16484TIP3    H270944   2.983   3.815   2.805  0.3145 -1.1849  2.3523
16485TIP3   OH270945   3.739   5.930   5.153  0.2236  0.2650 -0.0216
16485TIP3    H170946   3.645   5.919   5.170 -0.2136  1.1855 -1.6729
16485TIP3    H270947   3.778   5.944   5.239 -1.2307  0.3907  0.6279
16486TIP3   OH270948   3.302   0.106   4.640  0.1203  0.5424  1.1937
16486TIP3    H170949   3.245   0.108   4.563  0.1505  2.7270  1.1871
16486TIP3    H270950   3.254   0.153   4.708  1.1248  0.7836  1.7566
16487TIP3   OH270951   6.052   6.258   3.767  0.0104  0.6828  0.0905
16487TIP3    H170952   5.984   6.191   3.775  1.5977 -1.3611 -2.6894
16487TIP3    H270953   6.013   6.325   3.711  0.2961 -0.6049 -1.7100
16488TIP3   OH270954   4.072   5.306   3.542 -0.1169  0.9565  0.2704
16488TIP3    H170955   4.063   5.301   3.638 -2.8258 -2.0092 -0.0392
16488TIP3    H270956   4.105   5.220   3.517 -0.0840  1.4704 -1.5157
16489TIP3   OH270957   4.588   4.526   3.132  0.0969 -0.9686 -0.0758
16489TIP3    H170958   4.593   4.537   3.227  0.2609 -0.4618 -0.1442
16489TIP3    H270959   4.597   4.614   3.097  0.3440 -1.1901 -0.5743
16490TIP3   OH270960   0.027   3.927   2.275 -0.1325  0.7708 -0.0211
16490TIP3    H170961  -0.009   3.844   2.245 -1.5794  2.3512 -2.9206
16490TIP3    H270962  -0.048   3.987   2.274  1.4374  2.7884 -0.7929
16491TIP3   OH270963   4.677   5.869   0.266  0.5118  0.0074 -0.9382
16491TIP3    H170964   4.688   5.943   0.325 -0.5400  0.3414 -1.1418
16491TIP3    H270965   4.751   5.812   0.284  0.3467  0.2446  0.5094
16492TIP3   OH270966   4.872   5.954  14.249 -0.6269  0.2813  0.2459
16492TIP3    H170967   4.844   5.974  14.160  0.3373  0.8195  0.0582
16492TIP3    H270968   4.804   5.896  14.283 -1.6329  1.0548 -0.4125
16493TIP3   OH270969   6.095   3.518   2.619 -0.2376  0.4260  0.4666
16493TIP3    H170970   6.187   3.494   2.612 -0.6146 -1.3139  1.3254
16493TIP3    H270971   6.073   3.502   2.710 -1.5795  0.1353  0.0994
16494TIP3   OH270972   3.709   2.133  15.497 -0.9004 -0.1350  0.2771
16494TIP3    H170973   3.654   2.210  15.513 -0.3905  0.4321 -0.6753
16494TIP3    H270974   3.775   2.137  15.566 -2.3502 -1.1273  1.7826
16495TIP3   OH270975   1.496   1.469   2.422  0.0412  0.1892  0.0687
16495TIP3    H170976   1.418   1.414   2.427  0.4434 -0.2898  1.4420
16495TIP3    H270977   1.519   1.486   2.513  1.9153 -0.2276 -0.2907
16496TIP3   OH270978   5.592   6.589   2.377 -0.2485  0.1847 -0.2669
16496TIP3    H170979   5.591   6.590   2.281  0.3677 -1.2269 -0.2957
16496TIP3    H270980   5.684   6.586   2.401 -0.4198 -1.2135  0.3226
16497TIP3   OH270981   4.662   5.473   0.416 -0.3886  0.3042 -0.1415
16497TIP3    H170982   4.713   5.483   0.496 -0.3519  0.4892 -0.1895
16497TIP3    H270983   4.583   5.526   0.431 -1.1049 -0.8796  0.3991
16498TIP3   OH270984   7.141   0.248   5.001 -0.3189  0.3893 -0.0665
16498TIP3    H170985   7.069   0.210   4.950 -1.2948  0.8755  0.9267
16498TIP3    H270986   7.201   0.283   4.935 -1.4839  0.8635 -0.8908
16499TIP3   OH270987   4.223   0.338   1.372 -0.2584 -0.0744 -0.3518
16499TIP3    H170988   4.204   0.388   1.293  1.5333  0.7657 -0.2729
16499TIP3    H270989   4.258   0.255   1.340 -2.3468 -0.9375 -0.4666
16500TIP3   OH270990   2.513   5.083   2.679 -0.1436  0.5489 -0.5938
16500TIP3    H170991   2.548   4.997   2.701  0.5932  1.0281  0.1728
16500TIP3    H270992   2.591   5.139   2.673 -0.5086  0.9064 -2.3046
16501TIP3   OH270993   5.798   0.187   3.806  0.7593 -0.1189 -0.0687
16501TIP3    H170994   5.843   0.271   3.812  0.8548 -0.0163 -1.8903
16501TIP3    H270995   5.705   0.208   3.806  0.7845 -0.0083 -0.5698
16502TIP3   OH270996   3.378   1.001   2.312 -0.3472 -0.1705 -0.0263
16502TIP3    H170997   3.471   0.986   2.328 -0.9152 -1.8336  1.7826
16502TIP3    H270998   3.374   1.023   2.219  1.7354 -1.0456 -0.3575
16503TIP3   OH270999   5.392   6.834   3.352  0.4887  0.1160 -0.1188
16503TIP3    H171000   5.373   6.862   3.263 -3.0760 -0.0622  0.5093
16503TIP3    H271001   5.368   6.909   3.406  1.6024 -0.1622  0.7781
16504TIP3   OH271002   3.806   4.854   5.058  0.0093  0.4717  0.4905
16504TIP3    H171003   3.761   4.832   5.139 -0.2436  2.2748  0.8722
16504TIP3    H271004   3.770   4.940   5.034  1.5987  0.9007 -0.3950
16505TIP3   OH271005   4.529   5.486   4.838 -0.8856 -0.0092 -0.1053
16505TIP3    H171006   4.615   5.505   4.874 -0.5964  0.5578 -1.0885
16505TIP3    H271007   4.470   5.488   4.914  0.1769 -1.8783  0.8149
16506TIP3   OH271008   0.780   5.967   3.302  0.4757 -0.6342  0.1284
16506TIP3    H171009   0.685   5.974   3.297  0.4125 -1.8024 -0.5612
16506TIP3    H271010   0.800   5.885   3.258  1.9843  0.6663 -1.6805
16507TIP3   OH271011   2.822   6.926   0.114  0.1105 -0.5347  0.6404
16507TIP3    H171012   2.806   7.020   0.102  0.5617 -0.4653  0.5899
16507TIP3    H271013   2.879   6.901   0.042 -0.2473 -0.9153  0.4811
16508TIP3   OH271014   2.505   6.547   2.414  0.3175 -0.2708 -0.2981
16508TIP3    H171015   2.502   6.587   2.327  1.7299  0.7082  0.0798
16508TIP3    H271016   2.454   6.607   2.470  2.9356  1.3971  0.3930
16509TIP3   OH271017   0.992   0.936   3.729 -0.2284 -0.3313  0.5832
16509TIP3    H171018   1.085   0.943   3.708 -0.4161 -0.3158 -0.2379
16509TIP3    H271019   0.947   0.981   3.658 -0.8898 -0.6830  0.7693
16510TIP3   OH271020   2.302   6.734   3.803 -0.6362 -0.3135 -0.0650
16510TIP3    H171021   2.221   6.774   3.835 -1.0515 -0.1798 -1.2734
16510TIP3    H271022   2.290   6.727   3.709  0.3472 -1.2424 -0.1329
16511TIP3   OH271023   2.313   1.675   1.791 -0.2446  0.1448  0.7779
16511TIP3    H171024   2.252   1.608   1.760  1.7889 -1.7133  0.5957
16511TIP3    H271025   2.309   1.669   1.887 -1.1685  0.7877  0.7736
16512TIP3   OH271026   3.662   3.014   2.133 -0.2198 -0.4926  0.2291
16512TIP3    H171027   3.721   2.940   2.146 -2.6665 -2.4541  0.6868
16512TIP3    H271028   3.588   2.977   2.085 -1.5410  1.6509  0.5212
16513TIP3   OH271029   5.188   3.846   4.705  0.2123 -0.0557  0.3440
16513TIP3    H171030   5.276   3.850   4.668 -0.0668  1.2715 -0.1756
16513TIP3    H271031   5.131   3.828   4.630 -0.0509 -0.0814  0.5491
16514TIP3   OH271032   4.805   4.161  13.747  0.0806 -0.1674 -0.1457
16514TIP3    H171033   4.759   4.092  13.699  0.6495  0.3052 -1.3912
16514TIP3    H271034   4.798   4.238  13.691  0.8779  0.3556  0.4647
16515TIP3   OH271035   2.735   0.075   1.540  0.2510 -0.4090 -0.3418
16515TIP3    H171036   2.703   0.032   1.619  0.5190 -1.0035 -0.5491
16515TIP3    H271037   2.700   0.022   1.468 -1.1109  0.9012 -0.6763
16516TIP3   OH271038   0.056   2.985  12.731  0.0241 -0.2649  0.1438
16516TIP3    H171039   0.026   3.022  12.648 -1.3662 -0.7958  0.4058
16516TIP3    H271040   0.141   2.947  12.711  0.1272  0.4601 -0.8145
16517TIP3   OH271041   0.364   0.429   4.887 -0.1142  0.2559 -1.0050
16517TIP3    H171042   0.371   0.373   4.965  0.9871 -0.4860 -1.6197
16517TIP3    H271043   0.389   0.516   4.918 -0.7446  0.1828 -0.2856
16518TIP3   OH271044   6.997   2.855   0.768  0.0250 -0.2062  0.4580
16518TIP3    H171045   6.903   2.846   0.783  0.1531 -1.3026  0.6532
16518TIP3    H271046   7.037   2.824   0.849  0.6016 -1.8375 -0.4398
16519TIP3   OH271047   5.454   4.813   3.691 -0.1448 -0.5193  0.2459
16519TIP3    H171048   5.472   4.770   3.608  0.0673  0.0664 -0.0141
16519TIP3    H271049   5.360   4.827   3.692 -0.3752 -2.0059  0.8336
16520TIP3   OH271050   1.789   1.424   2.403 -0.1979  0.1397  0.2616
16520TIP3    H171051   1.708   1.471   2.385  0.3211  1.0346  0.2444
16520TIP3    H271052   1.859   1.488   2.385  0.5642 -0.9858 -0.9124
16521TIP3   OH271053   4.040   3.256   3.103 -0.3294 -0.4328 -0.5226
16521TIP3    H171054   4.059   3.188   3.167 -2.2830 -0.6401 -0.1274
16521TIP3    H271055   4.115   3.315   3.108  0.2268 -1.2371  0.9036
16522TIP3   OH271056   4.484   5.829   2.410  0.2773 -0.0965 -0.1644
16522TIP3    H171057   4.429   5.884   2.355  0.5592  0.0144 -0.3375
16522TIP3    H271058   4.540   5.890   2.457 -0.3694 -0.1556  0.7009
16523TIP3   OH271059   2.961   6.158   4.540 -0.5299 -0.1612  0.1601
16523TIP3    H171060   3.050   6.141   4.509 -0.8558  0.3595 -1.1077
16523TIP3    H271061   2.906   6.147   4.462 -1.3446  1.3773  0.4881
16524TIP3   OH271062   2.400   1.192   1.710 -0.1225 -0.5189 -0.4151
16524TIP3    H171063   2.420   1.259   1.644 -1.0836  0.3984  0.1986
16524TIP3    H271064   2.433   1.110   1.672 -0.9826 -0.0704 -2.1874
16525TIP3   OH271065   5.295   1.752   0.959 -0.1992  0.1381 -0.0979
16525TIP3    H171066   5.275   1.662   0.985 -0.4662 -0.6258 -2.7901
16525TIP3    H271067   5.388   1.749   0.936 -0.5331  0.2273 -1.4616
16526TIP3   OH271068   5.921   6.909   2.842 -0.2801 -0.5529 -0.1034
16526TIP3    H171069   5.898   6.822   2.874  1.3963 -0.5057  1.2929
16526TIP3    H271070   5.997   6.935   2.894  0.5691  0.8555 -1.9710
16527TIP3   OH271071   4.863   6.105   4.593  0.0491  0.5228  0.7964
16527TIP3    H171072   4.943   6.148   4.561 -0.6458  0.2827 -1.3583
16527TIP3    H271073   4.877   6.095   4.687  2.0678  1.5296  0.6308
16528TIP3   OH271074   5.190   2.657   1.432  0.2164 -0.2370  0.2186
16528TIP3    H171075   5.212   2.564   1.425  0.5714 -0.0971 -0.5154
16528TIP3    H271076   5.208   2.693   1.345 -3.0644 -0.1484 -0.4906
16529TIP3   OH271077   6.275   2.792   0.295  0.3308  0.2530 -0.1691
16529TIP3    H171078   6.307   2.702   0.288  2.0336  0.8653 -0.4162
16529TIP3    H271079   6.183   2.783   0.322  1.0384 -1.5006  1.7820
16530TIP3   OH271080   3.556   6.713   2.878 -0.5063  0.7411  0.3646
16530TIP3    H171081   3.625   6.649   2.861  1.8082  3.5236 -1.2206
16530TIP3    H271082   3.499   6.709   2.801 -1.5563 -0.8053  1.1946
16531TIP3   OH271083   6.704   5.153   4.049  0.5369 -0.4646  0.0268
16531TIP3    H171084   6.799   5.149   4.056  0.4596 -0.9045  0.9020
16531TIP3    H271085   6.674   5.165   4.139 -0.2263 -0.0952 -0.2729
16532TIP3   OH271086   6.685   0.470   0.907  0.1508 -0.1170 -0.0412
16532TIP3    H171087   6.591   0.455   0.919  0.6466 -1.3722  2.7339
16532TIP3    H271088   6.704   0.546   0.962  0.7232  0.3075 -0.8104
16533TIP3   OH271089   3.444   4.226   1.556  0.3567  0.1683  0.2502
16533TIP3    H171090   3.436   4.213   1.461  2.1660 -0.7466  0.2116
16533TIP3    H271091   3.511   4.294   1.565  0.4048  0.0337  0.8976
16534TIP3   OH271092   7.044   0.560   5.006  0.7130 -0.2853  0.6054
16534TIP3    H171093   6.972   0.584   4.947  1.1092  1.7087  0.8861
16534TIP3    H271094   7.055   0.466   4.994 -3.2093 -1.0072  1.9843
16535TIP3   OH271095   2.055   1.815   4.792 -0.1910 -0.6079 -0.2819
16535TIP3    H171096   1.965   1.815   4.825 -0.2984 -0.8176 -0.5763
16535TIP3    H271097   2.107   1.852   4.864 -0.4567 -0.8538  0.0390
16536TIP3   OH271098   2.071   1.491   5.053 -0.0692  0.7509 -0.0144
16536TIP3    H171099   2.159   1.468   5.082  0.2300  1.5119 -0.3074
16536TIP3    H271100   2.077   1.498   4.958 -0.8353 -0.8099 -0.1982
16537TIP3   OH271101   3.405   4.606   4.269 -0.5936 -0.7730 -0.7698
16537TIP3    H171102   3.438   4.522   4.301 -4.4174 -0.8245  3.6042
16537TIP3    H271103   3.449   4.672   4.322 -1.8744 -0.4065 -0.1417
16538TIP3   OH271104   5.244   5.644   3.949  0.0284  0.4569 -0.2252
16538TIP3    H171105   5.171   5.586   3.968 -0.3081  1.6133  2.2470
16538TIP3    H271106   5.311   5.621   4.014  0.9685  0.9501 -1.0003
16539TIP3   OH271107   7.077   5.083   2.838  0.2089  0.3861 -0.2205
16539TIP3    H171108   7.131   5.134   2.898  0.0163  0.4560 -0.1034
16539TIP3    H271109   6.989   5.119   2.849  0.1878  0.4571 -0.6102
16540TIP3   OH271110   6.005   1.466   1.467 -0.3093 -0.7987  0.3459
16540TIP3    H171111   6.017   1.453   1.373  2.0667  0.0148  0.4937
16540TIP3    H271112   5.975   1.381   1.499  1.6695 -1.9602 -0.7448
16541TIP3   OH271113   2.866   4.023   2.325 -0.3330  0.5232  0.8467
16541TIP3    H171114   2.818   4.097   2.362 -1.9112  1.4487 -2.8077
16541TIP3    H271115   2.925   4.063   2.260  1.0762 -1.1509  1.0512
16542TIP3   OH271116   5.583   4.827   4.959 -0.4441 -0.2844 -0.3268
16542TIP3    H171117   5.669   4.790   4.937 -1.0333 -2.2500  0.5520
16542TIP3    H271118   5.561   4.882   4.884  1.0042 -0.8023 -1.1555
16543TIP3   OH271119   0.295   6.133   3.344  0.2925 -0.6700 -0.2583
16543TIP3    H171120   0.226   6.160   3.405  1.2121 -0.2264  0.5927
16543TIP3    H271121   0.327   6.214   3.305  1.8336 -0.6623  0.9782
16544TIP3   OH271122   2.730   4.896   4.690  0.3787  0.6060 -0.1237
16544TIP3    H171123   2.809   4.844   4.674 -0.5243 -0.6720 -0.5701
16544TIP3    H271124   2.662   4.831   4.707 -0.8130  1.6420 -0.8362
16545TIP3   OH271125   5.929   3.752   4.540 -0.1505 -0.5320  0.4353
16545TIP3    H171126   5.880   3.793   4.612  1.2903  2.0643 -0.0038
16545TIP3    H271127   5.862   3.712   4.485 -1.6411  1.2347  0.9134
16546TIP3   OH271128   5.721   1.366   3.830  0.2132  0.1651  0.4615
16546TIP3    H171129   5.740   1.356   3.737 -0.4181 -0.8986  0.4369
16546TIP3    H271130   5.723   1.460   3.845  0.9630  0.3083 -0.4873
16547TIP3   OH271131   6.412   7.107   2.247 -0.3712 -0.4043  0.1776
16547TIP3    H171132   6.477   7.094   2.316  0.8468 -0.3275 -0.9485
16547TIP3    H271133   6.441   7.051   2.175 -1.7727 -0.6727 -0.1897
16548TIP3   OH271134   1.397   6.437   5.935  0.1956  0.3824 -0.3320
16548TIP3    H171135   1.453   6.399   6.002 -0.4733  1.5080  0.8786
16548TIP3    H271136   1.319   6.380   5.935  0.0898  0.5252  0.0213
16549TIP3   OH271137   2.775   1.445   0.206 -0.5995 -0.1164 -0.0090
16549TIP3    H171138   2.784   1.438   0.301 -1.4137  0.6609  0.1243
16549TIP3    H271139   2.756   1.356   0.177 -0.3696 -0.3520  0.5491
16550TIP3   OH271140   2.866   4.801  14.698  0.5451  0.1645  0.3644
16550TIP3    H171141   2.872   4.706  14.706 -0.5305 -0.0424 -0.9485
16550TIP3    H271142   2.915   4.822  14.619  0.0415  0.5848  0.1541
16551TIP3   OH271143   4.801   3.167  14.822  0.5305 -0.1269  0.3017
16551TIP3    H171144   4.839   3.081  14.836 -1.8825 -1.4339 -0.8142
16551TIP3    H271145   4.723   3.150  14.768 -0.1700  2.7050  0.3514
16552TIP3   OH271146   4.344   7.186   0.066  0.6780 -0.0137  0.4371
16552TIP3    H171147   4.384   7.111   0.108  0.7640 -0.8537 -1.1026
16552TIP3    H271148   4.309   7.238   0.138  1.2126 -1.1759  1.5574
16553TIP3   OH271149   1.850   2.086   3.523 -0.2874 -0.0981 -0.0793
16553TIP3    H171150   1.874   1.997   3.549 -0.3734  0.2065  1.0546
16553TIP3    H271151   1.905   2.104   3.447  0.9965 -0.4793  0.7378
16554TIP3   OH271152   1.132   2.305  15.586 -0.0455  0.4884 -0.7046
16554TIP3    H171153   1.163   2.257  15.663 -1.1846  0.4510 -0.2522
16554TIP3    H271154   1.209   2.350  15.553  0.7277 -0.4811 -0.2680
16555TIP3   OH271155   5.997   1.798   3.015  0.2159 -0.3727 -0.2452
16555TIP3    H171156   6.031   1.713   2.988  1.1345 -0.3474  0.7904
16555TIP3    H271157   5.931   1.820   2.949  1.5215 -0.8822 -1.7343
16556TIP3   OH271158   1.077   6.812   3.239  0.2642 -0.7723 -0.4246
16556TIP3    H171159   1.088   6.868   3.316  1.4593  0.7134 -1.6425
16556TIP3    H271160   0.982   6.805   3.229  0.0985  0.5563  0.0942
16557TIP3   OH271161   4.515   2.480   0.731 -0.2002  0.2996 -0.5850
16557TIP3    H171162   4.538   2.474   0.823 -0.9311 -0.2866 -0.4328
16557TIP3    H271163   4.557   2.560   0.700 -0.1373  0.6101  0.3130
16558TIP3   OH271164   7.052   4.261   3.736 -0.3537  0.0432 -0.0456
16558TIP3    H171165   6.996   4.338   3.728 -0.7440 -0.3317 -0.9600
16558TIP3    H271166   7.015   4.198   3.676 -1.2474 -1.6073  2.1889
16559TIP3   OH271167   0.891   6.916   5.102 -0.2162  0.3546 -0.1933
16559TIP3    H171168   0.810   6.959   5.074  0.6377  1.3519 -1.1936
16559TIP3    H271169   0.881   6.825   5.073 -0.5689  0.6985 -1.1841
16560TIP3   OH271170   3.082   4.403   2.447  0.0396  0.3030 -0.3167
16560TIP3    H171171   3.077   4.455   2.527 -0.4199 -2.1680  1.3204
16560TIP3    H271172   3.173   4.373   2.444 -0.0643  0.0076 -0.4823
16561TIP3   OH271173   6.693   3.141   1.743  0.0326  0.2701  0.2496
16561TIP3    H171174   6.605   3.175   1.726  0.3633  0.5480 -0.9326
16561TIP3    H271175   6.718   3.180   1.826  0.2235  2.5841 -0.8672
16562TIP3   OH271176   4.341   6.124   1.749 -0.0169  0.4497  0.1301
16562TIP3    H171177   4.365   6.032   1.764 -0.8584 -0.0943 -1.6739
16562TIP3    H271178   4.417   6.174   1.781  0.3745 -0.8574  1.2876
16563TIP3   OH271179   4.740   2.030   5.948 -0.7466  0.0352  0.1867
16563TIP3    H171180   4.737   2.034   6.043 -2.0477  0.8446  0.1253
16563TIP3    H271181   4.803   2.097   5.923  1.2230 -1.6550  0.5631
16564TIP3   OH271182   4.625   6.654   4.070  0.5768 -0.3743  0.1450
16564TIP3    H171183   4.665   6.663   3.983  0.5944  1.7444  0.3536
16564TIP3    H271184   4.571   6.732   4.080  0.4484 -0.6745  1.9973
16565TIP3   OH271185   4.755   3.001   2.467  0.8059  0.4710 -0.2184
16565TIP3    H171186   4.686   2.955   2.419  0.5151 -1.0995  1.6200
16565TIP3    H271187   4.726   3.092   2.468  0.2703  0.3372 -2.0415
16566TIP3   OH271188   5.068   3.969   3.248  0.3095 -0.7349  0.0959
16566TIP3    H171189   5.028   3.923   3.175  0.9167  0.2977 -0.9159
16566TIP3    H271190   5.011   3.951   3.322 -0.4015 -1.6781 -0.6656
16567TIP3   OH271191   1.919   6.902   0.434  0.0013  0.7075 -0.3545
16567TIP3    H171192   1.890   6.989   0.408 -1.2703  0.6195  0.7278
16567TIP3    H271193   1.999   6.918   0.484  0.5964  1.1301 -1.4264
16568TIP3   OH271194   3.090   5.909  15.589 -0.4602  0.0190 -0.0761
16568TIP3    H171195   3.181   5.925  15.616  0.0823  0.4433 -2.0881
16568TIP3    H271196   3.071   5.978  15.526 -2.0947 -0.2707  0.0721
16569TIP3   OH271197   2.692   5.826   5.656 -0.3935 -0.3712  0.1711
16569TIP3    H171198   2.736   5.829   5.571 -0.3114 -0.2344  0.2178
16569TIP3    H271199   2.636   5.904   5.656 -0.9457 -0.7737 -0.0580
16570TIP3   OH271200   2.381   6.763   2.141 -0.7307  0.2383 -0.4042
16570TIP3    H171201   2.315   6.738   2.076 -0.0872  1.1198 -1.3997
16570TIP3    H271202   2.380   6.859   2.141 -2.4524  0.3016  2.6525
16571TIP3   OH271203   5.295   6.647   4.810  0.0382  0.6391  0.8064
16571TIP3    H171204   5.247   6.724   4.780 -0.7956 -0.6536 -1.3352
16571TIP3    H271205   5.230   6.595   4.858 -0.2874 -0.3102 -0.6406
16572TIP3   OH271206   6.377   4.876   5.908  0.5355 -0.6018 -0.7334
16572TIP3    H171207   6.473   4.881   5.909  0.5165  0.0945  1.8423
16572TIP3    H271208   6.350   4.945   5.848  1.6156  0.5839  0.1078
16573TIP3   OH271209   5.301   2.890   3.614 -0.6471  0.2619 -0.1388
16573TIP3    H171210   5.383   2.939   3.623 -0.1634 -0.6456  0.4204
16573TIP3    H271211   5.237   2.956   3.586  0.1841  1.0484 -0.2108
16574TIP3   OH271212   1.743   4.405  15.406  0.0405  0.5815 -0.8376
16574TIP3    H171213   1.823   4.447  15.375  0.0021  0.8963 -0.5137
16574TIP3    H271214   1.727   4.334  15.343  0.8933  0.1533 -0.5869
16575TIP3   OH271215   1.905   6.558  13.660 -0.1284  0.2517 -0.3635
16575TIP3    H171216   1.972   6.623  13.682  1.0078 -0.9981  0.0059
16575TIP3    H271217   1.915   6.544  13.566 -1.8879  2.2262 -0.8771
16576TIP3   OH271218   3.541   4.525   1.113 -0.4065  0.0806 -0.0334
16576TIP3    H171219   3.496   4.585   1.054 -0.4878  1.8486  1.7870
16576TIP3    H271220   3.489   4.527   1.194  0.5881 -1.0742  0.6593
16577TIP3   OH271221   2.402   6.883   1.011  0.3880 -0.5065  0.0254
16577TIP3    H171222   2.373   6.966   0.974 -1.7479 -0.9993  0.5401
16577TIP3    H271223   2.473   6.854   0.953  0.9281  1.4857 -0.3371
16578TIP3   OH271224   0.838   0.871   3.205 -0.1114  0.0554  0.3170
16578TIP3    H171225   0.792   0.948   3.238  1.8952  1.0790  0.7905
16578TIP3    H271226   0.779   0.797   3.225 -1.7159  1.3526  0.5125
16579TIP3   OH271227   0.979   0.195   1.205 -0.3854 -0.5160  0.3918
16579TIP3    H171228   0.923   0.120   1.225 -0.5783 -0.5778 -0.3833
16579TIP3    H271229   0.919   0.266   1.184 -0.1726 -0.7328 -0.9881
16580TIP3   OH271230   5.332   3.843   0.267  0.1006  0.6523 -0.9726
16580TIP3    H171231   5.379   3.778   0.214  1.5877 -0.8266  2.0344
16580TIP3    H271232   5.271   3.791   0.320  0.1977  1.8433  0.3337
16581TIP3   OH271233   6.365   6.166   2.712  0.2416 -0.3016 -0.2939
16581TIP3    H171234   6.449   6.143   2.751 -0.0385  1.4796  1.4513
16581TIP3    H271235   6.380   6.251   2.670 -0.5767 -0.1737 -0.3362
16582TIP3   OH271236   5.294   0.507   5.361 -0.3104  0.0173 -0.2888
16582TIP3    H171237   5.306   0.557   5.442 -0.3185 -2.6598  1.4262
16582TIP3    H271238   5.357   0.546   5.299 -1.6423  3.3355  0.3541
16583TIP3   OH271239   1.564   4.375   2.247  0.0413  0.1010 -0.5532
16583TIP3    H171240   1.511   4.445   2.207 -0.3233 -0.8014 -1.6776
16583TIP3    H271241   1.505   4.299   2.248  0.9621 -0.6193 -0.8135
16584TIP3   OH271242   3.003   6.922   0.563  0.1750  0.1700 -0.4085
16584TIP3    H171243   2.953   6.879   0.494 -0.3444  1.1766 -0.6719
16584TIP3    H271244   2.944   6.920   0.639 -0.1450  1.0528 -0.6246
16585TIP3   OH271245   3.104   0.203   2.060 -0.2485 -0.8900  0.0935
16585TIP3    H171246   3.174   0.268   2.061 -2.4009  1.4812  1.3498
16585TIP3    H271247   3.132   0.138   1.995  3.4267 -0.4010  1.1340
16586TIP3   OH271248   1.357   0.096   1.823 -0.4120  0.0479  0.3721
16586TIP3    H171249   1.393   0.108   1.735 -0.0271  1.2223  0.6814
16586TIP3    H271250   1.397   0.015   1.854  0.6254  0.4317  0.0509
16587TIP3   OH271251   4.651   4.495   0.333 -0.1545 -0.3063 -0.1287
16587TIP3    H171252   4.722   4.432   0.331  0.3123  0.1959  0.3236
16587TIP3    H271253   4.648   4.525   0.424 -0.4225  0.2510 -0.3168
16588TIP3   OH271254   3.430   3.249  14.488 -0.6048 -0.2115  0.0821
16588TIP3    H171255   3.349   3.255  14.437 -1.2663  2.7766  1.3323
16588TIP3    H271256   3.402   3.263  14.579  1.4818  3.0443  0.3166
16589TIP3   OH271257   3.565   6.803   1.434  0.7161  0.0247 -0.3888
16589TIP3    H171258   3.541   6.711   1.424  0.0753  0.1730 -0.2419
16589TIP3    H271259   3.531   6.827   1.520  1.8723  0.0957  0.0569
16590TIP3   OH271260   3.194   1.743   2.650 -0.6642 -0.3223  0.0082
16590TIP3    H171261   3.232   1.773   2.567 -0.2116  0.5558  0.5238
16590TIP3    H271262   3.136   1.671   2.625 -0.8578  0.2112 -1.1202
16591TIP3   OH271263   4.024   7.087   1.662  0.7487 -0.5631  0.6146
16591TIP3    H171264   4.078   7.101   1.584 -0.0274  0.6096  0.2678
16591TIP3    H271265   4.017   6.992   1.670 -0.2400 -0.6782 -1.4966
16592TIP3   OH271266   1.257   0.787   2.366 -0.7025  0.4366  0.5586
16592TIP3    H171267   1.200   0.721   2.406 -1.1350 -0.0785 -0.8931
16592TIP3    H271268   1.289   0.746   2.286  0.0567  1.5096  0.3022
16593TIP3   OH271269   7.071   0.552   3.857  0.4621 -0.5700  0.2171
16593TIP3    H171270   7.001   0.505   3.813 -0.1053  0.2729  0.2250
16593TIP3    H271271   7.069   0.520   3.947 -0.3831 -0.0137  0.3989
16594TIP3   OH271272   2.746   5.417   2.163  0.0766  0.4913 -0.3186
16594TIP3    H171273   2.833   5.419   2.202 -0.7674 -0.9590  1.7238
16594TIP3    H271274   2.757   5.368   2.082  0.9596 -0.7300  0.5235
16595TIP3   OH271275   4.173   0.418   1.062 -0.0144  0.6069 -0.0841
16595TIP3    H171276   4.256   0.454   1.032 -0.0076 -0.4573 -1.3807
16595TIP3    H271277   4.188   0.323   1.067 -0.8712  0.4952  0.5793
16596TIP3   OH271278   7.161   4.476   3.125  0.0787 -0.4713  0.1672
16596TIP3    H171279   7.154   4.415   3.052 -1.0993 -0.2862  0.1274
16596TIP3    H271280   7.180   4.420   3.201  2.1875 -0.5865 -0.3986
16597TIP3   OH271281   2.552   1.385   0.988 -0.0298  0.0325 -0.1981
16597TIP3    H171282   2.498   1.463   1.004 -0.0751  0.3362 -1.8069
16597TIP3    H271283   2.534   1.361   0.897 -2.9520 -4.1309  1.3640
16598TIP3   OH271284   4.532   6.110   3.420 -0.2768  0.2997  0.2243
16598TIP3    H171285   4.459   6.086   3.478  1.9323 -0.4981  2.7489
16598TIP3    H271286   4.501   6.086   3.332 -2.8644 -0.4867  1.2945
16599TIP3   OH271287   4.918   3.917  14.670  0.4092 -0.8208 -0.4729
16599TIP3    H171288   4.877   3.889  14.588 -1.3791  0.3072 -0.0081
16599TIP3    H271289   4.867   3.874  14.738 -0.0851  0.6753  0.1199
16600TIP3   OH271290   4.796   7.109   2.448 -0.1380  0.1151  0.5398
16600TIP3    H171291   4.701   7.110   2.435  0.1599 -0.7428 -2.0261
16600TIP3    H271292   4.807   7.116   2.543 -2.7270  1.0782  0.8197
16601TIP3   OH271293   4.993   4.692   3.825  0.4798  0.0135 -0.1677
16601TIP3    H171294   5.004   4.729   3.913 -0.5516 -1.1616  0.4681
16601TIP3    H271295   4.906   4.652   3.826  0.3659  0.1741 -1.7999
16602TIP3   OH271296   3.144   6.793   2.004 -0.1336 -0.2465 -0.0383
16602TIP3    H171297   3.154   6.700   1.987 -0.4350 -0.5257  1.2374
16602TIP3    H271298   3.081   6.798   2.076 -0.4398  0.9606 -0.3764
16603TIP3   OH271299   5.028   6.506   4.189  0.3493  0.6851 -0.4227
16603TIP3    H171300   5.041   6.420   4.231 -0.0617  0.8009 -0.0493
16603TIP3    H271301   5.072   6.568   4.247  1.9325  0.5587 -1.4710
16604TIP3   OH271302   4.286   6.829   2.611  0.2601  0.1600 -0.6258
16604TIP3    H171303   4.228   6.763   2.649  0.1850  1.4380  1.6016
16604TIP3    H271304   4.374   6.796   2.629  0.2188  0.2463 -0.2498
16605TIP3   OH271305   2.697   6.416   0.082 -0.0224 -0.1121 -0.3307
16605TIP3    H171306   2.667   6.500   0.046 -1.5565 -0.2297  0.6065
16605TIP3    H271307   2.730   6.438   0.169  1.6679 -0.1525 -0.9535
16606TIP3   OH271308   6.564   6.781   5.599 -0.0739 -0.3088  0.1470
16606TIP3    H171309   6.520   6.697   5.612 -4.1644  1.9072  1.4736
16606TIP3    H271310   6.578   6.814   5.688  2.3388  0.0608 -0.3349
16607TIP3   OH271311   1.260   6.841   5.327 -0.8082 -0.1458 -0.5697
16607TIP3    H171312   1.265   6.913   5.264  3.4715  1.8591  1.8409
16607TIP3    H271313   1.255   6.885   5.412  1.6811 -2.6554  0.9465
16608TIP3   OH271314   5.210   1.442   4.124 -0.8173  0.3491 -0.5285
16608TIP3    H171315   5.135   1.386   4.145 -2.2129  1.8772 -1.3154
16608TIP3    H271316   5.286   1.394   4.159 -2.1933 -0.9778  0.7473
16609TIP3   OH271317   4.062   6.899   2.248  0.0697 -0.3642 -0.2544
16609TIP3    H171318   4.007   6.821   2.246  0.3834 -0.5915 -0.1584
16609TIP3    H271319   4.017   6.962   2.192  0.0495 -0.7693 -0.6971
16610TIP3   OH271320   6.957   1.864  15.374  0.4234 -0.2031  0.1820
16610TIP3    H171321   6.961   1.915  15.456  1.8562  1.2542 -0.7742
16610TIP3    H271322   6.872   1.886  15.337  0.4490  0.4182  0.4775
16611TIP3   OH271323   4.567   6.486   3.748 -0.1866  0.2631  0.8165
16611TIP3    H171324   4.610   6.402   3.736 -0.9937 -0.0080 -0.3314
16611TIP3    H271325   4.638   6.549   3.762  0.5126 -0.3353 -0.0231
16612TIP3   OH271326   2.298   6.137   1.568  0.3395  0.0410  0.2396
16612TIP3    H171327   2.208   6.155   1.539  0.4725  0.8120  0.2825
16612TIP3    H271328   2.338   6.093   1.493 -0.2619 -0.8909  0.4610
16613TIP3   OH271329   1.311   0.713   2.761 -0.4114  0.5630  0.2786
16613TIP3    H171330   1.248   0.748   2.699 -1.0674  0.1398  0.6996
16613TIP3    H271331   1.306   0.618   2.749  0.6038  0.5586 -0.1313
16614TIP3   OH271332   4.276   4.822   1.229  0.3757  0.0147 -0.6464
16614TIP3    H171333   4.224   4.834   1.150  2.3581 -0.2468 -2.0004
16614TIP3    H271334   4.327   4.743   1.213  1.0401  0.1457  0.7438
16615TIP3   OH271335   1.220   3.939   1.625  0.6990  0.4598 -0.5597
16615TIP3    H171336   1.210   3.844   1.615 -1.5874  0.6194 -0.1106
16615TIP3    H271337   1.248   3.950   1.716  0.7943  0.2196 -0.5586
16616TIP3   OH271338   2.422   4.347   4.232  0.2062 -0.1080  0.0003
16616TIP3    H171339   2.503   4.309   4.198  1.1253  0.4994  1.4825
16616TIP3    H271340   2.445   4.380   4.319 -0.5420  3.7014 -1.1365
16617TIP3   OH271341   4.405   5.511   5.088 -0.1024  0.0639 -0.1529
16617TIP3    H171342   4.331   5.468   5.131  1.1605 -0.9917  1.0381
16617TIP3    H271343   4.479   5.494   5.146  1.2717  0.2520 -1.7978
16618TIP3   OH271344   0.058   6.321   4.010 -0.6290 -0.1306 -0.1432
16618TIP3    H171345  -0.006   6.389   4.029 -0.2695 -0.3927  2.1407
16618TIP3    H271346   0.005   6.243   3.993 -1.0100  0.4924 -1.9252
16619TIP3   OH271347   4.346   3.806  15.424  0.7197 -0.1357 -0.1227
16619TIP3    H171348   4.367   3.713  15.418  0.1171 -0.3239  0.6610
16619TIP3    H271349   4.402   3.839  15.495  1.1022  0.1523 -0.5546
16620TIP3   OH271350   3.027   4.268   5.558  0.0744  0.2120  0.2580
16620TIP3    H171351   3.080   4.214   5.499 -0.4737  1.0943 -1.0614
16620TIP3    H271352   3.092   4.313   5.613  0.6527  0.3314 -0.5055
16621TIP3   OH271353   2.668   0.349  14.778  0.3677  0.0823  0.3715
16621TIP3    H171354   2.763   0.352  14.781  0.2852  1.8679  2.6244
16621TIP3    H271355   2.648   0.293  14.703  3.1753 -0.8622  0.2806
16622TIP3   OH271356   6.399   4.941   2.117  0.1109 -0.1244 -0.3995
16622TIP3    H171357   6.360   4.865   2.074 -0.2792  1.0640 -2.1908
16622TIP3    H271358   6.324   4.986   2.158 -0.0641  0.7464 -1.6424
16623TIP3   OH271359   1.252   1.290   3.721  0.1131  0.2061 -0.5783
16623TIP3    H171360   1.170   1.289   3.770  0.1574  1.1475 -0.4655
16623TIP3    H271361   1.280   1.381   3.724  1.6602 -0.2750  0.2130
16624TIP3   OH271362   4.531   5.001  14.634  0.2717  0.1663 -0.1767
16624TIP3    H171363   4.510   4.957  14.551 -0.0662 -0.0223  0.0125
16624TIP3    H271364   4.627   4.996  14.639  0.2528 -0.3533 -0.2662
16625TIP3   OH271365   1.134   5.193   4.316 -0.2161  0.8613 -0.2104
16625TIP3    H171366   1.122   5.272   4.368  1.6860  1.1140 -0.1197
16625TIP3    H271367   1.118   5.121   4.378 -1.1620  1.1588 -0.0989
16626TIP3   OH271368   6.547   1.496   3.048  0.1723 -0.3993  0.0980
16626TIP3    H171369   6.467   1.546   3.067 -0.0214 -0.2358 -1.0996
16626TIP3    H271370   6.586   1.480   3.133  0.6022  2.4323  0.4894
16627TIP3   OH271371   0.171   4.849   3.763  0.3594  0.5157 -0.1009
16627TIP3    H171372   0.089   4.816   3.728 -0.1830  3.7382 -2.0790
16627TIP3    H271373   0.239   4.796   3.720 -0.5897 -1.1291  0.3820
16628TIP3   OH271374   0.037   3.889   1.392  0.2285  0.1160 -0.1247
16628TIP3    H171375   0.080   3.844   1.319  0.4885 -0.8743  0.6354
16628TIP3    H271376   0.107   3.938   1.435  0.2334  0.0220 -0.0264
16629TIP3   OH271377   4.516   0.635  14.168  0.4132 -0.0887  0.1093
16629TIP3    H171378   4.516   0.671  14.257 -2.6567 -0.2290  0.2246
16629TIP3    H271379   4.463   0.698  14.117 -0.7946 -1.8044 -0.8091
16630TIP3   OH271380   3.158   6.078   2.120  0.1468  0.2384  0.1318
16630TIP3    H171381   3.111   6.148   2.164  0.5411  0.3183  0.4228
16630TIP3    H271382   3.203   6.030   2.190 -1.1039 -1.0537  0.0734
16631TIP3   OH271383   7.014   2.702   2.313  0.2246  0.4335 -0.7120
16631TIP3    H171384   6.921   2.685   2.323  0.3753  0.5631  1.1782
16631TIP3    H271385   7.050   2.691   2.401  1.5663  2.9014 -0.8984
16632TIP3   OH271386   1.972   4.258   1.497 -0.1007  0.2650  0.1468
16632TIP3    H171387   1.985   4.277   1.590 -0.8240 -0.9178  0.5107
16632TIP3    H271388   1.883   4.221   1.493  1.1426 -2.7652 -0.5295
16633TIP3   OH271389   7.106   0.467   2.022 -0.8930  0.2580  0.1055
16633TIP3    H171390   7.092   0.549   2.069  0.3960  0.8514 -0.5308
16633TIP3    H271391   7.111   0.492   1.930  3.1396 -0.0191  0.1674
16634TIP3   OH271392   6.416   4.927   5.026 -0.3164  0.3428 -0.7742
16634TIP3    H171393   6.445   4.878   4.949 -0.1653  0.2152 -0.6356
16634TIP3    H271394   6.345   4.875   5.062  1.0690 -0.7416  0.4486
16635TIP3   OH271395   2.484   0.831   4.320 -0.2257 -0.5218 -0.2452
16635TIP3    H171396   2.478   0.868   4.408  0.1781 -0.0693 -0.4083
16635TIP3    H271397   2.514   0.903   4.266  0.5343 -1.0795 -0.5741
16636TIP3   OH271398   0.339   6.909   1.688 -0.6814  0.7909 -1.0867
16636TIP3    H171399   0.326   6.924   1.782  0.0058  3.0761 -1.3495
16636TIP3    H271400   0.425   6.868   1.682 -1.6721 -1.4780 -0.5605
16637TIP3   OH271401   1.600   5.976   1.621 -0.1128  0.3037  0.0930
16637TIP3    H171402   1.506   5.964   1.636 -0.1118  0.1351 -0.0335
16637TIP3    H271403   1.622   5.911   1.554 -0.3074  1.6552 -1.3078
16638TIP3   OH271404   5.911   5.647   2.684 -0.1626 -0.4277 -0.1566
16638TIP3    H171405   5.974   5.715   2.706 -1.0739  0.3791 -0.0078
16638TIP3    H271406   5.965   5.571   2.660  0.8572  0.3144 -0.2499
16639TIP3   OH271407   4.529   2.937   0.062 -0.3940 -0.1518  0.3191
16639TIP3    H171408   4.463   2.995   0.099 -0.2165  0.3929 -0.2118
16639TIP3    H271409   4.612   2.983   0.076 -0.0632 -1.0375  1.3984
16640TIP3   OH271410   4.243   3.148   4.865 -0.2889  0.4392  0.2748
16640TIP3    H171411   4.244   3.225   4.922 -3.4126  0.6012  0.1836
16640TIP3    H271412   4.194   3.175   4.788  0.2982 -1.0383 -0.6423
16641TIP3   OH271413   1.770   6.488   5.906  0.4397  0.2584  0.1013
16641TIP3    H171414   1.824   6.567   5.917 -0.2869  0.9171 -0.9752
16641TIP3    H271415   1.689   6.520   5.865 -0.3885 -0.8569  0.8415
16642TIP3   OH271416   1.648   5.222   2.547  0.2104  0.4705 -0.4364
16642TIP3    H171417   1.732   5.200   2.506  1.5547  0.1882  2.3399
16642TIP3    H271418   1.633   5.314   2.523  1.0794  0.3925 -1.3212
16643TIP3   OH271419   5.487   6.242   1.078  0.1500 -0.1040  0.4095
16643TIP3    H171420   5.524   6.319   1.034 -0.9422 -0.1678 -0.6553
16643TIP3    H271421   5.440   6.196   1.009 -0.3481 -1.0114  1.3410
16644TIP3   OH271422   3.394   5.735   4.333  0.6337 -0.0966  0.7642
16644TIP3    H171423   3.305   5.763   4.355 -0.1089 -0.2646 -1.8722
16644TIP3    H271424   3.384   5.644   4.306  1.3069  0.4161 -1.2735
16645TIP3   OH271425   5.116   3.442   0.794  0.4655  0.0390 -0.1661
16645TIP3    H171426   5.201   3.431   0.752  0.0694 -1.1812 -0.6443
16645TIP3    H271427   5.053   3.445   0.722 -0.0713 -0.6624  0.2683
16646TIP3   OH271428   0.505   5.984   3.314 -0.8732  0.0746  0.2048
16646TIP3    H171429   0.424   6.034   3.326 -1.2721 -0.2506 -1.0205
16646TIP3    H271430   0.494   5.941   3.229  0.0004 -1.0969  0.6735
16647TIP3   OH271431   6.752   3.295   0.607 -0.0709  0.6700  0.4701
16647TIP3    H171432   6.767   3.376   0.655  0.6431 -0.3743  2.0630
16647TIP3    H271433   6.831   3.282   0.555  0.9186 -0.2744  2.1447
16648TIP3   OH271434   4.180   0.066   4.031 -0.6288 -0.7818 -0.0334
16648TIP3    H171435   4.208   0.115   4.108 -1.7882 -0.2055  0.0307
16648TIP3    H271436   4.088   0.089   4.020 -0.4406 -0.7637 -1.6750
16649TIP3   OH271437   2.270   0.494   3.051  0.1823 -0.0956  0.0362
16649TIP3    H171438   2.304   0.581   3.072 -0.4202  0.8268 -2.5191
16649TIP3    H271439   2.346   0.437   3.053  1.1112  1.0572 -1.0365
16650TIP3   OH271440   7.150   2.988   3.721 -0.2703 -0.2674  0.2183
16650TIP3    H171441   7.192   3.002   3.636 -0.7447 -0.6659 -0.0840
16650TIP3    H271442   7.189   2.907   3.753  0.7022  0.4457  0.8755
16651TIP3   OH271443   4.626   1.398   2.983  0.2398 -0.0348 -0.0052
16651TIP3    H171444   4.650   1.334   2.917  0.2384  0.2929 -0.3252
16651TIP3    H271445   4.567   1.352   3.042 -1.5529  0.2997 -1.4851
16652TIP3   OH271446   5.642   3.556   2.547 -0.0499 -0.1466 -0.3908
16652TIP3    H171447   5.717   3.541   2.490 -1.0585 -1.2552 -1.4565
16652TIP3    H271448   5.671   3.529   2.633  0.9867  0.0629 -0.6685
16653TIP3   OH271449   2.910   0.808   4.054 -0.0636 -0.0889 -0.5474
16653TIP3    H171450   2.823   0.847   4.051 -0.6475 -1.3477 -0.4070
16653TIP3    H271451   2.900   0.723   4.011  1.5997  0.6874 -2.5234
16654TIP3   OH271452   2.141   6.894   5.628 -0.0674  0.4539  0.1223
16654TIP3    H171453   2.218   6.941   5.662 -0.1775  0.3777  0.4750
16654TIP3    H271454   2.079   6.963   5.606 -0.6913  0.4332  1.7460
16655TIP3   OH271455   6.989   5.177   0.613  0.2611  0.3437 -0.2450
16655TIP3    H171456   7.032   5.097   0.642 -1.8718 -0.8405 -0.2702
16655TIP3    H271457   7.036   5.203   0.534 -0.9292 -2.6040 -1.9940
16656TIP3   OH271458   4.178   6.465   1.397  0.0294 -0.8068  0.3666
16656TIP3    H171459   4.260   6.440   1.355  1.6180  0.0472  2.8171
16656TIP3    H271460   4.205   6.515   1.474 -2.7738 -1.2242  1.6974
16657TIP3   OH271461   3.237   5.535   3.066  0.2982 -0.1286  0.3816
16657TIP3    H171462   3.303   5.494   3.122 -0.0715  1.3811  1.9751
16657TIP3    H271463   3.153   5.504   3.100  0.0666  0.9183  0.8111
16658TIP3   OH271464   1.098   4.832  13.614  0.3366  0.0686 -0.2036
16658TIP3    H171465   1.037   4.902  13.589  0.2954 -0.3520 -1.3102
16658TIP3    H271466   1.043   4.754  13.619  0.1834  0.2915  2.0882
16659TIP3   OH271467   1.951   1.185   3.180  0.5212 -0.1500  1.0794
16659TIP3    H171468   1.943   1.092   3.199  0.3433 -0.4760 -0.4916
16659TIP3    H271469   1.860   1.215   3.171  0.6064 -0.2441 -0.2508
16660TIP3   OH271470   5.192   5.814   3.738  1.0101 -0.0645 -0.4841
16660TIP3    H171471   5.150   5.853   3.814  0.4305  0.6531 -1.1613
16660TIP3    H271472   5.234   5.735   3.771 -0.0017 -0.2335  0.4017
16661TIP3   OH271473   1.938   2.614   2.962 -0.4562 -0.1551  0.5685
16661TIP3    H171474   1.859   2.627   2.909  0.2882  2.5132  0.0717
16661TIP3    H271475   1.927   2.675   3.035  0.3735 -1.0120  1.4208
16662TIP3   OH271476   5.806   0.659   4.040  0.4847 -0.1869 -0.0358
16662TIP3    H171477   5.805   0.563   4.043 -0.4447 -0.2392 -1.9012
16662TIP3    H271478   5.853   0.680   3.960  0.0092  0.9315 -0.0207
16663TIP3   OH271479   1.795   4.123   1.842  0.0860 -0.7296  0.1645
16663TIP3    H171480   1.823   4.200   1.793  1.5200 -2.3917 -1.6946
16663TIP3    H271481   1.806   4.148   1.934  0.1967  1.3834 -0.4045
16664TIP3   OH271482   6.345   2.236   2.200  0.2654 -0.3341 -0.0413
16664TIP3    H171483   6.343   2.276   2.113 -1.6298  0.2030  0.2296
16664TIP3    H271484   6.420   2.276   2.243 -1.0705  2.2912 -0.0863
16665TIP3   OH271485   1.550   5.416   2.044  0.1522  0.0838 -0.3416
16665TIP3    H171486   1.461   5.390   2.020  0.4488 -1.9239  0.6098
16665TIP3    H271487   1.599   5.333   2.049  1.8777  1.0836 -0.0489
16666TIP3   OH271488   3.705   4.635   2.852 -0.0757  0.2850 -0.3627
16666TIP3    H171489   3.730   4.595   2.769 -0.2616 -1.5624  0.4578
16666TIP3    H271490   3.782   4.687   2.876  0.9052 -1.0451 -0.5410
16667TIP3   OH271491   5.192   6.364   3.340  0.1594  0.0987  0.0673
16667TIP3    H171492   5.229   6.442   3.381  0.8245  0.1504 -0.6229
16667TIP3    H271493   5.106   6.354   3.381  0.1154  1.1280  0.2412
16668TIP3   OH271494   7.114   6.634   4.683  0.0018 -0.4776  0.2646
16668TIP3    H171495   7.110   6.658   4.775  0.6395  0.1670  0.1210
16668TIP3    H271496   7.179   6.564   4.679 -2.9570 -3.4292  0.9267
16669TIP3   OH271497   1.910   4.559   0.890  0.0898 -0.1025 -0.6853
16669TIP3    H171498   1.943   4.538   0.803  1.2299  0.2503 -0.3430
16669TIP3    H271499   1.965   4.509   0.950  1.4940  2.1807  0.0237
16670TIP3   OH271500   1.051   0.127   3.544  0.2908 -0.1524 -0.1064
16670TIP3    H171501   1.007   0.042   3.548  1.5527 -0.7841  0.4808
16670TIP3    H271502   1.058   0.145   3.450 -0.2620 -0.5481 -0.2302
16671TIP3   OH271503   2.398   2.739   1.035 -0.4400  0.4648 -0.3141
16671TIP3    H171504   2.340   2.691   0.975  0.4483 -2.2660  0.9339
16671TIP3    H271505   2.403   2.683   1.113  1.7054  1.9723  0.6734
16672TIP3   OH271506   5.706   6.628   1.363 -0.3232  0.0086  0.0715
16672TIP3    H171507   5.743   6.541   1.348  0.3109  0.2673  0.1418
16672TIP3    H271508   5.772   6.675   1.414 -1.4941 -0.1110  1.7453
16673TIP3   OH271509   3.829   5.711   1.046 -0.1240 -0.0305  0.2912
16673TIP3    H171510   3.909   5.760   1.061 -0.9087  0.8804  1.6655
16673TIP3    H271511   3.848   5.622   1.078  0.3328  0.2001  0.6612
16674TIP3   OH271512   4.088   4.988   2.853  0.3906  0.1276  0.4834
16674TIP3    H171513   4.151   4.962   2.786  0.5172 -0.5631  0.8689
16674TIP3    H271514   4.004   4.991   2.807  0.6075  0.4530  0.1104
16675TIP3   OH271515   1.346   5.993   3.692 -0.4848 -0.1923 -0.3390
16675TIP3    H171516   1.296   6.072   3.670  0.2334  0.0706 -1.0459
16675TIP3    H271517   1.436   6.014   3.666 -0.3468 -1.3555 -0.8170
16676TIP3   OH271518   6.745   5.628   1.060  0.1047  0.3298 -0.1342
16676TIP3    H171519   6.748   5.715   1.020  2.8706  1.1960  1.8615
16676TIP3    H271520   6.705   5.643   1.146 -1.7944 -0.8369 -0.7800
16677TIP3   OH271521   5.989   7.181   3.124 -0.5630  0.3450  0.3076
16677TIP3    H171522   6.004   7.269   3.089 -1.6344 -0.7860 -3.1799
16677TIP3    H271523   6.060   7.128   3.088 -2.0179 -0.9865 -0.6254
16678TIP3   OH271524   0.564   4.728   2.263 -0.2241  0.5611  0.1920
16678TIP3    H171525   0.651   4.688   2.265 -0.2805  0.3039 -1.6997
16678TIP3    H271526   0.528   4.710   2.350  1.2653 -0.1007  0.6949
16679TIP3   OH271527   6.470   4.152   3.287  0.5313  0.3398 -0.4111
16679TIP3    H171528   6.466   4.153   3.192  0.6727  1.6959 -0.4195
16679TIP3    H271529   6.558   4.185   3.307  0.1261  1.0912  0.1903
16680TIP3   OH271530   5.455   6.691   5.028  0.6952  0.4205  0.2422
16680TIP3    H171531   5.487   6.781   5.037  1.7866  0.0332  0.4194
16680TIP3    H271532   5.405   6.691   4.946  2.6111  0.6601 -0.9654
16681TIP3   OH271533   3.506   2.674   3.300 -0.0325 -0.5067  0.3322
16681TIP3    H171534   3.443   2.629   3.356 -0.0417 -1.5359 -0.4759
16681TIP3    H271535   3.592   2.643   3.331 -0.0499 -1.3473 -0.4185
16682TIP3   OH271536   0.881   2.618   4.341 -0.1563 -0.4960  0.3680
16682TIP3    H171537   0.840   2.692   4.385  0.2382  0.1464 -0.3174
16682TIP3    H271538   0.924   2.569   4.411 -0.3470 -0.0309  0.8159
16683TIP3   OH271539   1.300   5.314   2.027  0.0886  0.0167  0.5100
16683TIP3    H171540   1.232   5.339   1.964 -0.8261  2.5398  2.3863
16683TIP3    H271541   1.264   5.237   2.071  0.9482 -2.0864 -2.2809
16684TIP3   OH271542   1.303   6.953   1.728  0.6627 -0.2630 -0.3877
16684TIP3    H171543   1.244   6.993   1.793 -0.5203  0.5242 -1.9081
16684TIP3    H271544   1.312   6.863   1.757  1.0246  0.3461  1.4820
16685TIP3   OH271545   6.434   3.547   4.992  0.5635 -0.4967  0.7123
16685TIP3    H171546   6.418   3.582   4.905  0.3634 -1.3889  0.3827
16685TIP3    H271547   6.466   3.458   4.977 -3.0554 -2.0300  1.6164
16686TIP3   OH271548   0.070   4.961   3.274 -0.5640  0.3054 -0.0505
16686TIP3    H171549   0.155   4.919   3.264 -0.3382  0.8527 -0.4637
16686TIP3    H271550   0.008   4.901   3.233 -0.2190  0.4406 -0.7779
16687TIP3   OH271551   1.198   2.423   2.808  0.2541  0.3440 -0.3889
16687TIP3    H171552   1.142   2.346   2.796 -0.7517  1.1025 -0.6167
16687TIP3    H271553   1.162   2.468   2.883  0.7308  0.6975 -0.3690
16688TIP3   OH271554   3.472   5.924   3.912 -0.3268 -0.1948  0.1894
16688TIP3    H171555   3.507   5.844   3.950 -0.6076 -1.3597 -1.9675
16688TIP3    H271556   3.546   5.984   3.909  0.1501 -0.7494  0.7772
16689TIP3   OH271557   6.646   3.155   4.099  0.4429 -0.1991  0.5294
16689TIP3    H171558   6.632   3.239   4.143 -1.0287  0.3523 -0.9501
16689TIP3    H271559   6.623   3.089   4.164  0.0051  0.5687  1.1555
16690TIP3   OH271560   1.314   4.820   1.847  0.2683  0.6018  0.1569
16690TIP3    H171561   1.247   4.816   1.915  0.0976  1.0159  0.0148
16690TIP3    H271562   1.303   4.907   1.808 -0.7248 -0.2491 -1.5201
16691TIP3   OH271563   7.106   5.442   2.953 -0.2965  0.4068  0.0342
16691TIP3    H171564   7.089   5.483   2.867 -0.4239 -0.2895 -0.2767
16691TIP3    H271565   7.192   5.475   2.978 -0.4439  0.9546 -0.1648
16692TIP3   OH271566   3.653   3.172   2.981 -0.0943 -0.3051 -0.5121
16692TIP3    H171567   3.736   3.125   2.989 -0.6261 -0.8304  2.5220
16692TIP3    H271568   3.588   3.103   2.965 -0.5657 -0.4336  1.7781
16693TIP3   OH271569   3.261   3.450   1.950  0.7820  0.0413  0.6328
16693TIP3    H171570   3.306   3.534   1.946 -0.4497  0.6912  0.5672
16693TIP3    H271571   3.192   3.461   2.015  0.0564 -0.6492  0.0001
16694TIP3   OH271572   1.387   6.241   1.111 -0.1971 -0.1513  0.1337
16694TIP3    H171573   1.360   6.150   1.115 -0.8117 -0.0120 -0.6813
16694TIP3    H271574   1.380   6.265   1.019 -2.2473  1.3738  0.6515
16695TIP3   OH271575   0.269   5.968   2.306 -0.6648  0.1626  0.3955
16695TIP3    H171576   0.298   5.971   2.397 -1.0425  0.3213  0.5110
16695TIP3    H271577   0.275   5.875   2.282  2.3133  0.4787 -0.3576
16696TIP3   OH271578   6.888   5.918   2.227 -0.0814  0.2362 -0.4196
16696TIP3    H171579   6.852   5.864   2.298 -0.5557 -0.8313 -1.4604
16696TIP3    H271580   6.826   5.990   2.218 -1.2965 -0.8927 -1.3267
16697TIP3   OH271581   3.825   5.902   6.026 -0.0165 -0.0192 -0.7234
16697TIP3    H171582   3.757   5.850   5.983  0.7819  0.2613 -2.3523
16697TIP3    H271583   3.784   5.931   6.107 -1.5312 -0.6176 -1.2475
16698TIP3   OH271584   4.209   5.354   1.223 -0.2627 -0.3421  0.4920
16698TIP3    H171585   4.142   5.318   1.280  0.0979 -1.7493  0.0381
16698TIP3    H271586   4.179   5.335   1.134  0.4588 -0.4690  0.2732
16699TIP3   OH271587   6.819   5.311   3.526 -0.3186  0.1580 -0.2326
16699TIP3    H171588   6.748   5.251   3.548  0.8513 -1.4951 -0.8578
16699TIP3    H271589   6.839   5.293   3.434  0.4027  1.1234 -0.2793
16700TIP3   OH271590   1.955   5.944   3.486 -0.6959 -0.0535 -0.4783
16700TIP3    H171591   2.004   6.017   3.448  0.4185 -0.0504  0.9274
16700TIP3    H271592   1.875   5.939   3.433 -0.2737  1.4583 -1.2970
16701TIP3   OH271593   3.785   4.407   2.447 -0.9562  0.7474 -0.8236
16701TIP3    H171594   3.819   4.495   2.465 -0.4435  0.3781  0.0622
16701TIP3    H271595   3.758   4.374   2.533 -2.2360  0.4844 -1.3245
16702TIP3   OH271596   1.527   5.146   3.007  0.0638  0.4926 -0.4234
16702TIP3    H171597   1.452   5.199   3.032 -0.7086  0.1205 -1.9106
16702TIP3    H271598   1.520   5.137   2.912 -0.1216 -2.7246 -0.1445
16703TIP3   OH271599   2.997   6.798   3.405 -0.4401 -0.5372 -0.4368
16703TIP3    H171600   2.911   6.759   3.421  0.7194 -2.5230  1.1537
16703TIP3    H271601   3.026   6.758   3.323 -0.0533 -1.6225  0.2249
16704TIP3   OH271602   6.182   3.482   1.783 -0.1545 -0.0571  0.0604
16704TIP3    H171603   6.139   3.503   1.866 -1.5317 -0.9293 -0.4300
16704TIP3    H271604   6.118   3.505   1.716  0.9846  0.7124 -0.7894
16705TIP3   OH271605   4.173   6.199   1.043 -0.1179 -0.0003  0.5813
16705TIP3    H171606   4.145   6.189   1.134 -2.7405 -0.9695 -0.2879
16705TIP3    H271607   4.129   6.278   1.012 -0.5936 -0.6153 -0.3312
16706TIP3   OH271608   5.112   0.007   1.281  0.1650 -0.5448 -0.0165
16706TIP3    H171609   5.151   0.083   1.324 -1.3480  0.0655  0.2735
16706TIP3    H271610   5.115  -0.062   1.347  0.6977 -0.4953  0.0177
16707TIP3   OH271611   0.472   6.291   5.445 -0.1604  0.1329  1.3679
16707TIP3    H171612   0.506   6.363   5.392 -0.0620 -1.8686 -1.4013
16707TIP3    H271613   0.400   6.330   5.496 -1.3895  1.7598 -1.5292
16708TIP3   OH271614   0.218   4.832   0.811 -0.1306 -0.1282 -0.2378
16708TIP3    H171615   0.285   4.767   0.831 -0.6879 -0.8541 -0.6730
16708TIP3    H271616   0.214   4.834   0.715 -0.8066 -0.1972 -0.2197
16709TIP3   OH271617   0.852   6.473   3.508  0.6861  0.0078 -0.2988
16709TIP3    H171618   0.858   6.385   3.469  0.9403  1.1441 -2.9130
16709TIP3    H271619   0.932   6.482   3.559  0.2885 -1.5563  0.6721
16710TIP3   OH271620   4.371   0.322   3.623  0.5308 -0.6846 -0.3791
16710TIP3    H171621   4.403   0.264   3.554  1.1036 -1.3080  0.4088
16710TIP3    H271622   4.387   0.274   3.704  1.0986  0.6203  0.2867
16711TIP3   OH271623   4.553   6.188   4.165 -0.0274 -0.4856 -0.0749
16711TIP3    H171624   4.518   6.274   4.144 -4.2867 -1.9652  0.5313
16711TIP3    H271625   4.599   6.200   4.248 -0.7890  1.1500  0.1217
16712TIP3   OH271626   7.169   1.830   2.968  0.0452 -0.2431  0.0157
16712TIP3    H171627   7.199   1.786   3.047  2.6963 -1.1701 -1.4528
16712TIP3    H271628   7.210   1.916   2.971  0.5973 -0.4813 -0.6180
16713TIP3   OH271629   6.732   3.491   2.123  0.3135 -0.5548  0.6827
16713TIP3    H171630   6.671   3.495   2.049  0.3722 -1.0098  0.6054
16713TIP3    H271631   6.723   3.576   2.167 -0.3769 -0.6277  0.6762
16714TIP3   OH271632   1.376   6.119   5.023  0.2866  0.0702 -0.6056
16714TIP3    H171633   1.423   6.149   5.101  0.8050 -0.4754 -0.7126
16714TIP3    H271634   1.287   6.153   5.035  0.1015 -0.8523  0.7134
16715TIP3   OH271635   5.513   6.440   4.225  0.2329 -0.0065  0.4709
16715TIP3    H171636   5.482   6.499   4.157 -0.2696 -0.9121 -0.0844
16715TIP3    H271637   5.583   6.489   4.269  0.6548  0.5171 -0.7774
16716TIP3   OH271638   3.411   5.487   4.098  0.0022 -0.5416  0.9757
16716TIP3    H171639   3.423   5.438   4.179  1.3067 -1.2383  0.3797
16716TIP3    H271640   3.404   5.420   4.030 -0.2758  0.0453  0.4192
16717TIP3   OH271641   0.518   4.810   2.005  0.2537  0.2641  0.3842
16717TIP3    H171642   0.521   4.828   2.099  1.6758 -0.3423  0.4613
16717TIP3    H271643   0.452   4.741   1.997  1.0798 -0.6213  1.1012
16718TIP3   OH271644   0.237   4.238   0.241  0.1191  0.0497  0.0003
16718TIP3    H171645   0.284   4.163   0.276 -0.8480 -0.5320  0.0951
16718TIP3    H271646   0.249   4.307   0.305  1.0403 -0.0225 -0.0993
16719TIP3   OH271647   4.230   4.568   2.976  0.2948 -0.0764  0.1263
16719TIP3    H171648   4.281   4.568   2.895  1.0480  1.0519  0.5825
16719TIP3    H271649   4.140   4.585   2.948 -0.0081 -2.9498 -0.7659
16720TIP3   OH271650   1.077   5.548   5.646  0.2317  0.0092  0.2316
16720TIP3    H171651   0.983   5.537   5.663  0.5765 -0.9259  1.6754
16720TIP3    H271652   1.095   5.640   5.668 -0.3606  0.2102 -0.1208
16721TIP3   OH271653   1.576   1.403   3.029  0.1818  0.1315  0.0043
16721TIP3    H171654   1.517   1.479   3.031  1.6902  1.3410 -0.3630
16721TIP3    H271655   1.635   1.420   2.955  0.7111 -1.2632  0.0922
16722TIP3   OH271656   6.714   5.478   5.633  0.4331 -0.1342  0.0554
16722TIP3    H171657   6.706   5.566   5.669  1.7491  0.7624 -1.7751
16722TIP3    H271658   6.808   5.466   5.618 -0.0558 -0.4996 -2.9681
16723TIP3   OH271659   2.052   0.705   2.709 -0.3374  0.2671  0.5133
16723TIP3    H171660   2.108   0.749   2.646 -0.1897  0.4597  0.7791
16723TIP3    H271661   1.965   0.744   2.696 -0.4478 -0.1439 -0.0069
16724TIP3   OH271662   6.614   4.108   3.703 -0.1658  0.2175  0.1623
16724TIP3    H171663   6.555   4.168   3.749 -1.0530  0.6455 -1.4787
16724TIP3    H271664   6.560   4.032   3.682  0.5054 -0.4245  0.7251
16725TIP3   OH271665   1.239   6.559   2.929  0.0323  0.8159  0.2054
16725TIP3    H171666   1.155   6.535   2.891  0.7475  0.7074 -1.3723
16725TIP3    H271667   1.289   6.477   2.930  0.7324  1.2264 -0.5214
16726TIP3   OH271668   2.065   0.607   5.405 -0.1172  0.5400  0.0955
16726TIP3    H171669   2.013   0.659   5.466  0.0168 -0.0709  0.7497
16726TIP3    H271670   2.132   0.567   5.461  1.9689  2.4717 -0.9530
16727TIP3   OH271671   4.743   4.589   3.827 -0.7748  0.3678 -0.0703
16727TIP3    H171672   4.670   4.648   3.845 -0.5432  0.9872 -1.0627
16727TIP3    H271673   4.713   4.503   3.854 -2.7654  0.2062 -2.5653
16728TIP3   OH271674   5.836   2.157   2.644  0.5769 -0.0191  0.5502
16728TIP3    H171675   5.788   2.080   2.614 -0.5006  0.5759  0.7454
16728TIP3    H271676   5.893   2.123   2.714  1.3921 -0.9590 -0.5368
16729TIP3   OH271677   0.402   0.378   2.553  0.4334  0.1666  0.3815
16729TIP3    H171678   0.444   0.451   2.508 -0.6042 -0.7289 -2.2081
16729TIP3    H271679   0.467   0.307   2.549  0.5846  0.2818  0.8529
16730TIP3   OH271680   2.001   0.578   3.075 -0.0663  0.2345 -0.3766
16730TIP3    H171681   2.093   0.568   3.050 -0.0560 -0.0275 -0.2358
16730TIP3    H271682   1.997   0.662   3.120  0.5818 -0.8714  1.7980
16731TIP3   OH271683   1.623   6.734   2.563  0.2043 -0.4553 -0.4874
16731TIP3    H171684   1.600   6.727   2.656 -0.0715 -0.0237 -0.5242
16731TIP3    H271685   1.667   6.651   2.544 -1.0238 -1.1467 -0.3391
16732TIP3   OH271686   1.618   5.539   4.590 -0.4909 -0.0989  0.2568
16732TIP3    H171687   1.604   5.447   4.612 -0.0076  0.1767  1.8249
16732TIP3    H271688   1.671   5.537   4.510 -1.1509 -1.1750 -0.1559
16733TIP3   OH271689   4.243   4.979   2.618  0.0905  0.1362  0.2810
16733TIP3    H171690   4.337   4.976   2.638 -0.5112 -0.1127  3.2157
16733TIP3    H271691   4.228   5.068   2.586  0.9896  0.7580  1.5689
16734TIP3   OH271692   1.154   3.300   1.231 -0.0368 -0.2387 -0.5548
16734TIP3    H171693   1.191   3.383   1.262 -2.6402 -0.5479  3.7439
16734TIP3    H271694   1.217   3.233   1.258 -0.8933 -0.2255  1.4857
16735TIP3   OH271695   6.883   7.130   2.476  0.0259 -0.0375  0.0015
16735TIP3    H171696   6.845   7.213   2.506 -0.1328  0.5385 -1.7264
16735TIP3    H271697   6.971   7.129   2.514 -0.6757 -0.0178  1.6584
16736TIP3   OH271698   3.439   5.317   2.351  0.3728  0.1834 -0.5874
16736TIP3    H171699   3.381   5.393   2.358  1.9914  1.4208 -0.3165
16736TIP3    H271700   3.492   5.320   2.431 -0.9930 -2.4822  0.4902
16737TIP3   OH271701   5.106   2.102  15.306  0.5233  0.0555  0.1970
16737TIP3    H171702   5.109   2.072  15.397 -0.5567  1.6903  0.7937
16737TIP3    H271703   5.180   2.059  15.264 -0.3926 -2.6723  1.2325
16738TIP3   OH271704   2.844   5.984   1.095  0.1638 -0.1668  0.1209
16738TIP3    H171705   2.876   5.907   1.049  0.9277  0.7532 -0.9314
16738TIP3    H271706   2.769   6.014   1.043  0.8991  0.7545 -0.4397
16739TIP3   OH271707   5.523   2.647   3.753 -0.1155 -0.3783 -0.3508
16739TIP3    H171708   5.465   2.604   3.815  0.3567 -0.0951  0.2916
16739TIP3    H271709   5.572   2.710   3.806  1.0028 -0.8417 -0.8321
16740TIP3   OH271710   3.805   1.734   4.418 -0.1311 -0.0751  0.0889
16740TIP3    H171711   3.780   1.826   4.424  2.4917  0.6284  1.0879
16740TIP3    H271712   3.829   1.722   4.326 -0.0248  0.3911  0.0524
16741TIP3   OH271713   2.472   0.506  13.994 -0.5187 -0.0783 -0.0405
16741TIP3    H171714   2.406   0.575  13.991 -0.6421 -0.2228 -0.7766
16741TIP3    H271715   2.538   0.539  14.055  0.1053  1.3049 -1.4299
16742TIP3   OH271716   3.567   6.406   3.147  0.0145  0.1297  0.1046
16742TIP3    H171717   3.543   6.322   3.185  0.6806  0.6435  1.7374
16742TIP3    H271718   3.650   6.428   3.189 -0.0527  1.5030 -0.4458
16743TIP3   OH271719   0.434   4.412   1.769 -0.1117  0.0794  0.1442
16743TIP3    H171720   0.487   4.425   1.848  0.9433  1.2356 -0.7463
16743TIP3    H271721   0.407   4.500   1.743 -2.0658 -0.4432  0.2799
16744TIP3   OH271722   3.069   3.059   4.699 -0.2176 -0.3329  0.1994
16744TIP3    H171723   3.002   3.084   4.762  0.9204  0.6754  1.0398
16744TIP3    H271724   3.027   3.069   4.614 -1.5448 -1.0044  0.7661
16745TIP3   OH271725   5.043   1.779   4.693 -0.4676  0.4628  0.4730
16745TIP3    H171726   4.961   1.734   4.676  0.0436 -1.3413  2.6509
16745TIP3    H271727   5.054   1.778   4.788  2.2459  0.3151  0.2216
16746TIP3   OH271728   4.041   0.641  14.003  0.5454  0.0100  0.1126
16746TIP3    H171729   4.080   0.597  14.078 -0.1081 -1.5480 -0.4304
16746TIP3    H271730   3.959   0.677  14.036  0.7946  0.2949  0.4188
16747TIP3   OH271731   4.460   6.699  14.549  0.4913 -0.0816  0.8987
16747TIP3    H171732   4.448   6.618  14.599  1.4562  0.9686  2.8766
16747TIP3    H271733   4.372   6.720  14.517  0.1087 -1.5195  0.9893
16748TIP3   OH271734   6.656   7.015   1.629 -0.2903  0.3512  0.0629
16748TIP3    H171735   6.694   6.964   1.700 -0.9022  1.8140  1.4711
16748TIP3    H271736   6.722   7.013   1.560  0.5853 -0.5454  0.9017
16749TIP3   OH271737   6.060   1.626   1.717 -0.0516  0.3649  0.4513
16749TIP3    H171738   5.973   1.608   1.752 -0.5365  1.7451  0.0052
16749TIP3    H271739   6.063   1.577   1.634  0.7357 -2.1156  1.9059
16750TIP3   OH271740   3.057   5.459   2.057  0.4576 -0.3136 -0.1065
16750TIP3    H171741   3.046   5.394   1.987  0.4294  0.5051 -0.8700
16750TIP3    H271742   3.009   5.536   2.025  2.4462  0.8836 -0.2700
16751TIP3   OH271743   0.433   1.315   5.527 -0.1265 -0.1199  0.2103
16751TIP3    H171744   0.514   1.366   5.536  1.0295 -2.0514  1.1213
16751TIP3    H271745   0.370   1.360   5.584 -0.2977  2.5235 -1.9961
16752TIP3   OH271746   2.275   6.349   4.728 -0.0350  0.1828 -0.1441
16752TIP3    H171747   2.266   6.435   4.686 -0.3586 -0.4855 -1.4754
16752TIP3    H271748   2.353   6.357   4.783  0.0461  1.2682 -0.4081
16753TIP3   OH271749   5.304   4.641   3.940  0.5392  0.2902  0.7053
16753TIP3    H171750   5.325   4.734   3.931 -2.1828  0.9709  0.7720
16753TIP3    H271751   5.235   4.639   4.007  0.4794 -1.7633  0.6153
16754TIP3   OH271752   1.295   5.968   0.065 -0.3039 -0.0200  0.4292
16754TIP3    H171753   1.307   5.875   0.046  0.7532 -0.1902  1.8209
16754TIP3    H271754   1.317   5.977   0.158  1.8452  1.9783 -0.2138
16755TIP3   OH271755   1.388   4.568   1.740 -0.2271 -0.1758 -0.3702
16755TIP3    H171756   1.358   4.658   1.756 -1.2038 -0.4023 -0.8485
16755TIP3    H271757   1.376   4.523   1.823 -1.8675 -0.4270 -0.7153
16756TIP3   OH271758   1.812   7.134   0.325 -0.0438  0.0837  0.0320
16756TIP3    H171759   1.838   7.165   0.238  0.2653  0.8768  0.4017
16756TIP3    H271760   1.717   7.124   0.320  0.0799 -0.7909 -0.6822
16757TIP3   OH271761   2.446   0.771   2.802  0.6284 -0.0190 -0.0128
16757TIP3    H171762   2.364   0.762   2.850  1.6376 -2.3909  1.3681
16757TIP3    H271763   2.513   0.775   2.871  1.7092  1.6550 -1.1196
16758TIP3   OH271764   0.630   2.682   4.164 -0.0324 -0.2489 -0.4899
16758TIP3    H171765   0.660   2.594   4.183 -2.1673 -0.5487  1.7537
16758TIP3    H271766   0.574   2.705   4.238  1.4105  3.4598 -0.4380
16759TIP3   OH271767   2.600   2.414   1.821  0.0728 -0.2046  0.1571
16759TIP3    H171768   2.601   2.327   1.861 -0.2093 -0.4901 -0.4645
16759TIP3    H271769   2.628   2.400   1.731  0.3964  0.4020  0.1583
16760TIP3   OH271770   3.453   5.031   1.294  0.0485 -0.1093  0.1131
16760TIP3    H171771   3.549   5.029   1.286 -0.1837 -2.5246 -2.7514
16760TIP3    H271772   3.429   4.940   1.312 -1.8871  0.0801 -1.4066
16761TIP3   OH271773   1.707   3.592   2.016  0.2186  0.0097  0.3265
16761TIP3    H171774   1.689   3.686   2.017 -1.6420 -0.3178 -0.4533
16761TIP3    H271775   1.650   3.557   1.948 -0.3221 -1.9230  1.7202
16762TIP3   OH271776   0.084   0.110   1.470 -0.0804  0.0434 -0.2627
16762TIP3    H171777   0.017   0.058   1.515 -0.3998 -0.3281 -1.1626
16762TIP3    H271778   0.035   0.182   1.431 -0.0566 -0.5838 -1.4670
16763TIP3   OH271779   6.585   1.053   1.218 -0.5684  0.2761 -0.3062
16763TIP3    H171780   6.679   1.069   1.210 -0.8996  2.1922 -0.5365
16763TIP3    H271781   6.572   0.967   1.177  1.0971 -0.1108 -0.0797
16764TIP3   OH271782   4.287   3.812  14.699 -0.2199 -0.4876 -0.8180
16764TIP3    H171783   4.338   3.844  14.625  0.1847 -0.8105 -0.6841
16764TIP3    H271784   4.296   3.717  14.695  2.0515 -0.4298  1.1850
16765TIP3   OH271785   6.451   3.271   5.056 -0.2114  0.2530 -0.0378
16765TIP3    H171786   6.511   3.208   5.017  1.1506  0.2482  2.0037
16765TIP3    H271787   6.462   3.260   5.150 -2.4252  1.2115  0.3701
16766TIP3   OH271788   6.706   0.481   1.252 -0.5712 -0.1553  0.1189
16766TIP3    H171789   6.775   0.486   1.318  0.7871 -0.9258 -1.2083
16766TIP3    H271790   6.664   0.396   1.269 -0.1936 -0.3745 -0.0219
16767TIP3   OH271791   0.742   1.511   3.900 -0.0252  0.2522  0.6730
16767TIP3    H171792   0.803   1.559   3.956 -2.6697  1.8117  2.3358
16767TIP3    H271793   0.796   1.446   3.856  3.1567  2.7533  0.6879
16768TIP3   OH271794   0.007   7.102   4.325 -0.6346  0.3611  0.1026
16768TIP3    H171795  -0.069   7.055   4.360 -0.3331 -0.3166 -0.1428
16768TIP3    H271796   0.076   7.087   4.390 -1.0167  1.9004  0.8784
16769TIP3   OH271797   3.959   2.378  14.150  0.2431 -0.1207  0.1414
16769TIP3    H171798   4.011   2.457  14.162 -0.6847  0.3978  0.7731
16769TIP3    H271799   3.944   2.345  14.238 -0.1411 -0.5014 -0.0633
16770TIP3   OH271800   6.777   0.626   3.714 -0.6236  0.4782  0.5169
16770TIP3    H171801   6.692   0.643   3.673  0.6878  1.3478 -1.9630
16770TIP3    H271802   6.789   0.531   3.706 -0.0053  0.7204 -2.0412
16771TIP3   OH271803   6.419   1.347   4.618  0.2738  0.0890  0.1332
16771TIP3    H171804   6.354   1.417   4.629 -0.4150 -0.4558 -0.4061
16771TIP3    H271805   6.369   1.266   4.631  1.3169 -0.2760  1.9952
16772TIP3   OH271806   3.932   3.167   4.209  0.0766  0.0302  0.3976
16772TIP3    H171807   3.847   3.205   4.186  1.2893  1.5697 -1.6519
16772TIP3    H271808   3.926   3.076   4.180 -1.1252 -0.0924  0.9665
16773TIP3   OH271809   1.971   5.284   0.621  0.0559 -0.1841  0.8304
16773TIP3    H171810   1.919   5.232   0.683 -0.8432 -0.0968  0.1712
16773TIP3    H271811   2.025   5.341   0.675 -1.0729  0.2312  1.5302
16774TIP3   OH271812   2.115   6.302  15.049 -0.2748  0.1608  0.0409
16774TIP3    H171813   2.157   6.269  14.970  0.6628 -0.4223  0.7658
16774TIP3    H271814   2.180   6.360  15.088  0.0444 -1.0698  1.3917
16775TIP3   OH271815   2.050   6.284   3.564  0.1928  0.0302 -0.1174
16775TIP3    H171816   2.114   6.222   3.531 -0.3875 -0.6040 -0.0640
16775TIP3    H271817   2.102   6.350   3.610  1.0895  1.4335 -3.0262
16776TIP3   OH271818   0.174   6.636   3.958  0.6798 -0.6091  0.4621
16776TIP3    H171819   0.170   6.730   3.937  0.2574 -0.2929  1.9264
16776TIP3    H271820   0.085   6.613   3.983  0.6602 -1.5518 -0.4370
16777TIP3   OH271821   5.118   2.380   5.869  0.4581  0.1657  0.3531
16777TIP3    H171822   5.187   2.446   5.876  0.2072  0.3792  0.8929
16777TIP3    H271823   5.056   2.402   5.939  0.4339 -0.7134  0.6227
16778TIP3   OH271824   6.451   5.264   1.304  0.2057 -0.2376  0.3870
16778TIP3    H171825   6.480   5.179   1.270  0.7487 -0.1917  0.7290
16778TIP3    H271826   6.400   5.302   1.232  0.4151 -0.6139  0.0325
16779TIP3   OH271827   4.764   7.001   3.688 -0.2555 -0.3868  0.7086
16779TIP3    H171828   4.746   6.992   3.595 -0.6591 -1.2010  0.8624
16779TIP3    H271829   4.859   6.992   3.695 -0.3266 -1.3345  0.4873
16780TIP3   OH271830   4.534   6.802   0.425 -0.4517  0.1902 -0.0368
16780TIP3    H171831   4.575   6.804   0.511 -2.5008 -0.6551  1.0117
16780TIP3    H271832   4.462   6.739   0.434  0.1891 -1.0349 -2.7855
16781TIP3   OH271833   0.046   5.641   3.521  0.6767  0.4580 -0.0489
16781TIP3    H171834   0.069   5.724   3.565  1.0652 -0.1705  0.9611
16781TIP3    H271835   0.130   5.608   3.489  0.6103  0.1332  0.1168
16782TIP3   OH271836   0.752   2.544   0.388 -0.3520  0.0819  0.2672
16782TIP3    H171837   0.800   2.467   0.420  1.6930  0.7268 -1.0996
16782TIP3    H271838   0.820   2.601   0.352 -2.0468  1.6349 -0.5750
16783TIP3   OH271839   6.527   7.090   2.578  0.3108  0.1323  0.4747
16783TIP3    H171840   6.519   7.184   2.593  0.8860  0.3713 -0.6860
16783TIP3    H271841   6.583   7.059   2.650  1.6626  0.9910 -0.2005
16784TIP3   OH271842   0.508   1.376   1.908  0.6273 -0.2964 -0.0876
16784TIP3    H171843   0.430   1.384   1.963  0.0923 -1.6926 -0.6093
16784TIP3    H271844   0.524   1.465   1.876 -1.8839 -0.3086 -1.4988
16785TIP3   OH271845   1.567   6.884   1.158 -0.7465  0.4522 -0.0499
16785TIP3    H171846   1.642   6.943   1.149 -0.1345 -0.0425  1.6241
16785TIP3    H271847   1.495   6.941   1.187  0.2393  0.1776  3.1104
16786TIP3   OH271848   1.516   1.450   2.139  0.8331 -1.0256  0.3268
16786TIP3    H171849   1.472   1.369   2.115 -2.6210  0.7033  0.4853
16786TIP3    H271850   1.486   1.469   2.228  0.8450  0.8856 -0.0494
16787TIP3   OH271851   6.993   0.565   3.415 -0.1049 -0.2746  0.3535
16787TIP3    H171852   7.010   0.476   3.445  0.0287 -0.7962 -1.2304
16787TIP3    H271853   7.008   0.562   3.321 -2.4964  0.8373 -0.0951
16788TIP3   OH271854   5.758   1.094   5.008  0.3041 -0.1737 -0.0351
16788TIP3    H171855   5.688   1.036   5.039  1.6014 -1.5000  0.4850
16788TIP3    H271856   5.817   1.101   5.083  1.5425 -0.3510 -0.9884
16789TIP3   OH271857   0.095   4.863  13.886  0.4231 -0.0402  0.2022
16789TIP3    H171858   0.077   4.774  13.916 -0.4769 -0.0321 -0.3010
16789TIP3    H271859   0.180   4.857  13.843  0.0374 -0.8123 -0.4638
16790TIP3   OH271860   5.459   5.967   4.676 -0.7465  0.1072 -0.2005
16790TIP3    H171861   5.497   5.991   4.592 -1.1563  0.6625 -0.2206
16790TIP3    H271862   5.386   6.027   4.689 -0.6991  0.0183  0.5411
16791TIP3   OH271863   5.870   0.077  13.489 -0.5103  0.2613  0.4129
16791TIP3    H171864   5.829   0.155  13.527  0.5282  1.9262 -1.7853
16791TIP3    H271865   5.808   0.045  13.425  0.3459  1.0627 -0.8299
16792TIP3   OH271866   4.020   6.461   1.696  0.0739 -0.5287 -0.3523
16792TIP3    H171867   3.926   6.452   1.681  0.3020  1.2991 -3.0985
16792TIP3    H271868   4.058   6.381   1.659 -0.1692  0.0312 -1.8458
16793TIP3   OH271869   5.754   6.328   3.850 -0.0591  0.3476 -0.1805
16793TIP3    H171870   5.768   6.418   3.881 -0.4456  0.3581 -0.0272
16793TIP3    H271871   5.774   6.273   3.926  1.0758  0.2459 -0.5433
16794TIP3   OH271872   2.168   0.899   4.675  0.2451  0.1657 -0.3782
16794TIP3    H171873   2.123   0.983   4.665  0.5296  0.5915  1.6498
16794TIP3    H271874   2.180   0.889   4.769  2.7053 -0.8448 -0.7495
16795TIP3   OH271875   6.679   6.609   2.488  0.0815 -0.1537  0.3371
16795TIP3    H171876   6.652   6.700   2.501 -0.0103  0.0592 -1.2302
16795TIP3    H271877   6.707   6.580   2.574 -2.2059  0.5963  1.3858
16796TIP3   OH271878   6.105   2.185   5.158 -0.0137 -0.0274  0.0538
16796TIP3    H171879   6.194   2.156   5.175 -0.4756 -2.0529 -0.7619
16796TIP3    H271880   6.054   2.153   5.232  0.1246  2.2848  1.1996
16797TIP3   OH271881   4.000   5.558   4.709 -0.9027 -0.0067  0.1432
16797TIP3    H171882   3.963   5.481   4.751  1.5016 -0.1811  2.0424
16797TIP3    H271883   4.092   5.535   4.693 -0.9000  1.3764 -1.9922
16798TIP3   OH271884   1.741   6.851   0.699  0.5414  0.5873 -0.0429
16798TIP3    H171885   1.819   6.799   0.717 -0.7764 -1.7251 -0.7801
16798TIP3    H271886   1.687   6.795   0.644 -1.4384  2.3423  0.0420
16799TIP3   OH271887   2.134   3.992   3.765  0.5019  0.2407  0.3474
16799TIP3    H171888   2.126   3.942   3.846 -2.4515 -2.4277 -1.4731
16799TIP3    H271889   2.229   3.994   3.747  0.9506 -1.5879  2.3618
16800TIP3   OH271890   3.540   3.100   3.426 -0.3286  0.0015  0.2765
16800TIP3    H171891   3.570   3.022   3.472  0.4004 -0.3915 -0.8542
16800TIP3    H271892   3.466   3.069   3.373  0.3922 -0.0751 -0.6950
16801TIP3   OH271893   1.617   5.791   1.404 -0.2342 -0.4106  0.6315
16801TIP3    H171894   1.623   5.696   1.419 -1.6939 -0.8367 -1.2443
16801TIP3    H271895   1.654   5.803   1.316 -1.2429  0.5750  0.3277
16802TIP3   OH271896   1.166   6.293   4.993 -0.3965  0.1687  0.1905
16802TIP3    H171897   1.177   6.364   4.931 -0.7660 -0.3130 -0.4406
16802TIP3    H271898   1.147   6.216   4.938 -0.2094 -0.3660  0.8683
16803TIP3   OH271899   4.715   1.271   3.304  0.6706 -0.3489 -0.5866
16803TIP3    H171900   4.675   1.334   3.243  0.8378 -1.1423 -1.5163
16803TIP3    H271901   4.784   1.229   3.254  0.4712 -1.3805 -0.0111
16804TIP3   OH271902   6.788   6.040   2.513 -0.2003  1.0951 -0.1753
16804TIP3    H171903   6.814   6.120   2.468  1.2037  1.6436  1.5451
16804TIP3    H271904   6.856   5.976   2.488 -0.5192  0.8399 -0.3971
16805TIP3   OH271905   0.503   0.031   3.433  0.8949  0.2128  1.0555
16805TIP3    H171906   0.469   0.041   3.522 -0.6571  2.3930  0.2659
16805TIP3    H271907   0.501   0.119   3.397 -1.3557 -1.0398 -2.1320
16806TIP3   OH271908   5.540   2.564   2.523  0.2217  0.5335  0.2677
16806TIP3    H171909   5.620   2.513   2.515 -0.3259 -0.4673  1.0379
16806TIP3    H271910   5.568   2.647   2.561  1.3970  1.5852 -2.7576
16807TIP3   OH271911   0.734   3.167   3.421 -0.2325  0.0491 -0.2203
16807TIP3    H171912   0.698   3.140   3.506  3.5639 -0.4996  1.2968
16807TIP3    H271913   0.713   3.095   3.362 -1.0785 -0.5005  0.7382
16808TIP3   OH271914   4.975   4.988   1.172  0.4994  0.3614 -0.0531
16808TIP3    H171915   4.907   5.045   1.138 -0.3686 -0.2823  0.5852
16808TIP3    H271916   5.052   5.007   1.118 -0.6429 -0.0921 -1.8514
16809TIP3   OH271917   2.455   0.740   3.484 -0.3269  0.0213  0.5026
16809TIP3    H171918   2.455   0.836   3.481  1.2204  0.0173  0.3443
16809TIP3    H271919   2.402   0.719   3.561  1.5424  1.0725  2.1150
16810TIP3   OH271920   6.930   0.661   2.899  0.4842  0.1866 -0.0335
16810TIP3    H171921   6.894   0.749   2.905  0.6703  0.3022 -0.6063
16810TIP3    H271922   6.862   0.611   2.854  0.0935 -0.1204  0.8949
16811TIP3   OH271923   2.060   3.420   5.005  0.3547 -0.4079 -0.6445
16811TIP3    H171924   2.010   3.343   4.978 -1.6357  0.8745 -0.7003
16811TIP3    H271925   2.132   3.424   4.943  0.4770 -2.2039 -0.6538
16812TIP3   OH271926   6.117   0.016   4.518  0.5613 -0.5659  0.4380
16812TIP3    H171927   6.188   0.080   4.524  1.0243 -1.2040  1.8904
16812TIP3    H271928   6.136  -0.048   4.586 -1.4583 -0.7166  0.9003
16813TIP3   OH271929   3.403   4.758   4.050 -0.1206  0.1372  0.0054
16813TIP3    H171930   3.497   4.750   4.037  0.0968 -0.9089  2.0141
16813TIP3    H271931   3.386   4.709   4.131 -2.0446  2.2934  0.9488
16814TIP3   OH271932   6.645   3.676   6.028 -0.2424  0.1694 -0.2727
16814TIP3    H171933   6.572   3.638   6.077 -1.3708 -1.1513 -2.8734
16814TIP3    H271934   6.716   3.612   6.037 -0.0531  0.5154  0.6524
16815TIP3   OH271935   0.595   6.081   5.321 -0.1004  0.2108 -0.0490
16815TIP3    H171936   0.575   6.165   5.361 -0.4467 -0.3150  0.8875
16815TIP3    H271937   0.532   6.020   5.359  1.2922 -0.8331  0.6364
16816TIP3   OH271938   3.206   2.176   4.619 -0.2488  0.2620  0.2992
16816TIP3    H171939   3.235   2.261   4.587  1.6400 -0.1923  0.7471
16816TIP3    H271940   3.197   2.188   4.714  0.1237 -0.0506  0.3777
16817TIP3   OH271941   0.243   0.014  14.278  0.3877  0.0603 -0.0491
16817TIP3    H171942   0.307   0.056  14.222  0.2870  0.4182  0.1072
16817TIP3    H271943   0.263  -0.080  14.271  0.1513  0.0698 -0.9547
16818TIP3   OH271944   6.440   1.094   1.699  0.1069  0.1190 -0.1768
16818TIP3    H171945   6.363   1.038   1.689  0.4712 -0.4538  0.1365
16818TIP3    H271946   6.411   1.165   1.756 -0.2577  0.0435 -0.2673
16819TIP3   OH271947   6.232   1.108   1.331  0.1235 -0.0403  0.1786
16819TIP3    H171948   6.318   1.148   1.336  0.1571 -0.2551  1.3466
16819TIP3    H271949   6.246   1.018   1.362 -0.8251  0.3956  1.9007
16820TIP3   OH271950   3.214   4.215   3.144  0.7300 -0.1428  0.1477
16820TIP3    H171951   3.200   4.155   3.071  0.4864  0.6807 -0.4894
16820TIP3    H271952   3.202   4.302   3.106 -0.9145  0.2483  1.5095
16821TIP3   OH271953   4.535   4.813   5.327  0.1888  0.1970  0.1695
16821TIP3    H171954   4.462   4.869   5.301 -0.2197 -1.3132 -2.0209
16821TIP3    H271955   4.495   4.728   5.346  1.1372 -0.0968  0.9425
16822TIP3   OH271956   3.195   1.515   3.602  0.0469 -0.3761 -0.6093
16822TIP3    H171957   3.253   1.486   3.531 -3.1628 -0.1638 -3.4770
16822TIP3    H271958   3.225   1.604   3.622  1.5184 -0.7386 -1.1526
16823TIP3   OH271959   6.421   0.442   0.979  0.1535 -0.1582  0.1325
16823TIP3    H171960   6.348   0.494   0.946  0.6020  0.4062  0.0087
16823TIP3    H271961   6.383   0.357   1.002 -0.6489  0.3541  0.6910
16824TIP3   OH271962   6.414   0.163   1.002  0.1984  0.3795 -0.2539
16824TIP3    H171963   6.417   0.068   1.013 -0.1524  0.3772 -0.1667
16824TIP3    H271964   6.399   0.176   0.909 -3.3510  0.2773  0.2497
16825TIP3   OH271965   0.946   0.520   4.857  0.0768  0.0745 -0.4757
16825TIP3    H171966   0.932   0.554   4.769  0.3123  0.7035 -0.2769
16825TIP3    H271967   0.956   0.426   4.845  0.4444  0.1949 -1.1617
16826TIP3   OH271968   1.355   2.588  14.896 -0.5042  0.6132 -0.0807
16826TIP3    H171969   1.398   2.502  14.893 -1.2275  0.1923  1.2036
16826TIP3    H271970   1.428   2.651  14.899  0.0281  0.0641 -1.1612
16827TIP3   OH271971   3.831   2.750   4.999  0.5750 -0.0191  0.2484
16827TIP3    H171972   3.802   2.841   5.008 -0.0878  0.2778 -3.8927
16827TIP3    H271973   3.761   2.699   5.040 -1.3336  1.1724 -1.3735
16828TIP3   OH271974   3.648   3.902   2.510  0.2218  0.0250  0.2596
16828TIP3    H171975   3.663   3.934   2.421  1.7013 -1.1099  0.0815
16828TIP3    H271976   3.553   3.908   2.522  0.1102  1.1488 -1.0138
16829TIP3   OH271977   5.647   2.414   1.675 -0.0366 -0.0015 -0.4299
16829TIP3    H171978   5.613   2.480   1.735  3.6663  1.2796  0.4247
16829TIP3    H271979   5.682   2.346   1.732  2.6008  0.7491 -1.0800
16830TIP3   OH271980   0.217   4.262   3.613  0.1682  0.5373  0.5300
16830TIP3    H171981   0.305   4.297   3.601  1.6143 -3.5388 -1.5631
16830TIP3    H271982   0.227   4.191   3.676 -1.5735 -0.1323  0.0883
16831TIP3   OH271983   6.228   0.606   3.764 -0.4953  0.4048 -0.0498
16831TIP3    H171984   6.263   0.655   3.838  0.7757 -0.2199 -0.2073
16831TIP3    H271985   6.256   0.516   3.780 -0.6648  0.1760 -1.0133
16832TIP3   OH271986   0.142   6.054   3.118  0.0609  0.0874  0.0890
16832TIP3    H171987   0.115   5.970   3.154  1.0236 -0.2886 -0.0517
16832TIP3    H271988   0.211   6.084   3.177  1.7052 -0.5693 -1.4686
16833TIP3   OH271989   5.864   1.877   2.019 -0.8593 -0.3529  0.1970
16833TIP3    H171990   5.950   1.837   2.011 -0.0396  1.9057 -3.2563
16833TIP3    H271991   5.804   1.804   2.032  1.4490 -2.0039  1.9842
16834TIP3   OH271992   2.105   4.990   1.477  0.4790 -0.2364 -0.1263
16834TIP3    H171993   2.016   5.006   1.510  0.1299 -0.8209 -0.7576
16834TIP3    H271994   2.128   5.071   1.431  0.5850  0.2101  0.7112
16835TIP3   OH271995   6.578   6.113   1.979  0.4968 -0.1942 -0.3781
16835TIP3    H171996   6.504   6.172   1.988 -0.0674 -0.7919 -1.0195
16835TIP3    H271997   6.566   6.073   1.893  0.9122 -1.1806  0.0148
16836TIP3   OH271998   6.807   6.301  15.021  0.0779 -0.5125 -0.6349
16836TIP3    H171999   6.820   6.355  15.099  0.2211  0.3966 -1.2778
16836TIP3    H272000   6.891   6.257  15.008 -0.0111 -0.8256 -0.1631
16837TIP3   OH272001   1.119   6.193   2.873  0.1741 -0.1140  0.0105
16837TIP3    H172002   1.073   6.277   2.865  1.9288  0.9571  0.7288
16837TIP3    H272003   1.067   6.143   2.936 -0.0648  1.0454  0.7598
16838TIP3   OH272004   4.181   4.819  14.694  0.0350  0.1444  0.4565
16838TIP3    H172005   4.147   4.738  14.654  0.2092 -1.3970  3.2815
16838TIP3    H272006   4.263   4.835  14.648 -0.7265 -0.4257 -1.1683
16839TIP3   OH272007   2.269   1.222   3.243  0.5608  0.2554  0.1046
16839TIP3    H172008   2.279   1.306   3.287  0.3353  0.6703 -0.6163
16839TIP3    H272009   2.217   1.242   3.165  1.1588 -0.4056 -0.4755
16840TIP3   OH272010   3.467   3.696   2.228  0.9689  0.2949 -0.3575
16840TIP3    H172011   3.460   3.602   2.248  1.0789  0.1284 -1.1039
16840TIP3    H272012   3.461   3.701   2.133 -1.5362  1.2766 -0.1717
16841TIP3   OH272013   4.003   0.168   5.227 -0.1715 -0.4172  0.6037
16841TIP3    H172014   4.090   0.171   5.267 -0.7101  0.6065  1.7201
16841TIP3    H272015   4.003   0.240   5.165 -0.9322  0.9003  2.1073
16842TIP3   OH272016   6.012   6.427   0.007 -0.1622 -0.2992 -0.6105
16842TIP3    H172017   5.994   6.413  -0.086 -1.1255  0.2947 -0.5264
16842TIP3    H272018   5.989   6.519   0.022  1.3336 -0.0022 -0.0941
16843TIP3   OH272019   3.771   7.157   2.431 -0.3822 -0.4574 -0.4808
16843TIP3    H172020   3.715   7.118   2.499 -1.3061  2.0797  0.2574
16843TIP3    H272021   3.714   7.169   2.356 -0.1871 -0.2137 -0.5920
16844TIP3   OH272022   5.833   2.600   2.215  0.3606 -0.5589  0.2179
16844TIP3    H172023   5.795   2.686   2.198 -0.9210 -0.8073  1.6672
16844TIP3    H272024   5.860   2.603   2.307 -1.0390 -2.1631  0.7105
16845TIP3   OH272025   5.963   0.366   4.612 -0.3328  0.3480  0.3153
16845TIP3    H172026   5.891   0.340   4.671  0.5778 -0.4770  1.0826
16845TIP3    H272027   6.039   0.372   4.669  0.4472  0.1022 -0.6970
16846TIP3   OH272028   6.661   4.435   1.389  0.0746 -0.0107 -0.6298
16846TIP3    H172029   6.711   4.514   1.369 -2.1595  1.1828 -1.6823
16846TIP3    H272030   6.608   4.458   1.466  0.0006 -0.7553 -0.4480
16847TIP3   OH272031   4.614   4.191   3.616  0.1104  0.0409 -0.6428
16847TIP3    H172032   4.663   4.120   3.577 -1.7599 -1.6800  0.0522
16847TIP3    H272033   4.555   4.222   3.547 -1.3203 -1.2318 -0.0160
16848TIP3   OH272034   1.287   5.311  14.560 -0.2555  0.2642 -0.0154
16848TIP3    H172035   1.294   5.289  14.468 -1.2293 -1.4148  0.2853
16848TIP3    H272036   1.240   5.237  14.599  2.5962 -0.4095  2.3414
16849TIP3   OH272037   4.645   1.522   0.367  0.4782 -0.2053 -0.5055
16849TIP3    H172038   4.623   1.580   0.293 -2.6895 -2.8793 -1.7911
16849TIP3    H272039   4.707   1.459   0.330 -1.0021 -1.4585 -0.9371
16850TIP3   OH272040   1.140   6.682   5.562  0.3936 -0.2517 -0.6005
16850TIP3    H172041   1.081   6.677   5.487 -0.1073  1.1260 -0.3224
16850TIP3    H272042   1.201   6.753   5.540  3.1045 -2.8401 -1.6753
16851TIP3   OH272043   3.961   1.058   3.459 -0.3043  0.5969 -0.7131
16851TIP3    H172044   3.887   1.114   3.434 -1.2846  0.1683  1.1964
16851TIP3    H272045   3.945   0.976   3.413 -1.0169  0.5124 -0.3281
16852TIP3   OH272046   6.907   3.576   4.521  0.0669 -0.0082  0.4643
16852TIP3    H172047   6.911   3.489   4.560 -0.9266 -0.3601 -0.2303
16852TIP3    H272048   6.819   3.608   4.541 -0.1861  0.1205 -0.8082
16853TIP3   OH272049   5.438   4.346   4.401  0.5134  0.2149  0.6507
16853TIP3    H172050   5.533   4.335   4.406  0.3475 -2.9304 -1.3694
16853TIP3    H272051   5.420   4.362   4.308 -1.1190 -2.0688  0.5147
16854TIP3   OH272052   0.496   0.717   5.532  0.3801 -0.0134  0.5666
16854TIP3    H172053   0.578   0.680   5.564  0.5699  0.3247  0.4801
16854TIP3    H272054   0.489   0.802   5.575  0.3886  0.2274  0.1049
16855TIP3   OH272055   5.880   4.960   4.113 -0.0371  0.1764 -0.0775
16855TIP3    H172056   5.810   4.895   4.121  0.7634 -0.4737  2.3637
16855TIP3    H272057   5.841   5.041   4.145 -0.2183  0.2256 -0.4305
16856TIP3   OH272058   6.495   2.820   1.786  0.1364  0.3662  0.1187
16856TIP3    H172059   6.482   2.756   1.715  0.3403  1.0061 -0.5036
16856TIP3    H272060   6.477   2.905   1.745 -0.2615  0.7047  0.9712
16857TIP3   OH272061   5.879   6.157   4.058 -0.3573  0.2293  0.5649
16857TIP3    H172062   5.973   6.173   4.057 -0.1337 -1.0692  0.1373
16857TIP3    H272063   5.870   6.064   4.077 -1.4833 -0.1303 -1.5311
16858TIP3   OH272064   3.578   1.487   4.393 -0.6135 -0.2261 -0.3696
16858TIP3    H172065   3.604   1.521   4.307  0.3051 -1.7285 -0.7123
16858TIP3    H272066   3.492   1.447   4.379 -1.6186  1.7722 -0.0014
16859TIP3   OH272067   4.684   3.106   3.165  0.3542 -0.1590  0.3795
16859TIP3    H172068   4.599   3.074   3.195  0.7911 -0.1817  1.6075
16859TIP3    H272069   4.740   3.029   3.162  0.8604  0.1613  1.4323
16860TIP3   OH272070   1.684   1.480   5.437  0.3843  0.3784  0.3395
16860TIP3    H172071   1.679   1.472   5.532 -3.2445 -1.1016  0.1116
16860TIP3    H272072   1.635   1.560   5.417 -0.0365 -0.0503 -0.3741
16861TIP3   OH272073   5.644   1.983   4.498 -0.3581 -1.2269  0.2007
16861TIP3    H172074   5.551   1.989   4.520 -0.5111  1.8272 -1.0115
16861TIP3    H272075   5.686   2.046   4.556  1.0232 -2.7235  0.8641
16862TIP3   OH272076   5.051   4.881   3.218 -0.0030  0.0965 -0.5037
16862TIP3    H172077   5.046   4.932   3.137  0.8219 -0.6715 -1.0427
16862TIP3    H272078   4.966   4.894   3.260  0.3445  2.2249 -0.4449
16863TIP3   OH272079   0.999   7.123   1.469 -0.4366  0.5900  0.1344
16863TIP3    H172080   1.015   7.033   1.439  1.2145  1.3016 -1.1395
16863TIP3    H272081   1.000   7.116   1.565 -0.9542 -0.8394  0.0591
16864TIP3   OH272082   6.718   3.987   2.575  0.0479  0.2503 -0.0582
16864TIP3    H172083   6.657   3.913   2.573  0.3483 -0.0066  0.2025
16864TIP3    H272084   6.726   4.008   2.668 -0.5325  1.0271 -0.1755
16865TIP3   OH272085   7.175   1.012   3.150  0.1492  0.9727  0.8085
16865TIP3    H172086   7.092   0.964   3.150  0.3254  0.6673  0.5831
16865TIP3    H272087   7.155   1.093   3.103  0.2415  0.4406 -0.1619
16866TIP3   OH272088   1.918   1.712   5.123 -0.4545 -0.1647 -0.4424
16866TIP3    H172089   1.994   1.762   5.094  1.0624 -0.8540  2.1605
16866TIP3    H272090   1.949   1.621   5.124 -0.6176 -0.2349  2.5794
16867TIP3   OH272091   2.131   5.142   4.980 -0.1863  0.5142  0.3789
16867TIP3    H172092   2.191   5.077   4.943 -0.8928  0.5841 -0.9317
16867TIP3    H272093   2.078   5.092   5.042 -1.8006 -0.5401 -1.7860
16868TIP3   OH272094   6.546   6.140   4.155  0.8015  0.3695 -0.1487
16868TIP3    H172095   6.640   6.151   4.168  0.8363  1.1132 -0.9781
16868TIP3    H272096   6.512   6.120   4.242  1.6578  0.5418  0.2344
16869TIP3   OH272097   2.739   0.213   3.569 -1.3810  0.0241  0.0541
16869TIP3    H172098   2.832   0.235   3.576 -1.4239 -0.3743  2.1000
16869TIP3    H272099   2.693   0.294   3.590 -1.5387  0.7603 -2.8599
16870TIP3   OH272100   1.301   6.557   4.164  0.2742 -0.5683 -0.6844
16870TIP3    H172101   1.335   6.478   4.122  2.7524  0.2377 -0.2988
16870TIP3    H272102   1.341   6.556   4.251  0.3933  1.1349 -0.7012
16871TIP3   OH272103   6.648   0.362   3.885 -0.3962  0.4963  0.0876
16871TIP3    H172104   6.639   0.267   3.897  1.5258  0.5916  2.5183
16871TIP3    H272105   6.569   0.399   3.924 -0.6736 -0.0399  0.0433
16872TIP3   OH272106   1.060   2.675   3.921 -0.1839  0.4221 -0.5934
16872TIP3    H172107   1.064   2.638   4.009  2.9900  1.7163 -0.1155
16872TIP3    H272108   0.970   2.706   3.912 -0.8571 -0.7028  1.7641
16873TIP3   OH272109   3.783   2.067   3.794 -0.0302  0.6430 -0.0195
16873TIP3    H172110   3.877   2.052   3.804 -0.0434  1.3895  1.3418
16873TIP3    H272111   3.777   2.158   3.764 -0.2939  0.3391 -0.9180
16874TIP3   OH272112   0.638   6.466   3.972 -0.1290  0.1405  0.1374
16874TIP3    H172113   0.692   6.436   3.899  0.1639  2.3856 -0.5901
16874TIP3    H272114   0.555   6.421   3.960 -0.0055  0.3102 -1.4573
16875TIP3   OH272115   2.074   0.339   5.253 -0.0697  0.2005 -0.3229
16875TIP3    H172116   2.018   0.403   5.295  0.4210  1.8318 -2.0660
16875TIP3    H272117   2.034   0.254   5.272 -2.2560  1.2341 -0.2820
16876TIP3   OH272118   0.715   3.106   4.795 -0.2918  0.2214  0.3118
16876TIP3    H172119   0.704   3.043   4.724  1.4918 -0.2442  0.4273
16876TIP3    H272120   0.637   3.162   4.790 -0.5780 -0.3118 -1.4816
16877TIP3   OH272121   2.700   1.213   4.281  0.0520  0.3866  0.0271
16877TIP3    H172122   2.753   1.191   4.204 -0.3123 -1.8536  0.3737
16877TIP3    H272123   2.763   1.213   4.354  0.4289  2.6796 -0.2626
16878TIP3   OH272124   4.858   0.658   3.103  0.5188  0.0150  0.6073
16878TIP3    H172125   4.901   0.725   3.049  1.0350 -0.7912 -0.0014
16878TIP3    H272126   4.768   0.688   3.112 -0.1487 -0.9003 -2.5376
16879TIP3   OH272127   1.361   2.257   5.651 -0.5102 -0.5102 -0.3795
16879TIP3    H172128   1.293   2.280   5.714 -0.3197 -0.0557 -0.3399
16879TIP3    H272129   1.375   2.163   5.665 -0.8836 -0.5353 -0.1532
16880TIP3   OH272130   2.094   4.673  13.027 -0.0875 -0.2552  0.2139
16880TIP3    H172131   2.096   4.768  13.039  0.8861 -0.3254  0.7273
16880TIP3    H272132   2.001   4.650  13.030 -0.3468  0.7082 -0.1801
16881TIP3   OH272133   5.864   3.247   5.153 -0.6150  0.3939 -0.2994
16881TIP3    H172134   5.874   3.157   5.122  2.3787  1.4777 -2.6591
16881TIP3    H272135   5.829   3.237   5.242  1.1302 -3.1764  0.0976
16882TIP3   OH272136   4.016   4.217   3.774  0.3226  1.0970 -0.0249
16882TIP3    H172137   3.946   4.245   3.834  0.9880  0.7387  0.9331
16882TIP3    H272138   4.004   4.271   3.696 -0.4499  1.6992  0.5035
16883TIP3   OH272139   3.373   0.827  15.160  0.1974  0.3412  0.3863
16883TIP3    H172140   3.422   0.901  15.195  0.3907  1.5269 -2.2623
16883TIP3    H272141   3.438   0.757  15.150  0.1635  0.0454  2.2086
16884TIP3   OH272142   1.968   1.887   5.338 -0.1381  0.3111  0.1029
16884TIP3    H172143   2.054   1.849   5.358 -0.7368 -1.0439  0.1840
16884TIP3    H272144   1.927   1.823   5.280 -0.8298  1.2841 -0.4849
16885TIP3   OH272145   1.497   7.083   2.307  0.7466 -0.2113  0.0498
16885TIP3    H172146   1.436   7.147   2.344  1.0305  0.2515 -0.2737
16885TIP3    H272147   1.448   7.000   2.308  0.1825  0.1158 -0.0192
16886TIP3   OH272148   6.827   0.275   5.230 -0.8381 -0.1137 -0.0761
16886TIP3    H172149   6.885   0.339   5.189 -2.3006  0.4228 -1.3648
16886TIP3    H272150   6.748   0.276   5.176 -1.6509 -1.5843  1.0353
16887TIP3   OH272151   3.904   3.032   0.856 -0.2611 -0.1259  0.4075
16887TIP3    H172152   3.937   2.986   0.779  1.1911 -0.4531  1.2135
16887TIP3    H272153   3.809   3.023   0.850 -0.2061  0.4058 -1.6870
16888TIP3   OH272154   6.701   0.132   2.773  0.5521 -0.2171  0.1695
16888TIP3    H172155   6.698   0.179   2.689 -0.6582  1.1221  0.9316
16888TIP3    H272156   6.781   0.164   2.815  0.4501  0.1280  0.1033
16889TIP3   OH272157   4.590   1.354   5.115 -0.5111  0.4174 -0.2644
16889TIP3    H172158   4.655   1.421   5.136 -1.3500  1.3537 -0.6143
16889TIP3    H272159   4.570   1.368   5.022 -1.5282  0.4107 -0.0535
16890TIP3   OH272160   1.424   2.106   2.823 -0.3056  0.2256 -0.0339
16890TIP3    H172161   1.416   2.127   2.916  1.0443 -0.7655  0.3221
16890TIP3    H272162   1.426   2.011   2.820 -0.7557  0.2405 -1.1255
16891TIP3   OH272163   0.038   6.723   1.940  0.5007 -0.0338 -0.5411
16891TIP3    H172164   0.018   6.691   1.852 -0.1152 -1.1132 -0.0101
16891TIP3    H272165   0.037   6.645   1.996  1.0328  0.6215  0.4051
16892TIP3   OH272166   5.774   4.256   3.019 -0.1751 -0.2114  0.0095
16892TIP3    H172167   5.786   4.269   2.925  0.3368 -0.4789  0.0396
16892TIP3    H272168   5.822   4.175   3.039  0.9356  0.6255  0.7725
16893TIP3   OH272169   0.941   2.784   5.990  0.5099  0.0908  0.1243
16893TIP3    H172170   0.864   2.767   5.935 -0.7451  1.3756  1.4369
16893TIP3    H272171   0.935   2.877   6.011  1.2773 -0.2618  1.9784
16894TIP3   OH272172   3.933   3.472   3.982  0.5552  0.3138 -0.6130
16894TIP3    H172173   3.992   3.447   4.053 -3.2106 -1.5612  2.0168
16894TIP3    H272174   3.919   3.391   3.933  0.0677  0.7030 -1.1251
16895TIP3   OH272175   1.375   6.387   3.660 -0.0799  0.3899 -0.1468
16895TIP3    H172176   1.378   6.332   3.739 -1.4535 -0.3137 -0.5660
16895TIP3    H272177   1.282   6.408   3.649 -0.1353 -0.8601 -2.4667
16896TIP3   OH272178   0.583   1.775   4.300  0.9058 -0.4966  0.3465
16896TIP3    H172179   0.502   1.758   4.349  0.1535 -1.5892 -1.2313
16896TIP3    H272180   0.607   1.864   4.324  0.3044 -0.8415  2.3373
16897TIP3   OH272181   3.155   2.748   3.901 -0.7956 -0.5524 -0.0724
16897TIP3    H172182   3.183   2.669   3.855 -2.4918 -1.6400  0.7085
16897TIP3    H272183   3.206   2.818   3.862  1.5826 -2.1866  0.0099
16898TIP3   OH272184   5.538   2.974   3.636 -0.0427  0.2730 -0.5419
16898TIP3    H172185   5.597   3.017   3.574  0.0610  2.7289  1.1701
16898TIP3    H272186   5.597   2.934   3.701 -0.1814 -1.3813 -1.3979
16899TIP3   OH272187   2.385   1.084   5.019 -0.2010 -0.3346  0.3680
16899TIP3    H172188   2.420   1.114   4.935  1.0863 -1.1258  0.6089
16899TIP3    H272189   2.311   1.028   4.997 -2.2479  2.4062 -0.1175
16900TIP3   OH272190   3.396   1.811   3.385 -0.3003 -0.6228 -0.1448
16900TIP3    H172191   3.396   1.776   3.474  2.2527  1.3656  0.7154
16900TIP3    H272192   3.368   1.902   3.395  1.9435  0.2236 -1.0356
16901TIP3   OH272193   6.190   6.793   0.586  0.1359  0.2420 -0.5389
16901TIP3    H172194   6.155   6.859   0.646 -0.4007  1.4886 -2.1777
16901TIP3    H272195   6.213   6.842   0.507  2.4512 -1.1095 -0.7266
16902TIP3   OH272196   6.929   1.576   4.183  0.0218  0.4417  0.1623
16902TIP3    H172197   6.924   1.643   4.252 -0.1354 -0.2785  0.8673
16902TIP3    H272198   7.023   1.563   4.170  0.0530  0.6166  0.2108
16903TIP3   OH272199   0.693   6.723   2.825  0.3032 -0.2324  0.0176
16903TIP3    H172200   0.746   6.752   2.751  1.2108 -0.8535  0.4192
16903TIP3    H272201   0.752   6.668   2.877 -1.0276 -1.8434 -0.1171
16904TIP3   OH272202   6.159   6.977   3.012  0.5473 -0.1332  0.4992
16904TIP3    H172203   6.235   6.934   3.050  1.4902  1.1844  0.1149
16904TIP3    H272204   6.194   7.048   2.958 -0.9185  0.2119 -0.0471
16905TIP3   OH272205   6.659   2.865   6.179  0.5021  0.3314 -0.2389
16905TIP3    H172206   6.715   2.941   6.168  1.2991 -0.2289 -0.1239
16905TIP3    H272207   6.666   2.818   6.096  0.6539 -0.0313 -0.0239
16906TIP3   OH272208   0.158   0.637   2.341 -0.1746  0.0684 -0.4947
16906TIP3    H172209   0.129   0.573   2.276  0.0748 -0.3120 -0.2348
16906TIP3    H272210   0.221   0.692   2.295 -2.0662  1.5459 -1.3614
16907TIP3   OH272211   0.978   3.948   4.570  0.1405 -0.1357 -0.3392
16907TIP3    H172212   0.975   3.961   4.665 -0.4968 -0.6653 -0.2786
16907TIP3    H272213   0.887   3.929   4.546  0.5955 -1.8378 -0.7909
16908TIP3   OH272214   3.185   1.212   3.309 -0.7296  0.3045  0.3118
16908TIP3    H172215   3.201   1.154   3.384 -1.5186 -0.7287 -0.3051
16908TIP3    H272216   3.115   1.169   3.260 -0.5348  1.2080 -0.7743
16909TIP3   OH272217   3.850   1.813   2.163 -0.4382  0.4429 -0.8505
16909TIP3    H172218   3.840   1.718   2.170 -0.0404  0.5505  1.5216
16909TIP3    H272219   3.944   1.826   2.152 -0.2224  0.6351  0.9853
16910TIP3   OH272220   5.736   1.676   3.122 -0.9783 -0.2725  0.0625
16910TIP3    H172221   5.830   1.661   3.113 -0.7633  1.7507 -1.5591
16910TIP3    H272222   5.697   1.623   3.052 -0.9500 -0.1899 -0.0156
16911TIP3   OH272223   6.588   5.030   4.489  0.0984  0.1466  0.3025
16911TIP3    H172224   6.549   4.943   4.478  0.8056 -0.2166  0.6204
16911TIP3    H272225   6.676   5.013   4.521 -0.2868  1.0293  1.8954
16912TIP3   OH272226   0.373   0.210   5.431  0.3045 -0.2056 -0.1314
16912TIP3    H172227   0.329   0.272   5.489  0.7883 -0.0693  0.0897
16912TIP3    H272228   0.390   0.133   5.486 -1.7650 -1.1916 -0.8246
16913TIP3   OH272229   1.718   4.403   2.469 -0.0144 -0.5074 -0.5765
16913TIP3    H172230   1.738   4.322   2.515  0.2125 -0.3863 -0.4628
16913TIP3    H272231   1.673   4.375   2.389  2.2057 -0.9001 -1.7400
16914TIP3   OH272232   3.370   1.852   0.131 -1.0455  0.0941 -0.3518
16914TIP3    H172233   3.313   1.821   0.061 -1.5953  0.7794 -0.2069
16914TIP3    H272234   3.419   1.774   0.157 -1.1506 -0.2591 -1.1961
16915TIP3   OH272235   2.947   6.571   1.433  0.2522  0.1410  0.0933
16915TIP3    H172236   2.886   6.595   1.503 -0.5573 -1.9092  0.1076
16915TIP3    H272237   2.996   6.497   1.468 -1.0369 -1.7340 -1.9674
16916TIP3   OH272238   5.110   2.897   0.327  0.3697  0.4245 -0.3974
16916TIP3    H172239   5.127   2.844   0.249  0.1645  0.4938 -0.4890
16916TIP3    H272240   5.165   2.858   0.395  0.5276  0.3470 -0.5700
16917TIP3   OH272241   6.588   3.894   5.034  0.2645 -0.2354 -0.5251
16917TIP3    H172242   6.616   3.985   5.038 -1.0114  0.1147  0.6931
16917TIP3    H272243   6.648   3.847   5.091  0.9688 -0.1716 -1.2136
16918TIP3   OH272244   5.624   6.077   2.480 -0.2656  0.2576  0.4596
16918TIP3    H172245   5.598   5.998   2.432 -0.9381  0.4621  0.4836
16918TIP3    H272246   5.714   6.092   2.454 -0.3921 -0.0621 -0.1668
16919TIP3   OH272247   4.937   5.823   5.587 -0.3058 -0.3757  0.8669
16919TIP3    H172248   4.904   5.875   5.514  1.4397  0.0551  0.3565
16919TIP3    H272249   4.861   5.775   5.619 -1.6705  1.5578  0.5564
16920TIP3   OH272250   2.527   2.358   4.440 -0.2779 -0.0218  0.0270
16920TIP3    H172251   2.524   2.445   4.479 -1.4998 -0.8083  1.7644
16920TIP3    H272252   2.446   2.352   4.389 -0.8891 -0.6320  1.0485
16921TIP3   OH272253   2.664   6.501   4.784  0.3775 -0.2867 -0.0158
16921TIP3    H172254   2.636   6.411   4.764  1.1213 -0.3323 -0.9095
16921TIP3    H272255   2.679   6.501   4.878 -0.8334 -0.7581  0.1854
16922TIP3   OH272256   1.197   3.876   4.797  0.1121  0.1419 -0.1649
16922TIP3    H172257   1.102   3.876   4.797  0.1027  0.8284  1.0478
16922TIP3    H272258   1.222   3.789   4.828 -0.1519  0.5291  1.1951
16923TIP3   OH272259   4.470   4.575   3.368 -0.4483 -0.3111 -0.4006
16923TIP3    H172260   4.408   4.616   3.309 -1.7082 -1.2627  0.2282
16923TIP3    H272261   4.483   4.639   3.438  1.3079  0.9533 -1.8552
16924TIP3   OH272262   5.159   4.462   2.795  0.3251  0.3672 -0.0421
16924TIP3    H172263   5.248   4.497   2.797 -0.4348  2.3167  0.4524
16924TIP3    H272264   5.135   4.462   2.703  0.4344  0.8996 -0.0715
16925TIP3   OH272265   0.753   0.687   5.643 -0.4913  0.2969  0.5697
16925TIP3    H172266   0.749   0.592   5.644 -0.5552  0.2957  0.2648
16925TIP3    H272267   0.788   0.711   5.729  1.5731 -0.0943 -0.1494
16926TIP3   OH272268   3.076   2.533   4.675  0.3965 -0.2443  0.4206
16926TIP3    H172269   3.153   2.517   4.620  0.6556 -0.0601  0.7280
16926TIP3    H272270   3.097   2.614   4.722  0.0850 -0.2855  0.6270
16927TIP3   OH272271   1.983   1.673   5.989  0.0607 -0.1054  0.1193
16927TIP3    H172272   1.908   1.635   6.034 -0.7506  1.9228  0.5490
16927TIP3    H272273   2.037   1.710   6.059  1.1181 -0.9293 -0.2422
16928TIP3   OH272274   4.133   5.785   5.517  0.0393 -0.2557  0.1482
16928TIP3    H172275   4.144   5.697   5.482  1.2506 -0.5724  1.2655
16928TIP3    H272276   4.040   5.792   5.538 -0.2018 -0.9828 -0.6730
16929TIP3   OH272277   2.759   0.067   5.845  0.6427  0.4689 -0.7424
16929TIP3    H172278   2.834   0.010   5.863 -0.4791 -0.9183 -0.3544
16929TIP3    H272279   2.690   0.008   5.814 -0.9941  1.3957  0.9715
16930TIP3   OH272280   0.463   1.914   2.582 -0.3363 -0.2839 -0.3736
16930TIP3    H172281   0.515   1.897   2.504 -1.0032 -0.3784 -0.8005
16930TIP3    H272282   0.379   1.945   2.549 -0.8557 -0.9581  0.2925
16931TIP3   OH272283   1.671   0.767   5.487 -0.0932  0.4015 -0.2395
16931TIP3    H172284   1.752   0.816   5.499 -0.3932  0.6391  0.8562
16931TIP3    H272285   1.683   0.688   5.541  0.1117 -0.4132 -1.4498
16932TIP3   OH272286   1.235   1.819   4.738  0.2093  0.2006 -0.1809
16932TIP3    H172287   1.221   1.911   4.761 -0.5462 -0.2832  1.3706
16932TIP3    H272288   1.325   1.816   4.705 -0.3013  1.7836 -1.8757
16933TIP3   OH272289   5.679   4.830   3.118  0.6306  0.2738 -0.1588
16933TIP3    H172290   5.698   4.805   3.027  1.3806 -0.1748  0.1244
16933TIP3    H272291   5.634   4.914   3.110 -1.5448 -0.9355 -1.1027
16934TIP3   OH272292   2.129   6.401   2.317 -0.1943 -0.0747 -0.0667
16934TIP3    H172293   2.152   6.315   2.280 -0.7303 -0.5304  0.6424
16934TIP3    H272294   2.188   6.412   2.391 -0.7638 -0.2744  0.4303
16935TIP3   OH272295   3.970   0.807   3.748  0.3405 -0.3764  0.3663
16935TIP3    H172296   4.019   0.853   3.816 -0.9073 -0.4022  1.3090
16935TIP3    H272297   3.905   0.870   3.718  1.2782 -0.1569 -1.2619
16936TIP3   OH272298   6.775   3.225   1.996 -0.3278 -0.0171 -0.0951
16936TIP3    H172299   6.816   3.162   2.056  1.3092  0.4788 -0.6421
16936TIP3    H272300   6.776   3.308   2.043 -0.7952 -0.0195 -0.0779
16937TIP3   OH272301   6.585   0.776   4.654 -0.4466  0.1142  0.2742
16937TIP3    H172302   6.559   0.814   4.570  0.6408 -0.3751 -0.3035
16937TIP3    H272303   6.681   0.777   4.652 -0.4062 -0.6257  1.1719
16938TIP3   OH272304   6.685   2.133   5.258 -0.4774  0.3216 -0.0834
16938TIP3    H172305   6.761   2.189   5.245 -1.2353  1.1386 -1.0842
16938TIP3    H272306   6.637   2.174   5.330 -0.6556  0.5552 -0.3344
16939TIP3   OH272307   0.693   2.196   1.641  0.4184 -0.2840  0.3573
16939TIP3    H172308   0.730   2.247   1.569 -1.0468  1.9470  1.1696
16939TIP3    H272309   0.710   2.248   1.719 -3.8008  0.5360  0.8430
16940TIP3   OH272310   2.461   1.599   2.394 -0.1328  0.0780 -0.6365
16940TIP3    H172311   2.436   1.528   2.335 -1.7266  1.0255 -1.1209
16940TIP3    H272312   2.483   1.555   2.476 -1.7324 -0.9541 -0.7312
16941TIP3   OH272313   3.654   0.859   4.116  0.0656 -0.4300 -0.3850
16941TIP3    H172314   3.570   0.872   4.073  0.2722 -1.7053 -1.2092
16941TIP3    H272315   3.717   0.904   4.060  0.0076  0.0352 -0.0766
16942TIP3   OH272316   6.886   2.702   4.069  0.2982 -0.1771 -0.1207
16942TIP3    H172317   6.886   2.723   4.163 -3.9900 -0.5149  0.0549
16942TIP3    H272318   6.917   2.612   4.065 -1.2970 -0.8198  1.2139
16943TIP3   OH272319   2.337   3.622   4.239 -0.3378  0.1589  0.1364
16943TIP3    H172320   2.250   3.606   4.203 -0.2345 -0.0899  0.0003
16943TIP3    H272321   2.337   3.576   4.323 -0.5705  0.7196  0.4476
16944TIP3   OH272322   6.498   6.588   1.713  0.7889 -0.6889 -0.6330
16944TIP3    H172323   6.479   6.508   1.664  0.5630 -1.2555  0.3523
16944TIP3    H272324   6.413   6.614   1.749  0.7775  0.2538 -1.3302
16945TIP3   OH272325   2.842   3.573   4.145  0.2306 -0.0819  0.1636
16945TIP3    H172326   2.920   3.548   4.094  0.4652  0.5154  0.2229
16945TIP3    H272327   2.773   3.515   4.113  0.7303 -0.7079  0.1986
16946TIP3   OH272328   0.280   1.970   1.995  1.0444 -0.1741 -0.4513
16946TIP3    H172329   0.329   1.952   1.915  0.1891 -1.8007 -0.6323
16946TIP3    H272330   0.200   2.013   1.964  0.8043 -0.6269 -0.4789
16947TIP3   OH272331   1.863   4.491   3.345  0.6332  0.1288 -0.1240
16947TIP3    H172332   1.796   4.549   3.382  0.7729  0.0750  0.2239
16947TIP3    H272333   1.815   4.411   3.322  0.5074  0.2392 -0.2425
16948TIP3   OH272334   1.220   0.777   4.886  0.1332  0.0624 -0.0631
16948TIP3    H172335   1.215   0.703   4.825 -0.7115  0.2690 -0.2528
16948TIP3    H272336   1.301   0.822   4.862 -0.6014  0.6131 -1.5781
16949TIP3   OH272337   3.610   5.180   3.587 -0.1805  0.6507  0.2924
16949TIP3    H172338   3.619   5.265   3.544 -2.4903  0.5836 -0.3577
16949TIP3    H272339   3.622   5.116   3.517 -0.3836  0.4703  0.4222
16950TIP3   OH272340   3.853   6.225   2.899  0.3761 -0.2918 -0.5296
16950TIP3    H172341   3.854   6.213   2.994 -2.7430  3.1634  0.0446
16950TIP3    H272342   3.780   6.171   2.868 -1.4355  1.9945 -0.3493
16951TIP3   OH272343   0.152   1.779   5.584  0.3346  0.1876 -0.0229
16951TIP3    H172344   0.089   1.851   5.588 -1.5793 -1.4677  0.3359
16951TIP3    H272345   0.127   1.722   5.657  0.6586 -1.7759 -1.4226
16952TIP3   OH272346   4.016   0.636   5.056  0.0820  0.6432 -0.3095
16952TIP3    H172347   4.102   0.660   5.090 -0.0687  0.4088  0.2474
16952TIP3    H272348   3.974   0.589   5.128 -0.8378  1.4965 -0.2798
16953TIP3   OH272349   3.090   2.183   3.903 -0.4309  0.2033  0.0660
16953TIP3    H172350   3.098   2.114   3.837 -0.3689 -1.0038  1.3139
16953TIP3    H272351   3.059   2.138   3.982 -1.5170  1.7910  0.5703
16954TIP3   OH272352   5.996   0.785   2.239  0.2813 -0.4102  0.2198
16954TIP3    H172353   5.908   0.747   2.233 -0.5730  1.4288  0.7276
16954TIP3    H272354   5.999   0.850   2.169  1.4528 -0.8520 -0.1528
16955TIP3   OH272355   0.581   3.335   5.648  0.3751  0.0003  0.5785
16955TIP3    H172356   0.569   3.316   5.741  0.9358  4.4425  1.6887
16955TIP3    H272357   0.510   3.395   5.626  1.1290  0.2012 -1.4610
16956TIP3   OH272358   6.011   0.694   5.015 -0.9907  0.4714 -0.6773
16956TIP3    H172359   5.982   0.723   5.102 -0.6335 -2.0979  0.3700
16956TIP3    H272360   5.952   0.623   4.992 -0.9462  0.9887 -2.4667
16957TIP3   OH272361   3.216   3.068   5.276  0.2704 -0.0669 -0.1602
16957TIP3    H172362   3.185   3.008   5.207 -0.3690  0.3196 -0.2125
16957TIP3    H272363   3.297   3.105   5.240 -1.3581  2.0185 -1.7843
16958TIP3   OH272364   4.762   3.691   3.186 -0.0526  0.5802 -0.3860
16958TIP3    H172365   4.671   3.693   3.156 -0.9550 -1.0023  2.0626
16958TIP3    H272366   4.773   3.772   3.236 -1.1109 -0.5897  1.8569
16959TIP3   OH272367   6.507   3.702   4.158 -0.2337  0.1734 -0.3153
16959TIP3    H172368   6.520   3.630   4.095  0.8800  2.0668 -2.3148
16959TIP3    H272369   6.413   3.721   4.153 -0.1774  0.2172 -1.3249
16960TIP3   OH272370   0.145   4.654   4.458 -0.4689  0.0549 -0.0258
16960TIP3    H172371   0.174   4.584   4.517 -0.5707  0.7054  0.7986
16960TIP3    H272372   0.212   4.655   4.389 -0.1426 -0.4509  0.2725
16961TIP3   OH272373   6.895   2.593   5.917 -0.1011 -0.1391  0.1426
16961TIP3    H172374   6.927   2.624   6.002  1.2363 -1.4015  0.1192
16961TIP3    H272375   6.967   2.611   5.856 -0.2466 -1.1023 -0.3265
16962TIP3   OH272376   1.070   6.605   4.308  0.5814  0.3334 -0.5051
16962TIP3    H172377   1.117   6.583   4.228  1.6094 -0.5024  0.3099
16962TIP3    H272378   1.138   6.642   4.365 -0.0585  0.5092  0.1427
16963TIP3   OH272379   5.607   0.757   5.552 -0.4316  0.2181  0.0151
16963TIP3    H172380   5.541   0.803   5.605 -0.5234  0.1871 -0.0731
16963TIP3    H272381   5.667   0.719   5.616 -1.2471 -0.8738  0.1354
16964TIP3   OH272382   2.395   5.106   5.238 -0.5181  0.7052  0.6109
16964TIP3    H172383   2.379   5.045   5.166  1.3627 -0.1591  0.8933
16964TIP3    H272384   2.308   5.127   5.272 -1.2522 -0.9382 -0.2110
16965TIP3   OH272385   7.163   6.943   6.081 -0.3266 -0.5528  0.0705
16965TIP3    H172386   7.077   6.922   6.118  0.0287  0.0130  1.2045
16965TIP3    H272387   7.144   7.005   6.010 -0.8836 -0.7180  0.0736
16966TIP3   OH272388   0.870   3.700   5.762 -0.1364  0.1485  0.4061
16966TIP3    H172389   0.849   3.794   5.763  0.2124  0.2216  0.9216
16966TIP3    H272390   0.866   3.673   5.854  0.8913 -0.0881  0.3866
16967TIP3   OH272391   0.885   3.547   5.106 -0.3766 -0.3037  0.2600
16967TIP3    H172392   0.819   3.508   5.049  0.8171  1.3104 -2.3445
16967TIP3    H272393   0.968   3.510   5.076  0.3298  1.0265  0.5180
16968TIP3   OH272394   0.298   2.893   4.424  0.0223 -0.1462 -1.0028
16968TIP3    H172395   0.342   2.974   4.448 -1.0341  0.0341  0.3871
16968TIP3    H272396   0.245   2.917   4.347 -0.1902  0.4465 -0.6735
16969TIP3   OH272397   5.704   3.492   3.098 -0.2917  0.2768 -0.6264
16969TIP3    H172398   5.696   3.431   3.025 -1.2471  1.1755 -1.2919
16969TIP3    H272399   5.641   3.562   3.078 -1.5653 -0.1342  1.7237
16970TIP3   OH272400   3.466   3.484   5.145  0.0208 -0.1657 -0.2629
16970TIP3    H172401   3.391   3.532   5.110  1.1952  0.7169 -1.5912
16970TIP3    H272402   3.458   3.397   5.107  0.5748  0.4104 -1.7395
16971TIP3   OH272403   2.195   1.816  14.531 -0.5328 -0.4908  0.1547
16971TIP3    H172404   2.254   1.811  14.456  0.1905  2.0097  0.5007
16971TIP3    H272405   2.154   1.730  14.535  0.3176 -1.0631 -2.3652
16972TIP3   OH272406   3.980   6.947   4.440  0.0961 -1.2933  0.1802
16972TIP3    H172407   3.978   6.879   4.372 -0.1266 -0.4813 -0.6492
16972TIP3    H272408   3.899   6.996   4.426  1.8167  1.2172 -1.4359
16973TIP3   OH272409   0.200   3.608   3.315  0.2761 -0.1441  0.6048
16973TIP3    H172410   0.222   3.652   3.397  2.2652  0.0266 -0.0166
16973TIP3    H272411   0.225   3.516   3.330  1.0792 -0.0190  0.0237
16974TIP3   OH272412   7.029   1.156   3.507  0.2494  0.1011  0.2424
16974TIP3    H172413   7.062   1.211   3.577  0.5545  0.2348 -0.0042
16974TIP3    H272414   7.061   1.068   3.527 -1.6585 -0.3220  1.5576
16975TIP3   OH272415   0.676   0.593   6.078 -0.0627 -0.1883 -0.2762
16975TIP3    H172416   0.721   0.558   6.001 -0.8542  5.0162 -3.3573
16975TIP3    H272417   0.583   0.574   6.062 -0.2048  0.7126 -0.5826
16976TIP3   OH272418   1.058   6.448   5.652  0.0130 -0.0738  0.2147
16976TIP3    H172419   1.140   6.408   5.680 -0.4526  0.8864  3.1880
16976TIP3    H272420   1.083   6.534   5.618  0.3642 -0.2295  0.0823
16977TIP3   OH272421   0.027   1.882   0.936 -0.1486 -0.0816  0.5911
16977TIP3    H172422  -0.067   1.872   0.951 -0.0724 -0.8018  0.5953
16977TIP3    H272423   0.044   1.975   0.953 -0.9384  0.1572  0.1311
16978TIP3   OH272424   0.119   2.751   5.184  0.0039 -0.5642  0.2245
16978TIP3    H172425   0.061   2.818   5.220  0.7595 -0.1952  0.7817
16978TIP3    H272426   0.175   2.727   5.258 -0.0235 -1.5461 -0.0782
16979TIP3   OH272427   2.676   3.931   0.322  0.2109  0.0474 -0.3262
16979TIP3    H172428   2.703   3.917   0.413 -1.7281  0.3537  0.3252
16979TIP3    H272429   2.593   3.884   0.315 -0.3992  1.2938 -1.5111
16980TIP3   OH272430   1.766   2.874   1.896 -0.1081  0.1163 -0.1355
16980TIP3    H172431   1.792   2.966   1.899  0.1520  0.1376 -2.3051
16980TIP3    H272432   1.735   2.855   1.984 -1.5528  2.6971 -0.0456
16981TIP3   OH272433   0.571   5.785   5.665  0.2895  0.7363 -0.2379
16981TIP3    H172434   0.529   5.701   5.644 -0.9768  1.3006 -0.0438
16981TIP3    H272435   0.654   5.784   5.618  1.1875 -1.4662  1.3257
16982TIP3   OH272436   6.135   1.600   3.945  0.2057 -0.0670 -0.4333
16982TIP3    H172437   6.139   1.552   4.028 -1.9192  0.6594  0.1403
16982TIP3    H272438   6.160   1.536   3.878 -0.8024 -1.4511  0.4894
16983TIP3   OH272439   2.808   5.167   4.095  0.1110 -0.0928 -0.2339
16983TIP3    H172440   2.856   5.154   4.013 -0.4469 -0.5537 -0.4945
16983TIP3    H272441   2.873   5.200   4.156  0.8251 -0.9796 -0.5061
16984TIP3   OH272442   2.090   0.265   4.956 -0.2991  0.4646  0.1116
16984TIP3    H172443   2.072   0.310   5.038 -1.3760  0.2569 -0.0081
16984TIP3    H272444   2.061   0.175   4.971  0.6275  0.1196 -0.0950
16985TIP3   OH272445   1.151   2.097   0.201 -0.2692  0.2656 -0.0594
16985TIP3    H172446   1.122   2.037   0.132 -0.0578 -0.0104  0.0889
16985TIP3    H272447   1.083   2.092   0.267  0.8931 -1.6497  1.0453
16986TIP3   OH272448   6.457   0.274   4.829  0.1831  0.4811  0.0327
16986TIP3    H172449   6.380   0.329   4.819  0.3055  0.4790 -0.9424
16986TIP3    H272450   6.524   0.315   4.774  0.6241  0.0085  0.2048
16987TIP3   OH272451   4.717   0.361   3.906 -0.0350  0.4684  0.3009
16987TIP3    H172452   4.683   0.283   3.950 -1.1998  0.7383 -0.1280
16987TIP3    H272453   4.657   0.431   3.930  0.7094  1.1395  0.2451
16988TIP3   OH272454   1.650   3.382   0.529 -0.1200  0.2933 -0.4235
16988TIP3    H172455   1.593   3.329   0.584 -0.4979 -0.0200 -1.1048
16988TIP3    H272456   1.724   3.405   0.585 -0.0487 -0.7968 -0.0622
16989TIP3   OH272457   5.966   2.498   4.175 -0.3757  0.4560  0.5069
16989TIP3    H172458   5.939   2.579   4.132  0.9010  0.0542 -1.1071
16989TIP3    H272459   5.969   2.433   4.104 -0.1659 -0.6958  1.5521
16990TIP3   OH272460   1.107   4.118   3.623 -0.2366  0.0014  0.4641
16990TIP3    H172461   1.043   4.078   3.681 -2.6694  2.9333 -0.1005
16990TIP3    H272462   1.125   4.204   3.662  0.7685  0.5820 -1.2013
16991TIP3   OH272463   1.952   0.328   2.180 -0.2698  0.2178  0.8408
16991TIP3    H172464   1.893   0.389   2.225  0.0473  0.6297  0.6980
16991TIP3    H272465   2.026   0.381   2.153  0.1552 -0.2908  0.9831
16992TIP3   OH272466   1.491   1.746   4.705  0.1068 -0.0364 -0.1990
16992TIP3    H172467   1.511   1.657   4.679  0.3305 -0.5158  1.5568
16992TIP3    H272468   1.573   1.780   4.740 -0.0673  0.7317 -0.5274
16993TIP3   OH272469   1.567   1.824   0.252 -0.0646  0.5273 -0.0684
16993TIP3    H172470   1.527   1.859   0.173  1.7351  0.3547 -1.0909
16993TIP3    H272471   1.653   1.865   0.255  0.6204 -0.9249  0.7536
16994TIP3   OH272472   6.932   3.513   2.417 -0.1505  0.3921  0.0974
16994TIP3    H172473   6.851   3.563   2.425 -0.6676 -0.3271 -0.6260
16994TIP3    H272474   6.990   3.550   2.485 -0.4268  2.1165 -0.5851
16995TIP3   OH272475   2.660   5.621   5.157  0.0046  0.6126  0.2472
16995TIP3    H172476   2.597   5.567   5.205 -0.1922 -0.3125 -0.9862
16995TIP3    H272477   2.648   5.709   5.191 -0.9251  0.1834  1.0647
16996TIP3   OH272478   0.080   5.758   0.921 -0.0050  0.7018  0.0063
16996TIP3    H172479   0.101   5.699   0.993  1.2921  0.9047 -0.2082
16996TIP3    H272480   0.061   5.842   0.963  1.9676  1.1532  0.0419
16997TIP3   OH272481   3.444   3.410   2.635  0.0467 -0.3548 -0.3985
16997TIP3    H172482   3.489   3.452   2.708 -0.8696 -3.0718  1.8188
16997TIP3    H272483   3.514   3.393   2.571  0.9269  1.6788 -0.0165
16998TIP3   OH272484   4.548   3.331   3.058 -0.0273 -0.7132 -0.4040
16998TIP3    H172485   4.621   3.383   3.025  0.5019 -0.8478  0.5510
16998TIP3    H272486   4.586   3.245   3.078 -0.4609 -0.8149 -0.0043
16999TIP3   OH272487   0.302   2.640   3.367 -0.1466 -0.4134 -0.1347
16999TIP3    H172488   0.237   2.697   3.409 -0.4686 -1.4766  0.8398
16999TIP3    H272489   0.271   2.628   3.278 -0.7576 -0.0954  0.0387
17000TIP3   OH272490   0.929   1.148   5.731 -0.1465 -0.1068 -0.0633
17000TIP3    H172491   0.960   1.237   5.712 -0.7384 -0.2113 -1.6210
17000TIP3    H272492   0.969   1.125   5.815  0.9195  1.2016 -0.2116
17001TIP3   OH272493   2.490   2.433   6.117  0.9189 -0.1750 -0.6045
17001TIP3    H172494   2.493   2.525   6.089  0.6844  0.1853  0.5458
17001TIP3    H272495   2.582   2.405   6.116  1.2488  0.7606  1.2730
17002TIP3   OH272496   2.076   2.256   3.582  0.2038  0.2804  0.7853
17002TIP3    H172497   2.084   2.195   3.656  2.1006 -1.8495 -1.1029
17002TIP3    H272498   2.066   2.200   3.506  2.0584  2.3090 -1.0136
17003TIP3   OH272499   4.857   0.530   3.544 -0.1865  0.5126  0.1688
17003TIP3    H172500   4.931   0.484   3.583 -0.5068 -0.2365 -0.0967
17003TIP3    H272501   4.889   0.561   3.460 -0.3713 -0.3999 -0.2459
17004TIP3   OH272502   2.729   3.276   4.034 -0.0872 -0.0773  0.1615
17004TIP3    H172503   2.666   3.348   4.022  0.6845  0.4850 -0.5577
17004TIP3    H272504   2.676   3.197   4.029 -0.8409  0.4124  0.2083
17005TIP3   OH272505   3.683   0.324   3.651  0.3178  0.0574  0.7272
17005TIP3    H172506   3.723   0.243   3.619  0.2515 -0.1235  1.0998
17005TIP3    H272507   3.757   0.375   3.684  0.3095 -0.0409  0.9012
17006TIP3   OH272508   6.413   2.543   2.552 -0.2158  1.1620 -0.2267
17006TIP3    H172509   6.322   2.570   2.547 -0.3822  0.4849 -1.0929
17006TIP3    H272510   6.416   2.459   2.505  0.6892  0.7657  0.5145
17007TIP3   OH272511   1.968   6.078   5.282 -0.1052  0.0107  0.2320
17007TIP3    H172512   1.949   6.098   5.191  1.3414  0.2439 -0.0286
17007TIP3    H272513   1.929   5.992   5.297 -1.1262  0.3760 -0.3514
17008TIP3   OH272514   2.268   0.895   1.173  0.6542  0.1651  0.4043
17008TIP3    H172515   2.348   0.948   1.179  0.8003 -0.0241  0.1331
17008TIP3    H272516   2.197   0.959   1.178  0.8211  0.3344  0.6568
17009TIP3   OH272517   1.953   2.809   5.244 -0.0686  0.0080  0.1211
17009TIP3    H172518   1.889   2.813   5.315 -0.1531 -0.2740  0.0624
17009TIP3    H272519   2.033   2.844   5.282  0.1609 -1.0894  0.6608
17010TIP3   OH272520   1.437   1.131   6.028  0.2892  0.0981 -0.4695
17010TIP3    H172521   1.492   1.138   6.106 -0.5429 -1.1498  0.2543
17010TIP3    H272522   1.494   1.093   5.961  0.3253 -1.2096  0.2843
17011TIP3   OH272523   1.772   2.090   4.444  0.0409  0.1136 -0.4694
17011TIP3    H172524   1.808   2.086   4.532 -0.2697  0.1996 -0.3398
17011TIP3    H272525   1.732   2.005   4.430  3.2148 -1.2344 -1.8651
17012TIP3   OH272526   5.699   4.011   2.825 -0.1137  1.0370 -0.5255
17012TIP3    H172527   5.764   3.997   2.894  0.4011 -0.0164 -1.2049
17012TIP3    H272528   5.751   4.020   2.745 -0.7563  1.2036 -0.9284
17013TIP3   OH272529   6.500   1.976   3.022 -0.5072  0.5119 -1.0723
17013TIP3    H172530   6.440   2.029   2.969 -0.8398  0.9696 -0.2494
17013TIP3    H272531   6.508   2.024   3.104 -0.9678 -0.8132 -0.2368
17014TIP3   OH272532   1.252   2.813   3.749 -0.1571  0.1688  1.0631
17014TIP3    H172533   1.297   2.768   3.677  1.6215 -0.7232  2.6770
17014TIP3    H272534   1.202   2.743   3.792  2.6872 -0.4246  3.6370
17015TIP3   OH272535   3.198   1.105   2.480 -0.6963  0.4519  0.1746
17015TIP3    H172536   3.246   1.129   2.559 -1.8272  0.2888  0.9341
17015TIP3    H272537   3.265   1.079   2.417  0.2561  1.2594  0.8509
17016TIP3   OH272538   1.541   3.093   4.391 -0.2410 -0.1720 -0.2861
17016TIP3    H172539   1.515   3.007   4.360 -0.2617  0.4951 -2.1759
17016TIP3    H272540   1.572   3.078   4.480 -1.0441 -1.9869 -0.2965
17017TIP3   OH272541   1.778   5.827   5.453 -0.0694 -0.7808  0.1894
17017TIP3    H172542   1.716   5.840   5.525 -1.4201 -1.2499 -0.8521
17017TIP3    H272543   1.757   5.739   5.419  1.7450 -1.2944  0.3518
17018TIP3   OH272544   1.321   6.677   2.706 -0.4888 -0.9396 -0.2866
17018TIP3    H172545   1.313   6.601   2.765 -1.5446  0.2279  1.0974
17018TIP3    H272546   1.404   6.661   2.660  0.6943 -1.6149  1.9419
17019TIP3   OH272547   1.778   5.144  12.053  0.6195  0.3727 -0.3308
17019TIP3    H172548   1.850   5.110  12.106 -0.2877  0.3130  0.8816
17019TIP3    H272549   1.720   5.069  12.039  1.1395  0.2520 -1.9005
17020TIP3   OH272550   6.811   0.841   4.490 -0.0047 -0.2904 -0.0756
17020TIP3    H172551   6.810   0.933   4.515 -2.1577 -0.3386  0.0897
17020TIP3    H272552   6.887   0.832   4.432  0.6300  1.4207  0.4872
17021TIP3   OH272553   1.454   0.061   5.478  0.4358 -0.5816  0.1619
17021TIP3    H172554   1.396   0.027   5.546 -0.0555  1.2739  0.6915
17021TIP3    H272555   1.531   0.094   5.525  0.0571  0.7853 -0.1605
17022TIP3   OH272556   1.992   2.449   3.843  0.2820  0.1386 -0.0949
17022TIP3    H172557   1.971   2.356   3.853 -2.2549  0.4122 -2.1585
17022TIP3    H272558   2.068   2.450   3.785  0.1770 -0.6615 -0.2588
17023TIP3   OH272559   1.794   1.534   6.174 -0.1035 -0.5524 -0.6495
17023TIP3    H172560   1.737   1.469   6.133 -1.1261  0.0614 -0.2017
17023TIP3    H272561   1.751   1.556   6.257  0.4862  0.3424 -0.5689
17024TIP3   OH272562   0.445   2.535   4.960  0.5306  0.2724  0.3966
17024TIP3    H172563   0.352   2.557   4.962  0.7463  1.3966 -1.2925
17024TIP3    H272564   0.450   2.450   5.004 -1.3409  0.0171  0.1577
17025TIP3   OH272565   7.041   6.950   2.029  0.2858  0.3872  0.6852
17025TIP3    H172566   7.042   6.942   2.125  1.8453  0.6586  0.7109
17025TIP3    H272567   7.074   6.866   1.998  0.9387  0.7321  0.4346
17026TIP3   OH272568   2.069   2.471   4.979 -0.4341 -0.0757 -0.2798
17026TIP3    H172569   2.053   2.377   4.965  1.8815 -1.0178  2.6532
17026TIP3    H272570   2.153   2.487   4.935 -1.3808  0.8874 -1.7315
17027TIP3   OH272571   0.622   3.926  13.442  0.4747 -0.2936 -0.1485
17027TIP3    H172572   0.577   3.883  13.370  2.8714  0.1410 -1.9804
17027TIP3    H272573   0.627   4.018  13.416  1.0278 -0.0583  0.7574
17028TIP3   OH272574   3.668   1.639   4.144 -0.0639 -0.4734  0.0587
17028TIP3    H172575   3.737   1.630   4.078 -1.5039 -1.7154 -1.3059
17028TIP3    H272576   3.632   1.726   4.129 -0.0040 -0.5296 -0.4119
17029TIP3   OH272577   2.628   3.203   5.141 -0.2744 -0.2572 -0.1954
17029TIP3    H172578   2.633   3.108   5.155 -0.9496 -0.2797 -0.1282
17029TIP3    H272579   2.678   3.218   5.061 -1.5060 -0.8573 -1.0875
17030TIP3   OH272580   4.690   3.338   4.782 -0.1635  0.2016 -0.4561
17030TIP3    H172581   4.747   3.268   4.812  0.4740  0.5938 -0.7523
17030TIP3    H272582   4.741   3.384   4.715 -0.4669  1.1206 -0.0559
17031TIP3   OH272583   6.047   2.684   3.565 -0.2217 -0.1712  0.3531
17031TIP3    H172584   6.110   2.756   3.567 -1.5334  0.9551  1.3167
17031TIP3    H272585   5.971   2.719   3.518 -0.9465 -0.8536  1.0072
17032TIP3   OH272586   1.886   4.043   5.111 -0.1999 -0.2185 -0.0064
17032TIP3    H172587   1.870   4.007   5.197  1.1472  1.9362  1.2005
17032TIP3    H272588   1.875   4.138   5.122  0.0816  0.1028 -2.1668
17033TIP3   OH272589   0.709   2.754   5.843  0.4036  0.1007  0.2682
17033TIP3    H172590   0.712   2.715   5.755 -2.1730 -1.0669  0.6424
17033TIP3    H272591   0.693   2.847   5.827  1.1598  0.1053 -0.5160
17034TIP3   OH272592   1.320   2.831   4.848 -0.7896  0.3048  0.2179
17034TIP3    H172593   1.390   2.773   4.816 -0.5677  0.5395  0.2760
17034TIP3    H272594   1.327   2.909   4.793 -1.4617  0.0456 -0.2471
17035TIP3   OH272595   4.487   5.606  14.563  0.0279 -0.2349 -0.1348
17035TIP3    H172596   4.466   5.587  14.655  0.0290  0.5926  0.0414
17035TIP3    H272597   4.504   5.520  14.525  0.1473 -0.5783  0.6678
17036TIP3   OH272598   0.671   7.018   4.981  0.0821  0.0634 -0.5806
17036TIP3    H172599   0.578   7.000   4.995 -0.0878  0.2567 -1.4378
17036TIP3    H272600   0.693   6.968   4.903  0.7555 -0.1419 -0.2636
17037TIP3   OH272601   6.763   0.591   4.917  0.1976  0.4287 -0.4520
17037TIP3    H172602   6.696   0.602   4.984  1.5595  0.8077  0.8651
17037TIP3    H272603   6.760   0.672   4.867  0.7610  1.1235  0.6207
17038TIP3   OH272604   7.167   0.723   2.058 -0.3337 -0.2895 -0.4421
17038TIP3    H172605   7.177   0.773   1.977 -0.4430 -1.2871 -1.0892
17038TIP3    H272606   7.112   0.778   2.114  0.3769  0.7466 -0.7487
17039TIP3   OH272607   4.525   5.184   5.131 -0.5575  0.0394 -0.8591
17039TIP3    H172608   4.461   5.114   5.147 -0.5201  0.3606  0.6947
17039TIP3    H272609   4.509   5.247   5.200  0.6343  0.7173 -1.2032
17040TIP3   OH272610   7.179   1.911   3.665  0.3795 -0.4132  0.5240
17040TIP3    H172611   7.146   1.995   3.635 -1.8778 -1.5787 -0.3475
17040TIP3    H272612   7.241   1.883   3.597  0.4575  0.1061  0.3789
17041TIP3   OH272613   4.129   0.559   2.512  0.6109  0.4176 -0.5066
17041TIP3    H172614   4.118   0.526   2.422 -0.2113 -0.6841 -0.0223
17041TIP3    H272615   4.161   0.484   2.561 -0.6389  0.5061  0.4817
17042TIP3   OH272616   4.462   0.074   4.436 -0.1291 -0.4669  0.0181
17042TIP3    H172617   4.513  -0.002   4.462 -0.7928 -0.7743  0.4441
17042TIP3    H272618   4.481   0.141   4.502 -2.5027 -1.5382  1.8819
17043TIP3   OH272619   5.837   2.365   4.395 -0.5061  0.3499 -0.4402
17043TIP3    H172620   5.866   2.413   4.472 -1.4484 -0.8220  0.6698
17043TIP3    H272621   5.872   2.415   4.321  0.6129  1.3565  0.7377
17044TIP3   OH272622   0.678   0.268   2.539 -0.0552  0.2284  0.6318
17044TIP3    H172623   0.723   0.352   2.552  1.3181 -0.2994 -0.5798
17044TIP3    H272624   0.748   0.203   2.543 -0.9779 -0.7744  0.5770
17045TIP3   OH272625   6.219   2.879   3.462  0.1968 -0.0532  0.5473
17045TIP3    H172626   6.294   2.929   3.496  2.1393 -2.6860  0.3175
17045TIP3    H272627   6.154   2.946   3.439  2.9258  2.3977 -0.3589
17046TIP3   OH272628   1.291   5.182  12.658 -0.3609 -0.2802 -0.1481
17046TIP3    H172629   1.218   5.205  12.601 -0.9127  1.3543  1.1878
17046TIP3    H272630   1.361   5.242  12.632  0.3974 -1.5452 -1.1240
17047TIP3   OH272631   2.447   1.935   4.870  0.2180 -0.4015  0.1981
17047TIP3    H172632   2.513   1.906   4.934  0.4051  0.1002  0.2394
17047TIP3    H272633   2.481   1.904   4.786  0.6108  0.0137  0.1956
17048TIP3   OH272634   0.156   0.980   4.556 -0.1422 -0.5223  0.5972
17048TIP3    H172635   0.066   0.948   4.564  0.4231 -1.7164  2.4499
17048TIP3    H272636   0.152   1.071   4.585 -0.8352 -0.4064  0.1570
17049TIP3   OH272637   5.453   3.301   3.157  0.0812 -0.0984 -0.1449
17049TIP3    H172638   5.370   3.289   3.203 -0.0398 -0.7421 -0.5178
17049TIP3    H272639   5.430   3.352   3.079  0.6446  2.9227  1.5936
17050TIP3   OH272640   3.385   4.915   3.067 -0.3153 -0.1823 -0.2708
17050TIP3    H172641   3.323   4.986   3.078  0.2238  0.4140 -1.0508
17050TIP3    H272642   3.382   4.893   2.974 -0.0327 -0.7721 -0.1488
17051TIP3   OH272643   1.972   5.065   2.184  0.1057 -0.6798 -0.4526
17051TIP3    H172644   2.046   5.126   2.187  0.9708 -1.7652  0.5776
17051TIP3    H272645   2.011   4.982   2.156 -0.8366 -1.0996 -0.5276
17052TIP3   OH272646   0.637   0.615   1.588 -1.0977  0.1488  0.7387
17052TIP3    H172647   0.578   0.626   1.513 -1.1631 -1.0260  0.5993
17052TIP3    H272648   0.626   0.523   1.613  1.0230 -0.2325  0.3943
17053TIP3   OH272649   5.448   5.540   3.214  0.7950  0.0814 -0.4891
17053TIP3    H172650   5.414   5.612   3.267  0.0562 -0.1294 -0.6648
17053TIP3    H272651   5.472   5.581   3.131 -1.1325 -0.1383 -1.1675
17054TIP3   OH272652   1.852   5.112   2.793 -0.3827 -0.0108 -0.0974
17054TIP3    H172653   1.873   5.113   2.700 -1.3027 -2.3090 -0.3750
17054TIP3    H272654   1.920   5.058   2.833 -0.0664  0.8530  0.5643
17055TIP3   OH272655   3.186   7.088   2.681 -0.6612 -0.3001  0.8247
17055TIP3    H172656   3.118   7.143   2.719 -1.2309 -0.2227 -0.2762
17055TIP3    H272657   3.241   7.149   2.632 -0.2680 -0.4729  1.0509
17056TIP3   OH272658   5.436   1.293   2.985  0.8093 -0.1215  0.1444
17056TIP3    H172659   5.376   1.333   2.921  1.1649  1.0021  0.4974
17056TIP3    H272660   5.487   1.231   2.934 -2.5650 -3.2484  0.3396
17057TIP3   OH272661   3.853   6.898   3.348 -0.4419  0.3450 -0.6138
17057TIP3    H172662   3.817   6.953   3.418  0.1915 -1.7136  1.3984
17057TIP3    H272663   3.855   6.955   3.271  1.3973  3.5753  1.6734
17058TIP3   OH272664   2.477   5.378   4.785 -0.7431 -0.6363  0.0512
17058TIP3    H172665   2.490   5.467   4.754 -2.7235  0.2095  1.5717
17058TIP3    H272666   2.548   5.363   4.847  0.5525 -0.7364 -1.4118
17059TIP3   OH272667   4.569   3.119  14.699 -0.7459  0.2694 -0.3512
17059TIP3    H172668   4.522   3.151  14.622  0.5065 -0.6679 -1.5343
17059TIP3    H272669   4.584   3.026  14.682  1.6779  0.5665 -0.1235
17060TIP3   OH272670   7.116   3.309   2.110  0.1497 -0.1953  0.0169
17060TIP3    H172671   7.081   3.305   2.198 -0.8704 -0.7329 -0.4124
17060TIP3    H272672   7.191   3.369   2.117 -1.8185  2.2870  0.6127
17061TIP3   OH272673   4.112   0.371   5.000  0.5066 -0.1970 -0.7483
17061TIP3    H172674   4.095   0.340   4.911  0.5473 -0.3722 -0.6940
17061TIP3    H272675   4.063   0.453   5.006  1.6601  0.5509 -1.4107
17062TIP3   OH272676   4.361   0.657   4.633 -0.3785  0.0292 -0.0366
17062TIP3    H172677   4.440   0.652   4.579 -0.8563 -1.2287 -0.6322
17062TIP3    H272678   4.389   0.625   4.719 -0.4608 -1.3443 -0.5071
17063TIP3   OH272679   2.046   4.711   2.725  0.4823  0.2217  0.1392
17063TIP3    H172680   2.142   4.704   2.722  0.4374  0.1544 -1.9640
17063TIP3    H272681   2.015   4.628   2.689 -0.3996  0.0751  1.1995
17064TIP3   OH272682   2.918   2.440   3.881 -0.0134  0.1826  0.6895
17064TIP3    H172683   2.927   2.358   3.930 -0.5341 -0.0453  0.4112
17064TIP3    H272684   2.831   2.435   3.841  0.0976  0.7090  0.3684
17065TIP3   OH272685   4.923   5.430   4.879  0.6538  0.0714 -0.0572
17065TIP3    H172686   4.981   5.410   4.952  0.5711  1.1891  0.3204
17065TIP3    H272687   4.975   5.414   4.801  1.2987  0.5397  0.2734
17066TIP3   OH272688   2.674   1.006   4.861 -0.1775 -0.1314 -0.7093
17066TIP3    H172689   2.734   0.937   4.833  1.5655  0.9584  0.2545
17066TIP3    H272690   2.645   0.978   4.948  0.2432  0.1680 -0.4717
17067TIP3   OH272691   2.950   6.313   4.993 -0.2550  0.4553 -0.0669
17067TIP3    H172692   2.969   6.401   5.028  0.0328  0.3985 -0.0764
17067TIP3    H272693   2.951   6.325   4.898 -0.3188  0.4629 -0.0663
17068TIP3   OH272694   0.480   6.549   3.269  0.2922 -0.1813  0.6165
17068TIP3    H172695   0.434   6.626   3.233  0.6168  0.1694  0.9491
17068TIP3    H272696   0.564   6.584   3.300  1.2197 -0.9946 -0.9182
17069TIP3   OH272697   1.597   0.793   2.756  0.3338 -0.1085 -0.6894
17069TIP3    H172698   1.503   0.779   2.743  0.3879 -0.8973 -0.2353
17069TIP3    H272699   1.635   0.705   2.755  0.8704  0.1019  0.6511
17070TIP3   OH272700   5.949   6.378   0.279 -0.1985  0.1963 -0.2912
17070TIP3    H172701   5.941   6.401   0.186 -0.4939  2.3604  0.2573
17070TIP3    H272702   5.997   6.451   0.318 -0.4843 -0.4743  1.3606
17071TIP3   OH272703   0.814   0.452   4.012  0.1574  0.2660  0.0977
17071TIP3    H172704   0.840   0.536   4.049 -0.4154  0.9236 -0.9693
17071TIP3    H272705   0.725   0.438   4.044  0.0772  0.2974 -0.1101
17072TIP3   OH272706   6.141   1.865   4.123  0.6189  0.3790  0.5398
17072TIP3    H172707   6.060   1.843   4.167  0.5213 -0.0029  0.1676
17072TIP3    H272708   6.153   1.796   4.058 -0.0653  1.8028 -1.1235
17073TIP3   OH272709   5.799   2.061   4.728 -0.5367 -0.0902 -0.3279
17073TIP3    H172710   5.786   1.966   4.727 -1.0067 -0.0260 -0.8381
17073TIP3    H272711   5.863   2.076   4.797  1.7007 -1.0798 -2.0885
17074TIP3   OH272712   3.006   5.723   1.227 -0.2527  0.0931 -0.1262
17074TIP3    H172713   3.013   5.752   1.136  0.4440 -0.4638 -0.2505
17074TIP3    H272714   3.056   5.642   1.231 -0.4532  0.0034  0.7071
17075TIP3   OH272715   2.518   0.390   4.080 -0.2686 -0.2421 -0.4674
17075TIP3    H172716   2.480   0.309   4.043 -2.9147  1.2837 -1.2396
17075TIP3    H272717   2.442   0.438   4.112  1.5683  0.6511  2.6433
17076TIP3   OH272718   3.392   2.123   3.410 -0.1270 -0.3055 -0.6614
17076TIP3    H172719   3.409   2.206   3.454  1.6266 -0.5045 -0.8957
17076TIP3    H272720   3.477   2.097   3.374 -0.6002 -2.2940 -0.4379
17077TIP3   OH272721   1.225   1.552   0.022  0.2684  0.1916  0.8397
17077TIP3    H172722   1.155   1.596  -0.026  1.1390  1.6792  0.8974
17077TIP3    H272723   1.292   1.620   0.034  1.2702 -0.9269  1.6844
17078TIP3   OH272724   3.299   5.127   2.735  0.2112  0.0933 -0.1112
17078TIP3    H172725   3.236   5.199   2.731 -0.5008 -0.4946  0.4106
17078TIP3    H272726   3.343   5.140   2.819  0.7946  0.5089 -0.4794
17079TIP3   OH272727   3.153   0.517   3.850  0.1682 -0.1157  0.3866
17079TIP3    H172728   3.184   0.500   3.761 -0.6862 -3.2677  0.6251
17079TIP3    H272729   3.108   0.602   3.844 -0.1105 -0.4065 -2.2374
17080TIP3   OH272730   2.196   2.752   3.750  0.0351 -0.1860  0.3821
17080TIP3    H172731   2.135   2.721   3.683 -0.4174 -1.4330  1.3624
17080TIP3    H272732   2.143   2.806   3.808  0.4767  1.0883 -0.3651
17081TIP3   OH272733   5.849   6.368   1.310 -0.8080 -0.0458 -0.0634
17081TIP3    H172734   5.896   6.285   1.298 -1.8462 -0.8202  1.0110
17081TIP3    H272735   5.810   6.386   1.224 -0.8764 -0.8713 -0.2131
17082TIP3   OH272736   2.615   2.125   4.553 -0.4310 -0.8745 -0.3864
17082TIP3    H172737   2.671   2.102   4.627 -0.3725 -0.2745 -0.2408
17082TIP3    H272738   2.602   2.219   4.561 -3.3956 -1.3360  0.9300
17083TIP3   OH272739   5.807   1.092   2.086 -0.4723  0.0729 -0.2404
17083TIP3    H172740   5.768   1.024   2.030 -0.4995 -0.7580  0.7815
17083TIP3    H272741   5.900   1.072   2.086 -0.4773  0.0466  0.0297
17084TIP3   OH272742   0.724   0.564   4.627 -0.0690  0.1761  0.1697
17084TIP3    H172743   0.733   0.491   4.689 -1.0384 -1.8855 -2.0720
17084TIP3    H272744   0.630   0.579   4.621 -0.0718 -0.6049 -1.9011
17085TIP3   OH272745   5.557   2.010   1.659  0.3403  0.3474  0.0756
17085TIP3    H172746   5.555   2.106   1.665 -1.4057  0.2635  1.4812
17085TIP3    H272747   5.638   1.985   1.705 -0.2396  1.0620  1.5130
17086TIP3   OH272748   4.043   1.615   4.206 -0.5752  0.0734 -0.2992
17086TIP3    H172749   4.006   1.570   4.282  2.1980 -1.9862 -0.0894
17086TIP3    H272750   4.113   1.669   4.241  1.2403 -1.4750 -1.4195
17087TIP3   OH272751   0.912   1.846   3.156  0.3706  0.0634  0.7899
17087TIP3    H172752   0.907   1.937   3.185  0.9288  0.0941  0.7905
17087TIP3    H272753   1.006   1.828   3.150  0.2680 -0.9186  2.0499
17088TIP3   OH272754   2.135   0.958   6.282 -0.0287 -0.2173  0.2951
17088TIP3    H172755   2.122   1.047   6.249 -0.6475 -0.0244  1.0270
17088TIP3    H272756   2.184   0.914   6.214  1.4061  1.0631  0.4715
17089TIP3   OH272757   5.498   1.614  15.503 -0.2046  0.5836 -0.1260
17089TIP3    H172758   5.427   1.602  15.440  1.5162 -3.4602 -1.4937
17089TIP3    H272759   5.462   1.584  15.586 -1.0087  1.3955 -0.1804
17090TIP3   OH272760   0.891   1.031   5.259  0.4159 -0.3351 -0.6435
17090TIP3    H172761   0.867   0.944   5.226 -1.1400 -0.3324  0.4303
17090TIP3    H272762   0.874   1.027   5.353  0.7844  0.9938 -0.5099
17091TIP3   OH272763   5.534   5.625   1.506  0.0120 -0.2754 -0.1116
17091TIP3    H172764   5.442   5.625   1.479 -0.1902  0.2225  0.5794
17091TIP3    H272765   5.583   5.609   1.425 -0.6525  0.0157 -0.5733
17092TIP3   OH272766   3.300   1.211  14.986  0.4662  0.0311 -0.3598
17092TIP3    H172767   3.255   1.128  14.968  0.0863  0.5227 -1.7215
17092TIP3    H272768   3.236   1.263  15.034 -0.9147  1.1683 -3.2895
17093TIP3   OH272769   3.373   1.077   3.967  0.1157 -0.3095  0.2085
17093TIP3    H172770   3.415   1.111   3.888  0.5294 -0.6369  0.2825
17093TIP3    H272771   3.421   1.117   4.039 -0.0160 -0.3022  0.2924
17094TIP3   OH272772   6.143   0.036   3.958 -0.0023  0.2219  0.4756
17094TIP3    H172773   6.088  -0.010   3.895 -1.3248 -0.2356  1.9370
17094TIP3    H272774   6.085   0.101   3.998  0.6381  0.0772  1.6686
17095TIP3   OH272775   6.294   1.048   2.244 -0.5972  0.3562 -0.1474
17095TIP3    H172776   6.324   0.959   2.224 -2.4920 -0.3136 -0.1577
17095TIP3    H272777   6.325   1.064   2.333 -0.4822 -0.4500 -0.0330
17096TIP3   OH272778   5.174   4.965   2.355  0.1135  0.0475 -0.2166
17096TIP3    H172779   5.251   4.926   2.398 -0.4365  0.4126  1.1257
17096TIP3    H272780   5.113   4.983   2.427 -0.9928  0.3099 -1.2052
17097TIP3   OH272781   5.354   0.542   3.947  0.0509 -0.1410  0.9187
17097TIP3    H172782   5.266   0.572   3.923  0.4974  0.2772 -0.2668
17097TIP3    H272783   5.404   0.622   3.961  0.4525 -0.3635  0.7681
17098TIP3   OH272784   2.577   2.762   3.923  1.0542 -0.1975  0.0781
17098TIP3    H172785   2.663   2.721   3.933  0.8089 -0.7436  0.0106
17098TIP3    H272786   2.522   2.717   3.987  1.0437  0.7940  0.7551
17099TIP3   OH272787   0.365   2.426   3.564  0.3019  0.0539  0.2225
17099TIP3    H172788   0.308   2.473   3.625 -1.3242 -0.1923 -1.0693
17099TIP3    H272789   0.380   2.487   3.492  2.8988  0.6508  1.2128
17100TIP3   OH272790   2.312   0.837  14.702  0.0844  0.5195 -0.2583
17100TIP3    H172791   2.340   0.811  14.614  1.2794  0.1019  0.2275
17100TIP3    H272792   2.394   0.844  14.752 -0.5565  1.0370  0.7459
17101TIP3   OH272793   2.422   3.708   2.542 -0.5280  0.1401 -0.1880
17101TIP3    H172794   2.353   3.764   2.578 -0.5039 -1.1284  1.8985
17101TIP3    H272795   2.503   3.741   2.583 -0.2031  0.0699 -0.7634
17102TIP3   OH272796   0.894   5.365   1.518 -0.1314 -0.1707 -0.4084
17102TIP3    H172797   0.849   5.280   1.518 -0.4473 -0.0052 -0.8820
17102TIP3    H272798   0.954   5.359   1.444  0.2478 -0.1879 -0.1020
17103TIP3   OH272799   0.303   1.293   3.092 -0.2331 -0.5424 -0.3023
17103TIP3    H172800   0.284   1.236   3.166 -1.3823 -0.3577 -0.4476
17103TIP3    H272801   0.242   1.266   3.024 -1.8443  1.8280  0.1454
17104TIP3   OH272802   7.155   6.929   1.400  0.2751 -0.9379 -0.4827
17104TIP3    H172803   7.139   6.855   1.343 -1.3313 -0.9877  0.0032
17104TIP3    H272804   7.250   6.936   1.406  0.4329 -1.8826 -1.9036
17105TIP3   OH272805   1.281   1.130   5.043 -0.0447 -0.5528 -0.2923
17105TIP3    H172806   1.206   1.189   5.051 -1.4769 -2.1596 -1.4879
17105TIP3    H272807   1.317   1.148   4.956  0.0732 -0.7664 -0.2889
17106TIP3   OH272808   1.614   0.579   5.726 -0.0828 -0.6009  0.7287
17106TIP3    H172809   1.643   0.639   5.795  2.9040 -0.3733 -0.6409
17106TIP3    H272810   1.532   0.617   5.694  0.5726  1.4979  1.4496
17107TIP3   OH272811   1.268   4.802   3.724  0.2956  0.3935 -0.3242
17107TIP3    H172812   1.227   4.887   3.740 -0.0072  0.1734  0.0995
17107TIP3    H272813   1.234   4.746   3.794  1.6165  0.3007  0.2622
17108TIP3   OH272814   1.459   5.022   3.987 -0.0903  0.0783  0.3136
17108TIP3    H172815   1.513   4.956   3.944 -0.6720  0.3280 -0.8019
17108TIP3    H272816   1.377   5.023   3.937 -1.1900 -0.3836  2.0432
17109TIP3   OH272817   6.676   0.706   4.220  0.2299  0.0799 -0.1796
17109TIP3    H172818   6.728   0.756   4.158  0.2445  0.7264  0.3506
17109TIP3    H272819   6.712   0.729   4.306  2.6777 -3.5824 -0.0842
17110TIP3   OH272820   2.252   7.012   2.357  0.4879 -0.2690  0.0480
17110TIP3    H172821   2.294   7.098   2.356 -0.3458  0.1295 -1.3172
17110TIP3    H272822   2.182   7.019   2.292 -1.1499 -1.1958  1.6731
17111TIP3   OH272823   0.764   4.671  15.271 -0.5435 -0.2720  0.1724
17111TIP3    H172824   0.691   4.638  15.324 -1.7360  2.2427  0.1667
17111TIP3    H272825   0.723   4.700  15.189  1.1653 -3.2560 -1.8178
17112TIP3   OH272826   3.223   3.028   2.191 -0.1341  0.6628 -0.1072
17112TIP3    H172827   3.141   3.021   2.141  1.0966 -1.3246 -1.9622
17112TIP3    H272828   3.252   3.118   2.176 -0.3800  0.4380 -2.0473
17113TIP3   OH272829   4.657   6.165   2.081 -0.3458 -0.4898  0.1050
17113TIP3    H172830   4.596   6.223   2.126  1.6516  1.5857  0.2201
17113TIP3    H272831   4.699   6.114   2.151 -0.6327 -0.6322  0.1736
17114TIP3   OH272832   6.731   1.106   2.722  0.2578  0.4046 -0.0696
17114TIP3    H172833   6.675   1.029   2.715 -1.0031  1.0637  2.1523
17114TIP3    H272834   6.674   1.173   2.760  1.6286  2.1107 -0.9819
17115TIP3   OH272835   0.465   0.285   2.251 -0.2265  0.2833 -0.6011
17115TIP3    H172836   0.493   0.194   2.258 -1.9171 -0.2466 -0.5781
17115TIP3    H272837   0.373   0.285   2.277 -0.0941  2.0998  0.0056
17116TIP3   OH272838   4.691   0.920   4.712  0.3375 -0.5301  0.1520
17116TIP3    H172839   4.617   0.963   4.753 -1.1926 -1.7683 -1.2414
17116TIP3    H272840   4.717   0.978   4.641  1.2571  0.3008  1.1468
17117TIP3   OH272841   2.707   1.516   4.903  0.2517 -0.5850  0.3731
17117TIP3    H172842   2.677   1.426   4.895  1.6487 -1.0268 -0.1812
17117TIP3    H272843   2.700   1.552   4.814  0.5001 -0.4171  0.4204
17118TIP3   OH272844   6.788   1.647   3.013  0.6839 -0.0664  0.2738
17118TIP3    H172845   6.769   1.706   3.086  0.6000  0.7086 -0.3721
17118TIP3    H272846   6.753   1.691   2.936 -0.0710 -1.3073 -0.1147
17119TIP3   OH272847   3.814   0.571   1.780  0.3456  0.1249 -0.4728
17119TIP3    H172848   3.881   0.634   1.752 -0.4600  0.1630 -2.3470
17119TIP3    H272849   3.840   0.547   1.869 -0.2497  4.3726  0.9531
17120TIP3   OH272850   0.361   0.966   3.379 -0.4620 -0.3000  0.3842
17120TIP3    H172851   0.312   1.045   3.355 -0.8646 -0.3322  1.0815
17120TIP3    H272852   0.360   0.965   3.475  0.7692 -0.3957  0.4033
17121TIP3   OH272853   3.590   0.390   4.078 -0.0283 -0.6438  0.2303
17121TIP3    H172854   3.675   0.416   4.042  0.1597 -0.3901  0.8411
17121TIP3    H272855   3.526   0.437   4.025  0.2604  0.0399  0.4727
17122TIP3   OH272856   4.695   2.080   4.420 -0.2622  0.0439 -0.4486
17122TIP3    H172857   4.644   2.006   4.453  2.0581 -1.5413 -0.3691
17122TIP3    H272858   4.631   2.131   4.370 -2.3073 -1.0198  1.0074
17123TIP3   OH272859   1.771   5.029   5.652  0.2091  0.4378  0.3553
17123TIP3    H172860   1.726   4.949   5.679 -0.3104  0.3343 -0.8076
17123TIP3    H272861   1.731   5.098   5.705  1.4568 -0.2112  2.2126
17124TIP3   OH272862   2.974   6.654   5.325  0.4900  0.6497  0.3213
17124TIP3    H172863   3.010   6.723   5.380 -1.7973  0.0522  2.7329
17124TIP3    H272864   2.976   6.576   5.382  2.0242 -1.0223 -1.9592
17125TIP3   OH272865   2.507   4.278  13.748 -0.3517  0.0525 -0.2903
17125TIP3    H172866   2.443   4.230  13.696  1.3641 -1.9533 -0.6702
17125TIP3    H272867   2.557   4.329  13.684 -0.2488  0.0121 -0.2428
17126TIP3   OH272868   1.179   6.215   4.335  0.8741 -0.0768 -0.0209
17126TIP3    H172869   1.185   6.124   4.364  1.3956 -0.1193 -0.2447
17126TIP3    H272870   1.244   6.222   4.264  0.3038  0.2739 -0.5110
17127TIP3   OH272871   2.186   2.936   4.090 -0.2610  0.1261 -0.1650
17127TIP3    H172872   2.129   2.885   4.033 -2.1187 -1.1224  2.7078
17127TIP3    H272873   2.149   2.925   4.177  1.3857  3.5428  1.0410
17128TIP3   OH272874   7.147   1.703   3.315 -0.6978  0.2806 -0.1097
17128TIP3    H172875   7.205   1.778   3.327 -0.2875  0.2181 -1.5369
17128TIP3    H272876   7.059   1.741   3.313 -0.6449  0.4778  1.2148
17129TIP3   OH272877   3.459   7.142   4.233  0.1317 -0.0219  0.1266
17129TIP3    H172878   3.473   7.108   4.145 -0.1013  0.4975 -0.1162
17129TIP3    H272879   3.461   7.065   4.290 -1.4794 -0.5651 -0.5345
17130TIP3   OH272880   3.388   4.774   2.805  0.5137  0.1345  0.0871
17130TIP3    H172881   3.481   4.796   2.799  0.4253  0.2576 -1.1107
17130TIP3    H272882   3.354   4.791   2.717 -0.4008 -0.9986  0.2026
17131TIP3   OH272883   2.682   5.517   2.698 -0.2148 -0.5038  0.0597
17131TIP3    H172884   2.703   5.604   2.665 -0.0771 -0.6534 -0.2442
17131TIP3    H272885   2.602   5.492   2.652  0.2999 -0.9538 -0.5923
17132TIP3   OH272886   3.338   0.117   3.948  0.0350 -0.3228 -0.4025
17132TIP3    H172887   3.261   0.149   3.901  1.3465  1.4997 -1.3797
17132TIP3    H272888   3.334   0.161   4.033  0.5935  0.7254 -0.8944
17133TIP3   OH272889   2.636   4.034   1.374  0.4785  0.5720  0.0924
17133TIP3    H172890   2.589   4.111   1.407 -0.0065  0.3356 -0.0462
17133TIP3    H272891   2.688   4.005   1.449  0.8831  1.2023  0.0626
17134TIP3   OH272892   3.537   2.507   4.859 -0.0390 -0.0547 -0.4707
17134TIP3    H172893   3.524   2.468   4.773 -0.0806 -2.4075  0.5707
17134TIP3    H272894   3.617   2.466   4.892  0.3004  1.2519  0.3878
17135TIP3   OH272895   2.067   3.626   4.059  0.0930 -0.0027  0.1400
17135TIP3    H172896   1.977   3.658   4.060 -0.3814 -1.2646 -0.9101
17135TIP3    H272897   2.063   3.541   4.102  0.5305 -0.6696 -1.1082
17136TIP3   OH272898   2.527   0.922   5.611  0.2375 -0.2345 -0.0869
17136TIP3    H172899   2.487   0.836   5.602  0.2700 -0.0417 -2.7140
17136TIP3    H272900   2.546   0.931   5.704 -0.0578 -2.9243  0.2726
17137TIP3   OH272901   7.089   7.103   1.626 -0.6471  0.3412  0.0296
17137TIP3    H172902   7.019   7.048   1.661 -0.3885  0.0393  0.0768
17137TIP3    H272903   7.125   7.053   1.553  2.4224 -1.5605  2.6677
17138TIP3   OH272904   2.274   0.415   4.222  0.5650 -0.1921 -0.2432
17138TIP3    H172905   2.228   0.342   4.263 -2.6900  1.6001 -0.6186
17138TIP3    H272906   2.331   0.448   4.291  0.4301 -1.6590  0.6026
17139TIP3   OH272907   3.600   5.162   4.014  0.0412  0.2497  0.0278
17139TIP3    H172908   3.510   5.192   4.029 -0.1020  0.1194 -0.5731
17139TIP3    H272909   3.594   5.103   3.939  0.5251 -0.2953  0.4129
17140TIP3   OH272910   3.369   1.443   5.479 -0.3805  0.2024 -0.2552
17140TIP3    H172911   3.334   1.357   5.455 -1.3495  0.5144  0.0044
17140TIP3    H272912   3.294   1.502   5.472  0.0372  0.8447  0.5505
17141TIP3   OH272913   3.205   3.864   4.721  0.0349  0.9922 -0.2038
17141TIP3    H172914   3.251   3.792   4.678 -1.3130 -0.4644  0.7295
17141TIP3    H272915   3.271   3.906   4.776  1.0784  1.1339 -1.5155
17142TIP3   OH272916   5.773   1.421   4.342 -0.0325  0.1488  0.0730
17142TIP3    H172917   5.703   1.417   4.276  2.3365  1.8120 -2.6490
17142TIP3    H272918   5.786   1.330   4.369 -2.6049 -0.2894 -0.0455
17143TIP3   OH272919   1.061   0.406   4.420 -0.8003 -0.0342  0.4951
17143TIP3    H172920   1.103   0.464   4.484 -0.0612 -0.7621  0.6822
17143TIP3    H272921   1.060   0.320   4.463 -2.2497 -0.0756  0.3755
17144TIP3   OH272922   0.198   6.539   4.541 -0.1572 -0.1284 -0.1093
17144TIP3    H172923   0.283   6.534   4.586  0.3371 -0.9778 -1.1080
17144TIP3    H272924   0.210   6.608   4.476  0.0652 -0.8561 -0.8469
17145TIP3   OH272925   2.281   6.975   3.199  0.1135  0.1411  0.3183
17145TIP3    H172926   2.243   7.053   3.157 -1.1536  0.2819  1.7188
17145TIP3    H272927   2.216   6.906   3.186  2.3464 -1.4669 -3.2412
17146TIP3   OH272928   1.295   6.721   3.650  0.0565 -0.1359  0.6262
17146TIP3    H172929   1.371   6.761   3.690  0.5532 -0.7537  0.3206
17146TIP3    H272930   1.220   6.754   3.700  0.4954  0.7447  0.7025
17147TIP3   OH272931   5.934   5.243   4.704 -0.3394  0.0064  0.4956
17147TIP3    H172932   5.919   5.202   4.619 -2.6752  0.9551  0.4029
17147TIP3    H272933   5.900   5.180   4.767 -0.3234  0.1082  0.6075
17148TIP3   OH272934   2.184   6.995   5.904  0.2936 -0.5995  0.5847
17148TIP3    H172935   2.104   7.042   5.878  0.4257 -0.5103  0.3313
17148TIP3    H272936   2.243   7.007   5.829  0.1065 -1.6918  0.2586
17149TIP3   OH272937   3.637   1.941   2.244  0.3062  0.1037 -0.9058
17149TIP3    H172938   3.619   1.993   2.166  3.4345 -0.4921 -2.0911
17149TIP3    H272939   3.712   1.886   2.220  1.5633  0.1403  2.5939
17150TIP3   OH272940   1.223   7.159   4.006  0.4812  0.1148 -0.3720
17150TIP3    H172941   1.200   7.236   4.057 -1.1389  0.3550 -1.4421
17150TIP3    H272942   1.156   7.095   4.027  2.8720 -1.7297  1.9876
17151TIP3   OH272943   6.061   2.536   4.839  0.1964 -0.3411  0.1606
17151TIP3    H172944   6.119   2.484   4.783  3.0136  2.4839  0.3209
17151TIP3    H272945   6.082   2.508   4.928 -1.5758 -2.1306  0.0459
17152TIP3   OH272946   2.982   1.597   6.093  0.7506  0.3015 -0.0186
17152TIP3    H172947   3.056   1.657   6.098  0.3974  0.8676 -1.3376
17152TIP3    H272948   3.021   1.513   6.068  1.4494 -0.4597  3.4521
17153TIP3   OH272949   3.099   0.877   1.544  0.1041  0.4450  0.6191
17153TIP3    H172950   3.063   0.831   1.620 -1.1179  0.9611  0.3802
17153TIP3    H272951   3.193   0.861   1.547 -0.2187 -1.3936  0.9847
17154TIP3   OH272952   2.207   5.811   2.630  0.2651  0.1835  0.3514
17154TIP3    H172953   2.137   5.777   2.685  0.2748  1.6544  1.3162
17154TIP3    H272954   2.234   5.892   2.673 -0.4185  1.9296 -2.3776
17155TIP3   OH272955   1.684   5.999   5.220  0.7151 -0.2018 -0.3456
17155TIP3    H172956   1.703   5.916   5.264  0.4434  0.1683  0.4905
17155TIP3    H272957   1.669   5.975   5.129  4.0276 -0.6163 -0.8086
17156TIP3   OH272958   2.509   0.446   5.642 -0.2296  0.2201 -0.2977
17156TIP3    H172959   2.595   0.486   5.631 -0.1094  0.1040  0.1951
17156TIP3    H272960   2.505   0.422   5.735 -0.4528 -0.5442 -0.4967
17157TIP3   OH272961   0.019   4.192   0.057  0.1385 -0.0355 -1.1676
17157TIP3    H172962   0.004   4.097   0.060  0.5265 -0.0661 -0.0808
17157TIP3    H272963   0.108   4.203   0.090 -0.6821  0.8790  0.8490
17158TIP3   OH272964   4.119   3.414   2.681 -0.3430 -0.3225 -0.9115
17158TIP3    H172965   4.047   3.400   2.742  0.4265  0.1940  0.1396
17158TIP3    H272966   4.183   3.345   2.703 -0.0522 -0.1216 -1.1230
17159TIP3   OH272967   5.129   4.250   4.732  0.0700  0.3122  0.3812
17159TIP3    H172968   5.064   4.228   4.664 -0.4735  1.3976  0.5382
17159TIP3    H272969   5.133   4.346   4.730  2.7576  0.2188 -0.6264
17160TIP3   OH272970   0.827   0.932   5.511  0.7895 -0.1310 -0.1530
17160TIP3    H172971   0.801   0.978   5.591 -2.1238 -0.3343 -0.9124
17160TIP3    H272972   0.818   0.839   5.534  0.2821 -0.1928 -0.5872
17161TIP3   OH272973   3.740   1.606  14.647  0.6947  0.4641  0.3952
17161TIP3    H172974   3.825   1.595  14.604  2.3192  0.5279  3.5245
17161TIP3    H272975   3.752   1.679  14.708 -1.9039  1.1136  0.1967
17162TIP3   OH272976   4.040   4.785   2.036 -0.2830 -0.7276  0.1758
17162TIP3    H172977   3.963   4.786   2.092 -1.4538  0.0058 -1.3877
17162TIP3    H272978   4.005   4.784   1.947  1.5241 -1.6790 -0.5618
17163TIP3   OH272979   2.855   0.131   2.088 -0.1968  0.0116  0.2148
17163TIP3    H172980   2.916   0.187   2.042  1.6703 -1.8954  0.3053
17163TIP3    H272981   2.905   0.053   2.110 -1.6175 -0.0614  3.5515
17164TIP3   OH272982   2.369   1.593   5.028 -0.0973 -0.5154 -0.1286
17164TIP3    H172983   2.382   1.499   5.046  1.5445 -0.4256 -0.7308
17164TIP3    H272984   2.423   1.637   5.093 -1.4667  0.0442  0.6413
17165TIP3   OH272985   3.132   0.333   4.058  0.7019 -0.2151  0.8276
17165TIP3    H172986   3.098   0.259   4.009 -1.3561 -0.1835  2.1394
17165TIP3    H272987   3.140   0.403   3.994 -2.8745  0.1257  0.6458
17166TIP3   OH272988   5.121   3.533   4.679  0.3043  0.3703  0.1002
17166TIP3    H172989   5.126   3.600   4.611  1.8458 -0.6910 -0.8668
17166TIP3    H272990   5.210   3.496   4.683 -0.2136 -0.7730  1.4634
17167TIP3   OH272991   5.220   1.542   4.426  0.0995 -0.2417 -0.2249
17167TIP3    H172992   5.137   1.581   4.401 -1.6012 -3.3277  0.3628
17167TIP3    H272993   5.222   1.458   4.380  2.9520 -0.1578 -0.3379
17168TIP3   OH272994   1.718   6.750   3.636 -0.3637 -0.0761  0.4638
17168TIP3    H172995   1.712   6.826   3.695  1.6929 -0.2666  0.9308
17168TIP3    H272996   1.662   6.684   3.676 -2.4287  1.2741 -0.1086
17169TIP3   OH272997   3.710   7.028   0.656  0.6024  0.3063 -0.1392
17169TIP3    H172998   3.772   6.956   0.665  0.3454  0.0841 -0.1228
17169TIP3    H272999   3.760   7.107   0.676  0.8292  0.1101  0.0583
17170TIP3   OH273000   4.552   5.813   5.514 -0.0241  0.7229  0.1386
17170TIP3    H173001   4.481   5.869   5.485 -0.1115  0.7202  0.3469
17170TIP3    H273002   4.602   5.867   5.575 -1.2453 -0.0657  1.8826
17171TIP3   OH273003   0.661   1.486   5.545 -0.1224  0.1840 -0.5364
17171TIP3    H173004   0.712   1.418   5.502  0.1115  0.6542 -1.0216
17171TIP3    H273005   0.726   1.542   5.588 -0.2184  0.7890 -1.1636
17172TIP3   OH273006   0.712   2.355   1.059 -0.3796  0.3655  0.1410
17172TIP3    H173007   0.805   2.334   1.055 -0.4075 -0.0562  1.3555
17172TIP3    H273008   0.706   2.426   1.123 -0.5644  2.4818 -2.1730
17173TIP3   OH273009   1.336   3.020   3.079 -0.0998 -0.5187  0.1173
17173TIP3    H173010   1.325   3.078   3.004 -3.2572 -0.5164  0.5228
17173TIP3    H273011   1.310   3.072   3.155 -1.3003 -1.9073  0.6829
17174TIP3   OH273012   3.842   7.093   4.728 -0.0839  0.0425 -0.2116
17174TIP3    H173013   3.836   7.027   4.797 -0.7041 -0.9349 -1.1704
17174TIP3    H273014   3.904   7.158   4.761  0.0064 -0.6712  1.0385
17175TIP3   OH273015   3.949   5.318   5.209  0.2689  0.4557 -0.0779
17175TIP3    H173016   3.940   5.396   5.264  0.9598  0.1582  0.4618
17175TIP3    H273017   3.914   5.247   5.262 -0.0091  0.3287 -0.4251
17176TIP3   OH273018   3.688   5.940   1.676 -0.1637 -0.6371 -0.4479
17176TIP3    H173019   3.614   6.000   1.670  0.4535  0.0278 -1.6277
17176TIP3    H273020   3.765   5.995   1.659  0.7146 -1.1097  1.7641
17177TIP3   OH273021   4.445   0.151   1.369 -0.3981  0.3951  0.0955
17177TIP3    H173022   4.399   0.137   1.286  0.3107 -0.6370 -0.1303
17177TIP3    H273023   4.463   0.062   1.401 -2.5122  0.7195  2.3880
17178TIP3   OH273024   1.508   6.364   3.412  0.1200  0.5331 -0.2253
17178TIP3    H173025   1.445   6.365   3.484  0.0927  0.2032 -0.2455
17178TIP3    H273026   1.558   6.283   3.425  1.4580  1.4830  0.5987
17179TIP3   OH273027   3.806   0.747  14.416 -0.2435 -0.3873 -0.1015
17179TIP3    H173028   3.812   0.840  14.437 -1.5524 -0.6446  1.5508
17179TIP3    H273029   3.891   0.724  14.379  1.3470  0.6808  2.7505
17180TIP3   OH273030   3.179   0.558   2.249 -0.5307 -0.2740 -0.3731
17180TIP3    H173031   3.195   0.619   2.178  0.9826  0.2794  0.4329
17180TIP3    H273032   3.143   0.612   2.320 -0.4294 -0.5415 -0.1163
17181TIP3   OH273033   2.624   2.871   3.524  0.4184 -1.1863 -0.2461
17181TIP3    H173034   2.532   2.856   3.501  0.8164 -0.7940 -2.2224
17181TIP3    H273035   2.637   2.819   3.603 -1.3839 -1.6278 -0.2007
17182TIP3   OH273036   3.219   1.001   5.578  0.0200  0.2382 -0.1667
17182TIP3    H173037   3.176   1.001   5.663 -0.2504  0.4778 -0.3006
17182TIP3    H273038   3.264   0.917   5.574 -2.0414 -0.8899 -0.8063
17183TIP3   OH273039   2.939   1.672   5.568 -0.3558  0.0583 -0.3787
17183TIP3    H173040   2.864   1.652   5.512 -0.9271 -1.2682  0.8407
17183TIP3    H273041   2.903   1.677   5.656  0.7323  1.0317  0.0213
17184TIP3   OH273042   1.911   6.470   3.342 -0.3228  0.0476 -0.1102
17184TIP3    H173043   1.919   6.450   3.435 -0.0110 -0.7705 -0.3098
17184TIP3    H273044   1.827   6.515   3.334 -0.8373 -0.8242  0.4122
17185TIP3   OH273045   1.971   2.280   5.612 -0.5451 -0.2032  0.2778
17185TIP3    H173046   1.930   2.330   5.682 -1.4983 -0.8270  0.1710
17185TIP3    H273047   1.947   2.189   5.629 -2.4911 -0.1656 -1.9764
17186TIP3   OH273048   1.605   4.811   3.217 -0.0765 -0.7108 -0.1365
17186TIP3    H173049   1.661   4.865   3.161 -1.9158  2.4276  0.8803
17186TIP3    H273050   1.520   4.855   3.215 -1.4633 -3.2179  1.3574
17187TIP3   OH273051   6.497   1.814   3.337  0.5456 -0.4995  0.2627
17187TIP3    H173052   6.582   1.839   3.374  1.9401 -2.6590 -1.3610
17187TIP3    H273053   6.461   1.751   3.400 -0.0247  0.6466  1.1052
17188TIP3   OH273054   4.835   2.641   0.528  0.0963  0.3240 -0.7818
17188TIP3    H173055   4.898   2.612   0.462  1.6282 -0.4516  1.0109
17188TIP3    H273056   4.872   2.723   0.562  0.0170 -0.0219  0.1332
17189TIP3   OH273057   2.574   1.462   3.486  0.5866 -0.3086 -0.2278
17189TIP3    H173058   2.590   1.370   3.505  0.1743 -0.4524 -0.5655
17189TIP3    H273059   2.593   1.507   3.568 -1.8019 -0.9951  0.7531
17190TIP3   OH273060   1.498   5.094   0.923 -0.2039 -0.3168  0.2780
17190TIP3    H173061   1.470   5.120   0.835  1.1318  1.0459  0.2358
17190TIP3    H273062   1.560   5.022   0.909 -0.4608 -0.5111  0.1409
17191TIP3   OH273063   5.397   6.805   2.453  0.0410  0.0433  0.0143
17191TIP3    H173064   5.459   6.749   2.407  1.1786 -0.1927  1.7683
17191TIP3    H273065   5.337   6.744   2.497 -1.9464  0.2694 -2.2597
17192TIP3   OH273066   3.246   1.765   6.159 -0.1240  0.5081 -0.4602
17192TIP3    H173067   3.317   1.718   6.203  0.3156  1.4130 -0.1962
17192TIP3    H273068   3.260   1.746   6.066 -1.5794 -2.1304 -0.1970
17193TIP3   OH273069   0.057   0.800   5.000 -0.0866  0.5393 -0.4791
17193TIP3    H173070   0.122   0.791   5.070 -0.8152 -0.0586  0.1405
17193TIP3    H273071  -0.027   0.791   5.045 -0.5477 -0.7182 -1.5734
17194TIP3   OH273072   2.780   6.989   5.577 -0.2880 -0.0912 -0.1521
17194TIP3    H173073   2.866   7.019   5.607 -0.7556  0.6097  0.5069
17194TIP3    H273074   2.717   7.042   5.626 -1.1563 -2.5102  1.4536
17195TIP3   OH273075   3.720   0.039   5.669  0.1753  0.5104  0.2787
17195TIP3    H173076   3.756   0.066   5.584  1.3829 -1.5852  0.0978
17195TIP3    H273077   3.680  -0.046   5.651  1.4524 -0.4880  2.0554
17196TIP3   OH273078   2.952   2.028   4.902  0.2138  0.5150  0.5671
17196TIP3    H173079   3.026   2.086   4.917  0.4043  0.5713 -0.5433
17196TIP3    H273080   2.984   1.941   4.926  0.4292  0.6335  0.7073
17197TIP3   OH273081   1.920   1.082   4.844 -0.0285 -0.1776 -0.5142
17197TIP3    H173082   1.828   1.055   4.841 -0.3140  0.6932  0.3321
17197TIP3    H273083   1.932   1.117   4.932  1.3880 -1.2461 -0.2634
17198TIP3   OH273084   1.711   6.409   3.900 -0.0821  0.0311 -0.3511
17198TIP3    H173085   1.763   6.484   3.925  0.2225 -0.4600  0.5041
17198TIP3    H273086   1.644   6.444   3.841  0.0747  0.9511  0.0222
17199TIP3   OH273087   3.369   3.019   3.778 -0.5442 -0.2877 -0.1356
17199TIP3    H173088   3.312   3.082   3.736 -1.6941  0.1688  2.0307
17199TIP3    H273089   3.408   3.066   3.851 -2.0438 -2.2556  2.0143
17200TIP3   OH273090   0.905   0.280   4.194 -0.0097  0.0105  0.3924
17200TIP3    H173091   0.860   0.263   4.277  0.0950  3.7052  1.2742
17200TIP3    H273092   0.843   0.334   4.144  1.5943  1.3124 -0.2299
17201TIP3   OH273093   2.040   3.003   4.841  0.2138 -0.1140  0.6308
17201TIP3    H173094   1.953   3.014   4.880  0.4226 -0.5849  1.2502
17201TIP3    H273095   2.030   3.033   4.751 -1.1787 -2.2689  0.0169
17202TIP3   OH273096   0.856   4.370   5.324 -0.6177 -0.6440  0.0751
17202TIP3    H173097   0.806   4.437   5.279  0.5830  0.8489  0.9073
17202TIP3    H273098   0.825   4.287   5.287 -3.0648  0.2736 -0.0132
17203TIP3   OH273099   2.037   7.108   4.490 -0.1537  0.0556 -0.3193
17203TIP3    H173100   1.988   7.189   4.501 -0.0883  0.0554 -0.0035
17203TIP3    H273101   1.999   7.066   4.413 -1.4041 -0.4635  0.5563
17204TIP3   OH273102   0.725   3.459   4.901  0.2871 -0.1244  0.1669
17204TIP3    H173103   0.648   3.405   4.916 -2.0934  3.2836  0.6420
17204TIP3    H273104   0.746   3.446   4.808 -1.0942 -0.7283 -0.0695
17205TIP3   OH273105   4.118   3.525   5.342  0.4064 -0.2671 -0.0794
17205TIP3    H173106   4.107   3.562   5.430 -0.2719  0.0228 -0.2820
17205TIP3    H273107   4.204   3.484   5.344  0.2956 -0.4682  0.7982
17206TIP3   OH273108   5.568   2.221   3.591  0.3256 -0.0949  0.0078
17206TIP3    H173109   5.547   2.131   3.616 -0.7427  0.1974  0.1921
17206TIP3    H273110   5.498   2.246   3.531 -0.0604  1.0166  0.9064
17207TIP3   OH273111   3.740   0.192   5.897 -0.4566  0.2571  0.8229
17207TIP3    H173112   3.732   0.147   5.813  0.5784 -0.8456  1.3072
17207TIP3    H273113   3.818   0.247   5.887 -0.1737 -0.0798  1.1425
17208TIP3   OH273114   2.866   4.300   5.291 -0.2284  0.3945 -0.5932
17208TIP3    H173115   2.790   4.334   5.338 -0.6585  0.3835 -1.2885
17208TIP3    H273116   2.905   4.237   5.352 -1.0385  0.0540 -0.4136
17209TIP3   OH273117   2.514   6.285   0.714 -0.0088  0.2491  0.1643
17209TIP3    H173118   2.448   6.329   0.767  0.1702  0.0868  0.5188
17209TIP3    H273119   2.551   6.354   0.659 -0.5428  0.3247 -0.1108
17210TIP3   OH273120   6.014   0.311   5.004 -0.1995 -0.2141  0.0847
17210TIP3    H173121   5.974   0.225   4.991  0.0501 -0.7033  2.4015
17210TIP3    H273122   5.939   0.371   5.011 -0.4169 -0.5059  0.2863
17211TIP3   OH273123   0.437   5.380   3.237  0.6665  0.4992  0.2615
17211TIP3    H173124   0.384   5.325   3.180 -1.2291  0.2082  2.2079
17211TIP3    H273125   0.525   5.343   3.232 -0.3247 -1.9856  0.6203
17212TIP3   OH273126   4.383   0.485   4.223 -0.5576  0.1249 -1.0506
17212TIP3    H173127   4.344   0.485   4.136 -1.3384  0.5440 -0.7048
17212TIP3    H273128   4.316   0.448   4.280 -0.1530  0.1051 -0.5812
17213TIP3   OH273129   2.123   3.568   2.760 -0.0418 -0.1524  0.3534
17213TIP3    H173130   2.076   3.485   2.757  1.8475 -1.2353 -0.2818
17213TIP3    H273131   2.146   3.586   2.668  0.4456  0.5463  0.6080
17214TIP3   OH273132   0.990   1.923   4.057 -0.3875  0.2350  0.2215
17214TIP3    H173133   1.021   1.927   3.967 -1.1749 -1.0116 -0.1260
17214TIP3    H273134   0.901   1.959   4.053 -1.2970 -1.9572  0.0549
17215TIP3   OH273135   0.501   6.755   4.708  0.0654 -0.3213 -0.5627
17215TIP3    H173136   0.420   6.728   4.752  0.8856 -1.6099  0.1657
17215TIP3    H273137   0.561   6.683   4.722  1.4584  0.7744 -0.8424
17216TIP3   OH273138   4.014   6.971   5.378  0.1759 -0.4550  0.0345
17216TIP3    H173139   3.984   6.906   5.441 -1.2298 -0.5624 -0.7108
17216TIP3    H273140   3.956   7.046   5.392  0.7530  0.0330 -0.1810
17217TIP3   OH273141   1.946   3.263   5.391  0.5812 -0.3271  0.0199
17217TIP3    H173142   1.863   3.263   5.439  1.1321  1.2381  1.0067
17217TIP3    H273143   2.013   3.267   5.459  1.4144  0.5340 -0.8295
17218TIP3   OH273144   1.781   0.341   5.350  0.1840  0.0569  0.2860
17218TIP3    H173145   1.830   0.336   5.432  1.4828  2.7157 -0.2835
17218TIP3    H273146   1.712   0.406   5.367 -1.6590 -1.8230  0.2780
17219TIP3   OH273147   7.099   5.847   2.945  0.3423 -0.1962 -0.4351
17219TIP3    H173148   7.060   5.904   3.011 -1.7855 -1.9299 -0.1567
17219TIP3    H273149   7.152   5.785   2.995  0.3806 -0.2458 -0.5366
17220TIP3   OH273150   0.776   1.765   4.895 -0.5256  0.4291 -0.0769
17220TIP3    H173151   0.761   1.670   4.890 -0.0198  0.3812 -0.6682
17220TIP3    H273152   0.765   1.796   4.805  0.1017  0.8178 -0.0229
17221TIP3   OH273153   1.196   0.167   4.826  0.2041 -0.3757  0.0107
17221TIP3    H173154   1.115   0.124   4.852  0.0075  0.6918  1.2070
17221TIP3    H273155   1.263   0.100   4.835 -0.5512 -1.3094 -1.1386
17222TIP3   OH273156   3.158   2.185   4.282 -0.3592 -0.4767 -0.1180
17222TIP3    H173157   3.100   2.255   4.252 -0.2390  0.1863  1.1555
17222TIP3    H273158   3.138   2.176   4.376  1.3522 -0.4765  0.2608
17223TIP3   OH273159   6.561   2.394   4.531 -0.0971 -0.1400 -0.5954
17223TIP3    H173160   6.641   2.442   4.554  0.9922 -2.3938  0.5529
17223TIP3    H273161   6.491   2.442   4.573  1.0577  0.0039  1.2192
17224TIP3   OH273162   5.480   0.013   4.833 -0.2510 -0.1582  0.0583
17224TIP3    H173163   5.469   0.078   4.902  0.7734  0.9099 -0.7741
17224TIP3    H273164   5.573   0.017   4.810  0.1008 -2.7831  0.8391
17225TIP3   OH273165   1.720   6.941   1.630  0.1355  0.2796 -0.5699
17225TIP3    H173166   1.736   6.887   1.552  0.7119 -0.9817  0.3912
17225TIP3    H273167   1.759   6.890   1.702 -2.3609  0.3330  0.8712
17226TIP3   OH273168   3.987   0.984   2.653 -0.4851 -0.1873  0.2990
17226TIP3    H173169   3.942   0.934   2.721 -0.2875 -1.0937 -0.2369
17226TIP3    H273170   4.075   0.946   2.649 -0.2797  0.3124  0.0101
17227TIP3   OH273171   0.703   4.627   4.870  0.0168 -0.1788 -0.4273
17227TIP3    H173172   0.676   4.539   4.899  0.2827  0.6309  2.3749
17227TIP3    H273173   0.794   4.616   4.843  0.6997 -0.3827  1.8594
17228TIP3   OH273174   3.262   2.303   0.694  0.2969  0.0569 -0.1570
17228TIP3    H173175   3.219   2.235   0.745 -2.0219  0.9315 -0.9002
17228TIP3    H273176   3.228   2.293   0.606  1.7260  0.7028 -0.8111
17229TIP3   OH273177   5.688   0.395   1.014  0.0765  0.3514 -0.7987
17229TIP3    H173178   5.607   0.392   1.067  0.9416  0.1476  0.5424
17229TIP3    H273179   5.741   0.463   1.056  1.4664 -0.9651 -0.3750
17230TIP3   OH273180   5.528   0.766   3.958 -0.4834 -0.1106 -0.6345
17230TIP3    H173181   5.566   0.790   3.874 -0.5615  0.9324 -0.3718
17230TIP3    H273182   5.600   0.772   4.020 -0.5933 -0.1645 -0.5015
17231TIP3   OH273183   1.977   2.840   5.767 -0.1760 -0.2664 -0.4021
17231TIP3    H173184   2.043   2.902   5.735 -0.0593 -0.5266 -0.6650
17231TIP3    H273185   1.899   2.894   5.782 -0.2503 -0.1509 -1.1735
17232TIP3   OH273186   2.010   1.430   3.309 -0.0069 -0.0808 -0.1749
17232TIP3    H173187   2.064   1.425   3.230  2.2808 -1.1401  1.4166
17232TIP3    H273188   1.954   1.352   3.304 -2.2484  1.5880 -2.3689
17233TIP3   OH273189   2.921   1.281   2.817 -0.4467 -0.3091 -0.3167
17233TIP3    H173190   2.967   1.324   2.889 -1.8014  0.4384  0.1219
17233TIP3    H273191   2.871   1.351   2.775 -1.2436 -1.1161 -0.7309
17234TIP3   OH273192   3.427   6.608   4.341  0.0595 -0.2669  0.5780
17234TIP3    H173193   3.366   6.538   4.361 -1.6967  1.2457  0.6693
17234TIP3    H273194   3.460   6.588   4.253 -1.7473 -0.2887 -0.1119
17235TIP3   OH273195   1.755   2.186   5.146  0.0608  0.0845 -0.6449
17235TIP3    H173196   1.692   2.239   5.097 -2.7298 -0.8409  1.8282
17235TIP3    H273197   1.799   2.248   5.204 -0.0705  0.3934 -0.8749
17236TIP3   OH273198   2.281   0.889   2.216  0.0879 -0.0632 -0.1452
17236TIP3    H173199   2.192   0.921   2.233  1.3887  2.1690  3.0236
17236TIP3    H273200   2.318   0.952   2.154 -0.4523 -0.8901 -1.3231
17237TIP3   OH273201   0.890   1.611   4.529 -0.1277  0.4619  0.0597
17237TIP3    H173202   0.970   1.573   4.565 -0.1477  1.0410  0.7116
17237TIP3    H273203   0.897   1.704   4.548 -0.2974  0.7252 -1.1289
17238TIP3   OH273204   4.640   1.966   3.048  0.4430 -0.3795  0.2966
17238TIP3    H173205   4.722   1.961   2.998 -1.1256  3.5521 -2.9958
17238TIP3    H273206   4.584   1.899   3.009  0.7405 -0.3693 -0.1539
17239TIP3   OH273207   0.628   3.584   2.371 -0.9556  0.3289 -0.1820
17239TIP3    H173208   0.600   3.502   2.330 -2.3154  0.1630  1.0570
17239TIP3    H273209   0.709   3.607   2.324 -0.2729 -1.9773 -0.2221
17240TIP3   OH273210   3.085   1.064   5.795 -0.0027 -0.0917  0.3257
17240TIP3    H173211   3.135   1.065   5.877  0.7018  1.5697 -0.1081
17240TIP3    H273212   3.039   1.148   5.794 -2.7996 -1.5607  0.6858
17241TIP3   OH273213   0.675   6.517   0.722 -0.1845 -0.0817  0.5221
17241TIP3    H173214   0.733   6.511   0.797  0.4621  1.3240  0.1532
17241TIP3    H273215   0.618   6.592   0.742 -2.1950 -1.7166  1.0955
17242TIP3   OH273216   5.384   0.745   4.239  0.4428 -0.3280 -0.0123
17242TIP3    H173217   5.390   0.667   4.294  0.8588 -0.4627 -0.2509
17242TIP3    H273218   5.320   0.721   4.172 -1.1347  0.3307  1.2234
17243TIP3   OH273219   5.709   6.116   5.338  0.4322 -0.1099 -0.3541
17243TIP3    H173220   5.767   6.061   5.391 -0.0304 -1.6978 -1.4375
17243TIP3    H273221   5.750   6.202   5.337  0.9638 -0.3259  1.7452
17244TIP3   OH273222   5.837   6.673   2.939 -0.0172 -0.0829 -0.6021
17244TIP3    H173223   5.870   6.646   3.025 -1.4475  0.3863  0.1011
17244TIP3    H273224   5.811   6.591   2.897 -0.0181 -0.2448 -0.2898
17245TIP3   OH273225   3.264   3.011   5.555 -0.2221  0.2583 -0.0300
17245TIP3    H173226   3.240   3.030   5.464 -0.0624 -1.9194 -0.5545
17245TIP3    H273227   3.352   2.973   5.549  0.0688  0.7531  1.0976
17246TIP3   OH273228   1.714   0.507   2.814  0.1796  0.1111  0.0687
17246TIP3    H173229   1.713   0.412   2.813 -1.0894  0.1213 -0.4574
17246TIP3    H273230   1.687   0.531   2.903 -1.5234 -0.0166 -0.3964
17247TIP3   OH273231   0.199   1.565   3.490  0.0417  0.5269  0.1912
17247TIP3    H173232   0.224   1.526   3.574  0.2240  1.7462  0.7189
17247TIP3    H273233   0.127   1.510   3.459  0.1772 -0.1218  1.0057
17248TIP3   OH273234   2.777   6.098   4.333 -0.2063 -0.0921 -0.0827
17248TIP3    H173235   2.701   6.089   4.277 -0.6702 -1.0421  0.6790
17248TIP3    H273236   2.765   6.031   4.401  1.1055  0.0067  0.2632
17249TIP3   OH273237   0.352   1.831   5.399 -0.2297  0.0056 -0.0143
17249TIP3    H173238   0.267   1.798   5.428 -0.4286 -0.1421 -0.7530
17249TIP3    H273239   0.337   1.925   5.387  0.1166  0.2354  1.2975
17250TIP3   OH273240   1.018   0.190   4.601 -0.2319 -0.1506 -0.3490
17250TIP3    H173241   0.946   0.149   4.648  0.8782 -1.2729  0.4061
17250TIP3    H273242   1.092   0.186   4.662  0.8620 -0.3424 -1.6511
17251TIP3   OH273243   6.597   0.789   5.438  0.5818 -0.7101 -0.4307
17251TIP3    H173244   6.563   0.817   5.352 -0.3015  0.9047  0.4118
17251TIP3    H273245   6.540   0.717   5.464 -0.7177  0.4094 -0.1129
17252TIP3   OH273246   1.703   1.582   1.020  0.6012  0.4797  0.3150
17252TIP3    H173247   1.719   1.538   0.936 -0.6128  0.5332  0.0525
17252TIP3    H273248   1.729   1.518   1.086  2.2867  0.7088 -0.0874
17253TIP3   OH273249   1.065   0.117   5.399 -0.5777 -0.4141 -0.0721
17253TIP3    H173250   1.001   0.182   5.372 -0.7864 -0.6784 -0.2074
17253TIP3    H273251   1.059   0.047   5.334  0.5473  0.0178 -0.6415
17254TIP3   OH273252   4.305   0.339   3.190 -0.7703 -0.7838 -0.1284
17254TIP3    H173253   4.337   0.425   3.218  0.2680 -1.5116  1.0076
17254TIP3    H273254   4.293   0.346   3.096 -0.7592  0.6252 -0.0275
17255TIP3   OH273255   4.662   5.882   4.121  0.4599  0.2779 -0.1259
17255TIP3    H173256   4.707   5.958   4.158  2.4540 -1.0348  0.2536
17255TIP3    H273257   4.667   5.896   4.026  1.9696  0.0026 -0.1001
17256TIP3   OH273258   3.234   0.973   3.764 -0.1515  0.2708  0.2359
17256TIP3    H173259   3.315   0.974   3.713  0.0129  0.1499  0.4930
17256TIP3    H273260   3.262   0.993   3.854 -0.4590  0.6552  0.2466
17257TIP3   OH273261   0.734   0.048   1.224 -0.3504 -0.3113 -0.7640
17257TIP3    H173262   0.715  -0.045   1.238 -0.1099 -0.8112 -3.3897
17257TIP3    H273263   0.699   0.067   1.137  1.2004  1.5964 -1.0193
17258TIP3   OH273264   1.157   0.692   4.410  0.4443  0.5835 -0.0182
17258TIP3    H173265   1.084   0.749   4.387  1.8468  2.0893 -0.8477
17258TIP3    H273266   1.170   0.636   4.333  0.7711  0.9748 -0.2508
17259TIP3   OH273267   2.318   1.775   5.948 -0.4450 -0.7947 -0.2170
17259TIP3    H173268   2.250   1.748   6.010  1.0669 -0.9540  1.4079
17259TIP3    H273269   2.374   1.698   5.940 -0.2994 -0.5714 -1.3254
17260TIP3   OH273270   3.438   6.904   4.433 -0.1823 -0.2613 -0.5345
17260TIP3    H173271   3.531   6.924   4.441 -0.0841 -0.2276 -1.7231
17260TIP3    H273272   3.432   6.842   4.361 -1.1817  0.4723 -1.1011
17261TIP3   OH273273   2.864   4.508   4.369  0.0797  0.0315  0.6903
17261TIP3    H173274   2.850   4.414   4.359  0.5115  0.1528 -1.1732
17261TIP3    H273275   2.958   4.518   4.380  0.4551  0.5025 -2.5666
17262TIP3   OH273276   1.880   1.296   5.386 -0.5968 -0.6366 -0.2864
17262TIP3    H173277   1.845   1.219   5.430 -2.0904  0.3852  0.3411
17262TIP3    H273278   1.804   1.351   5.370  0.7551  1.7591  1.3378
17263TIP3   OH273279   4.531   7.127   5.867 -0.5615 -0.3617 -0.0534
17263TIP3    H173280   4.497   7.146   5.780 -0.0623  0.6573 -0.0301
17263TIP3    H273281   4.454   7.123   5.923 -0.7971  0.0826 -0.3433
17264TIP3   OH273282   3.588   6.885   5.252  0.0248 -0.5797  0.2779
17264TIP3    H173283   3.546   6.929   5.178 -0.6033 -1.8801 -0.1566
17264TIP3    H273284   3.676   6.864   5.221  0.1736 -0.0273  0.3290
17265TIP3   OH273285   3.545   5.182   4.491  0.1480  0.1606  0.5784
17265TIP3    H173286   3.581   5.254   4.542  0.6022  1.0212 -0.9404
17265TIP3    H273287   3.578   5.196   4.402  2.8344 -3.6272  0.8613
17266TIP3   OH273288   3.282   2.289   5.416 -0.2308  0.6889 -0.2376
17266TIP3    H173289   3.210   2.323   5.363 -0.6883 -1.5732 -1.1083
17266TIP3    H273290   3.360   2.303   5.363 -0.6059 -0.9515 -1.2546
17267TIP3   OH273291   2.665   3.345   2.499  0.1113  0.1845  0.1654
17267TIP3    H173292   2.634   3.434   2.484  0.3161  0.3276  0.5617
17267TIP3    H273293   2.607   3.310   2.566  1.1902  0.6914  1.4112
17268TIP3   OH273294   1.718   1.775   4.833  0.1983  0.0434  0.2530
17268TIP3    H173295   1.671   1.753   4.914 -1.2646  1.2519 -0.2410
17268TIP3    H273296   1.753   1.862   4.849  0.5184 -0.0066 -0.1683
17269TIP3   OH273297   0.549   1.102   4.420 -0.1353  0.6980 -0.1528
17269TIP3    H173298   0.636   1.133   4.444 -0.5942  1.6237  0.3336
17269TIP3    H273299   0.502   1.181   4.393 -0.0830 -0.1192 -2.7088
17270TIP3   OH273300   3.878   1.527   2.278  0.1959  0.0984  0.0474
17270TIP3    H173301   3.895   1.595   2.344 -0.9509  2.5863 -2.1586
17270TIP3    H273302   3.788   1.500   2.296  1.1061 -1.9211  1.8146
17271TIP3   OH273303   3.140   1.483   4.873  0.1824  0.2331  0.3006
17271TIP3    H173304   3.163   1.529   4.792 -1.3018  1.6093  0.6415
17271TIP3    H273305   3.220   1.482   4.924  0.2267  2.5988  0.3469
17272TIP3   OH273306   0.546   0.974   5.301 -0.2932 -0.1052  0.3500
17272TIP3    H173307   0.610   0.912   5.267 -0.9487 -1.5109  1.5956
17272TIP3    H273308   0.571   0.985   5.393 -0.6523  0.8730  0.3310
17273TIP3   OH273309   7.188   4.441   4.102  0.3557  0.8235  0.4880
17273TIP3    H173310   7.213   4.349   4.100  0.5768  0.8702  1.2874
17273TIP3    H273311   7.200   4.471   4.011  0.7071  0.1866  0.3245
17274TIP3   OH273312   3.551   3.410   1.628 -0.1443  0.2752 -0.5096
17274TIP3    H173313   3.623   3.369   1.677 -0.5160 -0.1198 -0.2914
17274TIP3    H273314   3.479   3.347   1.633 -1.3332  1.7144  1.3660
17275TIP3   OH273315   4.350   7.075   2.328  0.3201 -0.6876  0.5323
17275TIP3    H173316   4.282   7.134   2.297  0.0448 -0.9932  0.5530
17275TIP3    H273317   4.415   7.074   2.258 -0.0642 -0.9922  0.1748
17276TIP3   OH273318   2.796   2.417  15.159 -0.2227  0.2178  0.3238
17276TIP3    H173319   2.875   2.406  15.108  0.7721  0.0147  1.8754
17276TIP3    H273320   2.753   2.494  15.121  0.5343  0.1315 -0.7224
17277TIP3   OH273321   3.304   6.209   3.215 -0.4205  0.4666 -0.5145
17277TIP3    H173322   3.282   6.247   3.300  0.6733 -1.0207  0.4420
17277TIP3    H273323   3.321   6.117   3.233 -0.6999  0.0185 -2.4356
17278TIP3   OH273324   5.001   0.567   5.388 -0.1099  0.0900 -0.1069
17278TIP3    H173325   5.006   0.630   5.459 -0.7044  0.2084 -0.1704
17278TIP3    H273326   5.092   0.549   5.366  0.0572  1.8524 -0.9254
17279TIP3   OH273327   4.463   5.375   5.566  0.1362  0.6737  0.6054
17279TIP3    H173328   4.503   5.445   5.618  0.6691  0.4579  0.4860
17279TIP3    H273329   4.370   5.378   5.590  0.2084  1.2227  0.8283
17280TIP3   OH273330   2.994   2.769   6.050 -0.8992 -0.8506  0.0944
17280TIP3    H173331   2.944   2.848   6.073 -1.2748 -1.2194  0.5438
17280TIP3    H273332   3.015   2.780   5.957 -1.7220 -0.6467 -0.0711
17281TIP3   OH273333   2.952   3.216   5.134 -0.4733  0.0376  0.3865
17281TIP3    H173334   2.966   3.133   5.179  0.1903  0.2839  0.6369
17281TIP3    H273335   2.887   3.196   5.066 -1.8021 -0.2203  1.7219
17282TIP3   OH273336   1.335   0.025   3.543 -0.4670  0.0219 -0.0790
17282TIP3    H173337   1.346  -0.018   3.459 -0.6039  0.5211 -0.3524
17282TIP3    H273338   1.259   0.082   3.532  1.4262  2.5557 -0.6410
17283TIP3   OH273339   0.005   0.778   4.086 -0.3614 -0.2843 -0.5839
17283TIP3    H173340   0.094   0.744   4.084 -0.9789 -1.8954 -0.6821
17283TIP3    H273341  -0.050   0.706   4.057 -1.6824  0.8015 -0.8637
17284TIP3   OH273342   4.176   3.694   4.932  0.2014  0.7143  0.3731
17284TIP3    H173343   4.153   3.608   4.896  0.7448  1.2533 -1.2764
17284TIP3    H273344   4.253   3.676   4.987  1.5304  0.4513 -1.5309
17285TIP3   OH273345   4.500   1.892   1.531  0.3546 -0.0387  0.2959
17285TIP3    H173346   4.474   1.853   1.448  1.6275  0.4717 -0.3598
17285TIP3    H273347   4.448   1.972   1.538  0.5181  0.1112 -0.1923
17286TIP3   OH273348   5.569   4.028   4.725 -0.0227 -0.0212  0.4036
17286TIP3    H173349   5.586   4.084   4.649 -0.1959  1.8390  1.7076
17286TIP3    H273350   5.620   3.949   4.708 -0.1474  0.3022 -1.6960
17287TIP3   OH273351   4.015   2.251   3.182  0.4788  0.6653 -0.6738
17287TIP3    H173352   3.960   2.322   3.214  2.5147  1.4738  1.1002
17287TIP3    H273353   3.995   2.246   3.088 -1.7695  1.6531 -0.2888
17288TIP3   OH273354   1.942   3.006   2.727  0.0591 -0.2212  0.2318
17288TIP3    H173355   1.892   2.926   2.713  2.3037 -1.6019 -0.1340
17288TIP3    H273356   1.951   3.044   2.640  0.0654 -0.2321  0.2276
17289TIP3   OH273357   0.003   1.629   4.102 -0.7013  0.8050  0.1181
17289TIP3    H173358   0.027   1.685   4.176  1.9411  0.2259 -0.2657
17289TIP3    H273359   0.017   1.685   4.025 -0.1046  0.3165 -0.1328
17290TIP3   OH273360   2.386   3.790   3.420 -0.1155  0.1399  0.0386
17290TIP3    H173361   2.396   3.877   3.458 -2.4876  0.4135  0.0618
17290TIP3    H273362   2.452   3.737   3.466  0.9918  1.7769  0.3903
17291TIP3   OH273363   3.506   7.024   5.027  0.5991 -0.3119  0.3173
17291TIP3    H173364   3.523   7.111   4.991 -2.3356  0.1240 -0.1457
17291TIP3    H273365   3.517   6.965   4.951 -1.7406  0.1735 -0.4283
17292TIP3   OH273366   3.642   1.742   4.971 -0.5775  0.4310  0.5433
17292TIP3    H173367   3.563   1.698   4.940  0.9921 -1.6314 -0.6155
17292TIP3    H273368   3.655   1.707   5.060 -1.3571  1.3414  1.0292
17293TIP3   OH273369   4.380   6.615   4.330 -0.1353 -0.5702 -0.8544
17293TIP3    H173370   4.313   6.580   4.389  1.5276  0.0059  1.4199
17293TIP3    H273371   4.340   6.693   4.292 -0.9020 -0.4228  0.2305
17294TIP3   OH273372   3.943   5.299   4.797  0.1215  0.3913  1.2586
17294TIP3    H173373   3.971   5.245   4.871  1.1887  0.5199  0.9475
17294TIP3    H273374   3.974   5.252   4.720 -2.3201 -0.5484  0.7827
17295TIP3   OH273375   6.585   5.256   4.339 -0.5857  0.1952 -0.5047
17295TIP3    H173376   6.602   5.170   4.378  1.0168  0.6253 -0.2192
17295TIP3    H273377   6.553   5.309   4.413 -0.2810  0.2221 -0.3927
17296TIP3   OH273378   3.708   1.887   3.580  0.4548  0.3710  0.6066
17296TIP3    H173379   3.723   1.921   3.492 -0.0559  1.4375  0.9244
17296TIP3    H273380   3.731   1.960   3.638 -0.4531  0.0999  1.3126
17297TIP3   OH273381   3.325   6.492   5.349 -0.1066 -0.0335  0.3725
17297TIP3    H173382   3.381   6.561   5.385 -0.2450  0.1177  0.2990
17297TIP3    H273383   3.295   6.527   5.265 -2.3521  0.9445  1.5451
17298TIP3   OH273384   5.210   2.630   5.392 -0.2058  0.1505  0.5236
17298TIP3    H173385   5.302   2.611   5.378 -0.4468  0.2372 -1.2018
17298TIP3    H273386   5.207   2.724   5.408 -0.2175  0.5356 -1.5898
17299TIP3   OH273387   5.047   1.848   3.156  0.2663  0.0682 -0.4635
17299TIP3    H173388   4.991   1.846   3.078 -1.7062  0.0697  0.9098
17299TIP3    H273389   5.130   1.884   3.125  0.2336 -1.8139 -2.9982
17300TIP3   OH273390   6.493   2.483   5.219 -0.3023  0.2662 -0.1943
17300TIP3    H173391   6.444   2.534   5.283  1.1410 -0.3970  1.4789
17300TIP3    H273392   6.519   2.404   5.266  0.7934 -0.2369 -1.6022
17301TIP3   OH273393   6.531   2.256   0.144  0.1726  0.5683 -0.3860
17301TIP3    H173394   6.569   2.201   0.075 -1.4743  1.7723 -2.2660
17301TIP3    H273395   6.594   2.249   0.216  2.5265  0.2478 -2.4130
17302TIP3   OH273396   0.342   0.865   5.162 -0.1935 -0.2982  0.4769
17302TIP3    H173397   0.413   0.916   5.202 -0.5565 -0.8604  1.8610
17302TIP3    H273398   0.267   0.925   5.160 -0.1763 -0.2714  0.6407
17303TIP3   OH273399   2.725   3.604   3.550  0.2605 -0.2136  0.5415
17303TIP3    H173400   2.705   3.516   3.582  0.8051 -1.1969 -1.7457
17303TIP3    H273401   2.816   3.599   3.521 -0.2196  0.6207 -1.1780
17304TIP3   OH273402   0.548   5.670   3.186  0.3839 -0.0137 -0.1306
17304TIP3    H173403   0.553   5.592   3.131  0.2574  0.5052 -0.8902
17304TIP3    H273404   0.550   5.743   3.124 -1.6299  0.5415  0.4132
17305TIP3   OH273405   6.438   1.763   5.192 -0.0064 -0.1182  0.4533
17305TIP3    H173406   6.358   1.712   5.183  0.6074 -0.9153 -0.5639
17305TIP3    H273407   6.445   1.780   5.286 -0.5155 -1.4236  0.7364
17306TIP3   OH273408   4.792   7.183   5.410 -0.1141  0.3854 -0.0274
17306TIP3    H173409   4.790   7.104   5.356 -0.4558 -0.2161  0.8436
17306TIP3    H273410   4.824   7.252   5.352 -0.5496 -0.2342 -1.0095
17307TIP3   OH273411   0.778   5.825   2.767 -0.3167 -0.3714 -0.1692
17307TIP3    H173412   0.781   5.908   2.720 -0.3667 -0.5043 -0.4086
17307TIP3    H273413   0.842   5.769   2.723  1.1018  0.1473  1.1701
17308TIP3   OH273414   3.926   1.546   5.757 -0.2324 -0.3589 -0.4566
17308TIP3    H173415   4.002   1.522   5.810  0.0305 -0.4219 -0.8613
17308TIP3    H273416   3.864   1.584   5.820 -0.0406 -0.7004 -0.0609
17309TIP3   OH273417   3.680   0.652   5.132 -0.0995  0.1281 -0.3222
17309TIP3    H173418   3.682   0.563   5.167  0.4128 -0.2753 -1.3463
17309TIP3    H273419   3.712   0.707   5.204  0.2966 -0.6002  0.0654
17310TIP3   OH273420   2.861   1.174   4.601  0.4707 -0.1709 -0.0370
17310TIP3    H173421   2.910   1.204   4.678 -2.4111 -1.1917  2.3205
17310TIP3    H273422   2.916   1.199   4.526  3.2631  1.0823  2.3108
17311TIP3   OH273423   4.752   1.763   2.686  0.0022 -0.3944  0.3271
17311TIP3    H173424   4.682   1.820   2.656  1.4375  1.9094  1.2501
17311TIP3    H273425   4.787   1.723   2.607  1.2271  2.6613 -0.7244
17312TIP3   OH273426   7.148   3.486   5.616  0.4856 -0.1970 -0.0623
17312TIP3    H173427   7.166   3.575   5.644  1.4380 -0.7030  0.9976
17312TIP3    H273428   7.078   3.456   5.673 -0.9877  0.4221 -1.5234
17313TIP3   OH273429   4.666   1.975   4.688  0.1162 -0.1670 -0.6988
17313TIP3    H173430   4.675   1.983   4.783  0.1432  0.6409 -0.7664
17313TIP3    H273431   4.737   2.028   4.653 -0.1448 -0.1324 -1.1734
17314TIP3   OH273432   6.572   1.636   3.833  0.3420 -0.0399 -0.3560
17314TIP3    H173433   6.635   1.707   3.849 -0.3040  0.2793  0.9251
17314TIP3    H273434   6.492   1.681   3.807  0.6030 -0.4371 -1.8564
17315TIP3   OH273435   4.900   3.778   2.594  0.0951 -0.1688  0.4289
17315TIP3    H173436   4.832   3.826   2.640  0.8097  0.0192  1.3051
17315TIP3    H273437   4.856   3.738   2.519 -0.2579  2.9734 -1.1146
17316TIP3   OH273438   6.058   0.215   4.168 -0.2546 -0.1110 -0.1490
17316TIP3    H173439   5.999   0.167   4.226  1.2905 -2.8694 -0.7746
17316TIP3    H273440   6.127   0.247   4.226 -1.0954  1.0639  0.2151
17317TIP3   OH273441   1.942   1.495   4.536  0.4566 -0.2110  0.1088
17317TIP3    H173442   1.902   1.458   4.615 -1.0295  0.1582 -0.4475
17317TIP3    H273443   1.921   1.589   4.542 -0.1158 -0.2660 -0.9732
17318TIP3   OH273444   3.979   1.335   5.075  0.0262  0.3055  0.3682
17318TIP3    H173445   3.985   1.284   5.156  3.1483 -1.3326 -0.8207
17318TIP3    H273446   3.893   1.313   5.039  1.0489 -3.7183  0.1679
17319TIP3   OH273447   3.670   7.116   6.012  0.3195 -0.8273  0.0902
17319TIP3    H173448   3.707   7.195   5.974  1.0099 -1.1479  0.0770
17319TIP3    H273449   3.575   7.128   6.006  0.4225 -0.4082 -0.7389
17320TIP3   OH273450   0.837   2.869   2.855  0.7356  0.4391 -0.5145
17320TIP3    H173451   0.912   2.869   2.914 -1.4103 -1.5348  2.3382
17320TIP3    H273452   0.802   2.781   2.860 -0.7598  0.8093 -3.2008
17321TIP3   OH273453   4.277   0.966   0.693 -0.0637 -0.4061  0.7506
17321TIP3    H173454   4.306   0.919   0.614  0.2002  1.7348 -0.4636
17321TIP3    H273455   4.182   0.957   0.693 -0.1750  0.5835 -0.4903
17322TIP3   OH273456   5.195   5.411   2.197 -0.1274  0.3893 -0.4829
17322TIP3    H173457   5.155   5.374   2.276 -0.8812  0.5734 -0.7794
17322TIP3    H273458   5.223   5.335   2.146  0.8127  0.2736  0.1816
17323TIP3   OH273459   0.019   6.400   3.568  0.1519 -0.2628 -0.0886
17323TIP3    H173460   0.110   6.427   3.554  0.4418 -0.5415  1.1727
17323TIP3    H273461  -0.009   6.366   3.483  1.2188 -0.1600 -0.4983
17324TIP3   OH273462   0.643   0.140   4.124 -0.3955  0.2968 -0.3037
17324TIP3    H173463   0.706   0.089   4.175 -0.9970  0.5083  0.6592
17324TIP3    H273464   0.654   0.108   4.034  1.4582  0.7262 -0.2417
17325TIP3   OH273465   1.879   4.105   4.022 -0.7597 -0.3298 -0.0916
17325TIP3    H173466   1.940   4.176   4.003 -0.4441  0.1998  2.6704
17325TIP3    H273467   1.925   4.026   3.992  0.6225  0.2334  0.4863
17326TIP3   OH273468   3.103   3.713   2.485 -0.5251 -0.1300  0.1365
17326TIP3    H173469   3.119   3.619   2.482  0.7961  0.1317 -2.0355
17326TIP3    H273470   3.072   3.734   2.397  0.3380  1.6521  0.2430
17327TIP3   OH273471   2.682   0.910   2.372 -0.5208  0.2076  0.5439
17327TIP3    H173472   2.649   0.886   2.458  0.1780 -1.4722  0.3705
17327TIP3    H273473   2.619   0.873   2.311 -0.1503 -0.0129  0.2948
17328TIP3   OH273474   2.335   0.235   5.130  0.1844 -0.7286 -0.1599
17328TIP3    H173475   2.290   0.304   5.179 -1.0937 -1.2769 -0.5354
17328TIP3    H273476   2.289   0.232   5.046  0.7276 -1.5217 -0.4287
17329TIP3   OH273477   4.378   2.516   2.569 -0.2294 -0.3452  0.1838
17329TIP3    H173478   4.311   2.536   2.504  0.3673  0.9606 -0.0549
17329TIP3    H273479   4.403   2.425   2.552  1.3878  0.5968 -2.7899
17330TIP3   OH273480   5.644   3.088   4.722 -0.1840  0.3621 -0.2926
17330TIP3    H173481   5.651   3.055   4.633  0.5858  0.2492 -0.1934
17330TIP3    H273482   5.734   3.101   4.750 -0.3123 -2.2590  1.4587
17331TIP3   OH273483   5.207   1.254   4.374  0.4351 -0.5289 -0.8446
17331TIP3    H173484   5.221   1.177   4.429 -1.6420 -0.3638 -0.0339
17331TIP3    H273485   5.172   1.218   4.292 -0.7735 -0.4591 -0.3752
17332TIP3   OH273486   3.263   2.963   4.387  0.7294  0.2963 -0.1922
17332TIP3    H173487   3.294   2.933   4.301 -1.2103 -1.8299 -0.2050
17332TIP3    H273488   3.168   2.951   4.384  0.5533  0.8717  2.0003
17333TIP3   OH273489   5.689   2.335   3.329  0.1907  0.3702  0.6399
17333TIP3    H173490   5.688   2.413   3.385 -0.0753  0.8647 -0.0482
17333TIP3    H273491   5.604   2.336   3.285  1.0087  0.8446 -0.9435
17334TIP3   OH273492   5.410   7.125   3.845  0.1588  0.6573 -0.4735
17334TIP3    H173493   5.324   7.132   3.888 -0.2903  0.1279 -1.2721
17334TIP3    H273494   5.453   7.208   3.865  0.0434  0.3410  1.1720
17335TIP3   OH273495   5.191   5.541   4.257  0.6023  0.2315 -0.3991
17335TIP3    H173496   5.241   5.623   4.257  0.2555  0.4681  1.7661
17335TIP3    H273497   5.100   5.567   4.270  0.1893 -0.3758 -1.8996
17336TIP3   OH273498   3.579   0.709   2.182 -0.3892 -0.1296 -0.2335
17336TIP3    H173499   3.527   0.737   2.257 -0.5893  0.3183 -0.5428
17336TIP3    H273500   3.570   0.613   2.181 -1.5259 -0.0204 -0.5280
17337TIP3   OH273501   3.428   0.181   1.744 -0.4662  0.1474 -0.0566
17337TIP3    H173502   3.442   0.100   1.695  0.3587  0.1547  0.1540
17337TIP3    H273503   3.420   0.248   1.677  1.5429  0.2923 -0.1792
17338TIP3   OH273504   5.201   4.690   1.324  0.1810  0.0822 -0.3276
17338TIP3    H173505   5.176   4.723   1.410  2.2097 -0.6468  0.5732
17338TIP3    H273506   5.154   4.608   1.314 -0.3737  0.3705 -0.1068
17339TIP3   OH273507   1.982   6.043   1.525 -0.4584  0.4839  0.5756
17339TIP3    H173508   2.032   5.977   1.573 -0.2217  0.6746  0.5893
17339TIP3    H273509   1.988   6.015   1.433 -1.0304  0.0404  0.6733
17340TIP3   OH273510   4.541   0.223   4.204 -0.0924  0.0459  0.2394
17340TIP3    H173511   4.499   0.174   4.274 -0.5462 -1.1318 -0.8318
17340TIP3    H273512   4.497   0.308   4.204  0.6814  0.4678  2.0853
17341TIP3   OH273513   4.994   3.435   3.560  0.1501  0.6767  0.3851
17341TIP3    H173514   4.990   3.516   3.610 -0.2178 -0.0753  1.5792
17341TIP3    H273515   4.925   3.380   3.596  0.0322  0.0236 -0.7841
17342TIP3   OH273516   1.960   1.670   4.215  0.1452  0.3348 -0.4371
17342TIP3    H173517   1.939   1.580   4.239  4.2320 -0.7602 -0.6504
17342TIP3    H273518   2.047   1.686   4.252 -0.9418  4.6061  0.5901
17343TIP3   OH273519   0.147   1.660   1.728 -0.1628  0.2884 -0.6559
17343TIP3    H173520   0.220   1.720   1.715 -0.4048  0.7667  0.1325
17343TIP3    H273521   0.075   1.697   1.677 -0.5957  1.2069  0.5934
17344TIP3   OH273522   4.819   6.810   2.537 -0.1781  0.0673  0.8329
17344TIP3    H173523   4.731   6.773   2.548 -0.0177 -0.1626  1.3709
17344TIP3    H273524   4.812   6.867   2.461 -0.5497 -0.6977  0.2906
17345TIP3   OH273525   3.246   5.026   2.290 -0.3733 -0.3622  0.2274
17345TIP3    H173526   3.185   5.066   2.352  0.2311  0.8725  0.0433
17345TIP3    H273527   3.323   5.083   2.293  0.7749 -1.8967  0.4677
17346TIP3   OH273528   5.340   0.776   3.365 -0.2125  0.6260  0.1267
17346TIP3    H173529   5.408   0.842   3.351  0.0693 -0.0313 -1.7769
17346TIP3    H273530   5.262   0.814   3.326 -0.0803 -0.0803 -0.8627
17347TIP3   OH273531   3.055   0.749   3.787 -0.0822 -0.7886  0.0910
17347TIP3    H173532   3.116   0.823   3.786  0.5001 -1.2563  0.2005
17347TIP3    H273533   2.978   0.781   3.741 -0.0566  0.0683  0.6219
17348TIP3   OH273534   3.278   2.535   6.081  0.0681  0.6463 -0.2536
17348TIP3    H173535   3.365   2.562   6.109 -0.2992  1.0041  0.5540
17348TIP3    H273536   3.220   2.605   6.111 -0.5073  0.3726 -0.7188
17349TIP3   OH273537   1.254   0.944   3.669 -1.0885 -0.2609  0.9033
17349TIP3    H173538   1.338   0.967   3.709 -0.5253 -0.0722 -0.3425
17349TIP3    H273539   1.251   0.996   3.588 -1.9923 -0.9407  0.4884
17350TIP3   OH273540   4.069   3.592   6.021  0.0759  0.3469  0.0901
17350TIP3    H173541   4.124   3.590   6.100 -0.9353  0.2468  0.8123
17350TIP3    H273542   4.128   3.569   5.950  0.7243 -0.8583  0.9944
17351TIP3   OH273543   6.899   5.471   2.088 -0.1885 -0.3432  0.0661
17351TIP3    H173544   6.822   5.440   2.040 -0.2691 -0.8567  0.5275
17351TIP3    H273545   6.895   5.567   2.081 -1.0958 -0.3476  0.4523
17352TIP3   OH273546   5.917   5.045   2.324  0.4528 -0.3750  0.1090
17352TIP3    H173547   5.865   5.102   2.268  0.0101 -0.4097  0.4817
17352TIP3    H273548   5.914   4.960   2.281 -0.8484 -0.6785  0.7883
17353TIP3   OH273549   3.158   2.048   0.762  0.1059 -0.8219  0.7014
17353TIP3    H173550   3.184   1.957   0.748  0.3044 -0.6900  0.1923
17353TIP3    H273551   3.066   2.051   0.735  0.4427 -0.6038 -0.4684
17354TIP3   OH273552   5.224   5.199   1.328 -0.3579  0.2158  0.0159
17354TIP3    H173553   5.131   5.217   1.342 -0.3759 -0.3951  0.6872
17354TIP3    H273554   5.269   5.273   1.369 -0.5129 -0.0453  0.6628
17355TIP3   OH273555   3.762   1.194   5.422 -0.3526  0.0997  0.2730
17355TIP3    H173556   3.812   1.152   5.493 -1.6495 -3.0070 -0.5514
17355TIP3    H273557   3.825   1.200   5.350 -0.1924 -0.7075  0.3313
17356TIP3   OH273558   3.555   6.164   1.584  0.5606  0.6497 -0.2593
17356TIP3    H173559   3.563   6.125   1.497 -1.2629  1.2199 -0.7048
17356TIP3    H273560   3.479   6.223   1.577  0.1295  0.3783  1.8133
17357TIP3   OH273561   3.866   0.344   4.212 -0.4001  0.1343 -0.4647
17357TIP3    H173562   3.908   0.302   4.287 -1.3832 -1.3431 -0.7231
17357TIP3    H273563   3.902   0.298   4.136  0.7541  1.7610 -0.9366
17358TIP3   OH273564   5.600   3.717   2.896 -0.4182  0.2076 -0.5288
17358TIP3    H173565   5.509   3.723   2.867 -0.3054  0.2611 -0.8812
17358TIP3    H273566   5.639   3.650   2.838 -0.6857 -1.1222  0.8013
17359TIP3   OH273567   3.118   0.704   2.472  0.2114  0.3766  0.2067
17359TIP3    H173568   3.040   0.650   2.458  0.6205 -1.0891  3.1170
17359TIP3    H273569   3.122   0.714   2.567  3.1716  1.0453  0.0396
17360TIP3   OH273570   4.543   3.655   0.964 -0.4020  0.7391  0.3020
17360TIP3    H173571   4.623   3.617   1.001 -0.9087 -0.5224  0.1491
17360TIP3    H273572   4.548   3.634   0.871 -1.2384  0.0045  0.4051
17361TIP3   OH273573   4.714   2.573   2.832 -0.5274 -0.4524 -0.1166
17361TIP3    H173574   4.701   2.657   2.877 -0.7452 -0.0424 -0.9400
17361TIP3    H273575   4.683   2.589   2.743  0.8495 -0.9711 -0.6952
17362TIP3   OH273576   2.628   4.802   5.474  0.2259 -0.7169 -0.3512
17362TIP3    H173577   2.622   4.893   5.504  1.0088 -1.3270  1.6884
17362TIP3    H273578   2.713   4.799   5.428 -0.7182  0.0644 -2.2348
17363TIP3   OH273579   2.121   2.056   4.457  0.6991  0.3072 -0.2873
17363TIP3    H173580   2.139   2.131   4.401  1.7342  0.9087  0.8285
17363TIP3    H273581   2.192   2.056   4.521  1.3355 -2.2705 -0.9234
17364TIP3   OH273582   3.896   6.259   2.359 -0.2156  0.0795 -0.0934
17364TIP3    H173583   3.882   6.173   2.398  1.2006  0.2604  0.8336
17364TIP3    H273584   3.894   6.243   2.264  0.0506 -0.9786  0.0732
17365TIP3   OH273585   0.158   1.718   2.013 -0.2264  0.1699  0.0114
17365TIP3    H173586   0.144   1.703   1.920  1.2029 -1.0749 -0.0105
17365TIP3    H273587   0.186   1.810   2.018 -0.3298  0.2473 -0.7684
17366TIP3   OH273588   3.795   6.706   4.652  1.0454 -0.1650 -0.1918
17366TIP3    H173589   3.865   6.757   4.609  0.8389 -0.0632 -0.4073
17366TIP3    H273590   3.725   6.769   4.665  1.4171 -0.0007  1.0389
17367TIP3   OH273591   2.512   0.077   0.418  0.1619 -0.3079 -0.6359
17367TIP3    H173592   2.450   0.011   0.450  0.1646  0.5456  1.2298
17367TIP3    H273593   2.594   0.058   0.465  0.1353  1.0467 -0.0038
17368TIP3   OH273594   0.834   2.935   3.998  0.0514  0.3821  0.1174
17368TIP3    H173595   0.798   2.850   3.975 -1.9617  0.8400  1.4389
17368TIP3    H273596   0.807   2.994   3.927 -2.3199  0.8307  1.3380
17369TIP3   OH273597   2.175   4.998   5.447  0.3000  0.1499 -0.2334
17369TIP3    H173598   2.154   4.969   5.358  0.3471  1.0017 -0.5228
17369TIP3    H273599   2.090   5.012   5.489  0.2761  1.8202 -0.8250
17370TIP3   OH273600   1.917   2.089   2.848  0.1997 -0.1874 -0.1748
17370TIP3    H173601   1.995   2.070   2.798 -0.2530 -1.8425 -0.2651
17370TIP3    H273602   1.884   2.171   2.812 -0.2631 -1.4793 -2.7635
17371TIP3   OH273603   0.635   0.016   5.158  0.2777 -0.0925 -0.0977
17371TIP3    H173604   0.642  -0.063   5.105  1.0834 -0.1135  0.0273
17371TIP3    H273605   0.604  -0.015   5.243 -0.0766 -0.1808 -0.2572
17372TIP3   OH273606   4.684   1.234  14.208 -0.1115  0.1551  0.4581
17372TIP3    H173607   4.744   1.159  14.209 -0.1488  0.1342  1.6268
17372TIP3    H273608   4.598   1.196  14.229 -0.4657  0.2474 -0.7988
17373TIP3   OH273609   3.535   1.135   3.740  0.4910 -0.3212 -0.4504
17373TIP3    H173610   3.507   1.220   3.706 -3.0084 -0.4562  1.7479
17373TIP3    H273611   3.528   1.076   3.666 -2.2750  0.3112 -0.7484
17374TIP3   OH273612   2.632   5.964   4.946  0.5599  0.2806  0.5302
17374TIP3    H173613   2.623   5.877   4.909  1.8882 -0.2001  1.2703
17374TIP3    H273614   2.573   6.019   4.896  1.4520 -0.5808 -1.4965
17375TIP3   OH273615   5.372   0.814   5.261  0.5802 -0.5048  0.6675
17375TIP3    H173616   5.315   0.808   5.184  1.2927  0.0388  0.0852
17375TIP3    H273617   5.313   0.840   5.332  0.5585  3.1549 -0.5558
17376TIP3   OH273618   5.327   3.839   3.219  0.1501  0.1183 -0.2897
17376TIP3    H173619   5.406   3.889   3.199  0.9874 -1.2772 -0.5469
17376TIP3    H273620   5.255   3.900   3.203  1.1039  0.9643 -1.4415
17377TIP3   OH273621   0.592   1.475   0.804  0.4356  0.3708 -0.1255
17377TIP3    H173622   0.513   1.512   0.764  0.2807  0.0224 -0.1423
17377TIP3    H273623   0.609   1.531   0.880 -0.1520  0.1057  0.2081
17378TIP3   OH273624   4.751   2.556   4.015  0.5262 -0.0765 -0.2717
17378TIP3    H173625   4.789   2.621   3.956 -0.6192  2.4341  1.6353
17378TIP3    H273626   4.658   2.576   4.015  0.4808 -0.1584  2.1468
17379TIP3   OH273627   3.589   2.334  13.485 -0.6208  0.7536 -0.0703
17379TIP3    H173628   3.648   2.320  13.411 -1.0624  0.3084 -0.3452
17379TIP3    H273629   3.644   2.375  13.552  1.1579 -3.5521  1.3274
17380TIP3   OH273630   2.661   1.910   4.294  0.0713  0.0743 -0.1211
17380TIP3    H173631   2.600   1.845   4.330 -0.6380  0.7448 -0.1035
17380TIP3    H273632   2.739   1.860   4.273  0.0150 -0.5626  1.1409
17381TIP3   OH273633   3.485   6.185  14.426  0.2047  0.6490  0.8913
17381TIP3    H173634   3.421   6.255  14.413  0.0663  0.7162  1.8812
17381TIP3    H273635   3.536   6.213  14.502  1.3212  0.5255  0.2031
17382TIP3   OH273636   2.848   1.887   1.060  0.4603  0.8403  0.0399
17382TIP3    H173637   2.841   1.792   1.072 -1.5017  0.9893  0.2165
17382TIP3    H273638   2.942   1.902   1.047  1.0467 -0.8959  1.8997
17383TIP3   OH273639   1.396   2.174   5.229 -0.4050  0.1947  0.5434
17383TIP3    H173640   1.445   2.200   5.151  0.5912 -1.4334  0.6211
17383TIP3    H273641   1.408   2.080   5.235 -1.0845  0.2015  2.2621
17384TIP3   OH273642   4.485   2.226   4.252  0.0328  0.3525 -0.5097
17384TIP3    H173643   4.445   2.310   4.277  0.4378 -0.0258  1.4781
17384TIP3    H273644   4.573   2.249   4.223 -0.3015  0.7583 -1.2105
17385TIP3   OH273645   2.162   4.427   4.302  1.0476  1.2635  0.0124
17385TIP3    H173646   2.252   4.399   4.289  0.7722  0.4745 -0.2111
17385TIP3    H273647   2.168   4.520   4.322  1.8434  1.4042 -0.8785
17386TIP3   OH273648   2.701   1.597   4.640  0.4871  0.3330 -0.5411
17386TIP3    H173649   2.790   1.587   4.605  0.4372  1.0633 -0.8779
17386TIP3    H273650   2.652   1.524   4.603  1.9814 -2.6040  2.9770
17387TIP3   OH273651   6.171   0.540   0.983 -0.5311  0.0012  0.0145
17387TIP3    H173652   6.142   0.471   1.041  1.4985 -1.3219 -0.4894
17387TIP3    H273653   6.156   0.506   0.895  1.2433 -0.1585 -0.2417
17388TIP3   OH273654   5.171   6.141   4.792  0.5304 -0.8434  0.2462
17388TIP3    H173655   5.204   6.220   4.835 -0.1457  0.9279 -2.3620
17388TIP3    H273656   5.094   6.117   4.843  1.7572 -0.8953  2.1403
17389TIP3   OH273657   4.619   0.761   5.061 -0.4729 -0.1048  0.8396
17389TIP3    H173658   4.571   0.743   4.980 -1.3643 -0.2066  1.3895
17389TIP3    H273659   4.708   0.728   5.044 -0.5513  0.2201 -0.2301
17390TIP3   OH273660   3.082   5.764   5.284 -0.0335 -0.2466 -0.7245
17390TIP3    H173661   2.989   5.773   5.303  0.4948  2.9867  0.5196
17390TIP3    H273662   3.114   5.700   5.347 -0.8742  0.7106  0.6774
17391TIP3   OH273663   3.064   2.700   1.192  0.3602 -0.0290 -0.1673
17391TIP3    H173664   3.032   2.613   1.217 -1.4953  0.4307 -0.8820
17391TIP3    H273665   3.125   2.683   1.120  1.0822 -0.8373  0.6183
17392TIP3   OH273666   3.022   3.787   3.108  0.5010 -0.1651 -0.7717
17392TIP3    H173667   2.996   3.869   3.066  1.1728 -0.1300 -1.1328
17392TIP3    H273668   3.102   3.808   3.156 -0.5773 -0.0695  1.0372
17393TIP3   OH273669   3.702   7.191   2.762  0.0819  0.7220 -0.6789
17393TIP3    H173670   3.757   7.194   2.841 -1.8519  1.4257  0.6875
17393TIP3    H273671   3.667   7.102   2.762 -1.2922  1.2318  0.2753
17394TIP3   OH273672   6.138   0.360   5.454  0.0089 -0.1781  0.1745
17394TIP3    H173673   6.189   0.367   5.373  0.3599 -1.5796  0.2567
17394TIP3    H273674   6.174   0.427   5.511 -1.0201  1.6209 -1.2426
17395TIP3   OH273675   5.696   3.285   1.862 -0.2814 -0.0470  0.0297
17395TIP3    H173676   5.768   3.298   1.800  0.7856 -0.1349  1.2363
17395TIP3    H273677   5.699   3.361   1.919 -0.7060 -0.3854  0.5100
17396TIP3   OH273678   4.156   6.711   3.956  0.6765  0.0598 -0.7411
17396TIP3    H173679   4.103   6.790   3.967  0.2686 -0.2916 -0.1328
17396TIP3    H273680   4.128   6.654   4.027  3.3211  0.6654  0.8517
17397TIP3   OH273681   2.496   6.036   1.125  0.0354  0.3555 -0.1966
17397TIP3    H173682   2.469   5.968   1.063  1.9178 -1.3074  0.7422
17397TIP3    H273683   2.553   6.094   1.074  1.3472 -0.8442 -0.1155
17398TIP3   OH273684   0.708   1.198   2.164 -0.6865  0.3677 -0.0122
17398TIP3    H173685   0.716   1.268   2.098  2.0346 -0.9483 -1.1528
17398TIP3    H273686   0.775   1.219   2.229 -0.5618 -0.6103  0.1795
17399TIP3   OH273687   3.182   3.423   0.258  0.4854  0.0846 -0.9605
17399TIP3    H173688   3.107   3.429   0.199  0.5598  0.2504 -1.0393
17399TIP3    H273689   3.178   3.334   0.293 -1.5242  1.0348  1.3905
17400TIP3   OH273690   3.698   1.957   4.794  0.1667  0.0776 -0.3137
17400TIP3    H173691   3.756   1.988   4.864 -1.0745  0.2188  0.6948
17400TIP3    H273692   3.650   1.885   4.834 -2.1041  1.5405 -0.2892
17401TIP3   OH273693   4.594   3.466   2.392 -0.5208  0.3450 -0.4579
17401TIP3    H173694   4.565   3.554   2.365 -1.0126  0.5497  0.7400
17401TIP3    H273695   4.513   3.416   2.402 -0.4135  0.5573  1.6278
17402TIP3   OH273696   5.753   1.185   4.540  0.1838 -0.0746 -0.0387
17402TIP3    H173697   5.835   1.176   4.589 -0.2452 -0.9351  0.5370
17402TIP3    H273698   5.739   1.098   4.502 -1.3973 -0.4426  1.3473
17403TIP3   OH273699   4.012   6.875   1.264  0.3637 -0.3669  0.1646
17403TIP3    H173700   4.023   6.782   1.241 -0.4407 -0.5050  0.3451
17403TIP3    H273701   3.922   6.895   1.241  0.2576  0.1276  1.0025
17404TIP3   OH273702   5.315   3.636   3.374 -0.3296 -0.0802  0.0359
17404TIP3    H173703   5.309   3.694   3.298 -1.4065 -0.3252 -0.0723
17404TIP3    H273704   5.283   3.689   3.448 -1.5209 -0.5875 -0.0999
17405TIP3   OH273705   3.634   6.725   5.649  0.0296 -0.4229  0.5036
17405TIP3    H173706   3.566   6.692   5.708  0.0137  0.1559  0.8003
17405TIP3    H273707   3.713   6.678   5.675 -0.0283 -0.3407  0.8216
17406TIP3   OH273708   2.122   6.611   3.249  0.4492  0.1664  0.0312
17406TIP3    H173709   2.036   6.578   3.273 -0.6194  0.8970 -2.6504
17406TIP3    H273710   2.104   6.689   3.197  2.7532  0.6662 -0.0756
17407TIP3   OH273711   1.936   0.274   2.566  0.4562 -0.0939 -0.1214
17407TIP3    H173712   2.003   0.342   2.559  1.2913 -0.8267  0.6879
17407TIP3    H273713   1.877   0.305   2.635 -0.3589  0.8158 -1.2148
17408TIP3   OH273714   7.057   7.190   5.485 -0.3700  0.3098  0.0075
17408TIP3    H173715   7.006   7.121   5.526 -2.2870  0.7139 -1.6485
17408TIP3    H273716   7.132   7.203   5.544 -0.8181 -2.0495  1.1415
17409TIP3   OH273717   4.398   0.325   4.764  0.1844  0.0935 -0.4246
17409TIP3    H173718   4.432   0.328   4.854  2.0475 -1.9471 -1.0128
17409TIP3    H273719   4.473   0.353   4.710 -0.8733  1.1570 -1.3660
17410TIP3   OH273720   3.334   0.230   5.069  0.3798  0.4206  0.0997
17410TIP3    H173721   3.422   0.240   5.103 -0.6347  1.8509  2.3899
17410TIP3    H273722   3.291   0.169   5.129  0.1167 -1.1738 -1.6510
17411TIP3   OH273723   3.864   6.495   4.810 -0.6788 -0.1284  1.0248
17411TIP3    H173724   3.947   6.505   4.857  0.0502  3.7653 -0.9793
17411TIP3    H273725   3.851   6.578   4.764 -4.3520 -1.6437 -0.8957
17412TIP3   OH273726   6.998   6.917   3.817  0.4080 -0.3292 -0.3867
17412TIP3    H173727   7.034   6.838   3.777  1.0807  0.4712 -1.3699
17412TIP3    H273728   6.984   6.892   3.909  1.0405 -1.4433 -0.5814
17413TIP3   OH273729   3.305   4.825   2.548  0.5716  0.4212 -0.4955
17413TIP3    H173730   3.212   4.835   2.530  0.1141  1.6405  2.2636
17413TIP3    H273731   3.346   4.904   2.513  0.2629  0.8375  0.0642
17414TIP3   OH273732   1.722   7.068  14.506 -0.1558  0.0851 -0.7212
17414TIP3    H173733   1.786   7.081  14.437 -0.9718  0.6635 -1.3753
17414TIP3    H273734   1.684   7.154  14.521 -2.2764 -0.6049 -1.8383
17415TIP3   OH273735   3.615   0.342   5.649 -0.0944 -0.0400 -0.5129
17415TIP3    H173736   3.557   0.414   5.627 -0.7233 -0.9951 -2.0057
17415TIP3    H273737   3.637   0.356   5.742 -2.4123  0.5010 -0.0325
17416TIP3   OH273738   2.153   0.946   4.947  0.1442  0.2983 -0.5211
17416TIP3    H173739   2.077   1.003   4.936  0.9636  1.2809 -1.1438
17416TIP3    H273740   2.138   0.902   5.030 -1.3400  0.1207 -0.8618
17417TIP3   OH273741   2.102   6.843   3.925  0.0168  0.2535  0.5808
17417TIP3    H173742   2.026   6.900   3.908  0.0420  0.7994  2.2254
17417TIP3    H273743   2.127   6.863   4.015  1.1550 -1.0682  0.5670
17418TIP3   OH273744   5.367   5.797   3.362  1.2519 -0.1903 -1.1154
17418TIP3    H173745   5.457   5.815   3.336  1.3851  0.0214 -0.5049
17418TIP3    H273746   5.342   5.872   3.416  0.8933 -0.5126 -0.8283
17419TIP3   OH273747   1.873   0.643  15.183 -0.1810 -0.3491 -0.2692
17419TIP3    H173748   1.949   0.696  15.161  0.3328 -0.7135  0.6097
17419TIP3    H273749   1.804   0.674  15.124  0.7604 -0.3080 -1.3696
17420TIP3   OH273750   0.220   3.557   5.023 -0.3412  0.3823  0.7466
17420TIP3    H173751   0.312   3.574   5.045  0.5036 -2.0526 -0.6354
17420TIP3    H273752   0.224   3.483   4.962 -3.2260  0.3647  0.5217
17421TIP3   OH273753   6.872   0.224   5.584  0.1491  0.2021 -0.1455
17421TIP3    H173754   6.896   0.196   5.673 -0.5350 -1.4320 -0.4490
17421TIP3    H273755   6.818   0.302   5.597 -1.8902 -1.3454  1.0385
17422TIP3   OH273756   2.808   1.899   5.240  0.4182  0.1117 -0.0063
17422TIP3    H173757   2.826   1.894   5.334  1.3956  1.6851 -0.0864
17422TIP3    H273758   2.893   1.890   5.199 -0.0332 -0.7480 -0.7569
17423TIP3   OH273759   6.923   0.303   0.752  0.6293  0.0970 -0.1622
17423TIP3    H173760   6.865   0.302   0.828  0.9684 -1.0559  0.0861
17423TIP3    H273761   7.003   0.345   0.782  0.8446 -0.5535  0.1892
17424TIP3   OH273762   5.186   1.661   5.154 -0.3442  0.4030  0.1217
17424TIP3    H173763   5.152   1.578   5.121 -0.3925  0.8461 -0.9324
17424TIP3    H273764   5.111   1.701   5.198  0.0515 -0.7689  1.9556
17425TIP3   OH273765   3.453   0.842   3.150 -0.3007 -0.1047 -0.6950
17425TIP3    H173766   3.376   0.885   3.187 -0.0831 -0.3910  0.1183
17425TIP3    H273767   3.418   0.782   3.085 -0.5312  2.0518 -2.6071
17426TIP3   OH273768   5.046   1.861   3.559  0.0733 -0.4870 -0.0078
17426TIP3    H173769   5.112   1.900   3.617 -0.0256 -0.9523  0.4224
17426TIP3    H273770   5.097   1.811   3.495  0.0656 -2.5233  1.5536
17427TIP3   OH273771   3.421   1.959   5.024  0.3817 -0.3761 -0.0568
17427TIP3    H173772   3.491   2.022   5.007 -1.4527  1.5782 -0.5806
17427TIP3    H273773   3.417   1.952   5.119  1.1408 -0.3334 -0.0184
17428TIP3   OH273774   1.768   0.797   1.563 -0.2029  0.0059 -0.4908
17428TIP3    H173775   1.684   0.796   1.608 -1.7429 -0.3248 -3.2800
17428TIP3    H273776   1.756   0.855   1.488  2.5903  1.3313  0.0030
17429TIP3   OH273777   6.635   6.116   2.792 -0.3787  0.0440 -0.0985
17429TIP3    H173778   6.703   6.146   2.732  0.6417 -1.6254  0.2008
17429TIP3    H273779   6.639   6.177   2.866 -0.0749  0.7052 -0.6569
17430TIP3   OH273780   2.027   0.524   3.408 -0.5061  0.0843 -0.1393
17430TIP3    H173781   2.094   0.509   3.476 -0.3180 -1.2532 -0.6048
17430TIP3    H273782   1.944   0.512   3.453 -0.3704 -2.8823 -0.5523
17431TIP3   OH273783   5.474   2.210   5.051 -0.2867  0.6875  0.2944
17431TIP3    H173784   5.451   2.245   5.138 -0.8999  0.0224  0.4079
17431TIP3    H273785   5.528   2.133   5.070 -0.1498  0.7314  0.0780
17432TIP3   OH273786   3.921   0.549   3.754  0.5025 -0.8974  0.9811
17432TIP3    H173787   3.894   0.547   3.846 -0.5876 -0.6495  0.6674
17432TIP3    H273788   3.949   0.640   3.739 -1.8346 -0.2383  0.3657
17433TIP3   OH273789   2.868   1.315   1.708 -0.3904 -0.5112 -0.2012
17433TIP3    H173790   2.788   1.368   1.710  0.8250  1.3486  0.1197
17433TIP3    H273791   2.935   1.371   1.748  1.6462 -1.0776 -2.7301
17434TIP3   OH273792   3.057   1.440   3.011  0.2304 -0.2821  0.4419
17434TIP3    H173793   3.139   1.446   3.060  1.4872  1.0837 -1.7455
17434TIP3    H273794   3.015   1.525   3.024 -0.3397 -0.5968  0.6863
17435TIP3   OH273795   2.050   3.499   0.898 -0.4981  0.4669 -0.0515
17435TIP3    H173796   2.145   3.484   0.907 -0.7158 -0.9557 -0.0145
17435TIP3    H273797   2.011   3.414   0.919 -1.8267  1.2366  0.6251
17436TIP3   OH273798   1.263   3.380   3.710  0.4816 -0.0291 -0.4581
17436TIP3    H173799   1.341   3.392   3.764  0.7983 -0.8226 -0.7366
17436TIP3    H273800   1.203   3.449   3.738  1.3498  0.6860 -0.3611
17437TIP3   OH273801   5.177   6.726   5.111  0.3530 -0.9799  0.1017
17437TIP3    H173802   5.203   6.811   5.076 -0.3163 -0.5302  0.6864
17437TIP3    H273803   5.259   6.684   5.136  0.9126 -1.6429 -2.7475
17438TIP3   OH273804   4.944   5.911   2.006 -0.0602  0.0760  0.8751
17438TIP3    H173805   4.923   5.974   2.074 -0.5396 -0.1878  0.9754
17438TIP3    H273806   4.890   5.937   1.931 -0.4871 -0.3979  1.0186
17439TIP3   OH273807   0.625   6.358   5.118 -0.3758 -0.1927  0.3967
17439TIP3    H173808   0.612   6.372   5.024 -0.7138  1.0193  0.6242
17439TIP3    H273809   0.636   6.263   5.126  1.0220 -0.1693 -1.0307
17440TIP3   OH273810   6.747   1.095   4.825  0.2587 -0.0834 -0.1742
17440TIP3    H173811   6.713   1.012   4.858  0.7971 -0.8929 -1.5988
17440TIP3    H273812   6.726   1.093   4.731 -1.2318  2.1501  0.0854
17441TIP3   OH273813   5.901   3.185   4.190 -0.3553  0.7858  0.6497
17441TIP3    H173814   5.933   3.103   4.227 -0.1086  0.8917  0.6738
17441TIP3    H273815   5.813   3.165   4.159 -1.4115  1.2307  3.2385
17442TIP3   OH273816   3.096   6.489   1.956  0.8530 -0.3679 -0.3217
17442TIP3    H173817   3.015   6.446   1.982 -1.0167  2.3090 -1.5248
17442TIP3    H273818   3.163   6.449   2.011 -1.5157 -1.4896  1.8370
17443TIP3   OH273819   3.768   2.688   1.297 -0.0008 -0.4980  0.0500
17443TIP3    H173820   3.717   2.673   1.218 -2.0881  2.4977  0.7388
17443TIP3    H273821   3.705   2.682   1.369  1.5663 -1.6804  1.3768
17444TIP3   OH273822   3.605   4.534   5.291  0.9396  0.2950 -0.1056
17444TIP3    H173823   3.590   4.502   5.379 -0.9988  1.9686  0.2141
17444TIP3    H273824   3.700   4.541   5.283  1.1862 -1.3555  1.2885
17445TIP3   OH273825   4.645   3.999   4.577  0.0179 -0.3241 -0.1809
17445TIP3    H173826   4.611   3.912   4.555  2.0651 -1.4313  0.8425
17445TIP3    H273827   4.600   4.023   4.657  0.2711 -0.9624  0.1595
17446TIP3   OH273828   7.004   3.010   2.740  0.0132  0.1800  0.0661
17446TIP3    H173829   7.056   2.970   2.810  0.9382  0.5018 -0.4221
17446TIP3    H273830   7.053   3.088   2.715 -0.8855  0.6780 -0.1771
17447TIP3   OH273831   2.623   3.176   3.224  0.1300  0.4186 -0.5723
17447TIP3    H173832   2.579   3.255   3.192  1.0067  0.4240 -1.8237
17447TIP3    H273833   2.628   3.119   3.147  2.0651  0.3259 -0.3918
17448TIP3   OH273834   2.173   2.004   5.721 -0.3230 -0.2553  0.2332
17448TIP3    H173835   2.184   2.019   5.815  0.7014 -0.5822  0.1724
17448TIP3    H273836   2.222   2.074   5.679 -0.3830 -0.3867 -0.0599
17449TIP3   OH273837   3.729   3.666   4.645 -0.2011 -0.2623 -0.2345
17449TIP3    H173838   3.799   3.603   4.656 -0.1754 -0.2589 -0.3744
17449TIP3    H273839   3.769   3.751   4.666  0.0086 -0.1809 -0.9319
17450TIP3   OH273840   3.353   0.742   4.067  0.0102  0.2319  0.4191
17450TIP3    H173841   3.276   0.799   4.057  0.4063  0.6495 -0.3104
17450TIP3    H273842   3.355   0.721   4.160  0.4985  2.3208  0.9119
17451TIP3   OH273843   6.687   2.743   5.910  0.0657  0.5870  0.4236
17451TIP3    H173844   6.726   2.817   5.863  0.3474  1.0631  1.3929
17451TIP3    H273845   6.760   2.683   5.925 -0.4551 -0.6094 -1.7045
17452TIP3   OH273846   7.031   6.191   4.557 -0.3983 -1.0389  0.3505
17452TIP3    H173847   6.972   6.262   4.531  0.1654 -0.5853  0.3130
17452TIP3    H273848   7.021   6.126   4.487  1.3820  0.3323 -1.2305
17453TIP3   OH273849   0.001   1.635   5.781 -0.4415  0.3507  0.2125
17453TIP3    H173850   0.073   1.585   5.820 -0.0389  0.2242 -0.6832
17453TIP3    H273851  -0.074   1.577   5.786  0.1318 -0.5264 -1.2434
17454TIP3   OH273852   3.371   0.503   2.735  0.3914  0.3929  0.0995
17454TIP3    H173853   3.300   0.495   2.799  1.3551  0.7285  1.2323
17454TIP3    H273854   3.337   0.460   2.657 -0.9567  0.3027  0.7107
17455TIP3   OH273855   3.992   2.001   2.475 -0.1877 -0.2140 -0.6493
17455TIP3    H173856   4.084   1.997   2.448 -0.2966 -2.2045 -0.8224
17455TIP3    H273857   3.970   1.911   2.497 -1.5271  0.5743  1.3846
17456TIP3   OH273858   5.731   4.616   2.582 -0.4345  0.1462 -0.3995
17456TIP3    H173859   5.659   4.595   2.522 -0.4502 -0.9888  0.0141
17456TIP3    H273860   5.780   4.685   2.536 -1.6893  0.8310 -0.7521
17457TIP3   OH273861   5.900   4.107   4.251  0.4689 -0.0018 -0.2203
17457TIP3    H173862   5.944   4.093   4.335  1.7500  2.5657 -0.3949
17457TIP3    H273863   5.971   4.115   4.188 -0.4483 -0.7301 -1.3646
17458TIP3   OH273864   1.775   3.453   3.619 -0.2409 -0.1931 -0.6997
17458TIP3    H173865   1.766   3.483   3.710 -0.0998  2.1357 -1.4265
17458TIP3    H273866   1.731   3.368   3.618 -0.8512  0.0585  1.3974
17459TIP3   OH273867   0.254   0.582   0.307 -0.1556 -0.5045 -0.3394
17459TIP3    H173868   0.201   0.587   0.387  0.0437 -1.0563 -0.1674
17459TIP3    H273869   0.320   0.515   0.327  1.1781  0.8224 -0.2107
17460TIP3   OH273870   4.837   2.275   4.776 -0.5969  0.8305  0.0549
17460TIP3    H173871   4.912   2.248   4.723 -1.1441  0.1350 -0.3612
17460TIP3    H273872   4.857   2.366   4.800 -0.3035  1.1277 -1.2639
17461TIP3   OH273873   6.140   2.743   5.266 -0.0028  0.3407  0.3829
17461TIP3    H173874   6.095   2.798   5.331  1.1230  0.5706  0.9922
17461TIP3    H273875   6.184   2.805   5.208 -0.5859  0.1229 -0.3027
17462TIP3   OH273876   1.464   2.952   3.358 -0.1713  0.0404 -0.4346
17462TIP3    H173877   1.437   3.041   3.335  0.1721  0.1377 -0.4713
17462TIP3    H273878   1.464   2.905   3.274 -0.8098 -0.1167 -0.3444
17463TIP3   OH273879   6.635   6.767   3.746 -0.5170 -0.6589  0.5069
17463TIP3    H173880   6.565   6.766   3.811  0.6052  1.8848  1.7891
17463TIP3    H273881   6.694   6.697   3.773 -1.8623 -1.9682  0.1429
17464TIP3   OH273882   0.957   6.994   0.344  0.0295 -0.6078  0.9397
17464TIP3    H173883   0.908   7.075   0.359  0.2841 -0.3507  0.3848
17464TIP3    H273884   1.039   7.007   0.391  0.8392  0.2110 -0.6645
17465TIP3   OH273885   6.521   0.655   3.290  0.2713 -0.2420  0.1387
17465TIP3    H173886   6.591   0.677   3.228 -0.4119  2.4607  0.2312
17465TIP3    H273887   6.442   0.648   3.236 -0.1528  1.1589  0.5496
17466TIP3   OH273888   6.039   6.436   2.950 -0.1329 -0.0498 -0.2332
17466TIP3    H173889   5.949   6.409   2.934 -0.7019  0.6874  1.6214
17466TIP3    H273890   6.081   6.357   2.985 -0.1721 -0.2565 -0.6450
17467TIP3   OH273891   6.311   0.093   4.302  0.2147 -0.0619  0.2087
17467TIP3    H173892   6.366   0.080   4.379 -0.6004  1.0660  0.9996
17467TIP3    H273893   6.274   0.007   4.283  1.5940 -0.6480  0.1686
17468TIP3   OH273894   2.156   0.917   0.666 -0.0260 -0.2177  0.2889
17468TIP3    H173895   2.148   0.978   0.593  0.0489  2.0379  2.0951
17468TIP3    H273896   2.249   0.919   0.690  0.3969 -2.6685 -0.9191
17469TIP3   OH273897   6.840   2.224   5.527  0.4688 -0.4460  0.1154
17469TIP3    H173898   6.763   2.273   5.498  0.3342 -1.1652 -0.7457
17469TIP3    H273899   6.806   2.164   5.594  0.2120 -1.0298 -0.5378
17470TIP3   OH273900   4.959   0.609   2.166  0.1610 -0.2188  0.0483
17470TIP3    H173901   4.943   0.702   2.185 -0.1049  0.0525 -1.4383
17470TIP3    H273902   4.993   0.573   2.248  0.6828  1.2923  0.5062
17471TIP3   OH273903   5.595   2.621   4.712  0.7236 -0.6589  0.4870
17471TIP3    H173904   5.623   2.534   4.742 -1.2216 -1.1499  0.9622
17471TIP3    H273905   5.669   2.678   4.734  2.7254 -2.4333 -1.2977
17472TIP3   OH273906   2.714   2.201   4.853  0.0100 -0.3634  0.2138
17472TIP3    H173907   2.634   2.240   4.888 -0.0017 -0.9467  0.8558
17472TIP3    H273908   2.749   2.150   4.926  1.4358  0.5925  0.2022
17473TIP3   OH273909   2.458   4.353   5.261 -0.1737 -0.3015  0.0624
17473TIP3    H173910   2.428   4.439   5.289  0.9821  0.4125 -0.8978
17473TIP3    H273911   2.526   4.329   5.324  0.9012  0.3585 -0.8420
17474TIP3   OH273912   5.553   0.379   2.969 -0.0738  0.3450 -0.3379
17474TIP3    H173913   5.466   0.387   3.009  0.8885 -1.2535  2.1737
17474TIP3    H273914   5.567   0.285   2.958  2.4848  0.3882  1.9905
17475TIP3   OH273915   5.167   2.894   5.462 -0.3056  0.3279 -0.5271
17475TIP3    H173916   5.085   2.893   5.511 -0.2655  1.8160 -0.3846
17475TIP3    H273917   5.227   2.942   5.519 -0.2198  1.9771 -1.9788
17476TIP3   OH273918   5.456   6.701   0.853  0.0639  0.6560  0.4114
17476TIP3    H173919   5.385   6.731   0.910  0.7188  1.1317  0.9999
17476TIP3    H273920   5.485   6.619   0.892  0.1322  0.6947  0.4425
17477TIP3   OH273921   6.786   1.309   3.710  0.1375 -0.1219 -0.4014
17477TIP3    H173922   6.772   1.231   3.656  0.5253  1.9078 -3.5497
17477TIP3    H273923   6.699   1.346   3.722  0.1154 -0.2751 -0.0856
17478TIP3   OH273924   5.833   4.283   0.869 -0.0974  0.0826 -0.4618
17478TIP3    H173925   5.857   4.221   0.937  0.0493  1.1484  0.4714
17478TIP3    H273926   5.740   4.269   0.854 -0.1281 -0.1463 -0.0488
17479TIP3   OH273927   0.808   1.629   4.254 -0.4129  0.2270  0.1972
17479TIP3    H173928   0.724   1.672   4.268 -1.5335 -1.7824 -0.2443
17479TIP3    H273929   0.832   1.594   4.340 -0.5338 -0.1125  0.0916
17480TIP3   OH273930   4.216   4.523   2.540 -0.1743 -0.0761  0.2655
17480TIP3    H173931   4.291   4.550   2.593 -0.0137 -2.1087  1.1314
17480TIP3    H273932   4.229   4.568   2.456  2.0020 -0.3486  0.4167
17481TIP3   OH273933   5.889   0.041   4.375 -0.4515  0.8344  0.7994
17481TIP3    H173934   5.840   0.108   4.423  1.2099  4.0161 -1.8062
17481TIP3    H273935   5.974   0.036   4.419 -0.7313  0.0429  1.2725
17482TIP3   OH273936   2.400   1.175   4.750 -0.3918 -0.0462 -0.1340
17482TIP3    H173937   2.329   1.235   4.768  0.2015  0.4093  0.7282
17482TIP3    H273938   2.480   1.226   4.765  0.1202 -1.0778  0.7823
17483TIP3   OH273939   4.521   1.526   4.561 -0.5443 -0.9549  0.0833
17483TIP3    H173940   4.572   1.590   4.510  0.4091 -0.3402  1.7701
17483TIP3    H273941   4.585   1.460   4.588 -0.5401  0.0104  2.5208
17484TIP3   OH273942   0.334   6.904   5.405  0.6460  0.2803 -0.4169
17484TIP3    H173943   0.264   6.952   5.448  0.1847  0.0392 -0.8959
17484TIP3    H273944   0.292   6.824   5.372  0.9364  0.5971 -1.5613
17485TIP3   OH273945   3.698   1.970   4.493  0.3873  0.3533  0.7885
17485TIP3    H173946   3.615   2.016   4.503 -0.1830 -0.5922  0.4200
17485TIP3    H273947   3.728   1.954   4.583  0.5847  1.4224  0.9191
17486TIP3   OH273948   6.523   0.875   4.911  0.4478 -0.4002 -0.3900
17486TIP3    H173949   6.444   0.930   4.918  0.7977 -0.0496  0.9248
17486TIP3    H273950   6.535   0.863   4.817 -1.1414 -0.3988 -0.6193
17487TIP3   OH273951   6.210   6.528   3.825  0.1834 -0.1016  0.1329
17487TIP3    H173952   6.124   6.524   3.868  0.3016  0.1951  0.3980
17487TIP3    H273953   6.192   6.572   3.742  0.2549  0.8959  0.6374
17488TIP3   OH273954   3.997   0.666   2.732 -0.7992  0.2569 -0.4265
17488TIP3    H173955   4.057   0.603   2.692  1.4482  1.8325  0.3511
17488TIP3    H273956   3.912   0.647   2.693  0.2664 -1.8005 -1.8270
17489TIP3   OH273957   5.573   1.272   4.204  0.5784  0.0252 -0.0954
17489TIP3    H173958   5.596   1.179   4.202 -0.6652 -0.3021  0.2786
17489TIP3    H273959   5.545   1.291   4.114 -1.7183 -0.6491  0.4427
17490TIP3   OH273960   0.200   4.829   2.253 -0.6543  0.1924 -0.2542
17490TIP3    H173961   0.144   4.762   2.214 -2.6210  2.5862 -1.7067
17490TIP3    H273962   0.190   4.905   2.196  3.4007  1.0286 -0.0111
17491TIP3   OH273963   3.761   3.011   5.067  0.2641  0.3784 -0.4809
17491TIP3    H173964   3.689   3.073   5.078 -0.5200 -0.2153 -2.0263
17491TIP3    H273965   3.834   3.063   5.035 -0.1069  0.6818 -0.8459
17492TIP3   OH273966   5.749   1.493   3.587  0.0933 -0.2943  0.2701
17492TIP3    H173967   5.663   1.510   3.548  0.7629 -3.2789 -2.7043
17492TIP3    H273968   5.811   1.532   3.526  0.9533  2.4270  2.7289
17493TIP3   OH273969   5.351   3.605   4.101 -0.2746 -0.0085  0.1831
17493TIP3    H173970   5.345   3.654   4.019  2.3396  1.2666  0.6904
17493TIP3    H273971   5.432   3.555   4.093 -0.7671 -1.0119  1.3751
17494TIP3   OH273972   2.466   0.588   2.499 -0.2401 -0.0979 -0.9668
17494TIP3    H173973   2.431   0.675   2.519  0.4131 -0.0271 -0.1131
17494TIP3    H273974   2.400   0.527   2.533  0.1496  0.0445  0.0622
17495TIP3   OH273975   0.439   6.699   5.988 -0.4074  0.4648 -0.4567
17495TIP3    H173976   0.360   6.731   6.033  0.2441 -0.0685  1.1271
17495TIP3    H273977   0.504   6.767   6.006  0.6447 -1.0825  1.8801
17496TIP3   OH273978   6.996   4.570   4.986  0.3358 -0.1008  0.1443
17496TIP3    H173979   7.084   4.608   4.976  0.4533 -0.5642 -0.5926
17496TIP3    H273980   6.966   4.602   5.071  1.0252  0.4556  0.1855
17497TIP3   OH273981   6.512   3.253   0.075  0.4409  0.5907 -0.6749
17497TIP3    H173982   6.505   3.167   0.115 -0.1886  1.6423  1.5809
17497TIP3    H273983   6.472   3.313   0.139 -1.1242  2.2834 -3.1265
17498TIP3   OH273984   2.403   1.842   5.663  0.0646  0.4965  0.3058
17498TIP3    H173985   2.339   1.891   5.715 -0.1941 -0.9025  1.3317
17498TIP3    H273986   2.463   1.805   5.727  0.2834 -0.4966 -0.4621
17499TIP3   OH273987   0.497   4.231   1.012  0.5241 -0.1745 -0.2072
17499TIP3    H173988   0.531   4.177   0.941 -0.4559 -1.7288  0.4739
17499TIP3    H273989   0.423   4.278   0.974 -0.2983 -1.3682 -0.1065
17500TIP3   OH273990   6.800   2.723   5.122 -0.0997 -0.3501  0.3579
17500TIP3    H173991   6.748   2.664   5.067 -1.9050  0.8210  0.7577
17500TIP3    H273992   6.878   2.741   5.071 -0.9870 -0.6171 -1.1169
17501TIP3   OH273993   1.113   2.235   3.703 -0.7275 -0.0092  0.3304
17501TIP3    H173994   1.055   2.259   3.631 -1.9523 -0.3263  1.2100
17501TIP3    H273995   1.157   2.317   3.725  0.2182 -0.0605 -1.2589
17502TIP3   OH273996   0.407   5.064   4.148 -0.1141 -0.0313 -0.4082
17502TIP3    H173997   0.361   5.047   4.067 -1.0330 -1.0800  0.3233
17502TIP3    H273998   0.490   5.103   4.121 -0.8309  0.5572 -1.7903
17503TIP3   OH273999   4.452   6.449   4.106  0.3399  0.2185  0.0257
17503TIP3    H174000   4.430   6.511   4.175  0.9859 -1.0080  1.3527
17503TIP3    H274001   4.531   6.485   4.065  0.1798  0.7500  0.1910
17504TIP3   OH274002   2.690   2.332   3.185 -0.1472  0.1197 -0.3567
17504TIP3    H174003   2.748   2.329   3.261 -0.0014  2.4686 -0.3580
17504TIP3    H274004   2.650   2.245   3.182  1.6534 -0.7785  0.9763
17505TIP3   OH274005   6.352   3.949  15.271  0.0877 -0.0631  0.1021
17505TIP3    H174006   6.294   3.886  15.313  0.9767 -1.7133 -1.1218
17505TIP3    H274007   6.302   3.982  15.196 -0.0290  0.0459  0.2252
17506TIP3   OH274008   4.324   0.604   1.820 -0.0182  0.6243 -0.0865
17506TIP3    H174009   4.359   0.516   1.801 -0.0954  0.9491 -1.8475
17506TIP3    H274010   4.387   0.664   1.782 -1.4009  1.2656 -1.4473
17507TIP3   OH274011   0.156   3.544   1.675 -0.1746 -0.2613 -0.4354
17507TIP3    H174012   0.131   3.469   1.729 -2.1203 -0.5340 -1.6933
17507TIP3    H274013   0.230   3.584   1.722 -0.7443 -1.4791  1.5276
17508TIP3   OH274014   5.483   0.407   4.505  0.1770  0.0408  0.0633
17508TIP3    H174015   5.484   0.374   4.415  0.0158 -0.6354  0.3034
17508TIP3    H274016   5.398   0.450   4.515 -0.9191 -2.1781  0.6916
17509TIP3   OH274017   2.245   2.636   6.063  0.2149 -0.0380  0.6665
17509TIP3    H174018   2.333   2.674   6.061  0.5819 -0.7904  1.8571
17509TIP3    H274019   2.230   2.616   6.155 -1.3146  0.3181  0.5039
17510TIP3   OH274020   2.444   2.656   3.709  0.1974  0.0463  0.1923
17510TIP3    H174021   2.496   2.706   3.772  1.1667 -1.0041  0.2480
17510TIP3    H274022   2.353   2.672   3.734  0.5468  0.5966  1.1137
17511TIP3   OH274023   1.905   6.146   0.444  0.2718  0.6719  0.1571
17511TIP3    H174024   1.926   6.072   0.387  0.5832  0.2965  0.7635
17511TIP3    H274025   1.857   6.207   0.387  0.0565  0.0302 -0.3527
17512TIP3   OH274026   4.587   1.862   5.539  0.5199 -0.0261  0.1061
17512TIP3    H174027   4.547   1.784   5.499 -0.9212  0.6314  0.2451
17512TIP3    H274028   4.680   1.853   5.520  0.1777 -1.0112 -1.2232
17513TIP3   OH274029   4.928   5.389   2.976  0.2876  0.2755  0.3176
17513TIP3    H174030   4.925   5.463   3.036 -0.4601  1.2918 -0.9426
17513TIP3    H274031   5.008   5.403   2.925 -1.5057  2.0043 -2.1143
17514TIP3   OH274032   3.459   3.635   4.714 -0.0102 -0.0251  0.4185
17514TIP3    H174033   3.454   3.543   4.737 -1.1952 -0.5266 -1.7929
17514TIP3    H274034   3.547   3.647   4.677 -0.4665 -0.6332 -0.8607
17515TIP3   OH274035   6.959   0.412   2.684 -0.2424  0.0861 -0.4154
17515TIP3    H174036   6.871   0.447   2.699 -0.0407  0.1686  0.6263
17515TIP3    H274037   6.978   0.361   2.763  0.1193 -1.0383 -1.2157
17516TIP3   OH274038   2.317   3.185   0.778 -0.2170 -0.1485  0.4098
17516TIP3    H174039   2.318   3.266   0.829  0.0181  0.7602 -1.0167
17516TIP3    H274040   2.409   3.162   0.768 -0.2205  0.2380 -0.4940
17517TIP3   OH274041   5.018   1.971   1.638 -0.2498  0.4244 -0.1109
17517TIP3    H174042   4.937   2.006   1.673  0.1947 -0.7153  2.1486
17517TIP3    H274043   5.086   2.000   1.699  0.5861 -1.3864 -0.1343
17518TIP3   OH274044   5.098   6.197   4.509 -0.2623  0.4239  0.3950
17518TIP3    H174045   5.169   6.148   4.551 -1.5960 -1.4669  0.4547
17518TIP3    H274046   5.086   6.273   4.566 -0.4459 -0.8972  2.1436
17519TIP3   OH274047   6.086   0.860   4.806 -0.1525  0.0284  0.6138
17519TIP3    H174048   6.048   0.831   4.723  1.3124  0.3669 -0.2084
17519TIP3    H274049   6.043   0.806   4.873 -1.4078 -0.1941 -0.3547
17520TIP3   OH274050   1.186   1.565   4.616 -0.1405 -0.3126 -0.3126
17520TIP3    H174051   1.223   1.640   4.663  1.7658 -0.5765 -1.3452
17520TIP3    H274052   1.203   1.490   4.674  1.2450 -0.4777 -0.9151
17521TIP3   OH274053   0.372   4.098   1.219 -0.0773 -0.5347 -0.5700
17521TIP3    H174054   0.418   4.020   1.191  2.4790  1.5083 -2.3054
17521TIP3    H274055   0.430   4.171   1.194 -2.6293  1.9409  0.4129
17522TIP3   OH274056   5.030   6.906   3.283 -0.0579 -0.4926 -0.6206
17522TIP3    H174057   4.970   6.845   3.239 -1.8088 -0.2780  1.3972
17522TIP3    H274058   5.064   6.857   3.357  0.1971  0.2734 -0.2256
17523TIP3   OH274059   5.231   1.664   5.505  0.1029 -0.6097  0.0872
17523TIP3    H174060   5.282   1.734   5.464 -1.0708  0.7399  0.9295
17523TIP3    H274061   5.211   1.696   5.592  0.0404 -2.2473  0.6970
17524TIP3   OH274062   0.640   5.768   2.035  0.3273 -0.4821 -0.5280
17524TIP3    H174063   0.659   5.678   2.061 -2.1547 -1.3188 -1.4961
17524TIP3    H274064   0.654   5.768   1.940 -0.2122  0.0260 -0.6053
17525TIP3   OH274065   4.245   3.070   5.678 -0.1625 -0.2933 -0.2913
17525TIP3    H174066   4.339   3.091   5.682 -0.0770 -0.7204  0.0198
17525TIP3    H274067   4.216   3.076   5.769 -0.7370  1.1702 -0.5665
17526TIP3   OH274068   6.946   6.576   4.358  0.1905 -0.2632 -0.3645
17526TIP3    H174069   6.997   6.643   4.312 -0.5427  1.3736  1.1716
17526TIP3    H274070   6.885   6.625   4.413 -1.1416 -2.1966 -0.0556
17527TIP3   OH274071   6.530   0.341   5.224 -0.5756 -0.2834  0.0271
17527TIP3    H174072   6.580   0.422   5.221 -1.2907  0.1076 -3.0383
17527TIP3    H274073   6.439   0.369   5.239 -0.6180 -0.6504  0.4967
17528TIP3   OH274074   3.998   4.342   3.533  0.7344 -0.0289 -0.0689
17528TIP3    H174075   4.063   4.412   3.525 -0.5872  1.0492 -1.4724
17528TIP3    H274076   3.980   4.315   3.443 -2.2832  1.0907  0.1617
17529TIP3   OH274077   0.384   5.177   5.745 -0.1317  0.7260 -0.1305
17529TIP3    H174078   0.378   5.272   5.757  1.1479  0.8160 -0.1707
17529TIP3    H274079   0.454   5.150   5.804 -0.5075 -0.2057 -0.1018
17530TIP3   OH274080   0.598   6.088   3.817 -0.1037 -0.6516 -0.1659
17530TIP3    H174081   0.622   6.006   3.775 -0.3315 -1.1397  0.6623
17530TIP3    H274082   0.514   6.071   3.860  0.1437 -0.1702  0.5267
17531TIP3   OH274083   6.780   0.031   3.694 -0.6891  0.7013 -0.3004
17531TIP3    H174084   6.736  -0.051   3.671  1.4354 -0.5943  0.1754
17531TIP3    H274085   6.766   0.087   3.617 -1.4325 -0.3832 -0.9835
17532TIP3   OH274086   2.138   4.783   6.076 -0.4328  0.4102  0.5582
17532TIP3    H174087   2.153   4.701   6.123  1.4629  0.5145  0.1826
17532TIP3    H274088   2.067   4.763   6.015  0.2168 -1.0488  0.2560
17533TIP3   OH274089   1.181   5.719   2.468  0.5160 -0.0199  0.2929
17533TIP3    H174090   1.264   5.760   2.494  0.5400  1.0185 -1.2984
17533TIP3    H274091   1.208   5.647   2.411  0.3308  1.3841 -1.6588
17534TIP3   OH274092   1.291   1.918   4.094  0.1367 -0.4382  0.0939
17534TIP3    H174093   1.255   1.937   4.007 -0.0263 -0.2740  0.1977
17534TIP3    H274094   1.214   1.905   4.149  0.2404 -0.4447  0.2367
17535TIP3   OH274095   5.890   5.728   3.988  0.3695  0.0888 -0.0895
17535TIP3    H174096   5.840   5.680   3.921 -1.1073  2.1156 -0.5017
17535TIP3    H274097   5.972   5.751   3.944 -0.6250  1.4856 -1.2828
17536TIP3   OH274098   4.896   1.039   3.457  0.0219  0.0203 -0.0020
17536TIP3    H174099   4.820   1.010   3.406  1.3393 -1.4061 -1.2119
17536TIP3    H274100   4.891   0.990   3.538 -1.6586  1.7262  0.9743
17537TIP3   OH274101   2.497   0.553   4.383 -0.9979 -0.0987  0.7249
17537TIP3    H174102   2.556   0.526   4.454  1.0432  0.0756 -0.8451
17537TIP3    H274103   2.493   0.648   4.391  0.7221  0.1097 -0.4578
17538TIP3   OH274104   0.093   2.364   5.025 -0.1958  0.2516 -0.7459
17538TIP3    H174105   0.103   2.368   5.120  2.4720  0.5676 -0.9973
17538TIP3    H274106   0.094   2.456   4.996 -1.9919  0.2045 -1.0126
17539TIP3   OH274107   5.251   0.710   0.314  0.3053 -0.2302 -0.0167
17539TIP3    H174108   5.167   0.728   0.357  0.0462  1.0151 -1.0321
17539TIP3    H274109   5.282   0.630   0.357 -0.5153  0.3118  1.6561
17540TIP3   OH274110   5.488   3.008   5.335  0.0536  0.0215  0.1802
17540TIP3    H174111   5.541   2.961   5.271 -1.6665 -0.9870 -0.5344
17540TIP3    H274112   5.419   2.947   5.359 -0.5794  1.1745  1.3780
17541TIP3   OH274113   6.863   1.417   1.481  0.3859  0.1140  0.6156
17541TIP3    H174114   6.793   1.406   1.546  0.7068 -1.4386  0.7118
17541TIP3    H274115   6.823   1.469   1.411 -0.3063  0.8162  1.5198
17542TIP3   OH274116   7.117   2.408   5.753  0.5676  0.0060 -0.7547
17542TIP3    H174117   7.079   2.490   5.785  0.4158 -0.2466 -0.2829
17542TIP3    H274118   7.044   2.346   5.754  1.3877 -0.9562  1.8357
17543TIP3   OH274119   6.910   3.547   4.009 -0.7865 -0.0030  0.5395
17543TIP3    H174120   6.980   3.483   3.996 -2.3422 -1.5127 -0.8404
17543TIP3    H274121   6.869   3.521   4.092 -0.2198  0.3758  0.9362
17544TIP3   OH274122   1.639   3.024   5.267 -0.5051 -0.1396  0.1055
17544TIP3    H174123   1.631   2.928   5.263 -0.4773 -0.0768 -1.7855
17544TIP3    H274124   1.556   3.053   5.305 -0.1172 -0.9707  1.6211
17545TIP3   OH274125   2.790   1.514   2.647  0.3573 -0.1867 -0.4278
17545TIP3    H174126   2.696   1.505   2.635  0.3419 -0.1851 -0.3130
17545TIP3    H274127   2.809   1.603   2.618  0.1548  0.1815  0.5458
17546TIP3   OH274128   0.622   2.248   3.832  0.0039 -0.0606 -0.1348
17546TIP3    H174129   0.697   2.205   3.793 -0.6726 -0.4902 -0.9816
17546TIP3    H274130   0.578   2.180   3.883  0.4737  0.3173  0.7935
17547TIP3   OH274131   3.908   2.933   4.019 -0.0134 -0.0556  0.1345
17547TIP3    H174132   3.938   3.016   3.982 -0.4573  0.5838  1.2041
17547TIP3    H274133   3.813   2.940   4.020 -0.0092 -0.1487  1.2351
17548TIP3   OH274134   0.667   1.870   5.472  0.2646 -0.3455  0.3202
17548TIP3    H174135   0.627   1.957   5.475  1.6398  0.3843 -1.3902
17548TIP3    H274136   0.760   1.886   5.489  0.5914 -1.4003 -0.4239
17549TIP3   OH274137   3.755   2.134   2.426  0.0223 -0.3757 -0.3009
17549TIP3    H174138   3.704   2.072   2.373  0.4254  0.7721 -2.1015
17549TIP3    H274139   3.836   2.087   2.446 -0.8292 -1.4272  0.7353
17550TIP3   OH274140   6.189   4.525   4.269  0.6628 -0.2942  0.1381
17550TIP3    H174141   6.269   4.568   4.239  1.7200 -2.2493  0.0656
17550TIP3    H274142   6.212   4.432   4.272 -2.0115 -1.0172 -1.1450
17551TIP3   OH274143   4.410   1.840   2.993  0.2531  0.0773  0.0373
17551TIP3    H174144   4.345   1.908   2.973 -0.7914 -1.0414 -0.4432
17551TIP3    H274145   4.410   1.784   2.915 -0.4949 -1.7234  1.3168
17552TIP3   OH274146   0.949   0.090   2.180 -0.3015  0.4629  0.1646
17552TIP3    H174147   1.024   0.088   2.239  0.2551  1.2073 -0.5044
17552TIP3    H274148   0.901   0.010   2.199 -0.1255  0.6906  1.6262
17553TIP3   OH274149   4.892   1.488   3.619  0.2170 -1.1537  0.1806
17553TIP3    H174150   4.940   1.510   3.699  0.5342 -2.5210  0.3721
17553TIP3    H274151   4.859   1.572   3.588 -0.0213 -0.6302  1.8086
17554TIP3   OH274152   0.158   5.155   5.936 -0.4261 -0.2220 -0.1021
17554TIP3    H174153   0.179   5.243   5.969 -1.2398 -0.0577 -0.0157
17554TIP3    H274154   0.237   5.128   5.889  0.3717 -0.0261  1.0759
17555TIP3   OH274155   4.787   2.968   1.148  0.5038 -0.4962  0.1559
17555TIP3    H174156   4.833   3.042   1.110  0.4264 -0.9901 -0.8989
17555TIP3    H274157   4.703   2.965   1.104 -0.6156  0.4553  2.1466
17556TIP3   OH274158   5.811   0.214   4.774 -0.3299 -0.1283  0.1725
17556TIP3    H174159   5.780   0.129   4.741 -0.7129  0.0888 -0.0213
17556TIP3    H274160   5.744   0.277   4.746  0.8190  0.5154 -1.2155
17557TIP3   OH274161   6.788   2.612   2.903 -0.1941 -0.5632  0.7564
17557TIP3    H174162   6.727   2.661   2.958 -0.8045 -0.4081 -0.0623
17557TIP3    H274163   6.750   2.615   2.816  0.7136 -0.9251  0.3444
17558TIP3   OH274164   0.077   4.448   1.304 -0.7010 -0.3899  0.0164
17558TIP3    H174165   0.084   4.436   1.209  1.3719 -0.3977  0.1646
17558TIP3    H274166   0.145   4.392   1.341  1.0807  2.5039  1.2942
17559TIP3   OH274167   6.674   2.801   0.048  0.0954 -0.6862  0.6302
17559TIP3    H174168   6.622   2.722   0.037  2.5207 -2.1715 -0.4035
17559TIP3    H274169   6.751   2.774   0.097  0.6294  1.1805  0.8764
17560TIP3   OH274170   6.060   5.423   5.287  0.0300  0.8710  0.2420
17560TIP3    H174171   6.141   5.460   5.251  0.6470  0.7459  1.4757
17560TIP3    H274172   6.065   5.441   5.381 -1.4701  1.0211  0.3031
17561TIP3   OH274173   3.342   1.251   5.149  0.2173  0.0615 -0.1175
17561TIP3    H174174   3.288   1.234   5.225  1.6661 -0.7885  0.7541
17561TIP3    H274175   3.316   1.338   5.120  1.1407  1.3348  2.6666
17562TIP3   OH274176   2.663   2.599   3.320  0.2098  0.3962 -0.3807
17562TIP3    H174177   2.686   2.678   3.272 -0.6134  1.2681  0.6240
17562TIP3    H274178   2.735   2.587   3.383 -0.1158  0.8785  0.0900
17563TIP3   OH274179   7.126   2.825   3.979  0.4522 -0.7432  0.6232
17563TIP3    H174180   7.137   2.915   4.009 -2.0704 -0.0167 -0.4857
17563TIP3    H274181   7.039   2.800   4.010  1.1189 -2.7943  0.8792
17564TIP3   OH274182   5.662   3.124   4.035  0.0064  0.5557  0.4252
17564TIP3    H174183   5.736   3.129   3.974  1.0411  0.8061  1.6819
17564TIP3    H274184   5.588   3.160   3.986  0.2088 -1.6358 -1.5861
17565TIP3   OH274185   6.058   3.428   3.482 -0.2208  0.2427  0.1165
17565TIP3    H174186   6.152   3.441   3.499 -0.2229  0.6292 -0.1351
17565TIP3    H274187   6.032   3.509   3.437 -0.6802  0.1454  0.2117
17566TIP3   OH274188   6.240   2.128   1.761  0.2737 -0.0539 -0.1612
17566TIP3    H174189   6.289   2.154   1.840  0.4018 -0.4596 -0.1020
17566TIP3    H274190   6.259   2.034   1.752 -1.9368 -0.6498  0.9005
17567TIP3   OH274191   4.776   0.620   5.633 -0.3369 -0.8557  0.3252
17567TIP3    H174192   4.779   0.684   5.703 -0.2618 -0.9078  0.3702
17567TIP3    H274193   4.866   0.589   5.625 -0.3585 -0.9011  0.2533
17568TIP3   OH274194   5.796   0.003   1.714  0.6550 -0.2957  0.0007
17568TIP3    H174195   5.793  -0.091   1.734 -1.3609 -0.9474 -2.9575
17568TIP3    H274196   5.759   0.045   1.792 -0.4043 -2.1307  0.5253
17569TIP3   OH274197   0.145   2.306   1.763 -0.1236  0.3597  0.1668
17569TIP3    H174198   0.163   2.306   1.856 -0.3396 -0.2714  0.2071
17569TIP3    H274199   0.231   2.298   1.721  0.0509  1.4549  0.2907
17570TIP3   OH274200   0.131   5.283   3.889  0.1150  0.0778  0.1969
17570TIP3    H174201   0.075   5.349   3.929  0.5745 -0.3485  1.5950
17570TIP3    H274202   0.186   5.252   3.961  0.7792 -0.9108 -0.7195
17571TIP3   OH274203   6.048   2.335   6.067 -0.3073  0.1254  0.1390
17571TIP3    H174204   6.065   2.343   6.161  0.9027 -0.6974  0.0031
17571TIP3    H274205   6.104   2.263   6.038 -0.7508  0.2923 -1.1972
17572TIP3   OH274206   3.333   1.463   1.738 -0.2176 -0.2252  0.8569
17572TIP3    H174207   3.356   1.404   1.666  0.8728  1.5460 -0.2926
17572TIP3    H274208   3.330   1.406   1.815 -1.1785 -2.1207 -0.5304
17573TIP3   OH274209   5.943   1.093   2.643  0.0672  0.1146 -0.0426
17573TIP3    H174210   5.848   1.102   2.642 -0.0233 -0.6726 -2.7583
17573TIP3    H274211   5.960   1.008   2.603  1.8266 -1.1135  3.1962
17574TIP3   OH274212   4.597   2.106   3.568 -0.5805  0.6532  0.0831
17574TIP3    H174213   4.605   2.100   3.473  2.2042 -0.8267  0.3609
17574TIP3    H274214   4.551   2.026   3.593  0.8163 -0.1264  0.1825
17575TIP3   OH274215   4.275   2.272   3.520  0.4666  0.1529  0.4848
17575TIP3    H174216   4.313   2.299   3.604  0.9123 -2.6226  1.2341
17575TIP3    H274217   4.297   2.179   3.513 -2.7003 -0.5562 -0.9876
17576TIP3   OH274218   6.641   1.989   5.516 -0.4664 -0.0313  0.4833
17576TIP3    H174219   6.569   2.051   5.499 -1.4182 -1.2417 -0.0371
17576TIP3    H274220   6.702   2.004   5.444 -1.4117 -0.6910 -0.4894
17577TIP3   OH274221   5.198   6.812   4.252  0.3585  0.0395  0.4386
17577TIP3    H174222   5.183   6.742   4.315  0.5287  1.8866  2.5821
17577TIP3    H274223   5.287   6.796   4.220  0.2481 -0.9440  0.5978
17578TIP3   OH274224   6.751   6.794   4.846 -0.5106  0.0471 -0.1706
17578TIP3    H174225   6.800   6.863   4.802 -0.9967  0.9422  0.6785
17578TIP3    H274226   6.757   6.718   4.787 -0.2256  0.8993 -1.2410
17579TIP3   OH274227   0.919   3.899   2.114  0.1841  0.0722 -0.9005
17579TIP3    H174228   0.995   3.952   2.137 -0.0754 -0.5198  1.4404
17579TIP3    H274229   0.937   3.813   2.152 -1.1420 -0.3985 -1.3037
17580TIP3   OH274230   0.848   6.689   1.997  0.0998  0.5376  0.3691
17580TIP3    H174231   0.916   6.623   2.012  1.0223  1.5090  0.5103
17580TIP3    H274232   0.821   6.716   2.084 -1.1444 -0.5165  0.3234
17581TIP3   OH274233   6.790   2.338   5.855  0.5453  0.7089 -0.6337
17581TIP3    H174234   6.848   2.272   5.892 -0.1841  1.2021  1.4932
17581TIP3    H274235   6.825   2.421   5.889 -1.0192  1.0509  0.1809
17582TIP3   OH274236   5.244   0.938   2.217 -0.4514 -0.0880 -0.2927
17582TIP3    H174237   5.286   0.853   2.229 -1.0483  0.0077  3.0391
17582TIP3    H274238   5.279   0.970   2.134  2.0625 -2.2816 -0.1724
17583TIP3   OH274239   3.212   6.956   1.380 -0.3562  0.0898  0.3724
17583TIP3    H174240   3.207   7.006   1.461 -1.1204  0.2394  0.2351
17583TIP3    H274241   3.131   6.905   1.378 -0.6431  0.5677 -0.6026
17584TIP3   OH274242   4.309   1.511   3.144  0.4606  0.3813 -0.0868
17584TIP3    H174243   4.221   1.486   3.115  0.2990 -0.6850  1.2645
17584TIP3    H274244   4.345   1.560   3.070 -0.7148 -0.4373 -1.2441
17585TIP3   OH274245   4.478   3.489   2.728 -0.6063 -0.2316 -0.2833
17585TIP3    H174246   4.572   3.474   2.738 -0.7051  0.1820  1.3625
17585TIP3    H274247   4.460   3.565   2.782 -2.1748 -1.2705  0.7030
17586TIP3   OH274248   0.187   6.422   5.005  0.0739 -0.5641 -0.0370
17586TIP3    H174249   0.096   6.433   4.978 -0.5624 -0.6879  1.9486
17586TIP3    H274250   0.181   6.391   5.096  2.1072 -0.1880  0.2451
17587TIP3   OH274251   4.634   2.263   3.032  0.4886 -0.2020 -0.4288
17587TIP3    H174252   4.579   2.339   3.011 -0.4545 -1.1164 -1.3079
17587TIP3    H274253   4.598   2.192   2.979 -0.3243 -1.9500  2.3706
17588TIP3   OH274254   6.362   6.842   5.851  0.0771  0.5921 -0.3074
17588TIP3    H174255   6.324   6.820   5.936 -0.2386 -2.1845 -1.1268
17588TIP3    H274256   6.426   6.910   5.870  0.5274 -0.5168  2.2561
17589TIP3   OH274257   6.439   2.580   5.916  0.3488 -0.6744 -0.6002
17589TIP3    H174258   6.526   2.619   5.918  0.7128 -1.4354 -1.3285
17589TIP3    H274259   6.381   2.648   5.951  1.3333 -0.4546  0.6058
17590TIP3   OH274260   6.147   3.602   4.440  0.0034 -0.8382 -0.0509
17590TIP3    H174261   6.117   3.511   4.432  1.4432 -1.2147 -1.4059
17590TIP3    H274262   6.070   3.649   4.472 -1.1937 -2.2779 -0.6884
17591TIP3   OH274263   2.739   2.638   5.290  1.2314 -0.1053 -0.4654
17591TIP3    H174264   2.749   2.614   5.383  0.6537 -0.0611 -0.3895
17591TIP3    H274265   2.753   2.556   5.243 -0.8865 -0.6488 -0.2002
17592TIP3   OH274266   5.540   0.362  15.235 -0.4370 -0.7044 -0.1697
17592TIP3    H174267   5.504   0.361  15.146 -2.4144  0.0417  0.5751
17592TIP3    H274268   5.542   0.270  15.261 -0.6962 -0.8572 -0.6743
17593TIP3   OH274269   2.596   2.943   5.253  0.1323  0.0858  1.0272
17593TIP3    H174270   2.547   2.867   5.222  1.0960 -0.6939  1.4245
17593TIP3    H274271   2.536   2.986   5.314 -1.1275  0.6935 -0.5805
17594TIP3   OH274272   1.559   2.321   5.036 -0.3661 -0.0493  0.0670
17594TIP3    H174273   1.582   2.407   4.999 -0.8000 -0.6754 -1.7128
17594TIP3    H274274   1.520   2.273   4.962  0.7223 -2.1068  0.7974
17595TIP3   OH274275   4.147   3.535   3.816  0.3366  0.1709 -0.4034
17595TIP3    H174276   4.134   3.596   3.744  0.6558 -1.1207 -1.5909
17595TIP3    H274277   4.060   3.524   3.855  0.1583  0.8596 -0.6123
17596TIP3   OH274278   5.037   5.915   3.961  0.5024 -0.1108  0.7629
17596TIP3    H174279   5.049   5.828   4.001 -0.4815  0.2878  1.9494
17596TIP3    H274280   4.944   5.918   3.940  1.0775 -0.4534 -1.9424
17597TIP3   OH274281   4.659   1.102   5.879 -0.3092  0.4421 -0.3200
17597TIP3    H174282   4.588   1.076   5.938  0.5689 -0.5914  0.3101
17597TIP3    H274283   4.739   1.074   5.924  0.5049  1.7252 -0.9520
17598TIP3   OH274284   3.566   5.490   3.107  0.0109 -0.3998  0.1233
17598TIP3    H174285   3.507   5.493   3.183 -0.3604 -3.1570  0.0025
17598TIP3    H274286   3.618   5.570   3.114 -2.3956  1.1303  1.3247
17599TIP3   OH274287   6.082   5.243   1.244 -0.0435  0.0493 -0.4065
17599TIP3    H174288   6.019   5.255   1.315  0.3137  0.6501 -0.1899
17599TIP3    H274289   6.145   5.180   1.278  0.2847  0.5508 -0.0902
17600TIP3   OH274290   0.810   0.531   4.378 -0.4916  0.1740  0.4342
17600TIP3    H174291   0.884   0.472   4.386 -1.0445 -0.4568  0.8937
17600TIP3    H274292   0.803   0.573   4.464  0.2843  1.3741 -0.0729
17601TIP3   OH274293   5.947   1.507   2.442 -0.3143 -0.6437  0.1636
17601TIP3    H174294   6.010   1.462   2.387  0.8416 -0.7435  1.5590
17601TIP3    H274295   5.870   1.450   2.442  0.8129 -2.2118  1.1864
17602TIP3   OH274296   3.863   2.120   4.934  0.5752  0.9815  0.9254
17602TIP3    H174297   3.873   2.126   5.029 -0.1220  0.7644  1.0143
17602TIP3    H274298   3.886   2.207   4.902  0.5711  1.1280  1.3174
17603TIP3   OH274299   6.735   0.524   2.786  0.1165 -0.3170 -0.1475
17603TIP3    H174300   6.683   0.570   2.720  0.8182  2.6386  1.2650
17603TIP3    H274301   6.669   0.487   2.845 -0.4539 -0.6625 -0.9859
17604TIP3   OH274302   0.201   1.462   4.039  0.2369 -0.5910  0.2755
17604TIP3    H174303   0.116   1.489   4.071 -0.1800 -0.7625 -0.6722
17604TIP3    H274304   0.187   1.373   4.005  0.1207  0.4350 -2.4937
17605TIP3   OH274305   5.746   6.575   3.943  0.3304 -0.3161 -0.2293
17605TIP3    H174306   5.658   6.571   3.981 -0.4954  0.8579 -1.9779
17605TIP3    H274307   5.772   6.667   3.951  1.3376 -0.6223  0.1132
17606TIP3   OH274308   5.395   2.361   5.393 -0.2044  0.5046  0.3523
17606TIP3    H174309   5.349   2.391   5.314  0.4906  1.3459  0.2526
17606TIP3    H274310   5.473   2.417   5.398 -0.0158  0.1668  1.3951
17607TIP3   OH274311   4.532   0.917   5.296 -0.3538 -0.6618  0.6737
17607TIP3    H174312   4.548   0.867   5.215  2.6575  0.4392  0.5262
17607TIP3    H274313   4.464   0.980   5.271 -0.3804 -1.1768 -0.6273
17608TIP3   OH274314   6.978   0.436   4.715  0.0158 -0.1561 -0.2477
17608TIP3    H174315   6.955   0.363   4.772 -0.3364  0.9119  0.9815
17608TIP3    H274316   6.943   0.411   4.629  1.7465 -2.3866 -0.3520
17609TIP3   OH274317   6.402   0.453   4.012  0.2561  0.1068 -0.0276
17609TIP3    H174318   6.429   0.426   4.100  0.9895 -0.4920 -0.4270
17609TIP3    H274319   6.384   0.546   4.020 -0.9668 -0.2164  1.0562
17610TIP3   OH274320   7.164   1.809   5.062 -0.0967 -0.0653  0.6073
17610TIP3    H174321   7.225   1.828   4.991 -0.2265 -2.1531 -0.0872
17610TIP3    H274322   7.163   1.713   5.068 -0.6007  0.0616  2.9721
17611TIP3   OH274323   6.861   0.850   4.042  0.0922 -0.1255  0.1096
17611TIP3    H174324   6.937   0.827   3.990 -0.1428 -1.0576  0.1746
17611TIP3    H274325   6.800   0.890   3.980 -0.0375 -0.8982 -0.2628
17612TIP3   OH274326   5.203   2.336  13.670  0.4367  0.0083 -0.4146
17612TIP3    H174327   5.115   2.345  13.634  0.8988  2.0888 -1.0907
17612TIP3    H274328   5.203   2.250  13.712 -0.8917 -1.4291 -3.2079
17613TIP3   OH274329   4.354   6.769   2.270  0.3405 -0.6293 -0.3616
17613TIP3    H174330   4.361   6.674   2.275 -1.8504 -0.8172 -0.3251
17613TIP3    H274331   4.337   6.787   2.178  0.4001 -0.3064 -0.3098
17614TIP3   OH274332   5.803   6.588   5.482 -0.0173 -0.4037  0.0257
17614TIP3    H174333   5.893   6.571   5.510 -0.0386  0.1860  0.4443
17614TIP3    H274334   5.754   6.596   5.563  0.0498  2.0399 -0.1492
17615TIP3   OH274335   3.140   6.874   5.062 -0.2754 -0.5647  0.1577
17615TIP3    H174336   3.107   6.842   4.978  0.1598 -1.0327  0.1643
17615TIP3    H274337   3.192   6.801   5.097 -1.9848 -1.0855  1.7060
17616TIP3   OH274338   3.639   1.916   4.000  0.0308 -0.0707  0.6363
17616TIP3    H174339   3.659   1.995   4.051  1.5462 -0.1515  0.1960
17616TIP3    H274340   3.686   1.928   3.918  1.5863 -2.1257  1.1649
17617TIP3   OH274341   3.430   4.336   4.259 -0.2466  0.2771  0.4222
17617TIP3    H174342   3.453   4.276   4.189 -0.9331  1.5741 -0.9409
17617TIP3    H274343   3.337   4.355   4.246 -0.0572  1.5741  0.8618
17618TIP3   OH274344   5.402   1.508   3.931  0.2513  0.5946  0.7682
17618TIP3    H174345   5.323   1.519   3.983  0.1829  0.1641  0.7614
17618TIP3    H274346   5.412   1.413   3.923  1.5028  0.6067  1.8964
17619TIP3   OH274347   4.856   2.027   5.357  0.7865 -0.2457 -0.6379
17619TIP3    H174348   4.787   2.057   5.416 -0.8771 -0.5743 -2.3665
17619TIP3    H274349   4.924   2.094   5.362  0.7256 -0.3250  1.7143
17620TIP3   OH274350   6.370   2.277   4.963 -0.0920  0.3208  0.5120
17620TIP3    H174351   6.326   2.358   4.988 -3.8509 -1.4107 -0.0677
17620TIP3    H274352   6.372   2.225   5.044 -3.5987 -1.5018 -0.4908
17621TIP3   OH274353   3.655   1.495   1.057 -0.1102 -0.3627  0.1645
17621TIP3    H174354   3.645   1.575   1.006 -2.8105  0.4905  1.9473
17621TIP3    H274355   3.617   1.427   1.002 -1.7055  0.3102  0.4138
17622TIP3   OH274356   1.064   1.287   5.022  0.1816  0.2984  0.5313
17622TIP3    H174357   1.053   1.359   5.084  0.9314 -0.4105  1.4998
17622TIP3    H274358   0.982   1.239   5.026  0.2080  0.2834  0.9441
17623TIP3   OH274359   6.412   6.895   4.508  0.2422  0.0857  0.6327
17623TIP3    H174360   6.342   6.955   4.480 -0.2913 -0.2262  1.2842
17623TIP3    H274361   6.428   6.839   4.432 -1.1216 -0.6855  0.8937
17624TIP3   OH274362   0.856   1.893   5.106  0.1153 -0.1186 -0.2910
17624TIP3    H174363   0.826   1.827   5.168  0.7520 -0.9303 -0.8476
17624TIP3    H274364   0.830   1.861   5.020  0.1699  0.4956 -0.5441
17625TIP3   OH274365   5.457   0.026   2.215  0.8914 -0.1587 -0.1227
17625TIP3    H174366   5.382   0.063   2.168 -0.4100 -0.7790  1.4174
17625TIP3    H274367   5.418  -0.035   2.278  2.6126  0.3649  1.4956
17626TIP3   OH274368   4.244   4.863   3.398  0.0060 -0.4319 -0.3874
17626TIP3    H174369   4.306   4.925   3.358 -2.8613  1.5669 -1.9152
17626TIP3    H274370   4.258   4.781   3.352  1.6484 -0.0564 -0.5711
17627TIP3   OH274371   5.931   1.886   5.723 -0.3682 -0.2128  0.9136
17627TIP3    H174372   5.933   1.791   5.733 -5.1950 -0.5222  0.1704
17627TIP3    H274373   5.933   1.919   5.813  3.0185 -0.8375  1.1453
17628TIP3   OH274374   6.915   5.221   5.773  0.3352  0.3255 -0.2526
17628TIP3    H174375   6.954   5.272   5.703  1.1211 -0.5713 -0.4770
17628TIP3    H274376   6.987   5.171   5.810 -0.1326  0.5448  0.9893
17629TIP3   OH274377   5.959   0.174   5.637  0.5325  0.1330  0.1107
17629TIP3    H174378   6.011   0.140   5.710  1.6563  2.8028  0.6391
17629TIP3    H274379   6.024   0.209   5.576 -0.4595 -1.0498 -1.6694
17630TIP3   OH274380   3.057   2.570   4.178 -0.2383 -0.4126 -0.5035
17630TIP3    H174381   3.015   2.492   4.213 -0.6600 -0.2396 -0.6257
17630TIP3    H274382   3.026   2.576   4.088 -0.1684 -0.1324 -0.5106
17631TIP3   OH274383   6.354   0.083   3.763 -0.4047 -0.9983 -0.1453
17631TIP3    H174384   6.278   0.047   3.809 -2.0454 -0.9698 -2.7617
17631TIP3    H274385   6.356   0.038   3.679  1.6362  0.0630 -0.7114
17632TIP3   OH274386   3.481   2.384   5.264 -0.2869  0.0832  0.4998
17632TIP3    H174387   3.571   2.378   5.296 -0.1913 -0.2108  0.1778
17632TIP3    H274388   3.456   2.475   5.281  1.3004  1.1838 -2.7032
17633TIP3   OH274389   3.168   1.928   4.457  0.0150 -0.5579 -0.1499
17633TIP3    H174390   3.094   1.965   4.409  1.1514 -0.0954 -1.6082
17633TIP3    H274391   3.194   1.997   4.518  0.3754 -0.0029 -0.9174
17634TIP3   OH274392   1.643   5.970   3.957  0.6733 -0.1068  0.0391
17634TIP3    H174393   1.567   6.025   3.971  0.3786 -0.3190 -0.7206
17634TIP3    H274394   1.609   5.881   3.954  1.1340 -0.3335  1.1646
17635TIP3   OH274395   4.308   4.914   4.733  0.1855 -0.5620  0.1543
17635TIP3    H174396   4.218   4.884   4.743  0.2354 -0.3100  1.4982
17635TIP3    H274397   4.358   4.858   4.793  1.0625 -1.3075 -1.2454
17636TIP3   OH274398   5.675   1.824   4.282  0.3061 -0.1593 -0.1608
17636TIP3    H174399   5.669   1.867   4.367  1.7672 -0.2943  0.0193
17636TIP3    H274400   5.672   1.896   4.219 -0.2370 -0.0214  0.0169
17637TIP3   OH274401   3.119   1.982   6.019  0.3937 -0.4598 -0.0079
17637TIP3    H174402   3.192   2.012   5.965 -0.4754  0.9129 -0.4468
17637TIP3    H274403   3.156   1.910   6.071  1.7207 -0.5888 -1.0966
17638TIP3   OH274404   0.583   6.922   3.720 -0.0334  0.4331 -0.1933
17638TIP3    H174405   0.596   6.962   3.633 -3.4047 -0.1802 -1.0516
17638TIP3    H274406   0.585   6.828   3.703  0.6992  0.3036  0.6326
17639TIP3   OH274407   4.891   3.266   5.388  0.6549  0.0436  0.2273
17639TIP3    H174408   4.846   3.188   5.354  0.6144 -0.0572  0.5089
17639TIP3    H274409   4.982   3.239   5.395  0.4631 -0.3366  1.3683
17640TIP3   OH274410   3.988   4.898   4.566  0.3433 -0.0517  0.3420
17640TIP3    H174411   3.993   4.914   4.661 -0.3633  0.6766  0.2666
17640TIP3    H274412   3.896   4.917   4.544  0.4727 -0.3654 -0.4620
17641TIP3   OH274413   6.717   2.169   4.403  0.0438 -0.0872 -0.0040
17641TIP3    H174414   6.775   2.163   4.479 -0.1529 -0.4636  0.1171
17641TIP3    H274415   6.646   2.227   4.432 -0.6477 -1.1734  0.5006
17642TIP3   OH274416   2.026   1.095   3.464 -0.3071 -0.3230  0.3382
17642TIP3    H174417   2.030   1.174   3.518 -1.1259 -0.5985  0.8224
17642TIP3    H274418   1.936   1.094   3.430 -0.2909 -1.0290  0.3167
17643TIP3   OH274419   0.963   2.383   5.475  0.0657 -0.3871  0.5040
17643TIP3    H174420   0.942   2.395   5.568  1.9232 -0.5190  0.9586
17643TIP3    H274421   0.962   2.288   5.463 -0.4929 -0.3575  0.3090
17644TIP3   OH274422   6.208   3.916   3.948 -0.5416 -0.0245 -0.2562
17644TIP3    H174423   6.164   3.994   3.981  1.1047  0.5636  0.6453
17644TIP3    H274424   6.231   3.938   3.857  1.1835  1.1474  0.4195
17645TIP3   OH274425   4.584   4.685   2.461  0.1949  0.6293  0.9872
17645TIP3    H174426   4.566   4.727   2.545 -1.7130  1.3403  0.2374
17645TIP3    H274427   4.571   4.754   2.396 -0.2501 -0.4147 -0.0462
17646TIP3   OH274428   1.569   4.759   5.069 -0.1971 -0.3556 -0.2429
17646TIP3    H174429   1.512   4.719   5.135 -1.5712  2.2075  0.2104
17646TIP3    H274430   1.519   4.756   4.988  0.0142 -0.2853 -0.3764
17647TIP3   OH274431   4.085   1.197   1.993  0.0759  0.2527 -0.5517
17647TIP3    H174432   4.073   1.180   1.900  0.4155  1.2683 -0.7840
17647TIP3    H274433   4.086   1.110   2.033 -1.9861 -0.1327 -1.2472
17648TIP3   OH274434   4.691   3.075   5.308  0.2983 -0.6613  0.2419
17648TIP3    H174435   4.634   3.001   5.288 -2.2909  1.7149 -1.5946
17648TIP3    H274436   4.777   3.048   5.277  0.0052 -3.8656  1.9440
17649TIP3   OH274437   6.037   5.907   0.806  0.1130 -0.3441  0.0897
17649TIP3    H174438   6.039   5.859   0.888 -1.6291 -0.2211  0.2289
17649TIP3    H274439   5.977   5.857   0.750  1.0435 -0.2655 -0.9998
17650TIP3   OH274440   4.235   0.897   2.111 -0.4212  1.1754  0.8017
17650TIP3    H174441   4.314   0.913   2.059 -1.6637  2.1732 -0.8426
17650TIP3    H274442   4.243   0.807   2.140  0.6389  0.8105 -0.5646
17651TIP3   OH274443   7.129   4.371   0.255  0.4036 -0.0790  0.4381
17651TIP3    H174444   7.183   4.305   0.297  0.6622  0.0212  0.2601
17651TIP3    H274445   7.127   4.346   0.163 -0.3201 -0.4096  0.5341
17652TIP3   OH274446   0.411   4.655   2.492 -0.0714  0.1429  0.1986
17652TIP3    H174447   0.467   4.648   2.570 -0.8328  3.7910  1.1630
17652TIP3    H274448   0.365   4.738   2.503 -4.3047 -1.8466 -1.5289
17653TIP3   OH274449   6.094   1.378   5.192  0.1990 -1.0305 -0.2556
17653TIP3    H174450   6.152   1.449   5.221 -0.9238  0.1386 -0.8282
17653TIP3    H274451   6.107   1.374   5.097 -1.8958  0.3774 -0.6237
17654TIP3   OH274452   7.134   6.728   5.431 -0.3395  0.0343  0.1207
17654TIP3    H174453   7.090   6.782   5.366  2.0896  1.0699 -0.7040
17654TIP3    H274454   7.128   6.778   5.512 -2.0040 -0.5579  0.3995
17655TIP3   OH274455   4.559   2.002   3.311 -0.1752 -0.5200  0.2895
17655TIP3    H174456   4.601   1.972   3.230  4.0392 -1.6383  2.7348
17655TIP3    H274457   4.490   1.939   3.328  0.1201 -1.3315 -1.4330
17656TIP3   OH274458   0.426   7.004   3.930 -0.9605 -0.2323  0.2209
17656TIP3    H174459   0.495   7.018   3.865 -0.3999  0.3500  0.9284
17656TIP3    H274460   0.449   6.921   3.972 -0.0713  0.5176  1.2186
17657TIP3   OH274461   2.970   6.507   4.169  0.3053 -0.0195  0.1858
17657TIP3    H174462   2.907   6.450   4.212  0.3727 -1.5167 -1.6501
17657TIP3    H274463   2.926   6.535   4.088  0.8144  1.4251  0.3817
17658TIP3   OH274464   0.712   1.436   3.059 -0.2088 -0.6586  0.1327
17658TIP3    H174465   0.658   1.439   3.138  1.4568  2.1038  1.2362
17658TIP3    H274466   0.691   1.516   3.012  1.8993 -0.2119 -0.0898
17659TIP3   OH274467   5.344   1.105   4.629 -0.3836  0.2689  0.5715
17659TIP3    H174468   5.310   1.135   4.714  0.7345 -0.2606  1.2265
17659TIP3    H274469   5.404   1.174   4.601 -0.6521  0.3814  0.2722
17660TIP3   OH274470   1.570   6.118   5.854 -0.4276  0.2994 -0.2718
17660TIP3    H174471   1.587   6.039   5.802  0.5921  1.6674 -2.0637
17660TIP3    H274472   1.479   6.140   5.835 -1.1066 -1.1307  1.2125
17661TIP3   OH274473   2.277   2.284   6.191 -0.1341  0.3943 -0.3112
17661TIP3    H174474   2.284   2.196   6.155 -0.6670  0.5905 -0.8952
17661TIP3    H274475   2.364   2.323   6.176 -0.0770  0.1686 -0.5582
17662TIP3   OH274476   6.684   0.977   6.141 -0.1921  0.1648  0.1347
17662TIP3    H174477   6.759   0.969   6.082  1.0842 -0.0968  1.7783
17662TIP3    H274478   6.658   0.887   6.160  2.7318  0.0315  4.1158
17663TIP3   OH274479   6.322   0.196   5.955  0.1071  0.0666  0.2966
17663TIP3    H174480   6.245   0.226   6.003  0.0654 -1.7916  1.4426
17663TIP3    H274481   6.386   0.265   5.968 -0.9106  0.9960  0.4845
17664TIP3   OH274482   2.651   0.245   5.159  0.2150 -0.1715 -0.1459
17664TIP3    H174483   2.599   0.298   5.219  0.0490 -0.6340  0.1220
17664TIP3    H274484   2.719   0.206   5.214 -0.3477 -1.1430 -0.1220
17665TIP3   OH274485   2.879   7.043   3.135  0.1802 -0.2995  0.4193
17665TIP3    H174486   2.944   7.084   3.193  2.5481 -0.8434 -1.7436
17665TIP3    H274487   2.829   7.116   3.100  1.6258  0.4361 -0.1777
17666TIP3   OH274488   5.947   1.633   5.774  0.2768 -0.3669 -0.0211
17666TIP3    H174489   5.876   1.598   5.828  0.7777  0.6565  1.3170
17666TIP3    H274490   5.940   1.584   5.692 -1.7920 -0.4818  0.1815
17667TIP3   OH274491   4.388   5.790   3.456  0.2086  0.1638 -0.0508
17667TIP3    H174492   4.306   5.838   3.447  0.9662  1.4168 -0.3652
17667TIP3    H274493   4.412   5.764   3.367 -0.2141 -0.8330  0.1205
17668TIP3   OH274494   1.704   4.435   4.929  0.4593  0.2229  0.2726
17668TIP3    H174495   1.687   4.515   4.879 -0.2099 -0.3548 -0.4368
17668TIP3    H274496   1.619   4.393   4.938  0.3525  0.9541  3.0355
17669TIP3   OH274497   2.264   3.843   4.963 -0.1011 -0.2789 -0.0388
17669TIP3    H174498   2.304   3.764   4.926 -1.4771 -0.1257 -1.9126
17669TIP3    H274499   2.327   3.912   4.945  0.0561 -0.5354 -0.4841
17670TIP3   OH274500   1.073   1.485   0.298  0.0846 -0.2135 -0.3635
17670TIP3    H174501   0.990   1.531   0.316  0.2995  0.3989 -0.9063
17670TIP3    H274502   1.096   1.512   0.209  1.4424  0.5103  0.2033
17671TIP3   OH274503   2.736   4.268   5.031  0.3421 -0.0332  0.0063
17671TIP3    H174504   2.672   4.215   5.080  1.2784 -0.5162  0.7313
17671TIP3    H274505   2.804   4.288   5.096  2.8709 -2.7580 -1.6746
17672TIP3   OH274506   5.682   5.089   2.877 -0.1954 -0.6052  0.2798
17672TIP3    H174507   5.612   5.045   2.925  0.1140 -1.2726  0.1356
17672TIP3    H274508   5.762   5.056   2.917  0.0393  0.0435  0.3502
17673TIP3   OH274509   1.599   5.250   3.936 -0.2133  0.4622  0.2807
17673TIP3    H174510   1.576   5.165   3.974  0.0409 -0.5895 -1.8466
17673TIP3    H274511   1.547   5.313   3.986  0.3613 -0.8049  2.5820
17674TIP3   OH274512   3.103   3.878   4.316  0.2905  0.0476 -0.2224
17674TIP3    H174513   3.079   3.952   4.261 -1.6023 -0.9973 -0.8636
17674TIP3    H274514   3.031   3.869   4.378  1.3430 -0.1787  1.0045
17675TIP3   OH274515   4.683   1.290   3.580 -0.4388 -0.0143 -0.3711
17675TIP3    H174516   4.741   1.366   3.590  1.0083 -0.9828 -1.2440
17675TIP3    H274517   4.702   1.257   3.492 -0.2226 -2.0816  0.4346
17676TIP3   OH274518   5.720   1.482   2.908  0.5907  0.2703  0.1266
17676TIP3    H174519   5.755   1.492   2.819 -1.4156 -2.3718 -1.0322
17676TIP3    H274520   5.625   1.475   2.895  0.1852  0.8466  2.5981
17677TIP3   OH274521   6.878   4.521   3.098  0.2750 -1.0558 -0.4242
17677TIP3    H174522   6.963   4.478   3.093  0.5531 -0.3495 -2.3638
17677TIP3    H274523   6.890   4.603   3.049 -0.6610  0.5070  1.8575
17678TIP3   OH274524   2.034   3.440   4.242 -0.2454  0.4959  0.0936
17678TIP3    H174525   2.055   3.450   4.335  0.4821 -0.0586 -0.0055
17678TIP3    H274526   2.004   3.349   4.234  1.4257 -0.0272 -0.5208
17679TIP3   OH274527   0.298   0.621   3.646  0.0028 -0.6963  0.1766
17679TIP3    H174528   0.238   0.696   3.645  0.1332 -0.5988 -0.2172
17679TIP3    H274529   0.298   0.589   3.556  1.7421  0.2517 -0.1845
17680TIP3   OH274530   1.928   0.104   5.284  0.5032 -0.5906 -0.0724
17680TIP3    H174531   1.858   0.161   5.316 -0.4901 -1.2393 -1.0133
17680TIP3    H274532   1.944   0.043   5.356  0.3536 -0.2047  0.2885
17681TIP3   OH274533   5.279   4.163   3.899  0.8551 -0.5199 -0.1634
17681TIP3    H174534   5.248   4.080   3.936 -0.4868  0.2324  0.4617
17681TIP3    H274535   5.244   4.230   3.959  0.2604  0.6085 -1.7322
17682TIP3   OH274536   2.635   2.820   5.653 -0.3805  0.1317 -0.3983
17682TIP3    H174537   2.663   2.732   5.626  0.3039  1.1804 -3.3150
17682TIP3    H274538   2.646   2.820   5.748 -0.0049 -2.7930 -0.3719
17683TIP3   OH274539   4.060   2.221   5.599  0.0608 -0.9906 -0.0503
17683TIP3    H174540   4.017   2.141   5.631 -0.0143 -1.0719 -0.3606
17683TIP3    H274541   4.153   2.202   5.606  0.0495 -1.7519 -1.7556
17684TIP3   OH274542   5.586   5.691   5.280  0.0113 -0.2732 -0.2030
17684TIP3    H174543   5.499   5.655   5.263 -0.1546 -0.4538  1.0136
17684TIP3    H274544   5.645   5.615   5.275 -0.2366 -0.6025  1.5448
17685TIP3   OH274545   5.814   6.848   4.021  0.5761 -0.5342 -0.6242
17685TIP3    H174546   5.804   6.937   3.987 -0.3407 -0.9975 -1.5836
17685TIP3    H274547   5.862   6.859   4.103  0.8269  0.8073 -0.9432
17686TIP3   OH274548   1.448   3.687   5.064 -0.3001 -0.7334  0.0496
17686TIP3    H174549   1.491   3.772   5.054 -1.2017 -0.3520 -0.7535
17686TIP3    H274550   1.476   3.655   5.149  0.0863  0.3593  0.3408
17687TIP3   OH274551   4.535   2.929   4.459 -0.2127 -0.1533  0.1976
17687TIP3    H174552   4.499   2.978   4.385 -2.3348 -0.2932  1.1095
17687TIP3    H274553   4.528   2.989   4.534  3.1893  0.5025  0.0563
17688TIP3   OH274554   1.994   3.244   5.698 -0.1132 -0.2046 -0.2404
17688TIP3    H174555   1.916   3.194   5.677 -0.9896  1.1250 -0.2267
17688TIP3    H274556   1.998   3.244   5.794 -0.0715 -0.3002 -0.2415
17689TIP3   OH274557   6.206   0.950   1.723  0.4493 -0.3421  0.0610
17689TIP3    H174558   6.244   0.895   1.791  2.1300  0.2046 -0.4136
17689TIP3    H274559   6.112   0.931   1.726  0.5191 -0.4451  2.4113
17690TIP3   OH274560   1.452   6.733   4.978  0.2940 -0.0927  0.2809
17690TIP3    H174561   1.395   6.683   5.037 -0.6889  1.2005  0.4735
17690TIP3    H274562   1.521   6.673   4.954  0.1091 -0.9929  1.9165
17691TIP3   OH274563   2.610   0.036  15.466  0.3132 -0.1358 -0.1745
17691TIP3    H174564   2.541   0.072  15.410  0.9840  0.0764 -0.8671
17691TIP3    H274565   2.689   0.082  15.438  0.8456 -0.8308  0.1979
17692TIP3   OH274566   1.162   1.756   1.829 -0.2196  0.2533 -0.0638
17692TIP3    H174567   1.072   1.742   1.859  0.7613 -1.5315  2.2288
17692TIP3    H274568   1.195   1.826   1.885  0.5271 -0.6987  0.7097
17693TIP3   OH274569   1.739   0.690   3.483 -0.0939  0.6192 -0.1301
17693TIP3    H174570   1.649   0.712   3.457 -0.3181  0.7873  0.7781
17693TIP3    H274571   1.749   0.598   3.456 -0.8617  0.3121  0.6089
17694TIP3   OH274572   5.691   3.213   5.383 -0.1971  0.1134 -0.0068
17694TIP3    H174573   5.727   3.183   5.467  0.2884 -0.0162 -0.2570
17694TIP3    H274574   5.633   3.141   5.355 -1.9700  1.0477  1.2041
17695TIP3   OH274575   2.802   2.684   4.055 -0.5411 -0.3695  0.6621
17695TIP3    H174576   2.834   2.617   3.995  1.9832  0.2833  1.2051
17695TIP3    H274577   2.779   2.636   4.134 -1.1194 -0.8767  0.1947
17696TIP3   OH274578   0.479   4.262   5.334 -0.4963  0.3135  0.4151
17696TIP3    H174579   0.404   4.318   5.314 -1.1426 -0.2362  1.2561
17696TIP3    H274580   0.549   4.293   5.276 -0.9541  1.7394  0.6072
17697TIP3   OH274581   1.127   2.773   5.352 -0.7227  0.3548  0.1483
17697TIP3    H174582   1.094   2.838   5.290  1.3169 -1.3723 -2.8575
17697TIP3    H274583   1.054   2.711   5.363 -1.4144  1.1734  0.2212
17698TIP3   OH274584   1.310   3.206   5.729 -0.3360 -0.0021 -0.7551
17698TIP3    H174585   1.235   3.160   5.693  1.5780 -2.0218 -2.2951
17698TIP3    H274586   1.358   3.139   5.779  0.9663  0.9895 -0.6423
17699TIP3   OH274587   0.370   2.483   4.213 -0.0830 -0.5500 -0.0897
17699TIP3    H174588   0.371   2.570   4.253  0.5280 -0.7908  0.4336
17699TIP3    H274589   0.407   2.497   4.126  0.4709 -0.3608  0.1713
17700TIP3   OH274590   5.947   2.947   4.317  0.4657 -0.4464 -0.0514
17700TIP3    H174591   5.860   2.918   4.345 -0.9584  1.6169 -2.2504
17700TIP3    H274592   5.963   2.899   4.236  0.8008  0.2202 -0.3764
17701TIP3   OH274593   1.243   0.442   3.861 -0.0228 -0.1978  0.1577
17701TIP3    H174594   1.320   0.387   3.877 -0.3584 -0.5778  0.4834
17701TIP3    H274595   1.279   0.527   3.837  0.5014 -0.0001  1.5922
17702TIP3   OH274596   0.527   3.628   2.643 -0.6605  0.1024  0.0044
17702TIP3    H174597   0.566   3.706   2.682 -2.8085  2.1012 -1.7150
17702TIP3    H274598   0.584   3.608   2.568  1.4438 -1.6801  1.9671
17703TIP3   OH274599   0.641   1.739   1.364  0.4488 -0.0876  0.4231
17703TIP3    H174600   0.557   1.698   1.383 -0.0794  0.2335 -1.2091
17703TIP3    H274601   0.633   1.828   1.398  0.1536 -0.0801  0.3325
17704TIP3   OH274602   5.457   4.433   2.895 -0.0908 -0.0376 -0.0759
17704TIP3    H174603   5.451   4.511   2.841 -0.2781 -1.8932 -2.8414
17704TIP3    H274604   5.472   4.466   2.984  2.7729  3.0163 -1.6029
17705TIP3   OH274605   2.120   3.936   2.408  0.3737  0.4805  0.5904
17705TIP3    H174606   2.105   3.844   2.430 -1.2633  0.9120  1.3185
17705TIP3    H274607   2.167   3.971   2.484  0.2396  0.4524  0.6867
17706TIP3   OH274608   6.601   1.244   6.051  0.2786 -0.3002  0.6368
17706TIP3    H174609   6.673   1.298   6.019  0.1644 -0.0193  0.8550
17706TIP3    H274610   6.636   1.203   6.131  0.0343  0.2056  1.0022
17707TIP3   OH274611   1.724   2.089   4.040 -0.3646  0.1338 -0.1743
17707TIP3    H174612   1.633   2.100   4.067 -0.4374 -0.2136 -0.2663
17707TIP3    H274613   1.755   2.015   4.092 -1.2744 -2.2232 -2.8127
17708TIP3   OH274614   2.813   1.294   1.021  0.2491 -0.1336  0.4238
17708TIP3    H174615   2.727   1.336   1.026  1.7691  3.4993 -1.4614
17708TIP3    H274616   2.805   1.231   0.949 -0.9200 -0.0246  0.4595
17709TIP3   OH274617   0.868   5.809   3.037 -0.4644  0.2616  0.1417
17709TIP3    H174618   0.820   5.843   2.962 -2.6133 -1.8807  0.4534
17709TIP3    H274619   0.871   5.714   3.022  1.7308  0.1072  1.2854
17710TIP3   OH274620   2.218   3.248   5.446  0.4800  0.1416  0.0245
17710TIP3    H174621   2.281   3.228   5.515  3.1251  2.1016 -1.7067
17710TIP3    H274622   2.256   3.208   5.367 -1.4161 -0.2427 -0.7237
17711TIP3   OH274623   0.017   4.188   4.027 -0.0602 -0.3353  0.1822
17711TIP3    H174624  -0.064   4.169   3.981 -0.7048 -1.2998  1.6899
17711TIP3    H274625   0.082   4.130   3.986 -0.4820 -0.7011  0.0307
17712TIP3   OH274626   0.726   5.815   1.786  0.0145 -0.0738 -0.5644
17712TIP3    H174627   0.776   5.897   1.790  0.6011 -0.3284 -2.2456
17712TIP3    H274628   0.692   5.812   1.697  0.1461 -1.7416 -0.5767
17713TIP3   OH274629   5.455   3.238   4.220 -0.2981  0.1099  0.1065
17713TIP3    H174630   5.519   3.305   4.194  1.1055 -0.8228  1.0677
17713TIP3    H274631   5.374   3.286   4.233  0.0129  1.2256 -1.8142
17714TIP3   OH274632   1.457   0.288   3.698  0.3489 -0.0752 -0.2032
17714TIP3    H174633   1.470   0.377   3.665 -0.8821  0.3663  0.4585
17714TIP3    H274634   1.411   0.243   3.628 -1.8154  0.7188  0.6595
17715TIP3   OH274635   2.527   4.097   5.129 -0.0142 -0.3577  0.1256
17715TIP3    H174636   2.469   4.171   5.148 -0.4939 -0.5320 -0.6174
17715TIP3    H274637   2.505   4.032   5.196 -0.5688 -0.3572 -0.0482
17716TIP3   OH274638   3.238   0.268   3.238 -0.7275  0.9095 -0.5143
17716TIP3    H174639   3.267   0.358   3.255  1.5235 -0.3196  2.6070
17716TIP3    H274640   3.152   0.263   3.281 -0.0908  1.1048  0.8106
17717TIP3   OH274641   2.393   3.542   2.892  0.0568  0.3501 -0.0112
17717TIP3    H174642   2.362   3.505   2.810 -1.3790 -0.7146  0.9878
17717TIP3    H274643   2.326   3.606   2.917  0.0779  0.0934  0.7228
17718TIP3   OH274644   1.776   3.028   5.588 -0.6335 -0.0527 -0.2115
17718TIP3    H174645   1.767   3.120   5.564 -2.8040  0.1335  1.2786
17718TIP3    H274646   1.777   3.027   5.683 -0.0707 -1.5341 -0.2153
17719TIP3   OH274647   5.754   4.145   5.394 -0.1953 -0.8306  0.0341
17719TIP3    H174648   5.804   4.218   5.430 -0.0165 -0.5657 -0.7259
17719TIP3    H274649   5.679   4.186   5.351 -0.8544 -1.1993  0.8260
17720TIP3   OH274650   2.083   0.259   5.833 -0.2837 -0.8323  0.2970
17720TIP3    H174651   2.031   0.248   5.913  1.0074 -0.2849  1.2215
17720TIP3    H274652   2.136   0.179   5.828 -1.2057 -1.4000 -0.6565
17721TIP3   OH274653   0.984   1.082   4.295  0.4621 -0.2593 -0.1172
17721TIP3    H174654   0.992   1.095   4.201  0.3136  1.1442  0.0606
17721TIP3    H274655   1.037   1.152   4.334  2.0903 -1.9606  0.8274
17722TIP3   OH274656   0.518   2.211   1.263 -0.7564  0.7425  0.0751
17722TIP3    H174657   0.597   2.250   1.224  0.0020 -1.4501 -0.6140
17722TIP3    H274658   0.509   2.257   1.347  0.7620  1.6090 -0.2068
17723TIP3   OH274659   0.323   0.063   4.004  0.2756 -0.3723 -1.1104
17723TIP3    H174660   0.400   0.038   4.054  0.1727  0.5451 -0.4851
17723TIP3    H274661   0.262  -0.010   4.015 -1.0386  1.1690  2.8220
17724TIP3   OH274662   0.547   0.941   3.857  0.1179  0.4466  0.4208
17724TIP3    H174663   0.606   0.912   3.926 -1.1729 -0.5940  1.1279
17724TIP3    H274664   0.494   1.010   3.897 -0.8334 -0.3624  0.5827
17725TIP3   OH274665   4.596   1.741   3.899  0.2048  0.0168 -0.0573
17725TIP3    H174666   4.690   1.760   3.902  0.0177  1.2321 -1.1185
17725TIP3    H274667   4.558   1.820   3.861 -1.3849  0.0118  1.4754
17726TIP3   OH274668   2.567   1.509   3.954 -0.5772 -0.6781  0.1672
17726TIP3    H174669   2.620   1.454   3.897  0.5296 -1.6657  2.0709
17726TIP3    H274670   2.629   1.546   4.016 -1.9672 -1.1931  1.9174
17727TIP3   OH274671   3.193   1.229   5.410  0.0034 -0.1480  0.0248
17727TIP3    H174672   3.103   1.242   5.439 -0.3840 -1.2806 -0.6766
17727TIP3    H274673   3.223   1.151   5.457 -0.1393 -1.1203 -1.4722
17728TIP3   OH274674   5.477   5.599   4.109  0.1288 -0.0303  0.1527
17728TIP3    H174675   5.512   5.553   4.186  0.9311  1.1603  0.5075
17728TIP3    H274676   5.547   5.591   4.044 -0.2425 -0.3891 -0.1988
17729TIP3   OH274677   6.209   4.253   3.860 -0.1505  0.5438 -0.2459
17729TIP3    H174678   6.252   4.212   3.786  0.7119  0.0156  0.5453
17729TIP3    H274679   6.275   4.311   3.897 -0.8181  1.3715 -0.3298
17730TIP3   OH274680   0.218   4.363   1.975  0.0172 -0.9475  0.4944
17730TIP3    H174681   0.209   4.275   1.939 -3.0354 -1.1624  1.6160
17730TIP3    H274682   0.189   4.421   1.905  1.8756 -0.8181 -0.1883
17731TIP3   OH274683   7.114   0.810   5.227 -0.1653 -0.6573 -0.4023
17731TIP3    H174684   7.156   0.896   5.228 -2.1112  0.3129  0.1752
17731TIP3    H274685   7.154   0.763   5.301 -2.4095  1.4442  2.2951
17732TIP3   OH274686   6.124   3.093   1.937 -0.0218 -0.7001 -0.0756
17732TIP3    H174687   6.213   3.087   1.901  0.1985  0.4850  0.2341
17732TIP3    H274688   6.126   3.172   1.991 -1.0881 -1.0289  0.4471
17733TIP3   OH274689   5.672   5.120   3.476 -0.3832 -0.3574  0.0565
17733TIP3    H174690   5.657   5.123   3.571 -1.2489 -1.6138 -0.0348
17733TIP3    H274691   5.645   5.032   3.450  0.4808 -0.2454 -1.2574
17734TIP3   OH274692   6.932   3.377   4.798 -0.4987  0.4206 -0.0812
17734TIP3    H174693   6.999   3.346   4.737 -2.4423 -1.2532 -1.4478
17734TIP3    H274694   6.894   3.297   4.835 -2.4996  1.2876 -0.2008
17735TIP3   OH274695   5.603   3.683   3.703 -0.4282  0.0210  0.0736
17735TIP3    H174696   5.620   3.768   3.663  0.3730 -0.7850 -1.3314
17735TIP3    H274697   5.562   3.631   3.633  2.3308 -1.8822 -0.2344
17736TIP3   OH274698   2.112   2.403   6.018 -0.6794  0.1258 -0.3275
17736TIP3    H174699   2.158   2.485   6.031  1.7084 -0.7696 -2.6455
17736TIP3    H274700   2.151   2.343   6.081 -1.0753  0.2546  0.0430
17737TIP3   OH274701   5.709   2.016   5.101 -0.3394 -0.8516 -0.2067
17737TIP3    H174702   5.766   2.079   5.059 -1.7857 -0.4435 -1.5870
17737TIP3    H274703   5.695   2.051   5.189  0.1244 -0.0618 -0.4457
17738TIP3   OH274704   1.434   0.116   3.054  0.5374 -0.1726  0.0521
17738TIP3    H174705   1.415   0.193   3.001  0.6385 -1.0775 -1.3400
17738TIP3    H274706   1.364   0.054   3.032  1.3084 -1.0357 -0.0235
17739TIP3   OH274707   0.329   2.684   5.804  0.0887  0.5736  0.3000
17739TIP3    H174708   0.378   2.704   5.883 -2.0116  0.7487  1.5890
17739TIP3    H274709   0.266   2.755   5.796 -0.0090  0.3264 -1.2999
17740TIP3   OH274710   4.000   5.668   4.062  0.9440 -0.6664 -0.3937
17740TIP3    H174711   3.989   5.599   3.996  0.0951 -0.4851 -0.4419
17740TIP3    H274712   3.964   5.746   4.021 -1.0091 -0.8852  0.8661
17741TIP3   OH274713   4.184   4.144   5.088  0.4973  0.1921 -0.3688
17741TIP3    H174714   4.267   4.184   5.113  0.6495  0.5749 -1.4372
17741TIP3    H274715   4.207   4.057   5.057  0.5473  0.3837 -0.8927
17742TIP3   OH274716   0.126   0.846   2.739 -0.0883  0.6908  0.4912
17742TIP3    H174717   0.163   0.924   2.699 -1.8535  1.0283 -0.5711
17742TIP3    H274718   0.126   0.781   2.668  0.3523  0.0755  1.0514
17743TIP3   OH274719   3.391   2.613   0.302  0.0476  0.3867  0.1755
17743TIP3    H174720   3.339   2.682   0.262 -1.9463 -0.2322  1.5742
17743TIP3    H274721   3.389   2.542   0.238 -0.8585  0.3773  0.1978
17744TIP3   OH274722   4.492   4.990   2.316  0.9360  0.0605  0.0650
17744TIP3    H174723   4.524   4.941   2.241  0.3604 -0.1489 -0.0483
17744TIP3    H274724   4.405   4.954   2.333  0.3280  1.3366 -0.2835
17745TIP3   OH274725   0.825   3.286   5.351  0.6666 -0.4566 -0.1463
17745TIP3    H174726   0.757   3.223   5.374  2.3367 -1.4142  2.4203
17745TIP3    H274727   0.841   3.272   5.257 -3.6955  0.9008 -1.2001
17746TIP3   OH274728   1.497   2.164   4.477  0.4888  0.3613  0.1663
17746TIP3    H174729   1.446   2.083   4.473  0.9138 -0.0022  1.8158
17746TIP3    H274730   1.584   2.139   4.446 -0.2501  0.9327 -2.4381
17747TIP3   OH274731   2.669   5.166   3.656  0.0888  0.4770  0.3547
17747TIP3    H174732   2.663   5.221   3.734  1.9887  1.8831 -0.4458
17747TIP3    H274733   2.670   5.228   3.583  2.5427 -0.5739 -0.5578
17748TIP3   OH274734   6.610   1.552   4.948 -0.3475 -0.5566 -0.0059
17748TIP3    H174735   6.568   1.494   4.884  0.5735 -3.0751  1.6152
17748TIP3    H274736   6.700   1.520   4.954  0.2788  1.2588  0.7041
17749TIP3   OH274737   5.621   3.931   3.122 -0.4422 -0.2742  0.3313
17749TIP3    H174738   5.609   3.844   3.083  0.7479 -1.5163  2.6770
17749TIP3    H274739   5.707   3.960   3.089 -0.6337 -0.1626 -0.0804
17750TIP3   OH274740   1.415   4.450   4.438  0.5297 -0.0338 -0.1251
17750TIP3    H174741   1.506   4.428   4.456  0.8648 -0.2527 -1.9518
17750TIP3    H274742   1.408   4.542   4.463  1.5901  0.3263 -1.0998
17751TIP3   OH274743   0.809   1.383   1.289  0.0881  0.0987  0.4032
17751TIP3    H174744   0.726   1.337   1.277 -0.5847  1.6612 -1.2245
17751TIP3    H274745   0.829   1.420   1.203  2.6649 -0.5186  0.6737
17752TIP3   OH274746   3.367   2.951   4.658 -0.5144 -0.2639 -0.1470
17752TIP3    H174747   3.444   2.996   4.624 -0.6080  1.1448  1.4126
17752TIP3    H274748   3.296   2.979   4.600 -0.5481  1.5453  0.7235
17753TIP3   OH274749   1.349   4.714   4.523  0.1295 -0.3436 -0.1930
17753TIP3    H174750   1.287   4.734   4.453 -0.0337 -0.4097 -0.0662
17753TIP3    H274751   1.295   4.679   4.594  0.3605 -0.7728 -0.2287
17754TIP3   OH274752   3.321   1.856   4.221  0.4348 -0.2570  0.6671
17754TIP3    H174753   3.271   1.919   4.273  0.6494 -0.2877  0.9093
17754TIP3    H274754   3.386   1.821   4.282  0.4781 -0.5270  0.4632
17755TIP3   OH274755   1.149   3.179   3.541 -0.2645  0.1523  0.3330
17755TIP3    H174756   1.080   3.134   3.590 -1.2115  0.3717 -0.7680
17755TIP3    H274757   1.188   3.239   3.604 -2.4507  1.5058  0.4415
17756TIP3   OH274758   1.927   2.004   5.571 -0.1802  0.4421 -0.3800
17756TIP3    H174759   1.997   1.992   5.635  1.0317  3.4283 -1.0978
17756TIP3    H274760   1.940   1.932   5.508  0.6086 -0.5712  0.9048
17757TIP3   OH274761   4.597   1.013   5.606  0.7778 -0.2374  0.2011
17757TIP3    H174762   4.511   1.054   5.608  1.1089  0.5776 -1.2316
17757TIP3    H274763   4.633   1.027   5.693 -1.2795 -2.2440  1.4104
17758TIP3   OH274764   0.420   3.316   5.219 -0.5873  0.5918  0.8110
17758TIP3    H174765   0.434   3.226   5.189 -0.4938  0.3504  1.5685
17758TIP3    H274766   0.325   3.323   5.229 -0.5094  0.1160  2.1140
17759TIP3   OH274767   5.133   5.727   5.022  0.2371  0.2363  0.5394
17759TIP3    H174768   5.068   5.748   4.956 -0.6414 -1.5123  0.8104
17759TIP3    H274769   5.203   5.791   5.009  0.9126 -1.1707 -3.2355
17760TIP3   OH274770   2.385   5.563   2.687 -0.5697  0.1241  0.3853
17760TIP3    H174771   2.421   5.620   2.755  0.0008 -1.1565  1.1606
17760TIP3    H274772   2.417   5.600   2.605 -0.0982  0.8369  0.8902
17761TIP3   OH274773   5.858   3.722   5.113  0.1180  0.3086  0.4168
17761TIP3    H174774   5.826   3.756   5.196  0.6670 -2.3061  1.7526
17761TIP3    H274775   5.779   3.701   5.063 -0.2196 -0.3459  1.2282
17762TIP3   OH274776   3.492   2.407   5.885  0.1441  0.0025 -0.5287
17762TIP3    H174777   3.435   2.432   5.958  0.2846 -0.2737 -0.3241
17762TIP3    H274778   3.432   2.390   5.813 -0.0389 -0.3908 -0.2834
17763TIP3   OH274779   2.879   0.798   1.376 -0.0506 -0.0885  0.3824
17763TIP3    H174780   2.940   0.764   1.310 -1.3723 -0.3700 -0.7329
17763TIP3    H274781   2.934   0.818   1.451  1.1589 -2.1335  0.0980
17764TIP3   OH274782   0.253   2.294   3.995 -0.7912 -0.4658 -0.1160
17764TIP3    H174783   0.232   2.295   4.089  1.6332 -3.2116  0.5392
17764TIP3    H274784   0.339   2.334   3.990  0.6993 -3.5871 -0.6330
17765TIP3   OH274785   1.475   2.815   4.359  0.5395 -0.0166 -0.4713
17765TIP3    H174786   1.538   2.743   4.355  0.2487 -0.3238  0.4522
17765TIP3    H274787   1.407   2.789   4.297  1.0684  0.0809 -1.1047
17766TIP3   OH274788   1.621   5.433   5.614  0.0390  0.5281 -0.0469
17766TIP3    H174789   1.669   5.362   5.657 -0.3679  0.6312  0.5941
17766TIP3    H274790   1.626   5.505   5.677 -0.2635  0.7921 -0.3311
17767TIP3   OH274791   2.927   2.332   4.209  0.0782 -0.1045 -0.0689
17767TIP3    H174792   2.867   2.405   4.223  0.5184  1.1406 -3.9508
17767TIP3    H274793   2.870   2.257   4.190 -0.3175  0.0429  0.5373
17768TIP3   OH274794   1.006   1.073   4.005  0.2326  0.2535  0.3693
17768TIP3    H174795   1.000   1.024   3.923 -0.0625  0.4918  0.2462
17768TIP3    H274796   0.921   1.117   4.012  0.9010  1.6522 -0.0911
17769TIP3   OH274797   6.487   4.985   2.731 -0.2797  0.3873  0.0541
17769TIP3    H174798   6.436   4.912   2.767  0.7034 -0.5642 -0.4565
17769TIP3    H274799   6.428   5.028   2.670 -0.6078 -0.4743 -0.2455
17770TIP3   OH274800   2.043   3.640   3.049  0.1890 -0.1724 -0.5423
17770TIP3    H174801   2.058   3.619   2.956 -0.3284  0.4288 -0.7629
17770TIP3    H274802   2.129   3.627   3.090  0.8110  1.0860 -1.4006
17771TIP3   OH274803   2.494   2.263   2.415 -0.5170  0.0787  0.0917
17771TIP3    H174804   2.406   2.263   2.452 -0.4083 -0.9834  0.3671
17771TIP3    H274805   2.548   2.309   2.481 -0.9570  1.1937 -0.3209
17772TIP3   OH274806   4.459   1.688   1.335  0.0749  0.4928  0.0226
17772TIP3    H174807   4.552   1.680   1.355  0.3925  0.7609 -1.2942
17772TIP3    H274808   4.435   1.601   1.303 -0.8032 -0.4050  2.9772
17773TIP3   OH274809   0.645   1.468   2.426 -0.4389  0.7005 -0.3175
17773TIP3    H174810   0.688   1.403   2.372  0.4171  2.7377 -2.1772
17773TIP3    H274811   0.552   1.461   2.403 -0.1729  1.0417 -1.5273
17774TIP3   OH274812   5.244   2.355   1.102  0.1648  0.7104  0.4691
17774TIP3    H174813   5.178   2.352   1.033  0.1007  0.2359  0.5479
17774TIP3    H274814   5.317   2.304   1.067  0.3617  0.9610  0.5137
17775TIP3   OH274815   6.677   2.761   4.792  0.3258  0.0348 -0.3917
17775TIP3    H174816   6.638   2.744   4.878  1.8544 -0.6000  0.1868
17775TIP3    H274817   6.708   2.675   4.762  1.6385  0.5897 -0.6578
17776TIP3   OH274818   2.237   1.696   4.260 -0.0989 -0.4593 -0.3020
17776TIP3    H174819   2.239   1.672   4.353  0.0766  1.1989  0.1417
17776TIP3    H274820   2.260   1.615   4.214  1.2120 -0.9630  1.1709
17777TIP3   OH274821   0.538   2.577   3.122 -0.0187 -0.5789  0.2577
17777TIP3    H174822   0.467   2.541   3.174  1.0349 -2.5589  0.3604
17777TIP3    H274823   0.496   2.613   3.044 -0.8304 -4.9991 -1.4473
17778TIP3   OH274824   5.324   0.420   4.236 -0.5274 -0.2872 -0.0439
17778TIP3    H174825   5.312   0.326   4.244  2.6179 -0.6068  1.5588
17778TIP3    H274826   5.400   0.431   4.179 -2.0803  1.3510 -1.8779
17779TIP3   OH274827   3.921   1.237   1.408  0.1024 -0.2421 -0.5031
17779TIP3    H174828   3.957   1.158   1.449  1.9359  0.1457 -1.3247
17779TIP3    H274829   3.836   1.209   1.372 -0.4354 -1.1876  1.4019
17780TIP3   OH274830   5.464   3.378   1.027  0.0056  0.0295  0.8075
17780TIP3    H174831   5.507   3.293   1.016 -0.7842 -0.0994 -1.4447
17780TIP3    H274832   5.376   3.357   1.057 -0.8655 -0.0747 -1.7410
17781TIP3   OH274833   0.107   2.376   5.328  0.3488 -0.1359  0.2194
17781TIP3    H174834   0.019   2.378   5.366  0.1053  3.7834 -0.4091
17781TIP3    H274835   0.147   2.458   5.356  3.1062 -0.9574 -1.1887
17782TIP3   OH274836   0.504   3.487   4.083 -0.2569  0.4044  0.5423
17782TIP3    H174837   0.449   3.543   4.138  2.0946  0.3885  2.9962
17782TIP3    H274838   0.559   3.548   4.035  0.6440  0.2981  1.4249
17783TIP3   OH274839   1.285   2.722   6.254  0.1073 -0.1583 -0.3477
17783TIP3    H174840   1.349   2.761   6.315  0.8445  0.4195 -1.4705
17783TIP3    H274841   1.269   2.791   6.189 -3.4329  0.5461  1.1812
17784TIP3   OH274842   0.877   1.138   2.884  0.0280 -0.1520  0.2583
17784TIP3    H174843   0.952   1.150   2.827 -1.1895 -0.3044 -1.4008
17784TIP3    H274844   0.877   1.045   2.906 -0.0054 -0.2586 -0.1995
17785TIP3   OH274845   0.409   3.797   4.894  0.5886  0.7945 -0.4675
17785TIP3    H174846   0.413   3.728   4.961  0.6618  1.6557  0.4335
17785TIP3    H274847   0.411   3.750   4.811  0.4709 -0.3004  0.1361
17786TIP3   OH274848   3.080   1.864   3.089  0.0902 -0.7861  0.3731
17786TIP3    H174849   3.045   1.910   3.165  0.3917  0.3395 -0.1681
17786TIP3    H274850   3.111   1.780   3.125  2.4503  0.7137  1.9375
17787TIP3   OH274851   4.826   2.116   3.703 -0.0518 -0.5254 -0.0117
17787TIP3    H174852   4.748   2.094   3.650 -0.7822  0.4414  0.6473
17787TIP3    H274853   4.790   2.156   3.782  1.0659 -1.4120  0.9561
17788TIP3   OH274854   5.121   4.499   5.288  0.0211  0.6556  0.0709
17788TIP3    H174855   5.212   4.471   5.302  0.3392  1.0065 -1.2151
17788TIP3    H274856   5.126   4.594   5.284 -0.5555  0.7305  0.9360
17789TIP3   OH274857   6.985   0.360   1.585  0.1713 -0.4282 -0.1394
17789TIP3    H174858   7.052   0.363   1.517 -0.7524 -2.0188 -1.1596
17789TIP3    H274859   7.034   0.358   1.667  1.2505  4.1431 -0.5965
17790TIP3   OH274860   2.679   4.858   2.746 -0.5392 -0.5414  0.2352
17790TIP3    H174861   2.653   4.790   2.684  0.3982  0.7291 -1.5983
17790TIP3    H274862   2.771   4.841   2.763 -0.2822  0.3119 -0.2924
17791TIP3   OH274863   6.350   2.315   3.144 -0.2812 -0.4202  0.4062
17791TIP3    H174864   6.292   2.286   3.214  0.1474  1.1623  1.4529
17791TIP3    H274865   6.437   2.287   3.173 -0.3593 -1.6322 -0.5235
17792TIP3   OH274866   6.232   1.570   5.626  0.4303 -0.2340  0.2222
17792TIP3    H174867   6.152   1.519   5.637  0.5443 -0.7016 -0.9970
17792TIP3    H274868   6.228   1.637   5.694 -0.3635 -1.0507  0.9955
17793TIP3   OH274869   3.642   4.284   4.833  0.4356  0.2117 -0.9647
17793TIP3    H174870   3.559   4.327   4.814  0.0463  1.1776  2.5778
17793TIP3    H274871   3.700   4.355   4.861  1.8875 -0.7095 -1.5438
17794TIP3   OH274872   0.679   4.163   4.670 -0.3152 -0.7712  0.6017
17794TIP3    H174873   0.747   4.120   4.721  1.0802  0.6079 -0.0829
17794TIP3    H274874   0.719   4.243   4.637 -1.8810 -0.5302 -0.8279
17795TIP3   OH274875   0.347   3.471   5.625  0.4141  0.0511  0.2714
17795TIP3    H174876   0.343   3.561   5.657  1.0133  0.0319  0.4028
17795TIP3    H274877   0.273   3.427   5.668  0.1339  0.4756  0.2214
17796TIP3   OH274878   5.999   1.108   5.257 -0.6106 -0.1796 -0.1970
17796TIP3    H174879   6.014   1.203   5.260  0.3294 -0.3517  0.8540
17796TIP3    H274880   6.072   1.071   5.305 -0.4522 -1.5196 -1.4413
17797TIP3   OH274881   6.654   2.679  14.424  0.3311 -0.2777 -0.0535
17797TIP3    H174882   6.727   2.670  14.485 -0.7280  0.7785  1.3935
17797TIP3    H274883   6.584   2.626  14.462 -1.3269  2.7631  1.2574
17798TIP3   OH274884   6.124   4.554   4.846  0.1520 -0.1616 -0.1039
17798TIP3    H174885   6.043   4.582   4.805  0.7627 -0.0911 -1.2683
17798TIP3    H274886   6.131   4.461   4.823  1.2572  0.2460 -1.4270
17799TIP3   OH274887   0.642   2.024   4.336  0.4323 -0.0790  0.5259
17799TIP3    H174888   0.726   2.048   4.374 -0.3479  0.0707  2.1766
17799TIP3    H274889   0.600   2.108   4.315  0.9191 -0.1589 -0.8400
17800TIP3   OH274890   1.024   5.576   2.166 -0.5638 -0.0288 -0.1552
17800TIP3    H174891   0.984   5.644   2.220 -0.4396 -1.0835  1.2728
17800TIP3    H274892   1.008   5.605   2.076 -0.6322  1.8254  0.4286
17801TIP3   OH274893   6.880   1.150   3.259 -0.0889  0.4081 -0.2180
17801TIP3    H174894   6.941   1.171   3.188  1.3558  0.6942  1.0723
17801TIP3    H274895   6.932   1.163   3.339 -1.2140 -1.4176  0.8388
17802TIP3   OH274896   0.296   2.775   4.097 -0.1199 -0.0219 -0.6889
17802TIP3    H174897   0.260   2.844   4.152 -1.5182  1.0142 -2.8205
17802TIP3    H274898   0.386   2.764   4.127  0.1658  2.8268 -0.3695
17803TIP3   OH274899   2.402   3.557   4.949 -0.1074 -0.8383  0.0917
17803TIP3    H174900   2.355   3.518   4.876 -0.9013  0.2237  0.0256
17803TIP3    H274901   2.475   3.603   4.908 -1.2380  0.7648 -0.1498
17804TIP3   OH274902   0.520   3.920   4.056 -0.3231 -0.4908 -0.2784
17804TIP3    H174903   0.529   4.014   4.040  0.6917 -0.7876 -1.5559
17804TIP3    H274904   0.432   3.911   4.094 -0.5072  0.9479 -0.3073
17805TIP3   OH274905   3.244   1.359   4.016  0.0053 -0.0811 -0.0884
17805TIP3    H174906   3.329   1.393   3.990 -0.3498  0.0594 -1.0938
17805TIP3    H274907   3.222   1.406   4.097  1.5967 -1.2773  1.0678
17806TIP3   OH274908   6.237   1.158   3.321  0.4049  0.3544 -0.3493
17806TIP3    H174909   6.204   1.247   3.334 -1.6863 -0.1594 -1.9746
17806TIP3    H274910   6.216   1.112   3.403 -0.4390  0.7724 -0.3307
17807TIP3   OH274911   3.607   2.177   5.602 -0.0698  0.6258  0.4270
17807TIP3    H174912   3.672   2.234   5.561  0.8463 -0.9022 -0.2881
17807TIP3    H274913   3.659   2.110   5.647 -1.1344 -0.6348 -0.1779
17808TIP3   OH274914   1.899   5.499   2.515 -0.2407  0.2460  0.4758
17808TIP3    H174915   1.972   5.437   2.517  1.0152  1.6410 -0.5578
17808TIP3    H274916   1.842   5.467   2.446  0.5649  0.3969 -0.2719
17809TIP3   OH274917   6.215   3.450   4.136 -0.0724 -0.2503  0.6700
17809TIP3    H174918   6.202   3.543   4.154 -0.2899 -0.0438 -0.5458
17809TIP3    H274919   6.222   3.410   4.223  0.1805  0.9163  1.1968
17810TIP3   OH274920   1.701   5.996   2.590  0.4276  0.9070 -0.5747
17810TIP3    H174921   1.637   6.003   2.519  0.2581  2.7367 -0.2638
17810TIP3    H274922   1.785   6.009   2.547  0.5360 -0.5544 -0.8320
17811TIP3   OH274923   1.029   0.766   2.607  0.5090  0.7134  0.1037
17811TIP3    H174924   1.037   0.704   2.534 -2.0532 -1.0334  1.2166
17811TIP3    H274925   0.940   0.800   2.598  0.7876  1.7858  1.4061
17812TIP3   OH274926   0.727   4.134   5.252 -0.2541 -0.0626 -0.8493
17812TIP3    H174927   0.699   4.073   5.184 -0.2286 -2.0248  0.8590
17812TIP3    H274928   0.724   4.083   5.333  0.0571  2.1257  0.5815
17813TIP3   OH274929   2.810   5.157   5.054  0.1491  0.3399 -0.0005
17813TIP3    H174930   2.889   5.171   5.107  0.4081  1.1656 -0.5909
17813TIP3    H274931   2.770   5.078   5.090  0.3226  0.8893  1.4404
17814TIP3   OH274932   0.414   5.471   4.284 -0.1206  0.1881 -0.1384
17814TIP3    H174933   0.414   5.445   4.192  0.7270  0.8953 -0.3435
17814TIP3    H274934   0.322   5.468   4.310 -0.4636  0.8525 -1.2543
17815TIP3   OH274935   5.121   4.847   5.292 -0.3139 -0.1925 -0.4447
17815TIP3    H174936   5.071   4.886   5.220  0.2792  0.3696 -0.5561
17815TIP3    H274937   5.181   4.916   5.320  1.3256 -1.2567 -1.1926
17816TIP3   OH274938   2.716   7.175   4.099  0.2455 -0.2084 -0.0185
17816TIP3    H174939   2.677   7.122   4.168 -3.3325  1.2102 -0.8413
17816TIP3    H274940   2.705   7.123   4.019  2.1167 -0.7531  0.0472
17817TIP3   OH274941   5.004   2.482   4.099  0.0935 -0.2746  0.2109
17817TIP3    H174942   4.920   2.504   4.058 -0.5024 -0.0154  1.5364
17817TIP3    H274943   5.033   2.563   4.140  0.9080 -0.4097 -0.0899
17818TIP3   OH274944   3.197   6.519   5.623  0.1153  0.0936 -0.2261
17818TIP3    H174945   3.231   6.512   5.533  0.1190 -0.2937 -0.1946
17818TIP3    H274946   3.102   6.520   5.612  0.0950 -0.7892 -0.1803
17819TIP3   OH274947   3.715   6.397   3.819 -0.5539  0.1711 -0.2198
17819TIP3    H174948   3.628   6.421   3.850 -0.5588  0.6755 -0.6143
17819TIP3    H274949   3.759   6.481   3.802  0.0223 -0.0761  0.0123
17820TIP3   OH274950   3.900   3.941   0.964 -0.2970  0.1675 -0.7011
17820TIP3    H174951   3.834   4.009   0.973 -0.2605  0.0027  1.1143
17820TIP3    H274952   3.984   3.987   0.972 -0.2019  0.2303 -1.9354
17821TIP3   OH274953   1.138   5.974   3.413  0.5779  0.0770  0.0495
17821TIP3    H174954   1.206   5.965   3.480  0.1613 -1.1925  0.3253
17821TIP3    H274955   1.081   5.899   3.428 -1.7237  1.9309  0.7656
17822TIP3   OH274956   3.009   1.224   1.189 -0.3838  0.1649 -0.3909
17822TIP3    H174957   2.950   1.173   1.245  0.9727 -1.8076 -0.7397
17822TIP3    H274958   2.952   1.257   1.119 -1.1519 -1.4791 -0.5650
17823TIP3   OH274959   4.242   1.798   4.280 -0.2237  0.1014 -0.3392
17823TIP3    H174960   4.272   1.855   4.210  0.2265  0.5791  0.2385
17823TIP3    H274961   4.304   1.813   4.351  0.3225 -1.6276 -0.4279
17824TIP3   OH274962   1.736   7.140   3.419  0.1822  0.3992 -0.2272
17824TIP3    H174963   1.678   7.172   3.488 -2.7376 -1.6625 -1.6164
17824TIP3    H274964   1.686   7.152   3.338  0.9274 -2.9712 -1.2955
17825TIP3   OH274965   4.176   3.026   3.878 -0.0194 -0.4375  0.2165
17825TIP3    H174966   4.206   2.986   3.960 -0.0934  1.5835  1.2492
17825TIP3    H274967   4.255   3.061   3.838 -0.1796 -0.2000  0.1054
17826TIP3   OH274968   0.679   5.815   4.930  0.3287  0.7991 -0.2379
17826TIP3    H174969   0.771   5.790   4.917  0.2783  0.2507  0.3955
17826TIP3    H274970   0.630   5.753   4.876  0.3421  1.1998 -0.7070
17827TIP3   OH274971   3.822   6.748   4.025  0.2592 -0.1753  0.1850
17827TIP3    H174972   3.793   6.734   3.934 -0.4489  1.9757  0.0717
17827TIP3    H274973   3.800   6.666   4.069  0.8092 -1.3427 -1.6187
17828TIP3   OH274974   1.868   4.383   3.794 -0.0359 -0.0825  0.0901
17828TIP3    H174975   1.832   4.402   3.881 -0.3588 -0.9676  0.1546
17828TIP3    H274976   1.850   4.462   3.743 -2.3199 -0.6194  0.0368
17829TIP3   OH274977   2.350   2.071   4.067  0.1257  0.4107  0.3008
17829TIP3    H174978   2.365   1.978   4.051 -1.7399  0.2455 -0.6295
17829TIP3    H274979   2.366   2.082   4.160  0.0678 -0.9222  0.4847
17830TIP3   OH274980   4.605   3.505   4.430  0.0037 -0.0849  0.4077
17830TIP3    H174981   4.690   3.463   4.417  0.2128  0.7236 -0.8794
17830TIP3    H274982   4.572   3.521   4.342 -0.6114  1.3535  0.8831
17831TIP3   OH274983   4.082   1.619   3.515 -0.5525 -0.2263  0.1346
17831TIP3    H174984   4.166   1.596   3.555 -0.6949 -1.1537 -0.0931
17831TIP3    H274985   4.086   1.714   3.506  0.4289 -0.2450  0.2266
17832TIP3   OH274986   5.464   2.073   4.248  0.6462  0.1658 -0.0908
17832TIP3    H174987   5.505   2.148   4.291  1.6960 -0.8092  0.6290
17832TIP3    H274988   5.384   2.057   4.298  0.9866  0.1111  0.4325
17833TIP3   OH274989   3.069   4.995   5.393  0.3796 -0.5115  0.4770
17833TIP3    H174990   3.061   5.086   5.362  2.1647 -0.8882 -1.1085
17833TIP3    H274991   3.156   4.968   5.367  0.4598 -2.1829  2.3838
17834TIP3   OH274992   1.508   4.950   5.421  0.1076  0.0254 -0.2636
17834TIP3    H174993   1.491   4.889   5.349  1.5167 -0.8583  0.1208
17834TIP3    H274994   1.475   4.905   5.498 -0.5464  0.5641 -0.2301
17835TIP3   OH274995   6.441   5.960   3.958  0.3535 -0.1767 -0.3199
17835TIP3    H174996   6.374   5.907   4.001  0.0796 -0.1044 -0.6482
17835TIP3    H274997   6.460   6.030   4.019 -1.1962  0.8412 -0.9725
17836TIP3   OH274998   4.015   5.231   1.402  0.4600 -0.1210  0.8142
17836TIP3    H174999   3.969   5.307   1.438  1.3307  0.4554  0.7058
17836TIP3    H275000   4.103   5.236   1.437  1.6238  1.0211 -2.1491
17837TIP3   OH275001   3.896   1.672   5.512 -0.2466  0.1747 -0.3096
17837TIP3    H175002   3.900   1.654   5.606  3.3471  1.5555 -0.1234
17837TIP3    H275003   3.849   1.598   5.475 -0.2394 -1.2313  2.3710
17838TIP3   OH275004   6.694   1.278   2.438 -0.2355  0.1862 -0.0863
17838TIP3    H175005   6.618   1.263   2.381 -0.1111 -0.5796 -0.0658
17838TIP3    H275006   6.724   1.190   2.460  1.1180  0.4896 -0.7086
17839TIP3   OH275007   3.595   3.778   0.137  0.4926  0.4355 -0.2428
17839TIP3    H175008   3.518   3.729   0.107  0.8346  0.1361 -0.6350
17839TIP3    H275009   3.570   3.811   0.223 -0.6727  1.6752 -1.0383
17840TIP3   OH275010   1.582   5.222   5.817  0.1640 -0.2338 -0.5063
17840TIP3    H175011   1.617   5.267   5.894 -0.7812  1.9406 -1.3096
17840TIP3    H275012   1.490   5.248   5.813 -0.2641 -1.8123 -1.3077
17841TIP3   OH275013   1.873   1.329   4.766 -0.6505 -0.1064  0.1171
17841TIP3    H175014   1.792   1.374   4.788 -1.6449 -1.4172 -0.8100
17841TIP3    H275015   1.868   1.246   4.814  0.0323 -0.2972 -0.1347
17842TIP3   OH275016   6.342   4.472   6.163 -0.5770 -0.5576 -0.8088
17842TIP3    H175017   6.331   4.562   6.133  0.7570 -0.1319 -0.0915
17842TIP3    H275018   6.258   4.430   6.148 -1.1080  0.7321 -1.4397
17843TIP3   OH275019   0.208   2.586   2.708  0.2264 -0.2249  0.0550
17843TIP3    H175020   0.186   2.676   2.684 -1.8974 -0.3380  1.5230
17843TIP3    H275021   0.179   2.577   2.799 -0.0788 -2.5529 -0.2371
17844TIP3   OH275022   3.765   6.374   1.610  0.4478  0.0615  0.0814
17844TIP3    H175023   3.776   6.337   1.522 -0.1402 -3.9786  1.6067
17844TIP3    H275024   3.672   6.364   1.628  0.6195  0.5935  1.2955
17845TIP3   OH275025   1.220   3.530   5.998 -0.0728 -0.2344 -0.0261
17845TIP3    H175026   1.249   3.459   5.941 -0.7805 -0.3317 -0.2648
17845TIP3    H275027   1.300   3.578   6.018  0.1922 -0.2366 -1.0526
17846TIP3   OH275028   6.552   1.656   0.469  0.5390  0.1546  0.0959
17846TIP3    H175029   6.587   1.603   0.541  3.1971 -1.4497 -2.2990
17846TIP3    H275030   6.509   1.593   0.412  2.0919  0.7908 -1.8136
17847TIP3   OH275031   5.381   4.242   4.843  0.8300 -0.1861  0.5047
17847TIP3    H175032   5.303   4.226   4.789  0.3695  0.0839  1.0894
17847TIP3    H275033   5.442   4.174   4.816  0.5512 -0.1467 -0.2627
17848TIP3   OH275034   1.601   6.696   4.034  0.7470  0.3599  0.8726
17848TIP3    H175035   1.529   6.705   4.097 -1.2873 -1.7207 -1.0654
17848TIP3    H275036   1.662   6.636   4.075  0.0559  0.0133  1.4081
17849TIP3   OH275037   6.164   2.427   5.843  0.5063 -0.0279  0.3515
17849TIP3    H175038   6.249   2.396   5.873  0.5032  0.7173  1.1700
17849TIP3    H275039   6.110   2.426   5.923  0.5017  2.0336  0.3822
17850TIP3   OH275040   6.302   2.955   5.174  0.3408  0.1029  0.2429
17850TIP3    H175041   6.286   2.988   5.086  0.2323 -2.5999 -0.8101
17850TIP3    H275042   6.375   2.894   5.164 -1.3451 -2.2485  1.4873
17851TIP3   OH275043   3.344   2.361   5.008 -0.0730 -0.5292  0.3520
17851TIP3    H175044   3.409   2.292   5.020  1.5329  0.6908 -1.1038
17851TIP3    H275045   3.388   2.426   4.953 -2.5851  0.2705 -0.7518
17852TIP3   OH275046   6.968   0.971   5.592 -0.0809  0.5553 -0.4494
17852TIP3    H175047   6.907   0.996   5.523 -0.4463  0.2882 -0.2204
17852TIP3    H275048   6.967   1.046   5.652 -0.3983  0.4307 -0.2980
17853TIP3   OH275049   5.318   3.055   5.614  0.3661 -0.3433  0.7001
17853TIP3    H175050   5.349   3.072   5.703 -0.2846  2.1782  0.4838
17853TIP3    H275051   5.380   3.102   5.558  0.8696 -2.0520 -0.2115
17854TIP3   OH275052   6.453   0.882   3.837  0.0309 -0.2517 -0.2561
17854TIP3    H175053   6.479   0.831   3.760  0.6246 -0.3958  0.0421
17854TIP3    H275054   6.363   0.909   3.818  0.9948  1.8506 -2.1513
17855TIP3   OH275055   2.101   1.954   2.651  0.6317 -0.4954  0.1272
17855TIP3    H175056   2.038   1.969   2.581 -1.5430 -0.2173  2.0651
17855TIP3    H275057   2.158   2.031   2.649 -1.2919  0.9902  0.5369
17856TIP3   OH275058   3.108   4.264   4.354 -0.0994  0.0613  0.3906
17856TIP3    H175059   3.055   4.295   4.281 -1.8787 -1.4447  0.9942
17856TIP3    H275060   3.167   4.199   4.315 -0.2365  0.1206  0.0851
17857TIP3   OH275061   0.062   1.526   5.487  0.0502  0.3331  0.5624
17857TIP3    H175062   0.095   1.573   5.563  0.5361  0.0816  0.5137
17857TIP3    H275063   0.140   1.510   5.433  0.1711 -1.8706  1.3159
17858TIP3   OH275064   0.481   2.697   4.384  0.8876  0.0066 -0.4679
17858TIP3    H175065   0.412   2.759   4.409 -0.8725 -2.1457  0.1635
17858TIP3    H275066   0.499   2.647   4.463  2.0153 -0.5459 -1.0552
17859TIP3   OH275067   4.197   1.112   4.866  0.2302  0.2964 -0.4729
17859TIP3    H175068   4.101   1.114   4.868  0.2111 -0.1216 -0.8337
17859TIP3    H275069   4.218   1.034   4.815  0.7679  0.1672 -0.0523
17860TIP3   OH275070   6.675   0.759   3.103 -0.4252  0.1465  0.2130
17860TIP3    H175071   6.765   0.793   3.106 -1.0780  1.9357  0.2145
17860TIP3    H275072   6.625   0.830   3.062 -2.2040 -0.0013  2.1231
17861TIP3   OH275073   0.323   3.339   3.458 -0.2354  0.0609  0.1590
17861TIP3    H175074   0.336   3.412   3.518  0.1324 -1.3989  1.8880
17861TIP3    H275075   0.313   3.262   3.515 -2.0032 -1.0437 -1.5570
17862TIP3   OH275076   5.832   6.974  15.548  0.1116 -0.2054  0.0255
17862TIP3    H175077   5.770   6.909  15.516  0.4554  0.2768 -1.6912
17862TIP3    H275078   5.826   7.045  15.485  2.2071 -0.0258  0.0071
17863TIP3   OH275079   5.992   1.531   2.957  0.1821 -0.1831  0.7927
17863TIP3    H175080   5.901   1.503   2.960 -0.0518  0.3788 -0.6821
17863TIP3    H275081   6.033   1.473   2.893  0.9100 -0.5331  1.5573
17864TIP3   OH275082   0.250   0.923   2.317 -0.1289 -0.5806  0.5904
17864TIP3    H175083   0.309   0.958   2.384  1.3563 -1.0426 -0.4552
17864TIP3    H275084   0.167   0.910   2.363  0.1418  1.4695  1.7211
17865TIP3   OH275085   0.645   3.638   3.899  0.0392 -0.4589  0.1828
17865TIP3    H175086   0.685   3.724   3.887  1.3845 -1.1867 -0.5671
17865TIP3    H275087   0.708   3.576   3.864 -1.1186 -1.7363  0.2973
17866TIP3   OH275088   5.941   1.752   5.355 -0.3512  0.1091  0.2447
17866TIP3    H175089   6.027   1.782   5.385  0.4707 -1.2584 -0.6760
17866TIP3    H275090   5.944   1.760   5.260 -1.4588  0.6015  0.2484
17867TIP3   OH275091   1.855   6.300   4.684  0.0161  0.1176  0.3301
17867TIP3    H175092   1.923   6.326   4.622 -0.3590  1.5836  0.5304
17867TIP3    H275093   1.785   6.263   4.629 -0.1488  1.0505 -0.0882
17868TIP3   OH275094   1.811   2.397   5.341 -0.3259  0.4464  0.3665
17868TIP3    H175095   1.751   2.470   5.323 -1.7972 -1.2367 -1.7461
17868TIP3    H275096   1.777   2.358   5.422 -1.0736  0.5223  0.0936
17869TIP3   OH275097   4.902   6.960   4.652  0.7266  0.4088 -0.1309
17869TIP3    H175098   4.862   6.946   4.738  0.6769 -1.6132 -0.4567
17869TIP3    H275099   4.936   7.050   4.656  0.4608  0.4531  1.8835
17870TIP3   OH275100   3.283   4.980   4.088  0.0698 -0.4509 -0.6113
17870TIP3    H175101   3.320   4.895   4.063 -1.8266 -1.5235  0.1783
17870TIP3    H275102   3.299   4.986   4.182 -0.0928 -0.0641 -0.6082
17871TIP3   OH275103   2.930   0.867   2.261  0.2901 -0.1689  0.2384
17871TIP3    H175104   2.990   0.868   2.336  0.2550 -1.1796  0.2833
17871TIP3    H275105   2.846   0.897   2.296  0.7446  1.2286  0.1813
17872TIP3   OH275106   2.997   0.159   3.345 -0.0682  0.2030 -0.4168
17872TIP3    H175107   2.969   0.175   3.435 -0.5411  2.3714 -0.9208
17872TIP3    H275108   3.011   0.065   3.341 -0.3361  0.0338  1.8415
17873TIP3   OH275109   2.178   4.393   2.868  0.3151 -0.4649  0.0759
17873TIP3    H175110   2.137   4.329   2.810  0.4169 -0.6610  0.2186
17873TIP3    H275111   2.166   4.357   2.956  0.9098 -0.5856  0.1062
17874TIP3   OH275112   3.942   2.586   6.038 -0.0770 -0.0248 -0.0132
17874TIP3    H175113   3.872   2.651   6.050 -0.3162 -0.4119  0.7012
17874TIP3    H275114   3.916   2.537   5.960 -1.4285 -1.1952  1.1301
17875TIP3   OH275115   6.458   3.731   2.827  0.0424 -0.5550  0.0357
17875TIP3    H175116   6.539   3.696   2.864  0.0586 -1.5994 -0.9529
17875TIP3    H275117   6.404   3.753   2.904  0.7326 -1.1154  0.6872
17876TIP3   OH275118   2.658   5.062   5.526  0.3723  0.5613  0.0443
17876TIP3    H175119   2.658   5.145   5.478 -0.7011  0.9323  0.6552
17876TIP3    H275120   2.713   5.078   5.603  0.5435  0.5662 -0.0808
17877TIP3   OH275121   7.056   6.057   4.328  0.5504 -0.6887 -0.6395
17877TIP3    H175122   7.063   5.963   4.338  2.0501 -0.5077  0.2526
17877TIP3    H275123   7.143   6.084   4.296  1.0309  0.6797  1.6739
17878TIP3   OH275124   6.541   2.049   1.098  0.0187 -0.3724 -0.1829
17878TIP3    H175125   6.539   2.140   1.127 -0.4278  0.5217 -2.8976
17878TIP3    H275126   6.453   2.016   1.118 -0.1036  0.0434 -0.0385
17879TIP3   OH275127   1.227   3.793   4.480  0.3877 -0.2613  0.1642
17879TIP3    H175128   1.175   3.868   4.511  0.2982 -1.0649  2.0420
17879TIP3    H275129   1.163   3.723   4.470  0.7531 -0.5979  0.1927
17880TIP3   OH275130   3.594   1.210   4.131 -0.1120 -0.6380  0.0849
17880TIP3    H175131   3.601   1.163   4.214 -1.2789 -0.7832  0.1056
17880TIP3    H275132   3.679   1.253   4.121  0.8973 -2.5779  0.1596
17881TIP3   OH275133   6.913   1.458   3.473 -0.1060 -0.6584  0.7060
17881TIP3    H175134   6.930   1.545   3.509  2.6002 -1.3160  1.0975
17881TIP3    H275135   6.911   1.400   3.549 -1.8881 -0.9748  0.4453
17882TIP3   OH275136   2.499   1.586   5.950  1.0799  0.3163 -0.3094
17882TIP3    H175137   2.498   1.497   5.914  0.9679 -0.7335  2.2550
17882TIP3    H275138   2.577   1.626   5.910  2.5295 -1.7185  0.3779
17883TIP3   OH275139   1.965   2.860   3.944  0.1160 -0.0615 -0.0301
17883TIP3    H175140   1.904   2.933   3.952  0.5271  0.3190 -0.3314
17883TIP3    H275141   1.911   2.787   3.911  0.2287  0.8723 -2.4373
17884TIP3   OH275142   3.305   4.649   3.270 -0.1993  0.2145  0.3629
17884TIP3    H175143   3.345   4.596   3.339  0.1678  1.6093  1.2305
17884TIP3    H275144   3.273   4.585   3.206 -0.2902 -1.0685  1.6812
17885TIP3   OH275145   4.329   3.082   0.181 -0.2841  0.2998 -0.4243
17885TIP3    H175146   4.246   3.068   0.227  0.1848 -0.8105  0.0949
17885TIP3    H275147   4.389   3.113   0.248  0.1291 -0.3622 -0.4785
17886TIP3   OH275148   1.555   3.482   4.493  0.2719  0.3158  0.1175
17886TIP3    H175149   1.534   3.568   4.528 -1.5525 -0.4984  1.0551
17886TIP3    H275150   1.471   3.442   4.474  1.1443 -0.3982 -2.4961
17887TIP3   OH275151   5.817   2.313   2.075  0.1601  0.1226 -0.2297
17887TIP3    H175152   5.816   2.364   2.156  1.6656  0.4303 -0.3862
17887TIP3    H275153   5.869   2.366   2.014  0.6921 -1.0144 -0.7843
17888TIP3   OH275154   1.495   6.449   4.889  0.2132  0.3980  0.2130
17888TIP3    H175155   1.519   6.364   4.924 -1.3129 -0.5561 -0.9697
17888TIP3    H275156   1.571   6.477   4.837  1.2592  0.4207  1.7319
17889TIP3   OH275157   0.884   2.604   5.367 -0.0694 -0.2524  0.2360
17889TIP3    H175158   0.922   2.522   5.401 -0.4042 -0.4092  0.2304
17889TIP3    H275159   0.822   2.576   5.301 -0.8505 -0.0382  0.8721
17890TIP3   OH275160   2.626   3.678   5.492  0.7383 -0.0707  0.0547
17890TIP3    H175161   2.714   3.642   5.479  0.3627 -0.8416 -0.3510
17890TIP3    H275162   2.628   3.713   5.581  1.5465  0.1849 -0.0513
17891TIP3   OH275163   2.994   0.699   4.409  0.0853  0.1965 -0.0689
17891TIP3    H175164   2.965   0.619   4.452  0.3728 -0.2463 -0.7014
17891TIP3    H275165   2.920   0.759   4.417 -0.0069 -0.0191  0.6937
17892TIP3   OH275166   7.169   1.499   5.138 -0.2840  0.2085  0.1128
17892TIP3    H175167   7.126   1.422   5.175 -0.8973  0.2559 -0.5008
17892TIP3    H275168   7.244   1.514   5.196 -0.0759 -0.9343  0.1564
17893TIP3   OH275169   4.474   1.402   3.354  0.1825 -0.5315  0.0029
17893TIP3    H175170   4.464   1.400   3.258  0.3441 -0.5061 -0.0141
17893TIP3    H275171   4.523   1.322   3.375  1.9288  0.4981 -0.1375
17894TIP3   OH275172   0.609   2.611   3.404  0.3120  0.6182 -0.2768
17894TIP3    H175173   0.601   2.627   3.310 -0.5477 -0.4538 -0.3824
17894TIP3    H275174   0.560   2.683   3.445  1.4366  1.5985 -0.6061
17895TIP3   OH275175   0.479   2.452   5.709  0.0943  0.0293 -0.3517
17895TIP3    H175176   0.478   2.414   5.797 -0.0222  0.5256 -0.1330
17895TIP3    H275177   0.432   2.535   5.718 -0.9370 -0.4657 -1.1474
17896TIP3   OH275178   0.460   3.778   2.321  0.3500  0.4231  0.4086
17896TIP3    H175179   0.530   3.814   2.266 -0.6665  0.3397 -0.9969
17896TIP3    H275180   0.499   3.701   2.363  1.2712  0.7178  0.1079
17897TIP3   OH275181   1.155   3.077   4.943 -0.1002 -0.2311 -0.3332
17897TIP3    H175182   1.225   3.141   4.934  1.2959 -1.5700  0.6483
17897TIP3    H275183   1.197   2.992   4.926 -1.4642 -1.0618  0.3173
17898TIP3   OH275184   4.831   4.177   4.887  0.2591  0.5419  0.5858
17898TIP3    H175185   4.916   4.184   4.930  0.4774 -0.4410  0.3174
17898TIP3    H275186   4.835   4.095   4.839 -0.6853  0.7067  0.2190
17899TIP3   OH275187   2.751   0.750   3.295  0.0107 -0.0602 -0.1273
17899TIP3    H175188   2.782   0.676   3.243  0.3552  0.6805 -0.9884
17899TIP3    H275189   2.667   0.721   3.330 -0.0262 -0.7228 -0.7521
17900TIP3   OH275190   3.196   3.738   5.686 -0.7266  0.1931  0.5080
17900TIP3    H175191   3.232   3.659   5.726 -1.6050 -1.4380 -1.7887
17900TIP3    H275192   3.102   3.722   5.682 -0.7312  0.5697 -1.6012
17901TIP3   OH275193   2.176   6.412   1.520 -0.1952 -0.1019 -0.5102
17901TIP3    H175194   2.230   6.478   1.476 -0.2104  1.3611  1.5475
17901TIP3    H275195   2.231   6.334   1.524  0.6119  0.4345 -1.1548
17902TIP3   OH275196   4.198   0.973   4.415  0.4101 -0.0497  0.0820
17902TIP3    H175197   4.115   0.945   4.377  1.6555 -0.1901 -2.6644
17902TIP3    H275198   4.177   1.050   4.466 -1.3496  0.1437 -0.9074
17903TIP3   OH275199   0.887   2.062   4.818 -0.0947 -0.4638 -0.4355
17903TIP3    H175200   0.925   2.058   4.906 -3.0980 -1.2475  0.9168
17903TIP3    H275201   0.835   2.143   4.819 -1.4612 -1.3249 -0.9048
17904TIP3   OH275202   2.954   6.440   3.348 -0.3402 -0.0041  0.2263
17904TIP3    H175203   3.022   6.498   3.312  1.1568 -2.0306 -0.3160
17904TIP3    H275204   3.000   6.358   3.366 -2.5799 -1.2817  0.2749
17905TIP3   OH275205   2.909   0.546   5.135  1.0751 -0.7119 -0.0050
17905TIP3    H175206   2.849   0.480   5.100 -1.1252  0.7298  0.9371
17905TIP3    H275207   2.946   0.588   5.057 -0.2102 -0.6729 -0.6085
17906TIP3   OH275208   0.717   5.843   5.202 -0.3009  0.5838 -0.0072
17906TIP3    H175209   0.695   5.751   5.189  1.1963 -0.0883  1.9832
17906TIP3    H275210   0.686   5.886   5.123 -0.1854 -1.7782 -1.3891
17907TIP3   OH275211   6.395   4.907   5.437 -0.1152  0.3738 -0.0154
17907TIP3    H175212   6.447   4.862   5.371 -1.4830  0.7355 -1.3799
17907TIP3    H275213   6.411   4.859   5.518  1.1021 -0.4569 -0.7440
17908TIP3   OH275214   3.705   1.240   4.685  0.4795 -0.4780  0.0521
17908TIP3    H175215   3.749   1.319   4.654 -2.5852  0.6168 -1.7271
17908TIP3    H275216   3.765   1.168   4.662  2.0782  1.0662 -0.7357
17909TIP3   OH275217   2.578   4.200   2.912  0.0610 -0.1402  0.5536
17909TIP3    H175218   2.638   4.146   2.861  0.7034 -0.0513  1.2122
17909TIP3    H275219   2.531   4.139   2.968 -0.5862 -0.2285 -0.0865
17910TIP3   OH275220   4.245   3.188   3.653  1.1628  0.2675  0.4551
17910TIP3    H175221   4.158   3.152   3.637  1.3525 -0.8079  1.7686
17910TIP3    H275222   4.288   3.186   3.567  0.4010 -0.5962  0.0930
17911TIP3   OH275223   3.425   2.477   4.046  0.5722 -0.2061  0.1514
17911TIP3    H175224   3.473   2.394   4.041  1.5361  0.3400  0.0514
17911TIP3    H275225   3.489   2.542   4.015 -0.2443  0.5382  0.0275
17912TIP3   OH275226   4.902   6.234   3.748 -0.6446  0.0951  0.2173
17912TIP3    H175227   4.970   6.178   3.785 -0.1597  0.1981 -0.5165
17912TIP3    H275228   4.922   6.321   3.784  1.0755  0.6234 -1.8906
17913TIP3   OH275229   2.083   7.043  15.520  0.3516 -0.4729  0.3748
17913TIP3    H175230   2.071   6.978  15.590 -0.0990  0.7771  1.4868
17913TIP3    H275231   2.049   7.124  15.557  0.0096  0.1922 -1.3567
17914TIP3   OH275232   3.809   4.830   4.313  0.8265 -0.0809 -0.4105
17914TIP3    H175233   3.831   4.919   4.286  0.0642  0.3719  0.3980
17914TIP3    H275234   3.778   4.840   4.403  1.1084 -1.2211 -0.1777
17915TIP3   OH275235   3.662   3.830   5.961  0.1564  0.5102  0.7330
17915TIP3    H175236   3.582   3.781   5.941  0.3344 -0.2762  1.8708
17915TIP3    H275237   3.646   3.918   5.927 -0.8106  0.0935  0.0954
17916TIP3   OH275238   1.752   3.859   4.771 -0.0444 -0.1008 -0.2934
17916TIP3    H175239   1.837   3.887   4.804 -0.4427 -0.9405  1.5534
17916TIP3    H275240   1.701   3.940   4.763 -0.5676 -0.0209  3.1334
17917TIP3   OH275241   1.776   4.028   3.466 -0.0272  0.3343 -1.0178
17917TIP3    H175242   1.800   4.076   3.545 -0.8332 -0.0037 -0.5576
17917TIP3    H275243   1.796   3.937   3.486 -0.1624  0.2578 -1.2318
17918TIP3   OH275244   2.469   6.801  15.549  0.5124 -0.1525  0.4448
17918TIP3    H175245   2.480   6.861  15.475  2.0836  0.6217  1.2778
17918TIP3    H275246   2.382   6.763  15.536 -0.9034  2.9352  0.3710
17919TIP3   OH275247   2.172   4.924  15.477  0.1150  0.2993  0.0616
17919TIP3    H175248   2.263   4.900  15.460  0.1115  0.5034 -0.2442
17919TIP3    H275249   2.122   4.846  15.453  0.3889 -0.6257  2.3741
17920TIP3   OH275250   3.834   5.436   2.331 -0.3017  0.3226  0.0393
17920TIP3    H175251   3.760   5.391   2.290 -0.3371 -1.1684  1.6861
17920TIP3    H275252   3.795   5.510   2.377 -0.3357  1.6324 -2.0435
17921TIP3   OH275253   6.874   0.753   2.477 -0.1045  0.2137  0.9183
17921TIP3    H175254   6.869   0.657   2.471  1.0028  0.2309 -0.5715
17921TIP3    H275255   6.940   0.769   2.543 -0.3515 -0.0456  1.2335
17922TIP3   OH275256   3.149   5.799   5.697  0.3467  0.2435  0.3749
17922TIP3    H175257   3.126   5.866   5.632  1.2284  0.5701  0.3991
17922TIP3    H275258   3.244   5.798   5.698  0.3377  0.1422  1.5703
17923TIP3   OH275259   3.499   2.041   5.379 -0.0524  0.1025  0.2084
17923TIP3    H175260   3.517   2.066   5.469  1.1186  0.4653 -0.1248
17923TIP3    H275261   3.411   2.075   5.362 -0.3762 -0.1805  1.2823
17924TIP3   OH275262   2.889   1.686   5.840  0.0357 -0.7156  0.2280
17924TIP3    H175263   2.944   1.650   5.911 -1.1169 -2.9301  0.0295
17924TIP3    H275264   2.806   1.638   5.848  0.1380 -1.5109 -3.0507
17925TIP3   OH275265   0.786   0.238   0.191 -0.4540  0.0573 -0.1155
17925TIP3    H175266   0.804   0.165   0.250 -2.4458  1.0971  1.8363
17925TIP3    H275267   0.811   0.315   0.241  0.5015  0.8092 -1.7155
17926TIP3   OH275268   3.396   0.864  14.767  0.2779  0.4498  0.0335
17926TIP3    H175269   3.327   0.901  14.713 -0.3791  1.2718  1.4118
17926TIP3    H275270   3.356   0.787  14.808  0.9678 -0.5432 -1.1137
17927TIP3   OH275271   3.743   1.540   3.887 -0.2832  0.2025 -0.3046
17927TIP3    H175272   3.819   1.492   3.856 -0.7383 -0.0987 -0.9807
17927TIP3    H275273   3.699   1.569   3.806 -0.1522  1.5281  0.0788
17928TIP3   OH275274   5.450   1.171   5.448  0.3941  0.2235  0.1226
17928TIP3    H175275   5.527   1.118   5.430  1.3656  2.1299 -1.5100
17928TIP3    H275276   5.471   1.218   5.529  0.1444 -0.7290  0.7423
17929TIP3   OH275277   1.828   2.193   0.265 -0.5565 -0.3777 -0.0004
17929TIP3    H175278   1.750   2.226   0.221 -0.4804 -1.1214 -0.7172
17929TIP3    H275279   1.864   2.268   0.312 -0.6147  0.4463 -1.2641
17930TIP3   OH275280   3.284   4.961   3.788  0.0252 -0.1474  0.5398
17930TIP3    H175281   3.223   4.899   3.748 -0.5415  0.0188  1.1551
17930TIP3    H275282   3.237   4.998   3.862  0.5840  0.5723  0.5428
17931TIP3   OH275283   2.713   1.382   3.742  0.4331 -0.2065 -0.1705
17931TIP3    H175284   2.808   1.370   3.737  0.4429 -1.7949  2.3710
17931TIP3    H275285   2.678   1.309   3.691  0.5975 -0.5837  0.2439
17932TIP3   OH275286   0.880   5.524   2.989 -0.1524  0.6297  0.4123
17932TIP3    H175287   0.964   5.545   3.031 -0.6570  2.8884  0.3361
17932TIP3    H275288   0.904   5.468   2.915  1.0786 -0.5017  1.6176
17933TIP3   OH275289   4.588   1.759   1.913 -0.2085 -0.0822 -0.0153
17933TIP3    H175290   4.568   1.727   1.825 -3.0903 -0.4945  0.7436
17933TIP3    H275291   4.618   1.849   1.899  0.2486 -0.4446 -1.4730
17934TIP3   OH275292   2.982   6.784   2.972 -0.1578  0.7284  0.1081
17934TIP3    H175293   3.051   6.781   2.905 -0.4490 -1.2829 -0.1459
17934TIP3    H275294   2.999   6.864   3.021  0.3732  1.9535 -2.0443
17935TIP3   OH275295   1.719   1.051   4.062  0.4696  0.3490 -0.2556
17935TIP3    H175296   1.787   1.009   4.009  0.8186  1.6101 -0.8239
17935TIP3    H275297   1.740   1.145   4.059 -0.8229  0.6706  0.2442
17936TIP3   OH275298   1.618   4.205   3.636 -0.2469  0.6603  0.1217
17936TIP3    H175299   1.571   4.284   3.609 -0.0239  1.3009  1.5854
17936TIP3    H275300   1.710   4.230   3.636 -0.2061  0.5220  0.9825
17937TIP3   OH275301   2.609   1.830   2.372 -0.5670  0.6142  0.1860
17937TIP3    H175302   2.550   1.758   2.393 -1.9676  1.7073  0.0787
17937TIP3    H275303   2.667   1.838   2.448 -1.0450  0.0205  0.6098
17938TIP3   OH275304   4.522   6.189   0.524 -0.4130  0.3326 -0.2744
17938TIP3    H175305   4.475   6.115   0.486  1.1926 -1.4294  1.0675
17938TIP3    H275306   4.458   6.261   0.524 -2.2800 -1.2872 -0.7707
17939TIP3   OH275307   6.625   1.419   1.954  0.1925 -0.3217 -0.6654
17939TIP3    H175308   6.631   1.502   1.905 -0.8000  0.5112  0.5747
17939TIP3    H275309   6.678   1.434   2.032  0.4297 -1.0449 -0.6930
17940TIP3   OH275310   1.926   6.639   4.577 -0.0291  0.0187 -0.0622
17940TIP3    H175311   1.898   6.728   4.553 -2.7300 -0.9561 -0.7169
17940TIP3    H275312   1.950   6.646   4.669  0.3850  1.5521 -0.2692
17941TIP3   OH275313   2.190   2.424   1.260 -0.2343  0.8183  0.4560
17941TIP3    H175314   2.165   2.505   1.213 -0.9614  0.1058 -0.4105
17941TIP3    H275315   2.131   2.422   1.336 -0.7383  0.7184  0.0678
17942TIP3   OH275316   3.900   3.648   3.710 -0.0413  0.7979  0.3748
17942TIP3    H175317   3.880   3.559   3.681  0.5664  0.2559  1.6125
17942TIP3    H275318   3.838   3.703   3.662  0.4633 -0.1479 -1.4115
17943TIP3   OH275319   2.714   2.250   3.943 -0.7061 -0.0354  0.7635
17943TIP3    H175320   2.692   2.241   4.036  0.4308 -1.3203  0.9175
17943TIP3    H275321   2.633   2.227   3.897 -1.2965  0.6805  1.4381
17944TIP3   OH275322   6.362   5.150   3.205 -0.0412 -0.0578 -0.0835
17944TIP3    H175323   6.435   5.099   3.170  1.2273  1.5520  0.1628
17944TIP3    H275324   6.349   5.220   3.140 -3.5057 -2.1689 -1.7850
17945TIP3   OH275325   5.518   6.565   3.076  0.1609 -0.0472  0.5551
17945TIP3    H175326   5.520   6.544   3.169  2.2966 -0.7320  0.3893
17945TIP3    H275327   5.444   6.516   3.041  0.0180 -0.6454  1.6919
17946TIP3   OH275328   0.513   1.309   3.538  0.4284  0.3909  0.0696
17946TIP3    H175329   0.584   1.306   3.603  0.7094 -0.2832 -0.2689
17946TIP3    H275330   0.448   1.247   3.570 -0.2263  1.3331  0.6152
17947TIP3   OH275331   3.138   2.794   4.767  0.9522 -0.0525  0.2006
17947TIP3    H175332   3.173   2.861   4.707 -2.5783  1.9496  0.2459
17947TIP3    H275333   3.069   2.840   4.816  0.6482 -2.8994  2.5610
17948TIP3   OH275334   0.240   2.811   2.029 -0.0452 -0.0370 -0.9008
17948TIP3    H175335   0.228   2.844   1.940 -0.7588  0.2670 -0.6951
17948TIP3    H275336   0.335   2.805   2.040  0.0332 -0.8967 -1.9809
17949TIP3   OH275337   3.616   1.623   3.612  0.1041  0.5691  0.0231
17949TIP3    H175338   3.614   1.712   3.577  2.4653  0.6505 -0.0151
17949TIP3    H275339   3.707   1.595   3.601  0.1101 -0.7060  2.8463
17950TIP3   OH275340   5.604   6.718   3.502 -0.3101  0.1646 -0.3596
17950TIP3    H175341   5.663   6.707   3.427 -1.7211 -0.0761 -1.4434
17950TIP3    H275342   5.524   6.753   3.465 -1.2644 -0.5763  0.9516
17951TIP3   OH275343   4.459   1.055   4.539 -0.0661  0.0203 -0.6691
17951TIP3    H175344   4.371   1.046   4.503 -0.3811 -1.5177  0.4273
17951TIP3    H275345   4.475   1.149   4.541 -1.9588  0.3428 -0.2109
17952TIP3   OH275346   0.477   6.411   4.600 -0.1682 -0.0484 -0.5423
17952TIP3    H175347   0.491   6.342   4.535  1.3512 -0.4578  0.1747
17952TIP3    H275348   0.403   6.380   4.652  1.6938 -2.1836  1.0105
17953TIP3   OH275349   1.248   1.425   4.852  0.4866  0.4968  0.7830
17953TIP3    H175350   1.273   1.496   4.910  0.5205  0.2071  1.1270
17953TIP3    H275351   1.186   1.373   4.903 -1.1463  1.4241 -0.2005
17954TIP3   OH275352   3.752   1.585   5.974 -0.1811  0.1983 -0.2064
17954TIP3    H175353   3.666   1.552   5.951  0.0099 -1.5722  1.4483
17954TIP3    H275354   3.740   1.627   6.059  0.4343  0.5523 -0.2885
17955TIP3   OH275355   0.755   0.799   5.155  0.5512 -0.3620 -0.2604
17955TIP3    H175356   0.752   0.812   5.060 -1.8142 -0.9976 -0.3082
17955TIP3    H275357   0.734   0.707   5.167  1.1075 -0.3421  0.8831
17956TIP3   OH275358   0.221   4.736   4.026  0.3812  0.1260 -0.3020
17956TIP3    H175359   0.190   4.784   3.949 -2.5581 -2.3421 -0.7671
17956TIP3    H275360   0.167   4.770   4.097  1.1821  0.4388  0.1596
17957TIP3   OH275361   4.607   7.047   3.391  0.3162  0.1364 -0.1878
17957TIP3    H175362   4.665   7.112   3.349 -0.9360  1.3754 -0.0324
17957TIP3    H275363   4.662   6.970   3.402  1.4485  0.7167 -1.6328
17958TIP3   OH275364   1.100   4.187   1.844  0.5903 -0.1258  0.2312
17958TIP3    H175365   1.168   4.186   1.777  2.2349 -0.5404  1.8647
17958TIP3    H275366   1.138   4.138   1.917 -1.0318  0.5850  1.5812
17959TIP3   OH275367   2.505   6.421   5.737  0.0479 -0.4579  0.4465
17959TIP3    H175368   2.558   6.351   5.777 -0.4705 -0.1805  1.6263
17959TIP3    H275369   2.419   6.413   5.778 -0.5991 -0.3560 -0.8429
17960TIP3   OH275370   1.881   2.377   5.853 -0.5397 -0.5357 -0.0570
17960TIP3    H175371   1.957   2.385   5.911 -0.1100 -0.0732 -0.6793
17960TIP3    H275372   1.806   2.402   5.908 -0.0473  0.6598  0.0824
17961TIP3   OH275373   1.972   5.068   4.742  0.0507 -0.1381 -0.9032
17961TIP3    H175374   2.057   5.022   4.740 -0.7490 -1.6472 -0.8049
17961TIP3    H275375   1.961   5.094   4.834 -0.2202 -1.1563 -0.6403
17962TIP3   OH275376   0.871   4.888   4.337  0.1250 -0.2758  0.3313
17962TIP3    H175377   0.781   4.890   4.368 -0.1402  0.6436 -0.4741
17962TIP3    H275378   0.865   4.867   4.244  0.7879 -0.9559  0.4352
17963TIP3   OH275379   4.231   3.093   4.544 -0.3518 -0.3721  0.0566
17963TIP3    H175380   4.196   3.014   4.503 -0.5572  0.1358 -0.7759
17963TIP3    H275381   4.288   3.131   4.477  1.0206 -0.6623  1.0354
17964TIP3   OH275382   3.132   3.400   5.071 -0.3041 -0.2715  0.3510
17964TIP3    H175383   3.062   3.340   5.098 -0.6818  0.2952  0.6417
17964TIP3    H275384   3.146   3.456   5.147 -1.8528  1.7912 -0.8457
17965TIP3   OH275385   6.962   3.182   1.595 -0.6223 -0.2429  0.2318
17965TIP3    H175386   6.987   3.217   1.680  1.8808 -0.8621 -0.2065
17965TIP3    H275387   6.878   3.139   1.610 -0.2298 -0.2979  2.3716
17966TIP3   OH275388   0.137   3.400   2.783  0.4819 -0.0246  0.1042
17966TIP3    H175389   0.060   3.430   2.831  0.8149  2.3107 -0.7797
17966TIP3    H275390   0.210   3.445   2.825  1.1743 -0.7179 -0.3441
17967TIP3   OH275391   1.991   3.537   5.294  0.0929  0.1569  0.0710
17967TIP3    H175392   1.941   3.575   5.222 -1.4466  1.8609  1.9904
17967TIP3    H275393   1.927   3.486   5.344  0.7283  0.6277  1.3658
17968TIP3   OH275394   5.613   5.829   3.267 -0.2946  0.4639  0.7837
17968TIP3    H175395   5.630   5.880   3.187 -2.0841 -0.9634 -0.5354
17968TIP3    H275396   5.695   5.834   3.316  1.1383  0.6372 -1.5563
17969TIP3   OH275397   3.921   4.145   5.141 -1.3382  0.1928  0.0231
17969TIP3    H175398   4.013   4.126   5.120 -1.3354 -0.2105  0.4120
17969TIP3    H275399   3.914   4.240   5.131 -0.4984  0.4235  1.5120
17970TIP3   OH275400   1.125   4.089   2.616 -0.3070  0.1957  0.5779
17970TIP3    H175401   1.068   4.166   2.619  0.4570  0.7696  0.4592
17970TIP3    H275402   1.095   4.034   2.689 -1.1823  0.3668  0.3575
17971TIP3   OH275403   0.630   1.503   4.662  0.4254  0.0423 -0.8196
17971TIP3    H175404   0.710   1.555   4.656  0.3767 -0.0606 -3.1053
17971TIP3    H275405   0.645   1.430   4.602 -0.6460 -1.0085  0.1705
17972TIP3   OH275406   1.179   5.008   5.490  0.5495  0.0980 -0.2449
17972TIP3    H175407   1.268   5.042   5.502  0.9890 -0.4127 -1.9247
17972TIP3    H275408   1.171   4.939   5.555  0.9515  0.9661  0.7375
17973TIP3   OH275409   4.026   5.126   4.995  0.3971 -0.1370  0.2131
17973TIP3    H175410   4.101   5.072   5.020 -1.1551 -2.5675 -0.1972
17973TIP3    H275411   4.008   5.179   5.073 -0.6148 -3.2485  2.2201
17974TIP3   OH275412   5.944   0.064   2.291 -0.2893 -0.3311 -0.3656
17974TIP3    H175413   5.905  -0.024   2.293 -0.3408 -0.3075 -0.3235
17974TIP3    H275414   5.876   0.119   2.251 -0.2851 -0.2961 -0.3243
17975TIP3   OH275415   0.914   1.938   2.813  0.7700  0.1067 -0.2307
17975TIP3    H175416   0.970   2.009   2.845  1.4997 -0.6152  0.0922
17975TIP3    H275417   0.957   1.907   2.733  0.5945 -0.1531 -0.2261
17976TIP3   OH275418   3.325   1.910   1.915 -0.2672  0.1705 -0.5087
17976TIP3    H175419   3.373   1.955   1.845 -1.2927 -0.5862 -1.7216
17976TIP3    H275420   3.367   1.824   1.920 -0.5875  0.0075 -0.6199
17977TIP3   OH275421   0.456   4.148   3.148  0.2565 -0.1662 -0.8672
17977TIP3    H175422   0.437   4.194   3.066 -2.2526  1.2382  0.4677
17977TIP3    H275423   0.548   4.167   3.165  0.5039  0.4683 -2.7422
17978TIP3   OH275424   2.354   6.755   4.186 -0.3202  0.2520  0.1936
17978TIP3    H175425   2.416   6.720   4.250  0.2332  2.4974  0.9332
17978TIP3    H275426   2.399   6.747   4.102  0.7636  1.2920  0.6514
17979TIP3   OH275427   2.440   0.643   5.309  0.1893 -0.9483 -0.2474
17979TIP3    H175428   2.496   0.674   5.380  1.1978  0.0872 -1.4831
17979TIP3    H275429   2.353   0.677   5.331  0.7161  0.3308 -0.0786
17980TIP3   OH275430   4.303   1.996   3.482  0.5018 -0.4909  0.1751
17980TIP3    H175431   4.228   1.937   3.474 -0.5272  0.9729 -1.1544
17980TIP3    H275432   4.373   1.941   3.519 -0.3146 -2.6424 -1.3698
17981TIP3   OH275433   3.563   3.182   5.120 -0.1641 -0.1454 -0.1270
17981TIP3    H175434   3.497   3.209   5.056 -0.4289 -2.1953 -0.7681
17981TIP3    H275435   3.525   3.206   5.204 -1.2484 -0.3086 -0.5541
17982TIP3   OH275436   2.716   6.057   3.038 -0.8779 -0.3120 -0.0700
17982TIP3    H175437   2.723   5.964   3.059 -2.1296 -0.6780 -1.1653
17982TIP3    H275438   2.688   6.099   3.119  1.7727 -0.5698  1.0019
17983TIP3   OH275439   6.054   4.060   0.935  0.1820 -0.2404  0.1390
17983TIP3    H175440   5.971   4.021   0.906  0.9642 -1.4943 -0.4129
17983TIP3    H275441   6.076   4.123   0.867 -0.7284  0.6885  0.6892
17984TIP3   OH275442   2.540   3.890   2.693 -0.2497  0.6441 -0.9946
17984TIP3    H175443   2.615   3.930   2.735 -0.9969 -0.2484  1.2599
17984TIP3    H275444   2.534   3.933   2.608  1.4937  2.2479 -0.3275
17985TIP3   OH275445   2.621   2.964   5.923  0.6839  0.2651  0.2099
17985TIP3    H175446   2.599   3.040   5.870  0.0825  0.6167  0.9675
17985TIP3    H275447   2.709   2.983   5.956  1.3572 -0.2790 -1.2375
17986TIP3   OH275448   3.056   3.189   2.987 -0.1815  0.1909  0.2793
17986TIP3    H175449   3.060   3.239   2.906  0.0929 -0.2231  0.0329
17986TIP3    H275450   3.045   3.098   2.958  3.2670 -0.4032  0.5730
17987TIP3   OH275451   2.240   6.246   0.872  0.0800  0.6043  0.5635
17987TIP3    H175452   2.179   6.248   0.799 -1.0151 -1.6632  1.3797
17987TIP3    H275453   2.211   6.317   0.930 -0.4475  0.9345 -0.1018
17988TIP3   OH275454   5.320   2.150   4.521 -0.0477 -0.4526 -0.1060
17988TIP3    H175455   5.321   2.070   4.574  0.8688 -0.6708 -0.4433
17988TIP3    H275456   5.410   2.182   4.525 -0.0593 -0.2658 -1.2240
17989TIP3   OH275457   5.343   7.062   2.387 -0.3168 -0.1915 -0.1080
17989TIP3    H175458   5.376   6.972   2.380 -1.7457 -0.7359  0.0512
17989TIP3    H275459   5.248   7.053   2.389 -0.4484  1.2770  0.7857
17990TIP3   OH275460   3.447   2.638   5.532 -0.2216  0.1123 -0.1371
17990TIP3    H175461   3.396   2.627   5.452 -3.3436  0.9256  1.6250
17990TIP3    H275462   3.429   2.559   5.583  1.1111 -0.0486  0.0938
17991TIP3   OH275463   0.924   3.467   3.976 -0.1465 -0.1963  0.1746
17991TIP3    H175464   0.880   3.542   4.016  0.1097 -0.1437  0.3590
17991TIP3    H275465   0.955   3.415   4.050 -1.1911 -1.0006  0.0517
17992TIP3   OH275466   2.155   1.920   1.500  0.4593  0.3567 -0.0389
17992TIP3    H175467   2.072   1.882   1.530  0.4954 -0.0058 -0.3954
17992TIP3    H275468   2.200   1.946   1.581 -0.4419  1.4787  0.1118
17993TIP3   OH275469   1.706   5.393   4.977  0.2351  0.3944  0.5223
17993TIP3    H175470   1.687   5.331   4.907  0.1949  0.5657  0.3809
17993TIP3    H275471   1.637   5.378   5.042  0.3916  0.0924  0.6212
17994TIP3   OH275472   2.193   2.551   4.021  0.3221 -0.1290  0.1404
17994TIP3    H175473   2.238   2.502   3.952  0.6286 -1.1209  1.0238
17994TIP3    H275474   2.101   2.528   4.011  0.5197 -1.2914  0.8481
17995TIP3   OH275475   5.646   4.162   4.151  0.6625  0.2238 -0.8359
17995TIP3    H175476   5.646   4.219   4.075  1.8615 -0.4390 -1.3509
17995TIP3    H275477   5.738   4.153   4.175  0.4728 -1.2201 -0.5669
17996TIP3   OH275478   2.000   0.195   4.520 -0.1463  0.0948  0.0536
17996TIP3    H175479   1.957   0.275   4.549  2.6172  1.3842  0.7221
17996TIP3    H275480   2.078   0.188   4.575  0.1318 -2.5766 -0.6132
17997TIP3   OH275481   6.863   3.054   4.482 -0.0929  0.1417  0.1341
17997TIP3    H175482   6.814   2.998   4.422  0.0669 -0.5879  0.6880
17997TIP3    H275483   6.864   3.006   4.565  0.6206  0.6536  0.4226
17998TIP3   OH275484   1.437   4.417   4.757  0.8668 -0.0797  0.3371
17998TIP3    H175485   1.397   4.426   4.671  0.5088 -1.8192  0.2932
17998TIP3    H275486   1.513   4.475   4.755  0.5712  0.2765 -0.9703
17999TIP3   OH275487   7.097   1.313   4.028  0.1299 -0.3539 -0.1217
17999TIP3    H175488   7.014   1.265   4.020  0.9100 -1.6438 -0.5891
17999TIP3    H275489   7.129   1.291   4.115 -0.6304  1.1380  0.5354
18000TIP3   OH275490   3.551   2.644   1.719  0.4811 -0.1032  0.1310
18000TIP3    H175491   3.521   2.680   1.803  0.9740  0.7141 -0.0419
18000TIP3    H275492   3.595   2.563   1.743  0.5869  0.1063  0.6683
18001TIP3   OH275493   3.335   4.502   2.668  0.1820 -0.0471 -0.4057
18001TIP3    H175494   3.430   4.510   2.667  0.5548 -3.4535 -3.2762
18001TIP3    H275495   3.318   4.428   2.727 -0.4522 -1.3415 -2.1878
18002TIP3   OH275496   1.687   2.201   3.718 -0.0894  0.7823 -0.1052
18002TIP3    H175497   1.754   2.228   3.781  0.4751 -0.8195 -0.0119
18002TIP3    H275498   1.735   2.162   3.645 -0.8833  0.1850 -0.3241
18003TIP3   OH275499   1.140   4.339   4.377 -0.2797 -0.1185 -0.0668
18003TIP3    H175500   1.121   4.276   4.308  0.4590  0.0734 -0.4462
18003TIP3    H275501   1.235   4.350   4.375 -0.3120  0.3459  0.5774
18004TIP3   OH275502   4.669   3.797   5.228 -0.6993 -0.4743 -0.0511
18004TIP3    H175503   4.747   3.845   5.257 -1.0761 -0.2658  0.6356
18004TIP3    H275504   4.673   3.800   5.133 -1.1988  1.7210 -0.0241
18005TIP3   OH275505   2.465   0.307   3.033  0.4443 -0.1762  0.2902
18005TIP3    H175506   2.424   0.220   3.030 -1.8106  0.8417  1.4333
18005TIP3    H275507   2.543   0.297   2.978 -0.4127 -2.5972 -0.5781
18006TIP3   OH275508   6.074   5.935   4.802 -0.1636  0.3178 -0.2407
18006TIP3    H175509   6.010   5.902   4.739 -0.0710 -0.1256 -0.1044
18006TIP3    H275510   6.029   5.933   4.886 -0.1568  0.5379 -0.2316
18007TIP3   OH275511   2.085   1.106   1.155  0.4218 -0.8458  0.1979
18007TIP3    H175512   2.017   1.132   1.216  0.7175  0.4615 -0.0117
18007TIP3    H275513   2.158   1.164   1.174  1.1023 -1.5265 -0.2925
18008TIP3   OH275514   6.218   4.504   3.979 -0.4889 -0.0980  0.0535
18008TIP3    H175515   6.183   4.592   3.984  0.8775  0.4690 -0.1463
18008TIP3    H275516   6.304   4.514   3.937  0.2567 -1.3431  1.2095
18009TIP3   OH275517   3.256   4.119   4.102 -0.2468 -0.2116  0.0602
18009TIP3    H175518   3.319   4.085   4.039 -0.2520  2.1578 -1.3216
18009TIP3    H275519   3.174   4.125   4.053 -0.7659 -0.3085  0.9064
18010TIP3   OH275520   5.393   4.464   4.125 -0.1049 -0.0822  0.6238
18010TIP3    H175521   5.349   4.517   4.058  0.9482  2.0431  1.5651
18010TIP3    H275522   5.468   4.425   4.079  0.8842  1.7392  0.6247
18011TIP3   OH275523   2.953   1.705   2.864 -0.0811 -1.1168 -0.2535
18011TIP3    H175524   2.875   1.672   2.909  0.0159 -2.0063 -0.7326
18011TIP3    H275525   2.918   1.755   2.790 -0.2225 -0.4784  0.2479
18012TIP3   OH275526   3.935   6.301   3.964 -0.1816 -0.3593  0.3211
18012TIP3    H175527   3.868   6.347   3.913  0.4064 -1.7551 -1.7747
18012TIP3    H275528   3.889   6.271   4.043 -1.8283 -0.5921 -0.7087
18013TIP3   OH275529   0.843   3.366   3.254 -0.0432 -0.6293  0.4291
18013TIP3    H175530   0.789   3.350   3.176  1.4515 -0.3415 -0.6895
18013TIP3    H275531   0.798   3.318   3.324 -3.0393  1.4977  0.0626
18014TIP3   OH275532   3.798   2.387   5.578 -0.5481  0.1959 -0.2227
18014TIP3    H175533   3.892   2.392   5.558 -0.6055  0.2908 -0.4698
18014TIP3    H275534   3.791   2.421   5.667 -0.3411  0.1483 -0.1883
18015TIP3   OH275535   2.935   3.739   5.388 -0.7705  0.0559 -0.1192
18015TIP3    H175536   2.947   3.721   5.482  0.2707  1.3521  0.0129
18015TIP3    H275537   2.953   3.833   5.379  0.1039 -0.2518 -1.7713
18016TIP3   OH275538   3.254   5.368   3.529 -0.1909 -0.2409  0.0140
18016TIP3    H175539   3.159   5.363   3.516  0.0716  1.7871 -3.1590
18016TIP3    H275540   3.286   5.279   3.513 -1.2386 -0.2926 -1.8374
18017TIP3   OH275541   1.977   3.269   3.787 -0.2218  0.4052 -0.2000
18017TIP3    H175542   2.041   3.227   3.845 -0.2531  0.0755 -0.4052
18017TIP3    H275543   2.031   3.317   3.723 -0.1461 -1.2469 -1.4017
18018TIP3   OH275544   1.198   6.787   1.163  0.3049  0.1368  0.2450
18018TIP3    H175545   1.139   6.815   1.233  2.7484  0.0768  2.3923
18018TIP3    H275546   1.251   6.864   1.144 -1.1947  0.5402 -2.4919
18019TIP3   OH275547   2.177   5.260   5.511 -0.0375 -0.4441  0.1870
18019TIP3    H175548   2.191   5.165   5.504 -1.3903 -0.7639  1.4996
18019TIP3    H275549   2.082   5.269   5.517 -0.0421  1.1622 -2.0438
18020TIP3   OH275550   1.096   6.239   4.663 -0.0529 -0.3406 -0.3374
18020TIP3    H175551   1.147   6.160   4.679 -1.0865 -1.1279 -0.8731
18020TIP3    H275552   1.033   6.214   4.595 -1.8659  0.2881  1.0651
18021TIP3   OH275553   5.662   5.346   3.752  0.5891  0.0067 -0.0367
18021TIP3    H175554   5.586   5.383   3.797  1.3718 -0.3647  1.6679
18021TIP3    H275555   5.656   5.252   3.770  1.1519 -0.0875 -0.3503
18022TIP3   OH275556   4.496   2.390   5.476  0.0496  0.4612  0.4952
18022TIP3    H175557   4.490   2.326   5.406 -0.0743 -0.6319  1.4865
18022TIP3    H275558   4.583   2.375   5.514 -0.7550 -0.4689  2.0001
18023TIP3   OH275559   4.391   5.224   4.130  0.2218  0.2282 -0.2196
18023TIP3    H175560   4.404   5.302   4.185 -0.5009 -0.4629  0.9687
18023TIP3    H275561   4.478   5.187   4.120  0.1487 -0.6779  2.0724
18024TIP3   OH275562   4.067   1.904   4.049 -0.3845  0.1220 -0.4419
18024TIP3    H175563   3.987   1.947   4.080  0.3796  0.8064  0.6263
18024TIP3    H275564   4.053   1.811   4.068 -0.9906  0.2208 -0.4004
18025TIP3   OH275565   2.565   4.074   4.303 -0.2677  0.8387 -0.3611
18025TIP3    H175566   2.529   3.989   4.277  0.1855  0.9320 -1.3421
18025TIP3    H275567   2.491   4.122   4.339 -0.6292  0.1954 -0.2407
18026TIP3   OH275568   4.082   2.219   1.562  0.6865  0.6264  0.1297
18026TIP3    H175569   3.986   2.224   1.562  0.7433  1.7910  0.5500
18026TIP3    H275570   4.111   2.310   1.559  1.7878  0.2402 -1.1290
18027TIP3   OH275571   2.105   1.429   4.173 -0.9070 -0.5731  0.9400
18027TIP3    H175572   2.199   1.435   4.155 -0.9036 -0.8166  0.8771
18027TIP3    H275573   2.098   1.366   4.244 -1.0085 -0.4236  1.0627
18028TIP3   OH275574   7.126   0.044   3.490 -0.6654  0.4106 -0.0910
18028TIP3    H175575   7.046   0.002   3.459  0.0035 -0.9785  0.0366
18028TIP3    H275576   7.138   0.013   3.579  0.7952 -0.5666 -0.5998
18029TIP3   OH275577   3.668   3.363   2.460 -0.1854  0.5895 -0.1964
18029TIP3    H175578   3.674   3.268   2.465 -0.6438  0.3603 -3.2651
18029TIP3    H275579   3.758   3.393   2.465 -0.0600  0.0255  1.0942
18030TIP3   OH275580   0.338   3.153   4.459 -0.3377 -0.4504  0.3971
18030TIP3    H175581   0.322   3.247   4.451 -0.2270 -0.5675 -1.4274
18030TIP3    H275582   0.322   3.133   4.551  0.4560  1.5159  0.9786
18031TIP3   OH275583   2.125   4.057   4.652 -0.1320 -0.2622 -0.1349
18031TIP3    H175584   2.170   4.120   4.708 -0.7207  0.0718 -0.0366
18031TIP3    H275585   2.052   4.025   4.705 -0.5885 -0.0738 -0.6391
18032TIP3   OH275586   2.608   1.876   3.814  0.0671 -0.3308  0.0828
18032TIP3    H175587   2.578   1.865   3.904  0.5147  2.8942  0.6549
18032TIP3    H275588   2.698   1.906   3.821 -0.5404  1.9538 -1.3852
18033TIP3   OH275589   5.250   4.071   2.991 -0.3566  0.1085  0.2390
18033TIP3    H175590   5.183   4.137   2.973 -1.1158 -0.7084  0.0524
18033TIP3    H275591   5.319   4.090   2.927 -1.7479 -0.9393 -1.6319
18034TIP3   OH275592   5.597   1.583   4.143  0.1834  0.0839  0.2047
18034TIP3    H175593   5.530   1.601   4.077 -0.0508  1.2847  0.7586
18034TIP3    H275594   5.615   1.668   4.184  3.7714  0.2578 -1.5253
18035TIP3   OH275595   2.405   0.085   3.881 -0.1601  0.3686 -0.0086
18035TIP3    H175596   2.374  -0.002   3.856  0.7710  0.1699 -0.4905
18035TIP3    H275597   2.499   0.082   3.865 -0.2097  1.6518 -0.5365
18036TIP3   OH275598   6.425   0.717   2.896 -0.0849  0.6151 -0.1009
18036TIP3    H175599   6.475   0.637   2.914 -1.5350 -0.2875 -0.0367
18036TIP3    H275600   6.391   0.744   2.981 -1.2170  0.2083 -0.4181
18037TIP3   OH275601   1.623   1.058   2.331 -0.4675 -0.1705 -0.2482
18037TIP3    H175602   1.716   1.080   2.326 -0.2725 -1.1613 -1.1953
18037TIP3    H275603   1.620   0.974   2.377 -0.8751 -0.2929 -0.4935
18038TIP3   OH275604   3.858   0.511   4.427 -0.2278  0.1261  0.2134
18038TIP3    H175605   3.835   0.421   4.403  0.3421  0.6866 -2.5551
18038TIP3    H275606   3.787   0.564   4.392 -1.5007  0.6386  3.4299
18039TIP3   OH275607   5.013   1.285   3.458  0.6572  0.6374 -0.3361
18039TIP3    H175608   4.964   1.204   3.447  1.9661 -0.4033  1.2428
18039TIP3    H275609   4.946   1.352   3.472 -0.5994  0.4387 -4.6762
18040TIP3   OH275610   4.206   3.944   0.708  0.0278 -0.6152 -0.1470
18040TIP3    H175611   4.208   3.904   0.795 -0.2848  0.6686  0.4517
18040TIP3    H275612   4.286   3.911   0.666  2.1536  1.6652  1.9367
18041TIP3   OH275613   5.904   1.132   3.328  0.0228 -0.6044  0.1677
18041TIP3    H175614   5.929   1.223   3.344  1.0816 -1.4057  3.4428
18041TIP3    H275615   5.958   1.104   3.254  0.3438  1.1484 -0.2778
18042TIP3   OH275616   4.679   3.517   3.685  0.0927  0.5540  0.0104
18042TIP3    H175617   4.655   3.580   3.753  0.9119 -2.1279  2.9004
18042TIP3    H275618   4.596   3.474   3.662 -0.0577  0.9330 -0.1647
18043TIP3   OH275619   4.611   2.676   3.284 -0.6104  0.1700 -0.0030
18043TIP3    H175620   4.567   2.606   3.333  0.1460 -0.2697  0.0612
18043TIP3    H275621   4.665   2.629   3.220  0.0359  0.6921  0.1564
18044TIP3   OH275622   4.034   2.256   4.284  0.3581 -0.0693 -0.2876
18044TIP3    H175623   4.054   2.173   4.328 -1.0638 -1.4617 -2.1737
18044TIP3    H275624   3.991   2.308   4.351 -2.8570 -2.6118 -0.2434
18045TIP3   OH275625   4.113   1.113   3.027  0.1568  0.3025 -0.3645
18045TIP3    H175626   4.089   1.170   2.955 -2.2519  1.0667  0.9876
18045TIP3    H275627   4.149   1.172   3.093 -0.6021  0.0328  0.2986
18046TIP3   OH275628   2.247   0.049   1.773  0.4562  0.7436 -0.3949
18046TIP3    H175629   2.195  -0.002   1.835  0.4540  1.8769  0.5497
18046TIP3    H275630   2.184   0.080   1.708  0.2652  0.5394 -0.3077
18047TIP3   OH275631   6.065   3.492   2.014 -0.8655 -0.5241 -0.7531
18047TIP3    H175632   6.149   3.451   2.033 -0.0676  0.4528 -2.1349
18047TIP3    H275633   6.012   3.476   2.092  0.4056 -1.6474 -0.1154
18048TIP3   OH275634   3.171   0.042   4.389  0.6179 -0.1332  0.1376
18048TIP3    H175635   3.130  -0.043   4.403  1.4835 -0.2939  1.7793
18048TIP3    H275636   3.242   0.025   4.327  0.4698 -0.5054  0.0738
18049TIP3   OH275637   0.784   2.996   2.049  0.3507 -0.7424 -0.3469
18049TIP3    H175638   0.705   2.981   1.997 -0.1652 -0.3726  0.3157
18049TIP3    H275639   0.771   2.944   2.128  1.5388 -2.0192 -0.9744
18050TIP3   OH275640   2.630   4.330   5.463 -0.0757 -0.5812 -0.1355
18050TIP3    H175641   2.639   4.235   5.471  0.0580 -0.4930  0.7629
18050TIP3    H275642   2.554   4.352   5.517 -1.0097 -0.3486 -1.5123
18051TIP3   OH275643   3.412   1.170   2.674 -0.3916  0.2037  0.5409
18051TIP3    H175644   3.449   1.215   2.599 -0.2701  1.4655  1.3390
18051TIP3    H275645   3.363   1.238   2.722 -1.2730 -0.7874  1.0775
18052TIP3   OH275646   0.361   5.784   4.626 -0.5137  0.1704  0.7907
18052TIP3    H175647   0.396   5.797   4.715  2.0425  4.1433 -0.6311
18052TIP3    H275648   0.322   5.869   4.603  0.4251 -0.2204 -2.4806
18053TIP3   OH275649   2.014   0.991   2.910  0.5506 -0.7382 -0.0679
18053TIP3    H175650   2.043   1.015   2.998  0.3252  0.0980 -0.2177
18053TIP3    H275651   1.951   0.920   2.924  0.0113 -0.1549  0.4969
18054TIP3   OH275652   6.948   4.687   3.381  0.0099 -0.1266 -0.6831
18054TIP3    H175653   7.014   4.696   3.312  0.1371  1.0032 -0.4111
18054TIP3    H275654   6.997   4.686   3.463 -0.3635  1.6884 -0.4191
18055TIP3   OH275655   3.786   3.911   5.584 -0.0238 -0.6843  0.4153
18055TIP3    H175656   3.827   3.929   5.500  1.4429 -1.1557  1.0123
18055TIP3    H275657   3.798   3.991   5.635  2.3547 -1.6539  1.4400
18056TIP3   OH275658   3.555   5.014   3.801  0.3578  0.2562 -0.1813
18056TIP3    H175659   3.585   5.074   3.732  0.2959 -0.1213 -0.5418
18056TIP3    H275660   3.461   5.004   3.785  0.4886 -0.4645 -0.5404
18057TIP3   OH275661   1.253   1.569   3.726 -0.0735  0.3588  0.3063
18057TIP3    H175662   1.327   1.602   3.777 -1.1913  1.4539  1.2723
18057TIP3    H275663   1.186   1.548   3.792 -0.5116 -0.9288 -0.5231
18058TIP3   OH275664   0.831   0.678   1.779 -0.2161  0.3080 -0.5413
18058TIP3    H175665   0.817   0.616   1.851 -0.6110  0.3643 -0.5652
18058TIP3    H275666   0.746   0.683   1.735  0.2591 -0.3965 -1.5532
18059TIP3   OH275667   6.570   3.038   4.835  0.2191  0.4039 -0.4914
18059TIP3    H175668   6.475   3.025   4.837  0.2393 -0.2503 -2.7555
18059TIP3    H275669   6.605   2.952   4.816  1.4100  0.2693  2.1190
18060TIP3   OH275670   0.389   2.250   5.001 -0.1703 -0.0859  0.1686
18060TIP3    H175671   0.297   2.261   5.027 -0.1930  1.9500 -0.7716
18060TIP3    H275672   0.409   2.159   5.026 -2.1821 -0.2988  1.1363
18061TIP3   OH275673   1.055   1.312   4.407 -0.0127 -0.0628  0.1870
18061TIP3    H175674   1.060   1.378   4.338 -4.7443  0.1711 -0.1497
18061TIP3    H275675   1.092   1.354   4.484  0.3686  1.6779 -0.9192
18062TIP3   OH275676   2.675   7.146  14.859  0.3174  0.4096  0.0779
18062TIP3    H175677   2.707   7.126  14.771  1.2079 -0.6512  0.6322
18062TIP3    H275678   2.581   7.159  14.848  0.2586 -0.7812 -0.8540
18063TIP3   OH275679   2.361   6.576   1.878  0.6865 -0.5581 -0.4533
18063TIP3    H175680   2.377   6.482   1.868 -0.2394 -0.7990  0.2683
18063TIP3    H275681   2.275   6.590   1.841  0.4209 -0.1623  0.2960
18064TIP3   OH275682   0.364   5.283  15.161 -0.3071  0.0133  0.4571
18064TIP3    H175683   0.307   5.343  15.209  0.5141  0.3954  0.9644
18064TIP3    H275684   0.452   5.314  15.180  0.1107 -1.1675  0.4623
18065TIP3   OH275685   2.712   5.703   4.906 -0.5427 -0.4565 -0.5046
18065TIP3    H175686   2.803   5.688   4.881  0.1325  2.4209 -0.0051
18065TIP3    H275687   2.712   5.693   5.001 -0.8214 -0.7856 -0.5398
18066TIP3   OH275688   0.137   0.618   3.199 -0.0930 -0.1696 -0.5221
18066TIP3    H175689   0.121   0.619   3.104 -0.0917 -0.8668 -0.5300
18066TIP3    H275690   0.112   0.530   3.227  1.7752 -0.6080 -0.1922
18067TIP3   OH275691   1.272   3.181   0.522  0.4243  0.2602  0.1268
18067TIP3    H175692   1.181   3.192   0.494  0.6172 -0.9339 -0.9850
18067TIP3    H275693   1.299   3.269   0.551 -1.3432  0.4383  1.2813
18068TIP3   OH275694   4.910   4.751   1.823  0.3317 -0.5102  0.2634
18068TIP3    H175695   4.860   4.706   1.891  0.5520  0.2945  0.9716
18068TIP3    H275696   4.846   4.770   1.754 -0.3144  0.4324  1.1195
18069TIP3   OH275697   1.287   4.026   0.984  0.2095 -0.2063 -0.6346
18069TIP3    H175698   1.327   3.949   0.945  0.7916  0.9709 -2.4069
18069TIP3    H275699   1.344   4.099   0.959 -0.8950  0.9608  0.1229
18070TIP3   OH275700   1.763   2.768   5.479  0.5844 -0.3182 -0.2147
18070TIP3    H175701   1.774   2.857   5.515  0.2531  0.3059 -1.6433
18070TIP3    H275702   1.740   2.715   5.556 -1.5430  1.2767  0.3072
18071TIP3   OH275703   1.976   3.920   5.355  0.2120 -0.3983  0.0696
18071TIP3    H175704   1.911   3.863   5.396 -0.3225 -0.1718 -0.4689
18071TIP3    H275705   2.030   3.861   5.303  0.4931 -0.5978  0.5809
18072TIP3   OH275706   2.777   4.502   3.911 -0.2323  0.1560  0.3582
18072TIP3    H175707   2.870   4.502   3.932  0.0916 -2.7062 -0.8333
18072TIP3    H275708   2.741   4.576   3.960  2.4821  0.7364  1.5622
18073TIP3   OH275709   2.136   1.317   3.004 -0.2439 -0.4474  0.1301
18073TIP3    H175710   2.196   1.301   2.932  0.6686  0.3862  0.7002
18073TIP3    H275711   2.052   1.283   2.973 -0.1790  1.1179 -1.8609
18074TIP3   OH275712   4.021   1.482   3.172 -0.7108  0.0421  0.0874
18074TIP3    H175713   4.010   1.556   3.232  0.5654  1.9112 -1.9574
18074TIP3    H275714   4.058   1.413   3.227  3.5251  2.7542  0.8352
18075TIP3   OH275715   3.590   2.985   4.488  0.0510  0.2035 -0.0766
18075TIP3    H175716   3.579   3.057   4.426 -1.5147  0.4201  0.4364
18075TIP3    H275717   3.563   2.907   4.441  1.5759 -0.0344 -0.5739
18076TIP3   OH275718   6.440   1.969   0.541  0.3207  0.1075 -0.2229
18076TIP3    H175719   6.431   2.011   0.627 -1.8902  1.0895 -0.9022
18076TIP3    H275720   6.524   1.924   0.545  0.9991  1.5011  1.8795
18077TIP3   OH275721   5.426   4.666   3.131  0.2623 -0.0035 -0.1713
18077TIP3    H175722   5.506   4.718   3.145  0.7274 -1.0709  1.2415
18077TIP3    H275723   5.425   4.604   3.203 -1.7086 -0.2072 -0.3477
18078TIP3   OH275724   4.067   1.887   3.520 -0.2987 -0.5772  0.2612
18078TIP3    H175725   4.018   1.955   3.473  1.4773  0.8585  0.4095
18078TIP3    H275726   4.068   1.916   3.611  2.1520  0.3014  0.0103
18079TIP3   OH275727   3.758   2.507   5.825  0.2401 -0.0387 -0.0568
18079TIP3    H175728   3.736   2.600   5.829 -1.1395 -0.2330 -1.9828
18079TIP3    H275729   3.673   2.462   5.824  0.8353 -1.1843 -1.3981
18080TIP3   OH275730   3.984   0.679   4.219 -0.5327 -0.2149  0.6041
18080TIP3    H175731   4.055   0.674   4.284 -0.9643  3.7992  1.5330
18080TIP3    H275732   3.906   0.699   4.271 -2.1122 -3.0336 -0.5842
18081TIP3   OH275733   2.989   5.135   5.626 -0.0456 -0.1765 -0.0297
18081TIP3    H175734   2.982   5.068   5.558  0.3537  0.3408 -0.5876
18081TIP3    H275735   2.924   5.110   5.691 -0.3740 -0.7268 -0.5643
18082TIP3   OH275736   4.563   6.500   1.815 -0.6217 -0.2192 -0.3940
18082TIP3    H175737   4.599   6.413   1.799 -2.2877 -0.8834 -0.5763
18082TIP3    H275738   4.640   6.556   1.826  0.4789 -1.4685 -1.5682
18083TIP3   OH275739   4.046   6.535   5.034  0.2861  0.1078  0.3068
18083TIP3    H175740   4.061   6.441   5.027 -0.1790  0.0164  0.5455
18083TIP3    H275741   4.133   6.574   5.022  0.2482 -0.2690 -1.2802
18084TIP3   OH275742   3.310   4.283   5.041 -0.5883  0.8616 -0.3018
18084TIP3    H175743   3.403   4.269   5.057 -0.6199  0.3467 -0.5538
18084TIP3    H275744   3.281   4.203   4.997 -1.3724  0.5813  0.7044
18085TIP3   OH275745   4.965   1.133   3.889 -0.5276 -0.3488  0.2979
18085TIP3    H175746   4.969   1.060   3.826 -0.3584 -0.6402  0.6441
18085TIP3    H275747   4.996   1.209   3.840 -1.0815 -0.4266 -0.1863
18086TIP3   OH275748   6.043   2.845   2.096 -0.5036 -0.4339 -0.0310
18086TIP3    H175749   6.074   2.922   2.048  1.6125 -1.2243  0.0142
18086TIP3    H275750   6.038   2.776   2.029  2.0404 -1.4247  0.7359
18087TIP3   OH275751   4.645   4.329   5.259  0.6204 -0.1667 -0.5099
18087TIP3    H175752   4.695   4.395   5.212 -0.8250 -1.3287 -3.8928
18087TIP3    H275753   4.561   4.325   5.213  0.7513 -4.4821 -0.6519
18088TIP3   OH275754   0.167   3.423   4.164  0.4277 -0.5237 -0.3989
18088TIP3    H175755   0.213   3.504   4.182 -1.7716  0.5638  0.5260
18088TIP3    H275756   0.127   3.398   4.247  0.4236 -2.1264 -0.8560
18089TIP3   OH275757   4.087   2.037   4.432 -0.2262  0.7494  0.0059
18089TIP3    H175758   4.073   2.044   4.526  1.7887 -0.5334  0.4162
18089TIP3    H275759   4.175   2.002   4.423 -0.2608  1.1919 -2.3763
18090TIP3   OH275760   3.121   7.146   0.453 -0.5676 -0.0472  0.7226
18090TIP3    H175761   3.057   7.082   0.483 -1.7413  0.5933 -0.3585
18090TIP3    H275762   3.169   7.102   0.383 -0.7288 -0.0840  0.6347
18091TIP3   OH275763   2.445   1.329   2.310 -0.1558 -0.0856  0.7984
18091TIP3    H175764   2.442   1.250   2.363 -0.8065  0.0887  1.0193
18091TIP3    H275765   2.354   1.359   2.306  0.2211  1.1944  1.5376
18092TIP3   OH275766   4.937   2.002   5.643 -0.7401 -0.3332 -0.1630
18092TIP3    H175767   5.019   2.038   5.610 -2.1511  1.1222 -2.1418
18092TIP3    H275768   4.914   2.058   5.717 -1.0565  0.5900 -0.9584
18093TIP3   OH275769   2.952   0.437   6.115  0.5265  0.2809  0.6263
18093TIP3    H175770   2.951   0.530   6.091 -0.3319 -0.0634 -0.7082
18093TIP3    H275771   2.969   0.437   6.209  0.6955  1.7859  0.6108
18094TIP3   OH275772   5.417   0.988   5.038  0.3242  0.1496  0.9586
18094TIP3    H175773   5.501   0.944   5.028 -0.2272 -0.5205 -0.9262
18094TIP3    H275774   5.361   0.950   4.970 -1.3726  0.8984  1.8944
18095TIP3   OH275775   4.264   1.504   4.420  0.0213  0.4443 -0.4410
18095TIP3    H175776   4.349   1.522   4.462  0.2041  1.0987 -1.0878
18095TIP3    H275777   4.287   1.471   4.333 -0.3764 -0.1850 -0.3120
18096TIP3   OH275778   2.501   4.239   4.723  0.1700 -0.0229  0.3521
18096TIP3    H175779   2.453   4.296   4.784  1.0280  1.1649 -0.0516
18096TIP3    H275780   2.576   4.292   4.696 -0.0634 -0.6376 -1.5545
18097TIP3   OH275781   5.812   3.653   4.262 -0.0791  0.0274  0.2726
18097TIP3    H175782   5.872   3.610   4.201  0.6440  0.5668  0.5949
18097TIP3    H275783   5.791   3.736   4.220 -2.5142 -1.1610 -0.9718
18098TIP3   OH275784   4.202   6.367   5.409  0.1489 -0.0496  0.0693
18098TIP3    H175785   4.276   6.369   5.349 -0.9838  0.1906 -1.3664
18098TIP3    H275786   4.226   6.427   5.480  0.6894  1.2119 -1.1682
18099TIP3   OH275787   3.932   3.246   1.693  0.0786 -0.5063 -0.0917
18099TIP3    H175788   4.023   3.277   1.691 -0.4255  0.9145 -2.0868
18099TIP3    H275789   3.912   3.224   1.602 -2.0935  0.7261  0.0536
18100TIP3   OH275790   4.097   0.274   3.353  0.1497 -0.1574  0.4203
18100TIP3    H175791   4.041   0.314   3.287 -0.4546 -1.1384  0.3344
18100TIP3    H275792   4.184   0.310   3.335  0.1687 -1.1366 -1.4961
18101TIP3   OH275793   4.711   1.813   5.059  1.0366  0.2693 -0.4857
18101TIP3    H175794   4.723   1.880   4.992  1.2054 -0.4080 -1.1514
18101TIP3    H275795   4.619   1.787   5.051  0.3970  1.9198  1.2205
18102TIP3   OH275796   4.422   0.581   3.293  0.3071  0.4202 -0.9649
18102TIP3    H175797   4.415   0.663   3.243 -1.1254 -0.4071 -2.1897
18102TIP3    H275798   4.482   0.601   3.365  0.3474  2.4042 -1.5230
18103TIP3   OH275799   3.473   1.885   0.762  0.3279  0.6094 -0.0014
18103TIP3    H175800   3.478   1.981   0.759  0.2488  0.6044 -0.4143
18103TIP3    H275801   3.380   1.866   0.744  0.2738  0.4684  0.4342
18104TIP3   OH275802   0.075   5.774   4.541 -0.2161  0.1788  0.3615
18104TIP3    H175803   0.155   5.780   4.592  0.6682 -0.0622 -0.9837
18104TIP3    H275804   0.013   5.831   4.587  1.1148  1.3794  0.6912
18105TIP3   OH275805   3.938   1.092   4.854  1.0287 -0.0865 -0.1138
18105TIP3    H175806   3.874   1.160   4.876  0.7576 -0.1136 -0.8285
18105TIP3    H275807   3.930   1.080   4.760 -0.2424 -2.4732  0.2770
18106TIP3   OH275808   3.177   2.222   3.181  0.1170 -0.3785 -0.1325
18106TIP3    H175809   3.118   2.297   3.177  1.4174  0.6992  0.3434
18106TIP3    H275810   3.130   2.155   3.230 -1.0045  0.1756 -0.4557
18107TIP3   OH275811   5.339   1.838   5.263 -0.2278 -0.1455  0.0630
18107TIP3    H175812   5.425   1.832   5.306 -0.2437 -1.6581 -0.1004
18107TIP3    H275813   5.312   1.747   5.252 -1.7255  0.3266 -0.1560
18108TIP3   OH275814   5.736   6.099   4.791  0.0074 -0.0032 -0.1330
18108TIP3    H175815   5.656   6.151   4.797 -1.3360 -1.7034 -2.2853
18108TIP3    H275816   5.716   6.033   4.724  3.5424  0.1037 -1.3658
18109TIP3   OH275817   0.956   4.611   4.050 -0.0434  0.1202  0.5490
18109TIP3    H175818   0.914   4.694   4.029  0.2290  0.2964  0.6938
18109TIP3    H275819   0.950   4.604   4.145  0.5001  0.2818  0.5984
18110TIP3   OH275820   4.283   1.148   2.582  0.1614 -0.4567  0.0225
18110TIP3    H175821   4.366   1.187   2.555  0.4702 -0.0809  1.5098
18110TIP3    H275822   4.307   1.061   2.614 -0.4438 -1.6824 -2.6459
18111TIP3   OH275823   5.400   1.809   3.752  0.0488  0.1521  0.5217
18111TIP3    H175824   5.363   1.886   3.709 -1.7318 -0.3617  1.0749
18111TIP3    H275825   5.353   1.735   3.712  1.2071 -0.5981  0.5286
18112TIP3   OH275826   3.867   4.633   3.176 -0.2881  0.6661  0.4909
18112TIP3    H175827   3.885   4.551   3.129  0.3485  0.9081  0.3037
18112TIP3    H275828   3.778   4.655   3.151  0.5077  1.5267 -1.7610
18113TIP3   OH275829   5.851   2.798   3.403 -0.6467 -0.6592  0.3318
18113TIP3    H175830   5.827   2.887   3.428 -1.3405 -0.4790 -0.9039
18113TIP3    H275831   5.861   2.802   3.308  1.4805 -1.4047  0.4983
18114TIP3   OH275832   7.081   4.367   5.475 -0.5059 -0.2653  0.3027
18114TIP3    H175833   7.006   4.416   5.508 -1.8742 -1.5890 -0.7479
18114TIP3    H275834   7.052   4.276   5.475  1.3651 -0.8852  0.5591
18115TIP3   OH275835   0.686   5.433   5.952  0.0507  0.0197 -0.1358
18115TIP3    H175836   0.658   5.482   6.030  2.8780  1.3920  0.1145
18115TIP3    H275837   0.747   5.493   5.908  1.8292 -2.4027 -1.0762
18116TIP3   OH275838   4.835   0.882   3.694  0.0051 -0.5053 -0.0483
18116TIP3    H175839   4.747   0.917   3.707  0.1494  0.9130 -2.4896
18116TIP3    H275840   4.829   0.790   3.721 -2.3777 -0.5908 -0.7573
18117TIP3   OH275841   2.578   3.373   5.348 -0.0845 -0.1933  0.0045
18117TIP3    H175842   2.612   3.461   5.332  2.7358 -1.0391  0.9453
18117TIP3    H275843   2.622   3.318   5.283 -1.1774 -1.0409 -0.0290
18118TIP3   OH275844   2.477   4.641   3.443  0.2694  0.1212  0.5581
18118TIP3    H175845   2.513   4.696   3.374 -1.0705  0.2709 -0.0388
18118TIP3    H275846   2.460   4.701   3.516 -0.2951  0.3378  0.2517
18119TIP3   OH275847   5.162   2.695   0.148  0.4401  0.1535 -0.0650
18119TIP3    H175848   5.222   2.651   0.088 -0.4944 -3.1982  1.3289
18119TIP3    H275849   5.081   2.705   0.099  0.3457 -0.6513 -0.0843
18120TIP3   OH275850   2.305   2.128   4.649 -0.2806  0.1044 -0.0696
18120TIP3    H175851   2.400   2.137   4.643 -0.4902  1.4489 -1.4526
18120TIP3    H275852   2.286   2.143   4.742  0.8611 -0.2258  0.2263
18121TIP3   OH275853   5.621   2.538   2.843 -0.9215 -0.0869 -0.6972
18121TIP3    H175854   5.610   2.620   2.796 -2.0882 -0.1828 -0.6081
18121TIP3    H275855   5.712   2.513   2.827 -0.9838  0.4543 -1.9611
18122TIP3   OH275856   1.730   6.190   3.466 -0.0363  0.1614  0.5771
18122TIP3    H175857   1.792   6.223   3.400 -1.0862  1.0943  0.0461
18122TIP3    H275858   1.776   6.117   3.507  1.3378  0.6970  0.0295
18123TIP3   OH275859   0.892   4.686   5.168 -0.5373  0.2196 -0.0629
18123TIP3    H175860   0.807   4.717   5.201 -0.3981  0.1376  0.3836
18123TIP3    H275861   0.931   4.762   5.126  0.5846  1.1768  2.6083
18124TIP3   OH275862   3.472   2.728   5.023  0.3818 -0.0739  0.4375
18124TIP3    H175863   3.453   2.669   4.950 -1.7084 -0.9146  1.5948
18124TIP3    H275864   3.441   2.814   4.994 -1.4069 -0.6077  0.6833
18125TIP3   OH275865   4.425   5.228   1.358 -0.2437  0.5046  0.0503
18125TIP3    H175866   4.360   5.266   1.299 -1.8475 -1.8865  0.1993
18125TIP3    H275867   4.386   5.237   1.445 -0.0298 -0.2697  0.2252
18126TIP3   OH275868   2.406   4.801   4.521  0.5691  0.4761  0.0301
18126TIP3    H175869   2.383   4.754   4.601  0.3497  0.0596 -0.2771
18126TIP3    H275870   2.366   4.887   4.530 -0.0590  0.1797  0.0470
18127TIP3   OH275871   6.381   4.267   5.364 -0.1677 -0.1608 -0.3697
18127TIP3    H175872   6.328   4.235   5.291  1.4263 -0.6872 -1.3252
18127TIP3    H275873   6.410   4.353   5.335 -2.4222  1.1642  1.1599
18128TIP3   OH275874   4.009   4.762   0.583 -0.5108  0.2106  0.0567
18128TIP3    H175875   4.062   4.695   0.627  1.3885  1.7613  0.1577
18128TIP3    H275876   4.030   4.753   0.491 -1.4921 -0.3914 -0.1177
18129TIP3   OH275877   1.723   0.258   4.374 -0.3516  0.4244  0.5261
18129TIP3    H175878   1.727   0.208   4.456  1.8185 -0.2708  0.0289
18129TIP3    H275879   1.789   0.327   4.385  0.9346 -0.5033 -1.1455
18130TIP3   OH275880   0.807   6.217   3.405 -0.1076 -0.1369 -0.7609
18130TIP3    H175881   0.723   6.192   3.445 -0.7838 -0.4672 -2.3497
18130TIP3    H275882   0.847   6.134   3.380 -0.2295  0.1199 -1.8239
18131TIP3   OH275883   3.148   2.144   3.573 -0.2941 -0.3663 -0.8904
18131TIP3    H175884   3.219   2.130   3.511  0.0439 -0.6711 -0.4396
18131TIP3    H275885   3.086   2.073   3.556 -0.3487 -0.2706 -1.0879
18132TIP3   OH275886   2.714   1.024   3.152 -0.1076  0.3933  0.1408
18132TIP3    H175887   2.737   0.951   3.210  0.6814  1.3876  1.1036
18132TIP3    H275888   2.664   0.983   3.081 -0.5892 -0.9234  1.2114
18133TIP3   OH275889   1.356   0.953   1.968 -0.4272  1.2330  0.0080
18133TIP3    H175890   1.371   0.947   2.062  1.1475 -0.4314 -0.3181
18133TIP3    H275891   1.262   0.935   1.957  0.0082 -2.0006  1.0068
18134TIP3   OH275892   3.113   7.081   4.786 -0.1194  0.1680  0.2002
18134TIP3    H175893   3.130   6.987   4.784 -1.2119 -0.0147 -0.6122
18134TIP3    H275894   3.125   7.110   4.696  1.9436  1.1381  0.7464
18135TIP3   OH275895   7.023   0.122   3.778  0.0207 -0.1297  0.0040
18135TIP3    H175896   6.955   0.064   3.743  0.0886 -0.7574  0.9062
18135TIP3    H275897   7.103   0.070   3.774  0.3044  0.3224 -0.2877
18136TIP3   OH275898   3.880   3.717   5.864  0.2986 -0.7734  0.0714
18136TIP3    H175899   3.808   3.755   5.914 -1.0792 -2.0566 -0.9055
18136TIP3    H275900   3.937   3.677   5.930 -0.3623 -0.5484  0.7801
18137TIP3   OH275901   3.648   0.008   4.591 -0.2370  0.0470 -0.2309
18137TIP3    H175902   3.563  -0.035   4.603 -0.9544  0.9617 -1.8945
18137TIP3    H275903   3.709  -0.044   4.645 -1.5388 -1.5643 -0.2716
18138TIP3   OH275904   1.540   1.052   5.103  0.4481 -0.1762  0.6624
18138TIP3    H175905   1.572   1.140   5.082 -0.0072 -0.6056 -2.1217
18138TIP3    H275906   1.452   1.066   5.137  0.4937  0.4682  0.5179
18139TIP3   OH275907   7.117   1.032   4.192 -0.1012  0.1074  0.7320
18139TIP3    H175908   7.146   0.944   4.168  0.2620  0.7774 -1.3704
18139TIP3    H275909   7.154   1.046   4.279 -0.1814 -1.8148  1.1086
18140TIP3   OH275910   0.541   2.247   4.244  0.2101 -0.6952  0.9769
18140TIP3    H175911   0.477   2.313   4.219  1.5310  1.0939  2.1725
18140TIP3    H275912   0.626   2.286   4.223  0.9759 -2.7852 -0.0356
18141TIP3   OH275913   6.645   3.491   4.546  1.4243 -0.0899 -0.1040
18141TIP3    H175914   6.634   3.441   4.626  0.8877 -0.2824 -0.2956
18141TIP3    H275915   6.556   3.503   4.512  1.5813  0.6172 -0.2849
18142TIP3   OH275916   1.095   4.217   4.621  0.5581  0.3339 -0.5364
18142TIP3    H175917   1.120   4.282   4.556 -0.9895  1.1787 -0.3140
18142TIP3    H275918   1.060   4.144   4.571  1.2587  0.1310 -0.7340
18143TIP3   OH275919   1.302   1.147   4.343  0.5528 -0.1764 -0.4339
18143TIP3    H175920   1.373   1.111   4.290  0.8250  1.2057 -1.0282
18143TIP3    H275921   1.248   1.195   4.281 -1.5620 -2.1645 -0.1793
18144TIP3   OH275922   4.476   3.750   2.599  0.6970 -0.1900  0.1905
18144TIP3    H175923   4.405   3.697   2.562  0.9816  1.2876 -2.5789
18144TIP3    H275924   4.552   3.692   2.597 -0.0588 -1.3210  1.9086
18145TIP3   OH275925   6.169   1.216   5.533  0.4081  0.3335 -0.1316
18145TIP3    H175926   6.248   1.254   5.496  2.1808 -3.2032 -0.1519
18145TIP3    H275927   6.191   1.197   5.624 -0.8629  0.5442  0.2327
18146TIP3   OH275928   1.612   1.980   0.544 -0.0554  0.4116 -1.1699
18146TIP3    H175929   1.688   1.965   0.489 -0.1514 -0.5773 -1.0465
18146TIP3    H275930   1.645   1.973   0.633  0.0757  1.8907 -1.0880
18147TIP3   OH275931   4.369   4.556   4.454 -0.3019 -0.6421 -0.3089
18147TIP3    H175932   4.415   4.602   4.383  0.5661  0.0743  0.6937
18147TIP3    H275933   4.283   4.597   4.457  0.3638  0.7701  0.3859
18148TIP3   OH275934   7.099   0.498   4.118  0.0551 -0.6150  0.9898
18148TIP3    H175935   7.018   0.492   4.169  0.9258 -1.8894  2.2626
18148TIP3    H275936   7.149   0.420   4.143  1.4378 -0.1390 -0.2081
18149TIP3   OH275937   3.399   1.133   0.734 -0.4197  0.0592 -0.3703
18149TIP3    H175938   3.309   1.113   0.707 -1.1345  2.4624  0.1059
18149TIP3    H275939   3.452   1.116   0.657 -1.3597 -0.8078 -0.8365
18150TIP3   OH275940   5.632   5.992   1.139  0.2492  0.1461  0.2647
18150TIP3    H175941   5.720   6.016   1.111  0.5419  0.0360  1.0595
18150TIP3    H275942   5.582   6.074   1.135  1.2682  0.9671  3.0669
18151TIP3   OH275943   3.886   6.401   5.575 -0.2278 -0.7969 -0.0281
18151TIP3    H175944   3.934   6.323   5.547  1.1998 -0.0476  0.2387
18151TIP3    H275945   3.900   6.404   5.670  0.6270  0.3618 -0.1833
18152TIP3   OH275946   3.206   1.158   4.215 -0.4715  0.8999 -0.4106
18152TIP3    H175947   3.228   1.190   4.128  0.6572  0.0443 -0.4536
18152TIP3    H275948   3.173   1.069   4.201  0.5735  0.4201  0.1084
18153TIP3   OH275949   3.726   1.513   4.614  0.6249 -0.3109  0.0162
18153TIP3    H175950   3.775   1.592   4.592 -0.7226  0.7425  0.7689
18153TIP3    H275951   3.660   1.506   4.545  0.6161 -0.6842  0.0607
18154TIP3   OH275952   4.349   1.134   4.188  0.6417  0.2437 -0.4952
18154TIP3    H175953   4.322   1.086   4.266  3.1043  0.1821  0.3772
18154TIP3    H275954   4.340   1.226   4.212 -0.1986  0.2240 -0.7317
18155TIP3   OH275955   0.271   1.970   4.073 -0.3641 -0.3538  0.2532
18155TIP3    H175956   0.294   1.878   4.083  1.2950 -0.4002 -3.1791
18155TIP3    H275957   0.210   1.972   3.999 -2.2906  1.0772  1.8304
18156TIP3   OH275958   3.119   4.136   3.471 -0.8830 -0.2532 -0.0847
18156TIP3    H175959   3.116   4.230   3.450 -0.2887 -0.0632  0.6516
18156TIP3    H275960   3.051   4.097   3.416 -1.8988  0.7701  0.4171
18157TIP3   OH275961   3.585   2.737   4.364  0.6263  0.1824  0.1361
18157TIP3    H175962   3.616   2.653   4.399  0.8512 -0.8614 -2.4506
18157TIP3    H275963   3.510   2.715   4.310  0.6806  1.6521 -0.5707
18158TIP3   OH275964   1.564   3.683   4.272 -0.0207 -0.5769  0.1413
18158TIP3    H175965   1.583   3.678   4.179  0.5707  1.2380  0.1390
18158TIP3    H275966   1.638   3.640   4.314  1.3651  1.4806 -0.1118
18159TIP3   OH275967   6.405   1.599   5.896  0.2555  0.6735  0.1489
18159TIP3    H175968   6.437   1.627   5.982  1.2430  1.7072 -0.5433
18159TIP3    H275969   6.338   1.664   5.873  0.6474  0.9326 -0.2682
18160TIP3   OH275970   5.909   3.111   4.796 -0.0562  0.3705 -0.5385
18160TIP3    H175971   5.997   3.150   4.794 -0.3767  1.0553 -1.8300
18160TIP3    H275972   5.908   3.058   4.876  1.0947  1.3754  0.1570
18161TIP3   OH275973   4.065   6.023   2.188  0.2196  0.1459 -0.5556
18161TIP3    H175974   3.993   6.055   2.134 -0.5009 -0.0537  0.2773
18161TIP3    H275975   4.036   5.937   2.219  1.0216 -0.1542 -0.6073
18162TIP3   OH275976   4.315   2.803   5.524 -0.1132 -0.0337  0.4751
18162TIP3    H175977   4.281   2.885   5.561 -0.6778  0.1202 -0.3624
18162TIP3    H275978   4.406   2.799   5.553  0.4233  1.7422 -0.8256
18163TIP3   OH275979   1.890   2.628  14.830  0.1507 -0.3239  0.4503
18163TIP3    H175980   1.838   2.675  14.765 -0.5100 -1.3208  0.2621
18163TIP3    H275981   1.916   2.696  14.892 -2.6285 -0.0558  1.3708
18164TIP3   OH275982   4.775   2.059   4.946  0.5223 -0.0157  0.0273
18164TIP3    H175983   4.738   2.117   5.013 -1.1057 -0.6151 -0.3205
18164TIP3    H275984   4.811   2.119   4.880 -1.3690  0.6454 -0.4585
18165TIP3   OH275985   4.579   2.805   5.575 -1.0406  0.0009  0.2365
18165TIP3    H175986   4.596   2.755   5.654  1.4447  0.1816 -0.1390
18165TIP3    H275987   4.665   2.817   5.535 -1.8806  2.5061 -0.9261
18166TIP3   OH275988   4.518   5.742   5.829 -0.3755 -0.5446  0.3978
18166TIP3    H175989   4.586   5.804   5.853 -0.5979 -0.5835  1.1285
18166TIP3    H275990   4.440   5.797   5.815 -0.4263 -0.5989  0.4716
18167TIP3   OH275991   6.193   3.711   5.555 -0.2052 -0.2447 -0.2993
18167TIP3    H175992   6.125   3.764   5.596  1.1094  0.2479  1.2674
18167TIP3    H275993   6.258   3.698   5.623  0.8383 -1.4996 -1.5114
18168TIP3   OH275994   5.172   3.259   5.346  0.1295 -0.1685 -0.8728
18168TIP3    H175995   5.243   3.225   5.401 -0.2591 -0.7151 -0.7122
18168TIP3    H275996   5.202   3.242   5.256 -0.2917 -1.4256 -0.7924
18169TIP3   OH275997   4.676   1.461   1.597 -0.1503  0.9337  0.2159
18169TIP3    H175998   4.620   1.537   1.612 -1.0114 -0.1407  2.7923
18169TIP3    H275999   4.743   1.467   1.665  0.3241 -0.1185 -0.1478
18170TIP3   OH276000   4.446   3.730   5.049  0.0058  0.0749 -0.5512
18170TIP3    H176001   4.446   3.651   5.104 -2.7936  0.9323  0.7699
18170TIP3    H276002   4.462   3.802   5.110  2.6443  0.5925 -1.7738
18171TIP3   OH276003   0.590   3.008   1.860 -0.2670 -0.3296 -0.0974
18171TIP3    H176004   0.566   2.916   1.847  2.0667 -0.7501 -1.6404
18171TIP3    H276005   0.623   3.037   1.775 -0.1680  1.7001  0.6050
18172TIP3   OH276006   4.668   4.052   5.081 -0.1137 -0.6380 -0.1458
18172TIP3    H176007   4.662   3.992   5.007  1.1798 -1.9603  0.7917
18172TIP3    H276008   4.761   4.077   5.084 -0.2103 -0.3617  0.8495
18173TIP3   OH276009   5.947   3.498   5.372  0.3967  0.0853  0.2881
18173TIP3    H176010   6.017   3.554   5.338  0.4158  0.3215  0.7245
18173TIP3    H276011   5.871   3.520   5.318  0.6793 -0.2586 -0.2695
18174TIP3   OH276012   5.388   4.930   4.013  0.0840  0.1225  0.6531
18174TIP3    H176013   5.365   4.993   3.944  0.9340 -0.1087  0.1585
18174TIP3    H276014   5.376   4.980   4.095  1.9726  1.3280  0.2181
18175TIP3   OH276015   6.592   5.656   3.620  0.2434 -0.4199  0.4503
18175TIP3    H176016   6.536   5.710   3.675  1.9904  0.4459  1.4073
18175TIP3    H276017   6.621   5.714   3.550  1.4092 -0.3300  0.9894
18176TIP3   OH276018   2.382   4.103   5.453 -0.2914 -0.7207 -0.1279
18176TIP3    H176019   2.424   4.063   5.530  0.0097 -0.9419 -0.4068
18176TIP3    H276020   2.291   4.116   5.480  0.0559  0.1679  0.6378
18177TIP3   OH276021   3.687   4.774   3.824  0.3602 -0.9052 -0.4486
18177TIP3    H176022   3.704   4.770   3.918  0.9163 -0.7645 -0.5395
18177TIP3    H276023   3.625   4.847   3.814 -0.5418 -1.6079 -0.0826
18178TIP3   OH276024   5.931   3.960   5.485 -0.4831  0.3279  0.1364
18178TIP3    H176025   5.916   3.966   5.579 -0.8165 -1.1555  0.1942
18178TIP3    H276026   5.861   4.011   5.446 -0.7910  0.3197  0.6763
18179TIP3   OH276027   1.103   2.580   2.569 -0.6471  0.1439 -0.4087
18179TIP3    H176028   1.069   2.566   2.480  2.3235 -0.1300 -1.5696
18179TIP3    H276029   1.097   2.494   2.610  0.5405 -0.3923 -1.3156
18180TIP3   OH276030   3.839   4.822   5.353 -0.1631  0.8649  0.3118
18180TIP3    H176031   3.780   4.748   5.339  0.5001  0.3591  0.1437
18180TIP3    H276032   3.927   4.783   5.352  0.1375  1.4848  1.3466
18181TIP3   OH276033   3.846   2.856   4.483  0.2889  0.0384 -0.1837
18181TIP3    H176034   3.786   2.791   4.520  0.4922  1.0156  1.9063
18181TIP3    H276035   3.789   2.928   4.455  0.5300  1.4724  2.8615
18182TIP3   OH276036   6.275   2.691   5.662 -0.9374 -0.1375 -0.3381
18182TIP3    H176037   6.288   2.654   5.749 -3.0928 -1.8258 -0.6718
18182TIP3    H276038   6.193   2.740   5.669 -2.0378 -1.6770 -1.7782
18183TIP3   OH276039   6.452   0.834   5.175 -0.6145 -0.3096 -0.2610
18183TIP3    H176040   6.426   0.925   5.159 -0.1666 -0.3633 -1.3303
18183TIP3    H276041   6.481   0.802   5.090 -2.4106 -2.0161 -0.2688
18184TIP3   OH276042   6.360   2.691   4.998  0.5301 -0.0273  0.5818
18184TIP3    H176043   6.281   2.638   5.008 -0.5887  1.6471  0.7656
18184TIP3    H276044   6.419   2.661   5.067  0.1363 -1.4031  0.3289
18185TIP3   OH276045   3.342   1.498   1.073  0.0317 -0.3958  0.1098
18185TIP3    H176046   3.272   1.447   1.034 -1.7321 -0.0484  2.6899
18185TIP3    H276047   3.412   1.435   1.089  0.1351 -0.8487 -1.9875
18186TIP3   OH276048   2.718   2.858   3.274 -0.6091 -0.3191 -0.4687
18186TIP3    H176049   2.688   2.868   3.365 -0.3098 -2.2392 -0.1259
18186TIP3    H276050   2.813   2.865   3.279 -0.6136 -0.1166 -0.6766
18187TIP3   OH276051   7.107   1.082   3.809 -0.0825  0.0740 -0.1225
18187TIP3    H176052   7.163   1.024   3.757 -0.2026 -0.5202  0.4060
18187TIP3    H276053   7.024   1.035   3.817  0.4097 -0.5118  1.8457
18188TIP3   OH276054   5.443   5.877   3.953  0.8151  0.4281  0.5224
18188TIP3    H176055   5.364   5.826   3.935 -0.3254  2.9834 -2.3427
18188TIP3    H276056   5.513   5.812   3.960 -0.9899 -1.6834 -0.3070
18189TIP3   OH276057   5.240   0.324   3.829 -0.1114  0.5114  0.7881
18189TIP3    H176058   5.284   0.377   3.896  0.0180  0.8306  0.4566
18189TIP3    H276059   5.147   0.345   3.840 -0.0899  0.5733  0.8611
18190TIP3   OH276060   4.247   1.569   5.259 -0.0143  0.4177  0.8469
18190TIP3    H176061   4.246   1.657   5.295 -0.7987  1.0227 -0.6371
18190TIP3    H276062   4.179   1.569   5.191  0.1295 -1.2517  0.6678
18191TIP3   OH276063   0.668   0.468   3.309  0.5953  0.5862  0.4432
18191TIP3    H176064   0.577   0.444   3.291  1.0316 -1.5011  0.9488
18191TIP3    H276065   0.690   0.533   3.241 -1.5354  1.8115  0.8718
18192TIP3   OH276066   4.499   6.400   5.022  0.8045  0.0827 -0.0980
18192TIP3    H176067   4.424   6.363   4.976  2.4389 -1.2350 -1.7711
18192TIP3    H276068   4.529   6.472   4.966 -0.6630  2.2067  1.7704
18193TIP3   OH276069   5.475   3.122  14.103  0.0197  0.0212  0.1444
18193TIP3    H176070   5.478   3.173  14.022  1.2627  0.5181  0.4941
18193TIP3    H276071   5.488   3.187  14.172 -1.3165 -0.3627  0.7572
18194TIP3   OH276072   6.251   0.632   4.915 -0.1046 -0.0344  0.9307
18194TIP3    H176073   6.164   0.638   4.955  1.7020  1.3367  4.9134
18194TIP3    H276074   6.253   0.704   4.852 -1.7188  0.1665  1.0811
18195TIP3   OH276075   2.117   1.109   1.937  0.0783 -0.2736 -0.1643
18195TIP3    H176076   2.141   1.096   1.845  2.6789 -2.4352  0.7392
18195TIP3    H276077   2.185   1.168   1.971  0.0112 -0.6757  0.6934
18196TIP3   OH276078   2.377   7.050   2.089  0.0196 -0.0159 -0.2998
18196TIP3    H176079   2.283   7.037   2.077  0.1094  0.0441 -1.1240
18196TIP3    H276080   2.384   7.112   2.161 -0.5709 -0.1254 -0.1447
18197TIP3   OH276081   1.352   3.326   5.102  0.2191 -0.6880  0.5058
18197TIP3    H176082   1.362   3.268   5.177 -0.6733 -0.1905  1.0252
18197TIP3    H276083   1.441   3.349   5.077  0.5293 -0.9808  1.3150
18198TIP3   OH276084   4.939   4.719   4.996  0.2671 -0.5138  0.5967
18198TIP3    H176085   4.885   4.655   5.043 -1.4700  1.2775  1.1076
18198TIP3    H276086   4.916   4.707   4.904  1.4683 -1.9874  0.4638
18199TIP3   OH276087   2.751   0.738   4.687  0.0333  0.1727 -0.1415
18199TIP3    H176088   2.662   0.703   4.696 -0.0500  0.8056  1.6827
18199TIP3    H276089   2.804   0.679   4.740  0.6439  0.0330 -0.9088
18200TIP3   OH276090   1.434   5.448   0.917  0.2131 -0.3136  0.1697
18200TIP3    H176091   1.511   5.399   0.887 -0.2161 -1.5272  1.0082
18200TIP3    H276092   1.470   5.515   0.974  0.6846 -0.6484  0.2724
18201TIP3   OH276093   2.136   5.078   6.104 -0.2964 -0.2548  0.4850
18201TIP3    H176094   2.166   5.108   6.190 -1.4696  0.0098  0.8077
18201TIP3    H276095   2.148   4.983   6.108  1.4522 -0.0729  0.2213
18202TIP3   OH276096   2.854   3.678   1.590 -0.6546 -0.0872 -0.0482
18202TIP3    H176097   2.882   3.639   1.508 -0.3142 -0.7506  0.3832
18202TIP3    H276098   2.780   3.624   1.618  0.0592 -0.6501  0.7430
18203TIP3   OH276099   5.651   6.206   3.189  0.1378 -0.8598  0.4402
18203TIP3    H176100   5.569   6.174   3.228 -0.4471  1.2487  1.0037
18203TIP3    H276101   5.678   6.278   3.246  1.8771 -0.9143 -0.2985
18204TIP3   OH276102   5.237   4.249   3.493  0.0329  0.7192  0.7073
18204TIP3    H176103   5.146   4.226   3.513  0.4163  0.8270  2.6340
18204TIP3    H276104   5.232   4.286   3.405 -1.7958  0.7206  0.7730
18205TIP3   OH276105   5.382   4.618   5.477  0.1603 -0.9983 -0.7310
18205TIP3    H176106   5.464   4.574   5.498  0.2530 -0.3604  0.2455
18205TIP3    H276107   5.346   4.643   5.562  0.1301  0.8443 -1.2720
18206TIP3   OH276108   2.692   2.185   4.241 -0.4476 -0.1552 -0.4445
18206TIP3    H176109   2.669   2.092   4.250 -0.0386 -0.3945 -1.7928
18206TIP3    H276110   2.626   2.231   4.294  0.8624 -1.3651  2.3076
18207TIP3   OH276111   2.857   4.774   5.374  0.0465 -0.1494  0.4398
18207TIP3    H176112   2.929   4.837   5.374 -1.1254  1.2123  0.1976
18207TIP3    H276113   2.900   4.688   5.372  1.6612  0.6295  0.9611
18208TIP3   OH276114   1.069   2.894   4.430  0.4513  0.0020 -0.0440
18208TIP3    H176115   0.983   2.883   4.471 -0.5589 -0.0170 -2.0986
18208TIP3    H276116   1.125   2.831   4.476 -0.6500 -0.0606  1.2545
18209TIP3   OH276117   3.084   0.431   4.506 -0.4826  0.4355  0.2967
18209TIP3    H176118   3.159   0.427   4.447 -2.1898  0.1971 -1.9306
18209TIP3    H276119   3.030   0.356   4.481 -1.6895  0.8706  1.5385
18210TIP3   OH276120   6.139   3.247   5.436 -0.1770 -0.1063  0.1474
18210TIP3    H176121   6.117   3.339   5.446  2.2281  0.3175  1.8563
18210TIP3    H276122   6.130   3.231   5.342  0.6966  2.2018 -0.3606
18211TIP3   OH276123   6.114   2.359   2.688 -0.3045 -0.1065 -0.0810
18211TIP3    H176124   6.080   2.280   2.729  0.6768 -0.2113  0.5332
18211TIP3    H276125   6.145   2.413   2.760 -0.7689  0.7533 -0.5106
18212TIP3   OH276126   0.439   4.313   4.732 -0.4726  0.0848 -0.0884
18212TIP3    H176127   0.394   4.256   4.794 -1.2291  0.2826 -0.4558
18212TIP3    H276128   0.498   4.255   4.684 -0.6466 -0.2500  0.1040
18213TIP3   OH276129   4.561   6.881   4.223  0.7155 -0.4546  0.4679
18213TIP3    H176130   4.466   6.876   4.228  0.6495  1.0127  0.8843
18213TIP3    H276131   4.590   6.866   4.313  0.7690  1.0240  0.7114
18214TIP3   OH276132   2.473   1.832   5.399 -0.3227  0.2980  0.4297
18214TIP3    H176133   2.428   1.840   5.483 -1.0730 -1.6360  0.2321
18214TIP3    H276134   2.559   1.797   5.422 -0.6024 -0.4270  0.3722
18215TIP3   OH276135   2.740   1.498   1.484  0.8940  0.7695 -0.2136
18215TIP3    H176136   2.821   1.447   1.488  0.9141  0.8509  0.7254
18215TIP3    H276137   2.763   1.577   1.435  0.6583 -0.4667 -2.3398
18216TIP3   OH276138   5.812   6.298   5.575 -0.2299 -0.0375  0.1606
18216TIP3    H176139   5.857   6.261   5.651  2.0530 -0.3112 -1.2853
18216TIP3    H276140   5.881   6.310   5.509 -2.0848  0.5997 -1.7279
18217TIP3   OH276141   1.961   3.639   4.773 -0.3895 -0.2604 -0.2831
18217TIP3    H176142   1.882   3.684   4.744 -0.8553 -0.5878  0.4590
18217TIP3    H276143   2.012   3.706   4.817 -1.4865 -0.6370  1.5993
18218TIP3   OH276144   2.858   2.011   3.791  0.1068 -0.1579 -0.0908
18218TIP3    H176145   2.861   2.079   3.858 -1.3893  0.8413 -0.9876
18218TIP3    H276146   2.945   1.972   3.791  0.1480 -0.1246  2.3676
18219TIP3   OH276147   2.151   0.985   3.152  0.1037 -0.3763 -0.6027
18219TIP3    H176148   2.151   1.070   3.196 -0.6907 -0.8261  0.2779
18219TIP3    H276149   2.148   0.921   3.223  5.1603 -1.2955 -1.0416
18220TIP3   OH276150   2.957   1.548   4.540 -0.3788  0.0404 -0.6601
18220TIP3    H176151   2.988   1.459   4.523 -1.2021 -0.5816  1.0664
18220TIP3    H276152   3.030   1.591   4.585 -0.8123 -0.4343  0.4928
18221TIP3   OH276153   5.272   2.409   5.143  0.3467  0.1038 -0.3810
18221TIP3    H176154   5.235   2.343   5.085  1.2614 -2.3644  1.6992
18221TIP3    H276155   5.300   2.479   5.086 -1.0326 -1.1395 -2.6491
18222TIP3   OH276156   1.171   2.166   4.499  0.4634  0.0636  0.7310
18222TIP3    H176157   1.231   2.098   4.469 -1.4128 -2.2785  2.0987
18222TIP3    H276158   1.188   2.174   4.593 -1.4898 -0.8135  1.1918
18223TIP3   OH276159   4.501   1.423   4.866 -0.0913  0.3040 -0.5698
18223TIP3    H176160   4.472   1.511   4.841 -0.1490  1.0023  1.8453
18223TIP3    H276161   4.421   1.373   4.879 -0.0837  0.2495 -0.7369
18224TIP3   OH276162   3.654   3.232   4.136  0.1065  0.4855 -0.8282
18224TIP3    H176163   3.575   3.179   4.122  0.6284 -0.1467 -1.4215
18224TIP3    H276164   3.622   3.315   4.170 -0.8556  0.4366 -1.6032
18225TIP3   OH276165   4.084   1.016   1.494 -0.1620 -0.1847  0.0156
18225TIP3    H176166   4.099   1.069   1.572  1.0949  0.3193 -0.5566
18225TIP3    H276167   4.168   1.015   1.449 -0.2177 -2.5592 -0.0762
18226TIP3   OH276168   0.307   3.106   4.754 -0.2923  0.6457 -0.0874
18226TIP3    H176169   0.262   3.081   4.834 -1.4343  0.3619 -0.7945
18226TIP3    H276170   0.381   3.047   4.747 -1.2319 -0.5267 -0.1805
18227TIP3   OH276171   3.821   3.749   3.947  0.4287 -0.4844  0.5013
18227TIP3    H176172   3.874   3.672   3.926 -0.5816 -1.5356  1.7939
18227TIP3    H276173   3.812   3.795   3.864 -1.5589 -3.3684 -0.9426
18228TIP3   OH276174   3.764   2.395   4.986 -0.6164  0.7926  0.3429
18228TIP3    H176175   3.733   2.446   5.061  1.6616  2.7227  0.0263
18228TIP3    H276176   3.719   2.311   4.994 -3.1846  2.2497  1.8070
18229TIP3   OH276177   6.265   5.052   4.418  0.1199 -0.3304  0.2303
18229TIP3    H176178   6.215   5.130   4.395  0.6412  0.0838  0.4875
18229TIP3    H276179   6.352   5.086   4.443  0.2884 -0.9697  0.5211
18230TIP3   OH276180   6.999   2.530   3.793 -0.2729  0.2188 -0.1134
18230TIP3    H176181   6.930   2.594   3.809 -0.3542  0.2105 -0.4347
18230TIP3    H276182   6.980   2.458   3.854 -1.8475 -0.8023 -1.7440
18231TIP3   OH276183   2.945   1.475   5.044 -0.2958 -0.6879 -0.2045
18231TIP3    H176184   2.876   1.499   4.983  0.8764 -0.0240 -1.2795
18231TIP3    H276185   3.026   1.504   5.003  0.7576 -2.5967  0.4467
18232TIP3   OH276186   1.314   4.924   4.195  0.3809  0.2740 -0.2082
18232TIP3    H176187   1.333   4.840   4.154  0.3805 -0.0922  0.5286
18232TIP3    H276188   1.394   4.975   4.186  1.6538 -1.1195  2.5471
18233TIP3   OH276189   4.251   2.485   4.932  0.0675 -0.2729  0.0349
18233TIP3    H176190   4.177   2.428   4.911 -1.0715  0.0017  2.9865
18233TIP3    H276191   4.328   2.429   4.922 -0.7546 -1.3327 -0.4623
18234TIP3   OH276192   6.947   4.736   2.156  0.5458 -0.5310 -0.0766
18234TIP3    H176193   6.952   4.708   2.248  2.5122 -0.4743 -0.1494
18234TIP3    H276194   6.997   4.818   2.153 -2.4157  1.3287 -0.5226
18235TIP3   OH276195   2.161   4.802   1.117  0.1702 -0.2992  0.0463
18235TIP3    H176196   2.168   4.715   1.077  0.2963 -1.1659  1.8983
18235TIP3    H276197   2.180   4.787   1.209  0.2975  1.7323  0.3622
18236TIP3   OH276198   6.027   5.710   1.721  0.2768 -0.5185 -0.6630
18236TIP3    H176199   6.000   5.769   1.791 -1.1701  0.7730 -2.2545
18236TIP3    H276200   5.976   5.630   1.735 -0.9414  0.1968 -0.9497
18237TIP3   OH276201   0.288   4.457   5.336 -0.5260 -0.6246 -0.2455
18237TIP3    H176202   0.203   4.500   5.323  0.7187  2.3912  1.2613
18237TIP3    H276203   0.330   4.464   5.250 -0.8127  0.1004 -0.3370
18238TIP3   OH276204   7.078   5.478   3.710 -0.5017 -0.0202  0.3158
18238TIP3    H176205   7.089   5.384   3.723 -0.4624 -0.2204 -1.0327
18238TIP3    H276206   7.160   5.505   3.668 -0.5305  0.6044  0.6602
18239TIP3   OH276207   6.954   5.662   3.162  0.1824  0.3624 -0.3353
18239TIP3    H176208   6.918   5.673   3.074  1.1893  0.3635 -0.7636
18239TIP3    H276209   6.994   5.575   3.161 -2.0741 -0.7229  0.9651
18240TIP3   OH276210   6.501   4.070   1.630  0.4264  0.0799  0.0451
18240TIP3    H176211   6.505   4.156   1.672  0.6589 -0.1052  0.4126
18240TIP3    H276212   6.482   4.089   1.538  0.5248  0.5278  0.1127
18241TIP3   OH276213   3.589   1.643   5.230 -0.5346  0.0873  0.5188
18241TIP3    H176214   3.658   1.607   5.286 -1.8705 -0.8896  1.5624
18241TIP3    H276215   3.542   1.704   5.286 -1.4848 -0.4153  0.2746
18242TIP3   OH276216   7.088   6.065   3.719 -0.2083 -0.0643  0.3590
18242TIP3    H176217   6.999   6.080   3.690 -0.6363  0.9108  2.0898
18242TIP3    H276218   7.142   6.087   3.643 -1.3843  0.4158 -0.3537
18243TIP3   OH276219   0.701   2.047   2.514 -0.1377  0.0698 -0.4037
18243TIP3    H176220   0.729   1.956   2.505 -1.0948 -0.3993  1.2609
18243TIP3    H276221   0.738   2.076   2.597  0.1153  1.2035 -0.8968
18244TIP3   OH276222   6.359   2.109   5.198  0.1766  0.8426  0.1375
18244TIP3    H176223   6.371   2.014   5.200 -3.0144  0.4069  1.2162
18244TIP3    H276224   6.417   2.142   5.267  1.1745 -0.3300 -0.1211
18245TIP3   OH276225   6.064   6.798   3.874 -0.2159  0.2642 -0.3990
18245TIP3    H176226   6.048   6.755   3.790  2.6418 -0.8568 -0.4375
18245TIP3    H276227   5.984   6.785   3.924 -1.6058  0.1429 -2.6191
18246TIP3   OH276228   2.736   4.519   3.633  0.1556  0.1244 -0.7029
18246TIP3    H176229   2.749   4.488   3.723  1.1805  1.0611 -0.5140
18246TIP3    H276230   2.647   4.494   3.612 -0.1538  0.0435  0.6443
18247TIP3   OH276231   6.883   2.492  15.191 -0.1142  0.2077 -0.2211
18247TIP3    H176232   6.878   2.514  15.284  0.1270  1.5010 -0.5122
18247TIP3    H276233   6.897   2.575  15.147 -1.4720 -0.2305 -1.5341
18248TIP3   OH276234   7.169   3.092   3.982  0.0832 -0.0793 -0.5697
18248TIP3    H176235   7.112   3.159   4.020 -0.8522 -1.0861 -0.1713
18248TIP3    H276236   7.132   3.074   3.896  1.3220  1.1081 -1.3771
18249TIP3   OH276237   5.253   3.061   6.032  0.5490  0.5381  0.7265
18249TIP3    H176238   5.323   3.093   6.089 -0.5729  0.7715  1.9757
18249TIP3    H276239   5.224   3.139   5.984 -0.1586  0.8318  1.6131
18250TIP3   OH276240   4.515   3.094   4.699 -0.0338  0.2246  0.4412
18250TIP3    H176241   4.420   3.085   4.709  0.0194 -3.1108 -1.2487
18250TIP3    H276242   4.528   3.185   4.672 -2.6045  1.1365  2.1508
18251TIP3   OH276243   2.732   1.681   4.090  0.5698  0.0787 -0.0961
18251TIP3    H176244   2.783   1.657   4.167 -0.1067  0.5724  0.5160
18251TIP3    H276245   2.796   1.689   4.019  1.2320 -0.0562  0.4894
18252TIP3   OH276246   0.226   1.309   5.104 -0.2133  0.7972 -0.7491
18252TIP3    H176247   0.303   1.251   5.106 -1.2815 -0.6528  2.6689
18252TIP3    H276248   0.173   1.275   5.032  0.9641 -0.0531 -1.2426
18253TIP3   OH276249   2.675   1.560   5.723 -0.2283 -0.1322  0.0843
18253TIP3    H176250   2.725   1.480   5.711  1.3064  0.6661  0.9073
18253TIP3    H276251   2.649   1.587   5.635  0.6996 -0.6153 -0.3338
18254TIP3   OH276252   4.496   3.156   5.731  0.8057  0.2748  0.1504
18254TIP3    H176253   4.576   3.108   5.753  0.7409  0.8636  1.7258
18254TIP3    H276254   4.504   3.239   5.779 -0.4645  0.5951 -0.1809
18255TIP3   OH276255   2.871   1.965   4.647 -0.0785  0.1105 -0.2515
18255TIP3    H176256   2.899   2.021   4.720  2.0042 -1.4726  0.2322
18255TIP3    H276257   2.789   1.926   4.677  1.8851 -2.3064  2.2867
18256TIP3   OH276258   2.338   6.306   4.224  0.2475  0.2001 -0.3070
18256TIP3    H176259   2.347   6.327   4.131 -0.2311  0.1676 -0.3613
18256TIP3    H276260   2.256   6.258   4.230  0.3794  0.0248  0.1060
18257TIP3   OH276261   6.172   0.047   1.668  0.0561  0.3896 -0.1205
18257TIP3    H176262   6.146   0.070   1.758 -1.5439 -0.0672 -0.4372
18257TIP3    H276263   6.229  -0.029   1.678 -1.5990 -0.8256  0.4308
18258TIP3   OH276264   2.604   5.078   1.948  0.0507  0.7754  0.4374
18258TIP3    H176265   2.664   5.030   2.005 -0.2605  0.2026  0.2877
18258TIP3    H276266   2.645   5.163   1.936  1.9106 -0.3570 -1.4505
18259TIP3   OH276267   3.985   1.169   5.277  0.2342 -0.3181  0.4219
18259TIP3    H176268   4.010   1.080   5.254  0.4882  0.2730 -1.6635
18259TIP3    H276269   4.060   1.204   5.323  0.0170 -1.2732  1.5307
18260TIP3   OH276270   1.443   0.912   4.810 -0.1803  0.0003  0.4347
18260TIP3    H176271   1.458   0.954   4.726 -0.5871 -0.1698  0.2702
18260TIP3    H276272   1.514   0.942   4.866  0.2379 -0.0864 -0.0466
18261TIP3   OH276273   6.285   5.585   4.537 -0.1695  0.5714  0.5254
18261TIP3    H176274   6.247   5.513   4.587 -0.3165  1.3237  1.5054
18261TIP3    H276275   6.248   5.575   4.450  0.1303 -0.7819  0.5316
18262TIP3   OH276276   6.743   4.189   5.467  0.6490  0.6445  0.1072
18262TIP3    H176277   6.836   4.178   5.486  1.1309 -2.2047 -3.4618
18262TIP3    H276278   6.699   4.145   5.539  2.1449 -0.4706  0.3780
18263TIP3   OH276279   5.931   1.829   5.084 -0.1756 -0.1662  0.0866
18263TIP3    H176280   5.976   1.907   5.052 -0.1727 -0.4501 -0.6302
18263TIP3    H276281   5.838   1.853   5.085 -0.2141 -0.2656 -0.4959
18264TIP3   OH276282   4.928   0.955   1.896 -0.1132  0.2598 -0.2000
18264TIP3    H176283   4.833   0.963   1.906 -0.4621 -1.8460 -1.5171
18264TIP3    H276284   4.944   0.962   1.802  0.8553 -1.0564 -0.1455
18265TIP3   OH276285   3.516   6.590   4.602  0.3893 -0.6212 -0.8017
18265TIP3    H176286   3.471   6.576   4.519  1.4457 -0.9395 -1.3356
18265TIP3    H276287   3.609   6.580   4.581  0.6829 -0.4975  0.3750
18266TIP3   OH276288   2.870   1.185   3.347 -0.0344 -0.5553 -0.4192
18266TIP3    H176289   2.780   1.158   3.330 -0.0285 -0.7521 -0.1436
18266TIP3    H276290   2.917   1.165   3.266  0.1441 -2.1328  0.0670
18267TIP3   OH276291   6.964   4.909   5.363  0.8845  0.6996 -0.2238
18267TIP3    H176292   7.011   4.857   5.297  0.3447  0.6903 -0.6056
18267TIP3    H276293   7.005   4.885   5.446 -0.1229 -1.2332 -0.2583
18268TIP3   OH276294   3.478   4.742   5.605 -0.2974  0.5279 -0.0223
18268TIP3    H176295   3.453   4.664   5.655 -0.4125  1.4423  1.3674
18268TIP3    H276296   3.559   4.772   5.646 -0.3281  1.2260 -0.4691
18269TIP3   OH276297   3.350   0.867   2.815  0.5409 -0.3940 -0.1251
18269TIP3    H176298   3.409   0.806   2.771  1.3126 -0.3231  0.8112
18269TIP3    H276299   3.269   0.861   2.764  1.2258 -0.7501 -1.2094
18270TIP3   OH276300   3.125   1.925   3.781  0.1138 -0.0092 -0.6827
18270TIP3    H176301   3.128   1.886   3.694 -0.7057  1.4852 -1.3937
18270TIP3    H276302   3.214   1.915   3.815  0.5303 -0.2855 -1.8349
18271TIP3   OH276303   1.596   4.118   5.959 -1.3660  0.0833  0.4019
18271TIP3    H176304   1.627   4.030   5.938 -1.2046  0.0451  0.7919
18271TIP3    H276305   1.501   4.113   5.946 -1.2136  0.2161 -0.8343
18272TIP3   OH276306   4.006   3.118   5.016 -0.1367  0.1573  0.2580
18272TIP3    H176307   4.050   3.108   4.932 -0.2554  1.1557  0.0703
18272TIP3    H276308   4.075   3.103   5.081  0.4971  1.6575 -0.0340
18273TIP3   OH276309   4.037   3.556   4.566  0.1763  0.0610 -0.2352
18273TIP3    H176310   4.088   3.517   4.495  0.2133  1.9696 -1.3000
18273TIP3    H276311   4.030   3.649   4.542 -0.8070  0.5031  1.6732
18274TIP3   OH276312   5.311   5.834   2.176  0.9030 -0.3371  0.2412
18274TIP3    H176313   5.306   5.778   2.254  1.4999 -1.5101 -0.5452
18274TIP3    H276314   5.241   5.800   2.119  2.8426 -1.9065 -1.2586
18275TIP3   OH276315   2.322   2.176   1.278  0.3230 -0.0155 -0.1069
18275TIP3    H176316   2.282   2.262   1.290  0.7956  0.3827 -1.3551
18275TIP3    H276317   2.363   2.157   1.362 -0.0054  0.8660  0.2596
18276TIP3   OH276318   4.937   5.111   3.006 -0.1731  0.1805  0.0397
18276TIP3    H176319   4.920   5.204   2.992  1.3241  0.5806  0.7883
18276TIP3    H276320   4.920   5.070   2.921 -1.0619  1.1041 -0.2280
18277TIP3   OH276321   4.431   2.206   5.283  0.2767  0.2962  0.4851
18277TIP3    H176322   4.347   2.228   5.243  0.5231 -0.6819 -0.6069
18277TIP3    H276323   4.419   2.116   5.315  0.9270  0.1394  0.2852
18278TIP3   OH276324   2.871   0.168   5.316 -0.7191 -0.6597 -0.3774
18278TIP3    H176325   2.826   0.137   5.394  0.6215  1.4441  1.2683
18278TIP3    H276326   2.951   0.116   5.313 -0.9176 -0.9639 -0.5749
18279TIP3   OH276327   4.945   1.354   4.470 -0.4599 -0.1639 -0.4474
18279TIP3    H176328   5.033   1.338   4.436  0.2452 -0.6739  1.5488
18279TIP3    H276329   4.895   1.277   4.443  0.2380 -0.8259  0.1248
18280TIP3   OH276330   4.198   5.545   5.406  0.1827 -0.1007 -0.2399
18280TIP3    H176331   4.243   5.486   5.346 -1.3680 -0.4094 -1.1360
18280TIP3    H276332   4.200   5.499   5.490 -1.4489 -1.7028 -1.0408
18281TIP3   OH276333   1.651   4.275   5.272  0.0153  0.3551 -0.2453
18281TIP3    H176334   1.718   4.304   5.211  1.4808 -0.4367  0.9606
18281TIP3    H276335   1.700   4.244   5.348 -1.7138 -0.4674  0.5471
18282TIP3   OH276336   0.338   6.615  15.527  0.4724  0.5808 -0.1549
18282TIP3    H176337   0.352   6.559  15.603  0.7205 -0.2777 -0.8332
18282TIP3    H276338   0.362   6.703  15.558 -1.5219  0.6136  1.4163
18283TIP3   OH276339   5.928   3.077   2.254  0.1374  0.4768 -0.3015
18283TIP3    H176340   5.948   2.987   2.229 -0.2727  0.3831 -0.3026
18283TIP3    H276341   5.999   3.102   2.312  0.3653  0.2248 -0.4709
18284TIP3   OH276342   0.041   2.806   0.634  0.0908  0.9193  0.4615
18284TIP3    H176343  -0.043   2.822   0.677 -1.0468  0.6433 -1.6196
18284TIP3    H276344   0.019   2.754   0.557  2.2191  0.5569  0.0815
18285TIP3   OH276345   1.027   0.343   3.735  0.3713 -0.3702 -0.6999
18285TIP3    H176346   1.063   0.282   3.670  2.2551 -1.4457  1.2787
18285TIP3    H276347   1.098   0.357   3.797 -1.2769  0.8487  0.9846
18286TIP3   OH276348   3.323   0.371   2.089 -0.6629  0.4979 -0.8307
18286TIP3    H176349   3.417   0.362   2.108 -0.5405 -0.2143 -1.7697
18286TIP3    H276350   3.287   0.413   2.167  0.4285  0.7141 -0.4353
18287TIP3   OH276351   3.505   1.489   5.924  0.4653  0.0046 -0.1016
18287TIP3    H176352   3.462   1.566   5.958 -0.0063 -0.7064  0.9347
18287TIP3    H276353   3.476   1.417   5.981 -0.0283 -1.1396 -1.7369
18288TIP3   OH276354   0.898   4.500   5.551 -0.7668  0.3544 -0.1591
18288TIP3    H176355   0.860   4.481   5.465 -0.8452 -0.3058  0.0166
18288TIP3    H276356   0.991   4.514   5.534 -0.3325 -2.1415 -0.0524
18289TIP3   OH276357   4.697   2.855   2.953 -0.2331  0.0442  0.7764
18289TIP3    H176358   4.679   2.943   2.918  0.3955 -0.4261 -0.7851
18289TIP3    H276359   4.792   2.847   2.948 -0.3437 -0.9940  0.2177
18290TIP3   OH276360   1.173   3.369   2.871  0.8385  0.2645 -0.5908
18290TIP3    H176361   1.087   3.355   2.831  0.0523  0.8370  0.8836
18290TIP3    H276362   1.225   3.295   2.840 -1.0964 -1.8301  0.9697
18291TIP3   OH276363   4.510   3.253   5.475  0.2712  0.2247 -0.1831
18291TIP3    H176364   4.560   3.185   5.431 -2.0716 -1.1725 -0.7484
18291TIP3    H276365   4.506   3.225   5.566 -1.3056 -0.8001 -0.5510
18292TIP3   OH276366   4.717   3.604   2.704 -0.0418 -0.1433  0.3909
18292TIP3    H176367   4.722   3.690   2.746 -0.9975  0.6770 -1.1429
18292TIP3    H276368   4.773   3.613   2.626 -1.2765 -0.4538 -0.5363
18293TIP3   OH276369   5.266   6.007   3.542 -0.0836  0.2432 -0.3291
18293TIP3    H176370   5.292   6.067   3.611  0.2177 -0.8016  0.4722
18293TIP3    H276371   5.237   5.928   3.588  0.1186 -0.4590 -1.3848
18294TIP3   OH276372   4.398   6.079   3.845  0.1665 -0.3686 -0.1624
18294TIP3    H176373   4.363   5.992   3.827 -1.8138  0.1792  0.8153
18294TIP3    H276374   4.484   6.080   3.804 -0.8084 -1.9259 -2.3540
18295TIP3   OH276375   6.678   6.253   5.029  0.0092 -0.0131 -0.3407
18295TIP3    H176376   6.679   6.334   5.081 -0.0081 -0.7254  0.7770
18295TIP3    H276377   6.763   6.251   4.986 -1.0403  2.0350 -2.6207
18296TIP3   OH276378   3.690   3.808   1.469  0.2518 -0.0495 -0.6680
18296TIP3    H176379   3.742   3.767   1.400  2.8782  0.7301  0.7755
18296TIP3    H276380   3.678   3.739   1.534 -1.7886 -0.6368 -1.6294
18297TIP3   OH276381   0.935   5.729   3.316  0.0686 -0.2354 -0.4212
18297TIP3    H176382   0.993   5.653   3.314 -1.2282 -1.2220 -1.4058
18297TIP3    H276383   0.912   5.744   3.224  0.2168  1.2875 -0.2209
18298TIP3   OH276384   6.904   5.052  15.245 -0.3100  0.0856  0.8861
18298TIP3    H176385   6.817   5.089  15.231  0.0657  0.6908  0.0984
18298TIP3    H276386   6.959   5.128  15.265  0.7231  0.1433 -1.9235
18299TIP3   OH276387   3.846   0.768   5.342  0.0295  0.2783  0.4367
18299TIP3    H176388   3.909   0.770   5.270 -0.0351  1.8035  0.4118
18299TIP3    H276389   3.895   0.800   5.418 -0.2936 -0.0046  0.7695
18300TIP3   OH276390   4.005   4.683   4.209 -1.0367  0.2681  0.1085
18300TIP3    H176391   4.059   4.642   4.276 -2.4491  1.0149  1.7621
18300TIP3    H276392   3.942   4.735   4.258 -2.1553  0.7899 -1.8167
18301TIP3   OH276393   2.013   4.533   5.240 -0.7565 -0.3218  0.0427
18301TIP3    H176394   1.949   4.598   5.269  0.0229  0.4480  0.0448
18301TIP3    H276395   2.047   4.496   5.322 -0.9757 -0.5026  0.0494
18302TIP3   OH276396   6.903   5.363   5.069  0.3733 -0.0712 -0.2653
18302TIP3    H176397   6.996   5.349   5.049  0.6431 -0.0660  0.9417
18302TIP3    H276398   6.866   5.274   5.073  0.7351 -0.1697  1.1119
18303TIP3   OH276399   3.770   0.532   5.508 -0.0846 -0.3094  0.1993
18303TIP3    H176400   3.749   0.597   5.441 -0.1339 -1.5634 -1.0216
18303TIP3    H276401   3.704   0.463   5.496  0.0508 -0.6578  1.3822
18304TIP3   OH276402   0.284   2.136   5.363 -0.1796 -0.2383  0.3323
18304TIP3    H176403   0.216   2.088   5.316 -1.8124  0.0174  2.3588
18304TIP3    H276404   0.254   2.227   5.363  1.1728  0.2222 -0.4806
18305TIP3   OH276405   3.924   1.698   1.125  0.7144 -0.5178  0.1199
18305TIP3    H176406   3.913   1.751   1.204 -0.1599 -0.5901  0.0555
18305TIP3    H276407   3.915   1.608   1.154 -1.5593 -0.4820 -0.3359
18306TIP3   OH276408   1.220   4.372   3.677 -0.4957  0.6349  0.4302
18306TIP3    H176409   1.216   4.422   3.758 -0.4969  3.3488 -1.2073
18306TIP3    H276410   1.313   4.352   3.665 -0.3722  1.1468  0.5423
18307TIP3   OH276411   2.791   4.256   4.375  0.3092 -0.4815 -0.1255
18307TIP3    H176412   2.702   4.264   4.342  0.1084  0.8756  0.6866
18307TIP3    H276413   2.827   4.179   4.331 -1.5965 -1.6430  0.3083
18308TIP3   OH276414   6.406   4.239   4.486 -0.3078  0.2790 -0.3148
18308TIP3    H176415   6.372   4.325   4.510 -1.1885 -0.3731  0.8556
18308TIP3    H276416   6.460   4.212   4.561  0.4065  0.0471 -0.9078
18309TIP3   OH276417   3.005   3.749   4.557 -0.0876  0.5977 -0.4741
18309TIP3    H176418   2.913   3.770   4.575  0.3586  2.2897 -0.0610
18309TIP3    H276419   3.054   3.801   4.621  1.0910 -1.9043  0.6929
18310TIP3   OH276420   5.580   3.462   4.096  0.4802  0.4882  0.4632
18310TIP3    H176421   5.628   3.485   4.016  0.2446  1.3229  0.5670
18310TIP3    H276422   5.640   3.484   4.167  0.8212 -0.5606  0.5192
18311TIP3   OH276423   6.708   5.125   5.005 -0.4078  0.3885 -0.0090
18311TIP3    H176424   6.660   5.161   5.079 -0.8954  0.5892 -0.4139
18311TIP3    H276425   6.713   5.031   5.022 -1.6420  0.2608 -0.3565
18312TIP3   OH276426   5.373   4.420   3.261  0.3825  0.4129  0.1605
18312TIP3    H176427   5.286   4.390   3.233  0.8193  0.7951 -1.6596
18312TIP3    H276428   5.432   4.349   3.237  0.6017  0.1659  1.3802
18313TIP3   OH276429   4.507   2.928   3.347  0.3505 -0.0371 -0.1017
18313TIP3    H176430   4.558   2.859   3.304  1.7010  0.0007  1.3821
18313TIP3    H276431   4.465   2.885   3.421 -0.0718  0.3991 -0.0841
18314TIP3   OH276432   6.388   2.969   5.420 -0.3613 -0.4620 -0.0444
18314TIP3    H176433   6.333   3.006   5.489  0.2627 -0.2259  0.3299
18314TIP3    H276434   6.329   2.957   5.346 -0.4710  1.8104 -0.3626
18315TIP3   OH276435   4.537   4.730   3.893 -0.0516  0.5113 -0.5006
18315TIP3    H176436   4.442   4.739   3.890 -0.2172 -0.2101  2.0269
18315TIP3    H276437   4.565   4.796   3.956  0.8779 -1.1097  0.7978
18316TIP3   OH276438   6.363   4.573   5.457  0.2308 -0.1290  0.4422
18316TIP3    H176439   6.445   4.533   5.430 -0.0506 -0.1872 -0.3329
18316TIP3    H276440   6.389   4.648   5.510  0.7567 -1.1823  1.6836
18317TIP3   OH276441   3.538   2.180   3.992 -0.2325  0.1624 -0.1514
18317TIP3    H176442   3.484   2.218   3.923  1.6329  0.9547 -1.2261
18317TIP3    H276443   3.628   2.198   3.964  0.5767 -0.6626  1.8415
18318TIP3   OH276444   0.548   5.034  14.247 -0.6998 -0.1032 -0.3791
18318TIP3    H176445   0.559   5.039  14.342  2.3418 -1.2531 -0.6129
18318TIP3    H276446   0.479   4.969  14.234 -0.3682 -0.7665  1.0429
18319TIP3   OH276447   1.168   2.610   6.025  0.8643  0.0795 -0.2470
18319TIP3    H176448   1.093   2.668   6.010  1.2417  0.3797 -0.9593
18319TIP3    H276449   1.198   2.633   6.113  0.2381  0.0919 -0.0345
18320TIP3   OH276450   5.081   3.247   5.704 -0.1756  0.0295  0.4149
18320TIP3    H176451   5.120   3.301   5.772  0.0354  0.9044 -0.3906
18320TIP3    H276452   5.154   3.196   5.669 -0.4876 -1.2431  1.5964
18321TIP3   OH276453   0.635   4.756   4.406  0.3172  0.1908  0.5230
18321TIP3    H176454   0.578   4.691   4.366  1.4030 -0.6544  0.2957
18321TIP3    H276455   0.577   4.815   4.454 -0.6856 -0.9319  0.6954
18322TIP3   OH276456   6.672   0.839  14.812 -0.1326 -0.1569 -0.0224
18322TIP3    H176457   6.662   0.930  14.840  0.0590  0.0803 -0.7124
18322TIP3    H276458   6.761   0.815  14.840 -0.4607 -0.3920  0.8610
18323TIP3   OH276459   6.433   1.164   5.456 -0.8851  0.1117 -0.3229
18323TIP3    H176460   6.483   1.133   5.381  1.1241  0.5789  0.7809
18323TIP3    H276461   6.434   1.260   5.447 -2.9259  0.0689 -1.1256
18324TIP3   OH276462   2.516   2.365   4.948  0.2870  0.3931  0.2653
18324TIP3    H176463   2.535   2.454   4.918 -3.5185  0.4425 -2.2429
18324TIP3    H276464   2.472   2.377   5.032 -0.4842  0.9107 -0.2047
18325TIP3   OH276465   5.249   5.362   4.058  0.1430  0.1736  0.4065
18325TIP3    H176466   5.160   5.367   4.024  0.4886  2.2794 -0.2597
18325TIP3    H276467   5.247   5.412   4.139  1.0374  1.5984 -0.4072
18326TIP3   OH276468   6.409   0.441   4.519  0.1632  0.3046  0.2216
18326TIP3    H176469   6.474   0.452   4.588 -0.0908 -2.0155  0.8876
18326TIP3    H276470   6.325   0.440   4.566 -0.0311 -0.9326 -0.1234
18327TIP3   OH276471   0.604   4.662   2.670 -0.3617  0.4287  0.3403
18327TIP3    H176472   0.696   4.685   2.676 -0.1849 -0.3018  0.5669
18327TIP3    H276473   0.582   4.630   2.758 -0.3913 -0.9775 -0.1661
18328TIP3   OH276474   4.093   3.814   4.454  0.4722 -0.6769  0.4740
18328TIP3    H176475   4.037   3.819   4.376  2.6255  2.7227 -0.9386
18328TIP3    H276476   4.042   3.859   4.522  0.3323  0.0140 -0.0777
18329TIP3   OH276477   3.901   3.390   3.582  0.0177 -0.1638  0.3800
18329TIP3    H176478   3.993   3.365   3.593 -0.0380 -0.0121  1.1779
18329TIP3    H276479   3.863   3.318   3.531  0.3092 -0.7823  1.0359
18330TIP3   OH276480   5.288   5.800   4.307  0.6903 -0.3599 -0.1214
18330TIP3    H176481   5.298   5.855   4.229  0.5000 -0.5711 -0.2933
18330TIP3    H276482   5.211   5.835   4.351 -0.5194 -1.6250 -1.1704
18331TIP3   OH276483   4.860   2.358   0.678 -0.0601 -0.2979  0.1992
18331TIP3    H176484   4.952   2.386   0.678  0.1099 -0.8452  0.4595
18331TIP3    H276485   4.813   2.431   0.639  0.4578  0.0838  0.2817
18332TIP3   OH276486   5.653   4.378   5.804  0.2770  0.7699  0.4096
18332TIP3    H176487   5.617   4.292   5.782  0.7166  0.7688 -0.3437
18332TIP3    H276488   5.726   4.359   5.863  2.2282  0.3735 -2.0181
18333TIP3   OH276489   6.660   4.162   4.992 -0.1940 -0.1509 -0.7324
18333TIP3    H176490   6.714   4.240   5.005 -0.6873  0.3247 -1.5785
18333TIP3    H276491   6.616   4.150   5.076 -0.2714  0.5924 -0.6640
18334TIP3   OH276492   6.560   4.712   1.956  0.2928  0.2104  0.4684
18334TIP3    H176493   6.637   4.731   1.903  1.2343 -1.5291  1.1761
18334TIP3    H276494   6.575   4.758   2.038  0.5161 -0.0071  0.5503
18335TIP3   OH276495   6.786   2.769  14.200 -0.9133 -0.3732  0.5427
18335TIP3    H176496   6.877   2.781  14.228 -0.8598  0.1010  0.1808
18335TIP3    H276497   6.738   2.750  14.280 -0.7945  1.1730  0.9833
18336TIP3   OH276498   2.547   4.463   4.934  0.4123  0.4614  0.1242
18336TIP3    H176499   2.622   4.405   4.936  0.2574  0.2868  2.0637
18336TIP3    H276500   2.505   4.452   5.019 -1.6140  0.8222 -0.7790
18337TIP3   OH276501   0.118   2.435   0.776 -0.4170  0.4045 -0.2184
18337TIP3    H176502   0.202   2.464   0.742  0.0076  1.5836  1.7439
18337TIP3    H276503   0.064   2.514   0.779 -1.9404 -0.4934 -2.3003
18338TIP3   OH276504   5.364   2.739   4.544 -0.0470  0.2713 -0.5260
18338TIP3    H176505   5.447   2.707   4.580  0.6176  1.4248 -1.0154
18338TIP3    H276506   5.321   2.784   4.618 -0.7826 -1.3116  0.0425
18339TIP3   OH276507   0.636   0.964   3.590 -0.4743 -0.2327  0.0951
18339TIP3    H176508   0.603   0.942   3.678  0.7559 -0.8559  0.4118
18339TIP3    H276509   0.617   0.886   3.538 -2.8311  0.8039 -0.6754
18340TIP3   OH276510   6.767   4.339   2.735  0.0505  0.3402  0.1698
18340TIP3    H176511   6.677   4.332   2.702  0.1861 -0.1348 -0.0979
18340TIP3    H276512   6.816   4.375   2.661  0.3037 -0.4725 -0.0551
18341TIP3   OH276513   4.137   2.612   4.237 -0.3299 -0.2754  0.0280
18341TIP3    H176514   4.103   2.614   4.148  0.3977 -2.4601 -0.3524
18341TIP3    H276515   4.062   2.588   4.291 -0.4243 -0.4981 -0.2006
18342TIP3   OH276516   4.579   2.560   5.223 -0.6283 -0.3600  0.6272
18342TIP3    H176517   4.488   2.532   5.237 -0.6321 -1.0914 -0.7356
18342TIP3    H276518   4.631   2.497   5.273 -0.8610  0.0542  1.4046
18343TIP3   OH276519   2.532   3.165   3.790 -0.2043  0.0973  0.6739
18343TIP3    H176520   2.569   3.106   3.857 -0.9711  0.5047  1.4584
18343TIP3    H276521   2.454   3.120   3.759  0.7145 -0.5859 -0.7223
18344TIP3   OH276522   4.071   6.928   4.704 -0.1070 -0.0285  0.2273
18344TIP3    H176523   4.040   6.954   4.617 -0.6697 -2.1511 -0.2390
18344TIP3    H276524   4.081   7.011   4.751 -0.8666  1.0883 -1.4880
18345TIP3   OH276525   6.315   6.407   3.359  0.2265  0.0080 -0.2762
18345TIP3    H176526   6.352   6.427   3.445  1.1595  4.2363 -1.5525
18345TIP3    H276527   6.370   6.335   3.325  0.6152 -0.8562  2.0932
18346TIP3   OH276528   3.499   3.374   4.721 -0.4705  0.0179 -0.7439
18346TIP3    H176529   3.583   3.332   4.704 -0.0287  1.1796 -1.5946
18346TIP3    H276530   3.433   3.307   4.702  0.2721 -0.9674  0.1606
18347TIP3   OH276531   6.538   6.331   4.760 -0.0871 -0.4556  0.2854
18347TIP3    H176532   6.561   6.253   4.709  2.3752  0.7542 -0.5170
18347TIP3    H276533   6.605   6.336   4.828 -1.7256 -0.4630  1.9416
18348TIP3   OH276534   3.086   3.386   4.187 -0.0765  0.1262 -0.0709
18348TIP3    H176535   3.153   3.439   4.144 -1.4905  0.7466 -1.5685
18348TIP3    H276536   3.072   3.429   4.272  0.7782  0.5180 -0.1246
18349TIP3   OH276537   4.200   2.914   3.519  0.0937  0.0952 -0.1002
18349TIP3    H176538   4.266   2.942   3.582  1.8432  2.4246 -2.8444
18349TIP3    H276539   4.117   2.944   3.557  0.5736 -2.2903  3.0599
18350TIP3   OH276540   2.822   0.690   5.359  0.9203  0.0815 -0.3333
18350TIP3    H176541   2.839   0.779   5.329 -1.1149  0.0684 -1.6480
18350TIP3    H276542   2.823   0.637   5.280  0.1864 -0.7399  0.1915
18351TIP3   OH276543   2.585   1.936   0.118  0.2572 -0.3261  0.6624
18351TIP3    H176544   2.590   1.969   0.028 -0.2116 -0.3029  0.6416
18351TIP3    H276545   2.652   1.985   0.166  1.1187 -0.9660  0.1297
18352TIP3   OH276546   3.932   6.657   1.967  0.2942 -0.4872 -0.2144
18352TIP3    H176547   3.950   6.563   1.966  1.1892 -0.3228 -0.1846
18352TIP3    H276548   3.900   6.674   2.056 -0.5874 -0.8911 -0.4539
18353TIP3   OH276549   5.162   3.423   1.105  0.1775  0.0573  0.2388
18353TIP3    H176550   5.097   3.370   1.151 -0.8904 -0.7362 -2.0701
18353TIP3    H276551   5.111   3.474   1.042  1.5832  1.0056 -0.1640
18354TIP3   OH276552   0.371   3.948   4.462 -0.1630  0.5387 -0.6525
18354TIP3    H176553   0.358   4.041   4.440  1.6261  0.7706 -0.8305
18354TIP3    H276554   0.292   3.905   4.430 -1.7908  2.2396  0.9682
18355TIP3   OH276555   4.341   5.846   3.727  0.3684  0.1358 -0.0319
18355TIP3    H176556   4.333   5.827   3.634  0.6125 -2.0417  0.3663
18355TIP3    H276557   4.386   5.769   3.764 -0.5560  0.5311  2.0202
18356TIP3   OH276558   3.210   1.184   4.634 -0.1391  0.9627  0.1462
18356TIP3    H176559   3.187   1.091   4.624  0.1997  0.9503 -0.5349
18356TIP3    H276560   3.139   1.220   4.688 -0.9280  0.5760 -0.6094
18357TIP3   OH276561   4.441   5.299   1.703 -0.2918  0.5708 -0.2598
18357TIP3    H176562   4.480   5.275   1.787 -1.3441  1.6981  0.5711
18357TIP3    H276563   4.457   5.393   1.695 -0.4692  0.5308 -1.1880
18358TIP3   OH276564   3.044   1.816   1.820 -0.2221  0.2449  0.1143
18358TIP3    H176565   3.093   1.893   1.849 -1.0928  0.3185  1.4393
18358TIP3    H276566   2.973   1.807   1.884 -0.4687 -1.3240 -0.3541
18359TIP3   OH276567   6.041   1.350   4.714 -0.1820  0.7670  0.4779
18359TIP3    H176568   6.000   1.266   4.736  1.2759  0.1338  0.8143
18359TIP3    H276569   5.974   1.415   4.736 -1.0614 -0.2586  0.8995
18360TIP3   OH276570   5.323   2.610   4.949 -0.1854 -1.0487  0.0341
18360TIP3    H176571   5.334   2.689   4.896  1.1481 -0.6362  0.8964
18360TIP3    H276572   5.364   2.541   4.898  0.0072 -0.8899 -0.0261
18361TIP3   OH276573   6.216   0.732   4.015  0.4462  0.0889 -0.5462
18361TIP3    H176574   6.223   0.827   4.000 -0.5888  0.4423  1.1050
18361TIP3    H276575   6.149   0.723   4.082  0.2505 -1.8606 -0.9711
18362TIP3   OH276576   0.648   3.228   4.054 -0.1230  0.2569 -0.0702
18362TIP3    H176577   0.591   3.187   4.118 -1.8357  0.7278 -1.2757
18362TIP3    H276578   0.618   3.318   4.048 -0.9182 -0.1413 -2.5647
18363TIP3   OH276579   3.120   3.593   5.287 -0.2235 -0.4760  0.5025
18363TIP3    H176580   3.198   3.625   5.333 -0.1589  0.5794 -0.3372
18363TIP3    H276581   3.049   3.647   5.321 -0.4571 -0.8251  0.5818
18364TIP3   OH276582   5.750   2.035   5.578  0.5794  0.6043  0.7912
18364TIP3    H176583   5.676   1.978   5.558  1.2583 -0.2717  0.7392
18364TIP3    H276584   5.797   1.989   5.649  1.2355  1.0003  0.6187
18365TIP3   OH276585   2.950   1.337   5.410  0.0102  0.3530 -0.2771
18365TIP3    H176586   2.866   1.323   5.367 -0.0541  1.5832 -0.5835
18365TIP3    H276587   3.003   1.380   5.343  1.2199 -1.3118 -0.4205
18366TIP3   OH276588   1.648   1.366   6.030  0.6351  0.0822 -0.4313
18366TIP3    H176589   1.649   1.285   6.079 -2.0381 -0.7999 -1.7330
18366TIP3    H276590   1.674   1.341   5.941  1.7168  0.9973 -0.3866
18367TIP3   OH276591   1.823   1.343   4.016 -0.3121  0.1464  0.0340
18367TIP3    H176592   1.903   1.377   4.056 -0.9727 -0.0507  1.5261
18367TIP3    H276593   1.760   1.414   4.024  0.1401  0.9327 -2.6264
18368TIP3   OH276594   5.161   4.386   1.706 -0.3332  0.5503  0.1627
18368TIP3    H176595   5.240   4.409   1.658 -1.1713  1.5871 -0.7549
18368TIP3    H276596   5.191   4.363   1.794  1.2004 -1.2038 -0.7962
18369TIP3   OH276597   2.168   2.189   5.420  0.6583 -0.0289  0.2527
18369TIP3    H176598   2.232   2.176   5.490  0.4681 -3.4933 -0.1177
18369TIP3    H276599   2.090   2.222   5.464  1.3478  0.1842  1.3221
18370TIP3   OH276600   0.566   5.191   5.940 -0.1545 -0.2565 -0.6930
18370TIP3    H176601   0.510   5.191   6.017  2.9517 -2.1002  1.6525
18370TIP3    H276602   0.627   5.263   5.955  0.7016 -0.8530 -1.2717
18371TIP3   OH276603   5.044   5.107   3.958 -0.1036 -0.1615  0.1425
18371TIP3    H176604   5.050   5.033   4.019  1.1731  0.5945  0.9646
18371TIP3    H276605   5.134   5.123   3.930 -0.4866  0.4956 -0.7433
18372TIP3   OH276606   4.431   6.886   4.626  0.0444 -0.9868  0.0335
18372TIP3    H176607   4.444   6.929   4.711 -0.6110 -0.4354 -0.1451
18372TIP3    H276608   4.341   6.854   4.628 -0.3754  0.1085 -0.9300
18373TIP3   OH276609   0.874   3.495   2.597 -0.5936 -0.3783 -0.9404
18373TIP3    H176610   0.868   3.591   2.594  1.2483 -0.2708 -1.4122
18373TIP3    H276611   0.785   3.467   2.618 -1.5993  1.3543 -2.7025
18374TIP3   OH276612   5.168   4.549   0.571 -0.5415  0.3649 -0.2713
18374TIP3    H176613   5.239   4.520   0.513  0.0643 -2.5221  1.7757
18374TIP3    H276614   5.092   4.501   0.540 -1.1357  1.8302 -1.1169
18375TIP3   OH276615   1.668   5.271   3.360  0.5281 -0.0771  0.0424
18375TIP3    H176616   1.576   5.296   3.359  0.1939 -1.2772 -1.3918
18375TIP3    H276617   1.671   5.191   3.413  0.7543 -0.0060  0.1397
18376TIP3   OH276618   2.736   1.854   3.284  0.0876  0.2382 -0.3932
18376TIP3    H176619   2.748   1.760   3.268  0.1189  0.2781 -0.6008
18376TIP3    H276620   2.652   1.860   3.331  1.2272 -0.1132  1.7559
18377TIP3   OH276621   6.635   4.060   2.008  0.6129 -0.5896 -0.4767
18377TIP3    H176622   6.678   4.010   1.938 -1.1862  1.0866 -2.8517
18377TIP3    H276623   6.676   4.146   2.005 -0.2296 -0.1765 -0.1825
18378TIP3   OH276624   5.217   1.161   0.161 -0.0150  0.0099 -0.2843
18378TIP3    H176625   5.298   1.211   0.162 -0.8540  1.4043 -0.8060
18378TIP3    H276626   5.202   1.142   0.068 -0.2153 -0.3521 -0.1783
18379TIP3   OH276627   1.032   7.157   4.429  0.3944  0.1412 -0.1477
18379TIP3    H176628   0.983   7.093   4.481 -0.0452 -0.9240 -1.8296
18379TIP3    H276629   1.022   7.240   4.478 -1.4490 -0.4659  0.5530
18380TIP3   OH276630   3.258   1.529   4.229  0.0605  0.4022 -0.2477
18380TIP3    H176631   3.297   1.609   4.264  0.0284  0.4907 -0.4178
18380TIP3    H276632   3.274   1.464   4.297  0.4520  0.4540 -0.2904
18381TIP3   OH276633   4.854   6.052   4.209  0.0905  0.1145 -0.2892
18381TIP3    H176634   4.935   6.097   4.185 -0.4956  0.5711 -1.4576
18381TIP3    H276635   4.799   6.120   4.249 -0.0701  0.0161 -0.3411
18382TIP3   OH276636   3.384   2.275   3.759 -0.5127  0.2480  0.4712
18382TIP3    H176637   3.327   2.350   3.778 -0.9702 -0.4656  2.0150
18382TIP3    H276638   3.330   2.217   3.705  0.1236  1.3887 -1.4395
18383TIP3   OH276639   2.231   4.226   5.145 -0.4799 -0.0321 -0.1235
18383TIP3    H176640   2.298   4.277   5.191 -0.4237 -1.4391  1.3987
18383TIP3    H276641   2.154   4.232   5.201 -1.2004  0.3690 -1.1481
18384TIP3   OH276642   6.596   3.326   4.748 -0.1774  0.0436  0.1108
18384TIP3    H176643   6.645   3.246   4.768  1.0137  1.1826  1.9570
18384TIP3    H276644   6.510   3.312   4.788 -0.0514 -0.4223  0.2183
18385TIP3   OH276645   1.306   3.945   2.470  0.2321 -0.2475  0.6353
18385TIP3    H176646   1.308   3.853   2.497  1.6122 -0.4343 -0.0359
18385TIP3    H276647   1.232   3.983   2.517 -0.6126 -1.8077  0.5943
18386TIP3   OH276648   4.213   6.248   3.990  0.0332  0.3426 -0.3116
18386TIP3    H176649   4.250   6.312   3.929 -0.7203 -1.5090 -2.8093
18386TIP3    H276650   4.120   6.269   3.993  0.3062  1.4011  1.4745
18387TIP3   OH276651   3.196   4.239   4.599 -0.0868  0.0240 -0.5101
18387TIP3    H176652   3.142   4.264   4.524  0.0745  1.5670 -0.1259
18387TIP3    H276653   3.226   4.150   4.578 -0.5291  0.2107 -1.9973
18388TIP3   OH276654   4.966   5.349   2.044 -0.1789 -0.1421  0.3701
18388TIP3    H176655   5.017   5.278   2.083  1.3129  0.2010 -0.9127
18388TIP3    H276656   5.017   5.428   2.060 -1.9409  0.6920  1.9743
18389TIP3   OH276657   2.013   4.785   1.672  0.6183  0.1350  0.2982
18389TIP3    H176658   1.981   4.867   1.635  2.2550  0.3665 -0.6375
18389TIP3    H276659   2.037   4.807   1.762 -2.3150 -0.1750  1.2056
18390TIP3   OH276660   3.257   4.011   3.660  0.2079  0.0503 -0.6596
18390TIP3    H176661   3.347   4.037   3.640  0.8505 -2.4582 -1.2287
18390TIP3    H276662   3.203   4.065   3.602  1.3001  1.8996  0.0153
18391TIP3   OH276663   1.492   0.309   3.975 -0.0840 -0.7546 -0.3239
18391TIP3    H176664   1.489   0.284   3.882 -1.7615  2.0089 -1.0861
18391TIP3    H276665   1.560   0.376   3.980 -0.0928 -0.7970  0.4387
18392TIP3   OH276666   2.965   5.150   2.108  0.4229  0.3448 -0.3152
18392TIP3    H176667   2.986   5.219   2.172 -0.0789 -1.4995  1.9090
18392TIP3    H276668   3.046   5.100   2.100 -0.1153 -0.6553  0.4519
18393TIP3   OH276669   0.386   4.792   5.589  0.2074 -0.4434  0.0269
18393TIP3    H176670   0.402   4.772   5.681  0.2232  0.2081  0.1690
18393TIP3    H276671   0.437   4.727   5.541  1.1056 -0.0872  0.4807
18394TIP3   OH276672   6.359   2.549   3.601 -0.3190  0.1738  0.1958
18394TIP3    H176673   6.282   2.560   3.545 -0.3691  0.2361  0.2762
18394TIP3    H276674   6.322   2.530   3.688 -0.2324 -0.8660  0.0152
18395TIP3   OH276675   5.816   4.725   4.899 -0.4294 -0.1813 -0.7494
18395TIP3    H176676   5.840   4.676   4.820 -0.0077 -0.4801 -0.4391
18395TIP3    H276677   5.875   4.692   4.967 -1.5144 -0.6883 -0.0514
18396TIP3   OH276678   4.421   2.434   3.040  0.1101  0.3576 -0.2005
18396TIP3    H176679   4.406   2.528   3.049 -0.4267  0.1386  1.2181
18396TIP3    H276680   4.401   2.397   3.126  1.0862 -0.9628 -0.5239
18397TIP3   OH276681   6.071   2.802   4.788  0.0746  0.3299  0.1837
18397TIP3    H176682   6.104   2.793   4.699 -0.7149 -0.0307 -0.0810
18397TIP3    H276683   6.069   2.712   4.822  0.3569  0.4644  0.5509
18398TIP3   OH276684   1.640   1.223   4.298 -0.3318 -0.1833  0.0240
18398TIP3    H176685   1.607   1.295   4.244 -1.7795 -0.8148  0.0499
18398TIP3    H276686   1.611   1.244   4.387 -0.6252 -0.7136  0.0579
18399TIP3   OH276687   6.960   0.822   3.217 -0.8202 -0.1772  0.1049
18399TIP3    H176688   6.924   0.887   3.278 -0.6435  0.1070 -0.0927
18399TIP3    H276689   7.023   0.773   3.269 -0.8825 -0.1251  0.2298
18400TIP3   OH276690   2.948   1.364   5.730 -0.1409  0.0040  0.3571
18400TIP3    H176691   3.009   1.425   5.773 -0.1778 -1.3838  2.4335
18400TIP3    H276692   2.984   1.353   5.642  2.1797 -0.1772  1.2987
18401TIP3   OH276693   6.190   3.830   5.181 -0.0356  0.2114  0.0797
18401TIP3    H176694   6.115   3.887   5.201 -0.9854 -1.2051  0.7308
18401TIP3    H276695   6.254   3.850   5.249 -1.5316 -1.5032  2.0903
18402TIP3   OH276696   6.468   0.055   4.529 -0.4716  0.7383  0.1188
18402TIP3    H176697   6.449   0.044   4.622  0.2332 -1.9749 -0.0246
18402TIP3    H276698   6.560   0.027   4.520 -0.5223  1.0395 -1.3785
18403TIP3   OH276699   1.935   2.615   4.338  0.7721  0.4427  0.1714
18403TIP3    H176700   1.923   2.520   4.333  0.3255  0.4785  0.4923
18403TIP3    H276701   1.887   2.648   4.262 -0.0425  0.4867  0.6910
18404TIP3   OH276702   6.483   1.926   4.059  0.0142 -0.1124  0.3379
18404TIP3    H176703   6.436   1.903   3.979 -0.6961 -1.4974  1.1441
18404TIP3    H276704   6.566   1.879   4.053  1.3226  2.2283 -1.0215
18405TIP3   OH276705   4.214   0.866   2.505 -0.0910  0.2679  0.1200
18405TIP3    H176706   4.304   0.838   2.491 -0.1656  0.2989 -0.4133
18405TIP3    H276707   4.164   0.784   2.506 -0.0429  0.2405  0.5487
18406TIP3   OH276708   6.541   3.104   3.852  0.2762 -0.3872 -0.2912
18406TIP3    H176709   6.613   3.143   3.803 -0.6870  4.0877  1.5901
18406TIP3    H276710   6.564   3.119   3.944 -2.5950  0.3259  0.3563
18407TIP3   OH276711   0.451   2.328   5.940 -0.4207  0.3205 -0.9414
18407TIP3    H176712   0.505   2.382   5.998 -1.1426  0.2748 -0.2192
18407TIP3    H276713   0.362   2.363   5.950 -0.8062 -0.6689 -0.8630
18408TIP3   OH276714   2.147   3.033   5.685  0.2405  0.0443  0.3009
18408TIP3    H176715   2.232   3.077   5.685 -0.2145  0.9258 -1.6619
18408TIP3    H276716   2.083   3.102   5.668 -0.8540 -0.7022  1.2493
18409TIP3   OH276717   5.726   6.748   3.239 -0.2351  0.3410  0.6165
18409TIP3    H176718   5.690   6.692   3.170  0.3712 -0.0188  0.5856
18409TIP3    H276719   5.732   6.835   3.200 -1.8245  0.5823  0.8789
18410TIP3   OH276720   5.307   3.916   4.936 -0.3014  0.3526  0.3481
18410TIP3    H176721   5.264   3.914   4.851  0.3614 -0.2654  0.0215
18410TIP3    H276722   5.396   3.883   4.919 -0.2386 -0.0001  1.3142
18411TIP3   OH276723   6.327   4.012   4.998  0.0065  0.2905  0.9127
18411TIP3    H176724   6.289   3.951   5.062 -1.4017  0.1659 -0.0336
18411TIP3    H276725   6.422   4.005   5.013 -0.3181  0.6372  3.3180
18412TIP3   OH276726   7.129   3.550   5.035  0.0960 -0.4139 -0.4095
18412TIP3    H176727   7.220   3.580   5.034  0.1769 -0.5011  1.5493
18412TIP3    H276728   7.128   3.474   4.977  1.1068  0.0515 -1.0506
18413TIP3   OH276729   3.614   6.955   2.711  0.0415 -0.1006  0.2383
18413TIP3    H176730   3.695   6.908   2.694  0.2754  0.4312 -0.1326
18413TIP3    H276731   3.572   6.906   2.781 -1.1350 -2.5919 -2.1256
18414TIP3   OH276732   2.160   3.085   4.452 -0.1585 -0.0436  0.0298
18414TIP3    H176733   2.103   3.087   4.529  1.1109 -0.0268  0.9695
18414TIP3    H276734   2.126   3.013   4.399 -0.1110 -1.0081  1.2988
18415TIP3   OH276735   5.664   5.742   4.309  0.8042  0.0055 -0.4742
18415TIP3    H176736   5.706   5.660   4.333  1.5680  1.4650  3.4410
18415TIP3    H276737   5.573   5.733   4.340  0.5953  0.2558 -0.9971
18416TIP3   OH276738   6.977   3.736   5.697  0.1098 -0.6283  0.0893
18416TIP3    H176739   6.954   3.648   5.727  0.0763  0.0692  2.2048
18416TIP3    H276740   7.063   3.752   5.736 -0.2161  0.5686  0.3201
18417TIP3   OH276741   1.514   5.257   4.500  0.0992  0.3502  0.1649
18417TIP3    H176742   1.453   5.199   4.455  0.2215  0.1190  0.2967
18417TIP3    H276743   1.598   5.242   4.458  0.2896 -0.1420  0.7197
18418TIP3   OH276744   3.664   2.781   2.813 -0.0202 -0.4358  0.6234
18418TIP3    H176745   3.669   2.754   2.904 -1.1560 -0.3180  0.7256
18418TIP3    H276746   3.739   2.839   2.801 -0.5726  0.5417  1.8246
18419TIP3   OH276747   5.155   3.380   4.981  0.2759  0.2406 -0.1875
18419TIP3    H176748   5.090   3.348   4.919  0.4530  0.7699 -0.6517
18419TIP3    H276749   5.188   3.301   5.024 -2.6039  0.1716  2.0220
18420TIP3   OH276750   4.448   0.190   3.374  0.0076 -0.2382 -0.0397
18420TIP3    H176751   4.432   0.258   3.309 -5.2930 -0.9634  0.3128
18420TIP3    H276752   4.529   0.147   3.345  0.0909  2.1784 -3.6893
18421TIP3   OH276753   4.209   1.203   4.589 -0.3172 -0.5418  0.1966
18421TIP3    H176754   4.248   1.193   4.676 -0.2416 -0.6158  0.1546
18421TIP3    H276755   4.146   1.274   4.599 -1.0540 -1.2405  0.5625
18422TIP3   OH276756   3.359   1.340   1.973 -0.2814 -0.5420  0.0014
18422TIP3    H176757   3.455   1.338   1.978 -0.2122 -1.6290 -1.2793
18422TIP3    H276758   3.334   1.248   1.970 -1.3976 -0.2629  0.6355
18423TIP3   OH276759   2.758   2.230   5.363  0.3335  0.2243 -0.1554
18423TIP3    H176760   2.713   2.215   5.446  0.1451  1.0409 -0.1092
18423TIP3    H276761   2.689   2.229   5.297  0.3652  0.4996 -0.1948
18424TIP3   OH276762   3.360   3.263   3.972  0.0587  0.2652  0.1887
18424TIP3    H176763   3.283   3.217   4.006  0.0781 -0.0332 -0.1647
18424TIP3    H276764   3.371   3.337   4.031 -0.2248  0.0516  0.5152
18425TIP3   OH276765   1.659   2.099   5.526  0.3231 -0.4352 -0.0211
18425TIP3    H176766   1.736   2.042   5.521  1.7106  1.3584  0.1971
18425TIP3    H276767   1.676   2.155   5.602 -0.0885  1.5286 -1.3379
18426TIP3   OH276768   3.778   6.027   2.393 -0.0725  0.1979 -0.1364
18426TIP3    H176769   3.741   6.020   2.482  2.6810 -0.8986  0.9551
18426TIP3    H276770   3.753   5.945   2.350  0.3508 -0.1623  0.3059
18427TIP3   OH276771   5.488   0.276   4.992  0.0087  0.7402  0.2008
18427TIP3    H176772   5.556   0.226   5.038  0.3123 -0.5347 -1.5679
18427TIP3    H276773   5.493   0.364   5.030 -0.4334 -0.4991  3.2842
18428TIP3   OH276774   4.127   2.760   5.339  0.1327  0.1388  0.2991
18428TIP3    H176775   4.182   2.793   5.410  1.0880  1.2711 -0.9452
18428TIP3    H276776   4.059   2.826   5.327  1.0302  0.8577 -1.0236
18429TIP3   OH276777   3.100   3.488   4.462  0.0770  0.1243 -0.1804
18429TIP3    H176778   3.086   3.583   4.469 -0.0340  0.0922  0.0366
18429TIP3    H276779   3.195   3.478   4.471  0.1221  0.2425 -0.5194
18430TIP3   OH276780   6.820   1.356   4.809  0.2954  0.1808  0.3345
18430TIP3    H176781   6.775   1.361   4.724  0.3446 -1.3047  0.2080
18430TIP3    H276782   6.794   1.272   4.845  1.4096  0.1803  1.1707
18431TIP3   OH276783   6.099   4.274   4.819 -0.2892  0.2907 -0.4354
18431TIP3    H176784   6.179   4.231   4.789 -0.6422 -1.0575  0.4823
18431TIP3    H276785   6.038   4.201   4.836 -1.3447  1.2372 -0.1015
18432TIP3   OH276786   2.181   1.908   2.235  0.1762  0.1615  0.2498
18432TIP3    H176787   2.207   1.980   2.178 -0.5622 -0.7257 -1.2573
18432TIP3    H276788   2.205   1.936   2.323 -0.4909  2.4159 -0.2608
18433TIP3   OH276789   3.215   2.537   0.926  0.2910 -0.3079 -0.1248
18433TIP3    H176790   3.259   2.622   0.930  2.0467 -1.1507 -1.1424
18433TIP3    H276791   3.283   2.475   0.899 -1.1657 -1.9025 -0.2617
18434TIP3   OH276792   0.756   6.530   0.985 -0.1610  0.1725  0.0547
18434TIP3    H176793   0.849   6.547   1.002  0.0026  1.2170 -1.8603
18434TIP3    H276794   0.712   6.557   1.066  1.0534  0.9394  0.4717
18435TIP3   OH276795   6.143   2.710   4.547  0.7081  0.0359 -0.8591
18435TIP3    H176796   6.118   2.641   4.486  0.9590  0.4396 -1.4258
18435TIP3    H276797   6.239   2.713   4.542  0.7772 -0.3863  0.0644
18436TIP3   OH276798   6.612   4.103   5.697 -0.1604  0.1834  0.5526
18436TIP3    H176799   6.613   4.186   5.744 -2.3418  0.3189  0.4168
18436TIP3    H276800   6.679   4.050   5.740  0.2973  1.5173  1.5227
18437TIP3   OH276801   6.651   4.868  15.059  0.2346  0.5385 -0.1824
18437TIP3    H176802   6.657   4.807  15.132  1.3805  2.3350  1.2736
18437TIP3    H276803   6.741   4.879  15.029  0.0762  1.6070 -0.3013
18438TIP3   OH276804   7.190   3.952  14.073 -0.2989  0.1247 -0.4864
18438TIP3    H176805   7.214   3.915  14.158  0.1887  0.5789 -0.4217
18438TIP3    H276806   7.110   4.003  14.091 -1.8384 -2.0713 -0.8749
18439TIP3   OH276807   0.636   6.162   3.014 -0.0019 -0.4514 -0.0134
18439TIP3    H176808   0.611   6.226   2.948  1.9231 -0.8527 -1.1617
18439TIP3    H276809   0.709   6.203   3.061  1.2723 -1.8016 -0.7852
18440TIP3   OH276810   2.170   3.768   5.239  0.2016 -0.3025  0.1628
18440TIP3    H176811   2.231   3.835   5.206 -1.2371  0.2827 -1.3937
18440TIP3    H276812   2.183   3.693   5.181 -0.8391 -0.0336 -0.4212
18441TIP3   OH276813   6.702   6.750   4.161  0.2779  0.2760 -0.3544
18441TIP3    H176814   6.629   6.812   4.170  0.7096  0.9342 -1.2816
18441TIP3    H276815   6.720   6.721   4.250 -1.9356 -0.8685 -0.2457
18442TIP3   OH276816   2.751   3.836   3.294  0.2780  0.1583  0.0723
18442TIP3    H176817   2.785   3.751   3.322  0.6376  0.1944 -0.2548
18442TIP3    H276818   2.761   3.836   3.199 -0.4428  0.2513 -0.0021
18443TIP3   OH276819   1.529   1.787   4.197  0.4576 -0.0165 -0.9416
18443TIP3    H176820   1.473   1.856   4.163  0.6020  0.9198  0.6752
18443TIP3    H276821   1.616   1.826   4.201  0.3620  0.0570  0.8993
18444TIP3   OH276822   5.238   6.996   5.059  0.0618 -0.3495  0.1559
18444TIP3    H176823   5.326   7.032   5.053  0.2057 -0.8650 -0.8164
18444TIP3    H276824   5.208   7.022   5.147 -0.2943  3.0854 -0.9186
18445TIP3   OH276825   7.070   1.959   5.502 -0.3334  0.4716  0.2060
18445TIP3    H176826   7.012   1.964   5.426 -1.6826 -0.1494  1.1882
18445TIP3    H276827   7.012   1.965   5.577  1.0113  1.2299  1.1998
18446TIP3   OH276828   5.527   2.781   5.814  0.6016  0.4774 -0.4678
18446TIP3    H176829   5.535   2.877   5.811 -1.1448  0.8021  2.4222
18446TIP3    H276830   5.612   2.751   5.844  1.0006  1.1863 -0.8811
18447TIP3   OH276831   5.420   3.845   4.514 -0.0182 -0.0121  0.1117
18447TIP3    H176832   5.384   3.774   4.460 -0.3459  0.2202  0.0273
18447TIP3    H276833   5.479   3.892   4.455  0.1527 -0.1723  0.1514
18448TIP3   OH276834   5.054   6.438   4.650 -0.2588 -0.4061  0.3881
18448TIP3    H176835   4.996   6.514   4.650 -0.7090 -0.7473  0.4506
18448TIP3    H276836   5.065   6.415   4.742  0.7394  0.2286  0.4397
18449TIP3   OH276837   4.850   1.457   4.027  0.2940  0.2149  0.5649
18449TIP3    H176838   4.925   1.469   3.969 -0.4941 -1.1538 -0.7549
18449TIP3    H276839   4.888   1.454   4.115  1.7440 -0.1922 -0.0710
18450TIP3   OH276840   3.697   2.258   2.678 -0.3724  0.0884  0.8112
18450TIP3    H176841   3.764   2.214   2.625 -1.4164 -0.3220 -0.1813
18450TIP3    H276842   3.617   2.250   2.627 -1.4071 -0.3329  2.4536
18451TIP3   OH276843   6.701   1.449   3.267 -0.3252 -0.1737  0.1625
18451TIP3    H176844   6.735   1.460   3.356  0.1790  0.0453 -0.0556
18451TIP3    H276845   6.779   1.452   3.211 -0.9945  3.7913 -0.6696
18452TIP3   OH276846   0.475   4.701   3.572  0.4245  0.4940 -0.1489
18452TIP3    H176847   0.409   4.761   3.536 -0.3571  0.1753  0.7386
18452TIP3    H276848   0.465   4.708   3.667  0.8039 -0.5213 -0.0279
18453TIP3   OH276849   0.903   0.438   3.094 -0.0757 -0.2712  0.0951
18453TIP3    H176850   0.853   0.402   3.167  1.7481 -0.4777  1.2563
18453TIP3    H276851   0.969   0.371   3.074  0.1367  0.2564 -1.0400
18454TIP3   OH276852   6.936   4.793   2.916 -0.2237  0.9711 -0.0591
18454TIP3    H176853   6.920   4.888   2.918 -0.2263  0.9616  0.7138
18454TIP3    H276854   7.015   4.783   2.864  0.6144  1.5315  1.0903
18455TIP3   OH276855   5.086   0.842   3.585  0.9681 -0.1241 -0.2436
18455TIP3    H176856   5.009   0.826   3.639  0.1403 -0.5918 -1.5400
18455TIP3    H276857   5.149   0.776   3.613  0.0134 -1.3102 -0.8463
18456TIP3   OH276858   0.852   3.653   5.373  0.4046 -0.0100 -0.3258
18456TIP3    H176859   0.892   3.740   5.373 -1.0114  0.6845 -2.8164
18456TIP3    H276860   0.890   3.609   5.297  0.5246 -1.3116  0.4632
18457TIP3   OH276861   3.261   3.385   3.471  0.1867  0.2381  0.1724
18457TIP3    H176862   3.268   3.386   3.376  0.0716 -2.6266  0.0747
18457TIP3    H276863   3.173   3.351   3.489  0.6152 -0.3386  1.2633
18458TIP3   OH276864   4.620   4.585   4.117  0.2892  0.1578 -0.4181
18458TIP3    H176865   4.662   4.649   4.174 -0.4236  0.7271 -0.5266
18458TIP3    H276866   4.603   4.633   4.036 -1.7178  0.2811  0.0761
18459TIP3   OH276867   3.927   3.890   4.183  0.5939 -0.5255 -0.2252
18459TIP3    H176868   3.895   3.858   4.099 -0.2764 -1.2373  0.3756
18459TIP3    H276869   4.018   3.914   4.165  0.5870 -1.1879 -1.2397
18460TIP3   OH276870   0.333   5.663   6.236 -0.6335  0.1659  0.2119
18460TIP3    H176871   0.320   5.586   6.292  1.9427  0.6761  1.5956
18460TIP3    H276872   0.296   5.638   6.152 -1.2494 -2.0084  1.0881
18461TIP3   OH276873   0.887   0.066   2.604  0.2196 -0.2479 -0.0011
18461TIP3    H176874   0.947  -0.008   2.596  0.4755 -0.1525  0.9440
18461TIP3    H276875   0.863   0.067   2.697 -2.2326 -1.0556 -0.5901
18462TIP3   OH276876   3.596   4.009   1.647  0.1293  0.0041  0.0626
18462TIP3    H176877   3.632   3.959   1.574 -1.1069 -0.2116 -0.4040
18462TIP3    H276878   3.532   4.068   1.607 -1.6297 -1.1369  1.1373
18463TIP3   OH276879   0.945   5.144   5.594 -0.4810  0.1818  0.1523
18463TIP3    H176880   1.019   5.089   5.618  0.4283  1.1133 -0.4282
18463TIP3    H276881   0.931   5.126   5.501 -1.6753 -0.7680  0.4994
18464TIP3   OH276882   6.997   1.582   2.427 -0.3883  0.3831  0.2886
18464TIP3    H176883   7.006   1.660   2.481 -1.2658  1.4317 -1.0614
18464TIP3    H276884   6.941   1.524   2.478  0.8855  0.2939  1.6327
18465TIP3   OH276885   0.316   3.637   4.216  0.1451  0.4946  0.2968
18465TIP3    H176886   0.329   3.629   4.311  1.9430  0.4432  0.0646
18465TIP3    H276887   0.261   3.714   4.206  2.7960  2.5892  1.2349
18466TIP3   OH276888   5.194   5.151   5.144  0.7417  0.4873  0.4771
18466TIP3    H176889   5.198   5.224   5.206 -0.7884  1.2012 -0.2337
18466TIP3    H276890   5.101   5.126   5.143  1.0051 -0.4694 -0.4228
18467TIP3   OH276891   5.845   6.152   5.064 -0.1880  0.3854  0.3325
18467TIP3    H176892   5.778   6.114   5.006  1.4735  0.0061 -1.3864
18467TIP3    H276893   5.802   6.158   5.149 -1.7205 -1.9017 -0.2195
18468TIP3   OH276894   6.495   4.629   4.304  0.1268 -0.2152 -0.4200
18468TIP3    H176895   6.533   4.543   4.318  0.9243  0.3054  0.7076
18468TIP3    H276896   6.570   4.687   4.289 -0.2784  0.5594  0.4347
18469TIP3   OH276897   5.564   2.423   4.929 -0.4582  0.8554 -0.0048
18469TIP3    H176898   5.525   2.343   4.965  1.0022 -0.0050 -0.2935
18469TIP3    H276899   5.618   2.458   5.000  1.5087 -0.2194 -0.9191
18470TIP3   OH276900   6.451   1.966   4.426  0.4715  0.7209 -0.0251
18470TIP3    H176901   6.503   1.892   4.457  0.1483 -0.1399 -1.4782
18470TIP3    H276902   6.478   2.039   4.482 -1.6533 -1.1895  3.6915
18471TIP3   OH276903   0.282   3.097   5.044 -0.4302  0.0506 -0.2079
18471TIP3    H176904   0.311   3.031   5.106 -0.2768  0.9767  0.7112
18471TIP3    H276905   0.197   3.127   5.078 -1.4371 -1.0439 -1.6691
18472TIP3   OH276906   1.899   1.374   2.905 -0.5277 -0.8651 -0.1704
18472TIP3    H176907   1.931   1.417   2.985 -0.3280 -0.5966 -0.3966
18472TIP3    H276908   1.863   1.445   2.852 -2.0683 -1.2341  0.3475
18473TIP3   OH276909   2.536   0.426   3.559  0.9942  0.3781  0.0992
18473TIP3    H176910   2.499   0.490   3.620  0.4376  1.0394 -0.9223
18473TIP3    H276911   2.461   0.380   3.523  1.0992  1.8894 -2.1651
18474TIP3   OH276912   5.188   3.964   1.730  0.0573  0.2673  0.5338
18474TIP3    H176913   5.276   3.972   1.766  0.1044  2.3107 -0.0060
18474TIP3    H276914   5.198   3.987   1.638 -0.9380 -0.0936  0.3344
18475TIP3   OH276915   5.954   1.240  15.457  0.3887 -0.1863  0.2043
18475TIP3    H176916   5.987   1.265  15.544 -0.9105 -0.6884  0.8595
18475TIP3    H276917   5.985   1.310  15.399  0.6237  0.5681  1.2112
18476TIP3   OH276918   4.675   3.518   4.109 -0.3430 -0.0914  0.4298
18476TIP3    H176919   4.629   3.456   4.053 -2.0623  0.0650  1.6079
18476TIP3    H276920   4.750   3.469   4.142  0.1791 -0.4664 -1.2574
18477TIP3   OH276921   7.100   1.459   4.608  0.3294 -0.6992  0.5827
18477TIP3    H176922   7.114   1.495   4.696  1.4721 -2.2181  1.0553
18477TIP3    H276923   7.006   1.465   4.594  0.3378  1.1580  1.2030
18478TIP3   OH276924   3.376   6.204   2.964 -0.1040 -0.3235 -0.0517
18478TIP3    H176925   3.381   6.193   3.059 -0.5100 -2.8813 -0.2942
18478TIP3    H276926   3.284   6.223   2.947  0.3333  2.1592  0.2347
18479TIP3   OH276927   7.180   5.363   5.079  0.3758 -0.0770  0.6715
18479TIP3    H176928   7.215   5.280   5.046  1.9226  0.5467  0.7141
18479TIP3    H276929   7.226   5.430   5.030  0.0645  0.7938  1.5538
18480TIP3   OH276930   0.869   6.133   4.539 -0.3753  0.3354  0.3997
18480TIP3    H176931   0.873   6.145   4.445  1.3751  0.5670  0.4883
18480TIP3    H276932   0.839   6.043   4.551 -0.4478  0.2545 -0.3757
18481TIP3   OH276933   4.744   7.050   4.993  0.6754 -0.2300  0.0217
18481TIP3    H176934   4.836   7.035   4.973 -0.1046 -1.6874 -2.7119
18481TIP3    H276935   4.734   7.018   5.083  2.4203 -1.9111 -0.3451
18482TIP3   OH276936   4.849   1.037   3.151 -0.1103 -0.7037  0.0025
18482TIP3    H176937   4.898   0.978   3.093 -0.7027  0.6390 -1.9457
18482TIP3    H276938   4.779   0.983   3.186 -0.7293 -1.1742 -1.8601
18483TIP3   OH276939   0.089   0.350   4.773  0.2021 -0.0406  0.2892
18483TIP3    H176940   0.172   0.383   4.806  0.4564 -1.0439  0.6545
18483TIP3    H276941   0.074   0.400   4.692 -0.3724  2.3706  1.8156
18484TIP3   OH276942   2.461   4.125   5.917 -0.1455  0.4836 -0.2779
18484TIP3    H176943   2.376   4.122   5.960  0.0383  0.2879  0.0723
18484TIP3    H276944   2.465   4.212   5.876 -0.3033  0.6853  0.1346
18485TIP3   OH276945   1.072   1.197   5.360 -0.1772  0.0628  0.3736
18485TIP3    H176946   1.127   1.243   5.298 -0.4592 -0.2137 -0.0860
18485TIP3    H276947   1.016   1.141   5.306 -0.4101 -0.1951  0.8739
18486TIP3   OH276948   2.314   0.005   3.324  0.6329 -0.2257  0.4154
18486TIP3    H176949   2.385  -0.047   3.287  1.2185  1.5677 -1.0752
18486TIP3    H276950   2.235  -0.046   3.306  1.2632 -0.9804 -0.2669
18487TIP3   OH276951   1.891   4.515   4.277 -0.1502 -0.3114  0.0927
18487TIP3    H176952   1.982   4.526   4.302 -0.8323 -0.0773  2.6254
18487TIP3    H276953   1.869   4.425   4.304  0.0226 -1.3116 -2.8911
18488TIP3   OH276954   0.864   2.048   5.353  0.1597  0.7410 -0.2856
18488TIP3    H176955   0.841   1.960   5.321  0.9029  0.5313 -0.2484
18488TIP3    H276956   0.834   2.107   5.284 -1.3916  0.5491  0.2090
18489TIP3   OH276957   1.898   2.069   4.683  0.2677 -0.1279 -0.5067
18489TIP3    H176958   1.891   2.116   4.766  3.2745  2.9103 -1.8485
18489TIP3    H276959   1.991   2.050   4.674  0.0794  0.0883 -3.3884
18490TIP3   OH276960   5.521   2.774   5.522  0.0953 -0.4744 -0.6097
18490TIP3    H176961   5.561   2.860   5.512 -2.1063  0.5091 -1.2198
18490TIP3    H276962   5.453   2.786   5.588 -0.1990 -1.7655 -0.6632
18491TIP3   OH276963   1.263   6.623   5.136 -0.7039 -0.0401  0.3677
18491TIP3    H176964   1.282   6.557   5.202 -0.1530 -0.4212 -0.1614
18491TIP3    H276965   1.259   6.705   5.184  1.0125 -0.1328  0.6978
18492TIP3   OH276966   2.116   3.917   4.035  0.3691  0.1470 -0.1262
18492TIP3    H176967   2.101   3.830   4.072 -2.5708  0.3047 -0.8401
18492TIP3    H276968   2.164   3.964   4.103 -0.0897 -1.3006  1.2294
18493TIP3   OH276969   4.220   4.997   4.385  0.4591  0.2117  0.8883
18493TIP3    H176970   4.194   5.033   4.470  4.0733 -0.7675  2.5156
18493TIP3    H276971   4.281   5.061   4.349  0.9173 -0.5822  0.2285
18494TIP3   OH276972   1.583   3.840   3.351 -0.1604  0.2880  0.2838
18494TIP3    H176973   1.525   3.835   3.428 -1.4597  3.2233 -0.4583
18494TIP3    H276974   1.618   3.929   3.353  0.8397 -0.0418 -1.8067
18495TIP3   OH276975   6.031   6.832   2.548  0.2294  0.1190 -0.9278
18495TIP3    H176976   6.035   6.920   2.510 -0.0062  0.7542  0.5072
18495TIP3    H276977   6.088   6.837   2.625 -1.6670 -0.3020  0.5192
18496TIP3   OH276978   1.727   3.712   5.304 -0.5315 -0.0626  0.3138
18496TIP3    H176979   1.728   3.630   5.354 -2.4613 -0.8871 -0.9193
18496TIP3    H276980   1.743   3.685   5.214 -2.0187  0.7871 -0.2256
18497TIP3   OH276981   2.805   1.766   1.348  0.2542  0.6039 -0.0073
18497TIP3    H176982   2.761   1.781   1.432 -1.4544 -0.2585 -0.7378
18497TIP3    H276983   2.887   1.816   1.355  0.6156 -0.2984  2.5652
18498TIP3   OH276984   5.884   6.998   1.289  0.5259  0.3467  0.0817
18498TIP3    H176985   5.818   6.978   1.355  2.4495 -0.8487  1.6968
18498TIP3    H276986   5.916   7.085   1.313  0.1355  0.5761 -0.2170
18499TIP3   OH276987   1.612   6.322   6.069  0.0049  0.1242 -0.0610
18499TIP3    H176988   1.620   6.233   6.036  1.6542 -0.8605  2.8128
18499TIP3    H276989   1.687   6.368   6.034  1.3967 -0.7441  1.6978
18500TIP3   OH276990   1.336   2.385   5.406 -0.0085  0.0062 -0.3095
18500TIP3    H176991   1.387   2.338   5.340  0.6622  0.1500  0.1052
18500TIP3    H276992   1.340   2.330   5.484 -0.7423 -0.1284 -0.3583
18501TIP3   OH276993   0.021   2.721   3.707 -0.5181  0.3292  0.6136
18501TIP3    H176994   0.083   2.757   3.771  0.4429 -1.1834  0.5737
18501TIP3    H276995  -0.025   2.652   3.754 -0.8571  0.2023  0.0993
18502TIP3   OH276996   1.252   2.346   4.980  0.2450 -0.1799 -0.2295
18502TIP3    H176997   1.187   2.294   5.027  0.2780 -0.4168 -0.4485
18502TIP3    H276998   1.283   2.410   5.045  1.4792 -1.5453  0.5389
18503TIP3   OH276999   5.565   4.959   2.375 -0.3370  0.1291  0.1869
18503TIP3    H177000   5.646   5.009   2.364 -0.1186 -0.1337  0.5559
18503TIP3    H277001   5.519   5.003   2.446 -0.6720  0.4777 -0.2511
18504TIP3   OH277002   0.631   5.564   5.232 -0.2133  0.6707  0.7296
18504TIP3    H177003   0.726   5.549   5.240 -0.6645 -2.7651  0.6131
18504TIP3    H277004   0.599   5.488   5.183 -3.1918  1.1642  1.8091
18505TIP3   OH277005   4.175   4.573   4.760  0.7108 -0.3400 -0.3784
18505TIP3    H177006   4.090   4.589   4.800  0.4371 -1.7296 -0.3768
18505TIP3    H277007   4.191   4.480   4.774  2.8052  0.1590  0.7137
18506TIP3   OH277008   3.422   4.018   3.933 -0.4091  0.2414  0.1878
18506TIP3    H177009   3.448   3.971   3.854 -1.4439 -0.0854  0.0408
18506TIP3    H277010   3.485   4.090   3.939  0.5335 -0.5275 -0.1657
18507TIP3   OH277011   2.667   6.174   3.697  0.5928  0.1449 -0.4304
18507TIP3    H177012   2.594   6.116   3.717 -0.0366  0.7433 -1.0054
18507TIP3    H277013   2.643   6.258   3.735  1.5507  0.0147  0.4857
18508TIP3   OH277014   1.038   2.457   4.519  0.0384  0.6225 -0.4328
18508TIP3    H177015   1.099   2.463   4.593  0.6929  0.0713 -0.9163
18508TIP3    H277016   1.009   2.366   4.519 -0.0047  0.6347 -0.8125
18509TIP3   OH277017   2.051   3.909   1.118 -0.0252  0.6230 -0.2724
18509TIP3    H177018   1.984   3.897   1.185 -0.2843  0.0725 -0.6209
18509TIP3    H277019   2.101   3.828   1.119  0.9484  1.2174  0.3130
18510TIP3   OH277020   4.224   4.235   1.951  0.0043 -0.6792 -0.1874
18510TIP3    H177021   4.192   4.148   1.928  0.1774  0.1452 -3.9039
18510TIP3    H277022   4.146   4.291   1.949  0.6303  0.1727 -3.0821
18511TIP3   OH277023   4.309   6.489   3.878 -0.6286 -0.0372 -0.7270
18511TIP3    H177024   4.247   6.551   3.917  1.0341  1.8302 -0.9549
18511TIP3    H277025   4.378   6.480   3.944  0.0105 -0.2588 -1.4233
18512TIP3   OH277026   1.760   5.367   2.910  0.0013 -0.4833  0.0143
18512TIP3    H177027   1.773   5.284   2.863  0.1528  1.4369 -3.5095
18512TIP3    H277028   1.847   5.406   2.915 -0.1659 -0.2283  1.1175
18513TIP3   OH277029   4.285   4.910   3.048  0.1219  0.6066 -0.3743
18513TIP3    H177030   4.324   4.840   2.996 -1.2562  0.8963 -1.8311
18513TIP3    H277031   4.222   4.952   2.989 -1.2632  1.1433  1.4384
18514TIP3   OH277032   2.384   2.438   5.180  0.1803 -0.2826 -0.4358
18514TIP3    H177033   2.405   2.363   5.236  1.1886 -0.4861 -1.0540
18514TIP3    H277034   2.289   2.443   5.181  0.1997  0.2961  2.0271
18515TIP3   OH277035   3.089   6.558   4.510 -0.2820  0.4106 -0.5440
18515TIP3    H177036   3.175   6.517   4.497 -0.6547 -0.2853 -0.8304
18515TIP3    H277037   3.026   6.489   4.490 -0.9117  0.6105  0.6792
18516TIP3   OH277038   1.391   1.075   3.849 -0.0144  0.0415 -0.2190
18516TIP3    H177039   1.400   1.108   3.939 -0.9022  1.6441 -0.7026
18516TIP3    H277040   1.349   1.146   3.801 -0.5217 -1.2069 -1.6750
18517TIP3   OH277041   6.696   3.273   5.598 -0.2458  0.8209 -0.3846
18517TIP3    H177042   6.702   3.333   5.672 -0.2208 -1.1669  1.2818
18517TIP3    H277043   6.608   3.286   5.563 -1.1537  0.0847  1.5271
18518TIP3   OH277044   3.752   5.414   4.440 -0.3045  0.2177  0.2229
18518TIP3    H177045   3.741   5.333   4.390  2.3413 -0.8761  1.3358
18518TIP3    H277046   3.846   5.427   4.445 -0.5891  1.5924  2.8598
18519TIP3   OH277047   4.374   2.455   4.330 -0.3695 -0.3127  0.4848
18519TIP3    H177048   4.434   2.520   4.365 -1.0559  0.5227  0.1039
18519TIP3    H277049   4.293   2.502   4.313 -0.4958 -1.0044 -0.9136
18520TIP3   OH277050   6.773   2.242   0.658 -0.6079 -0.1216 -0.5460
18520TIP3    H177051   6.829   2.269   0.585 -1.2001 -2.5636 -1.9771
18520TIP3    H277052   6.684   2.260   0.628 -0.8178 -0.4040 -0.1008
18521TIP3   OH277053   5.314   5.114   3.813  0.3798  0.1786  0.1289
18521TIP3    H177054   5.254   5.114   3.738  0.3896  0.4827  0.1212
18521TIP3    H277055   5.376   5.185   3.794 -0.5804  1.3339  1.2022
18522TIP3   OH277056   1.714   4.936   2.556  0.4495  0.1518  0.1269
18522TIP3    H177057   1.708   5.031   2.572  1.1680  0.0830  0.8601
18522TIP3    H277058   1.710   4.897   2.644  0.1586 -0.4997 -0.1735
18523TIP3   OH277059   3.182   5.000   4.803  0.6246  0.4573  0.3286
18523TIP3    H177060   3.273   4.998   4.772  0.5302 -0.2151  0.0645
18523TIP3    H277061   3.149   5.085   4.776  0.2076 -0.5118 -2.4599
18524TIP3   OH277062   1.592   3.864   5.873  0.3156 -0.0639  0.0146
18524TIP3    H177063   1.518   3.806   5.893 -0.1791  0.7570  0.5736
18524TIP3    H277064   1.627   3.830   5.791  0.5114 -1.6448  0.7382
18525TIP3   OH277065   5.932   4.679  12.379 -0.6828  0.3854 -0.4060
18525TIP3    H177066   5.992   4.719  12.443 -0.0635 -0.0860 -0.6857
18525TIP3    H277067   5.948   4.585  12.386  0.3775  0.4038 -2.2041
18526TIP3   OH277068   0.596   0.344   1.650  0.4433  0.0246  0.7077
18526TIP3    H177069   0.625   0.293   1.574 -1.7276 -0.2959  0.0680
18526TIP3    H277070   0.501   0.333   1.652  0.3806  0.6849  3.0105
18527TIP3   OH277071   2.001   1.094   4.577  0.2034 -0.1945 -0.2021
18527TIP3    H177072   1.971   1.097   4.668  0.5577 -0.9886 -0.0517
18527TIP3    H277073   1.932   1.045   4.532  1.7849 -3.0668  0.3722
18528TIP3   OH277074   2.531   6.434   5.300 -0.1345  0.0201  0.1182
18528TIP3    H177075   2.587   6.445   5.377 -1.2469 -0.2845  0.9872
18528TIP3    H277076   2.460   6.497   5.312 -0.2612  0.0511 -0.7158
18529TIP3   OH277077   7.163   2.918   5.340  0.3855  0.0843 -0.1116
18529TIP3    H177078   7.070   2.897   5.348  0.4435 -0.5667 -1.1327
18529TIP3    H277079   7.169   3.010   5.366 -1.0293  1.0990 -3.1770
18530TIP3   OH277080   1.544   1.038   3.406 -0.5064  0.0632 -0.3696
18530TIP3    H177081   1.592   1.089   3.340  0.3550 -0.0469  0.1536
18530TIP3    H277082   1.553   1.089   3.486  0.2010 -0.8013  0.1153
18531TIP3   OH277083   0.510   6.513   5.315  0.2422  0.0414 -0.0121
18531TIP3    H177084   0.506   6.605   5.287 -0.7596  0.6327  1.9747
18531TIP3    H277085   0.535   6.465   5.236  0.8810  2.0324 -1.0580
18532TIP3   OH277086   5.236   3.675   1.871  0.7673 -0.4191 -0.4397
18532TIP3    H177087   5.156   3.728   1.872  1.6014  0.8362  0.8418
18532TIP3    H277088   5.247   3.647   1.962  2.4419  0.4369 -0.3635
18533TIP3   OH277089   5.838   1.720   0.555 -0.4517  0.3495  0.2689
18533TIP3    H177090   5.852   1.628   0.578  4.2497 -0.2724 -3.9914
18533TIP3    H277091   5.901   1.768   0.609 -1.0069  0.7740  0.5432
18534TIP3   OH277092   3.191   1.654   4.632  0.2173 -0.3423  0.2493
18534TIP3    H177093   3.193   1.725   4.568 -0.7912 -0.9933 -0.5215
18534TIP3    H277094   3.207   1.698   4.716 -1.9456  1.0548 -0.0171
18535TIP3   OH277095   1.325   1.563   2.975 -0.0256 -0.0754 -0.0699
18535TIP3    H177096   1.242   1.594   3.011 -0.7597 -1.4600 -0.5345
18535TIP3    H277097   1.300   1.494   2.914  1.3750  0.5657 -1.3910
18536TIP3   OH277098   1.668   4.345   4.614  0.4210  0.4843  0.1038
18536TIP3    H177099   1.757   4.380   4.619  1.5060 -1.9671 -0.8618
18536TIP3    H277100   1.662   4.286   4.689  0.5739 -1.3665 -1.2997
18537TIP3   OH277101   6.587   6.206   5.332 -0.1996 -0.1890 -0.1961
18537TIP3    H177102   6.610   6.245   5.247  1.4867 -1.6487 -0.4321
18537TIP3    H277103   6.498   6.238   5.349 -1.6978 -2.0306 -3.8291
18538TIP3   OH277104   2.765   0.576   3.877 -0.2044 -0.0322 -0.0183
18538TIP3    H177105   2.671   0.567   3.864 -0.2363  0.7936 -0.4021
18538TIP3    H277106   2.790   0.650   3.822  0.5571  0.1700  0.5871
18539TIP3   OH277107   5.083   6.518   5.305  0.1653 -0.2400  0.3171
18539TIP3    H177108   5.091   6.609   5.276  1.0756 -0.5302 -0.3716
18539TIP3    H277109   5.151   6.508   5.371  1.2333 -0.9091 -0.8731
18540TIP3   OH277110   2.383   0.690   5.609 -0.1634  0.6285  0.0928
18540TIP3    H177111   2.300   0.680   5.656 -0.8362  1.3088 -0.9207
18540TIP3    H277112   2.422   0.602   5.609 -1.2369  0.1457 -0.0586
18541TIP3   OH277113   4.804   5.950   5.383 -0.5814 -0.5843  0.0017
18541TIP3    H177114   4.751   6.029   5.394 -1.2791 -0.5549 -3.0387
18541TIP3    H277115   4.765   5.906   5.307  1.5775 -2.4038 -0.0916
18542TIP3   OH277116   1.533   1.016   2.897 -0.6393  0.7926  0.2586
18542TIP3    H177117   1.518   1.034   2.804  1.1202  2.8309  0.3138
18542TIP3    H277118   1.589   0.938   2.898  2.1477  2.7159 -0.5801
18543TIP3   OH277119   6.230   2.090   4.260 -0.6908 -0.0263 -0.6332
18543TIP3    H177120   6.204   2.016   4.205  3.2105 -0.0887 -2.6031
18543TIP3    H277121   6.301   2.055   4.314 -0.0586  1.8029 -0.2513
18544TIP3   OH277122   3.546   3.885   3.720  0.1671 -0.5175 -0.0054
18544TIP3    H177123   3.622   3.912   3.773  0.1655 -2.2505  0.8999
18544TIP3    H277124   3.585   3.846   3.641  0.2205 -1.3522  0.4317
18545TIP3   OH277125   1.041   4.303   4.885 -0.5075 -0.2612 -0.2510
18545TIP3    H177126   1.080   4.286   4.800 -1.3806  2.0276 -1.1649
18545TIP3    H277127   1.072   4.391   4.908 -0.6944 -0.6494  1.5478
18546TIP3   OH277128   0.040   3.717   4.132  0.8326  0.3594  0.2286
18546TIP3    H177129  -0.035   3.772   4.110  0.8094 -0.6770 -2.4261
18546TIP3    H277130   0.002   3.637   4.168  0.7835  0.9708  1.5675
18547TIP3   OH277131   0.252   3.585   2.518 -0.0524 -0.9427  0.1022
18547TIP3    H177132   0.169   3.612   2.555  0.7133  0.0403  1.1200
18547TIP3    H277133   0.318   3.614   2.581  1.0587 -1.7994 -0.6331
18548TIP3   OH277134   5.864   5.909   2.882  0.2574  0.4607  0.6622
18548TIP3    H177135   5.884   5.815   2.881 -0.3551  0.3266  0.2907
18548TIP3    H277136   5.870   5.935   2.790 -3.2874 -0.0443  0.2228
18549TIP3   OH277137   3.045   4.409   4.107  0.6637 -0.0816 -0.0738
18549TIP3    H177138   3.089   4.409   4.022 -0.4068  0.9056 -0.6297
18549TIP3    H277139   3.070   4.493   4.147 -0.9042  0.5995 -0.4956
18550TIP3   OH277140   6.546   0.135   5.401 -0.6363 -0.1162  0.4185
18550TIP3    H177141   6.577   0.188   5.475  1.5139 -1.1750  0.3031
18550TIP3    H277142   6.550   0.195   5.326 -1.7812  0.6353  0.9352
18551TIP3   OH277143   6.512   3.827   3.270  0.9370 -0.5416  0.0740
18551TIP3    H177144   6.576   3.891   3.303 -0.5916  0.9815  0.1696
18551TIP3    H277145   6.469   3.793   3.349 -0.3707  0.5934 -0.1349
18552TIP3   OH277146   5.225   3.724   2.297  0.4714  0.0664  0.1150
18552TIP3    H177147   5.244   3.670   2.373 -2.8981 -0.5436  0.5791
18552TIP3    H277148   5.137   3.697   2.269  0.6790  1.9278 -2.5577
18553TIP3   OH277149   5.847   5.524   1.781 -0.2337  0.3403 -0.5035
18553TIP3    H177150   5.847   5.525   1.877  0.0070  0.6386 -0.5069
18553TIP3    H277151   5.757   5.499   1.758 -0.3081  0.3231 -0.2032
18554TIP3   OH277152   0.704   5.163  15.589  0.5834 -0.4982  0.1840
18554TIP3    H177153   0.680   5.256  15.594  1.2360 -0.2662 -0.8689
18554TIP3    H277154   0.657   5.122  15.662  1.2868  0.8707  1.4293
18555TIP3   OH277155   1.065   2.081   5.075 -0.5868  0.1882 -0.4957
18555TIP3    H177156   1.011   2.008   5.106 -1.1537 -0.1658 -2.2390
18555TIP3    H277157   1.060   2.146   5.145 -0.5987 -1.1823  0.7924
18556TIP3   OH277158   3.470   0.449   3.487  0.1771 -0.1713  0.1425
18556TIP3    H177159   3.537   0.443   3.555  0.5015 -0.4100 -0.1919
18556TIP3    H277160   3.497   0.384   3.421 -1.5715 -1.8431  1.0168
18557TIP3   OH277161   1.772   3.887   3.828 -0.0898  0.2718 -0.2174
18557TIP3    H177162   1.770   3.982   3.824  0.3112  0.2762 -0.3419
18557TIP3    H277163   1.816   3.860   3.747 -2.0101 -0.1083 -1.1435
18558TIP3   OH277164   0.739   2.364   3.128 -0.2417  0.0754  0.6390
18558TIP3    H177165   0.669   2.429   3.120  0.5780  0.8548 -0.3928
18558TIP3    H277166   0.725   2.324   3.213 -1.7017  0.5096  0.6090
18559TIP3   OH277167   5.765   3.038   3.460  0.2641  0.3504 -0.2080
18559TIP3    H177168   5.821   3.110   3.491  0.3376 -0.4193  1.5116
18559TIP3    H277169   5.732   3.068   3.375 -1.3177  3.2857  1.3740
18560TIP3   OH277170   7.018   1.047   2.615  0.1923 -0.2834  0.6789
18560TIP3    H177171   6.955   0.982   2.646  0.0521  0.4220  1.8830
18560TIP3    H277172   6.964   1.116   2.578  0.3290 -0.6262 -0.1699
18561TIP3   OH277173   0.802   5.050   3.301 -0.1267  0.3702  0.2498
18561TIP3    H177174   0.772   4.982   3.361 -0.3761  0.7875  0.5984
18561TIP3    H277175   0.728   5.111   3.294 -0.9361 -0.8292 -2.2003
18562TIP3   OH277176   5.656   0.723   3.029 -0.2835  0.3395  0.5264
18562TIP3    H177177   5.576   0.756   2.990  0.1545  1.0902  0.2473
18562TIP3    H277178   5.708   0.801   3.048  0.6463 -0.1656  0.1278
18563TIP3   OH277179   3.278   3.309   3.080 -0.0526 -0.2841 -0.7188
18563TIP3    H177180   3.227   3.359   3.144  1.8975 -0.2377  0.8428
18563TIP3    H277181   3.213   3.259   3.031 -1.7606  1.3296 -0.1427
18564TIP3   OH277182   1.648   2.600   5.013  0.2228  0.2154  0.4772
18564TIP3    H177183   1.639   2.596   5.108  0.5189 -1.1960  0.4536
18564TIP3    H277184   1.741   2.620   4.999  0.2888 -0.1028  0.4702
18565TIP3   OH277185   5.758   5.071   4.831 -0.2962 -0.5730  0.0077
18565TIP3    H177186   5.691   5.128   4.792  1.6469  1.6750 -0.1491
18565TIP3    H277187   5.773   5.108   4.918  0.9223 -0.8900 -0.0582
18566TIP3   OH277188   2.353   3.084   4.688  0.7504 -0.1545  0.1760
18566TIP3    H177189   2.302   3.048   4.616  1.4754  0.0825 -0.4736
18566TIP3    H277190   2.434   3.116   4.646  1.2729 -0.2121  1.1233
18567TIP3   OH277191   6.518   2.979   4.396 -1.2955 -0.0020 -1.1111
18567TIP3    H177192   6.447   2.938   4.346 -0.8235 -2.8982  0.4869
18567TIP3    H277193   6.597   2.931   4.370 -0.4985  0.7733 -0.1748
18568TIP3   OH277194   6.413   1.843   5.539  0.0451 -0.4460 -0.5183
18568TIP3    H177195   6.500   1.883   5.536 -0.2167  0.1601 -0.1820
18568TIP3    H277196   6.419   1.778   5.609 -0.0138  0.1847  0.0808
18569TIP3   OH277197   1.662   3.612   4.768 -0.8843 -0.3967 -0.0402
18569TIP3    H177198   1.683   3.702   4.791  1.0788 -0.9632  0.4802
18569TIP3    H277199   1.609   3.620   4.688 -0.5259  1.2070 -0.1403
18570TIP3   OH277200   1.794   4.657   4.545 -0.0287 -0.3715  0.2943
18570TIP3    H177201   1.883   4.681   4.570  0.0396  0.4774 -0.7357
18570TIP3    H277202   1.799   4.640   4.451 -1.3357  1.4930 -0.1274
18571TIP3   OH277203   0.718   3.726   4.754  0.1305  0.4175 -0.7196
18571TIP3    H177204   0.709   3.656   4.819  2.1452  0.8616  0.0941
18571TIP3    H277205   0.630   3.738   4.718 -1.1793  0.6235  2.4177
18572TIP3   OH277206   7.022   1.871   5.907 -0.1348 -0.1923  0.6153
18572TIP3    H177207   7.087   1.930   5.944  1.0969 -1.3689  0.3507
18572TIP3    H277208   7.072   1.795   5.877 -1.3715 -0.1927 -1.5520
18573TIP3   OH277209   7.053   2.379   5.463  0.4045 -0.1223 -0.5335
18573TIP3    H177210   7.012   2.461   5.491  1.4858  0.4652 -0.6300
18573TIP3    H277211   6.988   2.312   5.483 -0.7080  0.8155 -0.9327
18574TIP3   OH277212   1.585   3.439   3.225  0.7662  0.3477  0.2940
18574TIP3    H177213   1.675   3.460   3.201  0.4099  2.2233  0.4558
18574TIP3    H277214   1.576   3.471   3.316  0.0728 -0.2049  0.4250
18575TIP3   OH277215   1.908   0.161   6.033 -0.3437 -0.2876  0.2506
18575TIP3    H177216   1.818   0.146   6.062  0.5795 -1.6257  2.5713
18575TIP3    H277217   1.939   0.074   6.008  0.2002  0.2295 -0.9100
18576TIP3   OH277218   4.588   2.822   3.888  0.2489  0.0377  0.2105
18576TIP3    H177219   4.629   2.824   3.801  0.9796 -0.5098  0.5338
18576TIP3    H277220   4.588   2.914   3.916  0.6147  0.1356 -0.0928
18577TIP3   OH277221   6.354   1.104  13.568 -0.2887  0.0696 -0.0423
18577TIP3    H177222   6.336   1.129  13.658 -0.2825  0.2752 -0.0989
18577TIP3    H277223   6.314   1.173  13.515  1.2880  0.9164 -0.1529
18578TIP3   OH277224   6.749   3.158   6.120  0.2684  0.0702  0.6775
18578TIP3    H177225   6.796   3.217   6.060 -1.6142  2.4167  1.4675
18578TIP3    H277226   6.777   3.185   6.207 -0.9501  0.1234  1.0628
18579TIP3   OH277227   7.087   3.764   4.596 -0.0082  0.3931 -0.6870
18579TIP3    H177228   7.057   3.802   4.679 -2.2101 -1.0004 -0.8077
18579TIP3    H277229   7.018   3.702   4.572  1.5769 -0.6818 -2.5526
18580TIP3   OH277230   2.281   0.901   6.049 -0.2898  0.2646 -0.3205
18580TIP3    H177231   2.362   0.879   6.004  2.5902  4.3385  2.4619
18580TIP3    H277232   2.248   0.978   6.002 -0.6980  0.6909  0.6491
18581TIP3   OH277233   3.109   5.945   3.179  0.3713  0.3983  0.2591
18581TIP3    H177234   3.116   5.880   3.108  3.0235 -0.1604  0.9707
18581TIP3    H277235   3.092   6.028   3.134  1.9454  0.0384 -1.0434
18582TIP3   OH277236   0.250   4.539   4.189 -0.2221 -0.0309 -0.1315
18582TIP3    H177237   0.167   4.494   4.173  0.0125 -0.2756 -0.6626
18582TIP3    H277238   0.259   4.598   4.115  0.9414 -1.2687 -0.9911
18583TIP3   OH277239   2.083   4.164   5.387 -0.1112 -0.4087 -0.0979
18583TIP3    H177240   2.002   4.174   5.438  0.4700 -1.5864  1.0854
18583TIP3    H277241   2.082   4.073   5.359 -0.1107  0.0629 -1.7071
18584TIP3   OH277242   2.634   1.731   1.865  0.5220 -0.2396  0.2713
18584TIP3    H177243   2.644   1.642   1.831  0.6289 -0.5945  1.2040
18584TIP3    H277244   2.641   1.721   1.960 -0.3028  0.6592  0.4359
18585TIP3   OH277245   6.336   3.725   3.075  0.1044 -0.0972  0.2745
18585TIP3    H177246   6.387   3.773   3.140  1.0985  1.7511 -1.7815
18585TIP3    H277247   6.373   3.637   3.075  0.8623  0.2119  1.3626
18586TIP3   OH277248   6.747   5.719   4.607  0.1973 -0.0736  0.0908
18586TIP3    H177249   6.769   5.785   4.673  0.7710  0.2217 -0.3947
18586TIP3    H277250   6.762   5.763   4.523 -0.4392 -0.4769 -0.2379
18587TIP3   OH277251   2.271   2.429   4.328  0.2197 -0.2302  0.3069
18587TIP3    H177252   2.239   2.424   4.238  0.8124  0.7029  0.0340
18587TIP3    H277253   2.209   2.376   4.378  0.4164 -1.5135 -0.7838
18588TIP3   OH277254   6.500   3.992   4.394 -0.0552 -0.2054  0.0691
18588TIP3    H177255   6.529   4.040   4.472  0.9616 -0.0431 -0.4058
18588TIP3    H277256   6.425   4.043   4.362  0.2477  0.3782  0.2758
18589TIP3   OH277257   6.615   2.004   4.678 -0.4834 -0.2042 -0.1025
18589TIP3    H177258   6.525   2.034   4.686 -1.0149 -1.2234 -2.0203
18589TIP3    H277259   6.621   1.929   4.736 -0.6173  0.3600  0.6577
18590TIP3   OH277260   3.612   1.510   2.368  0.2715 -0.6422 -0.8346
18590TIP3    H177261   3.558   1.585   2.343  0.6561 -0.8178 -2.1915
18590TIP3    H277262   3.549   1.441   2.389 -0.0664 -0.1623 -0.2220
18591TIP3   OH277263   4.345   2.223   5.671  0.0638  0.3106 -0.1939
18591TIP3    H177264   4.400   2.155   5.711  0.4391 -0.2575 -1.6491
18591TIP3    H277265   4.385   2.305   5.698  1.2235 -0.0907 -0.6530
18592TIP3   OH277266   5.279   0.382   2.997  0.3093  0.2490  1.0447
18592TIP3    H177267   5.226   0.375   3.077 -1.0183 -1.2696  0.0742
18592TIP3    H277268   5.242   0.315   2.939  0.7913  1.8120 -1.1091
18593TIP3   OH277269   0.142   0.079   5.377  0.2630 -0.0616 -0.6065
18593TIP3    H177270   0.229   0.104   5.345  0.9158 -0.3599  0.9076
18593TIP3    H277271   0.138   0.114   5.466 -0.9349 -0.5827 -0.4465
18594TIP3   OH277272   1.740   2.981   4.235  0.4947 -0.4417 -0.1950
18594TIP3    H177273   1.692   2.992   4.317  0.6097  0.0597 -0.1905
18594TIP3    H277274   1.673   2.990   4.167  0.7270  1.2432 -0.2235
18595TIP3   OH277275   3.980   4.227   4.575 -0.4766  0.4088  0.1451
18595TIP3    H177276   3.903   4.182   4.611 -0.8753  1.2913  0.4119
18595TIP3    H277277   4.032   4.157   4.536 -2.1563 -0.0333 -1.3786
18596TIP3   OH277278   5.295   6.609   3.445 -0.3765  0.2562 -0.1578
18596TIP3    H177279   5.334   6.686   3.404  1.0861  0.4179  1.4800
18596TIP3    H277280   5.217   6.642   3.490  1.1652  1.1423  1.9617
18597TIP3   OH277281   0.450   3.697   4.646 -0.2991  0.0683 -0.2651
18597TIP3    H177282   0.381   3.643   4.608  0.5608 -1.6623  0.5915
18597TIP3    H277283   0.463   3.767   4.582 -1.5086 -0.6605 -1.3404
18598TIP3   OH277284   6.246   3.936   3.358  0.5170 -0.1144  0.3215
18598TIP3    H177285   6.270   3.974   3.442  1.8662  1.2554 -0.6518
18598TIP3    H277286   6.321   3.954   3.301 -1.3867  1.2390 -1.8503
18599TIP3   OH277287   5.276   6.109   5.151  0.3671  0.3035 -0.2439
18599TIP3    H177288   5.280   6.042   5.082  0.6719  0.5901 -0.5084
18599TIP3    H277289   5.214   6.074   5.215 -0.8743  0.6145 -1.2730
18600TIP3   OH277290   1.870   6.975   5.099 -0.4722  0.2549 -0.1446
18600TIP3    H177291   1.844   7.063   5.071  0.5500  0.7427  0.4033
18600TIP3    H277292   1.851   6.973   5.193 -0.5770 -0.1438 -0.1732
18601TIP3   OH277293   5.297   5.695   1.693  0.5960  0.6232 -0.5125
18601TIP3    H177294   5.382   5.665   1.726  1.5591  3.3234 -0.3297
18601TIP3    H277295   5.312   5.788   1.674 -2.3420  1.1413 -0.4343
18602TIP3   OH277296   4.178   6.666   4.752 -0.0566 -0.2653 -0.2084
18602TIP3    H177297   4.135   6.751   4.744  0.7381  0.2087  0.4079
18602TIP3    H277298   4.190   6.654   4.846  0.0367 -0.9614 -0.3043
18603TIP3   OH277299   0.379   5.595   5.048  0.4210  0.4646  0.7555
18603TIP3    H177300   0.367   5.548   5.131  0.0762  0.2803  0.6039
18603TIP3    H277301   0.460   5.560   5.012 -1.1603 -1.9492 -0.6214
18604TIP3   OH277302   2.718   0.618   4.240 -0.3031 -0.1666  0.1167
18604TIP3    H177303   2.775   0.686   4.205 -0.0146 -0.4905 -0.0364
18604TIP3    H277304   2.650   0.667   4.287 -0.5737  0.2564 -0.7069
18605TIP3   OH277305   6.351   5.780   5.137 -0.3765 -0.1492  0.1618
18605TIP3    H177306   6.280   5.809   5.079 -0.2774 -1.5546 -0.6955
18605TIP3    H277307   6.430   5.785   5.083  0.5138  3.1767  1.6699
18606TIP3   OH277308   0.237   6.844   6.130  0.2077 -0.0143 -0.4150
18606TIP3    H177309   0.276   6.932   6.136 -0.6073  0.2766  0.9076
18606TIP3    H277310   0.149   6.855   6.166  0.5525 -1.6267  0.9716
18607TIP3   OH277311   0.680   5.102   4.767 -0.0204 -0.2003  0.0309
18607TIP3    H177312   0.679   5.110   4.863  0.2848  0.9847 -0.0611
18607TIP3    H277313   0.596   5.061   4.746 -0.3058 -0.0083  0.7696
18608TIP3   OH277314   6.582   2.456   3.434 -0.5074  0.6961 -0.5801
18608TIP3    H177315   6.568   2.425   3.344 -0.9131 -1.2414  0.1320
18608TIP3    H277316   6.496   2.482   3.464 -0.5944  0.1370 -0.3298
18609TIP3   OH277317   6.676   6.951   5.370 -0.4074  0.7723 -0.1504
18609TIP3    H177318   6.631   6.917   5.447 -2.4361 -0.3911 -1.8009
18609TIP3    H277319   6.656   6.889   5.300  2.4554  1.1092 -1.3582
18610TIP3   OH277320   4.145   3.265   4.038 -0.2212 -0.6081 -0.2368
18610TIP3    H177321   4.090   3.198   4.079  0.2170 -0.3519  0.7800
18610TIP3    H277322   4.148   3.240   3.946 -3.4252  0.3135 -0.6530
18611TIP3   OH277323   6.330   5.131   5.717  0.2853 -0.3575  0.0929
18611TIP3    H177324   6.417   5.168   5.733  0.9572 -0.4956 -2.8081
18611TIP3    H277325   6.271   5.207   5.721  0.6567 -0.1270  1.2399
18612TIP3   OH277326   6.768   1.375   4.292 -0.3815  0.1619 -0.3676
18612TIP3    H177327   6.781   1.319   4.215  1.5335 -1.3198  0.9827
18612TIP3    H277328   6.799   1.461   4.264 -1.5126  0.1071 -1.8575
18613TIP3   OH277329   3.285   1.045   4.980  0.1657 -0.1168 -0.3496
18613TIP3    H177330   3.313   1.122   5.030  0.0616  0.3990 -1.0838
18613TIP3    H277331   3.310   1.064   4.890  1.7910 -1.7338 -0.2586
18614TIP3   OH277332   4.429   5.086   3.858  0.1798 -0.3868  0.3114
18614TIP3    H177333   4.434   5.075   3.763  1.4863  0.4074  0.2672
18614TIP3    H277334   4.421   5.181   3.870  1.7658 -0.3183  1.0229
18615TIP3   OH277335   5.463   3.182   3.814  0.2887  0.8091  0.7371
18615TIP3    H177336   5.512   3.109   3.775  0.6247  0.4173  1.8826
18615TIP3    H277337   5.517   3.259   3.795 -0.1517  0.7879 -0.6252
18616TIP3   OH277338   2.783   3.378   4.418  0.3466  0.2622 -0.1174
18616TIP3    H177339   2.873   3.405   4.435  0.2602  1.8664 -2.1194
18616TIP3    H277340   2.739   3.457   4.388 -0.8372 -1.2921 -2.6095
18617TIP3   OH277341   5.939   5.106   3.359 -0.0602 -0.4788  0.2540
18617TIP3    H177342   5.989   5.027   3.378  0.5544  0.0393  0.8502
18617TIP3    H277343   5.852   5.090   3.397 -0.3563 -1.3916 -0.8063
18618TIP3   OH277344   6.024   3.998   4.970  0.1157 -0.5388  0.2704
18618TIP3    H177345   6.020   3.998   5.065 -0.9841 -0.1861  0.2326
18618TIP3    H277346   6.118   3.998   4.950  0.3572 -0.0740  1.3479
18619TIP3   OH277347   7.069   4.018   2.768  0.0064  0.4187  0.5033
18619TIP3    H177348   7.012   4.040   2.841 -3.4086 -1.7145 -1.3775
18619TIP3    H277349   7.080   3.923   2.774  2.7966  0.6960  0.3719
18620TIP3   OH277350   3.646   3.959   3.371  0.4067 -0.0307 -0.3635
18620TIP3    H177351   3.725   3.988   3.416  0.0780 -1.0138  0.8655
18620TIP3    H277352   3.600   4.040   3.349  0.8445  0.4810  0.5839
18621TIP3   OH277353   7.189   5.907   5.269  0.1337  0.1218 -0.0508
18621TIP3    H177354   7.236   5.974   5.318 -1.5714  0.3748  1.2815
18621TIP3    H277355   7.220   5.917   5.179  2.1452  0.6715  0.6691
18622TIP3   OH277356   2.414   4.621   5.365 -0.4421 -0.3248  0.3473
18622TIP3    H177357   2.469   4.699   5.377 -3.6370  1.8337  1.6872
18622TIP3    H277358   2.427   4.571   5.446 -1.3577  0.8085  1.2188
18623TIP3   OH277359   2.259   5.749   4.832 -0.4268 -0.9141  0.3259
18623TIP3    H177360   2.186   5.806   4.856 -0.4315 -0.9142  0.3115
18623TIP3    H277361   2.218   5.677   4.784 -0.3716 -0.6906 -0.0633
18624TIP3   OH277362   4.274   5.310   3.229 -0.0074  0.0012  0.8098
18624TIP3    H177363   4.361   5.313   3.270 -0.1200 -1.7348  1.2152
18624TIP3    H277364   4.271   5.225   3.185 -0.3574  1.3233 -1.8251
18625TIP3   OH277365   0.415   4.966   2.413 -0.1566  0.1565  0.6563
18625TIP3    H177366   0.470   5.001   2.344  1.4810 -1.4663  1.0988
18625TIP3    H277367   0.342   4.923   2.368 -0.0966  0.7399  0.0104
18626TIP3   OH277368   4.928   4.364   3.197  0.3845  0.3890 -0.2734
18626TIP3    H177369   4.953   4.447   3.238 -0.7657  0.6438 -0.0847
18626TIP3    H277370   5.009   4.313   3.195  0.8793  1.1308  0.5339
18627TIP3   OH277371   5.346   5.575   5.158  0.0279  0.5874 -0.0242
18627TIP3    H177372   5.273   5.589   5.098  0.8895 -0.6685 -1.4044
18627TIP3    H277373   5.323   5.495   5.205 -0.2162  1.0640  0.6705
18628TIP3   OH277374   5.349   1.307   1.214 -0.1542  0.4261  0.1471
18628TIP3    H177375   5.321   1.326   1.303 -0.3475  0.0776  0.1640
18628TIP3    H277376   5.444   1.304   1.218 -0.1901 -0.3889  0.5111
18629TIP3   OH277377   7.115   5.129   5.242  0.2311 -0.5624  0.3544
18629TIP3    H177378   7.093   5.095   5.329 -0.0265  1.1288  0.9781
18629TIP3    H277379   7.075   5.216   5.240  1.4305 -0.0276 -0.9375
18630TIP3   OH277380   0.221   6.790   4.399 -0.3128 -0.0431  0.4963
18630TIP3    H177381   0.216   6.803   4.304 -0.8672 -3.5628 -0.0526
18630TIP3    H277382   0.299   6.839   4.426  1.4204 -1.1407 -2.2511
18631TIP3   OH277383   5.653   2.456   5.200  0.0995  0.1262 -0.0891
18631TIP3    H177384   5.730   2.490   5.245  0.2563  0.2646 -0.4641
18631TIP3    H277385   5.667   2.361   5.197 -0.2848  0.0354  0.8508
18632TIP3   OH277386   1.329   6.000   4.460 -0.0440 -0.1972  0.2415
18632TIP3    H177387   1.391   5.929   4.476 -0.8504 -0.9146  0.1833
18632TIP3    H277388   1.305   6.031   4.547 -1.0987 -1.2208  0.3267
18633TIP3   OH277389   5.051   5.700   5.297  0.1751  0.2314 -0.0590
18633TIP3    H177390   4.956   5.704   5.305  0.2775 -1.0804  2.1627
18633TIP3    H277391   5.066   5.657   5.213 -1.2430 -1.7358  0.6575
18634TIP3   OH277392   4.398   5.498   5.875  0.6282  0.2252  0.6482
18634TIP3    H177393   4.427   5.588   5.866  0.4129  0.0933 -1.4627
18634TIP3    H277394   4.303   5.501   5.861  0.7625 -0.4675 -0.4741
18635TIP3   OH277395   5.623   4.390   3.996  0.1334  0.3100  0.1496
18635TIP3    H177396   5.709   4.429   4.008 -0.0136  1.2374 -1.6449
18635TIP3    H277397   5.594   4.420   3.910 -1.4492 -1.0116  0.1801
18636TIP3   OH277398   2.718   2.382   1.262  0.4601  0.0823 -0.2272
18636TIP3    H177399   2.698   2.413   1.174 -0.5026  3.6442  1.1484
18636TIP3    H277400   2.652   2.424   1.318  2.6809  0.1199  2.5060
18637TIP3   OH277401   0.470   4.031   3.398  0.2831 -0.4227  0.7072
18637TIP3    H177402   0.452   4.079   3.317  1.6360  2.1734  1.9007
18637TIP3    H277403   0.492   3.942   3.368  0.1889  0.3407 -1.7421
18638TIP3   OH277404   5.181   4.617   4.995 -0.1830 -0.3925  1.0340
18638TIP3    H177405   5.097   4.662   4.986 -1.1059 -1.0403  5.0977
18638TIP3    H277406   5.180   4.549   4.927 -2.3645  0.4632  0.1805
18639TIP3   OH277407   5.776   2.756   4.464 -0.2433 -0.2583 -0.4187
18639TIP3    H177408   5.860   2.764   4.509 -0.7782  0.8064  0.4130
18639TIP3    H277409   5.759   2.662   4.462  0.1494 -0.3633  0.9467
18640TIP3   OH277410   1.780   4.309   0.879 -0.2069  0.3679  0.2228
18640TIP3    H177411   1.860   4.278   0.921  0.5135  1.4364 -0.3289
18640TIP3    H277412   1.751   4.383   0.933 -0.9449 -0.1350  0.5341
18641TIP3   OH277413   0.311   1.489   5.350 -0.1170  0.3693  0.9303
18641TIP3    H177414   0.345   1.405   5.381 -1.2810 -0.7250 -0.6565
18641TIP3    H277415   0.355   1.503   5.267 -0.2558  1.1059  0.9802
18642TIP3   OH277416   4.021   5.410   1.860  0.4178 -0.2022 -0.2593
18642TIP3    H177417   4.095   5.368   1.903  0.4154 -0.8137 -0.8587
18642TIP3    H277418   3.987   5.470   1.926  1.7830  0.4910 -0.1575
18643TIP3   OH277419   0.873   3.881   3.993  0.5318 -0.5209  0.9065
18643TIP3    H177420   0.965   3.869   4.016  0.2854 -1.4154  1.4264
18643TIP3    H277421   0.875   3.927   3.909  1.4528 -0.9657  0.6828
18644TIP3   OH277422   4.692   5.237   4.060  0.1043  0.5440  0.5374
18644TIP3    H177423   4.748   5.245   4.137  1.4872  1.2996 -0.5252
18644TIP3    H277424   4.723   5.306   4.001 -1.8222  0.8527 -0.1562
18645TIP3   OH277425   2.294   2.918   5.068 -0.4822  0.4420  0.1806
18645TIP3    H177426   2.349   2.906   4.990 -2.2771  0.1616 -1.0979
18645TIP3    H277427   2.302   2.836   5.116  0.0753  0.3309 -0.0944
18646TIP3   OH277428   5.435   3.501   4.885  0.4133  0.1269 -0.6058
18646TIP3    H177429   5.425   3.411   4.854 -2.0249  0.3498 -0.5271
18646TIP3    H277430   5.403   3.500   4.975  2.4879  0.6234  0.1706
18647TIP3   OH277431   3.999   0.092   4.833 -0.3192 -0.4873 -0.3355
18647TIP3    H177432   4.073   0.134   4.789 -1.6864  1.2375 -1.0427
18647TIP3    H277433   4.014   0.107   4.926 -1.3933  2.7224 -0.6032
18648TIP3   OH277434   5.321   0.438   2.162  0.1875 -0.0441 -0.4507
18648TIP3    H177435   5.322   0.370   2.095 -2.1250  1.7539 -2.4125
18648TIP3    H277436   5.311   0.391   2.245 -1.5371 -2.0804 -1.7827
18649TIP3   OH277437   5.887   2.468   2.960 -0.4692 -0.2005  0.2269
18649TIP3    H177438   5.849   2.529   3.023  0.4406 -2.6759  3.2683
18649TIP3    H277439   5.974   2.505   2.941 -1.3244  1.3481 -0.7894
18650TIP3   OH277440   5.539   3.858   5.228 -0.2025  0.2689  0.1544
18650TIP3    H177441   5.620   3.827   5.269  0.3106 -2.2418 -2.5395
18650TIP3    H277442   5.565   3.935   5.178 -0.0489  1.0035  1.3287
18651TIP3   OH277443   2.634   2.254   3.583 -0.2474 -1.0026  0.0013
18651TIP3    H177444   2.562   2.241   3.520  0.9434 -0.0873 -1.5850
18651TIP3    H277445   2.690   2.177   3.571  1.0777  0.2011 -1.5641
18652TIP3   OH277446   6.378   6.026   4.943 -0.0062 -0.2432 -0.3124
18652TIP3    H177447   6.413   6.110   4.973  0.1086 -0.2380 -0.4636
18652TIP3    H277448   6.367   5.975   5.023  0.5435 -0.3208 -0.2880
18653TIP3   OH277449   0.787   3.917   5.509  0.5909 -0.1280 -0.0784
18653TIP3    H177450   0.803   3.942   5.600  0.2208  0.1214 -0.0831
18653TIP3    H277451   0.759   3.825   5.514 -1.4797  0.4919  0.2501
18654TIP3   OH277452   4.447   5.799   5.019  0.0282 -0.7275  0.0818
18654TIP3    H177453   4.519   5.822   5.078  0.6522  0.0115 -0.9617
18654TIP3    H277454   4.424   5.709   5.044  0.4333 -0.5008  1.2934
18655TIP3   OH277455   6.631   4.536   2.363  0.2052  0.7902 -0.2018
18655TIP3    H177456   6.599   4.582   2.441 -0.2107  1.5353 -0.8088
18655TIP3    H277457   6.551   4.515   2.314  0.2983 -1.4806  0.5563
18656TIP3   OH277458   6.898   4.560   5.569 -0.4757  0.0883 -0.3300
18656TIP3    H177459   6.975   4.569   5.625  0.0944  2.3699 -1.4325
18656TIP3    H277460   6.827   4.597   5.621 -0.0144  1.8765 -0.9408
18657TIP3   OH277461   4.887   6.050   5.108  0.2585 -0.4602  0.3582
18657TIP3    H177462   4.824   6.113   5.143  0.5405 -0.2140  0.4209
18657TIP3    H277463   4.954   6.043   5.175 -0.1651 -1.4162  0.6927
18658TIP3   OH277464   1.608   5.969   4.958  0.0061  0.7944  0.1350
18658TIP3    H177465   1.521   5.972   4.998 -0.4336  0.7568 -0.8039
18658TIP3    H277466   1.593   5.937   4.869  0.6580  3.1576 -0.8745
18659TIP3   OH277467   0.322   4.775   2.752  0.3011  0.4604 -0.2317
18659TIP3    H177468   0.388   4.734   2.808 -0.0221 -0.4468 -0.5055
18659TIP3    H277469   0.284   4.844   2.806  0.4681  0.0414  0.4227
18660TIP3   OH277470   3.043   5.605   5.880  0.1915  0.0021 -0.2345
18660TIP3    H177471   3.051   5.518   5.841  0.5698 -0.3549  0.6192
18660TIP3    H277472   3.090   5.663   5.821 -2.1667  0.0611 -2.1365
18661TIP3   OH277473   7.000   3.299   4.517  0.3247  0.6264 -0.1501
18661TIP3    H177474   6.947   3.219   4.510 -0.8080  1.2222  1.3621
18661TIP3    H277475   7.039   3.309   4.431  0.2482 -1.4063 -0.4497
18662TIP3   OH277476   3.407   6.697   5.811 -0.4333  0.5741 -0.6449
18662TIP3    H177477   3.403   6.786   5.846 -0.1765  0.5278 -0.4987
18662TIP3    H277478   3.319   6.682   5.775 -1.1209  0.1312  1.1694
18663TIP3   OH277479   5.527   4.619   5.839 -0.2966 -0.4248 -0.2252
18663TIP3    H177480   5.437   4.588   5.846 -0.1613 -0.9104 -0.6536
18663TIP3    H277481   5.580   4.540   5.825  0.0836 -0.0419 -0.9679
18664TIP3   OH277482   3.256   4.414   2.140 -0.0152 -0.6068  0.1207
18664TIP3    H177483   3.275   4.497   2.184 -0.9432 -0.6005  0.5334
18664TIP3    H277484   3.323   4.354   2.171  1.5502  0.3758 -1.3209
18665TIP3   OH277485   6.773   5.542   4.907 -0.3702  0.0367  0.4333
18665TIP3    H177486   6.819   5.483   4.966  0.5892 -1.4249 -1.7220
18665TIP3    H277487   6.840   5.577   4.849 -1.3828  0.9790 -0.2115
18666TIP3   OH277488   1.359   4.184   1.758 -0.2763  0.2276  0.3947
18666TIP3    H177489   1.385   4.229   1.678  0.1924  0.7838  0.8598
18666TIP3    H277490   1.407   4.101   1.756  1.0862  0.9838  0.9454
18667TIP3   OH277491   6.986   2.520   3.503  0.0624 -0.1742  0.7052
18667TIP3    H177492   6.925   2.594   3.503  1.2602  0.8233  1.0631
18667TIP3    H277493   7.005   2.504   3.596  0.7099 -0.1618  0.5797
18668TIP3   OH277494   4.781   2.079   1.687  0.6677  0.1735 -0.7294
18668TIP3    H177495   4.703   2.025   1.675  1.7513 -1.1272 -2.1320
18668TIP3    H277496   4.797   2.119   1.602  3.0922 -1.7912 -1.2858
18669TIP3   OH277497   4.942   3.334   4.644 -0.2540 -0.5068 -0.0886
18669TIP3    H177498   4.982   3.418   4.664 -1.4411  0.0726 -0.0952
18669TIP3    H277499   4.974   3.311   4.557 -1.2052  0.7451 -0.7862
18670TIP3   OH277500   4.840   1.166   4.808  0.2999 -0.3248 -0.0344
18670TIP3    H177501   4.772   1.126   4.862 -1.7931  0.6496 -1.8650
18670TIP3    H277502   4.903   1.096   4.791 -0.2345 -1.2406  1.6784
18671TIP3   OH277503   6.028   3.332   4.000 -0.2152 -0.4142  0.5259
18671TIP3    H177504   5.972   3.284   4.061 -0.9130 -1.0878 -0.6265
18671TIP3    H277505   6.106   3.354   4.051 -0.5324 -1.4963  1.4966
18672TIP3   OH277506   2.192   0.442   5.625  0.0809  0.5404  0.0589
18672TIP3    H177507   2.258   0.373   5.615  0.0657  0.5510 -0.1254
18672TIP3    H277508   2.112   0.396   5.649  0.2301  0.5566  0.5927
18673TIP3   OH277509   4.655   5.634   2.092  0.6139 -0.5994  0.0290
18673TIP3    H177510   4.619   5.546   2.104  1.5512 -1.1508 -1.1031
18673TIP3    H277511   4.704   5.651   2.172 -0.5606 -0.6050  0.7676
18674TIP3   OH277512   2.445   5.363   6.049  0.5301  0.6395  0.1290
18674TIP3    H177513   2.386   5.411   5.991 -0.2956  0.9768  1.2307
18674TIP3    H277514   2.415   5.385   6.138  0.6055 -1.2965  0.6635
18675TIP3   OH277515   4.269   6.123   5.653 -0.5732  0.5568 -0.8050
18675TIP3    H177516   4.234   6.184   5.719 -0.8357  0.3327 -0.7360
18675TIP3    H277517   4.267   6.038   5.697  1.1265  0.7229 -0.3992
18676TIP3   OH277518   1.877   2.058   2.512 -0.5298  0.1639  0.9913
18676TIP3    H177519   1.811   2.093   2.572 -1.6315 -0.1172 -0.0246
18676TIP3    H277520   1.843   2.079   2.425  1.5344  1.4603  0.4517
18677TIP3   OH277521   6.892   4.063   3.958  0.3011 -0.8239 -0.3875
18677TIP3    H177522   6.887   4.080   3.864 -0.3745  0.8870 -0.0488
18677TIP3    H277523   6.864   3.972   3.967 -1.4670 -0.4242 -1.6492
18678TIP3   OH277524   1.830   1.674   1.821  0.1112  0.0525  0.3237
18678TIP3    H177525   1.783   1.676   1.905  0.1123  1.3951  0.2936
18678TIP3    H277526   1.860   1.583   1.813 -0.3915 -0.2258  1.4990
18679TIP3   OH277527   5.316   1.899   3.065  0.1084 -0.2229 -0.6691
18679TIP3    H177528   5.366   1.974   3.098 -0.1902  0.3586 -1.5323
18679TIP3    H277529   5.313   1.911   2.970  0.8112 -1.8004 -0.9107
18680TIP3   OH277530   0.235   1.557   2.784  0.2639 -0.9067  0.2510
18680TIP3    H177531   0.164   1.614   2.812 -0.5959 -1.1955 -1.2737
18680TIP3    H277532   0.311   1.616   2.776 -0.3848 -0.1375 -0.3828
18681TIP3   OH277533   4.600   0.642   3.478  0.5109  0.2134 -0.4604
18681TIP3    H177534   4.565   0.644   3.567  2.3917  0.9119  0.3019
18681TIP3    H277535   4.686   0.601   3.487  0.9594  0.7876 -1.8605
18682TIP3   OH277536   6.442   1.642   4.252 -0.1484 -0.1201  0.5177
18682TIP3    H177537   6.423   1.735   4.238 -1.4952 -0.1451  2.0536
18682TIP3    H277538   6.505   1.620   4.184  0.4844  2.0214  0.3792
18683TIP3   OH277539   6.436   2.440   0.817 -0.7469 -0.1433  0.0364
18683TIP3    H177540   6.452   2.530   0.789 -0.2136 -0.3780 -0.4342
18683TIP3    H277541   6.389   2.448   0.900  1.8419  0.5810  1.4798
18684TIP3   OH277542   5.549   5.914   1.391 -0.7069 -0.2220  0.2785
18684TIP3    H177543   5.585   5.937   1.306 -1.9725 -1.1696 -0.5460
18684TIP3    H277544   5.605   5.843   1.422  1.2003  1.6820  1.3458
18685TIP3   OH277545   4.496   4.354   4.072 -0.2759 -0.1645  0.1297
18685TIP3    H177546   4.555   4.331   4.000  0.1515 -0.9047  0.7024
18685TIP3    H277547   4.531   4.436   4.106  1.8433 -1.7784  1.9561
18686TIP3   OH277548   0.952   2.303   2.942  0.4421 -0.1071 -0.4706
18686TIP3    H177549   0.906   2.262   2.869  1.7806  0.5130 -1.6723
18686TIP3    H277550   0.883   2.352   2.988 -0.6181 -1.3793 -0.6607
18687TIP3   OH277551   2.652   6.568   2.669  0.1088  0.0905  0.3680
18687TIP3    H177552   2.562   6.558   2.638  0.2423 -0.4969  0.1573
18687TIP3    H277553   2.653   6.526   2.755 -0.4820  2.5181  1.5914
18688TIP3   OH277554   6.581   5.273   1.665 -0.1691 -0.5650  0.4774
18688TIP3    H177555   6.559   5.188   1.701 -0.0511 -0.8557 -0.1428
18688TIP3    H277556   6.677   5.272   1.658 -0.1549 -0.3234  0.6150
18689TIP3   OH277557   3.220   0.400   4.735 -0.2250  0.3946 -0.3314
18689TIP3    H177558   3.304   0.442   4.716 -1.5229  3.6525  0.6804
18689TIP3    H277559   3.164   0.426   4.661 -0.9161  0.0099  0.0545
18690TIP3   OH277560   1.268   2.735   4.543 -0.0418  0.2734 -0.6959
18690TIP3    H177561   1.358   2.740   4.509  0.7005  1.0644  1.3395
18690TIP3    H277562   1.271   2.668   4.610 -1.3304 -0.7207 -1.6003
18691TIP3   OH277563   4.113   1.853   2.186  0.0926 -0.3253  0.0045
18691TIP3    H177564   4.096   1.941   2.219 -0.6110 -0.3590 -0.2618
18691TIP3    H277565   4.165   1.811   2.255  0.3939  0.2802  0.1490
18692TIP3   OH277566   4.652   3.359   6.132  0.0038  0.4870  0.2749
18692TIP3    H177567   4.573   3.308   6.151  0.9026 -0.8193  0.5691
18692TIP3    H277568   4.673   3.336   6.041 -0.5838  1.6966 -0.1708
18693TIP3   OH277569   1.653   1.570   4.501  0.0235 -0.2357  0.1684
18693TIP3    H177570   1.623   1.490   4.546  1.3486 -0.2173  1.1083
18693TIP3    H277571   1.649   1.547   4.408 -2.1051 -0.5069  0.2784
18694TIP3   OH277572   3.539   1.726   5.485 -0.0495  0.3555  0.3195
18694TIP3    H177573   3.554   1.642   5.530  0.4665  0.5933  0.5942
18694TIP3    H277574   3.506   1.784   5.554 -0.3633  0.3943  0.1378
18695TIP3   OH277575   0.019   6.316   4.717 -0.4799  0.5138  0.3649
18695TIP3    H177576  -0.065   6.280   4.688  0.8863 -2.3351 -0.1550
18695TIP3    H277577   0.081   6.289   4.649  1.0302  1.8754  1.1694
18696TIP3   OH277578   0.783   5.841   5.491  0.5478 -0.0549  0.0059
18696TIP3    H177579   0.789   5.748   5.514  0.1762  0.3284  1.7326
18696TIP3    H277580   0.776   5.842   5.396 -0.4229 -1.8494  0.0415
18697TIP3   OH277581   3.287   4.569   4.926  0.1473  0.1473  0.2128
18697TIP3    H177582   3.230   4.643   4.903 -0.9548 -0.8268 -0.2460
18697TIP3    H277583   3.257   4.542   5.012  0.8858  0.5315  0.6029
18698TIP3   OH277584   3.785   5.926   4.856 -0.0730 -0.3218  0.8740
18698TIP3    H177585   3.749   5.950   4.941 -1.0245  0.0497  0.3721
18698TIP3    H277586   3.827   6.006   4.824  3.1310 -1.2965  2.3920
18699TIP3   OH277587   2.126   4.313   3.535  0.3733 -0.7159  0.3436
18699TIP3    H177588   2.218   4.335   3.520  0.8668 -0.5648  3.3074
18699TIP3    H277589   2.113   4.231   3.488  2.0801 -0.8325  0.0273
18700TIP3   OH277590   1.208   1.240   4.093 -0.1179  0.7431 -0.4184
18700TIP3    H177591   1.150   1.167   4.074  0.0438  0.0516  1.6562
18700TIP3    H277592   1.176   1.312   4.038  0.4214 -1.1701 -3.3638
18701TIP3   OH277593   3.646   6.210   2.606 -0.4379  0.0941  1.1430
18701TIP3    H177594   3.684   6.259   2.679 -3.8460 -0.1207  3.1577
18701TIP3    H277595   3.558   6.187   2.636 -1.5767 -0.8421 -2.6674
18702TIP3   OH277596   2.667   1.663   2.150 -0.2234  0.6535 -0.7940
18702TIP3    H177597   2.732   1.598   2.176 -1.0232 -0.7023 -2.1423
18702TIP3    H277598   2.633   1.697   2.233  0.2889 -0.5500 -0.0747
18703TIP3   OH277599   3.913   4.021   3.518 -0.0164  0.0628 -0.2432
18703TIP3    H177600   3.966   3.951   3.479 -2.2242 -0.3020 -2.7967
18703TIP3    H277601   3.975   4.092   3.534  1.6643 -1.2364 -0.8120
18704TIP3   OH277602   3.927   2.981   0.026 -0.6228 -0.0958 -0.1295
18704TIP3    H177603   3.988   3.055   0.024 -0.7324 -0.0012  0.0492
18704TIP3    H277604   3.846   3.016  -0.010 -0.6800 -0.1234 -0.0287
18705TIP3   OH277605   3.272   2.507   2.941 -0.6217 -0.2283 -0.2825
18705TIP3    H177606   3.217   2.431   2.922 -1.0055  0.7682 -3.3454
18705TIP3    H277607   3.219   2.560   3.001 -1.4075 -1.1085 -0.1735
18706TIP3   OH277608   2.931   5.592   4.477 -0.1351  0.1807 -0.0467
18706TIP3    H177609   2.940   5.648   4.399 -0.5762 -0.4896 -0.5804
18706TIP3    H277610   2.859   5.631   4.526  0.5988  1.0148  0.3798
18707TIP3   OH277611   0.683   6.405   1.454 -0.5670 -0.7559 -1.1297
18707TIP3    H177612   0.645   6.318   1.465 -0.7728 -0.5304 -0.0469
18707TIP3    H277613   0.776   6.393   1.470 -0.7285 -0.6084 -0.0242
18708TIP3   OH277614   2.233   6.334   5.303 -0.4850  0.2631  0.2263
18708TIP3    H177615   2.195   6.416   5.333  1.6399  0.3133  2.9399
18708TIP3    H277616   2.314   6.325   5.353  0.0487 -2.7815 -1.0627
18709TIP3   OH277617   3.446   3.692   5.329  0.3872 -0.5990  0.2147
18709TIP3    H177618   3.410   3.723   5.246 -0.5100 -1.4053  0.2917
18709TIP3    H277619   3.489   3.610   5.307  2.9439  0.7569 -0.0258
18710TIP3   OH277620   1.119   1.778   5.009 -0.5699  0.0823  0.8137
18710TIP3    H177621   1.146   1.771   4.917 -2.3973 -1.7379  0.3549
18710TIP3    H277622   1.029   1.811   5.005 -1.3413 -1.7830  1.8056
18711TIP3   OH277623   1.942   4.002   4.447 -0.6535  0.4055 -0.0489
18711TIP3    H177624   1.970   3.938   4.382 -0.6841  1.3703 -1.0275
18711TIP3    H277625   2.017   4.011   4.506 -0.8253 -0.8857  0.3972
18712TIP3   OH277626   2.135   0.190   4.279 -0.0303 -0.4366 -0.1836
18712TIP3    H177627   2.088   0.181   4.362 -0.0463  4.1617  0.4057
18712TIP3    H277628   2.075   0.239   4.223  2.4701  2.0366 -0.7524
18713TIP3   OH277629   1.695   0.475   3.841 -0.6275 -0.0153  0.3204
18713TIP3    H177630   1.646   0.547   3.802  0.8178  0.5150 -0.5302
18713TIP3    H277631   1.781   0.512   3.862 -0.3978 -1.0777  1.3178
18714TIP3   OH277632   1.317   1.935   4.447  0.1496 -0.0650  0.1869
18714TIP3    H177633   1.361   1.856   4.480 -1.5149 -0.3294  1.8575
18714TIP3    H277634   1.248   1.902   4.391  2.1163  0.3608 -2.5863
18715TIP3   OH277635   3.122   6.519   3.765  0.6131 -0.5149 -0.4147
18715TIP3    H177636   3.149   6.610   3.756 -1.7084  0.6030  2.7314
18715TIP3    H277637   3.042   6.512   3.713  1.1494 -0.9432 -1.1856
18716TIP3   OH277638   6.502   5.651   4.367  0.3040 -0.3064  0.1470
18716TIP3    H177639   6.486   5.603   4.286 -0.6454 -0.7422  0.5822
18716TIP3    H277640   6.428   5.629   4.423  1.3539 -0.6453  1.4269
18717TIP3   OH277641   3.261   6.522   4.868 -0.0393  0.4073 -0.4066
18717TIP3    H177642   3.320   6.456   4.831  0.0595 -0.4768  1.2808
18717TIP3    H277643   3.174   6.483   4.862  0.1567 -0.3989  1.6723
18718TIP3   OH277644   5.920   4.933   2.920 -0.7864 -0.3985  0.3812
18718TIP3    H177645   5.947   4.959   2.832 -1.2572 -0.9491  0.0776
18718TIP3    H277646   5.977   4.985   2.978  0.9622 -1.5668 -0.2428
18719TIP3   OH277647   3.181   1.495   5.803  0.1209  0.2866  0.1520
18719TIP3    H177648   3.230   1.576   5.820  2.3298 -1.1264  0.6620
18719TIP3    H277649   3.183   1.448   5.886 -0.2348 -0.7679 -0.4313
18720TIP3   OH277650   1.595   5.214   5.420 -0.0424 -0.1237 -0.1242
18720TIP3    H177651   1.687   5.234   5.436  0.3934 -1.5225 -0.8724
18720TIP3    H277652   1.591   5.119   5.415 -1.5652 -0.0881  0.0931
18721TIP3   OH277653   5.789   5.157   5.633  0.0950  0.4238  0.0753
18721TIP3    H177654   5.844   5.110   5.696  0.3266  0.9170  0.2493
18721TIP3    H277655   5.701   5.151   5.668 -0.0045 -0.5561 -0.3128
18722TIP3   OH277656   5.188   4.789   3.617 -0.1929  0.0485  0.5786
18722TIP3    H177657   5.201   4.710   3.564 -2.4383 -0.0427  0.0935
18722TIP3    H277658   5.113   4.768   3.673 -1.8038  2.3146 -0.6160
18723TIP3   OH277659   2.321   6.753   5.903 -0.3764  0.5618 -0.3393
18723TIP3    H177660   2.274   6.834   5.921  0.3512  0.7047  0.9511
18723TIP3    H277661   2.255   6.685   5.913 -0.4257  0.7975  1.0713
18724TIP3   OH277662   5.689   6.161   2.761 -0.3310 -0.6313  0.3440
18724TIP3    H177663   5.737   6.211   2.695 -1.9996  0.2604 -0.2238
18724TIP3    H277664   5.725   6.191   2.844  2.0427 -2.0213 -0.1292
18725TIP3   OH277665   0.102   6.117   4.238 -0.0851 -1.2477  0.3442
18725TIP3    H177666   0.179   6.063   4.251 -0.4833 -1.9131 -0.0484
18725TIP3    H277667   0.084   6.112   4.145 -0.5429 -1.0149  0.4159
18726TIP3   OH277668   7.008   6.427  13.481 -0.3151 -0.0182 -0.3304
18726TIP3    H177669   7.002   6.505  13.427  0.7307 -1.0177 -1.9197
18726TIP3    H277670   7.056   6.456  13.559 -0.5035  1.0572 -0.6001
18727TIP3   OH277671   4.591   2.664   4.953  0.2638  0.2737  0.3648
18727TIP3    H177672   4.504   2.669   4.913  0.5375 -0.6949 -0.3931
18727TIP3    H277673   4.575   2.629   5.041 -0.1360  0.2854  0.3002
18728TIP3   OH277674   4.097   3.447   2.050  0.2914 -0.4726  0.4635
18728TIP3    H177675   4.021   3.497   2.020  1.0307  1.8965  2.3575
18728TIP3    H277676   4.063   3.389   2.118 -0.4639 -2.1949 -1.3316
18729TIP3   OH277677   4.566   6.918   3.867 -0.5024  0.1360  0.5145
18729TIP3    H177678   4.641   6.951   3.817 -0.4907  0.5729  0.8227
18729TIP3    H277679   4.571   6.964   3.951 -3.5142  3.2905 -0.9552
18730TIP3   OH277680   1.753   6.894   4.834 -0.5757 -0.1360  0.1811
18730TIP3    H177681   1.754   6.842   4.915 -0.7378  0.4003  0.5317
18730TIP3    H277682   1.796   6.976   4.858 -0.2513 -0.1390 -0.3926
18731TIP3   OH277683   4.816   0.817   5.813 -0.4384 -0.0115  0.3010
18731TIP3    H177684   4.907   0.830   5.840 -0.1782 -0.2224 -0.4795
18731TIP3    H277685   4.764   0.859   5.882  0.2510  0.1878  0.6982
18732TIP3   OH277686   0.545   4.595   5.468  0.0526  0.0241 -0.5184
18732TIP3    H177687   0.611   4.527   5.481 -1.2570 -1.1109  0.3762
18732TIP3    H277688   0.514   4.581   5.378 -2.6355 -2.8095  0.7800
18733TIP3   OH277689   1.257   2.986   1.827  0.1196 -0.0906 -0.7491
18733TIP3    H177690   1.183   3.012   1.881  1.2286  1.8054 -0.1129
18733TIP3    H277691   1.254   2.890   1.826 -2.2064 -0.0353 -0.5660
18734TIP3   OH277692   2.039   3.096  15.606 -0.4974 -0.4209  0.2480
18734TIP3    H177693   2.072   3.112  15.695  0.4981 -0.5784 -0.0864
18734TIP3    H277694   2.066   3.007  15.586  1.4292  0.4359 -1.1338
18735TIP3   OH277695   1.158   2.413   1.402 -0.2812  0.4744  0.0061
18735TIP3    H177696   1.210   2.417   1.483  1.1321  3.1496 -0.9710
18735TIP3    H277697   1.221   2.390   1.334 -1.1247 -0.0274 -0.6183
18736TIP3   OH277698   1.730   4.980   4.379  0.0346  0.0644  0.1586
18736TIP3    H177699   1.735   5.075   4.377 -1.6053  0.2312  2.0978
18736TIP3    H277700   1.664   4.961   4.446 -0.2897 -2.4114 -0.8137
18737TIP3   OH277701   4.460   4.183   2.378 -0.0578 -0.5427  0.0114
18737TIP3    H177702   4.447   4.164   2.285  0.2919  0.4197 -0.2393
18737TIP3    H277703   4.452   4.278   2.384 -0.0178 -0.6004  0.9596
18738TIP3   OH277704   4.880   4.462   5.167 -0.2432  0.4271 -0.3642
18738TIP3    H177705   4.966   4.478   5.206  0.4113  2.4117 -2.5263
18738TIP3    H277706   4.885   4.373   5.133  0.5503  0.1456  0.4704
18739TIP3   OH277707   0.636   1.626   1.113 -0.0722 -0.6115  0.1495
18739TIP3    H177708   0.695   1.682   1.062  0.3577  0.0685  1.3783
18739TIP3    H277709   0.629   1.669   1.198  0.0783 -2.2939  1.0391
18740TIP3   OH277710   6.829   4.665   1.518 -0.4775 -0.6221  0.0183
18740TIP3    H177711   6.815   4.687   1.427 -0.0096  0.4797  0.2087
18740TIP3    H277712   6.742   4.650   1.553 -0.7319 -0.0038 -0.3486
18741TIP3   OH277713   1.342   4.084   4.695 -0.8394  0.3054  0.3600
18741TIP3    H177714   1.314   4.013   4.752  0.8980  0.2579  1.2052
18741TIP3    H277715   1.267   4.143   4.690 -1.7969 -0.8615  0.8060
18742TIP3   OH277716   3.142   4.604   4.347  0.0809  0.1085  0.0838
18742TIP3    H177717   3.231   4.598   4.313 -0.0052  1.4539 -0.4434
18742TIP3    H277718   3.136   4.694   4.380 -1.3599  0.3175 -0.7212
18743TIP3   OH277719   0.746   1.492   4.954 -0.5460  0.3259 -0.2919
18743TIP3    H177720   0.721   1.399   4.950 -0.4263  0.1896  1.4902
18743TIP3    H277721   0.825   1.492   5.010  0.1774  1.3617 -1.3033
18744TIP3   OH277722   3.569   0.327   4.582 -0.2053  0.2384 -0.1961
18744TIP3    H177723   3.502   0.271   4.542 -2.0791  0.5399  2.3828
18744TIP3    H277724   3.632   0.266   4.618 -0.0602 -0.0939 -0.9895
18745TIP3   OH277725   1.161   0.899   5.138 -0.4567  0.1101  0.0844
18745TIP3    H177726   1.216   0.973   5.111 -0.9026  0.5603  0.4010
18745TIP3    H277727   1.142   0.852   5.057 -2.8364  2.1610 -0.5780
18746TIP3   OH277728   3.734   4.708   1.172 -0.2919 -0.2787  0.0443
18746TIP3    H177729   3.712   4.764   1.097  0.5658 -0.4414 -0.3278
18746TIP3    H277730   3.679   4.631   1.161 -2.3919  0.9999  1.2151
18747TIP3   OH277731   6.988   5.303   4.329  0.0710  0.2460 -0.0836
18747TIP3    H177732   6.951   5.383   4.290 -1.2495 -0.9949 -1.4516
18747TIP3    H277733   6.984   5.318   4.423  0.3762  2.0283 -0.3403
18748TIP3   OH277734   1.770   0.037   5.067 -0.3281 -0.2555  0.5023
18748TIP3    H177735   1.832   0.076   5.129  0.0803 -0.3807  0.1759
18748TIP3    H277736   1.784   0.086   4.986 -0.2451 -0.6806  0.2601
18749TIP3   OH277737   0.171   4.279   4.967 -0.3651 -0.5503 -0.5212
18749TIP3    H177738   0.142   4.246   5.053  2.0798 -1.2934  0.0532
18749TIP3    H277739   0.135   4.217   4.904 -0.3486 -1.2323  0.1371
18750TIP3   OH277740   6.947   1.758   2.611 -0.2832 -0.2118  0.0536
18750TIP3    H177741   6.911   1.679   2.652  0.3029 -0.9786 -0.8788
18750TIP3    H277742   6.941   1.825   2.679 -0.1849 -1.2195  1.0882
18751TIP3   OH277743   2.178   5.954   6.331 -0.2673 -0.0259 -0.2205
18751TIP3    H177744   2.158   6.006   6.253 -0.0703 -0.3183 -0.4660
18751TIP3    H277745   2.094   5.944   6.375 -0.3106  0.4878 -0.1797
18752TIP3   OH277746   0.524   4.998   5.406  0.3429  0.1607 -0.4434
18752TIP3    H177747   0.595   4.938   5.382 -0.0858 -0.6152  0.1879
18752TIP3    H277748   0.460   4.942   5.450 -0.1238  1.0648  0.0318
18753TIP3   OH277749   0.058   4.533   5.017 -0.3260 -0.4942 -0.9815
18753TIP3    H177750   0.081   4.463   4.957 -0.2588 -0.9959 -0.3770
18753TIP3    H277751   0.105   4.511   5.098  0.8479  0.9924 -1.2298
18754TIP3   OH277752   4.967   2.891   2.943  0.1093  0.4101  0.5505
18754TIP3    H177753   4.949   2.983   2.959  0.3767  0.5018  0.3220
18754TIP3    H277754   5.048   2.890   2.892 -0.9285  0.1395 -1.1303
18755TIP3   OH277755   1.154   5.540   1.092  0.5233  0.5258 -0.0555
18755TIP3    H177756   1.244   5.558   1.066  0.2020  1.7939 -0.2899
18755TIP3    H277757   1.101   5.586   1.028 -0.2948  0.3071  0.4618
18756TIP3   OH277758   3.139   3.098   4.051 -0.0124 -0.4791 -0.1673
18756TIP3    H177759   3.107   3.133   4.134  0.9856  0.2068 -0.0610
18756TIP3    H277760   3.067   3.112   3.989 -0.8411 -1.2044  0.6329
18757TIP3   OH277761   2.878   2.908   5.530 -0.2213  1.2113 -0.5165
18757TIP3    H177762   2.909   2.858   5.606 -0.6928 -0.4772 -1.3974
18757TIP3    H277763   2.785   2.922   5.547 -0.7474 -0.7952 -1.6242
18758TIP3   OH277764   0.760   5.027   5.805 -0.5498 -0.0810 -0.1042
18758TIP3    H177765   0.790   5.059   5.720 -0.1732  0.8025  0.3647
18758TIP3    H277766   0.684   5.081   5.825 -0.0245  0.4039  0.5978
18759TIP3   OH277767   2.300   4.647   4.898 -0.0855 -0.0550 -0.2305
18759TIP3    H177768   2.342   4.726   4.864 -1.8803  2.0927  2.3843
18759TIP3    H277769   2.283   4.666   4.990  0.8351 -4.0953  0.8901
18760TIP3   OH277770   4.660   4.266   3.179 -0.2931 -0.3826 -0.4820
18760TIP3    H177771   4.747   4.301   3.199 -1.1467  1.1406  0.7335
18760TIP3    H277772   4.616   4.338   3.133 -1.4408 -0.5179  0.3667
18761TIP3   OH277773   3.637   2.767   4.706  0.1245 -0.3124 -0.5087
18761TIP3    H177774   3.606   2.783   4.795  0.9006 -0.6076 -0.1817
18761TIP3    H277775   3.623   2.851   4.661 -1.1803 -0.4558 -0.3859
18762TIP3   OH277776   3.723   6.522   4.132 -0.4001  0.6850 -0.9906
18762TIP3    H177777   3.641   6.485   4.101 -1.5539  1.3636  1.1551
18762TIP3    H277778   3.759   6.455   4.190 -0.7574  1.4671  0.1451
18763TIP3   OH277779   4.061   1.236   3.661 -0.2526  0.0751  0.2594
18763TIP3    H177780   4.060   1.177   3.586 -1.2716 -0.6655  0.8412
18763TIP3    H277781   3.971   1.269   3.666 -0.3354 -0.3252  1.4941
18764TIP3   OH277782   1.250   1.750   1.559 -0.0790 -0.2704  0.9593
18764TIP3    H177783   1.218   1.776   1.645  0.1817  0.9956  0.6800
18764TIP3    H277784   1.346   1.757   1.567 -0.0787  0.3462  0.4106
18765TIP3   OH277785   1.818   0.687   4.958  0.2875 -0.0212 -0.2465
18765TIP3    H177786   1.825   0.654   5.047  0.8594  0.5100 -0.0928
18765TIP3    H277787   1.872   0.765   4.957 -1.5783  1.2988 -0.4443
18766TIP3   OH277788   2.893   4.585   2.346  0.4480 -0.1716  0.3478
18766TIP3    H177789   2.965   4.530   2.375 -0.1127 -1.6154 -0.8938
18766TIP3    H277790   2.935   4.660   2.303  1.2149 -0.8004 -0.0129
18767TIP3   OH277791   2.410   0.508   2.171 -0.2010  0.1220 -0.7610
18767TIP3    H177792   2.468   0.473   2.104 -1.7748 -1.8744 -1.1508
18767TIP3    H277793   2.376   0.431   2.216 -1.9946  1.2527 -0.0982
18768TIP3   OH277794   6.937   3.155   4.107  0.5908  0.3279  0.1069
18768TIP3    H177795   6.919   3.244   4.139 -1.0554 -0.6295  1.9538
18768TIP3    H277796   6.866   3.136   4.047  1.1195  0.3730 -0.5352
18769TIP3   OH277797   3.189   0.545   2.930  0.1863 -0.4156  0.1409
18769TIP3    H177798   3.101   0.568   2.901  0.4751  0.6276  0.1005
18769TIP3    H277799   3.188   0.558   3.024 -0.4630 -2.8905  0.5139
18770TIP3   OH277800   3.828   5.136   5.616  0.1889  0.1998  0.3929
18770TIP3    H177801   3.748   5.187   5.630  0.3965  0.5370  0.3624
18770TIP3    H277802   3.887   5.165   5.686  0.3493  0.0817  0.3074
18771TIP3   OH277803   3.013   6.384   4.753  0.0502  0.1607 -0.5571
18771TIP3    H177804   3.045   6.318   4.691 -1.5096 -0.1601 -1.0352
18771TIP3    H277805   3.015   6.466   4.703  0.9078  0.2981 -0.3150
18772TIP3   OH277806   0.579   2.621   3.753  0.2635 -0.6923 -0.2456
18772TIP3    H177807   0.666   2.660   3.749  0.3487 -0.7787  0.8507
18772TIP3    H277808   0.556   2.607   3.661  0.5878  1.1480 -0.6428
18773TIP3   OH277809   0.379   3.048   3.345  0.3076 -0.5068  0.2823
18773TIP3    H177810   0.371   3.142   3.358 -0.5365 -0.8967  2.8531
18773TIP3    H277811   0.446   3.021   3.409 -0.9694 -1.9275  1.0522
18774TIP3   OH277812   1.939   5.468   5.070 -0.0296 -0.2404  0.2166
18774TIP3    H177813   1.974   5.399   5.125 -0.5923 -0.1239  0.7286
18774TIP3    H277814   1.856   5.433   5.038 -0.0018 -0.0631 -0.0533
18775TIP3   OH277815   1.164   6.439   2.454  0.1677  0.0254 -0.3017
18775TIP3    H177816   1.252   6.474   2.468  0.4768 -0.8633  0.0150
18775TIP3    H277817   1.112   6.515   2.428  0.8962  0.6599  0.0732
18776TIP3   OH277818   3.069   5.234   5.202  0.3538 -0.3788 -0.0089
18776TIP3    H177819   3.094   5.326   5.208 -1.1622  0.0745 -0.5480
18776TIP3    H277820   3.093   5.208   5.113 -0.0411 -0.2624 -0.1484
18777TIP3   OH277821   3.579   1.491   5.650  0.4997 -0.6510 -0.4355
18777TIP3    H177822   3.541   1.506   5.737  1.2998 -0.9394 -0.0298
18777TIP3    H277823   3.508   1.451   5.599 -0.1100 -0.0604 -0.0515
18778TIP3   OH277824   1.350   4.750   4.865 -0.4251 -0.2830  0.6171
18778TIP3    H177825   1.295   4.822   4.832 -0.5073 -0.3432  0.6226
18778TIP3    H277826   1.288   4.690   4.907 -0.3144 -0.1950  0.8994
18779TIP3   OH277827   3.221   5.989   5.222 -0.3710 -0.1325 -0.0174
18779TIP3    H177828   3.170   5.911   5.244 -1.0528  0.6210  1.0879
18779TIP3    H277829   3.256   6.020   5.306  0.3984  0.4090 -0.5290
18780TIP3   OH277830   4.097   1.972   3.782  0.2418 -0.0933 -0.0640
18780TIP3    H177831   4.160   2.043   3.774 -0.2712  0.3127 -0.4842
18780TIP3    H277832   4.123   1.926   3.862  0.2264  0.8961  0.5135
18781TIP3   OH277833   2.890   2.636   3.536 -0.3195  0.6793 -0.0608
18781TIP3    H177834   2.805   2.618   3.577  0.3453  1.7387  1.8301
18781TIP3    H277835   2.949   2.573   3.574 -0.1867  0.0955 -1.2077
18782TIP3   OH277836   2.900   5.799   3.316  0.3639  0.6959  0.5302
18782TIP3    H177837   2.969   5.855   3.279  0.6993  0.2567  0.4986
18782TIP3    H277838   2.929   5.780   3.405  1.0007 -0.6982  0.0319
18783TIP3   OH277839   1.613   3.927   5.106 -0.0168  0.2622  0.3348
18783TIP3    H177840   1.703   3.959   5.101  0.9925 -2.6996 -2.0328
18783TIP3    H277841   1.564   3.985   5.049  0.8698  0.3900 -0.3033
18784TIP3   OH277842   2.482   5.107   5.980  0.1437 -0.0269 -0.2231
18784TIP3    H177843   2.446   5.189   6.014  0.0703  0.0056 -0.3831
18784TIP3    H277844   2.574   5.108   6.007  0.1904  0.1961 -0.3894
18785TIP3   OH277845   5.383   2.284   1.648  1.0048 -0.3979  0.3421
18785TIP3    H177846   5.471   2.320   1.657  0.7813  0.2848 -0.0710
18785TIP3    H277847   5.325   2.358   1.667  0.5321 -0.4162 -0.9519
18786TIP3   OH277848   4.164   3.438   4.293  0.1228  0.8584 -0.0144
18786TIP3    H177849   4.180   3.365   4.234 -1.7821  0.5401 -0.1608
18786TIP3    H277850   4.189   3.516   4.243 -1.9920  0.6435 -1.4703
18787TIP3   OH277851   3.648   5.338   5.528 -0.1432 -0.1162 -0.4448
18787TIP3    H177852   3.671   5.418   5.480 -1.5952  1.2528  1.0534
18787TIP3    H277853   3.566   5.310   5.488 -0.3593 -0.0560 -0.0458
18788TIP3   OH277854   0.924   6.243   4.292 -0.1279 -0.3970  0.2624
18788TIP3    H177855   1.017   6.262   4.309  0.0247 -0.1868 -0.8020
18788TIP3    H277856   0.882   6.329   4.292  0.0279 -0.3131 -1.3403
18789TIP3   OH277857   3.851   3.223   3.929  0.0115  0.1574 -0.1314
18789TIP3    H177858   3.808   3.247   3.847 -1.1409 -2.0176 -0.2000
18789TIP3    H277859   3.779   3.213   3.991  0.6578 -0.7470  0.4764
18790TIP3   OH277860   4.842   3.184   2.918  0.0982 -0.2124  0.1920
18790TIP3    H177861   4.821   3.272   2.949 -1.1591 -0.1326 -0.8845
18790TIP3    H277862   4.761   3.151   2.880  0.9349 -1.2932 -0.7073
18791TIP3   OH277863   0.797   2.920   5.049  0.2586 -0.2828 -0.2022
18791TIP3    H177864   0.800   2.830   5.018 -2.4198 -1.5709  2.9847
18791TIP3    H277865   0.717   2.957   5.011 -0.6593 -0.4847  1.4721
18792TIP3   OH277866   4.679   1.678   2.208 -0.2530  0.3477  0.9354
18792TIP3    H177867   4.740   1.751   2.200 -0.6078  0.5820  0.3246
18792TIP3    H277868   4.608   1.700   2.147 -0.2759 -0.5849  0.6207
18793TIP3   OH277869   1.610   1.764   5.592  0.1609  0.6159 -0.6376
18793TIP3    H177870   1.598   1.748   5.498  0.4635 -0.3202 -0.5212
18793TIP3    H277871   1.636   1.679   5.628 -0.5310  0.8339  0.3940
18794TIP3   OH277872   4.027   7.043   2.532 -0.1489 -0.2422  0.3152
18794TIP3    H177873   4.037   7.128   2.576 -0.5557  1.7823 -3.2997
18794TIP3    H277874   3.936   7.042   2.503  0.8593 -0.1851 -2.9938
18795TIP3   OH277875   5.912   6.321   3.396  0.0504 -0.2579 -0.1605
18795TIP3    H177876   5.865   6.238   3.400 -2.2308  0.9861  0.0181
18795TIP3    H277877   5.942   6.337   3.485  0.9532 -1.1422 -0.3047
18796TIP3   OH277878   3.422   4.021   4.715  0.5740 -0.0556 -0.1887
18796TIP3    H177879   3.376   3.971   4.647  1.6843  0.2318 -1.1567
18796TIP3    H277880   3.419   4.111   4.685  1.2367  0.0456  0.0424
18797TIP3   OH277881   3.834   6.992   3.643  0.0961  0.3207 -0.1219
18797TIP3    H177882   3.907   6.929   3.649 -0.0234  0.2277  0.3838
18797TIP3    H277883   3.765   6.954   3.698  0.6933  1.8213  1.7089
18798TIP3   OH277884   4.047   5.918   1.657  0.0877  0.1619  0.1897
18798TIP3    H177885   4.008   5.998   1.693  1.7727  0.9480  0.2899
18798TIP3    H277886   4.077   5.869   1.734  1.0947  0.4967  0.0182
18799TIP3   OH277887   5.495   2.101   5.767  0.0396  0.3842  0.1441
18799TIP3    H177888   5.575   2.074   5.811  1.5025  0.1820 -2.5490
18799TIP3    H277889   5.485   2.194   5.790  0.1434  0.0160  1.7582
18800TIP3   OH277890   1.879   5.190   5.957  0.4909  0.1096 -0.1883
18800TIP3    H177891   1.967   5.153   5.963  0.6214  0.4743  0.1499
18800TIP3    H277892   1.822   5.124   5.998  0.5431 -0.3361 -0.8224
18801TIP3   OH277893   2.594   3.729   4.827 -0.1770 -0.6866  0.3574
18801TIP3    H177894   2.545   3.810   4.845 -0.1107 -0.5205 -0.2144
18801TIP3    H277895   2.674   3.738   4.878 -0.7452 -0.9787  1.3369
18802TIP3   OH277896   0.882   1.462   2.136  0.1669 -0.4895  0.1872
18802TIP3    H177897   0.807   1.522   2.129 -0.3162 -0.8313  1.9702
18802TIP3    H277898   0.938   1.502   2.203  1.3412 -0.4997 -0.7752
18803TIP3   OH277899   3.914   2.830   1.798 -0.1198  0.2629  0.0034
18803TIP3    H177900   3.989   2.780   1.764  1.1749  1.6017  0.8859
18803TIP3    H277901   3.880   2.775   1.869 -0.7146 -0.8998 -1.1456
18804TIP3   OH277902   1.854   2.445   0.423 -0.4796 -0.8199  0.3030
18804TIP3    H177903   1.813   2.404   0.499  1.1855 -1.3128  0.9602
18804TIP3    H277904   1.934   2.484   0.457  0.5532 -1.4830 -1.2982
18805TIP3   OH277905   2.063   2.846   2.108 -0.1663  0.2500  0.2450
18805TIP3    H177906   2.023   2.933   2.117 -0.3937  0.2796 -0.9620
18805TIP3    H277907   2.157   2.862   2.105 -0.2159  0.4706 -0.1312
18806TIP3   OH277908   2.626   6.148   5.280 -0.0081 -0.0565 -0.3530
18806TIP3    H177909   2.663   6.109   5.359  1.5762  0.3635 -0.8754
18806TIP3    H277910   2.603   6.237   5.305  0.6518  0.1306 -0.4127
18807TIP3   OH277911   3.442   2.238   4.246 -0.2421  0.1834  0.0133
18807TIP3    H177912   3.356   2.201   4.230  0.2703 -0.6214 -0.9211
18807TIP3    H277913   3.497   2.205   4.175  0.8732  0.5815  0.6638
18808TIP3   OH277914   3.817   0.395   5.114 -0.4092 -0.3191 -0.1137
18808TIP3    H177915   3.831   0.418   5.022 -0.5639  1.5243  0.3149
18808TIP3    H277916   3.746   0.331   5.112 -0.7202  0.0518 -1.2366
18809TIP3   OH277917   5.018   1.889   4.954  0.4058  0.0971  0.1825
18809TIP3    H177918   4.932   1.925   4.975  0.4529 -0.1928  0.8707
18809TIP3    H277919   5.071   1.906   5.032  0.4875 -1.2865  0.4387
18810TIP3   OH277920   0.495   3.236   4.912  0.2462  0.0586 -0.0954
18810TIP3    H177921   0.440   3.198   4.981  0.1096  1.0355  0.3347
18810TIP3    H277922   0.432   3.275   4.850  0.4165  0.2293 -0.1588
18811TIP3   OH277923   2.734   6.957   3.890 -0.8493  0.1299  0.0058
18811TIP3    H177924   2.785   6.886   3.852 -0.2914 -0.8783  2.5162
18811TIP3    H277925   2.748   7.032   3.831  0.2136 -1.2586 -1.5335
18812TIP3   OH277926   4.011   1.522   3.771 -0.0172 -0.1838 -0.3426
18812TIP3    H177927   4.034   1.582   3.700 -0.7050 -0.6338 -0.9455
18812TIP3    H277928   4.019   1.435   3.733 -1.9014 -0.3863 -0.3432
18813TIP3   OH277929   3.646   5.540   1.359 -0.6681  0.5427 -0.0130
18813TIP3    H177930   3.572   5.520   1.302 -0.8361 -0.8460  0.6743
18813TIP3    H277931   3.626   5.627   1.394 -1.4093  0.6644 -0.7194
18814TIP3   OH277932   6.795   4.333   3.972 -0.4560 -0.1346 -0.1272
18814TIP3    H177933   6.838   4.384   3.904  0.6908  0.5116  1.0469
18814TIP3    H277934   6.834   4.246   3.966  0.4861  0.2380  0.4295
18815TIP3   OH277935   2.928   5.259   4.487  0.5410 -0.1978  0.0454
18815TIP3    H177936   2.976   5.277   4.406  2.5825 -3.9926  0.3109
18815TIP3    H277937   2.898   5.346   4.517  1.5827  1.5055 -3.5828
18816TIP3   OH277938   2.701   5.706   4.558 -0.0465  0.1195 -0.3143
18816TIP3    H177939   2.678   5.799   4.551  0.7143  0.3400  0.0628
18816TIP3    H277940   2.631   5.668   4.612  1.5324  1.2098  2.6231
18817TIP3   OH277941   1.087   1.437   3.940 -0.2555 -0.2637  0.7390
18817TIP3    H177942   1.038   1.510   3.977 -0.9723 -0.6725  0.5972
18817TIP3    H277943   1.024   1.391   3.885 -0.0766 -1.5388  1.5651
18818TIP3   OH277944   1.263   5.369   4.000 -0.5938  0.1657 -0.2378
18818TIP3    H177945   1.309   5.319   4.067 -1.4830 -0.1002  0.1768
18818TIP3    H277946   1.331   5.425   3.961 -0.0255  0.1569  0.7203
18819TIP3   OH277947   3.728   3.625   5.032 -0.3320  0.8652 -0.2515
18819TIP3    H177948   3.634   3.625   5.051 -0.3377 -0.9264 -0.1214
18819TIP3    H277949   3.745   3.710   4.992 -1.4727  2.3258  2.2236
18820TIP3   OH277950   1.105   3.300   2.538  0.5230  0.5309  0.0794
18820TIP3    H177951   1.025   3.352   2.554  1.2523  1.1932  1.6488
18820TIP3    H277952   1.073   3.210   2.529 -0.7996  1.2337 -2.9910
18821TIP3   OH277953   1.381   5.354   4.875  0.2429 -0.1707  0.1244
18821TIP3    H177954   1.457   5.330   4.822 -0.8704 -0.3330 -1.4576
18821TIP3    H277955   1.401   5.441   4.908  1.5957 -0.6743  0.6429
18822TIP3   OH277956   4.613   5.881   1.651 -0.0493 -0.1723  0.4712
18822TIP3    H177957   4.691   5.846   1.608 -0.8557 -1.6274  0.1744
18822TIP3    H277958   4.646   5.954   1.704  1.1671  0.7603 -1.4930
18823TIP3   OH277959   3.296   1.986   2.950  0.1451 -0.0787  0.3946
18823TIP3    H177960   3.388   2.006   2.967 -0.0842  0.6670  0.7778
18823TIP3    H277961   3.250   2.020   3.026 -0.5576  0.4162 -0.2510
18824TIP3   OH277962   0.571   1.432   3.273 -0.6427  0.5724  0.2975
18824TIP3    H177963   0.563   1.521   3.305  0.6023  0.6676  0.3652
18824TIP3    H277964   0.533   1.378   3.342  0.8628  0.8697  1.3722
18825TIP3   OH277965   4.648   6.547   5.355  0.1045 -0.0399  0.1992
18825TIP3    H177966   4.611   6.632   5.379  1.5634  1.5491 -2.8136
18825TIP3    H277967   4.728   6.541   5.407 -1.1979 -0.7004  2.1827
18826TIP3   OH277968   2.034   5.096   4.192  0.4308 -0.2085 -0.3637
18826TIP3    H177969   2.047   5.051   4.275  2.8689  1.2783  0.0899
18826TIP3    H277970   2.036   5.189   4.214 -2.5915  0.2124 -1.5688
18827TIP3   OH277971   2.392   6.299   5.522 -0.5972 -0.1302 -0.0691
18827TIP3    H177972   2.451   6.351   5.577 -0.3208 -0.2166 -0.2789
18827TIP3    H277973   2.305   6.316   5.557 -0.2572 -1.6733  1.5928
18828TIP3   OH277974   1.017   2.981   5.227 -0.2972 -0.4519 -0.0887
18828TIP3    H177975   0.941   2.950   5.177 -1.4091 -0.2456  1.4035
18828TIP3    H277976   1.036   3.068   5.191 -0.9942 -0.3610 -0.2485
18829TIP3   OH277977   4.138   1.335   0.780 -0.4813  0.6069 -0.8825
18829TIP3    H177978   4.071   1.267   0.789 -1.0634  0.7934 -3.4847
18829TIP3    H277979   4.123   1.393   0.855 -0.2650 -1.8326  1.1197
18830TIP3   OH277980   0.146   1.517   4.490  0.0201 -0.2509 -0.7498
18830TIP3    H177981   0.055   1.538   4.513  0.5038  1.5983 -0.4766
18830TIP3    H277982   0.185   1.601   4.468  0.9553 -1.3787 -3.5627
18831TIP3   OH277983   3.198   5.201   4.587 -0.3796  0.3552 -0.3794
18831TIP3    H177984   3.105   5.205   4.563 -0.1330  1.0921 -1.2602
18831TIP3    H277985   3.228   5.292   4.582  0.6031  0.0054 -0.9738
18832TIP3   OH277986   5.185   0.115   2.910  0.3455  0.1685  0.3003
18832TIP3    H177987   5.101   0.130   2.954  0.6377 -0.6900  1.1829
18832TIP3    H277988   5.161   0.100   2.818 -0.2393  2.2894  0.0951
18833TIP3   OH277989   0.832   4.379   4.595 -0.3855  0.3455 -0.3328
18833TIP3    H177990   0.849   4.403   4.504  0.7381 -0.2727 -0.2974
18833TIP3    H277991   0.901   4.423   4.644  0.2275 -0.9497 -0.0099
18834TIP3   OH277992   5.888   6.977   2.256  0.5778  0.0026 -0.3017
18834TIP3    H177993   5.961   6.932   2.214  1.0550  1.0429 -0.5940
18834TIP3    H277994   5.819   6.979   2.189  0.8632  0.4740 -0.5809
18835TIP3   OH277995   1.747   4.981   3.395  0.1498 -0.1823  0.1843
18835TIP3    H177996   1.752   5.016   3.307  0.0764 -0.8186 -0.0747
18835TIP3    H277997   1.677   4.915   3.391  0.2239 -0.2971  0.6880
18836TIP3   OH277998   2.450   4.765   4.241  0.1479 -0.1552  0.2821
18836TIP3    H177999   2.428   4.782   4.332  1.6012  1.8875  0.2774
18836TIP3    H278000   2.545   4.757   4.240  0.2760  1.2763 -1.2726
18837TIP3   OH278001   7.169   3.944   3.491  0.0955  0.3365  0.5385
18837TIP3    H178002   7.229   3.973   3.423  0.9183 -0.8194  0.7557
18837TIP3    H278003   7.119   4.023   3.514 -0.6564  0.5769 -1.8494
18838TIP3   OH278004   1.522   4.208   5.030  0.5482 -0.0681  0.2139
18838TIP3    H178005   1.450   4.269   5.018  1.6984  1.2913  0.0804
18838TIP3    H278006   1.566   4.237   5.110  1.2813 -0.5460 -0.0089
18839TIP3   OH278007   2.203   5.935   5.371 -0.1418  0.5859  0.0012
18839TIP3    H178008   2.288   5.959   5.408  0.3045  0.5227 -0.9871
18839TIP3    H278009   2.171   6.015   5.330 -1.3517  1.0888  1.8429
18840TIP3   OH278010   3.976   5.983   5.788 -0.3065  0.0232 -0.2981
18840TIP3    H178011   3.935   5.973   5.874  0.1699  2.3891  0.2666
18840TIP3    H278012   4.045   5.917   5.786 -0.8941 -0.6361  0.7996
18841TIP3   OH278013   1.232   6.612   4.597 -0.8738 -0.3924 -0.2002
18841TIP3    H178014   1.253   6.529   4.554 -1.1061 -1.4628  1.6717
18841TIP3    H278015   1.255   6.597   4.689 -2.3504  1.1061  0.4382
18842TIP3   OH278016   1.928   7.042   4.259 -0.3199  0.7589 -0.1776
18842TIP3    H178017   1.984   6.999   4.194  0.0634  0.7624  0.1488
18842TIP3    H278018   1.869   7.097   4.207  0.0524  0.8438 -0.5168
18843TIP3   OH278019   0.745   6.773   5.386 -0.3558 -0.1904 -0.5654
18843TIP3    H178020   0.736   6.714   5.460 -1.9142 -1.1019 -1.4505
18843TIP3    H278021   0.829   6.751   5.347  0.2664 -0.0060  0.6657
18844TIP3   OH278022   2.991   5.779   3.964  0.6066  0.1362  0.9954
18844TIP3    H178023   3.059   5.847   3.964  1.9328 -1.1477  1.5547
18844TIP3    H278024   3.040   5.698   3.976 -1.1337 -0.7251  2.3766
18845TIP3   OH278025   4.161   2.401   2.784  0.2557 -0.1096  0.4175
18845TIP3    H178026   4.122   2.370   2.702 -0.4987  0.5180  0.5320
18845TIP3    H278027   4.254   2.412   2.764  0.0158  0.3459 -0.4425
18846TIP3   OH278028   6.585   2.198   3.247  0.2625 -0.0672  0.1794
18846TIP3    H178029   6.600   2.182   3.341 -1.0863 -1.2831  0.2041
18846TIP3    H278030   6.665   2.169   3.205  0.5672 -0.2628  0.8771
18847TIP3   OH278031   1.272   5.017   4.723 -0.0548 -0.5226  0.1450
18847TIP3    H178032   1.310   5.064   4.797 -0.4570  0.6412 -0.3638
18847TIP3    H278033   1.347   4.983   4.675  0.2882  0.2075  0.1476
18848TIP3   OH278034   3.073   0.389   2.646  0.4331  0.6999 -0.8357
18848TIP3    H178035   3.055   0.364   2.737  0.3799 -1.1604 -1.3409
18848TIP3    H278036   2.997   0.441   2.621 -1.2167 -1.6780 -0.8949
18849TIP3   OH278037   3.525   4.274   5.236 -0.2287 -0.1327 -0.8795
18849TIP3    H178038   3.545   4.366   5.250  0.0930 -0.1825 -1.0121
18849TIP3    H278039   3.585   4.226   5.293 -0.7792 -0.2444 -0.3813
18850TIP3   OH278040   3.027   5.575   6.176 -0.6263  0.2320  0.0626
18850TIP3    H178041   3.042   5.588   6.082 -0.6143 -0.5415 -0.0414
18850TIP3    H278042   2.986   5.489   6.183 -0.6677  0.3028  0.7658
18851TIP3   OH278043   3.018   0.662   1.702 -0.0205 -0.2843  0.5899
18851TIP3    H178044   2.967   0.620   1.771  1.0698 -0.9969  0.9722
18851TIP3    H278045   3.028   0.594   1.635  1.1911 -0.4465  0.9212
18852TIP3   OH278046   4.391   0.960   5.033 -0.2953 -0.6726  0.3349
18852TIP3    H178047   4.368   1.047   5.064  1.7620  0.2266 -0.5397
18852TIP3    H278048   4.345   0.951   4.949  2.4180  1.1353 -1.4424
18853TIP3   OH278049   3.204   2.472   3.862  0.0187 -0.3618 -0.0638
18853TIP3    H178050   3.117   2.448   3.893 -0.0446  1.4971  1.3133
18853TIP3    H278051   3.259   2.470   3.941  0.6568  0.8902 -0.4582
18854TIP3   OH278052   1.081   5.335  15.421 -0.0188  0.4440 -0.1338
18854TIP3    H178053   1.144   5.272  15.388 -0.2281 -1.3626  2.6760
18854TIP3    H278054   1.134   5.407  15.454  0.5705 -0.6090  1.2944
18855TIP3   OH278055   4.561   3.874   4.216 -0.4378  0.0020 -0.0597
18855TIP3    H178056   4.527   3.963   4.220  1.4748  0.7309  0.4689
18855TIP3    H278057   4.544   3.838   4.303  0.1066  0.3477  0.1901
18856TIP3   OH278058   3.444   7.040   1.297 -0.1902  0.1445  0.0033
18856TIP3    H178059   3.362   7.005   1.334 -0.3308  1.1852  0.6922
18856TIP3    H278060   3.510   6.974   1.319 -0.7436 -0.4505 -0.0998
18857TIP3   OH278061   2.974   3.368   4.707  0.1080 -0.8399 -0.3705
18857TIP3    H178062   3.041   3.402   4.766  2.0733 -2.9528 -1.3002
18857TIP3    H278063   2.996   3.407   4.622 -0.1230 -1.1507 -0.5716
18858TIP3   OH278064   5.624   6.199   4.260 -0.3715  0.5896  0.3281
18858TIP3    H178065   5.670   6.192   4.177  0.1283  0.6179  0.6045
18858TIP3    H278066   5.561   6.270   4.246 -2.8104 -1.7492 -1.2195
18859TIP3   OH278067   3.096   2.787   3.423  0.1969 -0.1350  0.5030
18859TIP3    H178068   3.008   2.757   3.445  0.0939 -0.9847 -1.0123
18859TIP3    H278069   3.109   2.761   3.332  1.4377  1.3392  0.2222
18860TIP3   OH278070   3.695   3.937   5.259 -0.3253  0.3303  0.4373
18860TIP3    H178071   3.686   3.964   5.167 -2.4045  0.1730  0.5676
18860TIP3    H278072   3.718   4.017   5.305 -1.1299  0.7886  0.0490
18861TIP3   OH278073   1.772   2.799   2.706 -0.3522 -0.0580 -0.4720
18861TIP3    H178074   1.722   2.742   2.764 -0.9975 -0.5112 -1.4610
18861TIP3    H278075   1.772   2.753   2.622 -1.4534  1.7188 -1.4670
18862TIP3   OH278076   4.363   0.205   5.742 -0.6292  0.1372 -0.4105
18862TIP3    H178077   4.373   0.112   5.721  0.4907  0.3365 -0.8025
18862TIP3    H278078   4.270   0.223   5.729 -0.5004 -0.4485 -2.3293
18863TIP3   OH278079   2.944   4.699   3.641  0.0811 -0.1655  0.3873
18863TIP3    H178080   2.898   4.772   3.600  1.3025  0.1629 -0.4293
18863TIP3    H278081   2.881   4.627   3.638 -1.3626  0.9976  1.7687
18864TIP3   OH278082   4.310   5.962   5.431 -0.6054  0.6973 -0.0859
18864TIP3    H178083   4.249   5.896   5.464 -1.7999  1.9978  0.3841
18864TIP3    H278084   4.287   6.041   5.480  2.4415  0.8678  1.1929
18865TIP3   OH278085   5.835   3.281   3.548 -0.0766  0.2398  0.0407
18865TIP3    H178086   5.771   3.340   3.509 -1.2407 -0.3271  1.0807
18865TIP3    H278087   5.914   3.334   3.557 -0.8891  1.4180  0.2816
18866TIP3   OH278088   1.558   3.090   1.437 -0.0962 -0.5800 -0.0310
18866TIP3    H178089   1.622   3.141   1.487 -0.7571  2.1747 -1.8551
18866TIP3    H278090   1.477   3.143   1.442 -1.2738 -2.2859 -0.6233
18867TIP3   OH278091   7.003   0.800   3.788  0.6094 -0.4658 -0.3705
18867TIP3    H178092   7.060   0.723   3.786  1.2409  0.0361 -3.0485
18867TIP3    H278093   6.916   0.766   3.770  0.5857 -0.7712  0.2874
18868TIP3   OH278094   4.041   1.529   2.849 -0.1683 -0.2430 -0.1538
18868TIP3    H178095   4.007   1.597   2.907 -0.6058 -0.4976 -0.1085
18868TIP3    H278096   3.991   1.450   2.872  1.7876 -1.1032  1.2460
18869TIP3   OH278097   2.609   3.908   6.019 -0.3688  0.0756 -0.1668
18869TIP3    H178098   2.697   3.935   6.045 -0.2803  0.9905 -1.3726
18869TIP3    H278099   2.564   3.990   5.999 -1.8070 -0.3161  1.3860
18870TIP3   OH278100   3.748   6.600   2.473 -0.2465  0.7357  0.4948
18870TIP3    H178101   3.665   6.566   2.439  1.1004 -0.9234 -1.2406
18870TIP3    H278102   3.758   6.558   2.559  0.0271 -1.1249 -0.4130
18871TIP3   OH278103   2.499   4.934   3.832  0.5106  0.3006  1.4138
18871TIP3    H178104   2.486   4.851   3.787 -0.4925  0.9582  0.4502
18871TIP3    H278105   2.446   4.996   3.782  1.9098  1.6843  1.6118
18872TIP3   OH278106   2.105   5.324   3.947  0.3235  0.1219  0.3516
18872TIP3    H178107   2.060   5.247   3.914 -0.0793  0.3889  0.2678
18872TIP3    H278108   2.196   5.297   3.958  0.1777 -0.3660  0.3408
18873TIP3   OH278109   2.624   0.092   2.241 -0.4151  0.1756 -0.2272
18873TIP3    H178110   2.696   0.071   2.181  0.1435 -1.0294  0.8329
18873TIP3    H278111   2.634   0.185   2.259  1.4337 -0.1661  0.6124
18874TIP3   OH278112   6.922   2.252   5.243 -0.7562  0.1658  0.1942
18874TIP3    H178113   6.942   2.294   5.160 -2.7271 -1.0242 -0.9014
18874TIP3    H278114   6.978   2.297   5.307  0.2656  1.5359 -1.6425
18875TIP3   OH278115   0.242   6.187   4.859 -0.2356  0.1803  0.3623
18875TIP3    H178116   0.175   6.256   4.853  0.4633  0.8729  0.3863
18875TIP3    H278117   0.255   6.174   4.952 -0.8920 -0.5045  0.3590
18876TIP3   OH278118   3.378   4.332   2.407 -0.1053  0.5071  0.4940
18876TIP3    H178119   3.341   4.249   2.436 -3.2478  1.0625 -1.7055
18876TIP3    H278120   3.464   4.309   2.371 -0.5969 -1.6524  0.6517
18877TIP3   OH278121   1.819   4.978   4.067 -0.3364 -0.0439  0.6084
18877TIP3    H178122   1.894   5.027   4.102  0.5226 -1.2418  0.4571
18877TIP3    H278123   1.749   4.994   4.131  0.2371  0.5270  1.1106
18878TIP3   OH278124   5.363   6.209   3.688  0.2868 -0.5936 -0.7934
18878TIP3    H178125   5.441   6.249   3.648 -0.5057  0.2273 -1.5454
18878TIP3    H278126   5.291   6.268   3.665 -0.5053 -1.1383  0.2271
18879TIP3   OH278127   2.224   2.541   6.337 -0.4385  0.3087  0.7507
18879TIP3    H178128   2.299   2.553   6.395  0.3865 -0.6199 -0.1049
18879TIP3    H278129   2.239   2.456   6.295 -2.2404 -0.1355  0.9586
18880TIP3   OH278130   0.334   2.365   3.177 -0.0040  0.1568  0.1841
18880TIP3    H178131   0.363   2.310   3.249  0.6321  0.8277  0.4400
18880TIP3    H278132   0.333   2.307   3.101 -0.4112 -0.4816  0.6683
18881TIP3   OH278133   6.736   3.212   3.690 -0.0218 -0.3180  0.3877
18881TIP3    H178134   6.770   3.123   3.680  0.2439 -0.2034  0.2648
18881TIP3    H278135   6.738   3.249   3.602 -1.7907 -0.7796  0.1337
18882TIP3   OH278136   5.286   5.980   2.642 -0.4422  0.5837 -0.2392
18882TIP3    H178137   5.377   5.955   2.654 -0.3759  0.9447 -0.0113
18882TIP3    H278138   5.288   6.051   2.578 -0.5407  0.7733 -0.0329
18883TIP3   OH278139   4.959   6.169   3.098 -0.0674 -0.0437  0.2420
18883TIP3    H178140   4.980   6.145   3.188 -2.6000 -2.7707  0.1862
18883TIP3    H278141   5.001   6.101   3.045 -0.9548 -0.0586 -0.4451
18884TIP3   OH278142   5.652   4.834   5.391 -0.0438 -0.3618  0.0902
18884TIP3    H178143   5.714   4.773   5.431  0.4129  0.5323  0.7811
18884TIP3    H278144   5.702   4.878   5.322 -0.0751 -0.0500  0.2645
18885TIP3   OH278145   5.347   7.190   4.593  0.7104  0.1150 -0.1359
18885TIP3    H178146   5.385   7.192   4.680  0.9336 -0.5240 -0.2187
18885TIP3    H278147   5.340   7.097   4.571  0.6118  0.2676 -0.7786
18886TIP3   OH278148   0.737   4.757   5.773 -0.5699 -0.2075 -0.1687
18886TIP3    H178149   0.741   4.849   5.799  0.4590 -1.0592  2.8820
18886TIP3    H278150   0.643   4.739   5.763 -0.8527  0.8571  0.4724
18887TIP3   OH278151   1.592   0.636   4.079 -0.2496  0.6198 -0.0311
18887TIP3    H178152   1.547   0.699   4.024  1.3692  1.4234 -0.4703
18887TIP3    H278153   1.568   0.661   4.169 -1.6956  0.2214 -0.2902
18888TIP3   OH278154   6.876   1.547   5.016  0.1567 -0.0826 -0.3594
18888TIP3    H178155   6.870   1.642   5.022  3.4426  0.1245  0.1714
18888TIP3    H278156   6.889   1.529   4.923  2.2792  0.1763 -0.1186
18889TIP3   OH278157   0.864   5.703   2.343 -0.3960 -1.0125  0.0879
18889TIP3    H178158   0.885   5.720   2.435  0.2505 -0.1481 -0.2086
18889TIP3    H278159   0.809   5.777   2.317 -0.7951 -1.3897 -0.1587
18890TIP3   OH278160   3.618   5.222   5.869 -0.4219  0.2323  0.2606
18890TIP3    H178161   3.574   5.175   5.799 -0.3044  0.8963 -0.2596
18890TIP3    H278162   3.614   5.314   5.843  1.3269  0.2930  0.1775
18891TIP3   OH278163   4.128   0.003   2.741  0.0544 -0.3715  0.3521
18891TIP3    H178164   4.212  -0.042   2.743  1.4604  2.1498  0.0295
18891TIP3    H278165   4.119   0.041   2.829  0.0254  0.7269 -0.1194
18892TIP3   OH278166   2.627   4.266   4.055 -0.0079  0.4167 -0.4174
18892TIP3    H178167   2.686   4.320   4.003 -0.2654  1.9660  0.8406
18892TIP3    H278168   2.647   4.176   4.030  1.7693  1.0022 -1.1559
18893TIP3   OH278169   5.024   3.482   2.490  0.3815 -0.0402  0.4218
18893TIP3    H178170   5.109   3.525   2.482  0.6735 -0.6536  0.1783
18893TIP3    H278171   5.028   3.438   2.575  0.4723 -0.4096  0.2302
18894TIP3   OH278172   1.054   5.263   5.832  0.0209 -0.3015  0.2969
18894TIP3    H178173   1.029   5.176   5.866 -3.5167  0.3953 -0.2947
18894TIP3    H278174   0.988   5.282   5.765  0.4425  3.0775  0.7767
18895TIP3   OH278175   4.060   0.614   6.122 -0.2795 -0.2706 -0.3976
18895TIP3    H178176   4.050   0.533   6.172  0.0188 -0.6644 -0.9716
18895TIP3    H278177   4.114   0.590   6.047  1.1888  0.8151  0.2640
18896TIP3   OH278178   1.277   6.340   2.201  0.1088 -0.5470  0.3101
18896TIP3    H178179   1.355   6.396   2.195 -0.1939 -0.2218 -0.7337
18896TIP3    H278180   1.229   6.375   2.277 -1.0486  1.8979 -1.4682
18897TIP3   OH278181   1.513   1.515   4.265 -0.1296  0.2521 -0.0089
18897TIP3    H178182   1.427   1.506   4.307 -0.1752  0.0177 -0.1515
18897TIP3    H278183   1.522   1.609   4.248 -1.5572 -0.0177 -2.4941
18898TIP3   OH278184   3.643   2.571   3.594 -0.2043 -0.3292  0.1673
18898TIP3    H178185   3.720   2.547   3.544 -0.4330  0.3825 -0.5331
18898TIP3    H278186   3.621   2.659   3.564  0.5637  0.7457  2.6161
18899TIP3   OH278187   3.104   6.536   2.302  0.6251  0.6597  0.0173
18899TIP3    H178188   3.052   6.586   2.239  0.6919  0.9285  0.1725
18899TIP3    H278189   3.110   6.448   2.264  0.4959  0.7653 -0.2521
18900TIP3   OH278190   1.928   4.731   5.910  0.5226  0.1819 -0.4527
18900TIP3    H178191   1.845   4.684   5.912  1.0907 -0.8354 -0.4732
18900TIP3    H278192   1.917   4.797   5.842  0.2077 -0.8271 -1.3918
18901TIP3   OH278193   3.728   4.915   0.379  0.1849  0.2784 -0.2647
18901TIP3    H178194   3.675   4.877   0.449 -4.7032  1.1904 -3.1789
18901TIP3    H278195   3.731   5.009   0.400  0.5775  0.2427 -0.1595
18902TIP3   OH278196   3.713   4.120   4.620  0.7323  0.0379 -0.4160
18902TIP3    H178197   3.635   4.123   4.565  0.9553  0.2066 -0.7221
18902TIP3    H278198   3.693   4.179   4.693  0.5860  0.1022 -0.5091
18903TIP3   OH278199   0.708   1.904   4.654  0.1363  0.5273  0.1833
18903TIP3    H178200   0.766   1.961   4.704 -1.1726 -1.3489  4.0362
18903TIP3    H278201   0.641   1.963   4.618  0.0286  1.7381  2.2999
18904TIP3   OH278202   2.551   2.575   4.784 -0.7102 -0.1988 -0.0575
18904TIP3    H178203   2.551   2.652   4.841  0.9484 -0.9102  0.9491
18904TIP3    H278204   2.531   2.609   4.697  2.1173  1.7382 -0.0380
18905TIP3   OH278205   2.165   5.146   5.828  0.9317  0.3889  0.2618
18905TIP3    H178206   2.158   5.147   5.923 -0.0229  1.0589  0.1914
18905TIP3    H278207   2.165   5.239   5.803 -1.6167  0.2083 -0.5704
18906TIP3   OH278208   6.991   2.429   4.424  0.5464 -0.3701  0.3426
18906TIP3    H178209   6.932   2.355   4.443 -0.1692  0.6463  2.3068
18906TIP3    H278210   7.045   2.437   4.503  0.0708  1.6698  0.5073
18907TIP3   OH278211   4.259   0.163   5.315 -0.7667 -0.2600 -0.4612
18907TIP3    H178212   4.353   0.172   5.332 -0.5785 -0.8579 -1.1574
18907TIP3    H278213   4.252   0.085   5.260 -1.7177 -0.4796 -0.0309
18908TIP3   OH278214   2.248   1.414   3.743  0.8298 -0.2107  0.4362
18908TIP3    H178215   2.200   1.440   3.664  1.7072 -0.1695 -0.0850
18908TIP3    H278216   2.297   1.492   3.768  0.3932 -0.1599  1.1459
18909TIP3   OH278217   5.901   2.530   4.592  0.2212 -0.4739 -0.6807
18909TIP3    H178218   5.972   2.555   4.651  1.8881 -1.3151 -2.3058
18909TIP3    H278219   5.843   2.477   4.647  0.1213  1.2937  1.0021
18910TIP3   OH278220   0.000   1.430   3.382  0.1609 -0.0019  0.0454
18910TIP3    H178221  -0.064   1.487   3.340 -0.6144 -0.0534  1.1557
18910TIP3    H278222  -0.048   1.388   3.453  0.9755 -1.3201 -0.1668
18911TIP3   OH278223   2.658   1.276   4.813  0.3415  0.2368 -0.2144
18911TIP3    H178224   2.720   1.250   4.744 -0.2683 -0.0777 -0.6501
18911TIP3    H278225   2.644   1.196   4.864 -0.7162 -0.0394 -0.9135
18912TIP3   OH278226   5.462   2.392   5.716  0.3619 -0.3776  0.3340
18912TIP3    H178227   5.383   2.441   5.737 -0.2534 -0.6825 -1.2220
18912TIP3    H278228   5.499   2.436   5.640  1.3018 -0.6732  0.6038
18913TIP3   OH278229   1.582   4.139   2.399  0.0938  0.3003  0.8850
18913TIP3    H178230   1.653   4.096   2.351  0.3647  2.1717 -0.4394
18913TIP3    H278231   1.508   4.137   2.337  0.0058  1.4177  0.9565
18914TIP3   OH278232   4.301   4.688   1.993 -0.0378 -0.7799 -0.0181
18914TIP3    H178233   4.286   4.698   1.899 -1.7578  1.5961  0.4610
18914TIP3    H278234   4.216   4.706   2.033  1.5394  2.2152  2.1854
18915TIP3   OH278235   5.092   4.245   4.118  0.0579 -0.2565 -0.4530
18915TIP3    H178236   5.139   4.226   4.200  1.3870  0.7716 -0.9564
18915TIP3    H278237   5.029   4.313   4.142  0.0960 -0.3157 -0.1796
18916TIP3   OH278238   6.831   1.799   2.127  0.1636  0.3169 -0.1016
18916TIP3    H178239   6.832   1.804   2.222 -0.8399 -0.2081 -0.0573
18916TIP3    H278240   6.901   1.737   2.105 -0.8954 -1.0960  0.4107
18917TIP3   OH278241   4.001   2.590   3.682 -1.0182 -0.3947  0.1036
18917TIP3    H178242   3.964   2.501   3.685 -1.8860 -0.0670 -0.6737
18917TIP3    H278243   4.078   2.582   3.625 -1.7863 -0.4172 -0.9585
18918TIP3   OH278244   4.280   4.777   3.838  0.0029  0.6568 -0.0039
18918TIP3    H178245   4.223   4.778   3.914 -0.2242  0.2167 -0.1676
18918TIP3    H278246   4.242   4.840   3.778  0.5306  1.4595  0.5004
18919TIP3   OH278247   1.609   5.223   4.758 -0.8435 -0.0004 -0.3584
18919TIP3    H178248   1.637   5.132   4.773 -0.9478 -0.0766 -0.6349
18919TIP3    H278249   1.590   5.228   4.665 -2.7816 -0.2289  0.0118
18920TIP3   OH278250   2.565   3.199   4.505 -0.0397 -0.0684 -0.1440
18920TIP3    H178251   2.605   3.286   4.501  0.1775 -0.1600 -0.0132
18920TIP3    H278252   2.640   3.139   4.502  0.2221 -0.2036  4.3805
18921TIP3   OH278253   4.408   4.565   5.228 -0.0393  0.7697 -0.0972
18921TIP3    H178254   4.317   4.552   5.202 -0.0105  2.3743 -1.1065
18921TIP3    H278255   4.458   4.557   5.147  0.8067 -0.8368  0.5710
18922TIP3   OH278256   3.381   3.548   4.416 -0.2296  0.6250 -0.1690
18922TIP3    H178257   3.407   3.640   4.417 -1.4397  0.9845  1.2427
18922TIP3    H278258   3.455   3.501   4.455 -1.1254  1.5008  2.7653
18923TIP3   OH278259   4.660   6.474   2.289  0.0419 -0.3839 -0.0089
18923TIP3    H178260   4.689   6.442   2.203  0.0282 -2.3898  0.7013
18923TIP3    H278261   4.736   6.462   2.346  0.0862  1.0464  0.2526
18924TIP3   OH278262   6.018   5.340   3.696  0.4805 -0.0032 -0.0456
18924TIP3    H178263   5.987   5.349   3.606 -0.3569 -0.5957  0.1848
18924TIP3    H278264   6.086   5.272   3.691  1.2278  0.7577 -0.4147
18925TIP3   OH278265   5.005   3.773   5.155  0.0551  0.1588  0.0877
18925TIP3    H178266   5.033   3.855   5.113 -1.5718  0.9336  0.4892
18925TIP3    H278267   4.982   3.799   5.244  1.6705 -1.1459  0.9054
18926TIP3   OH278268   4.138   6.799   3.434 -0.1362  0.2446  0.0722
18926TIP3    H178269   4.221   6.847   3.434  0.1914 -0.3155  0.0460
18926TIP3    H278270   4.083   6.846   3.372  0.2202  0.5220 -0.0375
18927TIP3   OH278271   3.640   4.560   5.853 -0.2187 -0.2881  0.5255
18927TIP3    H178272   3.668   4.468   5.856  0.9442  0.0360  0.0961
18927TIP3    H278273   3.547   4.556   5.829 -0.4160 -1.3854  1.4115
18928TIP3   OH278274   6.709   0.241   3.501 -0.7327  0.1166 -0.3759
18928TIP3    H178275   6.795   0.284   3.502 -1.3769  1.4425 -0.6682
18928TIP3    H278276   6.709   0.189   3.421  0.1979 -0.7330  0.1620
18929TIP3   OH278277   4.782   0.405   5.449  0.1040 -0.0282  0.3797
18929TIP3    H178278   4.752   0.461   5.521  0.3907  0.1174  0.3838
18929TIP3    H278279   4.866   0.442   5.422 -1.4278  1.7941 -2.0732
18930TIP3   OH278280   0.518   1.638   1.842 -0.4194  1.1290  0.2787
18930TIP3    H178281   0.583   1.630   1.773 -0.3774  0.5309  0.3860
18930TIP3    H278282   0.451   1.696   1.805 -1.3538 -0.7025 -0.9976
18931TIP3   OH278283   7.083   2.528   4.190  0.3926  0.0474 -0.6309
18931TIP3    H178284   7.056   2.472   4.262  0.4330  1.0656  0.1974
18931TIP3    H278285   7.155   2.482   4.148  0.5584 -0.4137  0.1589
18932TIP3   OH278286   6.505   4.592   3.052 -0.0228 -0.0422  0.0790
18932TIP3    H178287   6.583   4.622   3.006  0.3339  0.6429  1.1224
18932TIP3    H278288   6.537   4.525   3.112 -0.4484 -0.7209 -0.4282
18933TIP3   OH278289   4.209   3.331   5.084 -0.5545 -0.2758 -0.3414
18933TIP3    H178290   4.227   3.289   5.168 -0.8241  0.6881  0.2024
18933TIP3    H278291   4.120   3.364   5.091 -0.1839  0.8095 -0.5759
18934TIP3   OH278292   5.270   4.904   5.045 -0.0211  0.0283 -0.3554
18934TIP3    H178293   5.195   4.888   4.988  0.4883  0.4981 -1.1642
18934TIP3    H278294   5.256   4.993   5.078  0.0877  0.0427 -0.3515
18935TIP3   OH278295   5.053   3.657  15.148  0.0757  0.0852  0.3269
18935TIP3    H178296   5.050   3.562  15.150 -1.0638  0.0878 -0.7718
18935TIP3    H278297   5.018   3.681  15.062  1.0330  1.4679  0.2996
18936TIP3   OH278298   4.140   4.669   5.133 -0.1943  0.1313 -0.4758
18936TIP3    H178299   4.082   4.658   5.209 -0.7688 -1.9409 -1.1943
18936TIP3    H278300   4.174   4.758   5.142 -0.1986 -0.1044  2.2608
18937TIP3   OH278301   6.735   4.575  15.534 -0.3550 -0.4271  0.1610
18937TIP3    H178302   6.776   4.488  15.534 -0.2194 -0.3629  0.0540
18937TIP3    H278303   6.642   4.557  15.521 -0.0367 -0.4140 -2.4538
18938TIP3   OH278304   2.803   2.042   3.514  0.3464  0.2334 -0.0673
18938TIP3    H178305   2.792   1.967   3.455  1.2112  0.3804 -0.4193
18938TIP3    H278306   2.813   2.003   3.601 -1.7417  0.0432  0.1183
18939TIP3   OH278307   5.783   6.401   5.195 -0.1134  0.5005 -0.3546
18939TIP3    H178308   5.852   6.451   5.239 -0.7373 -0.2560  1.5653
18939TIP3    H278309   5.830   6.331   5.148  0.5366  0.9707 -0.4080
18940TIP3   OH278310   3.362   4.866   5.371  0.8193  0.2030  0.0305
18940TIP3    H178311   3.373   4.808   5.295  0.8303 -0.6750  0.6940
18940TIP3    H278312   3.405   4.820   5.443 -2.6623 -0.9094  1.5015
18941TIP3   OH278313   3.440   6.596   2.190 -0.5870 -0.4410 -0.0354
18941TIP3    H178314   3.417   6.688   2.197  0.1622 -0.2331 -0.2161
18941TIP3    H278315   3.477   6.587   2.102  2.5508 -0.1499  1.1700
18942TIP3   OH278316   5.223   6.886   4.729  0.4441 -0.1007  0.3983
18942TIP3    H178317   5.133   6.905   4.755  0.1951  1.8857 -1.7949
18942TIP3    H278318   5.219   6.877   4.634  2.4491 -0.7429  0.3545
18943TIP3   OH278319   0.206   6.985   5.651 -0.1368  0.0195 -0.2068
18943TIP3    H178320   0.188   6.894   5.672  1.3562 -0.3601 -0.4795
18943TIP3    H278321   0.146   7.035   5.706 -1.5766 -1.1369 -0.6907
18944TIP3   OH278322   6.848   5.986   4.769 -0.6163 -0.2279 -0.0377
18944TIP3    H178323   6.820   5.962   4.857 -1.2662 -0.2675 -0.2570
18944TIP3    H278324   6.935   5.946   4.761 -1.7155 -2.6561 -0.4319
18945TIP3   OH278325   4.852   3.410   4.303  0.4517  0.6348 -1.0728
18945TIP3    H178326   4.923   3.361   4.344  0.6030  1.5508 -0.2099
18945TIP3    H278327   4.883   3.501   4.303 -2.0226  1.5879  2.3388
18946TIP3   OH278328   1.819   3.055   3.021 -0.4983 -0.2888  0.3801
18946TIP3    H178329   1.793   3.042   2.930 -0.8101 -0.0776  0.4411
18946TIP3    H278330   1.867   3.137   3.021 -1.6620  0.3974  0.6457
18947TIP3   OH278331   0.412   6.292   3.153  0.1103  0.0359  0.3657
18947TIP3    H178332   0.482   6.243   3.111 -0.1530  1.5267 -1.9376
18947TIP3    H278333   0.457   6.354   3.211  0.6512  0.1020 -0.1195
18948TIP3   OH278334   4.761   5.542   3.599  0.6036  0.1503  0.2681
18948TIP3    H178335   4.851   5.553   3.568  0.6057 -1.1195 -0.1893
18948TIP3    H278336   4.721   5.482   3.537 -0.6554  0.9115  0.3139
18949TIP3   OH278337   5.843   6.703   2.391  0.0058  0.0151  0.1327
18949TIP3    H178338   5.811   6.776   2.444  0.6926 -0.0652  0.6724
18949TIP3    H278339   5.936   6.696   2.414  0.6895  0.9408 -2.1926
18950TIP3   OH278340   6.526   2.666   4.288  0.4340  0.1281  0.0807
18950TIP3    H178341   6.500   2.596   4.228  0.9243 -0.4489  0.5272
18950TIP3    H278342   6.449   2.722   4.294  0.5506  0.4688 -1.4735
18951TIP3   OH278343   6.883   4.183   1.816  0.3976 -0.2732  0.3532
18951TIP3    H178344   6.903   4.150   1.904 -0.5856  0.0244  0.6929
18951TIP3    H278345   6.848   4.270   1.831  1.1011  0.1438 -0.4104
18952TIP3   OH278346   3.444   4.781   1.472  0.1721 -0.1323  0.1609
18952TIP3    H178347   3.400   4.768   1.556 -1.2968  3.0547 -0.0596
18952TIP3    H278348   3.428   4.700   1.424 -1.4367 -0.8492  1.8578
18953TIP3   OH278349   2.828   5.940   5.171  0.5155 -0.1860  1.0944
18953TIP3    H178350   2.851   6.020   5.219  1.0525 -1.0495  2.3087
18953TIP3    H278351   2.786   5.972   5.091 -0.5881  1.3098  2.2193
18954TIP3   OH278352   6.721   2.553   3.846  0.0450  0.2187  0.2493
18954TIP3    H178353   6.768   2.487   3.896 -0.5177  0.5200  1.1831
18954TIP3    H278354   6.699   2.509   3.763  0.5629 -0.4296  0.4543
18955TIP3   OH278355   6.786   5.066   2.934  0.8566 -0.0090  0.0775
18955TIP3    H178356   6.756   5.082   2.845 -2.6016 -0.4493  1.0509
18955TIP3    H278357   6.798   5.153   2.972 -0.1605  0.2171 -0.0955
18956TIP3   OH278358   6.420   0.095   3.137  0.7437 -0.6036 -0.1740
18956TIP3    H178359   6.374   0.177   3.119  2.4781  0.8078  1.5285
18956TIP3    H278360   6.433   0.056   3.051 -1.1929  0.2938 -0.9083
18957TIP3   OH278361   3.502   5.651   2.844  0.3784  0.1265 -0.2437
18957TIP3    H178362   3.453   5.689   2.917  2.3360 -0.1281  1.2518
18957TIP3    H278363   3.461   5.565   2.830 -0.3045  0.3624  0.2513
18958TIP3   OH278364   5.771   4.465   5.209 -0.1562  0.4406 -0.3258
18958TIP3    H178365   5.825   4.417   5.272  1.6898 -1.1209 -2.9944
18958TIP3    H278366   5.825   4.540   5.182 -0.4319  0.4245 -0.9461
18959TIP3   OH278367   4.876   6.583   3.204 -0.1626 -0.5475  0.8193
18959TIP3    H178368   4.887   6.605   3.297 -1.2784 -0.5996  0.9715
18959TIP3    H278369   4.799   6.633   3.177  0.3195 -0.3331 -0.1481
18960TIP3   OH278370   3.539   5.612   4.591  0.3894 -0.6873 -0.0598
18960TIP3    H178371   3.548   5.701   4.625  1.7182 -0.8347 -0.0133
18960TIP3    H278372   3.444   5.595   4.594  0.1105  0.7802 -0.2344
18961TIP3   OH278373   3.668   3.711   3.147 -0.9546 -0.2885 -0.2745
18961TIP3    H178374   3.676   3.617   3.161 -0.2916  0.0115  1.4767
18961TIP3    H278375   3.582   3.734   3.182 -0.1264  0.1337  1.5327
18962TIP3   OH278376   4.881   6.454   5.493  0.6356 -0.6510  0.0933
18962TIP3    H178377   4.927   6.443   5.577  1.2868  0.9568 -0.0296
18962TIP3    H278378   4.948   6.490   5.434 -0.5109  0.7638 -0.3668
18963TIP3   OH278379   0.538   6.375   3.670 -0.0575 -0.1485  0.6483
18963TIP3    H178380   0.536   6.281   3.653 -2.5590 -0.3069  1.5979
18963TIP3    H278381   0.552   6.415   3.584 -0.3329 -1.3357  0.0486
18964TIP3   OH278382   3.123   4.717   5.171 -0.3625 -0.0878  0.1175
18964TIP3    H178383   3.089   4.658   5.238  0.7345 -0.7124  0.1334
18964TIP3    H278384   3.217   4.702   5.170  0.0503  2.2296  0.6532
18965TIP3   OH278385   3.509   2.811   3.598 -0.4571 -0.1140  0.8614
18965TIP3    H178386   3.509   2.885   3.659 -0.6453  0.3714  0.2698
18965TIP3    H278387   3.421   2.775   3.605 -0.8160  0.5991  0.0792
18966TIP3   OH278388   2.979   2.052   4.106 -0.1352 -0.0640  0.1325
18966TIP3    H178389   2.973   1.956   4.104 -2.4300  0.0586 -0.6267
18966TIP3    H278390   2.999   2.072   4.198 -1.7556 -1.2006  0.7700
18967TIP3   OH278391   4.744   3.850  15.163 -0.2132  0.3082 -0.5327
18967TIP3    H178392   4.661   3.895  15.175 -1.1109 -1.4366 -0.0394
18967TIP3    H278393   4.765   3.815  15.250 -0.2696 -1.4466 -1.2099
18968TIP3   OH278394   0.367   7.053   4.921 -0.2178  0.3684  0.5406
18968TIP3    H178395   0.344   6.975   4.971  0.5117  0.7124  1.4316
18968TIP3    H278396   0.317   7.124   4.964 -1.5331  0.2664 -0.7832
18969TIP3   OH278397   4.798   0.564   4.911  0.0101  0.0996 -0.4547
18969TIP3    H178398   4.847   0.585   4.990 -1.4521  1.3056  0.1515
18969TIP3    H278399   4.771   0.473   4.923  0.7672 -0.0787 -0.0922
18970TIP3   OH278400   5.720   4.407   4.909  0.1322 -0.6449  0.1986
18970TIP3    H178401   5.759   4.424   4.995  2.0653  1.1877 -0.9942
18970TIP3    H278402   5.761   4.325   4.881 -0.2271 -1.0562  0.8545
18971TIP3   OH278403   0.922   5.553   3.827  0.5621  1.0598 -0.2064
18971TIP3    H178404   0.851   5.578   3.886 -0.3974 -0.5151 -0.6778
18971TIP3    H278405   0.929   5.627   3.766 -0.9438  1.0615 -0.3997
18972TIP3   OH278406   4.236   5.343   5.196 -0.6160 -0.2947 -0.5359
18972TIP3    H178407   4.141   5.338   5.184 -0.7193 -1.6659  0.7784
18972TIP3    H278408   4.269   5.261   5.159 -0.0149 -0.1658 -0.2821
18973TIP3   OH278409   2.081   4.712   4.555 -0.3293 -0.0648 -0.2476
18973TIP3    H178410   2.148   4.681   4.616 -0.5169  1.2159  0.6319
18973TIP3    H278411   2.118   4.696   4.468  0.4788 -0.7368  0.2113
18974TIP3   OH278412   3.343   1.817   5.293 -0.5709  0.0929 -0.1283
18974TIP3    H178413   3.313   1.738   5.339 -1.0292  0.8606  0.9199
18974TIP3    H278414   3.416   1.849   5.346 -0.2895  0.2864 -0.6322
18975TIP3   OH278415   5.152   1.405   1.983  0.4452  0.3214  0.2695
18975TIP3    H178416   5.128   1.318   2.014  1.7694 -0.0699  0.2339
18975TIP3    H278417   5.075   1.459   2.000 -0.7140 -1.0573 -0.5218
18976TIP3   OH278418   1.686   2.078   3.021  0.3102  0.2131 -0.6243
18976TIP3    H178419   1.759   2.066   2.960 -1.3883 -1.2336 -2.4103
18976TIP3    H278420   1.694   2.005   3.082  0.2584 -0.0348 -0.9140
18977TIP3   OH278421   4.799   6.929   5.278 -0.5813 -0.3524  0.0195
18977TIP3    H178422   4.877   6.900   5.325 -0.8904 -0.6168  0.3757
18977TIP3    H278423   4.772   6.851   5.228 -1.0029 -0.4662  0.4214
18978TIP3   OH278424   2.814   4.276   1.281 -0.0452 -0.1723  0.4894
18978TIP3    H178425   2.774   4.197   1.316  0.6952 -0.5777  0.4298
18978TIP3    H278426   2.767   4.348   1.324 -0.9901 -0.6320  0.2404
18979TIP3   OH278427   3.112   5.759   5.008  0.1962 -0.0152 -0.5306
18979TIP3    H178428   3.075   5.799   5.086  1.6022  0.7354 -0.2417
18979TIP3    H278429   3.039   5.756   4.946 -0.2389  1.8119 -0.1173
18980TIP3   OH278430   5.135   4.017   2.270  0.3064  0.1929  0.2308
18980TIP3    H178431   5.148   3.942   2.327  0.9547 -1.1753 -1.6497
18980TIP3    H278432   5.219   4.063   2.271 -0.2679  1.2436  1.8316
18981TIP3   OH278433   4.204   4.505   1.106 -0.4038 -0.2792 -0.1432
18981TIP3    H178434   4.238   4.452   1.179 -0.1751  0.3649  0.2178
18981TIP3    H278435   4.121   4.539   1.138  0.2547  0.9717  0.2646
18982TIP3   OH278436   2.685   4.926   5.154 -0.4348 -0.2350  0.3965
18982TIP3    H178437   2.638   4.957   5.231 -0.6958  1.0319 -0.2676
18982TIP3    H278438   2.751   4.867   5.189  1.0896  2.2436  1.8259
18983TIP3   OH278439   1.911   4.218   4.283  0.1959  0.1574 -0.5561
18983TIP3    H178440   1.920   4.136   4.330  1.5141 -0.4746 -1.8510
18983TIP3    H278441   1.975   4.212   4.211  1.0684  2.7090 -0.0710
18984TIP3   OH278442   1.592   6.562   1.014 -0.7109  0.2546 -0.2350
18984TIP3    H178443   1.501   6.534   1.012 -0.3985 -0.7346 -1.3608
18984TIP3    H278444   1.621   6.556   0.923  1.0986 -1.5160  0.4182
18985TIP3   OH278445   5.575   6.043   3.751  0.6159  0.1203 -0.2471
18985TIP3    H178446   5.546   5.992   3.827  1.2974  0.5434  0.3036
18985TIP3    H278447   5.509   6.111   3.741 -0.9887 -1.6086 -1.7660
18986TIP3   OH278448   4.803   3.265   5.658  0.0316  0.0780 -0.4547
18986TIP3    H178449   4.893   3.280   5.684 -0.2078  0.1020  0.3777
18986TIP3    H278450   4.804   3.269   5.563  0.9784 -0.3559 -0.4652
18987TIP3   OH278451   5.503   5.292   1.475  0.2392  0.3038  0.0846
18987TIP3    H178452   5.578   5.321   1.528  0.4757 -0.2813  0.0740
18987TIP3    H278453   5.447   5.245   1.536  0.0777  0.3980  0.0075
18988TIP3   OH278454   0.041   3.306   0.388 -0.0085  0.0894 -0.0147
18988TIP3    H178455   0.053   3.377   0.325  0.5688 -0.2508 -0.3022
18988TIP3    H278456   0.009   3.348   0.467 -1.2130  0.4561 -0.6968
18989TIP3   OH278457   4.379   1.293   2.858 -0.2159 -0.7726  0.1288
18989TIP3    H178458   4.294   1.255   2.836 -0.3794 -0.1539 -0.3212
18989TIP3    H278459   4.426   1.297   2.774 -1.2198  2.5555 -0.3194
18990TIP3   OH278460   7.138   5.065   5.537  0.2367  0.2162 -0.3611
18990TIP3    H178461   7.230   5.093   5.544  0.4558 -0.1932 -1.5357
18990TIP3    H278462   7.130   4.996   5.603  0.6827  0.5027 -0.0019
18991TIP3   OH278463   4.434   6.944   5.208 -0.4414  0.3145  0.0953
18991TIP3    H178464   4.462   6.978   5.293  0.1929 -0.2318  0.1127
18991TIP3    H278465   4.511   6.898   5.174 -1.6452 -2.2773  0.6815
18992TIP3   OH278466   6.999   7.097   5.031 -0.0757  0.1877  0.0025
18992TIP3    H178467   6.939   7.123   5.102  2.0015 -0.0708  1.9200
18992TIP3    H278468   7.017   7.005   5.049  1.4855  0.4661 -0.1070
18993TIP3   OH278469   4.029   1.609   5.054  0.3055  0.5775  0.3119
18993TIP3    H178470   4.014   1.520   5.086  2.1107  0.0914 -0.1482
18993TIP3    H278471   3.944   1.652   5.062 -0.8949 -1.5502 -0.6238
18994TIP3   OH278472   4.916   5.725   4.819 -0.5375  0.1871  0.0459
18994TIP3    H178473   4.837   5.771   4.790 -0.2512  0.0968 -0.8993
18994TIP3    H278474   4.891   5.633   4.822 -0.6511  0.2274  0.3807
18995TIP3   OH278475   4.028   3.224   5.920 -0.1075 -0.4176 -0.4008
18995TIP3    H178476   4.094   3.156   5.927 -0.0970 -0.4524 -0.8259
18995TIP3    H278477   3.958   3.196   5.979  0.1252 -0.5283 -0.1793
18996TIP3   OH278478   3.201   2.516   2.532  0.3575 -0.8310  0.4174
18996TIP3    H178479   3.127   2.459   2.554  0.6665 -1.2827  0.2877
18996TIP3    H278480   3.168   2.572   2.461  0.0395 -0.8073  0.5806
18997TIP3   OH278481   0.458   3.026   3.045 -0.4650  0.0363  0.0541
18997TIP3    H178482   0.546   3.059   3.026 -0.6921  0.2532 -0.6199
18997TIP3    H278483   0.424   3.088   3.110  1.0564 -1.8377  2.7811
18998TIP3   OH278484   6.329   4.607   5.902 -0.2448 -0.0938 -0.6538
18998TIP3    H178485   6.335   4.702   5.893 -0.2442  0.1104  1.3068
18998TIP3    H278486   6.234   4.589   5.903 -0.2989  0.2098  1.8732
18999TIP3   OH278487   5.444   0.329   1.826 -0.1542 -0.4133 -0.3930
18999TIP3    H178488   5.454   0.274   1.749 -1.0387 -0.3799 -0.5416
18999TIP3    H278489   5.449   0.419   1.793  0.2980 -0.4006 -0.2922
19000TIP3   OH278490   2.588   0.509   2.749  0.1565  0.0953 -0.1679
19000TIP3    H178491   2.566   0.569   2.820 -1.6980 -1.2704  0.4430
19000TIP3    H278492   2.554   0.551   2.670 -0.8693 -0.0146  0.2163
19001TIP3   OH278493   5.044   4.954   4.797 -0.2671 -0.4721 -0.6980
19001TIP3    H178494   4.991   4.894   4.744  2.2261 -2.3613 -1.1672
19001TIP3    H278495   4.980   5.005   4.846 -2.5546 -1.3197 -2.6721
19002TIP3   OH278496   3.537   2.494   2.742  0.4628 -0.4016 -0.5769
19002TIP3    H178497   3.619   2.525   2.704  0.5989  0.1978  0.2105
19002TIP3    H278498   3.560   2.463   2.829  0.1671 -1.9180 -1.0209
19003TIP3   OH278499   6.847   6.716   3.034 -0.0630 -0.0857 -0.5823
19003TIP3    H178500   6.815   6.729   3.123  1.4983  0.1644 -0.0468
19003TIP3    H278501   6.942   6.708   3.043  0.1451  0.2451 -2.2596
19004TIP3   OH278502   5.285   5.512   4.575  0.3836  0.1011  0.5505
19004TIP3    H178503   5.208   5.549   4.531 -0.8216 -0.0763  2.4470
19004TIP3    H278504   5.358   5.567   4.545 -0.6256  0.9037 -0.5032
19005TIP3   OH278505   5.696   4.350   4.422  0.0664  0.0385 -0.5138
19005TIP3    H178506   5.779   4.372   4.380  0.4751 -1.9953 -0.8112
19005TIP3    H278507   5.703   4.386   4.510  1.0176  0.4062 -0.7413
19006TIP3   OH278508   4.945   4.961   4.402 -0.2720 -1.0067  0.4015
19006TIP3    H178509   4.938   5.025   4.472 -0.6729 -0.6033  0.0021
19006TIP3    H278510   5.029   4.917   4.416  0.9543  0.9870 -0.4742
19007TIP3   OH278511   5.592   0.476   5.568 -0.3888 -0.0478  0.0545
19007TIP3    H178512   5.663   0.540   5.559  1.1146 -1.7453 -0.4437
19007TIP3    H278513   5.540   0.488   5.489  0.5552 -0.2305 -0.6073
19008TIP3   OH278514   4.634   5.306   4.387  0.2805 -0.1971 -0.8718
19008TIP3    H178515   4.727   5.294   4.368  0.7512  0.6393  0.8147
19008TIP3    H278516   4.629   5.307   4.482 -1.1187  2.2464 -0.9333
19009TIP3   OH278517   6.604   3.822   1.262 -0.1233 -0.4109  0.2723
19009TIP3    H178518   6.645   3.832   1.348 -1.3064  2.6892  0.5330
19009TIP3    H278519   6.644   3.891   1.208 -0.9860 -0.9138 -1.0343
19010TIP3   OH278520   1.738   3.788   5.674 -0.1875 -0.0028  0.4766
19010TIP3    H178521   1.784   3.708   5.648 -0.4186  0.0772 -0.1861
19010TIP3    H278522   1.728   3.837   5.592 -0.6177  0.4064  0.7757
19011TIP3   OH278523   5.838   2.928   3.139 -0.2625  0.0005  0.5657
19011TIP3    H178524   5.802   2.870   3.071  1.1710  2.3318 -2.2822
19011TIP3    H278525   5.767   2.991   3.156 -0.3276 -0.0894  0.6278
19012TIP3   OH278526   5.229   1.888   2.315  0.4261 -0.3199 -0.2586
19012TIP3    H178527   5.241   1.896   2.220 -1.1805  0.7829 -0.3956
19012TIP3    H278528   5.182   1.805   2.326 -2.1957  1.0308 -0.7429
19013TIP3   OH278529   3.292   1.330   4.414  0.0126  0.4290 -0.0678
19013TIP3    H178530   3.271   1.257   4.356  1.1837  0.2842 -0.3223
19013TIP3    H278531   3.255   1.305   4.499  0.1522 -0.3277 -0.2276
19014TIP3   OH278532   6.271   0.392   5.221 -0.2657  0.7997  0.4263
19014TIP3    H178533   6.208   0.356   5.159 -1.0207  0.4961  1.3614
19014TIP3    H278534   6.253   0.486   5.221  0.0610  0.8664 -0.1689
19015TIP3   OH278535   0.644   2.549   4.602 -0.1678  0.4023 -0.4482
19015TIP3    H178536   0.716   2.486   4.605  0.5894  1.3169  2.4402
19015TIP3    H278537   0.683   2.630   4.572 -0.2158  0.6098  0.0410
19016TIP3   OH278538   3.323   3.949   4.481 -0.5110 -0.1114  0.0561
19016TIP3    H178539   3.243   3.923   4.434  0.1143 -1.0210 -0.5127
19016TIP3    H278540   3.380   3.873   4.475  0.1972  0.3474  0.9296
19017TIP3   OH278541   5.619   3.071   3.217  0.1679  0.0156  0.1656
19017TIP3    H178542   5.584   3.152   3.178 -0.0533  0.3339  1.0285
19017TIP3    H278543   5.542   3.019   3.238  0.3364 -0.9635 -1.5019
19018TIP3   OH278544   5.537   0.294   3.741 -0.8131 -0.3732 -0.2632
19018TIP3    H178545   5.568   0.374   3.698 -0.9239 -0.1605  0.0522
19018TIP3    H278546   5.444   0.309   3.755 -0.8957 -0.6856 -0.4836
19019TIP3   OH278547   3.725   3.795   2.050  0.3290 -0.0717  0.3545
19019TIP3    H178548   3.780   3.740   1.994 -1.7552 -0.2479 -1.5912
19019TIP3    H278549   3.719   3.748   2.133  0.7255 -1.4721 -0.4132
19020TIP3   OH278550   2.903   5.633   5.583  0.4155 -0.6590 -0.6349
19020TIP3    H178551   2.947   5.703   5.631 -0.7522 -1.0185  1.0440
19020TIP3    H278552   2.869   5.674   5.504 -1.3264  0.9771  0.9252
19021TIP3   OH278553   2.218   2.655   2.983  0.2063  0.2199 -0.0364
19021TIP3    H178554   2.130   2.634   2.952 -0.0158  1.2068 -0.0779
19021TIP3    H278555   2.276   2.618   2.916 -0.1611 -0.7644  0.1861
19022TIP3   OH278556   3.898   2.841   5.588 -0.0840 -0.6653  0.1598
19022TIP3    H178557   3.954   2.916   5.567 -0.8841 -0.1768 -0.2429
19022TIP3    H278558   3.890   2.843   5.683  1.2911 -1.2530  0.3048
19023TIP3   OH278559   0.009   2.688   4.420 -0.2195 -0.3267  0.4998
19023TIP3    H178560  -0.062   2.734   4.463  0.8850  1.9028 -0.0196
19023TIP3    H278561  -0.028   2.658   4.337 -0.7652  0.1547  0.5742
19024TIP3   OH278562   5.285   2.188   2.975 -0.2212  0.3468 -0.3478
19024TIP3    H178563   5.232   2.203   3.053  0.9002 -1.7361  0.8628
19024TIP3    H278564   5.365   2.147   3.007 -0.1382 -1.4507 -2.6765
19025TIP3   OH278565   2.088   7.150   2.575  0.1879 -0.1084  0.6092
19025TIP3    H178566   2.140   7.111   2.505  0.4489  0.9995  0.1674
19025TIP3    H278567   2.045   7.226   2.534  2.0055  1.8051  2.1292
19026TIP3   OH278568   3.955   6.304   0.525  0.1363  0.1272 -0.1277
19026TIP3    H178569   3.979   6.238   0.590  0.2815  0.4589  0.1603
19026TIP3    H278570   3.899   6.365   0.574 -0.2848  0.0264 -0.4801
19027TIP3   OH278571   3.537   3.767   4.447  0.8537  0.0139  0.4614
19027TIP3    H178572   3.588   3.776   4.367  2.1535 -0.0853  1.2539
19027TIP3    H278573   3.602   3.744   4.514 -0.1698  0.3747  1.5926
19028TIP3   OH278574   6.479   5.887   4.648 -0.5030  0.6678 -0.0808
19028TIP3    H178575   6.527   5.901   4.566 -2.4890 -0.2333 -1.4207
19028TIP3    H278576   6.500   5.797   4.673 -0.6827  0.6197 -0.1057
19029TIP3   OH278577   2.318   1.835   3.168  0.6198  0.4238  0.0277
19029TIP3    H178578   2.245   1.895   3.181 -1.5467 -2.4635  1.9010
19029TIP3    H278579   2.308   1.805   3.078  2.2185  3.4063 -1.2040
19030TIP3   OH278580   2.372   6.136   5.120  0.2893  0.1172 -0.3299
19030TIP3    H178581   2.461   6.137   5.156  0.6675 -1.8001 -1.1765
19030TIP3    H278582   2.324   6.199   5.174  1.8443  0.2674  0.9236
19031TIP3   OH278583   3.833   2.654   2.396 -0.0766  0.4088 -0.3108
19031TIP3    H178584   3.901   2.666   2.462 -0.0710 -0.6128 -0.1182
19031TIP3    H278585   3.862   2.705   2.321  0.4663  0.6790  0.0846
19032TIP3   OH278586   6.338   6.828   1.484  0.1064  0.3427  0.1099
19032TIP3    H178587   6.248   6.860   1.478  0.0532  0.3976  1.0029
19032TIP3    H278588   6.333   6.757   1.548  0.9569  1.3543  1.3202
19033TIP3   OH278589   3.188   5.573   4.784  0.2175 -0.7299  0.3256
19033TIP3    H178590   3.275   5.535   4.779 -0.9414 -3.6164  0.8015
19033TIP3    H278591   3.172   5.582   4.878  0.0675 -0.0572  0.2363
19034TIP3   OH278592   2.460   4.456   4.481  0.2444  0.4807  0.0134
19034TIP3    H178593   2.384   4.459   4.539 -0.9208  1.0511 -1.5206
19034TIP3    H278594   2.505   4.539   4.495  1.2091 -0.2976  1.7131
19035TIP3   OH278595   5.245   4.645   2.353  0.2898  0.7126  0.1444
19035TIP3    H178596   5.177   4.671   2.290  0.1204  1.1417  0.5058
19035TIP3    H278597   5.232   4.551   2.365  0.2585  0.6458 -0.3873
19036TIP3   OH278598   3.870   5.907   3.980  0.1399 -0.4013 -0.6605
19036TIP3    H178599   3.878   5.982   4.039 -0.3741 -0.2845 -0.7303
19036TIP3    H278600   3.896   5.940   3.895  0.2418 -0.3900 -0.6247
19037TIP3   OH278601   4.425   5.123   4.849 -0.7791  0.5010  0.2577
19037TIP3    H178602   4.447   5.089   4.936  0.2899 -0.1785 -0.2652
19037TIP3    H278603   4.393   5.047   4.802 -1.4336  0.8871  0.0785
19038TIP3   OH278604   3.883   1.440   4.376 -0.3991  0.5783 -0.2179
19038TIP3    H178605   3.923   1.412   4.459  0.5270  1.6436 -0.2797
19038TIP3    H278606   3.794   1.467   4.400 -0.7549 -0.8713  0.1044
19039TIP3   OH278607   6.665   0.575   5.220 -0.1302 -0.4505 -0.1426
19039TIP3    H178608   6.755   0.573   5.252 -0.1746  0.1237  0.0386
19039TIP3    H278609   6.621   0.637   5.279 -0.8557 -1.3932  0.3233
19040TIP3   OH278610   3.953   0.244   3.956  0.0701  0.0481  0.4185
19040TIP3    H178611   3.904   0.179   3.905  1.2641 -0.1414 -0.5163
19040TIP3    H278612   4.009   0.287   3.891  0.0451  1.2916  1.2161
19041TIP3   OH278613   4.009   2.576   5.148  0.2771  0.1893  0.2935
19041TIP3    H178614   4.037   2.540   5.064  0.4442 -0.8898  0.7964
19041TIP3    H278615   3.991   2.668   5.130 -0.1881 -0.1455 -1.0366
19042TIP3   OH278616   3.711   0.340   1.636 -0.9999 -0.2167 -0.3339
19042TIP3    H178617   3.742   0.410   1.693  0.9783  0.1918 -1.8650
19042TIP3    H278618   3.779   0.273   1.640 -2.0993 -1.3612 -0.1647
19043TIP3   OH278619   2.634   6.398   3.497  0.0290 -0.0889  0.1166
19043TIP3    H178620   2.691   6.322   3.484 -0.4346 -0.3401 -0.4538
19043TIP3    H278621   2.679   6.469   3.452 -0.8260 -0.6168 -1.6249
19044TIP3   OH278622   6.249   4.573   2.398 -0.2496  0.0147 -0.4839
19044TIP3    H178623   6.181   4.570   2.330  0.3741  1.1358 -1.1725
19044TIP3    H278624   6.307   4.644   2.370  2.4275 -2.3404 -1.0528
19045TIP3   OH278625   5.371   3.597   5.143 -0.2998 -0.1028  0.3611
19045TIP3    H178626   5.394   3.677   5.189 -0.1273  1.1804 -1.8904
19045TIP3    H278627   5.444   3.537   5.162 -0.2499  0.3666  1.7526
19046TIP3   OH278628   5.172   2.873   5.027 -0.0380  0.7236 -0.2226
19046TIP3    H178629   5.236   2.860   5.098  1.7678  0.9382 -1.7858
19046TIP3    H278630   5.122   2.950   5.055  1.4882  1.5888  0.2534
19047TIP3   OH278631   1.759   2.899   4.868  0.1614  0.0109  0.2103
19047TIP3    H178632   1.830   2.843   4.898  0.1605 -0.6523 -1.0101
19047TIP3    H278633   1.684   2.840   4.856 -0.9095  0.8469  2.4308
19048TIP3   OH278634   5.651   5.530   3.527  0.3417  0.9988 -0.3973
19048TIP3    H178635   5.676   5.464   3.591 -2.9856 -2.4097 -2.3775
19048TIP3    H278636   5.712   5.517   3.454  0.6440  1.1312 -0.1674
19049TIP3   OH278637   4.937   5.175   4.589 -0.1358  0.3520  0.2526
19049TIP3    H178638   5.005   5.229   4.628  0.1343  0.3191 -0.1673
19049TIP3    H278639   4.862   5.184   4.648  0.0033  0.9442  0.3422
19050TIP3   OH278640   1.874   3.887   5.879  0.0050 -0.4168 -0.1364
19050TIP3    H178641   1.865   3.828   5.804  0.2128 -1.6256  0.7733
19050TIP3    H278642   1.785   3.894   5.914  0.0940 -0.7100  0.1462
19051TIP3   OH278643   5.810   4.359   2.436 -0.6983 -0.3479 -0.1694
19051TIP3    H178644   5.839   4.435   2.487 -0.9613 -0.2457 -0.1680
19051TIP3    H278645   5.789   4.293   2.502  1.2177 -1.0389 -0.2381
19052TIP3   OH278646   6.232   5.871   4.515  0.0346 -0.0816  0.0597
19052TIP3    H178647   6.165   5.839   4.454  0.9139 -2.3662  0.2251
19052TIP3    H278648   6.267   5.791   4.554  2.1588  1.1569  0.7174
19053TIP3   OH278649   3.426   5.431   4.769 -0.0467  0.3791  0.1958
19053TIP3    H178650   3.413   5.349   4.817 -0.8474 -0.5430 -1.5522
19053TIP3    H278651   3.501   5.413   4.712 -0.2646  0.8520 -0.2384
19054TIP3   OH278652   4.345   3.165   3.399 -0.1913  0.1349  0.0221
19054TIP3    H178653   4.428   3.119   3.384  0.4304  0.9827  0.7724
19054TIP3    H278654   4.359   3.253   3.364 -0.8619  0.2132 -0.0608
19055TIP3   OH278655   4.465   4.932   4.066  0.2714  0.2714 -0.0083
19055TIP3    H178656   4.471   4.981   3.984  1.0365 -0.3805 -0.3514
19055TIP3    H278657   4.444   4.998   4.132 -2.4489  0.5141 -1.0451
19056TIP3   OH278658   1.303   7.096   4.352 -0.1537  0.5060  0.2588
19056TIP3    H178659   1.211   7.114   4.370 -0.5751 -1.1109 -0.1864
19056TIP3    H278660   1.305   7.069   4.260  0.3644 -1.8531  0.9085
19057TIP3   OH278661   4.882   3.934   0.899  0.0921  0.1190 -0.1379
19057TIP3    H178662   4.906   3.989   0.974  1.0678  1.4994 -1.4543
19057TIP3    H278663   4.795   3.964   0.874  1.1594  2.0144 -1.6872
19058TIP3   OH278664   6.697   7.186   5.752  0.4359 -0.3914 -0.5765
19058TIP3    H178665   6.776   7.234   5.777 -0.4478 -0.0740  1.6810
19058TIP3    H278666   6.639   7.254   5.715 -0.8688  0.3704  2.7446
19059TIP3   OH278667   2.999   4.096   1.602 -0.6211 -0.1068  0.3358
19059TIP3    H178668   3.077   4.043   1.586 -1.2424 -0.6261 -1.0327
19059TIP3    H278669   2.929   4.033   1.617 -1.4115  0.2891 -1.5270
19060TIP3   OH278670   7.035   6.223   5.253 -0.1416  0.5104 -0.4526
19060TIP3    H178671   7.039   6.279   5.331 -0.2033 -0.6472  0.3919
19060TIP3    H278672   7.092   6.267   5.189 -1.0601  2.1114 -0.1875
19061TIP3   OH278673   4.942   0.651   5.127  0.6455 -0.3126  0.2199
19061TIP3    H178674   4.993   0.633   5.206  3.3222 -0.1263 -1.3877
19061TIP3    H278675   4.907   0.739   5.141  1.2393 -0.2132  1.1138
19062TIP3   OH278676   5.246   5.297   2.659  0.1753  0.0715  0.1808
19062TIP3    H178677   5.265   5.267   2.748 -2.0619 -0.1400  0.6147
19062TIP3    H278678   5.314   5.361   2.640  1.4746 -0.8722  1.5149
19063TIP3   OH278679   2.443   3.861   4.195  0.4464 -0.3196 -0.0087
19063TIP3    H178680   2.402   3.895   4.116  0.4097 -0.8313 -0.2138
19063TIP3    H278681   2.398   3.778   4.212 -0.5579  0.4982  1.3935
19064TIP3   OH278682   6.664   5.424   3.780  0.4727 -0.4611 -0.2284
19064TIP3    H178683   6.595   5.488   3.764  1.0344  0.0610 -0.5871
19064TIP3    H278684   6.620   5.339   3.776 -0.0034 -0.1688 -1.1756
19065TIP3   OH278685   0.665   0.038   3.786 -0.0080  0.3587  0.6408
19065TIP3    H178686   0.750   0.004   3.815 -0.3857  0.4442  1.8900
19065TIP3    H278687   0.676   0.133   3.787  0.5197  0.3322 -1.2121
19066TIP3   OH278688   0.104   3.728   2.742  0.1219 -0.2836 -0.6458
19066TIP3    H178689   0.172   3.679   2.788 -0.5429  0.9188  1.7150
19066TIP3    H278690   0.101   3.812   2.787 -1.6410  0.3776 -1.9317
19067TIP3   OH278691   5.481   4.349   2.614  0.4437  0.4794  0.1443
19067TIP3    H178692   5.386   4.358   2.619  0.5507  1.6100  0.2902
19067TIP3    H278693   5.511   4.361   2.704  0.8144  1.2450 -0.0804
19068TIP3   OH278694   5.316   2.083   3.691 -0.3402 -0.0767 -0.6099
19068TIP3    H178695   5.315   2.139   3.614 -0.0382 -3.5050 -3.2230
19068TIP3    H278696   5.225   2.060   3.706 -0.2085 -0.9005 -1.0724
19069TIP3   OH278697   3.651   2.227   4.719  0.6329 -0.4329 -0.1617
19069TIP3    H178698   3.596   2.163   4.675  2.3783 -1.0855 -1.4665
19069TIP3    H278699   3.705   2.176   4.778 -0.4826  0.2606  1.4812
19070TIP3   OH278700   4.747   3.718   2.386  0.2901  0.0452  0.3649
19070TIP3    H178701   4.735   3.668   2.305 -1.2378  0.1225  0.5395
19070TIP3    H278702   4.671   3.776   2.391  0.8029  0.6511  1.4276
19071TIP3   OH278703   6.472   0.192   5.685 -0.1855 -0.0141  0.0512
19071TIP3    H178704   6.419   0.187   5.764 -3.1813 -1.3305 -1.9338
19071TIP3    H278705   6.496   0.284   5.678 -3.3676  0.8918  0.3498
19072TIP3   OH278706   2.243   6.135   3.771  0.0535  0.4070  0.1128
19072TIP3    H178707   2.217   6.045   3.753 -2.6182  0.2888  3.9911
19072TIP3    H278708   2.273   6.169   3.687 -0.9529 -3.4121 -1.8746
19073TIP3   OH278709   4.401   1.500   2.238 -0.0176 -0.1721  0.1270
19073TIP3    H178710   4.395   1.429   2.173  0.4472  0.5281 -0.6844
19073TIP3    H278711   4.413   1.579   2.186 -3.4367  0.9167  0.8369
19074TIP3   OH278712   6.444   6.050   4.415 -0.0604 -0.1971 -0.7870
19074TIP3    H178713   6.496   6.099   4.479  0.6727 -1.9701 -0.0149
19074TIP3    H278714   6.356   6.050   4.451  0.0797 -0.0745 -0.4406
19075TIP3   OH278715   5.444   3.542  14.167 -0.3825 -0.0875  0.3505
19075TIP3    H178716   5.420   3.451  14.149 -0.8863  0.5929 -2.6232
19075TIP3    H278717   5.471   3.541  14.259  0.6014 -3.4515  0.1165
19076TIP3   OH278718   5.478   4.690   5.216  0.0854 -0.0419  0.0978
19076TIP3    H178719   5.565   4.714   5.248  0.5131 -0.4682 -0.7381
19076TIP3    H278720   5.432   4.657   5.293 -0.2555  2.6859  1.1255
19077TIP3   OH278721   3.398   3.905   1.808  0.3003  0.2357  0.6353
19077TIP3    H178722   3.433   3.950   1.885  2.6544  0.6362 -0.6296
19077TIP3    H278723   3.464   3.919   1.740 -0.9371 -1.5491 -0.9756
19078TIP3   OH278724   5.381   2.780   1.698  0.3608 -0.3800  0.0074
19078TIP3    H178725   5.447   2.843   1.728 -0.1641  0.4948 -0.6495
19078TIP3    H278726   5.319   2.832   1.647 -0.3249 -1.3580 -0.1806
19079TIP3   OH278727   5.165   6.589   4.418 -0.5759 -0.0646 -0.3732
19079TIP3    H178728   5.100   6.574   4.486  2.3946 -2.3980  2.1261
19079TIP3    H278729   5.234   6.524   4.436  2.6025  2.5157 -2.6366
19080TIP3   OH278730   4.784   6.355   3.520 -0.2071 -0.3254  0.2830
19080TIP3    H178731   4.836   6.324   3.594  0.8958  1.9890  0.5412
19080TIP3    H278732   4.840   6.420   3.478 -1.5931 -0.2331 -1.4477
19081TIP3   OH278733   3.085   4.762   4.896  0.4030  0.6061  0.2045
19081TIP3    H178734   3.058   4.792   4.983 -2.8797  0.0214 -0.5569
19081TIP3    H278735   3.127   4.838   4.856 -1.2305  1.9810  1.0269
19082TIP3   OH278736   3.954   6.374   5.290  0.5430  0.2857 -0.3520
19082TIP3    H178737   4.009   6.340   5.360  0.8416 -2.6798 -1.9765
19082TIP3    H278738   4.014   6.418   5.231  0.7085  0.0474 -0.3604
19083TIP3   OH278739   5.038   1.009   4.731 -0.0611 -0.2674  0.2455
19083TIP3    H178740   5.076   0.922   4.722 -0.1548 -0.3211  0.3684
19083TIP3    H278741   5.100   1.057   4.786 -0.2615 -0.4101  0.5956
19084TIP3   OH278742   1.823   7.171   4.742  0.2155 -0.1377 -0.0107
19084TIP3    H178743   1.786   7.142   4.658 -0.1422  2.4816 -0.7873
19084TIP3    H278744   1.771   7.247   4.766 -0.0041 -1.1513  2.8771
19085TIP3   OH278745   2.503   1.469   2.647  0.0873 -0.3502 -0.0237
19085TIP3    H178746   2.476   1.384   2.681 -2.0728  0.2189 -0.2353
19085TIP3    H278747   2.488   1.529   2.720  0.6587  0.0213 -0.2069
19086TIP3   OH278748   2.385   1.129  14.582 -0.2817 -0.1573  0.3279
19086TIP3    H178749   2.349   1.187  14.649 -0.1703  1.0344 -0.6204
19086TIP3    H278750   2.316   1.066  14.565  0.5937 -2.0844  3.3879
19087TIP3   OH278751   2.792   6.109   5.497 -0.0261 -0.0950  0.4537
19087TIP3    H178752   2.852   6.143   5.431 -1.0917 -0.1070 -0.5236
19087TIP3    H278753   2.789   6.178   5.564 -2.0980  1.7281 -1.4676
19088TIP3   OH278754   4.089   0.079   2.997 -0.2388 -0.1950  0.1322
19088TIP3    H178755   4.108   0.062   3.090 -0.9197  1.5061  0.6028
19088TIP3    H278756   3.993   0.083   2.993 -0.1662  1.2546 -0.3541
19089TIP3   OH278757   2.595   4.002   3.455 -0.1024 -0.0554 -0.1270
19089TIP3    H178758   2.649   3.996   3.376 -0.0109 -1.5969  0.0351
19089TIP3    H278759   2.509   4.031   3.423  0.0538 -0.2546 -0.7321
19090TIP3   OH278760   3.697   4.157   5.412  0.0646 -0.2683 -0.0758
19090TIP3    H178761   3.770   4.205   5.452  0.1872  0.4628 -1.1369
19090TIP3    H278762   3.631   4.152   5.481  1.6091 -2.0716  1.3143
19091TIP3   OH278763   5.804   0.504   4.962  0.2752 -0.6296 -0.3546
19091TIP3    H178764   5.755   0.474   4.886 -0.9850 -0.2455  0.2811
19091TIP3    H278765   5.750   0.477   5.037  1.2793 -0.6155  0.3790
19092TIP3   OH278766   0.280   3.261   1.966 -0.4101  0.0454  0.2206
19092TIP3    H178767   0.354   3.292   1.914 -1.1643  0.3313 -0.7063
19092TIP3    H278768   0.316   3.193   2.022  0.6026  0.3631 -0.0425
19093TIP3   OH278769   6.233   5.790   2.279 -0.2467 -0.0671 -0.4071
19093TIP3    H178770   6.143   5.804   2.248 -1.4053 -2.0538  1.8542
19093TIP3    H278771   6.225   5.717   2.340  2.8520  0.0935  0.2252
19094TIP3   OH278772   2.282   5.122   2.539 -0.3034  0.3219 -0.2938
19094TIP3    H178773   2.355   5.108   2.600  0.9082 -0.7613 -1.9719
19094TIP3    H278774   2.227   5.044   2.549 -0.8677  0.7989  0.4258
19095TIP3   OH278775   4.810   3.144   0.935 -0.5057  0.7234 -0.5815
19095TIP3    H178776   4.904   3.163   0.932 -0.4423  0.7238  0.9769
19095TIP3    H278777   4.768   3.230   0.940 -0.6737  0.7841 -2.5730
19096TIP3   OH278778   4.792   4.469   1.755  0.2112 -0.1480  0.2856
19096TIP3    H178779   4.883   4.456   1.781 -0.0860 -0.5914  1.1153
19096TIP3    H278780   4.748   4.495   1.836 -0.7491 -1.6502  0.2469
19097TIP3   OH278781   4.430   4.299   4.473  0.3594  0.1588  0.2485
19097TIP3    H178782   4.399   4.389   4.473 -0.4060 -0.0963 -1.0001
19097TIP3    H278783   4.355   4.248   4.503  0.4303 -0.1728 -0.1320
19098TIP3   OH278784   3.857   3.697   2.580 -0.1889 -0.5585  0.6367
19098TIP3    H178785   3.793   3.767   2.563 -0.6900 -0.8130  1.4911
19098TIP3    H278786   3.812   3.637   2.639  0.7319 -0.9044  0.9893
19099TIP3   OH278787   3.679   5.636   0.244 -0.2905 -0.0468  0.4256
19099TIP3    H178788   3.754   5.585   0.213 -0.0297  0.8935 -0.5103
19099TIP3    H278789   3.719   5.704   0.299 -0.2171  1.9316 -2.0033
19100TIP3   OH278790   0.921   6.817   4.015 -0.1056 -0.3822 -0.0630
19100TIP3    H178791   0.930   6.724   4.038  0.4049 -0.4993 -0.7286
19100TIP3    H278792   0.830   6.838   4.038  0.0420 -0.7936  0.9682
19101TIP3   OH278793   1.981   6.645   3.698  0.4071 -0.5003 -0.1734
19101TIP3    H178794   2.033   6.704   3.643 -0.3861  2.2504  1.9166
19101TIP3    H278795   1.894   6.684   3.700 -0.6798 -2.8228 -0.2701
19102TIP3   OH278796   4.267   3.174   2.095  0.8847 -0.0039  0.0617
19102TIP3    H178797   4.175   3.180   2.121  1.0256  2.2242  0.1546
19102TIP3    H278798   4.305   3.108   2.153 -0.7100 -1.1518 -0.1767
19103TIP3   OH278799   4.683   2.299   2.389 -0.0191 -0.4381  0.2508
19103TIP3    H178800   4.608   2.291   2.449  0.6787 -1.3856  1.0039
19103TIP3    H278801   4.643   2.313   2.303 -1.0551 -0.6588  0.6837
19104TIP3   OH278802   2.944   4.207   1.909 -0.2695  0.6527 -0.2680
19104TIP3    H178803   3.011   4.143   1.933 -0.5241  0.2334 -0.6664
19104TIP3    H278804   2.929   4.193   1.815 -1.8689 -0.1605  0.0838
19105TIP3   OH278805   0.592   2.522   2.309  0.3216  0.2951  0.6976
19105TIP3    H178806   0.555   2.446   2.355 -0.0071 -0.9318 -1.5152
19105TIP3    H278807   0.537   2.595   2.336 -2.8250 -1.2274 -1.3013
19106TIP3   OH278808   5.472   5.234   4.191  0.2952  1.0519  0.1082
19106TIP3    H178809   5.444   5.166   4.251 -0.7429  2.0851  0.8172
19106TIP3    H278810   5.397   5.250   4.135  1.3725 -0.1572 -1.7319
19107TIP3   OH278811   1.930   6.790   3.445  0.4914 -0.3007  0.6179
19107TIP3    H178812   1.846   6.799   3.491  0.8397  2.0636  0.8439
19107TIP3    H278813   1.945   6.876   3.406  0.6461 -2.0107 -3.2391
19108TIP3   OH278814   2.853   7.140   4.875 -0.0087  0.0178 -0.0550
19108TIP3    H178815   2.838   7.057   4.920 -0.7348 -0.0799 -0.4603
19108TIP3    H278816   2.945   7.139   4.850  0.1337 -0.3871  0.4993
19109TIP3   OH278817   3.613   4.556   4.608 -0.0943  0.0267 -0.6306
19109TIP3    H178818   3.525   4.518   4.605 -0.0601 -0.1624  0.3089
19109TIP3    H278819   3.634   4.558   4.702  1.4815 -1.2976 -0.9380
19110TIP3   OH278820   3.878   5.826   4.311  0.0835 -0.1193  1.0466
19110TIP3    H178821   3.805   5.769   4.288 -1.4043  2.2659 -0.3962
19110TIP3    H278822   3.950   5.796   4.256 -1.2275  0.5770 -1.1080
19111TIP3   OH278823   1.990   2.381   2.430 -1.3163  0.3323 -0.9318
19111TIP3    H178824   1.965   2.468   2.399 -0.4039  1.3930  1.1940
19111TIP3    H278825   2.086   2.383   2.431 -1.2974 -0.7320 -0.9876
19112TIP3   OH278826   4.119   4.296   4.855 -0.0353  0.5372 -0.0739
19112TIP3    H178827   4.108   4.243   4.776 -3.2682  0.2048  0.4997
19112TIP3    H278828   4.169   4.241   4.915 -0.9716 -0.8129 -0.4973
19113TIP3   OH278829   3.900   0.019   5.426 -0.6778 -0.4127 -0.1653
19113TIP3    H178830   3.914   0.066   5.344 -1.1179  0.0668  0.0281
19113TIP3    H278831   3.966   0.055   5.485 -0.0996 -1.0458 -0.4258
19114TIP3   OH278832   3.547   5.878   5.501 -0.5482  0.1912 -0.0738
19114TIP3    H178833   3.494   5.818   5.553  0.6934 -0.2766  0.6673
19114TIP3    H278834   3.549   5.838   5.414 -0.2404 -0.5386  0.2600
19115TIP3   OH278835   2.159   3.980   5.891 -0.5298  0.3674  0.3990
19115TIP3    H178836   2.166   3.889   5.919  0.7284 -0.5641 -2.6806
19115TIP3    H278837   2.065   3.996   5.885 -0.7560 -0.8436  0.6436
19116TIP3   OH278838   3.043   5.357   4.248  0.1761  0.0310  0.3060
19116TIP3    H178839   3.084   5.443   4.253 -0.3383  0.1713  3.2817
19116TIP3    H278840   2.960   5.373   4.201  0.6605  0.8973 -0.2700
19117TIP3   OH278841   5.130   6.335   2.669  0.4343  0.1198 -0.0161
19117TIP3    H178842   5.138   6.251   2.624  0.2596  0.3793 -0.5432
19117TIP3    H278843   5.219   6.356   2.696  0.6007  0.1341 -0.5711
19118TIP3   OH278844   3.382   7.190   3.573  0.5824 -0.2664  0.1663
19118TIP3    H178845   3.410   7.241   3.497  2.8111 -1.5312  0.1198
19118TIP3    H278846   3.431   7.226   3.646  0.1380 -0.5661  0.6172
19119TIP3   OH278847   3.322   1.598   2.197  0.1950 -0.0944 -0.2825
19119TIP3    H178848   3.320   1.552   2.113 -0.3518 -1.4306  0.4320
19119TIP3    H278849   3.360   1.683   2.178 -0.9190  0.0229 -2.0848
19120TIP3   OH278850   6.087   5.056   5.314  0.0979  0.4397 -0.0406
19120TIP3    H178851   6.003   5.012   5.324 -0.2213  1.0571  0.0542
19120TIP3    H278852   6.068   5.130   5.256  0.5576  0.6192  0.0391
19121TIP3   OH278853   5.877   6.354   4.871  0.0354 -0.2946 -0.2721
19121TIP3    H178854   5.822   6.412   4.924  0.9788 -0.3579  0.7824
19121TIP3    H278855   5.865   6.267   4.909  0.7267 -0.3377 -0.1391
19122TIP3   OH278856   5.367   6.573   5.308  0.3188 -1.0771  0.1981
19122TIP3    H178857   5.372   6.563   5.403  1.0884  0.8271  0.3814
19122TIP3    H278858   5.456   6.599   5.282 -0.7907  2.2442 -0.5284
19123TIP3   OH278859   1.971   4.577   5.609 -0.5313  0.6107 -0.4273
19123TIP3    H178860   1.999   4.648   5.667 -1.4046  0.3926  0.2724
19123TIP3    H278861   2.051   4.531   5.586 -0.4191 -0.8323  2.6390
19124TIP3   OH278862   0.489   1.667   3.401 -0.7162  0.3255 -0.5160
19124TIP3    H178863   0.482   1.675   3.496  2.2249 -1.3879 -0.0849
19124TIP3    H278864   0.406   1.627   3.374 -1.0808 -0.3350  1.4893
19125TIP3   OH278865   6.978   1.473   3.837  0.7940  0.6627  0.4730
19125TIP3    H178866   6.916   1.409   3.802  0.4443  1.7963 -1.0868
19125TIP3    H278867   6.998   1.443   3.925 -0.7218 -0.6141  0.3971
19126TIP3   OH278868   1.623   2.315   5.713  0.1363 -0.3669  0.0119
19126TIP3    H178869   1.544   2.324   5.660  0.1190  1.9615  0.4164
19126TIP3    H278870   1.606   2.239   5.769 -0.8416 -1.3173 -1.5432
19127TIP3   OH278871   6.305   6.137   3.640 -0.0367 -0.4287  0.2702
19127TIP3    H178872   6.305   6.121   3.545  0.1603 -1.1266  0.3863
19127TIP3    H278873   6.214   6.154   3.662  0.2462  2.3895 -0.4801
19128TIP3   OH278874   1.497   0.044   4.481 -0.9297  0.1405 -0.2756
19128TIP3    H178875   1.446   0.122   4.506 -2.0957 -0.4729 -0.6826
19128TIP3    H278876   1.433  -0.013   4.438 -0.0687 -1.0110 -0.0564
19129TIP3   OH278877   2.930   2.974   4.928  0.2682 -0.8363  0.0536
19129TIP3    H178878   2.853   2.970   4.871  0.8037 -2.3639 -0.5988
19129TIP3    H278879   2.893   2.981   5.017 -0.5890  0.2318 -0.3801
19130TIP3   OH278880   6.564   3.259   4.353  0.5636  0.1151 -0.3408
19130TIP3    H178881   6.511   3.294   4.425 -1.0246  1.6080 -2.1780
19130TIP3    H278882   6.558   3.164   4.363 -1.4995  0.2786  0.1983
19131TIP3   OH278883   5.502   2.280   2.703 -1.3038  0.0385 -0.5854
19131TIP3    H178884   5.535   2.212   2.762 -1.0032  0.7895  0.1378
19131TIP3    H278885   5.565   2.351   2.711 -0.7297 -0.2260 -2.5939
19132TIP3   OH278886   4.766   2.316   2.748  0.0416 -0.0461 -0.2168
19132TIP3    H178887   4.720   2.398   2.766  0.5104  0.3366 -0.7392
19132TIP3    H278888   4.710   2.249   2.787  0.5207  0.6623  1.7252
19133TIP3   OH278889   0.669   6.129   2.390  0.1037 -0.1385 -0.1547
19133TIP3    H178890   0.705   6.073   2.321 -0.9644  0.2450 -1.0427
19133TIP3    H278891   0.717   6.104   2.469  1.0299 -0.8979 -0.9451
19134TIP3   OH278892   6.750   1.037   5.457  0.1826 -0.3494  0.2179
19134TIP3    H178893   6.723   0.945   5.445  0.9794 -0.6106  0.4015
19134TIP3    H278894   6.698   1.085   5.393  0.7516 -1.1107 -0.8394
19135TIP3   OH278895   5.851   0.452   3.303  0.3121  0.1161 -0.3707
19135TIP3    H178896   5.848   0.464   3.208  0.4786 -2.6972 -0.7693
19135TIP3    H278897   5.883   0.363   3.315 -0.9205 -0.0194  2.3100
19136TIP3   OH278898   6.139   6.375   5.107  0.2233 -0.5604 -0.4671
19136TIP3    H178899   6.082   6.439   5.064  1.4863 -0.1347 -1.5253
19136TIP3    H278900   6.202   6.350   5.040  2.4702  0.4191  1.2119
19137TIP3   OH278901   4.256   1.781   5.040  0.6102 -0.0137 -0.0468
19137TIP3    H178902   4.252   1.818   5.129  2.2221  0.2674 -0.0734
19137TIP3    H278903   4.172   1.738   5.028 -0.0267  0.8400  1.2358
19138TIP3   OH278904   5.296   4.341   0.108 -0.7765  0.1184 -0.5948
19138TIP3    H178905   5.276   4.352   0.015 -2.2918  1.1379 -0.1824
19138TIP3    H278906   5.366   4.404   0.126 -0.5583 -0.0030 -1.0300
19139TIP3   OH278907   1.173   5.145   5.252 -0.1276 -0.2578  0.0186
19139TIP3    H178908   1.183   5.083   5.324 -0.3670  0.5751  0.7883
19139TIP3    H278909   1.173   5.231   5.295  1.9058  0.3685 -1.1698
19140TIP3   OH278910   0.305   5.668  14.988  0.4992 -0.2407  0.4012
19140TIP3    H178911   0.378   5.641  15.043  0.1762 -0.2022  0.8499
19140TIP3    H278912   0.317   5.762  14.977  0.2923 -0.1685  0.8049
19141TIP3   OH278913   6.151   4.178   2.680  0.1276  0.3426 -0.4143
19141TIP3    H178914   6.238   4.164   2.719  0.0423 -1.2977 -0.7645
19141TIP3    H278915   6.169   4.223   2.598  0.6863 -0.3608 -0.6809
19142TIP3   OH278916   5.320   3.314   2.451  0.3409 -0.1561  0.3164
19142TIP3    H178917   5.321   3.410   2.460 -1.1680 -0.1886  0.9674
19142TIP3    H278918   5.229   3.293   2.430  0.4905 -1.5314  1.0008
19143TIP3   OH278919   3.654   2.824  15.175  0.0509  0.4944  0.2186
19143TIP3    H178920   3.560   2.813  15.190 -0.0102  0.2633 -0.3195
19143TIP3    H278921   3.661   2.842  15.081  0.5624  0.3148  0.2250
19144TIP3   OH278922   6.858   4.517   0.717  0.6636  0.2487  0.1149
19144TIP3    H178923   6.907   4.435   0.708  0.5396  0.4612 -2.7763
19144TIP3    H278924   6.766   4.492   0.709  0.5879  0.5789 -0.0629
19145TIP3   OH278925   6.525   5.719   6.111 -0.4199  0.8200  0.5180
19145TIP3    H178926   6.614   5.691   6.131 -0.1873  0.3000 -1.1494
19145TIP3    H278927   6.535   5.790   6.048 -1.1828  0.0300 -0.5365
19146TIP3   OH278928   2.832   5.029   2.547 -0.4395 -0.7495 -0.2282
19146TIP3    H178929   2.777   5.087   2.494 -2.3463 -1.7523  0.6025
19146TIP3    H278930   2.821   5.061   2.636  1.1812 -0.3054 -0.1816
19147TIP3   OH278931   6.367   3.622   5.743 -0.6738  0.0159  0.3808
19147TIP3    H178932   6.346   3.579   5.826 -1.6008 -0.0790  0.0933
19147TIP3    H278933   6.462   3.612   5.735 -0.6928 -0.7226  1.0160
19148TIP3   OH278934   3.477   5.840   5.239  0.0096  0.1372  0.0157
19148TIP3    H178935   3.402   5.890   5.206  0.7421  0.4958 -1.1484
19148TIP3    H278936   3.481   5.764   5.182  1.7815  1.1627 -1.2726
19149TIP3   OH278937   6.574   6.621   4.700 -0.2731 -0.0301  0.3639
19149TIP3    H178938   6.506   6.554   4.701  1.0177 -1.3540  1.1988
19149TIP3    H278939   6.655   6.573   4.685  0.5824  1.4337  0.2024
19150TIP3   OH278940   5.968   5.048   5.848  0.3230  0.0148 -0.6544
19150TIP3    H178941   5.962   4.985   5.920  1.3483  0.0284 -0.5405
19150TIP3    H278942   5.966   5.134   5.891  0.3975  0.0304 -0.6801
19151TIP3   OH278943   6.290   5.720   4.783 -0.0847 -0.6378  0.8105
19151TIP3    H178944   6.203   5.681   4.791 -1.4215  1.9748 -0.4343
19151TIP3    H278945   6.332   5.671   4.712 -1.8612  0.3764 -0.9671
19152TIP3   OH278946   0.952   3.838   4.867  0.2509 -0.6337  0.2430
19152TIP3    H178947   0.917   3.863   4.952  0.6723  1.3505 -0.1543
19152TIP3    H278948   0.880   3.791   4.825 -0.2975 -0.7527  1.2820
19153TIP3   OH278949   6.415   1.441   5.465 -0.6784 -0.6864 -0.5488
19153TIP3    H178950   6.478   1.452   5.536 -1.3378  1.3587 -0.2445
19153TIP3    H278951   6.336   1.488   5.495 -0.3062  1.9639 -3.3981
19154TIP3   OH278952   5.581   6.383   5.434  0.3660 -0.3615  0.4523
19154TIP3    H178953   5.627   6.422   5.360  0.5334 -1.0244  0.2022
19154TIP3    H278954   5.648   6.371   5.501 -0.1912  2.3006  1.5808
19155TIP3   OH278955   0.448   2.473   3.948  0.6162 -0.7218  0.4965
19155TIP3    H178956   0.516   2.412   3.919  0.1062 -0.6174 -0.9695
19155TIP3    H278957   0.440   2.536   3.876 -0.6359 -0.4032  0.9038
19156TIP3   OH278958   0.645   4.953   3.877  0.5556  0.0512  0.0432
19156TIP3    H178959   0.624   5.024   3.816  2.7371  0.5151 -0.2173
19156TIP3    H278960   0.567   4.898   3.877 -0.7608  1.8659 -0.5753
19157TIP3   OH278961   5.879   5.507   6.154 -0.1970  0.1255  0.1086
19157TIP3    H178962   5.926   5.582   6.117 -0.6912 -0.8177 -2.6087
19157TIP3    H278963   5.792   5.540   6.174 -0.9785 -0.0557 -2.7289
19158TIP3   OH278964   0.023   4.556   5.331 -0.0906 -0.4604 -0.2979
19158TIP3    H178965  -0.040   4.493   5.365 -1.6381  1.5756  0.6897
19158TIP3    H278966   0.059   4.599   5.408  1.0392 -0.1876 -0.9537
19159TIP3   OH278967   4.631   6.485   4.384 -0.0938 -0.5006  0.1845
19159TIP3    H178968   4.715   6.531   4.376  0.2252 -1.4722 -2.7304
19159TIP3    H278969   4.566   6.555   4.387  0.7115  0.2325  1.1743
19160TIP3   OH278970   7.115   4.773   5.185 -0.2992  0.8753 -0.0152
19160TIP3    H178971   7.156   4.781   5.099 -1.1475  0.4478 -0.4644
19160TIP3    H278972   7.157   4.697   5.225  1.3146  2.0601  0.6527
19161TIP3   OH278973   2.701   6.750   4.604  0.2564  0.1475 -0.4390
19161TIP3    H178974   2.666   6.817   4.663  1.0138  0.5018 -0.3851
19161TIP3    H278975   2.624   6.707   4.568 -0.2100 -0.3461  1.1238
19162TIP3   OH278976   0.059   0.988   3.592 -0.0341  0.0620  0.2182
19162TIP3    H178977   0.142   1.034   3.586 -0.1440  0.4267  1.4370
19162TIP3    H278978   0.079   0.898   3.566  0.0097  0.9477 -3.0996
19163TIP3   OH278979   4.481   5.231   1.981 -0.0348 -0.8046  0.0492
19163TIP3    H178980   4.438   5.252   2.064 -0.7169  0.5457 -0.6297
19163TIP3    H278981   4.438   5.151   1.951  0.4076 -1.4556  1.1290
19164TIP3   OH278982   0.050   4.330   5.754 -0.0490  0.0448 -0.1889
19164TIP3    H178983  -0.036   4.313   5.715 -0.3382 -0.4699  0.6511
19164TIP3    H278984   0.058   4.264   5.823 -0.1276  1.7101  1.4807
19165TIP3   OH278985   6.589   1.872   5.812 -0.2721 -0.0358 -0.1084
19165TIP3    H178986   6.564   1.780   5.801 -1.5570  0.0896  1.6871
19165TIP3    H278987   6.509   1.916   5.840  0.9578  1.1330  1.6565
19166TIP3   OH278988   0.304   3.729   5.401  0.0190  0.3643  0.2214
19166TIP3    H178989   0.298   3.754   5.494 -1.3569 -0.4806  0.3767
19166TIP3    H278990   0.227   3.675   5.386  1.0660 -0.8074 -1.0348
19167TIP3   OH278991   6.474   2.800   4.615 -0.3876  0.1185 -0.3724
19167TIP3    H178992   6.468   2.879   4.560  1.6451 -1.6493 -3.2631
19167TIP3    H278993   6.555   2.811   4.663  0.8398 -0.9629 -2.1243
19168TIP3   OH278994   1.153   4.586   4.987 -0.1770  0.0655 -0.2755
19168TIP3    H178995   1.077   4.594   4.929 -0.2549  1.2952 -0.0132
19168TIP3    H278996   1.116   4.590   5.076  0.1922  0.5883 -0.1465
19169TIP3   OH278997   3.994   3.055   3.658 -0.1393 -0.1833 -0.1529
19169TIP3    H178998   4.051   3.036   3.733 -0.3893 -0.1668  0.0415
19169TIP3    H278999   3.916   3.002   3.674  0.2099 -0.9337 -0.8961
19170TIP3   OH279000   4.991   5.416   5.155  0.5459 -0.1791  0.1019
19170TIP3    H179001   4.982   5.356   5.229  0.5082  1.6937  1.6426
19170TIP3    H279002   4.902   5.446   5.137  0.9089  1.6064  1.2070
19171TIP3   OH279003   4.498   6.955   3.121  0.4442  0.6927  0.1788
19171TIP3    H179004   4.515   6.948   3.215 -0.8528  2.9791  0.6232
19171TIP3    H279005   4.455   7.040   3.111  1.3016  0.8359 -2.5998
19172TIP3   OH279006   2.074   5.100  14.744 -0.0472  0.0170 -0.2223
19172TIP3    H179007   2.142   5.122  14.807 -2.5026  1.0769  2.1699
19172TIP3    H279008   2.111   5.123  14.659  3.4883 -1.8357  0.7455
19173TIP3   OH279009   3.123   3.740   4.088  0.5264  0.1840 -0.3370
19173TIP3    H179010   3.037   3.762   4.053 -0.0121 -0.3651  0.6409
19173TIP3    H279011   3.119   3.764   4.180  0.6884 -1.8677  0.2253
19174TIP3   OH279012   6.514   3.511   3.630  0.0667  0.6938  0.0347
19174TIP3    H179013   6.511   3.599   3.594  1.9775  0.8345  0.1556
19174TIP3    H279014   6.499   3.523   3.724  0.0839  0.8777  0.0144
19175TIP3   OH279015   1.951   5.227   5.239  0.0323  0.3080 -0.6393
19175TIP3    H179016   1.912   5.265   5.318  1.6858  0.9340 -0.1080
19175TIP3    H279017   1.950   5.133   5.255 -0.4444  0.3782 -0.2492
19176TIP3   OH279018   0.161   2.920   3.179 -0.3577 -0.0968 -0.4042
19176TIP3    H179019   0.131   2.874   3.258 -0.8518  1.7015  0.4931
19176TIP3    H279020   0.248   2.952   3.202 -0.5445  0.5190 -0.5445
19177TIP3   OH279021   6.882   5.333   1.633  0.1816  0.4489  0.1474
19177TIP3    H179022   6.923   5.246   1.638 -1.2705 -0.2798 -0.4288
19177TIP3    H279023   6.952   5.391   1.604  0.9630 -0.6721 -0.2325
19178TIP3   OH279024   4.851   2.227   5.774 -0.6313  0.1453  0.4505
19178TIP3    H179025   4.927   2.281   5.798  1.2169 -1.0564 -2.3401
19178TIP3    H279026   4.786   2.290   5.743  0.1444  1.0267  0.5700
19179TIP3   OH279027   3.091   5.300   2.861 -0.2167 -0.0015  0.4134
19179TIP3    H179028   3.121   5.230   2.918 -1.1920  0.2716  1.2698
19179TIP3    H279029   3.054   5.365   2.920 -2.7847 -0.4619 -0.6370
19180TIP3   OH279030   3.096   0.889   4.212 -0.0688 -0.0268  0.1097
19180TIP3    H179031   3.016   0.877   4.161 -0.0947 -0.0618  0.1585
19180TIP3    H279032   3.095   0.817   4.276  0.6126 -0.7608 -0.6906
19181TIP3   OH279033   0.582   3.676   5.507 -0.3702  0.3258 -0.7435
19181TIP3    H179034   0.627   3.634   5.433  0.8288  0.1516  0.0700
19181TIP3    H279035   0.492   3.646   5.500  0.1779 -1.3479 -0.9376
19182TIP3   OH279036   5.411   3.211   4.812  0.4482  0.5506  0.2110
19182TIP3    H179037   5.495   3.170   4.830  0.5215  0.5280 -0.1715
19182TIP3    H279038   5.406   3.215   4.716 -0.3929 -0.2702  0.2197
19183TIP3   OH279039   3.868   2.893   3.429 -0.4206 -0.4643 -0.6134
19183TIP3    H179040   3.853   2.851   3.514  0.7416 -0.1325 -0.2314
19183TIP3    H279041   3.908   2.977   3.451  0.7234 -0.7619 -1.5199
19184TIP3   OH279042   0.006   2.599   2.142  0.2018  0.2509  0.3507
19184TIP3    H179043  -0.059   2.642   2.198  1.4647  1.0622  1.2062
19184TIP3    H279044   0.006   2.651   2.062 -0.1436  0.2912  0.3757
19185TIP3   OH279045   6.883   5.062   0.288  0.2077  0.2111 -0.0759
19185TIP3    H179046   6.880   5.039   0.195  1.5446 -0.3260 -0.0009
19185TIP3    H279047   6.884   4.978   0.333  0.7446  0.4544  0.3762
19186TIP3   OH279048   6.387   3.605   4.731  0.1188  0.2427  0.2953
19186TIP3    H179049   6.395   3.523   4.682 -1.1760 -1.3818  2.6204
19186TIP3    H279050   6.296   3.632   4.717 -0.5154 -0.6865  2.3488
19187TIP3   OH279051   0.886   4.115   3.826  0.4740  0.2138 -0.7656
19187TIP3    H179052   0.885   4.186   3.890  0.7020  0.6971 -1.2911
19187TIP3    H279053   0.818   4.138   3.763  1.0160  0.3288 -1.3188
19188TIP3   OH279054   3.658   1.234   2.817 -0.0947  0.1808  0.2308
19188TIP3    H179055   3.691   1.179   2.747 -0.9030  0.1342 -0.1129
19188TIP3    H279056   3.569   1.203   2.833 -0.3536  1.0117  0.4218
19189TIP3   OH279057   1.034   4.954   5.849  0.5067 -0.2950  0.1753
19189TIP3    H179058   0.948   4.954   5.808  0.4963 -1.9570  0.1300
19189TIP3    H279059   1.093   4.916   5.784  1.4651  1.6634 -0.1295
19190TIP3   OH279060   0.787   5.417   3.421 -0.1256  0.7100  0.4369
19190TIP3    H179061   0.768   5.391   3.330 -1.1810 -0.9830  1.1138
19190TIP3    H279062   0.881   5.401   3.430 -0.1751  0.0730 -0.1042
19191TIP3   OH279063   6.567   4.982   3.129  0.1369  0.2540 -0.0266
19191TIP3    H179064   6.641   4.949   3.179  0.4055  2.8207  1.3189
19191TIP3    H279065   6.600   4.989   3.039  0.6650 -1.1957  0.0371
19192TIP3   OH279066   5.904   1.119   4.786  0.3258  0.3290 -0.0958
19192TIP3    H179067   5.948   1.039   4.816 -1.2826 -1.7590 -3.0094
19192TIP3    H279068   5.829   1.128   4.845 -0.3506 -1.2401 -0.6714
19193TIP3   OH279069   0.508   5.275   5.225 -0.1319 -0.1611 -0.0589
19193TIP3    H179070   0.421   5.289   5.261 -1.1421 -1.1346 -2.0202
19193TIP3    H279071   0.537   5.191   5.262 -1.3068 -1.3272 -1.6878
19194TIP3   OH279072   2.033   2.213   4.952 -0.3054 -0.3088 -0.4788
19194TIP3    H179073   2.124   2.215   4.922 -0.0782 -1.6452  0.0822
19194TIP3    H279074   2.037   2.170   5.037 -1.5968 -1.5564 -1.0239
19195TIP3   OH279075   6.851   5.708   3.788 -0.4781 -0.1677 -0.6169
19195TIP3    H179076   6.906   5.781   3.818 -0.0456 -0.5327 -0.5092
19195TIP3    H279077   6.766   5.724   3.828  0.1446 -0.7605  1.0086
19196TIP3   OH279078   0.698   5.946   4.082  0.6290 -0.6110 -0.2500
19196TIP3    H179079   0.614   5.992   4.084  0.8607 -0.1657 -0.6615
19196TIP3    H279080   0.718   5.928   4.174 -1.0120 -2.7359 -0.2642
19197TIP3   OH279081   0.044   4.551   2.402 -0.2117  0.1182 -0.5036
19197TIP3    H179082   0.068   4.532   2.311  0.8683 -1.5434  0.0989
19197TIP3    H279083   0.125   4.537   2.451 -1.3817 -1.4698  1.0310
19198TIP3   OH279084   0.350   3.609   3.552 -0.6644  0.3699 -0.1990
19198TIP3    H179085   0.305   3.670   3.611  0.8947  1.6060 -0.2373
19198TIP3    H279086   0.442   3.616   3.576 -0.5944 -3.1647  0.8332
19199TIP3   OH279087   6.560   3.526   5.252  0.3291  0.4227  0.1281
19199TIP3    H179088   6.488   3.489   5.304  0.3444 -0.7021 -0.6310
19199TIP3    H279089   6.518   3.560   5.173  0.7317 -1.2727 -0.8551
19200TIP3   OH279090   4.797   3.031   4.302 -0.7350  0.4063 -0.3753
19200TIP3    H179091   4.867   3.091   4.324  0.1418  0.1014 -2.2619
19200TIP3    H279092   4.775   2.989   4.385  1.0604  0.7620  0.3062
19201TIP3   OH279093   4.725   4.403   4.747 -0.0572 -0.1061  0.1601
19201TIP3    H179094   4.749   4.320   4.789  2.4416  1.0274  1.0483
19201TIP3    H279095   4.790   4.415   4.679 -0.4080  1.1415  0.0422
19202TIP3   OH279096   1.357   6.420   5.303 -0.4179  0.3027 -0.0777
19202TIP3    H179097   1.282   6.427   5.362 -0.4444 -1.3585  0.1064
19202TIP3    H279098   1.377   6.326   5.301  1.9196  0.7616  0.2096
19203TIP3   OH279099   1.416   0.720   0.006 -0.5523  0.1871 -0.1581
19203TIP3    H179100   1.511   0.728   0.014 -1.0226  3.4688  3.3100
19203TIP3    H279101   1.392   0.651   0.067 -0.4204 -0.6623 -1.0559
19204TIP3   OH279102   0.045   4.359   3.417  0.2170  0.2789  0.1360
19204TIP3    H179103   0.062   4.453   3.406  0.0742  0.4966  1.5587
19204TIP3    H279104   0.094   4.336   3.496 -2.1082 -0.1827  1.4934
19205TIP3   OH279105   6.349   2.622   5.400 -0.4108  0.3195  0.1448
19205TIP3    H179106   6.336   2.653   5.490  3.5795  2.4593  0.1104
19205TIP3    H279107   6.283   2.669   5.349 -2.1276 -0.2414  1.7970
19206TIP3   OH279108   5.004   6.853   5.815 -0.3990  0.1066 -0.2962
19206TIP3    H179109   5.081   6.863   5.872 -0.6437  0.4359 -0.0253
19206TIP3    H279110   5.033   6.793   5.746 -0.2540 -0.6842  0.4525
19207TIP3   OH279111   4.629   1.091   5.018 -0.1090  0.2189 -0.3629
19207TIP3    H179112   4.540   1.063   5.034  0.2029 -0.5901 -0.0317
19207TIP3    H279113   4.634   1.178   5.057 -0.4411 -0.1816  0.5833
19208TIP3   OH279114   4.374   0.844   3.693  0.1207  0.4504 -0.4589
19208TIP3    H179115   4.294   0.830   3.643  0.0039 -1.2885  0.1702
19208TIP3    H279116   4.419   0.759   3.690 -0.3698 -0.0176  3.1600
19209TIP3   OH279117   0.064   1.040   5.251 -0.4096 -0.4699  0.1297
19209TIP3    H179118   0.124   1.022   5.323 -1.6616 -0.7224  1.1454
19209TIP3    H279119   0.097   1.121   5.211  1.2951 -1.2803 -0.1132
19210TIP3   OH279120   4.462   3.473   5.195  0.2194  0.2476  0.2633
19210TIP3    H179121   4.548   3.437   5.173 -0.2323 -2.2278  2.2787
19210TIP3    H279122   4.400   3.413   5.153 -0.5354  1.9434 -1.0712
19211TIP3   OH279123   5.896   4.997   1.921 -0.2018 -0.2210 -0.7367
19211TIP3    H179124   5.915   5.088   1.941 -0.5261  0.0524 -1.6424
19211TIP3    H279125   5.943   4.947   1.988 -0.5642  0.6289  0.1750
19212TIP3   OH279126   2.035   3.105   2.010  0.5580  0.3979 -0.1435
19212TIP3    H179127   2.105   3.107   1.946 -0.2230  1.5175 -0.9782
19212TIP3    H279128   1.993   3.191   2.004 -0.8429 -0.2207  0.3851
19213TIP3   OH279129   1.370   2.640   5.314 -0.1518 -0.1714  0.2043
19213TIP3    H179130   1.290   2.687   5.337 -0.1097  0.1552 -0.3260
19213TIP3    H279131   1.358   2.553   5.354 -1.2094 -0.4648 -0.7198
19214TIP3   OH279132   2.230   6.096   2.522  0.1233  0.2160 -0.3788
19214TIP3    H179133   2.263   6.176   2.481  0.5207  0.0972 -0.2913
19214TIP3    H279134   2.281   6.026   2.483 -0.2966 -0.0092 -0.5280
19215TIP3   OH279135   5.597   5.837   2.381  1.1513  0.4762  0.2404
19215TIP3    H179136   5.593   5.745   2.407 -2.6901  0.1555 -1.2326
19215TIP3    H279137   5.625   5.835   2.289 -2.2615  0.4967 -0.8581
19216TIP3   OH279138   0.019   4.785   4.926 -0.2534 -0.0129 -0.3921
19216TIP3    H179139   0.048   4.804   4.837 -1.5635  1.1772 -0.5705
19216TIP3    H279140   0.071   4.708   4.952  0.6670  0.0870 -1.8944
19217TIP3   OH279141   5.455   4.118   2.809  0.3757 -0.3803 -0.0655
19217TIP3    H179142   5.536   4.068   2.815 -0.1902 -1.4215 -0.8066
19217TIP3    H279143   5.471   4.197   2.860  1.4628 -1.0925  0.7097
19218TIP3   OH279144   0.914   5.268   4.005 -0.1250 -0.1398  0.3190
19218TIP3    H179145   0.971   5.194   4.028  1.5923  1.1713  0.3013
19218TIP3    H279146   0.901   5.259   3.911 -0.0800 -0.5249  0.3456
19219TIP3   OH279147   3.469   3.258   5.367  0.4536  0.0706 -0.5105
19219TIP3    H179148   3.533   3.199   5.408  3.7562  2.4997 -1.9083
19219TIP3    H279149   3.434   3.309   5.440 -0.5351 -1.8330  0.3811
19220TIP3   OH279150   6.614   5.416   5.368 -0.5066  0.0599  0.0646
19220TIP3    H179151   6.618   5.488   5.304  1.9453 -1.1373 -1.2226
19220TIP3    H279152   6.633   5.458   5.452  2.2352  0.7482 -0.8545
19221TIP3   OH279153   5.388   3.758   3.867 -0.6202  0.1114 -0.1205
19221TIP3    H179154   5.452   3.719   3.808 -0.8767 -1.1266  0.4076
19221TIP3    H279155   5.436   3.828   3.911  0.4620 -0.9744  0.4686
19222TIP3   OH279156   4.501   2.356   4.913  0.5043 -0.0468 -0.5240
19222TIP3    H179157   4.566   2.389   4.850  1.4181 -1.4543 -0.3176
19222TIP3    H279158   4.552   2.326   4.987 -0.4001 -0.9457 -0.2532
19223TIP3   OH279159   1.578   1.519   0.143  0.2266  0.0224  0.2591
19223TIP3    H179160   1.567   1.480   0.229  1.0624  0.5328  0.5979
19223TIP3    H279161   1.525   1.599   0.146 -0.2105 -0.2571  0.0970
19224TIP3   OH279162   0.576   1.954   3.469 -0.4618  0.2336 -0.6078
19224TIP3    H179163   0.596   1.877   3.524 -0.0559 -0.4524 -1.6851
19224TIP3    H279164   0.524   1.919   3.397 -1.4241  1.2157 -0.3957
19225TIP3   OH279165   3.822   0.531   4.034  0.3559 -0.5064 -0.5755
19225TIP3    H179166   3.891   0.586   4.070  1.0404 -1.4819 -0.3852
19225TIP3    H279167   3.812   0.461   4.098 -1.1479 -0.1159 -0.3618
19226TIP3   OH279168   2.519   3.422   1.204  0.6736 -0.2713 -0.0408
19226TIP3    H179169   2.587   3.371   1.247  1.5232 -1.0547 -2.2081
19226TIP3    H279170   2.562   3.504   1.179  0.8526 -0.7448 -1.3668
19227TIP3   OH279171   1.830   3.955   2.409  0.2274  0.2319 -0.2438
19227TIP3    H179172   1.808   3.950   2.316 -0.4442 -0.6828 -0.0426
19227TIP3    H279173   1.925   3.969   2.411  0.0984  1.2686 -1.0738
19228TIP3   OH279174   1.735   6.233   5.322 -0.0867  0.7875 -0.4990
19228TIP3    H179175   1.735   6.138   5.306  0.2712  0.8203 -0.6844
19228TIP3    H279176   1.690   6.270   5.246 -1.8662  0.6215  0.4371
19229TIP3   OH279177   0.486   3.329   1.740  0.2618  0.0639  0.3326
19229TIP3    H179178   0.513   3.383   1.666  0.4853 -0.4771  0.0154
19229TIP3    H279179   0.501   3.385   1.817  0.0887  0.6036 -0.0195
19230TIP3   OH279180   1.527   5.799   4.449 -0.3128 -0.3027  0.1958
19230TIP3    H179181   1.507   5.707   4.431 -1.3023  0.3601 -2.3915
19230TIP3    H279182   1.592   5.823   4.382 -0.0438  0.8798  0.8591
19231TIP3   OH279183   6.197   4.023   5.565 -0.0909  0.6139  0.0604
19231TIP3    H179184   6.250   3.995   5.490 -0.9996 -1.0511  0.0088
19231TIP3    H279185   6.107   4.003   5.539 -0.8624  3.8782 -0.0785
19232TIP3   OH279186   3.392   0.899   4.448  0.0650  0.4562 -0.0182
19232TIP3    H179187   3.311   0.904   4.498  0.2583  1.5583  0.1955
19232TIP3    H279188   3.370   0.843   4.373 -0.3255 -0.8920  1.0737
19233TIP3   OH279189   5.888   5.263   5.959 -0.0556 -0.3344 -0.5038
19233TIP3    H179190   5.889   5.325   6.031  0.0249 -0.1726 -0.6446
19233TIP3    H279191   5.796   5.259   5.932  0.1012  0.5148 -1.1769
19234TIP3   OH279192   3.320   6.208   0.611 -0.1003  0.4873 -0.3314
19234TIP3    H179193   3.305   6.237   0.522 -0.7842 -0.5157 -0.5535
19234TIP3    H279194   3.363   6.282   0.654 -2.0511  1.9137 -0.7925
19235TIP3   OH279195   3.903   0.328   2.859 -0.0299  0.5718  0.4671
19235TIP3    H179196   3.872   0.377   2.783 -0.9838 -0.1725  0.3655
19235TIP3    H279197   3.864   0.241   2.850  0.4084  0.2582  1.4410
19236TIP3   OH279198   4.034   4.562   3.961  0.3248 -0.1000 -0.0751
19236TIP3    H179199   4.015   4.622   4.033  0.8813  0.7850 -0.6609
19236TIP3    H279200   4.079   4.488   4.003  0.3435  0.2531  0.5363
19237TIP3   OH279201   3.690   2.304   2.957  0.2767  0.1686 -0.4669
19237TIP3    H179202   3.626   2.294   3.028  0.8720 -0.5908 -0.0191
19237TIP3    H279203   3.664   2.239   2.892 -0.7692  1.4430 -1.3371
19238TIP3   OH279204   5.260   0.051   1.632 -0.0461  0.6083 -0.0049
19238TIP3    H179205   5.213   0.078   1.711  1.2904  1.5108  0.5146
19238TIP3    H279206   5.200  -0.008   1.587 -2.1836  2.7537 -0.0457
19239TIP3   OH279207   1.514   5.614   3.655 -0.3600 -0.2666  0.1252
19239TIP3    H179208   1.438   5.602   3.598 -0.0660 -0.3753 -0.2488
19239TIP3    H279209   1.561   5.688   3.617 -0.2485 -0.2373  0.3201
19240TIP3   OH279210   5.181   4.515   4.720  0.4266  0.0025 -0.0650
19240TIP3    H179211   5.120   4.584   4.693 -0.6205  0.1493  2.5354
19240TIP3    H279212   5.268   4.554   4.710 -0.0775  1.1274 -0.1273
19241TIP3   OH279213   6.528   5.586   4.708  0.4605 -0.1699 -0.0269
19241TIP3    H179214   6.602   5.596   4.649  0.7208  1.5715  0.5720
19241TIP3    H279215   6.564   5.538   4.783 -0.2160 -3.7402 -1.8348
19242TIP3   OH279216   4.917   4.168   5.163  0.3738 -0.5917 -0.4521
19242TIP3    H179217   4.994   4.164   5.220 -0.2449  1.0575  0.5498
19242TIP3    H279218   4.843   4.165   5.224 -0.3557 -2.1230 -1.3988
19243TIP3   OH279219   0.592   1.355   4.189 -0.0698 -0.1832 -0.6200
19243TIP3    H179220   0.649   1.428   4.215  0.8744 -1.5178  1.1794
19243TIP3    H279221   0.512   1.367   4.240  0.2123 -0.5720 -0.0803
19244TIP3   OH279222   6.816   1.036   4.270  0.6307  0.7601 -0.0042
19244TIP3    H179223   6.816   0.950   4.227  1.3089  0.1692  1.1530
19244TIP3    H279224   6.907   1.064   4.268  0.2505  2.0113 -1.4202
19245TIP3   OH279225   0.603   3.709   3.597  0.2156  0.2053 -0.1569
19245TIP3    H179226   0.697   3.693   3.595  0.1004 -0.3885 -0.8991
19245TIP3    H279227   0.593   3.783   3.657  1.1567  0.3166 -0.1271
19246TIP3   OH279228   5.637   5.666   2.594  0.6397  0.4208  0.1902
19246TIP3    H179229   5.632   5.762   2.597 -0.5924  0.3875 -0.2206
19246TIP3    H279230   5.725   5.645   2.624  1.2894  1.7359 -0.7610
19247TIP3   OH279231   4.889   2.888   4.561 -0.7605 -0.4153  0.2658
19247TIP3    H179232   4.942   2.829   4.507 -0.2713 -0.0115  0.3087
19247TIP3    H279233   4.864   2.834   4.637  0.7007 -0.2172  0.9102
19248TIP3   OH279234   7.053   4.883   4.431  0.1342 -0.0958 -0.5022
19248TIP3    H179235   7.132   4.850   4.390  0.1990 -0.7756  0.1644
19248TIP3    H279236   7.006   4.928   4.360  0.7840 -0.2776 -1.0516
19249TIP3   OH279237   5.097   3.036   4.305 -0.4755  0.0998 -0.1167
19249TIP3    H179238   5.189   3.015   4.322 -0.7564 -0.9293  0.1856
19249TIP3    H279239   5.060   2.954   4.272 -1.5223  0.2154  0.7428
19250TIP3   OH279240   3.976   4.000   5.376  0.2771  0.0959  0.1710
19250TIP3    H179241   3.942   4.047   5.299  3.0334 -0.0479 -1.2021
19250TIP3    H279242   4.050   4.053   5.405  1.6020 -1.8352  0.4054
19251TIP3   OH279243   6.802   6.046   3.726  0.5004  0.3519  0.3800
19251TIP3    H179244   6.762   6.129   3.753  1.1242  0.3303  1.4187
19251TIP3    H279245   6.752   6.018   3.650  1.3638  2.5450 -1.0415
19252TIP3   OH279246   1.711   1.536   5.716  0.3316  0.0027 -0.3654
19252TIP3    H179247   1.654   1.572   5.784  0.6577  0.2650 -0.2265
19252TIP3    H279248   1.711   1.442   5.732  0.4017  0.0639 -0.0033
19253TIP3   OH279249   6.025   4.151   6.278 -0.4204  0.2080 -0.4133
19253TIP3    H179250   6.035   4.219   6.211 -1.2895 -0.8298 -1.6065
19253TIP3    H279251   6.113   4.142   6.316  0.1830  0.4694 -1.7264
19254TIP3   OH279252   4.388   4.742   5.821  0.1541  0.0478  0.0538
19254TIP3    H179253   4.402   4.683   5.746 -1.6735  0.5142 -0.6740
19254TIP3    H279254   4.455   4.715   5.884  1.9499 -0.1438 -1.8547
19255TIP3   OH279255   2.363   5.282   4.022  0.4626 -0.6065 -0.1742
19255TIP3    H179256   2.397   5.304   4.108  0.3684 -1.9996  0.2325
19255TIP3    H279257   2.388   5.191   4.008  2.7955  0.3593 -2.7675
19256TIP3   OH279258   0.680   2.973   4.285  0.1034  0.1339  0.1677
19256TIP3    H179259   0.725   2.910   4.229  0.9649  0.0839  0.9054
19256TIP3    H279260   0.702   2.945   4.374 -0.7963  0.5445  0.5209
19257TIP3   OH279261   4.240   3.573   3.492 -0.4649  0.1712  0.0071
19257TIP3    H179262   4.289   3.514   3.435 -2.1253 -0.5571 -0.7072
19257TIP3    H279263   4.212   3.645   3.435  1.0301  1.3448  0.7396
19258TIP3   OH279264   6.827   2.610   1.953 -0.3689  0.3200  0.0840
19258TIP3    H179265   6.842   2.575   1.865 -0.7714  0.4976 -0.0571
19258TIP3    H279266   6.880   2.690   1.957  0.7348 -0.4289  0.4900
19259TIP3   OH279267   1.754   1.054   1.435  0.0358 -0.1747  0.6023
19259TIP3    H179268   1.670   1.099   1.444  0.1043 -0.2460  1.6494
19259TIP3    H279269   1.809   1.093   1.503 -0.3938 -2.9598  2.5816
19260TIP3   OH279270   2.532   6.888   6.049 -1.0359 -0.3530 -0.2766
19260TIP3    H179271   2.494   6.953   6.109 -0.5286 -1.3167  1.1012
19260TIP3    H279272   2.456   6.852   6.003 -1.7122 -1.2367  1.4436
19261TIP3   OH279273   5.580   6.861   4.571  0.3359  0.5944  0.0891
19261TIP3    H179274   5.662   6.818   4.547  0.0449  1.0907 -1.9704
19261TIP3    H279275   5.602   6.954   4.576 -0.3088  0.8782 -1.6967
19262TIP3   OH279276   4.590   0.047   3.625 -0.3816 -0.1906 -0.5312
19262TIP3    H179277   4.631  -0.038   3.643  0.6635  0.3887 -0.1674
19262TIP3    H279278   4.663   0.108   3.616 -1.1830  1.3010  2.3570
19263TIP3   OH279279   3.473   2.121   4.532 -0.0850  0.8823  0.6036
19263TIP3    H179280   3.386   2.106   4.568  0.8843 -2.2425  1.8128
19263TIP3    H279281   3.457   2.154   4.443 -2.5076 -2.0024 -0.0875
19264TIP3   OH279282   1.790   3.821   0.010  0.4906 -0.2345 -0.0573
19264TIP3    H179283   1.727   3.782   0.070  0.0371  0.4280 -0.0976
19264TIP3    H279284   1.741   3.892  -0.034  0.7633 -0.8130 -1.3208
19265TIP3   OH279285   4.930   4.699   4.593 -0.0591 -0.3875 -0.1515
19265TIP3    H179286   4.846   4.676   4.633 -0.7251 -0.6748 -1.6781
19265TIP3    H279287   4.951   4.624   4.537  1.7515 -0.7897  1.0000
19266TIP3   OH279288   1.419   1.962   5.590  0.5156 -0.4715 -0.1027
19266TIP3    H179289   1.475   1.888   5.612 -0.0824 -0.6026  1.0605
19266TIP3    H279290   1.477   2.025   5.548  1.3983 -0.8643  0.5165
19267TIP3   OH279291   1.591   4.077   4.789  0.2666 -0.3386 -0.4948
19267TIP3    H179292   1.583   4.126   4.871  1.8837 -1.3129  0.2684
19267TIP3    H279293   1.501   4.066   4.759 -0.3142  0.4419  0.9178
19268TIP3   OH279294   6.896   3.681   5.130  0.6150  0.2431 -0.3896
19268TIP3    H179295   6.849   3.653   5.051 -0.7667 -0.2783  0.6031
19268TIP3    H279296   6.987   3.658   5.112  0.3619  0.3509 -1.9292
19269TIP3   OH279297   3.366   4.611   2.378  0.2780 -0.0025  0.8431
19269TIP3    H179298   3.376   4.533   2.433  0.2196  0.7867  1.9908
19269TIP3    H279299   3.338   4.680   2.439  0.4587  0.9476 -0.1333
19270TIP3   OH279300   2.112   3.390   0.484 -0.1005  0.7092 -0.0039
19270TIP3    H179301   2.113   3.412   0.391 -0.3491  3.8223  0.6747
19270TIP3    H279302   2.204   3.396   0.511 -0.0495 -0.0298 -0.0016
19271TIP3   OH279303   2.034   4.223   2.660  0.3671 -0.3012 -0.2899
19271TIP3    H179304   2.049   4.225   2.566 -0.2312  1.1677 -0.3657
19271TIP3    H279305   1.939   4.226   2.669  0.4133 -0.6151  0.3708
19272TIP3   OH279306   5.871   2.880   1.529 -0.5727  0.3878 -0.2701
19272TIP3    H179307   5.863   2.872   1.624 -0.1866 -0.7345 -0.3306
19272TIP3    H279308   5.802   2.826   1.493  1.4115 -1.9868 -0.6525
19273TIP3   OH279309   3.702   5.226   2.546 -0.3167  0.0851 -0.2318
19273TIP3    H179310   3.724   5.283   2.619  1.8204  1.2682 -1.7511
19273TIP3    H279311   3.784   5.213   2.499 -0.6944 -4.3507  0.0786
19274TIP3   OH279312   5.339   5.902   5.550  0.2322  0.1137  0.2008
19274TIP3    H179313   5.323   5.926   5.642 -0.5466 -0.7624  0.3011
19274TIP3    H279314   5.395   5.972   5.517  0.6346  0.3776  1.3858
19275TIP3   OH279315   5.166   2.052   5.197  0.9132  0.6646 -0.0857
19275TIP3    H179316   5.239   1.998   5.227 -0.5650 -1.1233  0.3597
19275TIP3    H279317   5.123   2.080   5.277 -0.6608 -0.7947 -0.3930
19276TIP3   OH279318   0.044   0.647   2.922  0.3163 -0.3838 -0.1490
19276TIP3    H179319   0.062   0.711   2.853  3.0895 -0.3306  0.5396
19276TIP3    H279320  -0.050   0.653   2.936  0.2374  2.2579 -1.3554
19277TIP3   OH279321   4.774   6.674   3.810 -0.6238  0.2123 -0.1637
19277TIP3    H179322   4.839   6.670   3.740  0.1965 -0.8092  0.6355
19277TIP3    H279323   4.762   6.768   3.826  0.1993  0.4223 -0.7344
19278TIP3   OH279324   6.473   4.224   6.264 -0.3193  0.2049 -0.2023
19278TIP3    H179325   6.567   4.232   6.246 -0.3528  1.6425  0.2701
19278TIP3    H279326   6.438   4.312   6.251 -1.1586  0.2496  2.2707
19279TIP3   OH279327   1.003   3.049   2.534  0.3103  0.2361 -0.6604
19279TIP3    H179328   1.064   2.998   2.587  0.2845 -0.6929 -1.5077
19279TIP3    H279329   0.920   3.001   2.540 -0.3817  1.5549  0.5842
19280TIP3   OH279330   0.870   3.323   3.742 -0.2355 -0.4544  0.4518
19280TIP3    H179331   0.849   3.411   3.775 -0.5642  0.4938 -2.1178
19280TIP3    H279332   0.924   3.339   3.665 -1.1540 -2.4836 -0.6536
19281TIP3   OH279333   3.527   5.021   2.588 -0.0462  0.5898  0.1804
19281TIP3    H179334   3.604   5.077   2.585 -1.0111  1.8566 -1.7848
19281TIP3    H279335   3.466   5.067   2.646  0.1281  0.2718  0.6242
19282TIP3   OH279336   1.812   5.655   4.015  0.5997 -0.8084  0.4949
19282TIP3    H179337   1.748   5.585   4.026 -0.8686  0.5151  0.6232
19282TIP3    H279338   1.817   5.668   3.920 -1.3150  0.8278  0.5760
19283TIP3   OH279339   3.339   0.673   1.317  0.0124 -0.6766  0.0874
19283TIP3    H179340   3.331   0.721   1.399 -0.0109  1.8286 -1.3292
19283TIP3    H279341   3.428   0.639   1.318  0.4950  0.5521  0.5472
19284TIP3   OH279342   5.937   6.683   5.884  0.3931  0.0517 -0.8286
19284TIP3    H179343   5.926   6.658   5.793  0.5158 -1.1842 -0.5238
19284TIP3    H279344   5.869   6.634   5.931  0.3118  0.6959 -0.2623
19285TIP3   OH279345   6.215   6.537   4.268 -0.0507  0.0295  0.0873
19285TIP3    H179346   6.270   6.478   4.217  1.9911  2.2103 -0.3419
19285TIP3    H279347   6.197   6.610   4.208 -0.2555  1.1202  1.4529
19286TIP3   OH279348   5.291   2.620   5.814  0.1602 -0.4640  0.1103
19286TIP3    H179349   5.375   2.665   5.811 -0.0316 -0.0694  0.5143
19286TIP3    H279350   5.228   2.690   5.833 -0.0394 -1.0329  1.6343
19287TIP3   OH279351   0.100   0.138  14.777 -0.2182  0.1613  0.1678
19287TIP3    H179352   0.032   0.205  14.791 -4.2259 -3.4485 -0.9888
19287TIP3    H279353   0.134   0.158  14.689 -3.1239 -0.6675 -1.2214
19288TIP3   OH279354   6.995   5.757   4.470  0.8684  0.3091  0.6907
19288TIP3    H179355   6.965   5.737   4.559  0.9847  0.6631  0.8113
19288TIP3    H279356   6.934   5.710   4.413  0.9794 -0.1738  0.9612
19289TIP3   OH279357   6.637   3.595   5.621 -0.0947  0.3718 -0.1072
19289TIP3    H179358   6.716   3.557   5.659  0.8818  3.3905  1.0670
19289TIP3    H279359   6.667   3.634   5.538 -0.4479  0.9933  0.0526
19290TIP3   OH279360   6.933   4.290   5.015 -0.5441 -0.4587  0.2282
19290TIP3    H179361   6.934   4.374   4.968  1.9815 -0.4061  0.3071
19290TIP3    H279362   6.912   4.314   5.106  1.0860  0.2044  0.4415
19291TIP3   OH279363   4.157   3.454   4.775 -0.6558 -0.1058 -0.7807
19291TIP3    H179364   4.107   3.462   4.694 -0.4542  0.9030 -0.8136
19291TIP3    H279365   4.092   3.459   4.844 -0.7086  0.2155 -0.8515
19292TIP3   OH279366   5.625   4.800   4.097 -0.2343 -0.3069  0.4313
19292TIP3    H179367   5.544   4.852   4.092  0.7076  1.1252  0.0089
19292TIP3    H279368   5.627   4.752   4.014 -0.6708 -0.3800  0.4609
19293TIP3   OH279369   6.988   0.310   3.512 -0.4111 -0.5636  0.4630
19293TIP3    H179370   7.059   0.249   3.494  0.1464  0.2402 -0.1314
19293TIP3    H279371   6.991   0.324   3.607 -0.3997 -1.2819  0.5685
19294TIP3   OH279372   2.647   0.487   4.616 -0.1112 -0.1138 -0.0248
19294TIP3    H179373   2.727   0.532   4.641 -0.0141  0.0065 -0.5463
19294TIP3    H279374   2.656   0.399   4.652 -0.7306  0.5655  1.8247
19295TIP3   OH279375   5.745   2.030   4.129 -0.1948 -0.0040  0.0151
19295TIP3    H179376   5.816   2.048   4.190 -0.9554  1.1285  0.5990
19295TIP3    H279377   5.674   2.088   4.157 -1.1881 -0.7736 -0.8361
19296TIP3   OH279378   4.685   5.455   0.044  0.0276 -0.1727  0.3441
19296TIP3    H179379   4.670   5.548   0.060  1.1591 -0.2629  1.9820
19296TIP3    H279380   4.736   5.425   0.119 -0.8337 -2.2581  0.1296
19297TIP3   OH279381   2.548   3.262   2.968  0.1162  0.0550 -0.0315
19297TIP3    H179382   2.534   3.319   2.892 -0.1511  1.2658  0.9186
19297TIP3    H279383   2.525   3.174   2.936 -2.3891  0.9044 -0.6642
19298TIP3   OH279384   4.775   0.191   3.479  0.4468  0.6135  0.3449
19298TIP3    H179385   4.734   0.146   3.405  0.3987  1.1555  0.0363
19298TIP3    H279386   4.729   0.275   3.484  1.7820  1.3999 -0.2605
19299TIP3   OH279387   5.945   5.193   1.001  0.1849  0.2184  0.4043
19299TIP3    H179388   6.008   5.199   1.072 -1.4287  2.1380  1.7323
19299TIP3    H279389   5.892   5.273   1.009 -0.1912  0.3597 -2.7948
19300TIP3   OH279390   6.153   6.612   4.805  0.9033 -0.6424  0.2707
19300TIP3    H179391   6.194   6.526   4.816  2.9723  0.2213 -0.4030
19300TIP3    H279392   6.072   6.607   4.856  0.2233 -3.4993 -1.0195
19301TIP3   OH279393   4.960   3.769   3.424 -0.5736  0.5333  0.4746
19301TIP3    H179394   4.873   3.761   3.463 -0.6282 -1.9072 -0.0606
19301TIP3    H279395   5.015   3.802   3.494 -1.2860 -1.0018  1.7992
19302TIP3   OH279396   2.733   1.942   5.623  0.1638  0.2460 -0.1225
19302TIP3    H179397   2.702   1.885   5.694  1.5351  0.3228  0.5428
19302TIP3    H279398   2.653   1.981   5.587 -0.6033 -0.4199  0.8474
19303TIP3   OH279399   5.862   2.992   5.100  0.0172  0.0923  0.0095
19303TIP3    H179400   5.803   2.965   5.171 -1.1800  0.0282 -1.0021
19303TIP3    H279401   5.876   2.912   5.049 -1.4867  0.7863 -1.5139
19304TIP3   OH279402   4.654   3.381   5.867  0.1265  0.5248  0.1500
19304TIP3    H179403   4.688   3.345   5.785 -2.3097  2.9610 -2.0526
19304TIP3    H279404   4.663   3.476   5.857 -1.7525  0.9318  1.9683
19305TIP3   OH279405   0.625   3.468   5.316  0.5439  0.0093 -0.4378
19305TIP3    H179406   0.567   3.404   5.275 -1.3219  1.6572 -0.4565
19305TIP3    H279407   0.713   3.437   5.296 -0.3264 -1.8335 -1.5405
19306TIP3   OH279408   3.507   7.136   5.408  0.3059  0.5369 -0.0361
19306TIP3    H179409   3.513   7.084   5.489  2.3495  1.5450  0.4944
19306TIP3    H279410   3.509   7.071   5.338 -2.1598 -0.4014  0.6835
19307TIP3   OH279411   7.164   1.326   3.686  0.2982  0.2364  0.6800
19307TIP3    H179412   7.111   1.393   3.729 -2.1072 -0.6679 -0.7613
19307TIP3    H279413   7.138   1.244   3.729 -0.6423 -0.4154 -1.0812
19308TIP3   OH279414   5.783   5.467   5.276  0.3266  0.9674  0.3377
19308TIP3    H179415   5.877   5.472   5.259  0.3125  2.3156  0.6118
19308TIP3    H279416   5.765   5.373   5.283  1.3961  0.6421 -1.0771
19309TIP3   OH279417   0.484   7.126   4.686  0.2257  0.3747  0.2380
19309TIP3    H179418   0.438   7.101   4.766  1.1872  4.8152  2.3125
19309TIP3    H279419   0.557   7.065   4.680  0.8794  0.7410  3.5137
19310TIP3   OH279420   0.521   5.541   5.771 -0.4116  0.7307  0.1496
19310TIP3    H179421   0.433   5.509   5.789 -0.3803  0.6172  0.0993
19310TIP3    H279422   0.576   5.502   5.839 -0.0859 -0.6618 -0.9016
19311TIP3   OH279423   5.745   3.606   3.907 -0.0184  0.2555 -0.7118
19311TIP3    H179424   5.829   3.635   3.872  0.2235 -0.3104 -0.5964
19311TIP3    H279425   5.680   3.660   3.861  0.2830 -0.5852 -2.1398
19312TIP3   OH279426   6.850   1.940   2.372  0.3871 -0.4946  0.1748
19312TIP3    H179427   6.876   1.887   2.448  1.2128 -0.3015  0.0318
19312TIP3    H279428   6.929   1.989   2.349 -0.2769  0.5518  0.0962
19313TIP3   OH279429   2.279   7.152   4.332  0.7158 -0.0040 -0.2467
19313TIP3    H179430   2.203   7.127   4.383  0.1490 -0.4139 -1.2826
19313TIP3    H279431   2.269   7.247   4.319 -1.0817 -0.5000 -2.7326
19314TIP3   OH279432   4.453   4.238   5.088 -0.5731  0.8003  0.2231
19314TIP3    H179433   4.439   4.278   5.002 -1.3059  0.9334  0.3957
19314TIP3    H279434   4.519   4.171   5.074 -1.6832 -0.0996 -0.7103
19315TIP3   OH279435   1.361   7.153   4.857 -0.2522 -0.0342 -0.2585
19315TIP3    H179436   1.277   7.107   4.861 -0.8098  0.8907 -0.8568
19315TIP3    H279437   1.413   7.103   4.794 -1.2852  0.7912 -1.8279
19316TIP3   OH279438   0.421   5.048   4.717  0.4057  0.0025 -0.0733
19316TIP3    H179439   0.350   5.066   4.655 -0.2525 -0.2833  0.5837
19316TIP3    H279440   0.397   5.100   4.795  1.0703  0.1317  0.0425
19317TIP3   OH279441   2.188   0.950   4.327  1.1603  0.0226  0.0413
19317TIP3    H179442   2.204   1.044   4.322  2.0927 -0.1560 -0.4568
19317TIP3    H279443   2.229   0.924   4.410 -0.8383  0.3770  1.1797
19318TIP3   OH279444   1.781   4.820   5.232  0.2077 -0.4273  0.1251
19318TIP3    H179445   1.760   4.750   5.294 -1.2686 -0.2105 -0.1022
19318TIP3    H279446   1.718   4.809   5.161  1.1974 -0.0241 -0.8251
19319TIP3   OH279447   0.802   6.681   4.337 -0.1878  0.3069  0.2617
19319TIP3    H179448   0.897   6.677   4.327 -0.2399  0.6193 -0.4055
19319TIP3    H279449   0.772   6.591   4.325  0.1357  0.0114  1.6654
19320TIP3   OH279450   0.367   0.745   1.703  0.2841 -0.3267 -0.5048
19320TIP3    H179451   0.429   0.717   1.636  0.4952  1.0810 -0.9102
19320TIP3    H279452   0.356   0.668   1.759  0.6160 -1.3009 -1.7670
19321TIP3   OH279453   0.097   0.603   0.531 -0.1083 -0.0629 -0.3614
19321TIP3    H179454   0.127   0.661   0.601 -0.9121  0.1670 -0.2090
19321TIP3    H279455   0.005   0.626   0.518 -0.2803 -0.9251 -0.6805
19322TIP3   OH279456   5.314   5.564   0.939  0.5674 -0.2268 -0.3776
19322TIP3    H179457   5.399   5.522   0.944  0.9429  0.4731 -0.7667
19322TIP3    H279458   5.263   5.509   0.879  1.3480  0.3597 -1.6075
19323TIP3   OH279459   4.699   4.973   3.123  0.0550  0.4292  0.3606
19323TIP3    H179460   4.760   4.969   3.049  0.9893  0.5968  1.1001
19323TIP3    H279461   4.756   4.982   3.200 -0.9357  1.2939  1.0116
19324TIP3   OH279462   2.876   4.253   3.145 -0.2338 -0.6249  0.3446
19324TIP3    H179463   2.804   4.304   3.108 -0.7633 -1.5453  0.0661
19324TIP3    H279464   2.926   4.315   3.198 -0.7785  0.1997 -0.0957
19325TIP3   OH279465   5.020   5.671   4.464  0.3125  0.4456 -0.2733
19325TIP3    H179466   4.991   5.736   4.528 -0.0115 -0.4674  0.5205
19325TIP3    H279467   4.956   5.677   4.393 -0.8400 -0.3686  0.6887
19326TIP3   OH279468   6.681   5.687   3.186 -0.1268 -0.5033 -0.1004
19326TIP3    H179469   6.657   5.598   3.210 -1.8923  0.6742  2.7651
19326TIP3    H279470   6.768   5.700   3.225  0.6458 -1.3335 -1.5217
19327TIP3   OH279471   6.904   5.973   5.257 -0.1561 -0.1632 -0.4078
19327TIP3    H179472   6.979   5.915   5.243 -1.1635 -1.0373 -2.2357
19327TIP3    H279473   6.942   6.061   5.252  1.0587 -0.6117  0.5523
19328TIP3   OH279474   0.271   5.455   2.956  0.0312 -0.0105  0.1780
19328TIP3    H179475   0.264   5.544   2.921 -0.7431 -0.0515  0.2327
19328TIP3    H279476   0.365   5.442   2.967  0.1212  1.0357  0.7543
19329TIP3   OH279477   2.413   0.331   4.713 -0.5490 -0.0054  0.2772
19329TIP3    H179478   2.446   0.392   4.647 -1.7941  0.5995  0.1946
19329TIP3    H279479   2.469   0.345   4.789 -0.1222  0.4420 -0.1125
19330TIP3   OH279480   0.463   6.782   4.167  0.5577  0.6255  0.4970
19330TIP3    H179481   0.420   6.702   4.199 -0.9470  1.3456  0.3202
19330TIP3    H279482   0.525   6.751   4.100 -0.8838 -0.2983 -0.4335
19331TIP3   OH279483   4.284   0.357   3.993 -0.1909 -0.0515 -0.0075
19331TIP3    H179484   4.230   0.363   3.914  0.2172  3.4356 -0.1256
19331TIP3    H279485   4.354   0.296   3.971 -0.7519 -0.0238 -1.9244
19332TIP3   OH279486   6.917   3.841   4.849 -0.3062 -0.6015 -0.3855
19332TIP3    H179487   6.883   3.927   4.822 -0.2565 -0.2443  0.6601
19332TIP3    H279488   6.851   3.779   4.818  0.4388 -0.3564 -2.6018
19333TIP3   OH279489   0.242   5.173   5.280  0.6993 -0.0194 -0.4346
19333TIP3    H179490   0.273   5.110   5.344  1.3052  0.9318  0.2234
19333TIP3    H279491   0.148   5.158   5.274  0.6621 -0.1897  0.5935
19334TIP3   OH279492   6.705   4.356   5.807 -0.4013 -0.3621 -0.3467
19334TIP3    H179493   6.677   4.365   5.898 -1.3692  0.9929 -0.7608
19334TIP3    H279494   6.718   4.446   5.777  0.2061 -0.8093 -1.4627
19335TIP3   OH279495   0.305   6.810   5.070 -0.1402 -0.3953  0.2382
19335TIP3    H179496   0.391   6.800   5.112 -0.6674 -2.7787  0.8097
19335TIP3    H279497   0.248   6.752   5.119 -1.8175  0.2395 -0.9421
19336TIP3   OH279498   3.676   4.726   4.092 -0.1453 -0.6999  0.2986
19336TIP3    H179499   3.679   4.631   4.102  0.2210 -0.6804  0.4133
19336TIP3    H279500   3.727   4.759   4.166  1.7884 -0.5154 -1.0702
19337TIP3   OH279501   1.785   0.234   3.746 -0.3944 -0.1860  0.5360
19337TIP3    H179502   1.810   0.176   3.818  4.5418  0.0109 -0.8500
19337TIP3    H279503   1.751   0.313   3.789 -0.0431 -1.1163  2.5736
19338TIP3   OH279504   0.482   6.098   1.848  1.0011  0.2920 -0.1661
19338TIP3    H179505   0.475   6.057   1.934  0.3493  0.7051 -0.0117
19338TIP3    H279506   0.431   6.041   1.790 -1.1831  1.6404  0.3426
19339TIP3   OH279507   3.580   6.999   5.637 -0.1909  0.2115  0.3970
19339TIP3    H179508   3.511   7.011   5.703 -1.2210 -1.2013 -0.3994
19339TIP3    H279509   3.613   6.910   5.653 -0.2469 -0.0290 -0.8050
19340TIP3   OH279510   0.981   4.899   4.776  0.6191 -0.2029 -0.3700
19340TIP3    H179511   1.020   4.976   4.817 -0.3832 -0.5476  1.2851
19340TIP3    H279512   0.887   4.916   4.778  0.4372 -1.1201 -0.6929
19341TIP3   OH279513   0.752   4.866   5.350  0.6426  0.2027 -0.5227
19341TIP3    H179514   0.799   4.837   5.428 -0.6667  0.0814  0.2244
19341TIP3    H279515   0.819   4.908   5.296  1.6186 -0.0305  0.4992
19342TIP3   OH279516   3.919   6.984   2.856  0.0746 -0.0476 -0.0695
19342TIP3    H179517   3.902   7.028   2.773 -0.8611 -0.1534  0.0651
19342TIP3    H279518   4.014   6.979   2.861  0.1438  0.2959 -0.9597
19343TIP3   OH279519   3.841   6.008   3.071 -0.4553 -0.0219  0.5244
19343TIP3    H179520   3.777   6.003   3.142 -2.0914  1.0843 -0.8152
19343TIP3    H279521   3.872   5.918   3.060 -1.2124 -0.4366  1.7273
19344TIP3   OH279522   1.857   3.619   5.053 -0.3433 -0.0375 -0.2009
19344TIP3    H179523   1.914   3.558   5.007  2.3113  2.0513  0.2046
19344TIP3    H279524   1.815   3.670   4.983  0.4063  0.2632 -0.4325
19345TIP3   OH279525   6.554   5.057   4.776  0.0230  0.1361  0.2367
19345TIP3    H179526   6.614   5.075   4.848  0.2144  0.5002 -0.0160
19345TIP3    H279527   6.583   5.113   4.705 -0.2425 -0.1329 -0.0876
19346TIP3   OH279528   6.956   4.239   5.735 -0.0452 -0.6366 -0.1983
19346TIP3    H179529   6.877   4.288   5.757 -0.8017 -0.9162 -2.1411
19346TIP3    H279530   6.948   4.157   5.783 -0.3928 -0.2231  0.4630
19347TIP3   OH279531   5.761   0.979   5.254 -0.2077 -0.9013 -0.3747
19347TIP3    H179532   5.734   0.999   5.344 -2.9701 -1.3136 -1.0723
19347TIP3    H279533   5.857   0.984   5.256 -0.2580 -0.3289  2.4454
19348TIP3   OH279534   6.092   0.991   1.106  0.6407  0.5815  0.0206
19348TIP3    H179535   6.160   1.031   1.160  0.7061  1.2104 -0.5151
19348TIP3    H279536   6.112   0.897   1.108  0.9474  0.6578  0.6605
19349TIP3   OH279537   2.237   3.078   3.649 -0.5943 -0.6716 -0.2151
19349TIP3    H179538   2.226   3.135   3.573 -0.1627  0.2954  0.4343
19349TIP3    H279539   2.163   3.018   3.646 -0.3764 -0.8788 -1.6055
19350TIP3   OH279540   5.716   1.080   5.504  0.2281  0.0399  0.3954
19350TIP3    H179541   5.726   1.174   5.521  1.4023 -0.3102  1.7497
19350TIP3    H279542   5.805   1.045   5.508 -0.3467 -1.3713  1.3941
19351TIP3   OH279543   2.259   4.504   4.682  0.0278  0.1111 -0.3676
19351TIP3    H179544   2.178   4.465   4.715  0.8745 -0.8951  0.5138
19351TIP3    H279545   2.303   4.538   4.760  2.5456 -3.2125 -0.2709
19352TIP3   OH279546   3.672   1.544   2.002 -0.1028  0.0943 -0.6108
19352TIP3    H179547   3.672   1.456   2.038 -1.6416  0.7239  1.0170
19352TIP3    H279548   3.760   1.578   2.020  1.1114 -1.7149 -2.8948
19353TIP3   OH279549   1.913   5.341   5.715  0.0974 -0.8346 -0.3584
19353TIP3    H179550   1.978   5.392   5.764 -1.5244 -0.0534  1.0376
19353TIP3    H279551   1.898   5.264   5.770  0.1550 -1.2107 -0.8751
19354TIP3   OH279552   3.223   4.355   5.318  0.1609 -0.1429  0.3958
19354TIP3    H179553   3.257   4.331   5.232  0.6831  0.5230  0.4027
19354TIP3    H279554   3.296   4.339   5.378  1.3810  3.6056  0.0732
19355TIP3   OH279555   1.076   6.992   4.188 -0.7250 -0.2372  0.1221
19355TIP3    H179556   0.998   6.941   4.165 -0.7721 -0.3675  0.5634
19355TIP3    H279557   1.047   7.050   4.258 -0.2752 -0.7176  0.7157
19356TIP3   OH279558   5.048   3.084   4.674 -0.0165  1.0220  0.7207
19356TIP3    H179559   5.005   3.170   4.671 -0.5237  0.7345 -0.4752
19356TIP3    H279560   4.979   3.022   4.651  0.4896  0.3451  1.0196
19357TIP3   OH279561   4.723   4.310   3.841 -0.2739 -0.0524 -0.0922
19357TIP3    H179562   4.801   4.256   3.856  0.2520  0.2830 -1.5645
19357TIP3    H279563   4.677   4.266   3.769 -1.4665 -0.2539  0.7635
19358TIP3   OH279564   4.244   3.592   4.087 -0.2988 -1.2278  0.3772
19358TIP3    H179565   4.229   3.553   4.001 -0.2519 -0.5313  0.0530
19358TIP3    H279566   4.279   3.679   4.068 -4.7179  0.8356  0.9978
19359TIP3   OH279567   4.645   6.763   5.125 -0.2846  0.2770  0.3980
19359TIP3    H179568   4.647   6.689   5.186  2.8594  0.8275  1.0265
19359TIP3    H279569   4.643   6.723   5.038 -0.5611 -0.5283  0.7689
19360TIP3   OH279570   6.217   2.756   2.333  0.5992  0.6421  0.1682
19360TIP3    H179571   6.283   2.826   2.332  0.8116  0.4782 -2.6745
19360TIP3    H279572   6.138   2.798   2.298  0.4270 -0.2630 -0.5285
19361TIP3   OH279573   5.410   2.959   3.337  0.2423  0.4818  0.1018
19361TIP3    H179574   5.413   2.893   3.406  0.0643  0.4057  0.0378
19361TIP3    H279575   5.411   3.043   3.384  1.9138  0.4580  0.1276
19362TIP3   OH279576   0.431   5.906   5.446  0.7765 -0.4355  0.6844
19362TIP3    H179577   0.377   5.828   5.452  0.1581  0.0796  1.9897
19362TIP3    H279578   0.507   5.888   5.502  0.0190  0.3712  2.0003
19363TIP3   OH279579   4.855   1.799   5.804 -0.3201 -0.5628 -0.7610
19363TIP3    H179580   4.888   1.835   5.722  2.4528 -0.1659  0.4498
19363TIP3    H279581   4.810   1.872   5.846 -0.3021 -0.3157 -1.1670
19364TIP3   OH279582   6.588   1.480   5.230 -0.1268  0.1309 -0.4634
19364TIP3    H179583   6.541   1.523   5.159  0.6041  3.1126  0.7859
19364TIP3    H279584   6.522   1.471   5.300  0.5138  2.1049  0.4099
19365TIP3   OH279585   1.547   6.558   5.745 -0.5097 -0.0059 -0.1914
19365TIP3    H179586   1.588   6.491   5.691 -2.4475 -0.0340 -1.6922
19365TIP3    H279587   1.488   6.511   5.803 -2.0195  0.3595 -1.3797
19366TIP3   OH279588   5.053   6.981   1.112  0.8797  0.4704  0.2255
19366TIP3    H179589   4.980   6.924   1.139 -1.8081  2.1702 -3.0768
19366TIP3    H279590   5.051   7.052   1.176  0.6751 -0.2672  1.0693
19367TIP3   OH279591   6.427   6.715   4.304 -0.1895 -0.2783 -0.3916
19367TIP3    H179592   6.353   6.655   4.301 -0.6929  0.3560 -0.9073
19367TIP3    H279593   6.430   6.753   4.216 -1.1410  1.9543  0.5171
19368TIP3   OH279594   0.694   2.102   5.815  0.0689 -0.4376  1.1126
19368TIP3    H179595   0.613   2.106   5.763  0.9925  0.5854 -0.2771
19368TIP3    H279596   0.743   2.029   5.777  1.0552  0.7568  0.0776
19369TIP3   OH279597   4.263   0.731   5.150 -0.3945 -0.1109  0.0405
19369TIP3    H179598   4.285   0.650   5.195 -0.2051 -1.4182 -2.3218
19369TIP3    H279599   4.347   0.767   5.123 -0.4793  0.8657  1.0810
19370TIP3   OH279600   0.670   6.401   4.287  0.4615 -0.4953  0.3912
19370TIP3    H179601   0.652   6.406   4.193 -1.4353  1.3363  0.8186
19370TIP3    H279602   0.585   6.383   4.327  1.4619 -2.4341  1.6813
19371TIP3   OH279603   1.047   5.554   4.066 -0.1726 -0.8046  0.0494
19371TIP3    H179604   1.014   5.556   3.976  1.3483 -0.1239 -0.5040
19371TIP3    H279605   1.130   5.507   4.061 -0.0901 -0.8045  1.1255
19372TIP3   OH279606   4.096   7.141   1.932  0.0260  0.4029 -0.0578
19372TIP3    H179607   4.054   7.167   1.849 -0.9674 -0.3029  0.2109
19372TIP3    H279608   4.024   7.139   1.995  0.5216 -0.5679  0.4753
19373TIP3   OH279609   6.170   2.686   2.620  0.0458  0.3619  0.3859
19373TIP3    H179610   6.201   2.746   2.552  0.3274  1.2543  1.2767
19373TIP3    H279611   6.077   2.708   2.630 -0.1124 -0.1132 -0.0666
19374TIP3   OH279612   0.347   5.057   3.880  0.5155  0.4602 -0.1465
19374TIP3    H179613   0.362   5.127   3.816  0.3884  0.3538 -0.2950
19374TIP3    H279614   0.287   4.997   3.835 -1.3496  1.5078  0.8858
19375TIP3   OH279615   2.967   0.973   2.558  0.4187 -0.6734  0.2297
19375TIP3    H179616   2.951   0.978   2.652  0.3042  0.5298  0.1538
19375TIP3    H279617   3.047   1.022   2.545 -0.6553  0.9177 -0.5585
19376TIP3   OH279618   6.099   6.048   4.253 -0.3287 -0.1761  0.2506
19376TIP3    H179619   6.004   6.043   4.262 -0.2756 -0.8916  0.4634
19376TIP3    H279620   6.113   6.112   4.183 -0.9928 -0.6362 -0.3153
19377TIP3   OH279621   0.975   7.147   5.190  0.1218  0.2146  0.1599
19377TIP3    H179622   0.938   7.060   5.173 -0.6349 -0.0788  3.0655
19377TIP3    H279623   0.961   7.195   5.109 -0.2546 -2.1091 -1.1930
19378TIP3   OH279624   1.106   6.025   2.333 -0.1997  0.6338  0.3992
19378TIP3    H179625   1.046   5.956   2.360 -1.2303  0.8370 -1.2945
19378TIP3    H279626   1.133   6.001   2.244 -0.7906  2.4953 -0.3283
19379TIP3   OH279627   7.144   3.161   5.447 -0.2669 -0.1545 -0.2370
19379TIP3    H179628   7.166   3.199   5.532  1.4406 -1.9367  0.1432
19379TIP3    H279629   7.071   3.214   5.415  0.7087  2.0879  1.2034
19380TIP3   OH279630   0.335   6.049   3.604  0.4204 -0.1570  0.2921
19380TIP3    H179631   0.282   5.980   3.643  1.4963 -0.1482  1.7856
19380TIP3    H279632   0.313   6.045   3.511 -0.0592 -2.0283  0.4625
19381TIP3   OH279633   6.569   1.580   5.691 -0.5813 -0.0245  0.3402
19381TIP3    H179634   6.638   1.514   5.696 -0.6780 -0.2205 -0.8402
19381TIP3    H279635   6.499   1.546   5.747  0.0739 -0.0660  1.1414
19382TIP3   OH279636   1.315   5.643   4.592 -0.3268  0.3610 -0.0900
19382TIP3    H179637   1.242   5.704   4.580 -1.3854 -0.5864  1.3834
19382TIP3    H279638   1.301   5.606   4.679  0.6059 -1.5716 -0.7339
19383TIP3   OH279639   5.261   5.611   5.456 -0.0866 -0.1083 -0.4978
19383TIP3    H179640   5.279   5.691   5.506 -1.7173 -0.6965  1.0808
19383TIP3    H279641   5.189   5.635   5.399 -1.0759 -0.6474  0.5114
19384TIP3   OH279642   2.528   6.015   5.723 -0.1420 -0.4423 -0.1530
19384TIP3    H179643   2.478   5.975   5.793  0.8363 -0.5040  0.5159
19384TIP3    H279644   2.574   6.089   5.764 -0.2598  0.0713 -0.9130
19385TIP3   OH279645   1.102   3.171   4.447 -0.4183  0.7742  0.0113
19385TIP3    H179646   1.094   3.076   4.443 -0.5101  0.8031 -0.5272
19385TIP3    H279647   1.077   3.194   4.537 -3.6776  0.5992 -0.7676
19386TIP3   OH279648   7.044   6.444   5.030  0.2352  0.3863  0.4170
19386TIP3    H179649   7.052   6.525   4.979  0.0045  0.6442  0.7880
19386TIP3    H279650   7.009   6.472   5.115 -0.5495 -0.1862  0.2935
19387TIP3   OH279651   1.833   6.237   5.859  0.0666 -0.1108 -0.1779
19387TIP3    H179652   1.751   6.202   5.825  0.1009 -0.7229  0.3829
19387TIP3    H279653   1.817   6.331   5.866 -0.7594 -0.2905  0.4138
19388TIP3   OH279654   1.528   4.939   2.027  0.4153 -0.2879 -0.1685
19388TIP3    H179655   1.469   4.892   1.969 -0.5374  0.0038  0.5528
19388TIP3    H279656   1.520   4.893   2.111  0.3721  0.4294  0.2268
19389TIP3   OH279657   6.168   7.040   5.167 -0.1707 -0.0650  0.0664
19389TIP3    H179658   6.198   6.965   5.116 -1.5635  0.6781 -1.8959
19389TIP3    H279659   6.207   7.027   5.253  2.8843 -0.9604 -1.3751
19390TIP3   OH279660   5.838   0.055   5.871  0.3856 -0.2781 -0.3380
19390TIP3    H179661   5.924   0.090   5.849  0.6359 -1.3429 -1.0305
19390TIP3    H279662   5.853  -0.037   5.890 -0.4312 -0.2320  0.6090
19391TIP3   OH279663   1.717   6.316   5.054 -0.1096 -0.2013 -0.0294
19391TIP3    H179664   1.790   6.377   5.040 -0.3747 -0.0922 -0.9470
19391TIP3    H279665   1.754   6.230   5.034  0.3453 -0.3966  1.5419
19392TIP3   OH279666   5.391   0.703   2.234  0.3303  0.5169  0.0364
19392TIP3    H179667   5.445   0.753   2.172 -2.2061  1.9394 -1.0753
19392TIP3    H279668   5.396   0.613   2.202  1.6679  0.6879 -0.3035
19393TIP3   OH279669   6.392   3.926   5.377 -0.0423  0.1628 -0.1702
19393TIP3    H179670   6.457   3.987   5.341  0.4958 -0.5982 -0.5034
19393TIP3    H279671   6.444   3.863   5.428 -0.7724  1.0750  1.7287
19394TIP3   OH279672   2.437   6.012   5.476  0.4364 -0.5740  0.4284
19394TIP3    H179673   2.424   6.107   5.471 -1.5707 -0.8692 -0.1080
19394TIP3    H279674   2.470   5.997   5.565  0.1343  0.5401  0.7338
19395TIP3   OH279675   1.074   6.200   2.551  0.0396  0.7418  0.5017
19395TIP3    H179676   1.130   6.275   2.530 -0.7396  0.9447 -0.9082
19395TIP3    H279677   1.082   6.142   2.475 -0.3938  0.0139  1.0088
19396TIP3   OH279678   6.862   6.972   5.857  0.4114  0.1279  0.1822
19396TIP3    H179679   6.908   7.038   5.909  1.7196  0.4289 -1.3094
19396TIP3    H279680   6.859   6.895   5.913 -0.5932  1.2723  1.7136
19397TIP3   OH279681   5.686   2.757   2.693  0.4702  0.7522  0.1663
19397TIP3    H179682   5.695   2.836   2.640 -0.9266  0.1345 -1.0377
19397TIP3    H279683   5.775   2.736   2.720  1.1638  1.3517 -1.5652
19398TIP3   OH279684   5.460   2.242  14.851  0.3347  0.5419 -0.3732
19398TIP3    H179685   5.438   2.149  14.850  1.2248  0.2444  2.3981
19398TIP3    H279686   5.382   2.286  14.818 -0.9971 -1.0275  0.6077
19399TIP3   OH279687   2.129   6.312   4.967  0.7037 -0.7175  0.3430
19399TIP3    H179688   2.214   6.308   5.011  0.0184 -1.1169  1.6507
19399TIP3    H279689   2.143   6.268   4.883  2.0169  0.0276  0.1712
19400TIP3   OH279690   7.133   6.870   5.677 -0.1901 -0.4372  0.3603
19400TIP3    H179691   7.152   6.946   5.733 -2.0508 -0.5988  1.2310
19400TIP3    H279692   7.094   6.806   5.736  0.7042 -1.8140 -0.5278
19401TIP3   OH279693   1.640   6.699   2.867  0.7710 -0.2763  0.2794
19401TIP3    H179694   1.624   6.636   2.938 -0.1345  0.6099  0.8614
19401TIP3    H279695   1.728   6.732   2.885  0.0243  0.9786  1.8191
19402TIP3   OH279696   6.251   0.493   2.833  0.2399 -0.4455 -0.5021
19402TIP3    H179697   6.240   0.547   2.911 -2.1527 -1.9772  0.2770
19402TIP3    H279698   6.274   0.555   2.764  1.4712  1.0391  1.2086
19403TIP3   OH279699   6.524   6.646   5.026 -0.7259  0.4600 -0.0566
19403TIP3    H179700   6.444   6.698   5.025 -1.8936 -1.3116 -0.4407
19403TIP3    H279701   6.554   6.647   4.936 -1.1916 -0.1959 -0.2213
19404TIP3   OH279702   1.237   4.135   0.026  0.1413  0.1982  0.0440
19404TIP3    H179703   1.294   4.184  -0.034 -0.0161  1.0084  0.5612
19404TIP3    H279704   1.187   4.202   0.072 -1.0485 -0.5098 -0.2163
19405TIP3   OH279705   0.231   0.779   6.216 -0.5716  0.3998  0.4707
19405TIP3    H179706   0.179   0.842   6.266 -1.7299  0.4316 -0.7316
19405TIP3    H279707   0.167   0.713   6.188  0.5173 -0.9837  1.1926
19406TIP3   OH279708   5.442   6.499   2.598 -0.4272  0.1978 -0.4851
19406TIP3    H179709   5.472   6.545   2.519  0.9670  0.2336  0.0561
19406TIP3    H279710   5.432   6.568   2.664  0.7627 -0.1387  0.0577
19407TIP3   OH279711   6.430   7.196   1.905  0.7557 -0.2940 -1.0092
19407TIP3    H179712   6.477   7.136   1.962  0.1001 -0.4139 -0.5862
19407TIP3    H279713   6.399   7.141   1.833  0.7437 -0.3351 -0.9728
19408TIP3   OH279714   1.829   6.243   4.392  0.0956 -0.2127 -0.1642
19408TIP3    H179715   1.914   6.284   4.376  0.9158 -1.2817  1.3611
19408TIP3    H279716   1.808   6.200   4.309  1.5812 -0.8821 -0.2089
19409TIP3   OH279717   3.397   5.260   1.426  0.2326  0.5161 -0.1403
19409TIP3    H179718   3.434   5.181   1.388 -0.8113  0.6377 -1.4442
19409TIP3    H279719   3.413   5.252   1.520 -0.4107 -1.5213 -0.1920
19410TIP3   OH279720   4.418   3.274   4.119  0.0877  0.7417 -0.0027
19410TIP3    H179721   4.429   3.264   4.213  1.2869  0.0860 -0.2058
19410TIP3    H279722   4.323   3.276   4.106 -0.1146 -1.2883  1.0061
19411TIP3   OH279723   0.505   3.636   3.073 -0.4983 -0.2119  0.1786
19411TIP3    H179724   0.599   3.620   3.070 -0.3633  0.7037 -0.7425
19411TIP3    H279725   0.491   3.684   3.155  0.1447  1.5609 -0.7341
19412TIP3   OH279726   4.584   2.677   1.376  0.3730 -0.4920  0.0199
19412TIP3    H179727   4.572   2.635   1.461  2.0241  1.7837  1.4590
19412TIP3    H279728   4.630   2.612   1.323  1.8083 -0.9482  1.7808
19413TIP3   OH279729   1.160   0.157   4.179 -0.3718 -0.1341  0.5720
19413TIP3    H179730   1.233   0.212   4.206 -1.6971  0.4933  3.0033
19413TIP3    H279731   1.086   0.218   4.174 -0.8815 -0.8808 -1.2199
19414TIP3   OH279732   4.090   2.670   1.645  0.5162 -0.0432 -0.2412
19414TIP3    H179733   4.061   2.642   1.558 -0.8679  0.6918 -0.0286
19414TIP3    H279734   4.176   2.629   1.656 -0.7456 -2.9846 -0.5875
19415TIP3   OH279735   6.697   1.797   6.043 -0.3120 -0.5254 -0.2300
19415TIP3    H179736   6.791   1.807   6.034 -0.3929  1.4646  0.8614
19415TIP3    H279737   6.660   1.850   5.971 -0.6097 -1.3724 -0.7131
19416TIP3   OH279738   5.930   6.279   2.558 -0.0384  0.1687 -0.0355
19416TIP3    H179739   5.951   6.358   2.608 -2.0343  0.5103  0.2991
19416TIP3    H279740   6.011   6.228   2.558  0.8121  1.5072  1.0749
19417TIP3   OH279741   2.386   6.067   4.860 -0.2637 -0.0957  0.1188
19417TIP3    H179742   2.329   6.122   4.807  0.2955  0.6859  0.3185
19417TIP3    H279743   2.372   6.096   4.950  0.0019 -0.3067  0.2309
19418TIP3   OH279744   4.009   4.679   3.716 -0.0859 -0.2696  0.2140
19418TIP3    H179745   4.028   4.645   3.804  1.3673 -0.1641 -0.0513
19418TIP3    H279746   4.074   4.638   3.659 -0.4465  0.3611 -0.6680
19419TIP3   OH279747   6.199   5.053   2.931 -0.2736  0.0860  0.3725
19419TIP3    H179748   6.225   5.125   2.874  0.5556 -0.6813 -0.2195
19419TIP3    H279749   6.154   5.096   3.005  0.7347  1.2414  0.3220
19420TIP3   OH279750   6.489   5.912   3.684 -0.1639 -0.0023 -0.4578
19420TIP3    H179751   6.463   5.928   3.775  0.3135 -2.2587  0.0960
19420TIP3    H279752   6.458   5.989   3.637 -0.9567  0.9243  1.5090
19421TIP3   OH279753   5.931   0.701   4.632 -0.5235  0.0397  0.1376
19421TIP3    H179754   5.856   0.750   4.668  0.1455  1.5702 -0.5096
19421TIP3    H279755   5.894   0.615   4.610 -1.6370  0.0978  1.6264
19422TIP3   OH279756   0.042   6.861   5.096 -0.1051  0.3921 -0.2815
19422TIP3    H179757   0.031   6.904   5.181  0.7607 -0.1224  0.0963
19422TIP3    H279758   0.124   6.896   5.063 -0.4896  0.6597 -0.9483
19423TIP3   OH279759   7.123   1.374   1.520  0.1785  0.5369 -0.8989
19423TIP3    H179760   7.136   1.340   1.608  1.2074  0.3632 -1.1093
19423TIP3    H279761   7.030   1.360   1.501 -0.0538  0.6302  0.1750
19424TIP3   OH279762   5.194   0.762   4.974 -0.3947  0.4312 -0.4313
19424TIP3    H179763   5.201   0.755   4.879 -1.4615 -0.2514 -0.4654
19424TIP3    H279764   5.127   0.699   4.998 -1.2858  1.7422  0.6072
19425TIP3   OH279765   0.833   6.348   4.740  0.2211 -0.1968 -0.4230
19425TIP3    H179766   0.817   6.362   4.647 -1.4661 -0.2259 -0.1565
19425TIP3    H279767   0.920   6.307   4.744  1.1855  1.6456 -1.8349
19426TIP3   OH279768   5.135   3.797   3.632 -0.2961  0.1834  0.4722
19426TIP3    H179769   5.219   3.825   3.668  0.5455 -0.8003 -0.7024
19426TIP3    H279770   5.108   3.724   3.687 -1.1964  1.5587  1.8790
19427TIP3   OH279771   2.590   5.533   4.305  0.1462 -0.0078  0.3959
19427TIP3    H179772   2.522   5.596   4.281 -0.4117 -0.6638  0.2206
19427TIP3    H279773   2.621   5.562   4.391  0.8110  1.2558 -0.2519
19428TIP3   OH279774   3.652   1.358   1.530 -0.1370  0.2140 -0.2210
19428TIP3    H179775   3.661   1.362   1.435 -0.4493  0.1118 -0.2560
19428TIP3    H279776   3.602   1.436   1.553  0.6111  0.6418 -0.0582
19429TIP3   OH279777   7.033   3.962   4.178 -0.0310 -0.4971 -0.1122
19429TIP3    H179778   6.990   4.018   4.113  0.1557 -0.6052 -0.3288
19429TIP3    H279779   6.967   3.896   4.201 -0.2665 -0.1649  0.1718
19430TIP3   OH279780   1.687   6.546   4.719 -1.1581  0.3302  0.3777
19430TIP3    H179781   1.739   6.466   4.717 -1.5860  0.0092  1.6280
19430TIP3    H279782   1.747   6.615   4.690 -1.2400 -0.6584 -2.2647
19431TIP3   OH279783   6.065   6.729   5.334 -0.5770 -0.2668 -0.3439
19431TIP3    H179784   6.080   6.696   5.422 -0.0509 -2.1277 -1.1121
19431TIP3    H279785   6.153   6.745   5.299 -0.7378 -0.7465 -0.9729
19432TIP3   OH279786   6.881   6.900   6.137 -0.6038 -0.2566 -0.2469
19432TIP3    H179787   6.797   6.938   6.165 -2.4254 -2.1319 -2.8537
19432TIP3    H279788   6.878   6.810   6.168  0.4431 -0.3269 -0.3557
19433TIP3   OH279789   6.201   4.652   3.380 -0.3898 -0.3928  0.2767
19433TIP3    H179790   6.190   4.713   3.307  1.0606 -3.0485 -2.2672
19433TIP3    H279791   6.295   4.637   3.385 -0.2527  1.1488  3.9916
19434TIP3   OH279792   3.469   3.876   4.952  0.7675  0.0744  0.3186
19434TIP3    H179793   3.498   3.897   4.863 -1.1644  1.8429  0.0886
19434TIP3    H279794   3.538   3.912   5.009  1.5081 -0.1846 -0.3971
19435TIP3   OH279795   4.590   0.042   4.906 -0.2908 -0.4942 -0.2146
19435TIP3    H179796   4.651  -0.022   4.942 -0.7557 -0.7660  0.0902
19435TIP3    H279797   4.615   0.125   4.947  0.8689 -0.3193 -1.2691
19436TIP3   OH279798   7.074   6.704   4.943  0.0568  0.3600 -0.3182
19436TIP3    H179799   7.110   6.755   5.014  0.3817 -2.6515  1.7625
19436TIP3    H279800   6.981   6.694   4.965  0.3583 -1.4238  0.2969
19437TIP3   OH279801   5.119   1.927   4.495 -0.0343 -0.2404  0.3209
19437TIP3    H179802   5.101   1.870   4.570  1.0978 -1.1406 -0.0659
19437TIP3    H279803   5.122   1.867   4.420 -3.1030  0.9006 -0.7727
19438TIP3   OH279804   2.385   0.092   2.711 -0.2347  0.2400 -1.3513
19438TIP3    H179805   2.314   0.137   2.666 -0.0367  1.9292 -0.0227
19438TIP3    H279806   2.345   0.055   2.789 -0.0969 -0.6414 -1.6985
19439TIP3   OH279807   5.532   3.988   3.947 -0.3741 -0.3083 -0.9680
19439TIP3    H179808   5.535   4.030   3.860  0.0807 -1.4279 -1.4979
19439TIP3    H279809   5.577   4.050   4.005 -0.6259  0.4207 -1.5345
19440TIP3   OH279810   0.841   0.315   5.463 -0.2381  0.5698 -0.3046
19440TIP3    H179811   0.867   0.271   5.544  2.7251  3.0958  0.1925
19440TIP3    H279812   0.748   0.335   5.477  0.2295  1.0630  2.5277
19441TIP3   OH279813   2.678   2.553   5.556  0.2565 -0.6039 -0.2558
19441TIP3    H179814   2.749   2.506   5.602  0.5595  0.4749  0.3999
19441TIP3    H279815   2.600   2.501   5.573  0.0773  0.5433  2.7726
19442TIP3   OH279816   3.287   6.193   2.380 -0.5642 -0.1389  0.2832
19442TIP3    H179817   3.371   6.205   2.425 -0.6807 -0.6083  0.6277
19442TIP3    H279818   3.223   6.234   2.437 -0.5196  0.5593 -0.1669
19443TIP3   OH279819   0.245   2.656   5.394  0.6678  0.0173  0.1977
19443TIP3    H179820   0.340   2.661   5.410  0.5710 -0.5483  0.9916
19443TIP3    H279821   0.207   2.646   5.481 -0.2554  1.9935  0.0418
19444TIP3   OH279822   1.296   6.821   4.122 -0.0686  0.0490 -0.4790
19444TIP3    H179823   1.231   6.752   4.107  0.6381 -0.1393 -2.8476
19444TIP3    H279824   1.310   6.820   4.217  0.5046 -3.6408 -0.5271
19445TIP3   OH279825   5.012   7.013   4.901  0.0081  0.2611 -0.8940
19445TIP3    H179826   5.063   6.985   4.977 -0.6092 -0.6912 -0.8156
19445TIP3    H279827   5.064   7.083   4.861  0.7732  0.1455 -0.1111
19446TIP3   OH279828   1.685   6.091   4.574 -0.0188 -0.1284  0.2206
19446TIP3    H179829   1.747   6.109   4.504  0.3320  0.5768  0.7166
19446TIP3    H279830   1.694   5.997   4.590 -0.9206 -0.5191 -1.4633
19447TIP3   OH279831   2.931   5.331   2.601  0.4140  0.6730 -0.1151
19447TIP3    H179832   2.996   5.327   2.672 -0.4079  0.8171  0.6575
19447TIP3    H279833   2.850   5.301   2.641 -0.4786  2.5115 -0.4898
19448TIP3   OH279834   2.980   5.734   4.233 -0.4510  0.0383  0.2379
19448TIP3    H179835   3.017   5.822   4.232 -0.0840 -0.1128  0.6656
19448TIP3    H279836   3.031   5.686   4.168  0.0910 -0.1634  0.8086
19449TIP3   OH279837   6.143   5.744   3.044 -0.2616  0.3091  0.1645
19449TIP3    H179838   6.187   5.776   3.123  1.8528 -0.0563 -0.8194
19449TIP3    H279839   6.205   5.764   2.974 -2.1426  0.6741 -1.4069
19450TIP3   OH279840   5.784   0.443   3.642  0.6808 -0.2261  0.3475
19450TIP3    H179841   5.879   0.436   3.652  0.9111  0.8350 -0.9696
19450TIP3    H279842   5.771   0.527   3.598 -0.7935 -0.9005 -0.5268
19451TIP3   OH279843   4.219   3.831   3.340  0.2527  0.7883 -0.0091
19451TIP3    H179844   4.238   3.921   3.315 -1.7218  1.7175  1.6986
19451TIP3    H279845   4.133   3.813   3.301  1.0047 -0.6460 -1.0394
19452TIP3   OH279846   1.421   4.317   2.618 -0.4874  0.4186 -0.0537
19452TIP3    H179847   1.416   4.251   2.548  0.3347 -0.0602  0.3356
19452TIP3    H279848   1.342   4.369   2.607 -1.1515 -0.6404 -0.3621
19453TIP3   OH279849   1.908   0.221   0.926  0.1016  0.1306  0.3704
19453TIP3    H179850   1.934   0.185   1.010  0.3786  0.5908  0.4829
19453TIP3    H279851   1.982   0.204   0.868 -0.0233 -0.0423  0.2608
19454TIP3   OH279852   6.895   2.922   4.723  0.5946  0.2619 -0.0408
19454TIP3    H179853   6.839   2.861   4.771 -0.5006  0.6147 -0.8521
19454TIP3    H279854   6.981   2.879   4.721  0.5148 -0.0227  1.7071
19455TIP3   OH279855   1.396   5.267   4.237 -0.4008  0.5920  0.1054
19455TIP3    H179856   1.386   5.359   4.262 -1.7357  0.4256  0.2373
19455TIP3    H279857   1.309   5.230   4.248  0.4949 -1.1078  1.6673
19456TIP3   OH279858   2.765   6.010   2.267 -0.3575  0.1070 -0.2994
19456TIP3    H179859   2.691   5.952   2.249 -0.2997  0.1756 -0.7613
19456TIP3    H279860   2.724   6.094   2.288 -0.4085  0.2048 -0.7774
19457TIP3   OH279861   6.406   1.315   1.440  0.0793  0.2900 -0.3732
19457TIP3    H179862   6.410   1.287   1.532 -1.0678 -1.4470 -0.8314
19457TIP3    H279863   6.373   1.404   1.443 -0.0947  0.1860  0.8991
19458TIP3   OH279864   2.756   6.679   4.062 -0.2800  0.2040 -0.6051
19458TIP3    H179865   2.821   6.747   4.050 -1.3221  1.1344 -1.0292
19458TIP3    H279866   2.672   6.725   4.061 -0.8901 -0.8268  1.0778
19459TIP3   OH279867   0.578   6.154   3.508 -0.5462 -0.0216 -0.1368
19459TIP3    H179868   0.532   6.096   3.569  1.1657 -0.7275  0.5086
19459TIP3    H279869   0.582   6.104   3.426  0.3159 -0.5488  0.2199
19460TIP3   OH279870   1.592   6.536   5.176 -0.3691 -0.5737  0.9463
19460TIP3    H179871   1.636   6.466   5.128 -2.3176 -0.4104 -1.1577
19460TIP3    H279872   1.504   6.502   5.193 -0.5000  0.3518  2.2471
19461TIP3   OH279873   2.387   7.122   1.479 -0.0668 -0.7480 -0.4165
19461TIP3    H179874   2.351   7.113   1.567 -0.0488 -0.6680 -0.4006
19461TIP3    H279875   2.324   7.077   1.423  0.0032 -0.9377 -0.3436
19462TIP3   OH279876   2.091   0.751   4.009 -0.3969 -0.4657  0.9214
19462TIP3    H179877   2.157   0.682   4.015 -1.8042 -2.2026 -2.5782
19462TIP3    H279878   2.132   0.820   3.956 -0.6122 -0.6134  0.5593
19463TIP3   OH279879   3.232   6.816   0.123  0.2113 -0.3673  0.8107
19463TIP3    H179880   3.162   6.803   0.059 -0.9976  0.1986  1.9932
19463TIP3    H279881   3.308   6.771   0.085 -0.3782  0.2775 -1.1719
19464TIP3   OH279882   0.077   5.631   5.312  0.4108 -0.1265  0.0600
19464TIP3    H179883   0.084   5.713   5.264 -0.1416  0.4653  0.9669
19464TIP3    H279884  -0.010   5.598   5.291 -0.6292  1.1378  2.1735
19465TIP3   OH279885   1.135   4.793   4.356 -0.2338 -0.3371  0.5913
19465TIP3    H179886   1.177   4.859   4.300 -2.0928 -2.1956 -3.2201
19465TIP3    H279887   1.045   4.822   4.364  0.0461  0.0068  2.9105
19466TIP3   OH279888   5.945   6.463   4.638 -0.1525  0.1586 -1.0076
19466TIP3    H179889   5.938   6.429   4.727 -0.6158  0.7995 -0.7919
19466TIP3    H279890   5.898   6.399   4.584  0.0314 -0.1715 -0.7741
19467TIP3   OH279891   6.998   3.354   5.214  0.0157 -0.1884  0.0527
19467TIP3    H179892   6.912   3.392   5.201  0.4734  0.8659  0.0261
19467TIP3    H279893   7.057   3.411   5.166  0.6211 -1.4406 -0.7226
19468TIP3   OH279894   2.425   5.455   3.762  0.4444  0.7659 -0.7016
19468TIP3    H179895   2.416   5.485   3.853 -0.2230 -1.0606 -0.1270
19468TIP3    H279896   2.404   5.362   3.766  0.0858  0.7333 -2.8046
19469TIP3   OH279897   0.754   5.854   4.629 -0.2315  0.0098  0.1892
19469TIP3    H179898   0.697   5.785   4.662 -0.6506 -0.1068 -0.7561
19469TIP3    H279899   0.842   5.830   4.659 -0.1024 -1.9088 -1.6282
19470TIP3   OH279900   7.030   1.031   4.984  0.8763 -0.3085  0.1612
19470TIP3    H179901   7.053   1.070   4.900  0.6350 -0.5557 -0.0205
19470TIP3    H279902   7.060   0.941   4.978 -0.3882 -0.7174 -0.1920
19471TIP3   OH279903   0.405   5.505   4.595  0.1772  0.4378  0.0237
19471TIP3    H179904   0.398   5.600   4.598 -0.4630  0.4451 -1.3439
19471TIP3    H279905   0.333   5.474   4.651 -0.9297  0.7429 -1.2001
19472TIP3   OH279906   0.096   4.195   4.691 -0.3364  0.3277  0.0739
19472TIP3    H179907   0.035   4.138   4.643  0.2365  2.0322 -2.8347
19472TIP3    H279908   0.182   4.159   4.671 -0.2025 -0.3766  1.8460
19473TIP3   OH279909   7.074   3.593   2.653 -0.2064 -0.1200 -0.2957
19473TIP3    H179910   7.147   3.655   2.655  0.2106 -0.6248  0.3982
19473TIP3    H279911   7.085   3.542   2.733 -1.4170 -0.0848 -0.1032
19474TIP3   OH279912   2.055   3.413   4.510  0.5307  0.3722  0.0885
19474TIP3    H179913   1.964   3.391   4.496  0.3659  2.2550 -2.1227
19474TIP3    H279914   2.097   3.330   4.532 -1.5649 -0.6199  0.4516
19475TIP3   OH279915   2.813   2.642   4.496  0.5229  0.8633  0.5210
19475TIP3    H179916   2.821   2.580   4.569 -1.2764  1.1047  0.9569
19475TIP3    H279917   2.900   2.644   4.457  0.7082 -1.7131  0.6766
19476TIP3   OH279918   0.940   4.286   2.154 -0.4714  0.3718  0.4610
19476TIP3    H179919   0.867   4.345   2.174 -0.7414 -0.9033  3.6315
19476TIP3    H279920   0.898   4.207   2.118 -0.4144  0.7661 -0.4634
19477TIP3   OH279921   1.393   4.435   4.109  0.1848 -0.4993 -0.2448
19477TIP3    H179922   1.404   4.340   4.102  1.9154 -0.2002 -1.9100
19477TIP3    H279923   1.396   4.453   4.203 -1.3597 -2.2197  0.1577
19478TIP3   OH279924   0.797   6.168   0.096  0.3258  0.0675 -0.1728
19478TIP3    H179925   0.743   6.243   0.122  1.4526 -0.0230  2.5682
19478TIP3    H279926   0.735   6.098   0.078 -0.5665  0.6303  0.7055
19479TIP3   OH279927   2.679   6.444   5.069  0.1774 -0.0994  0.5584
19479TIP3    H179928   2.626   6.431   5.147  3.0140 -0.7899  2.4704
19479TIP3    H279929   2.761   6.397   5.088  0.9520 -0.2158 -2.7978
19480TIP3   OH279930   2.338   5.472   5.487  0.0402  0.2548 -0.4999
19480TIP3    H179931   2.280   5.398   5.471  1.2722 -1.0269  0.8557
19480TIP3    H279932   2.306   5.510   5.569  2.0045 -1.3914  1.0844
19481TIP3   OH279933   2.087   6.190   5.981 -0.1621  0.3669 -0.4545
19481TIP3    H179934   2.009   6.200   5.926  1.0832  0.1931 -2.2893
19481TIP3    H279935   2.053   6.160   6.066 -2.3162  2.8663 -0.3819
19482TIP3   OH279936   1.231   1.740  15.299  0.1254 -0.2787  0.2188
19482TIP3    H179937   1.188   1.783  15.225  1.0054  0.1814 -0.0356
19482TIP3    H279938   1.241   1.649  15.272 -2.2336 -0.8048  0.9700
19483TIP3   OH279939   6.849   4.619   5.289  0.1895 -0.7864 -0.7264
19483TIP3    H179940   6.864   4.644   5.380  1.2763 -0.7010 -0.9309
19483TIP3    H279941   6.828   4.526   5.293  1.2831 -1.0310 -0.4866
19484TIP3   OH279942   5.814   6.709   2.104  0.2774 -0.1438  0.5011
19484TIP3    H179943   5.842   6.700   2.195  1.3372 -0.2392  0.1687
19484TIP3    H279944   5.718   6.713   2.109  0.2918 -0.8019  1.5646
19485TIP3   OH279945   0.910   2.317   3.472  0.7844 -0.8087  0.3333
19485TIP3    H179946   0.943   2.351   3.389  0.6391 -2.4449 -0.4214
19485TIP3    H279947   0.907   2.393   3.530 -0.7297  0.6790 -1.6450
19486TIP3   OH279948   3.299   7.149   2.102  0.1411 -0.4516 -0.5092
19486TIP3    H179949   3.251   7.230   2.120  0.0576 -0.6039 -0.0402
19486TIP3    H279950   3.256   7.083   2.157 -0.0733 -0.9104 -1.2104
19487TIP3   OH279951   2.012   4.641   3.512  0.1392  0.1715 -0.6689
19487TIP3    H179952   1.982   4.571   3.454 -1.6195 -0.7943  1.3528
19487TIP3    H279953   2.085   4.602   3.561 -2.7126 -1.3241  2.5725
19488TIP3   OH279954   0.380   0.620   5.933 -0.7047  0.1708  0.3160
19488TIP3    H179955   0.298   0.665   5.914 -2.0849 -2.5597 -0.5225
19488TIP3    H279956   0.367   0.581   6.019 -1.0686 -1.8909 -0.6396
19489TIP3   OH279957   5.530   0.321   4.009  0.2359 -0.0051  0.0637
19489TIP3    H179958   5.604   0.331   3.949  0.8706  2.0242  1.1535
19489TIP3    H279959   5.470   0.391   3.985 -0.3566 -0.3284  0.5819
19490TIP3   OH279960   0.159   5.859   5.715 -0.1078 -0.4368  0.1871
19490TIP3    H179961   0.203   5.916   5.778 -0.4261  0.6515 -0.5553
19490TIP3    H279962   0.158   5.773   5.757  0.6430  0.0362  1.1991
19491TIP3   OH279963   6.934   5.899   3.506 -0.1059  0.6457 -0.2050
19491TIP3    H179964   6.964   5.811   3.485 -1.9934  0.1679 -0.9980
19491TIP3    H279965   6.909   5.895   3.598  1.6478  0.8957  0.3024
19492TIP3   OH279966   1.307   2.940   6.062  0.0367 -0.2392  0.2955
19492TIP3    H179967   1.327   3.005   6.129 -2.0059 -0.5012  1.2005
19492TIP3    H279968   1.378   2.947   5.999 -0.0776  2.7692  0.4468
19493TIP3   OH279969   1.646   0.785   3.162  0.0854  0.5875 -0.3103
19493TIP3    H179970   1.635   0.690   3.157  0.4425  0.5038  0.4408
19493TIP3    H279971   1.558   0.821   3.155 -0.0915  0.1796 -0.1624
19494TIP3   OH279972   5.285   6.116   5.996 -0.4520  0.0881 -0.1088
19494TIP3    H179973   5.331   6.191   5.958 -0.3543 -0.0336 -0.2283
19494TIP3    H279974   5.207   6.105   5.941  0.9549 -1.6614 -1.8287
19495TIP3   OH279975   5.705   1.156   3.509  0.5249 -0.4573  0.5751
19495TIP3    H179976   5.775   1.184   3.567  0.4575 -0.6798  0.7667
19495TIP3    H279977   5.745   1.151   3.422  1.2930 -2.6855  1.0430
19496TIP3   OH279978   0.057   6.571   5.653 -0.0112  0.3946  0.1893
19496TIP3    H179979   0.065   6.649   5.597 -0.0176 -0.2220 -0.6857
19496TIP3    H279980   0.015   6.603   5.733 -1.4572  1.0091 -0.7785
19497TIP3   OH279981   2.617   0.603   5.095  0.3300 -0.0296 -0.0822
19497TIP3    H179982   2.582   0.638   5.177  2.9388 -0.9476  1.4631
19497TIP3    H279983   2.651   0.680   5.049  0.5991  0.2495  0.5716
19498TIP3   OH279984   3.518   0.207   5.429  0.4446 -0.1167  0.3352
19498TIP3    H179985   3.577   0.225   5.502  0.6373 -0.2774  0.2215
19498TIP3    H279986   3.516   0.111   5.423  0.4420 -0.1035  0.1235
19499TIP3   OH279987   2.057   6.839   3.097 -0.2520 -0.3223 -0.6253
19499TIP3    H179988   2.094   6.875   3.016 -0.8042 -0.0915 -0.7737
19499TIP3    H279989   1.965   6.862   3.093  0.1245  1.5844  1.1196
19500TIP3   OH279990   6.268   6.574   2.841 -0.1205  0.0763 -0.1290
19500TIP3    H179991   6.347   6.564   2.894  0.1277  0.0400 -0.5035
19500TIP3    H279992   6.197   6.546   2.898  0.1527 -0.0195  0.1659
19501TIP3   OH279993   0.969   4.549   2.917  0.7395 -0.3226 -0.5943
19501TIP3    H179994   0.902   4.616   2.902  2.5453  2.2942  2.4485
19501TIP3    H279995   1.049   4.588   2.881  1.6070 -1.2854  0.2788
19502TIP3   OH279996   1.110   0.935   3.181 -0.7952  0.0807 -0.6423
19502TIP3    H179997   1.014   0.936   3.175 -0.8433 -1.5125 -0.3642
19502TIP3    H279998   1.139   0.995   3.112 -1.9241 -1.6175 -2.6869
19503TIP3   OH279999   2.813   0.790   5.787  0.6596  0.4194 -0.6765
19503TIP3    H180000   2.825   0.714   5.730 -0.7244  0.3160 -0.8253
19503TIP3    H280001   2.862   0.768   5.866  0.6668 -0.4230 -0.9138
19504TIP3   OH280002   4.054   1.797   4.620  0.2469 -0.5346 -0.7093
19504TIP3    H180003   4.034   1.889   4.638 -0.2203 -0.1842 -2.9236
19504TIP3    H280004   4.010   1.778   4.537  1.3022 -2.4406 -0.8721
19505TIP3   OH280005   2.968   6.439   2.728  0.4456 -0.8780 -0.3905
19505TIP3    H180006   3.001   6.509   2.672  1.0163 -2.2489 -1.8276
19505TIP3    H280007   2.889   6.475   2.768  1.2910  0.9238 -0.2979
19506TIP3   OH280008   4.856   1.053   4.494  0.5771 -0.5841 -0.4535
19506TIP3    H180009   4.907   1.045   4.574 -0.1873  1.4998  0.2669
19506TIP3    H280010   4.918   1.031   4.424  2.2954  1.2913  0.4376
19507TIP3   OH280011   1.752   5.004   3.083  0.0066  0.8433 -0.1448
19507TIP3    H180012   1.785   5.051   3.007 -1.1393 -0.6715 -1.6043
19507TIP3    H280013   1.667   5.043   3.101  0.5096  1.5637  0.7061
19508TIP3   OH280014   5.306   0.965   2.924  0.0333 -0.0456 -0.1372
19508TIP3    H180015   5.394   0.975   2.888  0.5238 -1.3522  0.6770
19508TIP3    H280016   5.306   0.879   2.965 -0.4854  1.3228  2.9523
19509TIP3   OH280017   3.278   4.992   5.069  0.0821 -0.4298  0.2884
19509TIP3    H180018   3.235   4.915   5.107 -1.5385 -0.0541 -0.7328
19509TIP3    H280019   3.252   4.990   4.977  2.2711 -0.1760 -0.3417
19510TIP3   OH280020   2.802   0.361   1.495 -0.4203 -0.0482  0.3733
19510TIP3    H180021   2.781   0.388   1.406  0.0464  0.9354  0.5480
19510TIP3    H280022   2.791   0.266   1.495 -2.8896  0.2237 -0.0389
19511TIP3   OH280023   5.023   0.053   5.162 -0.3633  0.2070 -0.1561
19511TIP3    H180024   5.094   0.036   5.223 -0.9781 -1.6978  0.0584
19511TIP3    H280025   5.055   0.021   5.078 -0.1677  1.2994 -0.5145
19512TIP3   OH280026   5.487   7.099   5.151 -0.3216  0.5045 -0.1550
19512TIP3    H180027   5.565   7.049   5.127 -0.1896  0.4711  0.3517
19512TIP3    H280028   5.521   7.175   5.198 -0.7014 -0.4567  1.6984
19513TIP3   OH280029   1.651   4.218   4.343  0.2458 -0.4024  0.4489
19513TIP3    H180030   1.744   4.212   4.322  0.2475  3.3906 -0.8777
19513TIP3    H280031   1.649   4.251   4.432  0.1165 -1.9199  1.0353
19514TIP3   OH280032   2.890   4.678   4.712 -0.2298 -0.9057 -0.0546
19514TIP3    H180033   2.949   4.712   4.779 -1.1547 -0.6202  0.6185
19514TIP3    H280034   2.948   4.634   4.649  0.7120 -0.4669  0.5002
19515TIP3   OH280035   2.710   1.931   2.974  0.1469 -0.4545 -0.2717
19515TIP3    H180036   2.737   1.849   3.015 -2.1241 -0.8703  0.4679
19515TIP3    H280037   2.748   1.927   2.886  1.7805 -1.3343  0.4518
19516TIP3   OH280038   2.277   7.063   3.795  0.0826 -0.1542 -0.3774
19516TIP3    H180039   2.195   7.070   3.745  0.8608 -1.3620 -1.8774
19516TIP3    H280040   2.273   6.977   3.836  0.2242  0.1287  0.2290
19517TIP3   OH280041   1.631   0.636   2.155  0.0124 -0.0424 -0.0601
19517TIP3    H180042   1.671   0.715   2.119 -0.9658 -0.0454 -1.2127
19517TIP3    H280043   1.542   0.663   2.179  0.0141 -0.5353  0.5144
19518TIP3   OH280044   5.119   0.839   5.387  0.1823 -0.1344  0.2227
19518TIP3    H180045   5.092   0.902   5.320 -1.7054 -1.7489 -0.5804
19518TIP3    H280046   5.163   0.892   5.453  2.1082  1.4928 -2.2733
19519TIP3   OH280047   2.146   4.693   2.421 -0.1495 -0.3985  0.0477
19519TIP3    H180048   2.122   4.740   2.501 -0.5615  0.7315 -0.7348
19519TIP3    H280049   2.067   4.644   2.397 -0.2319 -0.2334 -0.0185
19520TIP3   OH280050   1.306   6.770   4.394  0.6075 -0.5385  0.9825
19520TIP3    H180051   1.282   6.742   4.483 -0.1344 -0.3434  0.8535
19520TIP3    H280052   1.399   6.752   4.387  0.4487 -1.5752  1.4226
19521TIP3   OH280053   5.018   3.199   1.181  0.1123 -0.1656 -0.2702
19521TIP3    H180054   5.056   3.125   1.229  0.8119 -0.0884 -0.6965
19521TIP3    H280055   4.960   3.241   1.244 -0.4171 -1.1681 -0.0654
19522TIP3   OH280056   6.107   6.047   5.127 -0.0511  0.2609  0.0027
19522TIP3    H180057   6.031   6.104   5.117 -1.6752 -1.8509 -0.1849
19522TIP3    H280058   6.135   6.060   5.218 -1.2997  0.3030  0.3942
19523TIP3   OH280059   6.240   0.742   2.674 -0.2300 -0.1639  0.2171
19523TIP3    H180060   6.301   0.783   2.736  1.2839 -0.0798 -1.2769
19523TIP3    H280061   6.178   0.812   2.653 -0.3927 -0.0124  1.1728
19524TIP3   OH280062   2.717   2.532   4.257 -0.4062 -0.9309 -0.9421
19524TIP3    H180063   2.716   2.575   4.343 -0.5426 -2.0720 -0.3624
19524TIP3    H280064   2.632   2.490   4.251 -1.0189  0.4445 -2.3309
19525TIP3   OH280065   5.637   6.017   5.815  0.0398  0.0087 -0.1064
19525TIP3    H180066   5.561   5.973   5.853  0.4219 -2.6980 -2.2921
19525TIP3    H280067   5.712   5.962   5.838  1.4942  2.8439  2.3513
19526TIP3   OH280068   1.711   3.602   2.601  0.1779  0.2747  0.6950
19526TIP3    H180069   1.710   3.579   2.694 -0.1446 -2.3477  0.0708
19526TIP3    H280070   1.769   3.538   2.560  0.1384  1.2588 -0.9721
19527TIP3   OH280071   3.058   5.402   3.825  0.3508 -0.1085  0.1860
19527TIP3    H180072   3.002   5.450   3.764  1.7168  1.0005 -0.2373
19527TIP3    H280073   3.026   5.312   3.821  0.1373  0.0305 -1.8651
19528TIP3   OH280074   2.249   0.901   5.376  0.9647  0.1699 -0.9796
19528TIP3    H180075   2.228   0.966   5.443  0.8997  0.3478 -1.1745
19528TIP3    H280076   2.185   0.915   5.307 -0.2684 -1.3718 -0.1661
19529TIP3   OH280077   2.284   3.662   3.198  0.3088 -0.3101 -0.6286
19529TIP3    H180078   2.368   3.616   3.197  0.2418 -0.4607  0.3098
19529TIP3    H280079   2.294   3.731   3.264 -0.1557 -0.0426 -0.8277
19530TIP3   OH280080   4.447   1.215   3.115 -0.3511 -0.9000  0.2831
19530TIP3    H180081   4.495   1.134   3.099  2.2542  0.6173  0.0255
19530TIP3    H280082   4.398   1.231   3.035  2.5792  0.0143 -1.4015
19531TIP3   OH280083   3.464   2.376   3.484 -0.2319  0.1753 -0.5559
19531TIP3    H180084   3.396   2.405   3.423 -0.4734 -0.2435 -0.4916
19531TIP3    H280085   3.502   2.457   3.517 -0.8754  0.4220 -0.3989
19532TIP3   OH280086   2.324   1.181   0.785 -0.5529  0.5878 -0.1243
19532TIP3    H180087   2.294   1.272   0.791 -0.7948  0.5246 -0.3441
19532TIP3    H280088   2.252   1.130   0.821 -0.4561  0.4744 -0.0914
19533TIP3   OH280089   3.915   4.298   5.512 -0.7389 -0.0815 -0.5861
19533TIP3    H180090   3.979   4.248   5.563 -0.8354 -0.4174 -0.7945
19533TIP3    H280091   3.920   4.386   5.549  0.1382 -0.0004 -0.8718
19534TIP3   OH280092   5.001   7.050   3.965  0.3258 -0.0316 -0.5480
19534TIP3    H180093   4.958   7.003   4.036  1.8278  1.2249  1.2090
19534TIP3    H280094   5.003   6.986   3.893 -2.7610 -0.7331 -0.1031
19535TIP3   OH280095   3.190   7.166   1.573  0.4812  0.1370  0.1935
19535TIP3    H180096   3.209   7.198   1.661 -1.1893 -0.4438  0.7664
19535TIP3    H280097   3.109   7.211   1.548  0.9322  0.2841 -1.0522
19536TIP3   OH280098   1.005   1.408   5.723 -0.1959 -0.3165  0.0137
19536TIP3    H180099   0.942   1.449   5.782 -0.1682  1.2295 -0.9845
19536TIP3    H280100   1.084   1.397   5.775 -0.6274 -0.3027  0.6761
19537TIP3   OH280101   2.329   5.989   4.096 -0.5121 -0.2387  0.2285
19537TIP3    H180102   2.283   5.911   4.066 -1.5925  1.6479 -3.2964
19537TIP3    H280103   2.261   6.044   4.136 -0.0844 -0.3283  1.0912
19538TIP3   OH280104   1.384   5.082   4.964 -0.1573  0.2837 -0.0203
19538TIP3    H180105   1.332   5.069   5.044 -0.4160 -0.1861 -0.2664
19538TIP3    H280106   1.413   5.173   4.970  0.8484 -0.0976  1.2214
19539TIP3   OH280107   2.955   0.525   4.141  0.2844  0.0406 -0.4819
19539TIP3    H180108   3.007   0.448   4.116  1.9242  1.7479 -2.4494
19539TIP3    H280109   3.011   0.572   4.203  0.3107  0.9188 -1.1695
19540TIP3   OH280110   1.462   0.749   4.311 -0.4591 -0.2723 -0.3634
19540TIP3    H180111   1.368   0.764   4.302 -0.6095 -0.8174  0.3216
19540TIP3    H280112   1.471   0.695   4.389  0.4977  0.5718  0.1283
19541TIP3   OH280113   4.740   6.858   2.828 -0.2831 -1.2834  0.2173
19541TIP3    H180114   4.764   6.836   2.738  1.9161 -0.7058  0.6279
19541TIP3    H280115   4.734   6.774   2.873 -0.8974 -1.5434 -0.3402
19542TIP3   OH280116   1.045   6.487   2.056  0.6775  0.0670 -0.3844
19542TIP3    H180117   1.097   6.413   2.024 -0.6262 -0.1959 -1.9907
19542TIP3    H280118   0.979   6.448   2.113  1.3514  0.2540  0.5447
19543TIP3   OH280119   3.219   1.675   5.495 -0.3934 -0.4393  0.4353
19543TIP3    H180120   3.279   1.695   5.566  0.6911 -0.5923 -0.4304
19543TIP3    H280121   3.138   1.721   5.518  0.4033  0.6611  1.0472
19544TIP3   OH280122   3.315   4.073   2.142 -0.2784 -0.6550  0.1020
19544TIP3    H180123   3.404   4.071   2.105 -0.1998 -2.2934  0.3304
19544TIP3    H280124   3.326   4.037   2.230 -1.1597 -0.8031  0.1478
19545TIP3   OH280125   2.522   6.473   3.853  0.3272  0.2540 -0.5329
19545TIP3    H180126   2.451   6.436   3.905  0.4061 -1.6590 -1.7330
19545TIP3    H280127   2.513   6.568   3.862 -0.6127 -0.0336  1.6594
19546TIP3   OH280128   6.352   2.742   3.272  0.1868  0.2878  0.3226
19546TIP3    H180129   6.433   2.776   3.310  0.7417  0.9660 -1.4070
19546TIP3    H280130   6.283   2.772   3.330  1.0109  1.3107  0.7790
19547TIP3   OH280131   3.970   6.889   5.671  0.1499 -0.3040  0.1578
19547TIP3    H180132   3.902   6.921   5.730  0.4744  0.0825  0.3250
19547TIP3    H280133   3.977   6.796   5.690 -0.2142 -0.3095  0.2631
19548TIP3   OH280134   5.114   6.684   5.609 -0.0513 -0.0098  0.2329
19548TIP3    H180135   5.145   6.595   5.630 -0.2364 -0.0732  0.2419
19548TIP3    H280136   5.194   6.733   5.588 -0.1477 -0.8955 -2.4797
19549TIP3   OH280137   2.203   5.172   3.494  0.3002 -0.3135 -0.3385
19549TIP3    H180138   2.122   5.129   3.467 -0.4117 -0.2447  1.6114
19549TIP3    H280139   2.193   5.263   3.468 -0.1810 -0.3473 -0.2706
19550TIP3   OH280140   1.456   6.028   5.563  0.0746  0.0113  0.1715
19550TIP3    H180141   1.406   6.064   5.636 -0.4340 -1.3083  0.4877
19550TIP3    H280142   1.522   5.971   5.605 -0.0057 -0.4863 -0.3749
19551TIP3   OH280143   2.760   4.080   5.758  0.5752  0.1928 -0.8840
19551TIP3    H180144   2.761   4.066   5.663  0.3969 -0.9134 -0.7329
19551TIP3    H280145   2.732   3.996   5.794 -2.9119  1.6170 -0.0252
19552TIP3   OH280146   3.687   6.774   0.904  0.1787 -0.2085  0.2065
19552TIP3    H180147   3.699   6.858   0.950 -2.4084  1.7553 -2.4906
19552TIP3    H280148   3.760   6.771   0.842  0.6992 -0.3417  0.8137
19553TIP3   OH280149   4.739   6.280   5.194 -0.1713  0.4811  0.4926
19553TIP3    H180150   4.741   6.281   5.289 -0.1225  1.2440  0.4839
19553TIP3    H280151   4.646   6.284   5.172 -0.2439 -0.9005  0.5169
19554TIP3   OH280152   2.770   3.800   2.188  0.2692 -0.2607 -0.1026
19554TIP3    H180153   2.835   3.753   2.136 -1.2027 -0.3833 -1.9177
19554TIP3    H280154   2.820   3.863   2.239  1.9217 -1.2662 -0.4506
19555TIP3   OH280155   1.949   0.318   4.151  0.6671  0.0591 -0.1664
19555TIP3    H180156   1.857   0.318   4.178 -0.0016 -1.0601 -2.3731
19555TIP3    H280157   1.966   0.409   4.124  0.5006  0.4815  1.0810
19556TIP3   OH280158   1.709   4.749   5.618  0.5801 -0.6160 -0.3236
19556TIP3    H180159   1.618   4.773   5.597  0.9385  0.9206 -0.1764
19556TIP3    H280160   1.740   4.703   5.541 -0.1727 -0.7343 -0.5661
19557TIP3   OH280161   4.683   5.222   3.358  0.5562  0.1008 -0.0438
19557TIP3    H180162   4.611   5.285   3.350  1.0737  0.5184 -1.5646
19557TIP3    H280163   4.762   5.276   3.354  0.9722 -0.4458  0.7598
19558TIP3   OH280164   3.303   6.638   5.119 -0.8464  0.0917 -0.6294
19558TIP3    H180165   3.304   6.584   5.040  0.8046 -1.0155  0.1274
19558TIP3    H280166   3.385   6.688   5.115 -0.4589 -0.4218  0.6642
19559TIP3   OH280167   3.895   4.528   5.272 -0.0809  0.2620  0.2741
19559TIP3    H180168   3.940   4.521   5.356 -1.1350 -1.7359  0.7019
19559TIP3    H280169   3.938   4.465   5.216  0.1626  1.0950 -0.4866
19560TIP3   OH280170   2.300   5.707   5.117 -0.0862  0.1396  0.1204
19560TIP3    H180171   2.384   5.748   5.140 -0.2137 -0.0204  0.8873
19560TIP3    H280172   2.303   5.699   5.022 -0.6874  3.3301 -0.2292
19561TIP3   OH280173   1.208   7.061   1.117  0.5776  0.4319  0.1596
19561TIP3    H180174   1.127   7.102   1.149  1.8502  1.3441  2.3472
19561TIP3    H280175   1.264   7.134   1.092  1.2572 -0.1423 -0.0124
19562TIP3   OH280176   0.082   2.619   3.994  0.1554 -0.3417  0.3727
19562TIP3    H180177   0.010   2.682   3.996  2.1956  2.1018 -0.2429
19562TIP3    H280178   0.153   2.662   4.043  1.7528 -1.9452 -0.4795
19563TIP3   OH280179   4.504   5.230   2.618 -0.0921  0.0085  0.1199
19563TIP3    H180180   4.535   5.266   2.701 -0.6756 -1.8473  1.1651
19563TIP3    H280181   4.520   5.136   2.625 -1.2533 -0.3207 -1.3903
19564TIP3   OH280182   1.914   5.723   4.509  0.2613  0.2766  0.2508
19564TIP3    H180183   1.902   5.782   4.584 -1.1301 -0.3477  0.5309
19564TIP3    H280184   2.007   5.731   4.487  0.6603  0.5600  1.9627
19565TIP3   OH280185   3.521   5.711   0.984  0.0389 -0.4191 -0.4930
19565TIP3    H180186   3.534   5.798   1.022  0.0770 -1.0772  1.0248
19565TIP3    H280187   3.452   5.672   1.037  1.5403 -2.1411  0.2305
19566TIP3   OH280188   1.404   6.309   4.119  0.0739 -0.1120 -0.4513
19566TIP3    H180189   1.453   6.298   4.200 -0.8700 -0.6713  0.0589
19566TIP3    H280190   1.445   6.249   4.057  0.2995 -0.2645 -0.1515
19567TIP3   OH280191   2.867   5.439   4.725  0.3423 -0.2770 -0.1999
19567TIP3    H180192   2.920   5.518   4.726  0.0140 -0.0484 -0.4758
19567TIP3    H280193   2.793   5.459   4.782  0.1225 -0.2865 -0.4804
19568TIP3   OH280194   2.030   0.150   3.586 -0.3005  0.2174  0.2503
19568TIP3    H180195   1.953   0.189   3.627 -0.3506 -0.6257  0.9730
19568TIP3    H280196   2.018   0.056   3.598  0.4953  0.0495 -0.2604
19569TIP3   OH280197   3.650   0.949   5.202 -0.2492 -0.0375  0.2085
19569TIP3    H180198   3.689   0.974   5.286  0.6353 -0.3418 -0.1002
19569TIP3    H280199   3.725   0.933   5.145 -0.8416 -0.1868 -0.5381
19570TIP3   OH280200   6.621   7.123   4.138  0.2419  0.2474 -0.0362
19570TIP3    H180201   6.596   7.168   4.057  0.0670 -0.6053 -0.4504
19570TIP3    H280202   6.637   7.195   4.200  0.7809  0.9186 -0.9319
19571TIP3   OH280203   4.590   5.166   5.468  0.0739 -0.1657  0.0452
19571TIP3    H180204   4.661   5.139   5.526 -1.2862 -3.3930  0.3203
19571TIP3    H280205   4.541   5.231   5.518  1.1845 -0.0123  0.9472
19572TIP3   OH280206   1.996   5.190   0.358 -0.8468  0.3055 -0.1048
19572TIP3    H180207   1.979   5.203   0.451  0.4642  1.3780  0.0023
19572TIP3    H280208   1.996   5.095   0.346  0.0289  0.1334  1.1905
19573TIP3   OH280209   2.501   1.075   1.166 -0.1771 -0.2290  0.0339
19573TIP3    H180210   2.535   1.105   1.082 -0.2498  1.4436  0.5734
19573TIP3    H280211   2.537   1.137   1.230 -1.6367 -0.3266  0.9914
19574TIP3   OH280212   2.580   6.166   2.469 -0.1359  0.0870 -0.1420
19574TIP3    H180213   2.636   6.208   2.403 -1.1871 -1.0186 -1.7904
19574TIP3    H280214   2.553   6.237   2.526  0.1589  1.2254 -1.3884
19575TIP3   OH280215   4.491   1.570   0.596  0.4096  0.7520  0.0242
19575TIP3    H180216   4.567   1.596   0.648  2.6553 -0.6524 -2.4457
19575TIP3    H280217   4.528   1.537   0.514 -2.8022 -1.6142 -0.5525
19576TIP3   OH280218   6.302   5.388   3.771 -0.4659 -0.0155 -0.0536
19576TIP3    H180219   6.283   5.450   3.701  1.2683  1.6290  0.8783
19576TIP3    H280220   6.317   5.305   3.727 -1.4763  0.5276 -1.4441
19577TIP3   OH280221   1.470   0.620   1.659  0.1084 -0.2837 -0.1798
19577TIP3    H180222   1.486   0.709   1.688  0.7920  0.2831 -2.2256
19577TIP3    H280223   1.422   0.579   1.731 -1.2295  2.0659  0.2906
19578TIP3   OH280224   0.789   1.205   4.499  0.3560 -0.3709 -0.0582
19578TIP3    H180225   0.858   1.221   4.435  0.5485  0.6348  0.4044
19578TIP3    H280226   0.824   1.237   4.582 -1.5198  2.2504 -0.2352
19579TIP3   OH280227   2.753   2.623   5.858 -0.3885  0.0163  0.1032
19579TIP3    H180228   2.778   2.532   5.847  0.6479  0.1789  0.9867
19579TIP3    H280229   2.834   2.672   5.846 -1.1211  0.9178 -1.4113
19580TIP3   OH280230   5.212   0.470   4.502 -0.2601  0.1774 -0.2597
19580TIP3    H180231   5.232   0.456   4.409 -0.4542 -0.8409 -0.1650
19580TIP3    H280232   5.145   0.538   4.502  1.0417  1.4617 -0.7546
19581TIP3   OH280233   4.229   3.593   2.530 -0.4189 -1.0421  0.7566
19581TIP3    H180234   4.205   3.538   2.605  0.3590 -2.8314 -0.2717
19581TIP3    H280235   4.252   3.531   2.462 -1.2322  0.5696 -1.0235
19582TIP3   OH280236   2.672   2.966   4.783 -0.3386 -0.0533 -0.5114
19582TIP3    H180237   2.600   2.913   4.817  0.4185 -0.2039  0.9170
19582TIP3    H280238   2.690   2.931   4.696 -1.0952 -0.8997 -0.3299
19583TIP3   OH280239   3.703   4.847   5.751  0.0136  0.1788  0.2268
19583TIP3    H180240   3.708   4.767   5.803  0.5056  0.4820  0.6553
19583TIP3    H280241   3.794   4.875   5.741 -0.0339 -0.1771 -1.2767
19584TIP3   OH280242   1.655   0.161   5.640  0.3676 -0.1920  0.2647
19584TIP3    H180243   1.674   0.113   5.720  2.0761 -0.3898 -0.2321
19584TIP3    H280244   1.710   0.239   5.646 -0.6036  0.5162 -0.0355
19585TIP3   OH280245   2.505   6.795   3.963  0.1754 -0.5015 -0.0540
19585TIP3    H180246   2.443   6.774   3.893 -0.3617 -0.4627  0.4134
19585TIP3    H280247   2.550   6.874   3.931  0.2051 -0.7094 -0.5299
19586TIP3   OH280248   4.792   5.003   4.881 -0.4375 -0.6766  0.2759
19586TIP3    H180249   4.709   5.004   4.930 -0.9838  0.8043 -0.6477
19586TIP3    H280250   4.768   4.970   4.794  0.1773 -1.4138  0.3793
19587TIP3   OH280251   3.879   7.063   6.201  0.4362 -0.1684  0.2185
19587TIP3    H180252   3.828   6.992   6.239 -0.6475  0.9525  0.8831
19587TIP3    H280253   3.817   7.112   6.148  1.2913 -0.0130 -0.6462
19588TIP3   OH280254   3.154   7.172   0.993 -0.2925  0.6017 -0.1594
19588TIP3    H180255   3.084   7.204   0.936  0.8874  0.4033 -1.7498
19588TIP3    H280256   3.146   7.077   0.991 -1.7179  0.6360  1.9266
19589TIP3   OH280257   1.347   1.458   3.361  0.0309  0.0493  0.1893
19589TIP3    H180258   1.326   1.550   3.352 -1.3344 -0.3354 -0.7154
19589TIP3    H280259   1.262   1.413   3.361  0.7793 -1.4517 -2.3430
19590TIP3   OH280260   2.912   2.012   4.390  0.0379  0.6712 -0.1213
19590TIP3    H180261   2.825   2.049   4.374 -1.4747 -2.1009  1.1983
19590TIP3    H280262   2.908   1.979   4.480  1.4323 -2.1272 -0.9987
19591TIP3   OH280263   6.971   0.695   5.580 -0.8597 -0.2546 -0.1888
19591TIP3    H180264   6.966   0.787   5.605 -2.3072 -0.3528 -0.0525
19591TIP3    H280265   6.880   0.664   5.584 -0.2319 -2.0591  1.2358
19592TIP3   OH280266   2.757   0.569   5.593  0.1098 -0.1433  0.0612
19592TIP3    H180267   2.817   0.496   5.576 -1.5772 -1.3460 -0.8428
19592TIP3    H280268   2.776   0.632   5.524  0.8332 -0.2017  0.2016
19593TIP3   OH280269   3.143   5.586   5.464  0.0364  0.5605 -0.2925
19593TIP3    H180270   3.062   5.588   5.515 -0.5756  0.4167 -1.2460
19593TIP3    H280271   3.213   5.595   5.529 -0.6750 -0.9406  0.7049
19594TIP3   OH280272   3.859   6.724   2.235 -0.3079  0.3306 -0.2351
19594TIP3    H180273   3.876   6.672   2.314  0.8519  0.2262 -0.5473
19594TIP3    H280274   3.771   6.759   2.248  0.6193  1.9557  2.0269
19595TIP3   OH280275   4.241   7.041   4.451 -0.2503  0.9823  0.2736
19595TIP3    H180276   4.237   7.078   4.539  0.8215 -0.7926  1.1053
19595TIP3    H280277   4.158   6.996   4.440 -0.3771  1.1874  0.3869
19596TIP3   OH280278   2.356   4.095   3.334  0.3138 -0.1530  0.5057
19596TIP3    H180279   2.374   4.176   3.382 -1.3199 -0.3149  1.4538
19596TIP3    H280280   2.269   4.069   3.364 -0.2301 -0.9347 -1.6531
19597TIP3   OH280281   2.743   5.613   1.217  0.4218  0.0777 -0.5832
19597TIP3    H180282   2.756   5.536   1.273 -0.1379  1.3730  1.3589
19597TIP3    H280283   2.825   5.662   1.223  0.3445  0.2413 -0.8600
19598TIP3   OH280284   0.666   3.936   2.208  0.3619 -0.8663 -0.1573
19598TIP3    H180285   0.704   3.966   2.291 -0.8667 -0.7859  0.3748
19598TIP3    H280286   0.742   3.913   2.155  1.1233 -2.6741  1.6375
19599TIP3   OH280287   4.472   6.750   1.938 -0.2871 -0.0369 -0.0172
19599TIP3    H180288   4.387   6.789   1.961 -0.6721 -0.7608 -0.2081
19599TIP3    H280289   4.451   6.659   1.916  0.3669  0.0931 -1.2155
19600TIP3   OH280290   1.133   6.556   3.309  0.1422  0.6595 -0.8046
19600TIP3    H180291   1.227   6.567   3.295 -0.0564  2.6872 -0.6567
19600TIP3    H280292   1.095   6.641   3.288 -1.6219 -0.0040 -0.4203
19601TIP3   OH280293   5.916   6.919   0.577  0.3817 -0.3559  0.4170
19601TIP3    H180294   5.838   6.903   0.630  0.3059  1.4584  0.8867
19601TIP3    H280295   5.894   6.885   0.490 -0.8174 -0.1307  0.6249
19602TIP3   OH280296   2.598   6.949   4.767 -0.5915 -0.0587  0.3487
19602TIP3    H180297   2.662   7.004   4.814  0.2110 -0.5294 -0.1900
19602TIP3    H280298   2.530   7.011   4.739 -0.2589  0.4837  0.7158
19603TIP3   OH280299   2.542   2.481   3.963 -0.7260 -0.3255  0.2210
19603TIP3    H180300   2.570   2.469   3.872 -1.8418 -0.4800 -0.1078
19603TIP3    H280301   2.464   2.426   3.971  0.0185 -1.1954  1.5927
19604TIP3   OH280302   0.021   0.269   3.944 -0.0836 -0.8331  0.1705
19604TIP3    H180303   0.101   0.302   3.905  0.2939  0.2281  1.7814
19604TIP3    H280304   0.025   0.299   4.035 -2.7608  0.0583  0.0284
19605TIP3   OH280305   4.433   2.614   3.659  0.0728 -0.7667 -0.2157
19605TIP3    H180306   4.433   2.560   3.739  1.0769  0.6660  0.7816
19605TIP3    H280307   4.343   2.612   3.628 -0.1182 -2.1599  0.3863
19606TIP3   OH280308   1.891   0.790   4.181  0.0374 -0.4757 -0.3554
19606TIP3    H180309   1.974   0.786   4.132  0.4429 -0.0978  0.2941
19606TIP3    H280310   1.824   0.780   4.114  0.5953 -0.2375 -0.9609
19607TIP3   OH280311   0.018   5.993   1.062 -0.2487  0.3127 -0.2087
19607TIP3    H180312   0.089   6.035   1.110  0.2994 -2.4402  1.4970
19607TIP3    H280313  -0.029   6.066   1.021  1.7057  2.4247  1.1581
19608TIP3   OH280314   4.131   6.543   2.225 -0.2337  0.3451  0.1726
19608TIP3    H180315   4.157   6.533   2.134 -1.4180 -0.9076 -0.0467
19608TIP3    H280316   4.171   6.468   2.270  1.2135  1.5318  0.8801
19609TIP3   OH280317   4.774   6.338   1.697 -0.7171  0.1000  0.1511
19609TIP3    H180318   4.789   6.288   1.617 -1.8934 -0.2519  0.1449
19609TIP3    H280319   4.816   6.423   1.680  0.8443 -0.6834 -0.0255
19610TIP3   OH280320   3.242   6.909   2.887  0.5827  0.4556 -0.7031
19610TIP3    H180321   3.331   6.917   2.922  0.6949 -0.4846 -0.7623
19610TIP3    H280322   3.231   6.986   2.831 -0.5492  3.5108  3.4753
19611TIP3   OH280323   1.556   1.620   5.937 -0.5147  0.5442 -0.3244
19611TIP3    H180324   1.567   1.541   5.990 -0.8981  1.6275  1.3972
19611TIP3    H280325   1.569   1.692   5.998  1.6938  1.8512 -2.2513
19612TIP3   OH280326   2.841   0.317   3.903 -0.2088  0.0750 -0.2805
19612TIP3    H180327   2.927   0.286   3.875  0.1574 -0.0824  0.9704
19612TIP3    H280328   2.829   0.400   3.858  1.5248  1.1274  1.1432
19613TIP3   OH280329   2.142   5.874   2.978  0.3065  0.3494  0.3195
19613TIP3    H180330   2.230   5.866   2.943  0.2785  0.9275  0.1159
19613TIP3    H280331   2.085   5.837   2.911  0.2586  1.3867 -0.2167
19614TIP3   OH280332   6.094   0.017   1.936  0.1955 -0.2599 -0.1591
19614TIP3    H180333   5.999   0.031   1.937  0.0198 -1.3574 -0.7632
19614TIP3    H280334   6.129   0.088   1.990 -0.8874  0.7860 -0.7842
19615TIP3   OH280335   6.553   5.027   1.752  0.4602  0.0980 -0.7689
19615TIP3    H180336   6.573   4.990   1.838 -0.1757 -1.0279 -1.0851
19615TIP3    H280337   6.632   5.011   1.700  0.6355  0.2772 -0.5590
19616TIP3   OH280338   2.371   2.163   1.546 -0.0174 -0.0615  0.7494
19616TIP3    H180339   2.347   2.088   1.601 -0.8056  0.5929  1.3163
19616TIP3    H280340   2.463   2.181   1.568  0.0372 -0.5849  0.9380
19617TIP3   OH280341   2.001   4.972   4.431 -0.1744  0.7413 -0.3400
19617TIP3    H180342   2.030   4.884   4.454 -0.4986  1.0577  1.3017
19617TIP3    H280343   1.908   4.962   4.410 -0.1593  0.6535 -0.3630
19618TIP3   OH280344   2.232   6.611   4.646  0.3631  0.0291  0.7684
19618TIP3    H180345   2.153   6.661   4.666  0.6403  0.7919 -0.0159
19618TIP3    H280346   2.300   6.654   4.699  0.4668  0.0610  0.6084
19619TIP3   OH280347   3.397   6.127   2.679 -0.2008 -0.3118  0.1838
19619TIP3    H180348   3.302   6.143   2.679 -0.1516 -0.0184  0.2684
19619TIP3    H280349   3.412   6.077   2.760 -0.6333 -2.4935 -1.0362
19620TIP3   OH280350   3.387   5.849   4.924  0.1329 -0.2955 -0.4124
19620TIP3    H180351   3.297   5.818   4.914  0.6754 -1.7142 -1.0752
19620TIP3    H280352   3.378   5.941   4.949 -1.4899 -0.1323 -1.4847
19621TIP3   OH280353   3.549   1.445   3.188 -0.0777  0.1974  0.0926
19621TIP3    H180354   3.498   1.385   3.133  1.0527  1.0771 -1.9719
19621TIP3    H280355   3.640   1.424   3.170  0.3250  0.6015  1.5501
19622TIP3   OH280356   6.611   3.971   4.130 -0.0136 -0.3872  0.4072
19622TIP3    H180357   6.583   3.994   4.218  1.0773 -0.8345  0.8861
19622TIP3    H280358   6.564   3.890   4.109  0.0958 -0.5477  0.7793
19623TIP3   OH280359   6.953   5.605   1.330 -0.5331  0.1517  0.6090
19623TIP3    H180360   6.980   5.679   1.275  0.4098  1.2788  2.5160
19623TIP3    H280361   6.886   5.641   1.388  2.0985  0.4113  3.6438
19624TIP3   OH280362   2.669   4.912   4.081  0.1140  0.4417 -0.0695
19624TIP3    H180363   2.606   4.920   4.009  1.3068  2.0606 -0.9807
19624TIP3    H280364   2.708   4.999   4.088  2.5378 -0.6212  0.1882
19625TIP3   OH280365   4.725   3.873   2.779  0.4266 -0.9557 -0.4759
19625TIP3    H180366   4.639   3.895   2.815  0.6645  1.9643 -1.5181
19625TIP3    H280367   4.785   3.935   2.820  1.3156 -0.1550 -2.8842
19626TIP3   OH280368   5.868   3.871   4.090 -0.0036  0.2766  0.0813
19626TIP3    H180369   5.849   3.953   4.135  0.9480 -0.1140  1.2135
19626TIP3    H280370   5.878   3.895   3.998 -0.3218  1.3365  0.3228
19627TIP3   OH280371   4.638   5.016   4.355 -0.1157  0.0464 -0.6192
19627TIP3    H180372   4.625   5.110   4.340 -0.0420  0.4239  1.5067
19627TIP3    H280373   4.732   5.003   4.349  0.1176  0.5827  1.4849
19628TIP3   OH280374   6.803   5.466   2.346 -0.3215 -0.3982  0.0348
19628TIP3    H180375   6.870   5.406   2.378 -0.1821 -0.5358 -0.5166
19628TIP3    H280376   6.817   5.470   2.251 -1.0752 -0.4059 -0.0795
19629TIP3   OH280377   6.140   1.923   3.759  0.0860 -0.1756  0.4570
19629TIP3    H180378   6.062   1.875   3.787 -0.5171 -0.0276 -0.9167
19629TIP3    H280379   6.109   2.013   3.746  0.3021 -0.2622 -0.7675
19630TIP3   OH280380   3.189   6.070   5.529  0.2239  0.6303  0.4596
19630TIP3    H180381   3.280   6.082   5.503  0.4443 -0.4199  0.7032
19630TIP3    H280382   3.143   6.145   5.493  1.1723  1.1095  0.2459
19631TIP3   OH280383   3.502   3.294   3.612  0.6234  0.1655  0.1256
19631TIP3    H180384   3.587   3.336   3.597  0.3850  0.2907 -0.8976
19631TIP3    H280385   3.493   3.232   3.540 -1.3977  2.1543 -1.4074
19632TIP3   OH280386   2.330   2.270   3.072 -0.0880  0.0443  0.5619
19632TIP3    H180387   2.415   2.231   3.093 -1.6219 -2.5238  2.2806
19632TIP3    H280388   2.322   2.344   3.132  2.0763  2.0044 -1.4844
19633TIP3   OH280389   3.850   6.609   5.757  0.6656 -0.0682 -0.2829
19633TIP3    H180390   3.944   6.597   5.743  0.7573  1.1921 -0.7690
19633TIP3    H280391   3.839   6.598   5.852  1.4058  0.4299 -0.1330
19634TIP3   OH280392   3.254   2.906   3.020 -0.3757  0.0021  0.3259
19634TIP3    H180393   3.219   2.825   3.058 -1.8129  0.8559  0.8916
19634TIP3    H280394   3.193   2.928   2.949 -0.1338  0.7006  0.3282
19635TIP3   OH280395   3.291   0.378   4.313  0.3106  0.4452  0.1562
19635TIP3    H180396   3.245   0.351   4.234 -0.6000  1.0935  0.4616
19635TIP3    H280397   3.372   0.326   4.312 -0.2123 -0.3780 -0.6042
19636TIP3   OH280398   6.752   5.102   2.396 -0.0894  0.3156 -0.1904
19636TIP3    H180399   6.746   5.007   2.393  2.1343  0.1555 -0.0603
19636TIP3    H280400   6.668   5.132   2.362  0.1634 -1.6765 -2.7441
19637TIP3   OH280401   2.767   0.312   5.743  0.0996  0.1445  0.0479
19637TIP3    H180402   2.782   0.233   5.796  1.3214  0.4841  0.2292
19637TIP3    H280403   2.712   0.368   5.798 -0.0018 -0.2010  0.2944
19638TIP3   OH280404   4.018   1.351   5.581 -0.4471  0.7122  0.2322
19638TIP3    H180405   3.954   1.280   5.591  1.1846 -0.5283  2.3688
19638TIP3    H280406   3.972   1.428   5.615 -2.2311  0.7281 -2.0809
19639TIP3   OH280407   4.178   0.941   3.869  0.2706 -0.5899  0.1677
19639TIP3    H180408   4.247   0.924   3.805  1.6845 -0.4913  1.6299
19639TIP3    H280409   4.192   0.875   3.937 -0.2731  0.2417  1.1048
19640TIP3   OH280410   1.488   6.909   4.733  0.3115 -0.4412 -0.1995
19640TIP3    H180411   1.578   6.907   4.768  0.9328 -0.5827 -1.7736
19640TIP3    H280412   1.461   6.818   4.732 -0.0460 -0.3498  0.7562
19641TIP3   OH280413   6.152   6.754   4.578 -0.2261 -0.1192  0.1668
19641TIP3    H180414   6.180   6.844   4.597 -2.8185  0.8119 -0.3085
19641TIP3    H280415   6.144   6.713   4.665  2.7266 -0.5130  0.3274
19642TIP3   OH280416   6.958   2.178   4.876 -0.5659 -0.5233  0.2361
19642TIP3    H180417   6.895   2.133   4.932 -0.4760 -0.4175  0.4235
19642TIP3    H280418   6.963   2.267   4.911 -0.5785 -0.4280  0.0027
19643TIP3   OH280419   6.354   5.279   5.407  0.2756 -0.1885 -0.2991
19643TIP3    H180420   6.307   5.344   5.356  0.4707  0.3993  0.2677
19643TIP3    H280421   6.438   5.320   5.429 -0.6588  0.4438  2.3477
19644TIP3   OH280422   0.895   7.053   3.862 -0.4150  0.6200  0.0479
19644TIP3    H180423   0.899   7.134   3.912 -0.4859 -0.2384  1.4714
19644TIP3    H280424   0.916   6.984   3.925 -0.2557 -0.4682 -1.1548
19645TIP3   OH280425   3.965   5.084   4.255 -0.3808  0.5134  1.2922
19645TIP3    H180426   4.039   5.056   4.308  0.5456  0.5885  0.0664
19645TIP3    H280427   4.004   5.134   4.183 -1.5728  0.1090  0.3413
19646TIP3   OH280428   1.488   0.113   5.047 -0.3182  0.5362  0.3705
19646TIP3    H180429   1.574   0.072   5.054  0.2430  1.6275  0.0137
19646TIP3    H280430   1.435   0.050   4.999  0.6840  0.4406 -0.6259
19647TIP3   OH280431   7.190   2.550   2.509 -0.3212 -0.0400 -0.7124
19647TIP3    H180432   7.223   2.509   2.589 -1.4691  1.1435  0.3852
19647TIP3    H280433   7.254   2.618   2.489  0.6063 -1.1232 -1.5003
19648TIP3   OH280434   6.477   6.392   2.579 -0.2511 -0.3584  0.4520
19648TIP3    H180435   6.557   6.370   2.531  0.7161 -0.3864  2.0268
19648TIP3    H280436   6.452   6.478   2.545  1.9629  0.8750  1.7973
19649TIP3   OH280437   5.395   4.861   2.046 -0.2115 -0.3069 -0.2445
19649TIP3    H180438   5.450   4.802   1.995  0.1471 -0.0497 -0.1637
19649TIP3    H280439   5.389   4.820   2.132  1.9634  0.8937  0.5346
19650TIP3   OH280440   4.414   6.142   5.192 -0.5420 -0.1586 -0.0414
19650TIP3    H180441   4.357   6.079   5.236  1.7588 -0.8377  2.0658
19650TIP3    H280442   4.398   6.225   5.237  0.1977 -0.3706  0.6159
19651TIP3   OH280443   0.908   5.466   4.701  0.4349 -0.4411  0.0843
19651TIP3    H180444   0.920   5.559   4.721  0.1774 -0.6035  1.0191
19651TIP3    H280445   0.995   5.427   4.712  0.5311 -0.3220 -0.2518
19652TIP3   OH280446   3.335   5.102   3.488  0.7543 -0.1591 -0.2060
19652TIP3    H180447   3.252   5.060   3.512  0.5247  0.3652 -0.0852
19652TIP3    H280448   3.401   5.054   3.538  0.3368  0.5431  1.0433
19653TIP3   OH280449   1.645   4.855   3.816  0.1201  0.0296 -0.0360
19653TIP3    H180450   1.671   4.786   3.756 -0.9037  1.2162 -1.8954
19653TIP3    H280451   1.711   4.853   3.885  0.7059 -2.0730 -0.6316
19654TIP3   OH280452   5.643   6.499   4.986 -0.0335 -0.2100 -0.5977
19654TIP3    H180453   5.571   6.560   5.005 -0.3094 -0.4999 -0.7206
19654TIP3    H280454   5.667   6.463   5.072  2.2285  2.3971 -0.0434
19655TIP3   OH280455   2.283   0.999   4.054  0.0112 -0.0861  0.3803
19655TIP3    H180456   2.258   1.092   4.057  1.1217  0.2793 -0.9594
19655TIP3    H280457   2.247   0.962   4.134 -0.1280  1.5927  1.1208
19656TIP3   OH280458   6.174   2.458   5.108 -0.2066  0.3386 -0.0899
19656TIP3    H180459   6.152   2.507   5.187 -1.7872  0.2269 -0.4439
19656TIP3    H280460   6.138   2.371   5.124 -2.0283  0.7919 -1.6257
19657TIP3   OH280461   4.147   5.548   3.272 -0.1398  0.7631  0.3310
19657TIP3    H180462   4.190   5.463   3.264 -1.7272 -0.1610  1.3445
19657TIP3    H280463   4.055   5.527   3.288 -0.6003  2.6767  0.3099
19658TIP3   OH280464   3.424   5.275   2.966 -0.4604 -0.2748 -0.3435
19658TIP3    H180465   3.494   5.327   3.005  0.6728 -0.5489 -1.9350
19658TIP3    H280466   3.374   5.241   3.040 -0.0735  1.5161  0.7591
19659TIP3   OH280467   3.971   4.641   4.926  0.5790  0.2904 -0.0669
19659TIP3    H180468   4.025   4.619   5.001 -0.1474 -0.9010  0.1100
19659TIP3    H280469   4.013   4.719   4.889  1.4204  0.3897  1.0660
19660TIP3   OH280470   1.677   5.429   5.993  0.3524  0.2373 -0.4600
19660TIP3    H180471   1.736   5.444   6.067 -0.7094 -1.6892  0.8197
19660TIP3    H280472   1.707   5.490   5.926  0.8328  2.5668  1.8239
19661TIP3   OH280473   4.470   0.610   4.895  0.3947 -0.3831 -0.1054
19661TIP3    H180474   4.539   0.568   4.844  0.5564  1.3315 -1.3349
19661TIP3    H280475   4.444   0.543   4.958  1.7776 -1.7541 -0.9293
19662TIP3   OH280476   1.769   1.362   2.090 -0.1353  0.3860  0.0891
19662TIP3    H180477   1.683   1.403   2.097 -1.5726 -2.5208  0.2844
19662TIP3    H280478   1.804   1.366   2.179 -0.5245  0.6859  0.2322
19663TIP3   OH280479   2.991   0.417   5.380 -0.5103  0.2502 -0.2231
19663TIP3    H180480   2.969   0.476   5.309  2.7807 -0.2349 -1.7491
19663TIP3    H280481   2.945   0.335   5.360 -0.9536  0.6637 -0.8817
19664TIP3   OH280482   4.871   0.073   3.844 -0.0419  0.2129  0.2411
19664TIP3    H180483   4.879  -0.018   3.873 -2.3764 -0.2272 -0.3781
19664TIP3    H280484   4.793   0.106   3.888 -0.7265  1.0987 -1.5663
19665TIP3   OH280485   1.653   3.955   4.470 -0.0189 -0.2654  0.2292
19665TIP3    H180486   1.745   3.939   4.449 -0.6520 -1.0623 -2.1199
19665TIP3    H280487   1.629   4.030   4.415 -1.3226 -1.4257 -0.8345
19666TIP3   OH280488   1.070   7.129   1.790  0.0677  0.3246  0.3909
19666TIP3    H180489   1.013   7.166   1.858 -0.6990 -1.9367  1.0000
19666TIP3    H280490   1.145   7.188   1.788 -1.4309  2.3098  0.8593
19667TIP3   OH280491   4.459   4.312   4.835  0.4861  0.1706  0.1920
19667TIP3    H180492   4.549   4.319   4.806  0.3817  2.0949  0.2650
19667TIP3    H280493   4.413   4.383   4.790 -1.0581 -0.9633 -0.0789
19668TIP3   OH280494   5.097   0.644   3.839 -0.2881 -0.1565  0.1221
19668TIP3    H180495   5.133   0.617   3.754 -1.1726 -2.3117  0.4126
19668TIP3    H280496   5.006   0.616   3.836 -0.9508  1.8401  0.9002
19669TIP3   OH280497   1.616   6.048   3.130 -0.3958 -0.1754  0.2666
19669TIP3    H180498   1.633   6.008   3.045  1.1754 -0.4637  0.7020
19669TIP3    H280499   1.635   6.141   3.117 -0.4048 -0.1790  0.2304
19670TIP3   OH280500   0.406   6.289   4.340 -0.1126  0.3947  0.0685
19670TIP3    H180501   0.413   6.198   4.311  1.0594 -0.0791  1.7457
19670TIP3    H280502   0.317   6.297   4.374 -1.2824  0.7709 -2.9354
19671TIP3   OH280503   2.597   4.420   6.043 -0.6669  0.7955 -0.0568
19671TIP3    H180504   2.650   4.344   6.067  0.4024  1.1622 -1.1629
19671TIP3    H280505   2.543   4.389   5.970 -1.7822  0.5040  0.8813
19672TIP3   OH280506   6.718   4.835   3.653 -0.1036  0.8449 -0.5221
19672TIP3    H180507   6.780   4.904   3.631  1.9738 -1.0998 -0.9481
19672TIP3    H280508   6.754   4.794   3.731  0.7083 -2.1270 -2.3702
19673TIP3   OH280509   2.308   1.746   3.585  0.2192  0.1674 -0.4209
19673TIP3    H180510   2.318   1.704   3.670  1.2842 -1.3884 -1.2816
19673TIP3    H280511   2.214   1.746   3.569 -0.1060  1.8067  1.3893
19674TIP3   OH280512   6.822   6.130   4.213  0.2050 -0.1975 -0.0558
19674TIP3    H180513   6.831   6.035   4.202 -1.1931 -0.4512  0.8996
19674TIP3    H280514   6.902   6.155   4.260  1.7910 -0.4931 -2.5287
19675TIP3   OH280515   2.335   5.889   1.972 -0.8115 -0.2362  0.3524
19675TIP3    H180516   2.389   5.928   1.903  0.5300 -0.4641  1.2661
19675TIP3    H280517   2.248   5.928   1.959 -0.1545  0.9975 -0.4267
19676TIP3   OH280518   2.997   5.806   2.135 -0.5755 -0.0222 -0.2933
19676TIP3    H180519   2.960   5.845   2.215 -1.0688 -0.3184 -0.3742
19676TIP3    H280520   3.079   5.766   2.164 -0.9844 -0.5398  0.1692
19677TIP3   OH280521   6.339   5.072   2.491  0.2835 -0.0581 -0.3842
19677TIP3    H180522   6.249   5.102   2.497  1.7079  4.3367  0.6792
19677TIP3    H280523   6.362   5.083   2.399 -1.0109 -3.7831 -1.2316
19678TIP3   OH280524   3.252   5.863   4.613 -0.0316  0.2830 -0.1738
19678TIP3    H180525   3.343   5.856   4.643  0.3083 -0.9783 -1.4498
19678TIP3    H280526   3.248   5.949   4.570  0.5875  0.3097 -0.1825
19679TIP3   OH280527   0.943   6.907   2.763 -0.1237  0.3261 -0.2249
19679TIP3    H180528   0.947   6.835   2.699 -0.1183 -0.7486  0.9502
19679TIP3    H280529   1.007   6.882   2.830  0.3160  1.7469 -0.1120
19680TIP3   OH280530   6.554   6.893   2.382  0.2762 -0.1881 -0.0130
19680TIP3    H180531   6.474   6.904   2.330 -0.0105  0.6127  0.5946
19680TIP3    H280532   6.539   6.947   2.460  1.2405 -0.3643  0.2899
19681TIP3   OH280533   7.009   1.960   3.386 -0.1084 -0.8151 -0.1170
19681TIP3    H180534   7.078   1.956   3.319 -0.8718  3.6469 -1.3367
19681TIP3    H280535   7.045   2.015   3.455 -1.6980 -0.1223  0.1891
19682TIP3   OH280536   4.184   3.994   4.857 -0.1282  0.1511 -0.3137
19682TIP3    H180537   4.144   3.923   4.907 -1.9489  1.5067  0.1841
19682TIP3    H280538   4.212   3.953   4.776  1.1208 -1.6680  1.0013
19683TIP3   OH280539   0.939   5.175   4.859 -0.1574  0.5341  0.1280
19683TIP3    H180540   0.856   5.143   4.825  0.9012 -3.4636  1.0154
19683TIP3    H280541   0.924   5.185   4.953 -0.0102  1.0985  0.0920
19684TIP3   OH280542   4.311   1.293   3.797 -0.6421  0.4547 -0.7507
19684TIP3    H180543   4.271   1.338   3.871 -0.8540  0.1402 -0.6686
19684TIP3    H280544   4.241   1.236   3.764  0.2833 -1.4521  0.5202
19685TIP3   OH280545   1.704   5.838   3.643 -0.3577 -0.2027 -0.6081
19685TIP3    H180546   1.776   5.893   3.672 -1.4781 -0.0282  1.9265
19685TIP3    H280547   1.731   5.807   3.556  2.2072  0.7980 -0.2012
19686TIP3   OH280548   5.790   3.117   2.900 -0.1372 -0.2720 -0.3284
19686TIP3    H180549   5.706   3.073   2.888 -1.4670  1.8189  0.8630
19686TIP3    H280550   5.805   3.163   2.817 -0.5203 -0.0860 -0.2966
19687TIP3   OH280551   5.115   5.983   5.350  0.0415  0.2047  0.0731
19687TIP3    H180552   5.065   5.904   5.328 -2.3103  1.0797  2.0990
19687TIP3    H280553   5.187   5.952   5.405 -0.3361 -0.6376  0.0900
19688TIP3   OH280554   5.492   5.315   5.110  0.6443  0.1036 -0.0940
19688TIP3    H180555   5.498   5.404   5.074 -1.0908 -0.6477 -2.3384
19688TIP3    H280556   5.429   5.322   5.181 -0.0541  0.5259 -0.7526
19689TIP3   OH280557   2.757   3.825   4.244 -0.5455  0.4260  0.4485
19689TIP3    H180558   2.793   3.738   4.231  0.1774  0.6880  0.6661
19689TIP3    H280559   2.674   3.825   4.197 -0.1848 -0.1331 -0.1853
19690TIP3   OH280560   2.140   4.418   5.451  0.1793 -0.2290  0.2707
19690TIP3    H180561   2.201   4.404   5.524  1.1638 -0.3717 -0.5677
19690TIP3    H280562   2.128   4.331   5.412  2.8957  0.4433 -2.2582
19691TIP3   OH280563   4.460   4.585   4.730 -0.5049 -0.7694 -0.2819
19691TIP3    H180564   4.438   4.576   4.638  1.0080  2.3980 -1.0256
19691TIP3    H280565   4.378   4.612   4.772 -0.2575  2.0765 -1.4988
19692TIP3   OH280566   4.202   4.428   5.770 -0.0255  0.0602  0.3446
19692TIP3    H180567   4.186   4.355   5.710  1.6190  0.8429 -1.0922
19692TIP3    H280568   4.277   4.400   5.822  0.3458  0.5510  0.0769
19693TIP3   OH280569   2.989   5.845   1.595 -0.2888 -0.4429 -0.1446
19693TIP3    H180570   2.911   5.801   1.562 -0.4253  0.0063 -0.4121
19693TIP3    H280571   3.045   5.773   1.626 -0.8354 -0.7581  0.1218
19694TIP3   OH280572   0.605   5.175   3.696  0.1844 -0.0557  0.1747
19694TIP3    H180573   0.700   5.171   3.694  0.0776 -2.9462 -1.8554
19694TIP3    H280574   0.581   5.217   3.614 -0.3142  0.0111  0.3525
19695TIP3   OH280575   5.943   4.430   0.162 -0.4757  0.6774  0.2043
19695TIP3    H180576   5.986   4.395   0.084  0.7156  3.3037 -0.3668
19695TIP3    H280577   5.850   4.415   0.147  0.0306 -2.8502  0.3219
19696TIP3   OH280578   4.258   4.208   3.894  0.1597 -0.1679  0.3226
19696TIP3    H180579   4.174   4.218   3.849  0.1145  0.1312  0.4706
19696TIP3    H280580   4.306   4.288   3.872  1.2401 -1.3160 -1.5313
19697TIP3   OH280581   2.154   5.837   3.641  0.2381  0.4750  0.8705
19697TIP3    H180582   2.071   5.855   3.595  0.8646  1.0061 -0.0762
19697TIP3    H280583   2.130   5.777   3.712 -0.4378 -1.9573 -1.3360
19698TIP3   OH280584   3.711   5.739   3.749  0.1728  0.6456 -0.2320
19698TIP3    H180585   3.799   5.741   3.788  0.3268  0.7638 -0.5873
19698TIP3    H280586   3.652   5.740   3.824  0.4592  1.7744 -0.0196
19699TIP3   OH280587   6.034   1.179   1.571 -0.1741  0.1002 -0.2129
19699TIP3    H180588   6.048   1.099   1.622  0.5311 -0.4932 -1.3202
19699TIP3    H280589   6.052   1.154   1.481  0.9897  1.7472 -0.4669
19700TIP3   OH280590   4.815   4.354   2.747 -0.2194 -0.0150 -0.1477
19700TIP3    H180591   4.748   4.394   2.803  0.3991 -0.3160  0.8248
19700TIP3    H280592   4.780   4.268   2.725 -0.1309 -0.1962  0.4110
19701TIP3   OH280593   2.055   4.276   0.935  1.2637 -0.0618 -0.1690
19701TIP3    H180594   2.106   4.336   0.881  1.4540 -0.3246 -0.2801
19701TIP3    H280595   2.067   4.190   0.895  0.3784 -0.0568 -0.4584
19702TIP3   OH280596   6.239   6.840   2.373  0.8265 -0.0644 -0.3175
19702TIP3    H180597   6.233   6.928   2.409  1.6410 -0.6059  1.1978
19702TIP3    H280598   6.181   6.841   2.297  0.3343  1.5814  0.0576
19703TIP3   OH280599   3.058   2.175   1.411 -0.4652  0.2553  0.0409
19703TIP3    H180600   3.071   2.238   1.340  2.0411  0.6303  0.7847
19703TIP3    H280601   3.115   2.102   1.389 -1.3889 -0.6322  0.5327
19704TIP3   OH280602   3.617   3.090   5.557  0.2611  0.2372 -0.0014
19704TIP3    H180603   3.695   3.095   5.613  1.0481  0.0019 -1.0587
19704TIP3    H280604   3.571   3.012   5.587  0.9169 -0.1454  0.0165
19705TIP3   OH280605   0.121   6.407   2.425 -0.6481  0.5840  0.1681
19705TIP3    H180606   0.111   6.349   2.350 -0.0915 -0.0300  0.5632
19705TIP3    H280607   0.127   6.348   2.501  4.3824  0.8604  0.1607
19706TIP3   OH280608   3.006   0.808   3.364  0.3536 -0.2430  0.5638
19706TIP3    H180609   3.070   0.739   3.345 -0.3788 -0.7755 -0.0262
19706TIP3    H280610   2.926   0.777   3.322  0.3069  1.5019 -0.6885
19707TIP3   OH280611   6.070   3.522   3.791 -0.6354 -0.0795  0.0822
19707TIP3    H180612   6.125   3.469   3.733 -2.7448  0.2889 -2.3513
19707TIP3    H280613   6.034   3.459   3.854  0.8113 -0.6851  0.3123
19708TIP3   OH280614   0.595   3.307   4.659 -0.6679 -0.1406 -0.3081
19708TIP3    H180615   0.573   3.270   4.573 -1.1426 -0.4617 -0.0494
19708TIP3    H280616   0.552   3.392   4.660 -0.5958 -0.1021 -0.4199
19709TIP3   OH280617   7.104   3.913   5.030  0.5400  0.0012 -0.3649
19709TIP3    H180618   7.191   3.882   5.006  1.0388  1.5845 -0.6851
19709TIP3    H280619   7.048   3.890   4.956  1.2358  1.2622 -1.3022
19710TIP3   OH280620   5.148   0.810   4.069  0.0856 -0.1442 -0.2914
19710TIP3    H180621   5.130   0.752   3.995  0.3453  0.8783 -1.1770
19710TIP3    H280622   5.201   0.880   4.032  1.0358 -0.1153  1.0811
19711TIP3   OH280623   4.780   5.810   5.067 -0.6269 -0.1037  0.4128
19711TIP3    H180624   4.771   5.807   4.972 -1.2148 -0.6051  0.4787
19711TIP3    H280625   4.796   5.902   5.087  2.7157 -0.4451 -0.4398
19712TIP3   OH280626   1.996   6.713   5.334 -0.3005  0.4386  0.5140
19712TIP3    H180627   1.937   6.681   5.403 -0.0233  0.4513  0.7611
19712TIP3    H280628   1.980   6.807   5.331  0.9166  0.7139  1.7676
19713TIP3   OH280629   0.327   6.345   3.967 -0.3118 -0.0000 -0.2295
19713TIP3    H180630   0.305   6.352   3.874  0.5242 -1.0324 -0.5219
19713TIP3    H280631   0.244   6.358   4.013 -1.0301 -1.1065 -1.1878
19714TIP3   OH280632   0.227   1.855   3.101 -0.0511 -0.3269  0.4652
19714TIP3    H180633   0.238   1.763   3.126 -0.0899 -0.4505  0.0313
19714TIP3    H280634   0.316   1.886   3.084 -0.1613 -0.7093 -0.8725
19715TIP3   OH280635   4.498   2.650   4.120  0.2194 -0.2251 -0.1762
19715TIP3    H180636   4.509   2.717   4.053 -1.4365 -0.2653 -0.5161
19715TIP3    H280637   4.523   2.693   4.201 -0.6835  0.7745 -0.4099
19716TIP3   OH280638   3.715   6.543   5.397 -0.5412  0.8786 -0.2055
19716TIP3    H180639   3.785   6.506   5.451 -1.0746 -0.6882 -0.5612
19716TIP3    H280640   3.663   6.594   5.459  0.4436  1.3868  0.2178
19717TIP3   OH280641   1.807   3.368   4.443  0.2282 -0.0123 -0.6066
19717TIP3    H180642   1.777   3.276   4.446 -1.2640  0.4869  0.8237
19717TIP3    H280643   1.730   3.418   4.471  1.3047  1.6139 -0.5286
19718TIP3   OH280644   4.093   6.892   5.133 -0.3708  0.2599 -0.1409
19718TIP3    H180645   4.158   6.825   5.156  1.1420  1.7364  0.0677
19718TIP3    H280646   4.043   6.905   5.213 -1.3561 -1.3334 -0.4801
19719TIP3   OH280647   3.434   0.551   3.893  0.4021 -0.2237  0.7353
19719TIP3    H180648   3.417   0.627   3.949  1.4308 -0.1392  0.9424
19719TIP3    H280649   3.347   0.518   3.870 -0.0412  0.5740  1.2472
19720TIP3   OH280650   5.218   5.488   5.975 -0.3549  0.5540 -0.4249
19720TIP3    H180651   5.184   5.403   6.002 -0.3393  1.3124  2.0293
19720TIP3    H280652   5.292   5.467   5.918  0.6675 -1.0862  1.4701
19721TIP3   OH280653   3.802   1.075   3.088  0.1919  0.1177 -0.0275
19721TIP3    H180654   3.820   1.024   3.009 -0.0899 -0.5605  0.3453
19721TIP3    H280655   3.889   1.102   3.119  0.3846 -0.6698  0.1269
19722TIP3   OH280656   3.544   0.393   5.936  0.1123 -0.0214  0.2251
19722TIP3    H180657   3.523   0.420   6.026 -0.1983 -1.2467  0.5394
19722TIP3    H280658   3.615   0.330   5.946  0.8006  0.6298 -0.4873
19723TIP3   OH280659   0.366   0.303   5.163 -0.4455 -0.1234 -0.3416
19723TIP3    H180660   0.370   0.393   5.194  0.9350 -0.2831 -0.0027
19723TIP3    H280661   0.356   0.251   5.242  1.0771 -0.4066 -0.3243
19724TIP3   OH280662   3.364   3.480   4.135  0.1907 -0.6000  0.4144
19724TIP3    H180663   3.358   3.568   4.097  0.5488 -1.7489 -2.4055
19724TIP3    H280664   3.403   3.494   4.221  0.4227  1.9837 -0.0613
19725TIP3   OH280665   4.152   6.278   4.998 -0.0782 -0.4458  0.5157
19725TIP3    H180666   4.237   6.235   4.998 -0.0902 -0.4614  1.2379
19725TIP3    H280667   4.088   6.208   5.012 -0.3201 -0.6421 -1.3660
19726TIP3   OH280668   6.321   0.674   1.630 -0.2923 -0.4792 -0.5485
19726TIP3    H180669   6.272   0.592   1.622 -0.6177 -0.2284 -1.1101
19726TIP3    H280670   6.332   0.685   1.725 -3.2775  0.6052 -0.2480
19727TIP3   OH280671   2.932   6.181   5.238 -0.1526 -0.1195  0.7944
19727TIP3    H180672   2.916   6.232   5.158  1.0713 -0.6907  0.1717
19727TIP3    H280673   3.014   6.215   5.272 -0.5044 -0.1082  1.6370
19728TIP3   OH280674   5.195   0.046   3.955  0.0778 -0.3173 -0.0902
19728TIP3    H180675   5.121  -0.015   3.945 -0.0504 -0.1905  0.0646
19728TIP3    H280676   5.172   0.121   3.900  0.3700 -0.5303 -0.5041
19729TIP3   OH280677   2.370   2.723   4.125 -0.3760 -0.2854  0.2003
19729TIP3    H180678   2.318   2.647   4.100 -0.3003 -0.0383 -0.7235
19729TIP3    H280679   2.317   2.798   4.100  0.4301 -0.0340 -0.7546
19730TIP3   OH280680   1.192   5.382   5.431  0.1475 -0.0945  0.6913
19730TIP3    H180681   1.234   5.300   5.457 -0.7343 -0.5124  0.8183
19730TIP3    H280682   1.145   5.411   5.509  1.1367  0.9734  0.8996
19731TIP3   OH280683   4.009   6.141   5.579  0.4055  0.4041  0.2700
19731TIP3    H180684   4.097   6.177   5.586 -0.0964  1.5187  0.8356
19731TIP3    H280685   4.001   6.082   5.654  1.0659 -0.6006 -0.4174
19732TIP3   OH280686   4.821   3.786  15.454 -0.4213  0.2269  0.3755
19732TIP3    H180687   4.792   3.703  15.417 -0.1540  0.3703 -0.1504
19732TIP3    H280688   4.877   3.761  15.528  2.2758 -0.1089 -1.7336
19733TIP3   OH280689   0.504   0.132   1.913 -0.6856 -0.0445  0.0480
19733TIP3    H180690   0.553   0.214   1.926  0.3455 -0.8649  1.4547
19733TIP3    H280691   0.554   0.066   1.962 -2.3258 -1.2236  0.1742
19734TIP3   OH280692   2.071   1.794   0.993  0.1500  0.2025  0.1505
19734TIP3    H180693   1.977   1.806   1.009 -0.1556 -1.4963 -0.2380
19734TIP3    H280694   2.113   1.855   1.053 -1.1602 -0.6201  1.9550
19735TIP3   OH280695   4.863   0.169   4.911 -0.4187 -0.6625  0.1039
19735TIP3    H180696   4.947   0.195   4.949 -0.4131  1.0158 -0.9974
19735TIP3    H280697   4.797   0.209   4.968 -0.5375 -2.9204  1.6349
19736TIP3   OH280698   3.245   5.454   0.934 -0.2675 -0.6409  0.3611
19736TIP3    H180699   3.260   5.366   0.900  0.6314  0.0211 -0.9798
19736TIP3    H280700   3.156   5.476   0.906 -0.6870 -1.3086  1.1388
19737TIP3   OH280701   6.813   5.504   4.002 -0.1415  0.2314  0.3882
19737TIP3    H180702   6.874   5.555   3.949  1.1881 -2.2083 -0.4983
19737TIP3    H280703   6.755   5.463   3.938 -0.4634 -0.2933  1.0111
19738TIP3   OH280704   6.261   6.172   4.635 -0.1342 -0.6817 -0.0684
19738TIP3    H180705   6.166   6.165   4.623  0.0088 -0.8574 -1.2385
19738TIP3    H280706   6.280   6.264   4.619 -0.0790 -0.6957 -0.0814
19739TIP3   OH280707   1.903   7.104   3.637  0.6904 -0.5113  0.3995
19739TIP3    H180708   1.832   7.074   3.693 -0.3819 -0.1949 -0.7535
19739TIP3    H280709   1.860   7.125   3.554  1.9942  0.5731 -0.0132
19740TIP3   OH280710   3.664   5.516   5.310 -0.1167 -0.0270  0.2836
19740TIP3    H180711   3.754   5.541   5.331 -0.3461  0.3644  0.8235
19740TIP3    H280712   3.655   5.531   5.216 -0.2592  1.9324  0.6003
19741TIP3   OH280713   4.644   6.163   3.709 -0.5052  0.0921 -0.6161
19741TIP3    H180714   4.724   6.215   3.717  0.3914 -1.0952 -1.7008
19741TIP3    H280715   4.628   6.158   3.614 -3.2049  2.3187 -0.3350
19742TIP3   OH280716   4.667   6.095   1.792 -0.1808  0.2186  0.4019
19742TIP3    H180717   4.682   6.174   1.740  0.5740  0.6849  1.2982
19742TIP3    H280718   4.688   6.121   1.882  0.0294 -0.9857  0.7170
19743TIP3   OH280719   5.227   2.876   4.715 -0.3140 -0.1750  0.1628
19743TIP3    H180720   5.225   2.875   4.811 -1.1974 -1.0885  0.1444
19743TIP3    H280721   5.172   2.951   4.690  1.4407  1.2150  0.3882
19744TIP3   OH280722   2.977   6.801   4.573 -0.1482  0.6238 -0.9072
19744TIP3    H180723   2.884   6.786   4.592  0.1944 -0.5123 -0.0800
19744TIP3    H280724   3.009   6.716   4.543  1.2929  0.2230  1.6137
19745TIP3   OH280725   4.053   1.169   1.720 -0.3226  0.1783 -0.4607
19745TIP3    H180726   3.992   1.243   1.726 -1.6963 -0.9783  0.2943
19745TIP3    H280727   3.998   1.092   1.733  1.0598 -0.9951 -1.4308
19746TIP3   OH280728   3.447   3.590   3.752  0.2013 -0.3709  0.2560
19746TIP3    H180729   3.539   3.603   3.776  0.4418 -1.0755 -0.2928
19746TIP3    H280730   3.417   3.677   3.723  1.1682 -0.5225 -1.2078
19747TIP3   OH280731   4.419   4.387   0.791  0.0120  0.4329  0.4942
19747TIP3    H180732   4.511   4.384   0.815 -0.2539 -1.1127  1.4156
19747TIP3    H280733   4.385   4.301   0.818 -1.7078  1.0305  0.2625
19748TIP3   OH280734   7.134   0.069   2.177  0.3401  0.2385  0.5356
19748TIP3    H180735   7.095   0.047   2.093 -2.6336 -1.2361  2.2140
19748TIP3    H280736   7.221   0.031   2.174  1.0611  1.9486 -2.6016
19749TIP3   OH280737   4.713   6.231   5.471  0.1507 -0.1275 -0.1027
19749TIP3    H180738   4.627   6.273   5.465 -0.2470 -1.2599 -3.5363
19749TIP3    H280739   4.776   6.302   5.457 -0.4059  0.0278 -2.0036
19750TIP3   OH280740   3.784   6.919   5.878 -0.6731 -0.1412 -0.2444
19750TIP3    H180741   3.771   6.994   5.936  0.7783 -0.7011  0.8361
19750TIP3    H280742   3.717   6.856   5.906 -0.2797 -0.2234  0.5276
19751TIP3   OH280743   0.838   5.640   1.569  0.1441 -0.1075  0.3010
19751TIP3    H180744   0.896   5.712   1.544 -1.1101  0.4467 -1.0196
19751TIP3    H280745   0.880   5.561   1.533 -0.2306  0.3593 -1.1501
19752TIP3   OH280746   3.351   0.252   2.976 -0.2980 -0.3845  0.5443
19752TIP3    H180747   3.301   0.232   2.898 -0.3648 -0.3145  0.5690
19752TIP3    H280748   3.296   0.222   3.049  0.2858 -1.5316  0.5104
19753TIP3   OH280749   5.622   2.640   4.152  0.4702 -0.3568 -0.7732
19753TIP3    H180750   5.585   2.575   4.212  0.0713 -0.6210 -1.3081
19753TIP3    H280751   5.636   2.593   4.070 -1.1193  0.5672 -1.5922
19754TIP3   OH280752   6.649   5.778   3.960  0.6159 -0.5200  0.2069
19754TIP3    H180753   6.612   5.691   3.944  1.7052 -0.8233 -0.7913
19754TIP3    H280754   6.577   5.838   3.945  0.6498 -1.0472 -2.3837
19755TIP3   OH280755   0.395   5.799   3.793  0.1250  0.0619  0.7525
19755TIP3    H180756   0.318   5.763   3.837 -0.3002 -0.7436 -0.6183
19755TIP3    H280757   0.402   5.889   3.827  1.0541 -1.1837  4.0103
19756TIP3   OH280758   4.246   7.121   5.195  0.0188 -0.3137  0.5692
19756TIP3    H180759   4.315   7.055   5.198  0.4861  0.1319 -0.0683
19756TIP3    H280760   4.165   7.071   5.195  0.2869 -0.8092  2.7835
19757TIP3   OH280761   5.034   6.188   5.785  0.2298 -0.3590 -0.1260
19757TIP3    H180762   4.944   6.172   5.813  0.9663 -0.1710  2.5074
19757TIP3    H280763   5.056   6.114   5.730 -1.4989 -0.4639 -0.7015
19758TIP3   OH280764   5.487   5.026   3.118 -0.1504  0.2221  0.0680
19758TIP3    H180765   5.443   4.991   3.196 -0.8334  0.5817 -0.1532
19758TIP3    H280766   5.497   5.119   3.136  0.3779  0.1671  0.0505
19759TIP3   OH280767   2.671   1.175   3.605  0.1799  0.0322  0.4607
19759TIP3    H180768   2.704   1.196   3.518 -0.7760 -0.9748 -0.1550
19759TIP3    H280769   2.685   1.081   3.614 -1.9373 -0.3069  0.4282
19760TIP3   OH280770   2.446   5.460   5.205  0.2349 -0.7263 -0.5421
19760TIP3    H180771   2.412   5.545   5.178 -0.3400 -0.6831  0.3205
19760TIP3    H280772   2.383   5.428   5.270 -1.1607 -3.1325 -2.9732
19761TIP3   OH280773   4.286   4.967   0.542  0.2945 -0.1508  0.2555
19761TIP3    H180774   4.222   5.035   0.564 -0.4263 -0.7890  0.1555
19761TIP3    H280775   4.300   4.920   0.624 -1.2868 -1.6049 -0.2821
19762TIP3   OH280776   3.193   0.469   3.569  0.2317  0.0064 -0.4599
19762TIP3    H180777   3.280   0.452   3.533 -0.1790 -1.1417 -0.9449
19762TIP3    H280778   3.152   0.528   3.506 -0.6054 -2.2651 -2.0743
19763TIP3   OH280779   6.254   0.271   3.438 -0.3216  0.2609  0.4299
19763TIP3    H180780   6.318   0.338   3.463  0.3502 -0.0108 -0.5299
19763TIP3    H280781   6.303   0.211   3.382 -1.5984  0.4404 -0.9114
19764TIP3   OH280782   3.008   1.261   4.824 -0.0636 -0.2201 -0.1687
19764TIP3    H180783   2.947   1.238   4.894 -0.0122 -0.6688 -0.2695
19764TIP3    H280784   3.033   1.352   4.842 -1.9907  0.5122 -1.0295
19765TIP3   OH280785   3.363   4.680   3.709 -0.4108 -0.2037  0.4666
19765TIP3    H180786   3.333   4.751   3.652  2.2556 -0.5164 -1.4121
19765TIP3    H280787   3.411   4.724   3.779 -0.0452 -0.0567  0.1252
19766TIP3   OH280788   0.698   6.940   4.722  0.4168 -0.6536  0.5751
19766TIP3    H180789   0.767   6.932   4.655  0.1171  0.4912  0.1194
19766TIP3    H280790   0.629   6.880   4.692  0.7528 -0.9692  0.4371
19767TIP3   OH280791   6.195   6.715   6.020  0.3787  0.0291  0.1107
19767TIP3    H180792   6.207   6.657   6.095 -0.4410  0.5549  0.6554
19767TIP3    H280793   6.100   6.715   6.005  0.5076  0.1876 -0.7131
19768TIP3   OH280794   5.895   4.677   5.453  0.2803 -0.0406 -0.3028
19768TIP3    H180795   5.935   4.696   5.537 -1.6597  1.7140  0.2814
19768TIP3    H280796   5.863   4.587   5.461  0.7623 -0.1340  0.5769
19769TIP3   OH280797   6.692   6.446   5.514  0.3265  0.2372 -0.1903
19769TIP3    H180798   6.723   6.356   5.519  1.7147  0.6817 -0.7229
19769TIP3    H280799   6.728   6.489   5.591  1.1177  0.7760 -0.8508
19770TIP3   OH280800   2.171   1.474   1.704 -0.3278 -0.6032 -0.1681
19770TIP3    H180801   2.082   1.480   1.739 -0.1775  0.3341  0.0777
19770TIP3    H280802   2.167   1.404   1.640 -1.8946  1.0976 -2.0044
19771TIP3   OH280803   5.690   6.622   4.333 -0.0715 -0.3703  0.1697
19771TIP3    H180804   5.696   6.652   4.423  0.9754 -0.1819  0.0503
19771TIP3    H280805   5.779   6.633   4.298 -1.2445  2.9799 -1.9680
19772TIP3   OH280806   3.871   1.878   1.356 -0.4510  0.1630  0.0011
19772TIP3    H180807   3.822   1.829   1.422  0.1697  0.3852  0.6165
19772TIP3    H280808   3.809   1.944   1.325 -0.3120  0.8865  1.2747
19773TIP3   OH280809   5.903   5.259   2.665  0.8104 -0.1709 -0.2807
19773TIP3    H180810   5.979   5.317   2.661  0.5585  0.0798 -1.8054
19773TIP3    H280811   5.937   5.174   2.636  0.8709 -0.4481  0.6078
19774TIP3   OH280812   5.665   0.204   4.526  0.3383 -0.3906 -0.1265
19774TIP3    H180813   5.613   0.124   4.511  0.9219 -1.3835  2.8145
19774TIP3    H280814   5.602   0.275   4.516 -0.9225 -1.4159  0.3107
19775TIP3   OH280815   3.684   2.274   3.665 -1.0597  0.2799  0.0628
19775TIP3    H180816   3.591   2.258   3.681 -1.5206  2.4005 -0.3408
19775TIP3    H280817   3.689   2.302   3.574 -0.1201  0.7593  0.2522
19776TIP3   OH280818   7.058   0.113   4.424  0.0969 -0.0695  0.3710
19776TIP3    H180819   7.120   0.119   4.496  0.2542  0.3879  0.1973
19776TIP3    H280820   7.080   0.030   4.380  2.4483  1.4493 -1.4052
19777TIP3   OH280821   4.287   2.167   4.944  0.3014 -0.0343  0.3812
19777TIP3    H180822   4.312   2.092   4.890  0.8546  0.8885 -0.6691
19777TIP3    H280823   4.365   2.222   4.948 -0.2650  0.7722  0.6482
19778TIP3   OH280824   4.214   1.837   5.295 -0.6420 -0.1669  0.0046
19778TIP3    H180825   4.271   1.905   5.332  0.2650 -0.4609 -0.8708
19778TIP3    H280826   4.128   1.856   5.334  0.3045 -0.5253  2.3671
19779TIP3   OH280827   3.379   5.518   5.288  0.9158  0.1620 -0.6151
19779TIP3    H180828   3.373   5.530   5.383  0.9228  0.3081 -0.6334
19779TIP3    H280829   3.473   5.523   5.269  1.0357 -1.2207 -0.4517
19780TIP3   OH280830   1.495   4.879   3.559  0.0750  0.2755  0.0831
19780TIP3    H180831   1.560   4.914   3.620  0.2769 -1.5805  0.9753
19780TIP3    H280832   1.426   4.844   3.615  0.8746 -2.6326 -0.6632
19781TIP3   OH280833   5.906   5.532   2.063  0.1497 -0.1569  0.1969
19781TIP3    H180834   5.858   5.513   2.144  2.6993 -1.5582  1.4558
19781TIP3    H280835   5.954   5.612   2.082  1.0356 -0.6858  0.2305
19782TIP3   OH280836   3.439   6.349   5.070 -0.3658  0.2777  0.4208
19782TIP3    H180837   3.429   6.337   5.165 -0.4194  1.7050  0.6085
19782TIP3    H280838   3.491   6.429   5.061 -0.7504  0.4060 -0.7616
19783TIP3   OH280839   3.793   2.588   3.351 -0.0698  0.2662  0.0811
19783TIP3    H180840   3.877   2.576   3.396  0.3300 -0.6599 -0.8967
19783TIP3    H280841   3.809   2.656   3.286  0.4401 -1.2222 -1.3752
19784TIP3   OH280842   5.962   0.861   2.491  0.0044 -0.5239  0.3065
19784TIP3    H180843   5.942   0.767   2.496  0.6002 -0.5813  2.3341
19784TIP3    H280844   5.982   0.877   2.399 -1.8370 -2.0199 -0.3802
19785TIP3   OH280845   6.111   5.259   5.624  0.5166 -0.0091 -0.7120
19785TIP3    H180846   6.096   5.348   5.593  0.7349 -0.2511 -1.5325
19785TIP3    H280847   6.027   5.215   5.612 -0.0575  0.5112  1.2080
19786TIP3   OH280848   4.367   5.840   1.959  0.5301 -0.1136 -0.0251
19786TIP3    H180849   4.338   5.754   1.929  1.3989  0.1907 -1.7944
19786TIP3    H280850   4.442   5.822   2.015  1.0851 -0.4821 -0.8802
19787TIP3   OH280851   0.612   4.053   2.861  0.4295 -0.2410  0.2920
19787TIP3    H180852   0.542   4.087   2.805  2.6537  1.1977 -1.7170
19787TIP3    H280853   0.604   4.103   2.942  0.7527  1.7718 -0.9013
19788TIP3   OH280854   2.551   5.725   2.877  0.6426  0.3048  0.5796
19788TIP3    H180855   2.492   5.799   2.862 -0.8349 -0.8807  0.4499
19788TIP3    H280856   2.615   5.759   2.940 -0.2129  1.5884  0.7941
19789TIP3   OH280857   0.786   5.584   5.594  0.5332 -0.2266 -0.0507
19789TIP3    H180858   0.706   5.535   5.578  0.3384  0.2873 -0.6528
19789TIP3    H280859   0.790   5.593   5.689 -1.6109  2.1892 -0.1454
19790TIP3   OH280860   4.095   2.740  15.245  0.4157 -0.1088 -0.3257
19790TIP3    H180861   4.095   2.647  15.267 -0.5395 -0.1243 -0.3499
19790TIP3    H280862   4.078   2.785  15.328  1.7836  0.0931 -0.1512
19791TIP3   OH280863   2.607   4.633   4.728 -0.0477 -0.7222  0.7704
19791TIP3    H180864   2.566   4.587   4.801 -0.4166 -1.4895  0.0873
19791TIP3    H280865   2.701   4.615   4.737  0.1744  1.0516  2.3476
19792TIP3   OH280866   6.189   6.123   5.775  0.2904  0.2322 -0.1323
19792TIP3    H180867   6.096   6.126   5.798  0.2428  3.1133 -0.4417
19792TIP3    H280868   6.190   6.118   5.679  0.4919 -1.9775 -0.0435
19793TIP3   OH280869   4.529   6.091   4.921  0.4053  0.5808  0.1300
19793TIP3    H180870   4.446   6.051   4.948  1.4624 -0.1384  2.3795
19793TIP3    H280871   4.549   6.153   4.991  1.8411  0.6811 -0.3650
19794TIP3   OH280872   1.946   3.116   4.615 -0.1733 -0.4076 -0.5141
19794TIP3    H180873   1.855   3.088   4.598  0.1372 -1.7218 -0.0965
19794TIP3    H280874   1.937   3.199   4.661 -1.2036 -1.0212  0.4315
19795TIP3   OH280875   0.541   1.161   3.049 -0.6798 -0.1285 -0.2225
19795TIP3    H180876   0.456   1.203   3.063  0.0125  0.7837  1.3865
19795TIP3    H280877   0.532   1.074   3.089 -0.6422  0.2251  0.5660
19796TIP3   OH280878   3.488   6.731   3.374 -0.2123 -0.0368 -0.5592
19796TIP3    H180879   3.534   6.716   3.291 -0.0360  1.1025 -0.6786
19796TIP3    H280880   3.441   6.813   3.361  1.2131  1.0642  1.0645
19797TIP3   OH280881   0.408   0.029   1.640  0.5750  0.0183 -0.0044
19797TIP3    H180882   0.331  -0.028   1.642  0.6028 -0.0189  0.0136
19797TIP3    H280883   0.412   0.067   1.728  0.7677 -0.2376  0.0972
19798TIP3   OH280884   5.128   5.259   4.357  0.5221 -0.0928  0.8123
19798TIP3    H180885   5.184   5.210   4.417  1.1274  1.0096  1.1546
19798TIP3    H280886   5.179   5.336   4.334  0.6701 -0.8966 -1.7998
19799TIP3   OH280887   0.191   1.256   4.611 -0.0501  0.2785  0.1842
19799TIP3    H180888   0.194   1.348   4.582  0.2377  0.1183 -0.3094
19799TIP3    H280889   0.272   1.244   4.661  0.1863  0.1396 -0.2302
19800TIP3   OH280890   6.681   3.798   4.449 -0.6480 -0.0050 -0.7180
19800TIP3    H180891   6.616   3.860   4.414  0.0278  0.4638 -1.1745
19800TIP3    H280892   6.632   3.742   4.508 -1.3848  0.6265 -0.7213
19801TIP3   OH280893   3.029   5.363   5.778  0.0050  0.5506  0.0414
19801TIP3    H180894   3.010   5.302   5.707 -0.2897  0.1252  0.4818
19801TIP3    H280895   3.005   5.315   5.857 -0.7969  1.4493  0.3561
19802TIP3   OH280896   4.095   0.795   0.289  0.7227  0.2584 -0.0310
19802TIP3    H180897   4.113   0.780   0.382 -0.9659 -0.8471  0.1425
19802TIP3    H280898   4.181   0.798   0.247  1.6166  2.5692  1.8168
19803TIP3   OH280899   2.521   6.434   1.374 -0.3017 -0.2416 -0.1023
19803TIP3    H180900   2.487   6.512   1.419  1.5840 -1.0134  2.8327
19803TIP3    H280901   2.577   6.469   1.304 -0.9864  1.0374 -0.0232
19804TIP3   OH280902   6.875   5.850   5.014 -0.3680 -0.1800 -0.2194
19804TIP3    H180903   6.878   5.898   5.097  1.9510 -0.2872 -0.2023
19804TIP3    H280904   6.907   5.763   5.036 -0.3644 -0.4037 -1.0991
19805TIP3   OH280905   4.766   4.107   2.991 -0.2544 -0.0915 -0.1516
19805TIP3    H180906   4.760   4.166   3.066 -0.0326  0.8209 -0.8400
19805TIP3    H280907   4.682   4.116   2.946 -1.3906 -2.5806  1.3914
19806TIP3   OH280908   2.165   0.451   2.790 -0.1381  0.4791 -0.7275
19806TIP3    H180909   2.123   0.536   2.777  1.3134  1.2395 -0.5507
19806TIP3    H280910   2.205   0.457   2.877  0.0653 -0.3415 -0.7646
19807TIP3   OH280911   3.736   5.119   4.981 -0.7127 -0.1572  0.2687
19807TIP3    H180912   3.700   5.185   5.041 -0.9099  1.1226 -1.2185
19807TIP3    H280913   3.830   5.135   4.984 -0.6304 -0.7379  0.9629
19808TIP3   OH280914   4.289   0.491   5.348  0.7076  0.0920 -0.0677
19808TIP3    H180915   4.318   0.408   5.388  0.1544 -0.5492 -0.9862
19808TIP3    H280916   4.203   0.507   5.387  1.1042  0.5919  0.6164
19809TIP3   OH280917   5.931   0.733   3.812 -0.2462 -0.2524  0.0752
19809TIP3    H180918   5.867   0.730   3.741  0.3195 -1.8244 -0.3893
19809TIP3    H280919   5.975   0.817   3.801 -0.8114 -0.0719 -0.8618
19810TIP3   OH280920   6.138   3.474   2.914  0.4451  0.2620  0.1833
19810TIP3    H180921   6.134   3.442   3.004  0.0671 -0.4049 -0.0734
19810TIP3    H280922   6.075   3.546   2.911 -0.3343 -0.4179  0.1619
19811TIP3   OH280923   0.673   0.883   4.132 -0.3551 -0.0772  0.8948
19811TIP3    H180924   0.596   0.874   4.189 -1.5242  0.1490 -0.6056
19811TIP3    H280925   0.708   0.970   4.154 -1.2107  0.3050  0.7911
19812TIP3   OH280926   6.585   5.125   3.800 -0.1929 -0.2280 -0.0624
19812TIP3    H180927   6.619   5.133   3.889 -1.7890 -2.2325  0.7770
19812TIP3    H280928   6.607   5.036   3.773 -1.8719 -0.4850 -0.6920
19813TIP3   OH280929   2.528   0.924   2.599  0.2264 -0.0848 -0.0281
19813TIP3    H180930   2.590   0.976   2.651  0.2171  1.5135 -1.5455
19813TIP3    H280931   2.483   0.869   2.663  0.4344  1.6026  1.6172
19814TIP3   OH280932   6.161   5.778   2.660  0.0968  0.1634  0.0120
19814TIP3    H180933   6.250   5.753   2.636  0.3045  1.3184 -0.4802
19814TIP3    H280934   6.172   5.848   2.725 -0.4572 -0.5211  0.8587
19815TIP3   OH280935   2.262   0.321   2.343  0.1899  0.2664 -0.0228
19815TIP3    H180936   2.180   0.370   2.353  0.8850  1.3989  0.1418
19815TIP3    H280937   2.308   0.332   2.426 -0.3219 -1.9556  0.5923
19816TIP3   OH280938   2.150   2.705   4.805 -0.0395  0.0867 -0.2390
19816TIP3    H180939   2.102   2.656   4.738  0.2755 -1.6611  0.7888
19816TIP3    H280940   2.085   2.760   4.848 -0.8049 -1.0426  0.0429
19817TIP3   OH280941   7.122   3.876   3.052  1.0340 -0.7605  0.0060
19817TIP3    H180942   7.196   3.817   3.057  1.3743 -0.2100  1.7208
19817TIP3    H280943   7.058   3.831   2.996  2.2848 -1.6191 -0.7396
19818TIP3   OH280944   3.399   5.204   5.480  0.0099  0.3438 -0.3101
19818TIP3    H180945   3.345   5.284   5.475 -1.2268 -0.4549  0.0138
19818TIP3    H280946   3.399   5.171   5.390  0.8360  0.9035 -0.5209
19819TIP3   OH280947   5.527   1.354   4.762 -0.2097 -0.5280  0.6701
19819TIP3    H180948   5.573   1.437   4.771 -1.4738  0.1051  1.3710
19819TIP3    H280949   5.523   1.339   4.667  1.1571 -0.4528  0.5892
19820TIP3   OH280950   1.292   4.653   3.232  0.0588  0.4438  0.1187
19820TIP3    H180951   1.200   4.671   3.215 -0.0153  0.3781  0.4497
19820TIP3    H280952   1.313   4.578   3.176  0.4445  1.7141 -1.4827
19821TIP3   OH280953   1.602   4.937   4.854 -0.1733 -0.5567  0.7534
19821TIP3    H180954   1.527   4.987   4.887  0.1795 -1.2628  2.6701
19821TIP3    H280955   1.647   4.906   4.933  0.0775 -3.2083 -0.3780
19822TIP3   OH280956   3.271   4.806   4.594 -0.0884 -0.7432 -0.1007
19822TIP3    H180957   3.339   4.873   4.597 -0.5577 -0.3027  0.7440
19822TIP3    H280958   3.306   4.734   4.646  0.8880 -1.6153 -1.9060
19823TIP3   OH280959   6.277   6.338   4.853 -0.3698  0.1895  0.2382
19823TIP3    H180960   6.366   6.356   4.824 -0.4594 -0.8153 -0.6963
19823TIP3    H280961   6.258   6.251   4.818 -1.5413  0.1974  0.8467
19824TIP3   OH280962   4.982   5.508   4.017  0.5221 -0.3069 -0.2721
19824TIP3    H180963   4.915   5.462   3.967 -1.3772  0.4674  1.4717
19824TIP3    H280964   4.939   5.587   4.049  1.5412 -0.8962  2.7925
19825TIP3   OH280965   2.973   5.424   3.403 -0.6967 -0.1327 -0.3074
19825TIP3    H180966   2.941   5.336   3.422  0.3413 -0.6066 -0.7179
19825TIP3    H280967   2.994   5.422   3.309  0.4758  0.1728 -0.0639
19826TIP3   OH280968   3.587   0.073   1.927  0.1189  0.6862  0.4447
19826TIP3    H180969   3.533   0.135   1.879  2.2858  1.8772 -0.5004
19826TIP3    H280970   3.557  -0.013   1.897 -2.5277  1.2172  1.3681
19827TIP3   OH280971   5.828   0.458   3.023  0.1086 -0.1781 -0.3938
19827TIP3    H180972   5.836   0.550   2.997  2.2160  0.0337  0.9363
19827TIP3    H280973   5.737   0.436   3.001 -0.6563  2.4194 -0.0919
19828TIP3   OH280974   4.141   0.378   4.458  0.6254  0.1220  0.0034
19828TIP3    H180975   4.127   0.286   4.437  1.5570  0.3561 -1.7129
19828TIP3    H280976   4.058   0.421   4.435 -0.0334 -0.3629  1.4037
19829TIP3   OH280977   2.052   1.641   3.889  0.1595  0.4825 -0.2808
19829TIP3    H180978   2.049   1.620   3.982 -0.9387  2.0613  0.0824
19829TIP3    H280979   2.142   1.623   3.862  0.2502 -0.8442  0.8626
19830TIP3   OH280980   2.977   7.090   1.869 -0.5098 -0.4625 -0.3542
19830TIP3    H180981   2.978   7.099   1.964 -1.5118  1.5168 -0.5003
19830TIP3    H280982   3.069   7.078   1.845 -0.0427  0.8475  0.7188
19831TIP3   OH280983   6.404   4.375   5.802 -0.2530 -0.2554 -1.0519
19831TIP3    H180984   6.392   4.465   5.833 -1.7182 -0.6750 -0.3730
19831TIP3    H280985   6.498   4.359   5.811 -0.0133  1.1249 -0.9605
19832TIP3   OH280986   5.651   1.819   5.405  0.2646 -0.0518  0.4907
19832TIP3    H180987   5.746   1.806   5.405  0.2330 -0.2753  1.9527
19832TIP3    H280988   5.615   1.735   5.434 -0.3440  0.3628  0.9388
19833TIP3   OH280989   5.331   1.507   1.814  0.3202  0.3518  0.0729
19833TIP3    H180990   5.252   1.467   1.849  0.3226  0.5930  0.3595
19833TIP3    H280991   5.302   1.552   1.734  0.3135 -0.1982 -0.2394
19834TIP3   OH280992   0.195   0.045   5.015 -0.0459  1.0232 -0.4450
19834TIP3    H180993   0.173   0.108   5.083 -0.6662  2.4223 -1.8989
19834TIP3    H280994   0.121   0.049   4.953  1.3203  1.0963 -2.1168
19835TIP3   OH280995   3.024   6.582   5.066 -0.5627 -0.1014 -0.6367
19835TIP3    H180996   2.975   6.630   5.133 -0.5878 -1.0758  0.0545
19835TIP3    H280997   3.116   6.593   5.091 -0.5457 -0.0759 -0.7096
19836TIP3   OH280998   3.154   6.786   5.501 -0.3829  0.2044 -0.7621
19836TIP3    H180999   3.249   6.794   5.492 -0.3403  0.0966 -0.4208
19836TIP3    H281000   3.140   6.780   5.595 -0.6097 -1.3196 -0.8834
19837TIP3   OH281001   3.263   2.012   2.576 -0.0088  0.1673 -0.1720
19837TIP3    H181002   3.209   1.963   2.514  0.2390 -0.1563 -0.1365
19837TIP3    H281003   3.212   2.012   2.657  0.9515 -1.9505  0.4707
19838TIP3   OH281004   7.005   3.371   2.851  0.1113  0.6341 -0.6280
19838TIP3    H181005   6.921   3.355   2.892  0.0292  1.1898 -0.5747
19838TIP3    H281006   7.066   3.316   2.899 -0.0915  0.8080 -0.1637
19839TIP3   OH281007   2.717   0.938   2.043  0.1340  0.2074 -0.7534
19839TIP3    H181008   2.633   0.897   2.065 -0.3936  1.5856 -0.2002
19839TIP3    H281009   2.778   0.906   2.109 -0.4638  0.9318  0.1629
19840TIP3   OH281010   6.503   7.194   2.908  0.3440 -0.0411  0.0587
19840TIP3    H181011   6.547   7.114   2.939  1.1588 -0.3722 -1.8591
19840TIP3    H281012   6.566   7.234   2.848 -0.7180  1.1879 -0.2539
19841TIP3   OH281013   5.328   4.780   4.755 -0.3351  0.5713 -0.1641
19841TIP3    H181014   5.315   4.874   4.749 -0.9308  0.4315 -1.4123
19841TIP3    H281015   5.394   4.761   4.688  1.3404  0.3714  1.5128
19842TIP3   OH281016   5.792   6.108   3.581  0.1290 -0.1231  0.2537
19842TIP3    H181017   5.729   6.070   3.642  2.8320 -1.3924  2.3496
19842TIP3    H281018   5.807   6.038   3.516  0.4474 -0.3578  0.5774
19843TIP3   OH281019   6.946   6.892   5.233  0.4105  0.3313 -0.1036
19843TIP3    H181020   6.854   6.872   5.219  0.5258 -1.0317  0.9402
19843TIP3    H281021   6.949   6.929   5.321  1.2139 -2.4062  1.0792
19844TIP3   OH281022   2.546   5.877   5.192 -0.3160 -0.1336  0.4704
19844TIP3    H181023   2.586   5.907   5.110 -0.4929  1.5270  0.9547
19844TIP3    H281024   2.540   5.957   5.245 -0.0163 -1.2163  2.1766
19845TIP3   OH281025   6.211   1.334   4.938  0.2949  0.1029  0.2503
19845TIP3    H181026   6.195   1.352   4.845  1.8371  1.8763  0.3089
19845TIP3    H281027   6.305   1.320   4.944  0.0207 -1.4028  1.3517
19846TIP3   OH281028   5.991   6.680   4.381  0.0413  0.2302  0.2927
19846TIP3    H181029   6.053   6.691   4.453  0.3453 -0.2479  0.1039
19846TIP3    H281030   6.026   6.607   4.329  0.5202  1.4108 -1.0730
19847TIP3   OH281031   3.154   7.125   3.153  0.0655 -0.0390 -0.2963
19847TIP3    H181032   3.193   7.072   3.083  0.7325  0.3566 -0.2319
19847TIP3    H281033   3.212   7.112   3.228  0.2235  0.7637 -0.2726
19848TIP3   OH281034   2.865   7.102   2.439  0.4777  0.3859  0.1549
19848TIP3    H181035   2.781   7.095   2.484 -0.3928  0.6649 -1.3896
19848TIP3    H281036   2.903   7.184   2.470  1.3347 -0.9625  2.7545
19849TIP3   OH281037   5.802   5.294   5.035 -0.1114 -0.6398  0.2337
19849TIP3    H181038   5.839   5.381   5.045  1.4131 -1.1753 -0.5602
19849TIP3    H281039   5.707   5.306   5.044 -0.0865  1.3771 -1.8676
19850TIP3   OH281040   4.686   5.629   5.659  0.1389  0.3344 -0.0790
19850TIP3    H181041   4.637   5.665   5.585 -0.3796 -0.5318 -0.1544
19850TIP3    H281042   4.635   5.654   5.736 -0.0865 -0.0350 -0.1124
19851TIP3   OH281043   4.210   4.513   3.583  0.0638 -0.6163  0.4503
19851TIP3    H181044   4.254   4.431   3.605  1.5694  0.6553  2.3331
19851TIP3    H281045   4.277   4.580   3.595 -1.0497  0.8676 -1.3838
19852TIP3   OH281046   0.175   2.439   5.861  0.5245  0.2642  0.3403
19852TIP3    H181047   0.215   2.503   5.803 -1.1179  0.8397 -0.1632
19852TIP3    H281048   0.093   2.414   5.818 -0.4069  0.2193  2.0679
19853TIP3   OH281049   5.655   4.679   3.835  0.3288  0.1603  0.1853
19853TIP3    H181050   5.700   4.604   3.795  1.1166  0.9142 -0.3512
19853TIP3    H281051   5.577   4.692   3.780 -0.3830 -0.9354  0.9184
19854TIP3   OH281052   4.964   2.280   5.178 -0.3057 -0.1259  0.4986
19854TIP3    H181053   5.017   2.203   5.158  0.2306  0.1891  0.6929
19854TIP3    H281054   5.026   2.353   5.173 -0.7670  0.2642  0.5309
19855TIP3   OH281055   5.795   5.475   4.732  0.5413  0.2701  0.1951
19855TIP3    H181056   5.861   5.407   4.724  0.9083  0.5813  0.5184
19855TIP3    H281057   5.845   5.554   4.754 -0.1723 -0.1300  3.5785
19856TIP3   OH281058   4.399   2.696   3.037  0.3772  0.0385  0.0564
19856TIP3    H181059   4.417   2.719   2.946  0.4886 -1.6411 -0.3461
19856TIP3    H281060   4.470   2.737   3.087  0.4670  0.7261 -0.6287
19857TIP3   OH281061   0.278   7.021   3.086 -0.2871 -0.3374  0.1556
19857TIP3    H181062   0.259   7.031   3.179  1.6625  2.1092  0.3551
19857TIP3    H281063   0.355   6.963   3.083  0.2984  0.4327  0.1439
19858TIP3   OH281064   4.417   0.168   3.848  0.0231 -0.7665  0.1916
19858TIP3    H181065   4.358   0.097   3.875  0.7617 -1.3916  0.1928
19858TIP3    H281066   4.498   0.123   3.823  0.3971  0.0592 -0.0912
19859TIP3   OH281067   0.046   6.758   0.433 -0.2669  0.2506 -0.0390
19859TIP3    H181068   0.080   6.698   0.366  1.0824  1.4112 -0.4187
19859TIP3    H281069  -0.048   6.759   0.419  0.0501  0.9698 -2.3465
19860TIP3   OH281070   6.536   6.464   4.402  0.7374  0.8890  0.4424
19860TIP3    H181071   6.456   6.430   4.441  0.3580  0.1276 -0.9793
19860TIP3    H281072   6.520   6.558   4.392 -0.0731  0.7005 -0.0688
19861TIP3   OH281073   1.164   5.990   3.958 -0.4757 -0.3713 -0.7190
19861TIP3    H181074   1.118   5.994   4.041 -0.4511 -1.7301 -0.6438
19861TIP3    H281075   1.095   5.975   3.893 -0.6427  1.8312 -1.0978
19862TIP3   OH281076   1.534   3.068   2.666  0.3097  0.4244  0.3117
19862TIP3    H181077   1.562   2.985   2.628 -1.6840  1.1913 -3.0711
19862TIP3    H281078   1.559   3.133   2.601  0.6810  2.3621  2.3310
19863TIP3   OH281079   3.743   6.068   4.238 -0.2002 -0.2253  0.4971
19863TIP3    H181080   3.783   5.982   4.251 -0.2054 -0.2513  0.3435
19863TIP3    H281081   3.649   6.053   4.249 -0.2407 -0.3271  0.0182
19864TIP3   OH281082   3.675   5.659   4.307 -0.6076 -0.0083  0.1985
19864TIP3    H181083   3.595   5.705   4.333 -1.1134 -1.5510  1.4307
19864TIP3    H281084   3.688   5.593   4.375  1.3817 -0.1824 -0.3261
19865TIP3   OH281085   1.615   7.048   5.330 -0.3565  0.0124 -0.1302
19865TIP3    H181086   1.569   7.124   5.367 -1.5962 -1.1576  0.7969
19865TIP3    H281087   1.584   7.042   5.240 -2.5741 -1.1425  0.6708
19866TIP3   OH281088   6.197   0.657   4.573  0.2965  0.3199 -0.3953
19866TIP3    H181089   6.105   0.681   4.564 -0.1316 -1.2092 -0.1188
19866TIP3    H281090   6.240   0.737   4.603 -0.9840  0.9564 -0.2540
19867TIP3   OH281091   5.635   4.003   4.410  0.0163 -0.4349 -0.0415
19867TIP3    H181092   5.617   4.043   4.325  0.6718 -0.9371 -0.4228
19867TIP3    H281093   5.731   4.001   4.415 -0.0196 -0.3724  0.7263
19868TIP3   OH281094   2.459   1.690   1.181  0.4398 -0.7775  0.6546
19868TIP3    H181095   2.378   1.644   1.156 -0.3012  0.7760  0.1823
19868TIP3    H281096   2.434   1.742   1.257  1.2710 -1.0858  1.1384
19869TIP3   OH281097   3.133   4.050   4.932  0.1306 -0.3954  0.4477
19869TIP3    H181098   3.145   3.999   4.852  1.0971  1.6181 -0.7188
19869TIP3    H281099   3.053   4.100   4.916  0.0635 -0.3440  0.9512
19870TIP3   OH281100   5.612   0.408   4.775 -0.4332 -0.2806  0.2839
19870TIP3    H181101   5.527   0.392   4.815 -0.8664 -0.3900 -0.6593
19870TIP3    H281102   5.596   0.397   4.681 -0.7622  5.4307 -0.4982
19871TIP3   OH281103   6.461   4.742   3.699 -0.7373 -0.6000 -0.2844
19871TIP3    H181104   6.478   4.663   3.750 -0.3506 -0.4038 -0.1060
19871TIP3    H281105   6.538   4.751   3.643 -0.3084  0.2161  0.4197
19872TIP3   OH281106   6.692   6.378  14.498  0.5593 -0.5295  0.3486
19872TIP3    H181107   6.710   6.454  14.443  0.7837 -1.1595 -0.4837
19872TIP3    H281108   6.690   6.411  14.587  0.5593  0.4600 -0.0190
19873TIP3   OH281109   2.553   2.231   2.026 -0.4217 -0.1109  0.4131
19873TIP3    H181110   2.541   2.168   2.097 -2.2138 -0.0795  0.1549
19873TIP3    H281111   2.477   2.288   2.031  0.3954  1.0855 -0.3447
19874TIP3   OH281112   6.232   3.743   4.162  0.5247  0.3940  0.1860
19874TIP3    H181113   6.187   3.770   4.242  1.3410 -0.3251  0.8879
19874TIP3    H281114   6.224   3.819   4.104 -1.5753  0.2887  0.2925
19875TIP3   OH281115   0.061   4.610   2.112  0.1569 -0.4060 -1.0979
19875TIP3    H181116   0.118   4.620   2.036  1.2641 -2.9366 -0.6528
19875TIP3    H281117  -0.014   4.561   2.080 -0.0581 -0.2245 -0.8777
19876TIP3   OH281118   1.963   2.993   3.607 -0.0117  0.0763  0.1665
19876TIP3    H181119   1.923   3.070   3.646  0.3264  0.0430  0.5799
19876TIP3    H281120   1.889   2.941   3.576 -0.2647  0.2727  0.4422
19877TIP3   OH281121   0.018   5.056   4.990 -0.3567 -0.1355 -0.1491
19877TIP3    H181122   0.007   4.968   4.954  1.2758 -0.7148  0.7114
19877TIP3    H281123  -0.034   5.056   5.070 -1.0217 -0.0329 -0.5729
19878TIP3   OH281124   4.368   3.339   2.497  0.3289 -0.2879  0.9092
19878TIP3    H181125   4.329   3.264   2.542  1.5400 -0.7940  1.1576
19878TIP3    H281126   4.369   3.408   2.563 -2.3848  0.5029  0.1493
19879TIP3   OH281127   5.131   4.642   4.160 -0.9036  0.1976  0.4107
19879TIP3    H181128   5.183   4.648   4.240 -0.2893  1.4810 -0.0776
19879TIP3    H281129   5.063   4.578   4.181  1.1851 -1.9125  0.8689
19880TIP3   OH281130   6.488   5.383   4.126  0.3498  0.2332  0.3864
19880TIP3    H181131   6.525   5.368   4.213  2.0388  1.6458 -0.0728
19880TIP3    H281132   6.529   5.317   4.070  0.4362  0.3329  0.3331
19881TIP3   OH281133   6.102   5.444   2.615  0.1508  0.4896 -0.1071
19881TIP3    H181134   6.179   5.440   2.672 -0.3969 -0.9197  0.5490
19881TIP3    H281135   6.137   5.474   2.531  1.7056 -1.4712 -0.2241
19882TIP3   OH281136   3.968   6.491   4.325  0.3972 -0.1277 -0.0513
19882TIP3    H181137   3.934   6.405   4.346 -0.4180  0.1063 -0.4051
19882TIP3    H281138   4.046   6.500   4.380  0.9439 -1.4041 -0.6072
19883TIP3   OH281139   6.387   2.199   3.703  0.4978  0.2647 -0.4271
19883TIP3    H181140   6.308   2.243   3.671  0.9562  0.5172 -1.2184
19883TIP3    H281141   6.383   2.209   3.798 -0.9595 -0.6378 -0.3902
19884TIP3   OH281142   0.244   0.996   5.466  0.3216  0.1081 -0.0978
19884TIP3    H181143   0.254   0.907   5.432  0.4189  0.3682 -0.7670
19884TIP3    H281144   0.329   1.017   5.504  0.0099 -0.4322  0.9221
19885TIP3   OH281145   5.908   4.561   4.678  0.0371 -0.0878  0.4872
19885TIP3    H181146   5.875   4.473   4.699  0.3888 -0.1259  0.8967
19885TIP3    H281147   5.899   4.568   4.583  1.4087 -1.1659  0.2461
19886TIP3   OH281148   5.908   5.563   5.030 -0.1939  0.0941  0.3780
19886TIP3    H181149   5.928   5.603   5.114  1.4259 -0.3249  0.2173
19886TIP3    H281150   5.839   5.618   4.993  0.0950  1.1272  1.3364
19887TIP3   OH281151   4.397   0.411   0.675  0.4463 -0.2059  0.3893
19887TIP3    H181152   4.438   0.338   0.628  1.4586 -0.2050  1.2597
19887TIP3    H281153   4.460   0.435   0.743 -0.6603  0.3000  1.2626
19888TIP3   OH281154   2.055   0.994   2.532 -0.1346  0.0753  0.6429
19888TIP3    H181155   1.991   0.975   2.601 -0.5088 -0.6443  0.1074
19888TIP3    H281156   2.049   1.089   2.519 -2.4190 -0.2012 -0.6467
19889TIP3   OH281157   6.827   0.797   1.322 -0.0325  0.8478 -0.1222
19889TIP3    H181158   6.736   0.821   1.343 -0.3680  0.1596 -0.7550
19889TIP3    H281159   6.853   0.737   1.391 -0.1194  0.9146 -0.0308
19890TIP3   OH281160   0.620   3.116   5.466  0.1418  0.4231 -0.1072
19890TIP3    H181161   0.590   3.191   5.516 -1.7945 -0.3634 -0.0420
19890TIP3    H281162   0.683   3.072   5.523 -0.5613  0.6398  0.8554
19891TIP3   OH281163   3.899   4.764   3.406 -0.5374  0.0738  0.4261
19891TIP3    H181164   3.888   4.691   3.344 -3.1352  0.0746  0.8257
19891TIP3    H281165   3.936   4.835   3.353 -1.4588 -0.3569 -0.8315
19892TIP3   OH281166   5.622   3.719   4.621 -0.4867  0.3624  0.2962
19892TIP3    H181167   5.561   3.766   4.565 -1.0919 -0.6722  0.0951
19892TIP3    H281168   5.610   3.627   4.600  1.2748  0.1494  0.1153
19893TIP3   OH281169   0.247   6.384   5.566  0.5247  0.0775 -0.5933
19893TIP3    H181170   0.202   6.464   5.592 -0.2382 -0.1211 -1.2714
19893TIP3    H281171   0.222   6.319   5.631 -0.9607 -0.2848 -1.5012
19894TIP3   OH281172   6.448   5.292   4.593 -0.7500 -0.1671  0.1547
19894TIP3    H181173   6.390   5.234   4.643 -2.7879  0.6555 -1.2067
19894TIP3    H281174   6.433   5.379   4.630 -0.7455  0.1242 -0.5330
19895TIP3   OH281175   5.504   6.663   3.730 -0.1439  0.1866 -0.3621
19895TIP3    H181176   5.426   6.623   3.691 -0.7115  0.6755  0.2626
19895TIP3    H281177   5.563   6.677   3.656 -0.4385 -0.6593 -0.7699
19896TIP3   OH281178   6.921   5.898   5.551  0.3548  0.4561  0.6508
19896TIP3    H181179   6.910   5.951   5.472  1.3353 -0.0784  0.1549
19896TIP3    H281180   6.846   5.923   5.606  0.2818  1.6556  0.0360
19897TIP3   OH281181   6.299   5.871   4.226 -0.3722  0.1180 -0.1216
19897TIP3    H181182   6.380   5.890   4.275  0.2615 -2.2136 -0.2225
19897TIP3    H281183   6.234   5.929   4.265  1.1118  1.3166  0.6451
19898TIP3   OH281184   6.738   6.169   5.563 -0.4277 -0.0907 -0.0667
19898TIP3    H181185   6.682   6.158   5.486  0.6471  0.3882 -0.9316
19898TIP3    H281186   6.719   6.093   5.618 -1.5208 -0.2120 -0.5971
19899TIP3   OH281187   3.086   3.039   2.574  0.1610  0.1284  0.1934
19899TIP3    H181188   3.017   3.102   2.555 -0.2581 -0.3216  0.2185
19899TIP3    H281189   3.163   3.093   2.594 -0.4586  0.6360  1.2248
19900TIP3   OH281190   0.571   6.966   2.307 -0.6478  0.0256  0.1791
19900TIP3    H181191   0.532   6.899   2.251 -1.8461  0.7560  0.1079
19900TIP3    H281192   0.521   6.961   2.389 -0.7184  0.7771  0.1917
19901TIP3   OH281193   5.625   0.445   5.161  0.1685  0.0061  0.1629
19901TIP3    H181194   5.557   0.505   5.191  1.6843  1.9111 -0.0982
19901TIP3    H281195   5.678   0.429   5.239  0.4741  0.0035 -0.0434
19902TIP3   OH281196   6.033   5.730   5.267  0.7550 -0.0851  0.2258
19902TIP3    H181197   5.968   5.799   5.259 -0.5838 -1.1609  1.3913
19902TIP3    H281198   6.047   5.721   5.361  1.8862 -0.5132  0.0278
19903TIP3   OH281199   0.917   4.337   4.038 -0.6864  0.7522 -0.1949
19903TIP3    H181200   0.992   4.288   4.073 -0.6203 -0.1342 -1.5371
19903TIP3    H281201   0.951   4.424   4.020 -0.0367  0.4249 -0.5630
19904TIP3   OH281202   4.619   5.651   4.405 -0.3548 -0.0434  0.1002
19904TIP3    H181203   4.650   5.733   4.443 -1.4871 -0.0437  1.0418
19904TIP3    H281204   4.540   5.629   4.455 -0.1991 -1.5771 -0.3061
19905TIP3   OH281205   7.122   5.408   1.246  0.4150 -0.0745  0.2656
19905TIP3    H181206   7.136   5.361   1.328  0.8131  0.3335  0.4375
19905TIP3    H281207   7.049   5.467   1.265  0.4866 -0.0027  0.3211
19906TIP3   OH281208   6.070   6.566   5.556  0.3201  0.1051 -0.3091
19906TIP3    H181209   6.101   6.499   5.494  0.8147  0.1085 -0.0670
19906TIP3    H281210   6.136   6.567   5.625  0.9929  1.7617 -0.9539
19907TIP3   OH281211   6.392   6.297   5.738  0.0159  0.3283 -0.0198
19907TIP3    H181212   6.438   6.241   5.676 -1.7878 -0.3988 -0.7235
19907TIP3    H281213   6.313   6.247   5.761 -1.1083  2.1425  0.1217
19908TIP3   OH281214   4.966   4.497   3.552  0.1902 -0.2342 -0.3683
19908TIP3    H181215   4.952   4.562   3.483  3.3350  0.9695  0.0266
19908TIP3    H281216   4.953   4.545   3.633  1.8291 -0.2344 -0.0843
19909TIP3   OH281217   5.684   5.222   5.378 -0.3220 -0.0625 -0.5000
19909TIP3    H181218   5.726   5.191   5.458  0.3477  0.5181 -0.6224
19909TIP3    H281219   5.673   5.144   5.324 -1.5602 -0.5983  0.5008
19910TIP3   OH281220   1.543   0.369   4.920 -0.0869  0.3426 -0.4032
19910TIP3    H181221   1.455   0.394   4.892 -0.1531  2.2993  1.4632
19910TIP3    H281222   1.530   0.290   4.973 -0.3923 -0.9554 -2.3688
19911TIP3   OH281223   4.930   7.155   3.252  0.6867  0.0105 -0.0074
19911TIP3    H181224   4.963   7.069   3.279  1.6324  0.6863  1.0378
19911TIP3    H281225   5.003   7.194   3.203  0.4368  0.3984 -0.0733
19912TIP3   OH281226   1.664   6.725   5.384 -0.2229  0.1148  0.1234
19912TIP3    H181227   1.652   6.654   5.321 -0.3495  0.7135 -0.5397
19912TIP3    H281228   1.668   6.804   5.330  0.6184  0.5413  0.8017
19913TIP3   OH281229   1.154   0.241   2.454 -0.5406  0.2353 -0.6724
19913TIP3    H181230   1.147   0.217   2.546  0.4984 -0.1311 -0.6831
19913TIP3    H281231   1.154   0.158   2.407  1.9118  0.2478 -0.7853
19914TIP3   OH281232   0.189   6.811   3.586  0.4785 -0.3907 -0.0648
19914TIP3    H181233   0.141   6.828   3.667 -1.2774 -0.3288 -1.0861
19914TIP3    H281234   0.232   6.727   3.600 -0.0163 -0.4941  0.8549
19915TIP3   OH281235   2.735   0.534   2.105  0.2815 -0.5396 -0.2545
19915TIP3    H181236   2.674   0.483   2.051  0.2552 -1.3150  0.4986
19915TIP3    H281237   2.796   0.572   2.042 -0.8431  0.0633 -0.9992
19916TIP3   OH281238   5.211   6.259   5.375 -0.1159  0.2925 -0.6783
19916TIP3    H181239   5.192   6.166   5.387  1.1320  0.3131  1.7797
19916TIP3    H281240   5.128   6.297   5.348 -0.5219 -1.5984 -2.2348
19917TIP3   OH281241   6.145   1.709   4.428 -0.3375 -0.2512  0.5135
19917TIP3    H181242   6.230   1.735   4.391 -0.6118  0.0511  0.0874
19917TIP3    H281243   6.083   1.724   4.357 -0.2396 -4.0228 -0.4267
19918TIP3   OH281244   3.376   6.610   3.087  0.3331  0.2228 -0.0239
19918TIP3    H181245   3.456   6.576   3.127 -0.5909 -0.2641  1.4444
19918TIP3    H281246   3.403   6.638   2.999  1.3498 -3.3532 -0.9590
19919TIP3   OH281247   6.469   6.535   5.636  0.2022 -0.1568  0.7587
19919TIP3    H181248   6.532   6.510   5.569  0.1293 -0.2388  0.7201
19919TIP3    H281249   6.448   6.454   5.682  1.0164  0.0712  1.5522
19920TIP3   OH281250   4.848   1.830   3.846  0.5420 -0.1183 -0.1729
19920TIP3    H181251   4.829   1.861   3.758  0.8609  2.5876  0.6738
19920TIP3    H281252   4.929   1.779   3.837  0.3719 -0.1688 -1.4719
19921TIP3   OH281253   7.160   5.388   2.087  0.0361 -0.4528  0.4794
19921TIP3    H181254   7.071   5.424   2.079 -0.3426 -1.2264  1.2657
19921TIP3    H281255   7.178   5.389   2.180  0.5385 -1.0720  0.3891
19922TIP3   OH281256   2.496   6.725   1.651 -0.3252  0.0163 -0.2725
19922TIP3    H181257   2.464   6.685   1.731 -1.6454  1.7132  0.0824
19922TIP3    H281258   2.589   6.744   1.669  0.2474 -2.5829 -0.3721
19923TIP3   OH281259   0.821   4.508   5.832 -0.3188 -0.0434  0.4450
19923TIP3    H181260   0.837   4.487   5.739  0.7779 -1.9895  1.0334
19923TIP3    H281261   0.793   4.599   5.831  1.0044  0.3968 -1.6935
19924TIP3   OH281262   4.617   0.475   4.661  0.3451  0.0055  0.0223
19924TIP3    H181263   4.712   0.472   4.646  0.1804  0.8370 -1.2099
19924TIP3    H281264   4.579   0.488   4.574 -0.8664  0.5054  0.6164
19925TIP3   OH281265   4.259   2.073   3.101 -0.1122  0.7556 -0.1877
19925TIP3    H181266   4.167   2.046   3.106 -0.7389  2.6667 -0.7658
19925TIP3    H281267   4.288   2.077   3.192  0.2665 -2.6281 -0.1227
19926TIP3   OH281268   1.429   5.484   3.236  0.2968 -0.3763  0.4037
19926TIP3    H181269   1.471   5.492   3.150 -0.2075  1.3090  0.2962
19926TIP3    H281270   1.456   5.563   3.283 -0.4346 -0.6832  1.3540
19927TIP3   OH281271   5.721   5.794   4.932  1.0495 -0.1492  0.4902
19927TIP3    H181272   5.680   5.872   4.967 -0.1758 -0.4132 -0.3379
19927TIP3    H281273   5.774   5.826   4.858  2.2917  0.1760  1.5017
19928TIP3   OH281274   1.517   4.614   2.489 -0.0515 -0.3584 -0.6780
19928TIP3    H181275   1.591   4.555   2.488 -1.1200 -1.7213 -0.8126
19928TIP3    H281276   1.532   4.671   2.565  1.8079  0.3029 -1.5081
19929TIP3   OH281277   3.286   5.347   6.075 -0.0263  0.2116 -0.0051
19929TIP3    H181278   3.324   5.382   5.994 -0.7986 -0.5084 -0.7001
19929TIP3    H281279   3.352   5.285   6.107  0.3676  0.6421  0.0267
19930TIP3   OH281280   3.729   4.407   4.392  0.0932 -0.4453  0.1772
19930TIP3    H181281   3.821   4.434   4.400 -0.3759  1.2982 -0.1783
19930TIP3    H281282   3.691   4.428   4.477 -0.7332  1.8802 -0.7308
19931TIP3   OH281283   0.074   2.629   1.720  0.0647  0.1847 -0.7079
19931TIP3    H181284   0.024   2.555   1.756 -0.9512  1.3572  0.3520
19931TIP3    H281285   0.040   2.640   1.632 -1.5919  0.9735  0.0064
19932TIP3   OH281286   0.309   6.592   4.834 -0.7051  0.2928  0.1293
19932TIP3    H181287   0.265   6.661   4.884 -2.1315  1.1073 -2.1736
19932TIP3    H281288   0.300   6.514   4.889 -0.4647  1.5737  2.0550
19933TIP3   OH281289   1.197   3.669   2.568 -0.1353 -0.0836 -0.9468
19933TIP3    H181290   1.185   3.588   2.518 -0.6751  0.0643 -1.0639
19933TIP3    H281291   1.225   3.640   2.655  0.6017 -0.3501 -1.2688
19934TIP3   OH281292   5.384   4.085   2.320 -0.0824 -0.2547 -0.5299
19934TIP3    H181293   5.474   4.094   2.289 -0.2861 -3.6074 -2.3040
19934TIP3    H281294   5.390   4.025   2.394 -0.8152 -0.2339 -0.4483
19935TIP3   OH281295   5.907   6.442   3.643  0.0339 -0.1444 -0.0906
19935TIP3    H181296   5.907   6.536   3.661  1.5736 -0.3436  1.0187
19935TIP3    H281297   5.834   6.407   3.695  0.6889  0.1637  1.0529
19936TIP3   OH281298   5.309   0.340   5.782  0.2937  0.4721  0.4313
19936TIP3    H181299   5.368   0.285   5.731  0.7882 -0.4396  1.9548
19936TIP3    H281300   5.266   0.279   5.842  0.1810  1.6209  1.5187
19937TIP3   OH281301   4.795   0.194   5.217 -0.7046  0.1254 -0.5391
19937TIP3    H181302   4.821   0.269   5.272 -0.0964 -0.1645 -0.4279
19937TIP3    H281303   4.878   0.157   5.187 -0.9491 -1.4336  0.6412
19938TIP3   OH281304   4.358   0.430   5.090  0.4643  0.7466  0.2880
19938TIP3    H181305   4.287   0.386   5.041  0.0119  1.0589  0.6591
19938TIP3    H281306   4.324   0.437   5.179  1.5497 -0.4038  0.7975
19939TIP3   OH281307   6.174   3.391   0.708 -0.4790 -0.2481  0.0754
19939TIP3    H181308   6.203   3.382   0.617 -1.0773 -0.9144 -0.0524
19939TIP3    H281309   6.166   3.301   0.739  2.2385 -0.0201  1.6022
19940TIP3   OH281310   1.436   3.205   3.306  0.0225 -0.2577  0.4148
19940TIP3    H181311   1.343   3.229   3.307 -0.0747 -0.5914 -0.0866
19940TIP3    H281312   1.482   3.288   3.290 -0.1804 -0.0758  0.7614
19941TIP3   OH281313   1.481   6.130   0.753  0.0625 -0.2915  0.8593
19941TIP3    H181314   1.418   6.195   0.783 -0.2305  0.6638 -1.7179
19941TIP3    H281315   1.565   6.176   0.755 -0.1519  0.2109 -1.0091
19942TIP3   OH281316   6.738   2.844   4.325  0.2739  0.5011 -0.0740
19942TIP3    H181317   6.685   2.778   4.280  0.8661  0.9736 -1.5046
19942TIP3    H281318   6.807   2.794   4.368 -0.6996 -0.0174  0.9148
19943TIP3   OH281319   0.099   2.966   4.607  0.5715 -0.2347  0.3851
19943TIP3    H181320   0.171   2.955   4.545  1.6626  0.6785  1.4561
19943TIP3    H281321   0.078   3.060   4.603 -1.3430 -0.6750 -0.7484
19944TIP3   OH281322   0.445   0.555   4.599 -0.2002 -0.5059  0.2351
19944TIP3    H181323   0.434   0.484   4.663 -0.4790 -0.5222  0.1717
19944TIP3    H281324   0.375   0.617   4.620  0.2984 -0.0510  0.5479
19945TIP3   OH281325   1.731   6.853   4.561  0.5715  0.0070  0.8507
19945TIP3    H181326   1.761   6.942   4.541  0.3411 -0.1177 -0.0597
19945TIP3    H281327   1.726   6.850   4.657 -1.3733  1.6182  0.8285
19946TIP3   OH281328   6.000   6.284   5.357  0.4226  0.3268  0.5347
19946TIP3    H181329   6.069   6.223   5.381  0.1264  0.0685  0.7315
19946TIP3    H281330   6.028   6.321   5.274  1.3015  0.9820  1.1138
19947TIP3   OH281331   1.864   6.647   3.968  0.6981 -0.0920  0.8388
19947TIP3    H181332   1.957   6.667   3.980  1.1300  0.5457 -2.9376
19947TIP3    H281333   1.820   6.732   3.973  0.8772  0.1702 -1.7288
19948TIP3   OH281334   6.844   6.557   4.737  0.1742 -0.0022  0.1414
19948TIP3    H181335   6.868   6.464   4.743  0.4433  0.1491  1.5393
19948TIP3    H281336   6.916   6.597   4.688 -0.8553 -0.8524 -2.1007
19949TIP3   OH281337   6.788   7.170   5.264 -0.0350 -0.4217 -0.4353
19949TIP3    H181338   6.762   7.097   5.321  0.8742 -0.5105 -0.1242
19949TIP3    H281339   6.737   7.157   5.184 -0.2382 -1.1314 -0.1958
19950TIP3   OH281340   1.238   6.530   4.862 -0.0704 -0.5896  0.4767
19950TIP3    H181341   1.224   6.566   4.949  0.2681 -1.4610  0.8972
19950TIP3    H281342   1.325   6.491   4.866 -0.0877 -0.7116 -0.2271
19951TIP3   OH281343   5.450   0.122   5.656  0.6881 -0.1370  0.0413
19951TIP3    H181344   5.488   0.108   5.743  1.6430  0.9149 -0.2049
19951TIP3    H281345   5.524   0.145   5.600 -0.1371  0.6958 -0.7181
19952TIP3   OH281346   0.217   6.651   5.283 -0.1951  0.4019 -0.2408
19952TIP3    H181347   0.214   6.557   5.296  1.6254  0.7679  3.3484
19952TIP3    H281348   0.132   6.683   5.314 -1.2233 -0.0744 -2.4168
19953TIP3   OH281349   6.339   4.164   4.782 -0.1188  0.3001 -0.2801
19953TIP3    H181350   6.329   4.106   4.858  1.1138  1.3291  0.6929
19953TIP3    H281351   6.433   4.161   4.762  0.0380  2.2663  0.0438
19954TIP3   OH281352   1.965   1.128   0.879  0.2792 -0.0208 -0.1667
19954TIP3    H181353   2.012   1.045   0.878 -1.2447 -0.9092 -0.0809
19954TIP3    H281354   1.925   1.132   0.966 -1.5904 -0.3235 -0.9895
19955TIP3   OH281355   6.294   5.184   4.811 -0.0665 -0.0713 -0.2563
19955TIP3    H181356   6.341   5.117   4.861 -0.4887 -1.0243 -1.1097
19955TIP3    H281357   6.261   5.245   4.877  2.8911  0.9766  0.3350
19956TIP3   OH281358   4.425   4.756   4.292  0.4803  0.4202  0.6050
19956TIP3    H181359   4.369   4.804   4.354  1.6986  2.6659  0.0164
19956TIP3    H281360   4.462   4.824   4.236  0.9165 -1.4130 -1.3664
19957TIP3   OH281361   1.766   7.183   2.676  0.0785  0.2586  0.2575
19957TIP3    H181362   1.789   7.161   2.586  1.8707 -1.3709  1.0698
19957TIP3    H281363   1.707   7.114   2.704 -0.3270  0.6614  0.4090
19958TIP3   OH281364   2.198   4.246   4.878  0.0158  0.5067  0.0548
19958TIP3    H181365   2.244   4.195   4.944  1.2498  3.1729  1.3423
19958TIP3    H281366   2.118   4.276   4.922 -0.4543  0.1254 -0.5298
19959TIP3   OH281367   3.794   6.657   3.783 -0.2198  0.4307 -0.2237
19959TIP3    H181368   3.828   6.659   3.693  0.5856 -0.0964  0.0773
19959TIP3    H281369   3.729   6.728   3.784  1.0903  1.6515 -0.6933
19960TIP3   OH281370   0.270   2.083   2.470 -0.0998 -0.5403  0.6690
19960TIP3    H181371   0.250   2.171   2.501 -0.6120 -0.1885 -0.6591
19960TIP3    H281372   0.185   2.043   2.455  0.1370 -1.1343  0.8794
19961TIP3   OH281373   5.084   0.687   5.651 -0.1711  0.2887 -0.5434
19961TIP3    H181374   5.109   0.779   5.660 -1.5631  0.7288 -1.0912
19961TIP3    H281375   5.167   0.640   5.648  0.6039  1.6915 -1.9706
19962TIP3   OH281376   6.163   3.707   3.469  0.4864 -0.3190  0.0924
19962TIP3    H181377   6.183   3.774   3.404 -0.3497 -0.2811 -0.1337
19962TIP3    H281378   6.069   3.718   3.486  0.5688 -0.7342  0.8406
19963TIP3   OH281379   4.359   1.121   5.496 -0.2690  0.1197  0.2274
19963TIP3    H181380   4.381   1.214   5.503  0.3532 -0.0330  0.3173
19963TIP3    H281381   4.288   1.118   5.432  0.1886  0.5808 -0.3026
19964TIP3   OH281382   4.941   0.242   4.209 -0.0705  0.0908 -0.2205
19964TIP3    H181383   4.931   0.337   4.199 -0.0073  0.0788 -0.3999
19964TIP3    H281384   4.953   0.210   4.120 -0.6290 -0.1476 -0.2166
19965TIP3   OH281385   6.307   6.430   5.336 -0.3579  0.2294  0.1240
19965TIP3    H181386   6.263   6.390   5.261  1.0291  1.5341 -1.4516
19965TIP3    H281387   6.326   6.357   5.395  0.7282 -1.2250 -1.9456
19966TIP3   OH281388   6.423   6.322   3.815  0.7315  0.5974 -0.4020
19966TIP3    H181389   6.344   6.375   3.806 -0.7027 -1.4761 -0.1852
19966TIP3    H281390   6.399   6.236   3.782  2.3058 -0.6262  1.5209
19967TIP3   OH281391   5.560   5.047   5.178 -0.2768 -0.0563  0.0141
19967TIP3    H181392   5.534   4.968   5.132  0.7995  0.4587 -1.5423
19967TIP3    H281393   5.488   5.108   5.165 -0.6262 -0.4128  0.2809
19968TIP3   OH281394   7.107   0.884   4.572  0.1287  0.4316  0.1709
19968TIP3    H181395   7.077   0.960   4.621  2.2187  1.0798  0.4872
19968TIP3    H281396   7.110   0.813   4.636  1.1806  0.8529  0.5934
19969TIP3   OH281397   1.857   6.962   3.937  0.7429 -0.0587 -0.3902
19969TIP3    H181398   1.860   7.052   3.968  3.8267  0.3658 -1.7248
19969TIP3    H281399   1.776   6.957   3.886 -0.0429  1.6107  0.6678
19970TIP3   OH281400   1.569   1.842   2.651  0.9044  0.1204  0.0494
19970TIP3    H181401   1.531   1.835   2.738 -0.9698 -3.9324 -0.9813
19970TIP3    H281402   1.663   1.851   2.666  0.5607 -0.2307  2.4961
19971TIP3   OH281403   5.183   1.577   4.814 -0.2297 -0.2477 -0.4423
19971TIP3    H181404   5.128   1.542   4.743  0.0250  0.7130 -1.1264
19971TIP3    H281405   5.236   1.644   4.771  0.2467  0.0237  0.5777
19972TIP3   OH281406   4.147   3.026   3.233 -0.3673 -0.0051  0.5253
19972TIP3    H181407   4.232   3.042   3.275 -1.3523  1.5270  1.9987
19972TIP3    H281408   4.094   2.984   3.301 -1.1757  0.1206 -0.0148
19973TIP3   OH281409   2.966   4.868   2.790  0.1111 -0.4028 -0.0892
19973TIP3    H181410   3.011   4.938   2.838  0.2894  1.4412 -2.8179
19973TIP3    H281411   2.981   4.889   2.698 -1.1593 -3.2125 -0.9910
19974TIP3   OH281412   0.023   4.767   4.199  0.1632  0.2884 -0.1175
19974TIP3    H181413  -0.020   4.698   4.249  0.1577 -1.0445 -1.9334
19974TIP3    H281414  -0.043   4.796   4.136  0.6390  0.9349 -0.3213
19975TIP3   OH281415   0.426   0.031   2.845 -0.0780 -0.2743  0.8427
19975TIP3    H181416   0.478   0.082   2.907  0.5852  1.0168 -0.7336
19975TIP3    H281417   0.405   0.094   2.775 -2.2594 -1.2433  0.6012
19976TIP3   OH281418   4.205   0.772   4.079 -0.0457 -0.6101 -0.3803
19976TIP3    H181419   4.171   0.854   4.114 -0.6474 -0.8444 -0.4076
19976TIP3    H281420   4.153   0.704   4.123  0.5159 -0.9798 -0.2827
19977TIP3   OH281421   5.681   4.669   4.329 -0.4262 -0.4254  0.1132
19977TIP3    H181422   5.659   4.704   4.242 -2.5730  1.2501  1.2689
19977TIP3    H281423   5.677   4.574   4.319  0.6678 -0.2788 -1.9329
19978TIP3   OH281424   6.766   1.052   3.608 -0.2388 -0.0704  0.1528
19978TIP3    H181425   6.812   0.980   3.565 -1.6139 -1.4704  0.9825
19978TIP3    H281426   6.708   1.087   3.541  1.8048  1.5627 -0.8338
19979TIP3   OH281427   1.552   6.185   4.797  0.2433  0.0693  0.2047
19979TIP3    H181428   1.567   6.136   4.877 -0.1835 -1.6314 -0.7313
19979TIP3    H281429   1.607   6.142   4.731  0.9982  1.7710 -0.3097
19980TIP3   OH281430   3.276   3.329   1.691  0.4230  0.0937 -0.6922
19980TIP3    H181431   3.268   3.393   1.763 -0.5773  0.3793 -1.0550
19980TIP3    H281432   3.187   3.297   1.677  0.4276  0.8661 -2.5598
19981TIP3   OH281433   6.500   0.417   5.966 -0.3979 -0.1074 -0.1877
19981TIP3    H181434   6.501   0.433   5.871  0.0043  2.6360  0.2463
19981TIP3    H281435   6.593   0.409   5.990 -0.3630  1.5938  0.3210
19982TIP3   OH281436   6.869   5.851   4.117  0.2701  0.2674 -0.0734
19982TIP3    H181437   6.837   5.812   4.198  0.1070  0.2923 -0.1257
19982TIP3    H281438   6.808   5.821   4.050  0.0972  0.6724 -0.1024
19983TIP3   OH281439   5.929   0.123   5.342  0.5161 -0.0247  0.1528
19983TIP3    H181440   6.014   0.148   5.307  0.9755  0.5479  1.6185
19983TIP3    H281441   5.910   0.190   5.408  0.1898 -1.6560  1.7426
19984TIP3   OH281442   0.600   1.971   1.522 -0.6616  0.0531 -0.3080
19984TIP3    H181443   0.518   1.976   1.571 -0.2927 -0.7842  0.4146
19984TIP3    H281444   0.643   2.055   1.538 -0.7123 -0.0751  0.5007
19985TIP3   OH281445   6.800   5.634   6.153  0.2782  0.3163 -0.5329
19985TIP3    H181446   6.784   5.588   6.070 -4.1231  1.5774 -0.4924
19985TIP3    H281447   6.890   5.665   6.146  1.1729 -2.6517 -3.3260
19986TIP3   OH281448   1.267   0.437   4.856  0.3360 -1.1484 -0.4018
19986TIP3    H181449   1.279   0.478   4.770 -1.8262 -0.7217 -0.5289
19986TIP3    H281450   1.227   0.352   4.837 -0.3450 -0.9645  0.1824
19987TIP3   OH281451   1.363   6.363   4.591 -0.0676  0.7343 -0.1091
19987TIP3    H181452   1.433   6.352   4.655  0.0075 -0.0908 -0.3338
19987TIP3    H281453   1.310   6.284   4.599  0.2603  0.3724 -1.4608
19988TIP3   OH281454   1.035   3.759   2.870 -0.0116  0.3823  0.0362
19988TIP3    H181455   1.029   3.845   2.911  1.1519  0.9260 -0.9338
19988TIP3    H281456   1.075   3.704   2.937 -1.1898  0.4632  0.8296
19989TIP3   OH281457   1.210   0.558   3.035  0.0548  0.2354 -0.0498
19989TIP3    H181458   1.168   0.471   3.035 -0.9891  0.7313  0.5291
19989TIP3    H281459   1.145   0.616   2.996  1.4183  0.4753 -2.0729
19990TIP3   OH281460   5.377   6.292   4.051  0.4609  0.3101 -0.4425
19990TIP3    H181461   5.386   6.339   4.133 -4.9786  1.2967 -0.2705
19990TIP3    H281462   5.377   6.360   3.983 -0.5363 -0.0101 -0.7738
19991TIP3   OH281463   0.711   0.171  15.184 -0.1526  0.2643  0.2543
19991TIP3    H181464   0.790   0.153  15.235  0.2353 -0.9004 -0.7158
19991TIP3    H281465   0.743   0.209  15.102 -0.4272 -2.1210 -1.0005
19992TIP3   OH281466   0.668   0.666   3.124 -0.5240  0.3236  0.2778
19992TIP3    H181467   0.611   0.743   3.126 -0.1061  0.6404  0.1289
19992TIP3    H281468   0.645   0.621   3.042 -1.7129 -0.4433  1.0145
19993TIP3   OH281469   5.476   6.217   5.726  0.1218  0.1958 -0.2386
19993TIP3    H181470   5.543   6.151   5.741 -0.6864 -0.5519  0.1353
19993TIP3    H281471   5.444   6.199   5.637 -1.4627 -1.1724  0.5847
19994TIP3   OH281472   5.633   6.692   5.305 -0.5444  0.6870 -0.3080
19994TIP3    H181473   5.610   6.762   5.367  1.1116  0.7031  0.3140
19994TIP3    H281474   5.683   6.630   5.357 -0.7193 -0.2238 -1.2195
19995TIP3   OH281475   0.294   6.056   2.862  0.1065 -0.1177 -0.0585
19995TIP3    H181476   0.277   6.044   2.956  1.5816 -0.7732  0.1358
19995TIP3    H281477   0.292   5.967   2.826  0.1596  0.0765 -0.5454
19996TIP3   OH281478   0.909   6.518   3.807 -0.2363 -0.1441 -0.1563
19996TIP3    H181479   0.868   6.440   3.771 -2.1176  0.1956  1.1623
19996TIP3    H281480   0.990   6.486   3.847 -0.5213 -1.2805 -0.4661
19997TIP3   OH281481   5.466   6.143  13.974 -0.2029 -0.0361  0.2955
19997TIP3    H181482   5.429   6.224  13.941 -1.4518  0.8310  3.6597
19997TIP3    H281483   5.429   6.075  13.918 -1.8209  1.4000 -0.4280
19998TIP3   OH281484   6.751   3.378   5.096  0.1232  0.7503  0.9431
19998TIP3    H181485   6.768   3.435   5.021 -0.5286 -1.0613 -0.6340
19998TIP3    H281486   6.669   3.411   5.133 -0.8316  0.1950 -0.6254
19999TIP3   OH281487   6.826   4.307   2.290 -0.8456  0.1826  0.2963
19999TIP3    H181488   6.788   4.391   2.313 -0.8984 -0.2420  1.7649
19999TIP3    H281489   6.751   4.248   2.283 -0.7639  0.1380 -0.2668
20000TIP3   OH281490   7.119   0.212   5.271  0.2835 -0.0093 -0.6487
20000TIP3    H181491   7.094   0.209   5.179  1.1007  2.1479 -0.9682
20000TIP3    H281492   7.194   0.152   5.277 -0.0506 -0.5034 -1.2814
20001TIP3   OH281493   0.938   5.699   3.583 -0.0893  0.5668  0.0609
20001TIP3    H181494   0.902   5.721   3.497 -1.5588 -0.2682  0.4447
20001TIP3    H281495   1.015   5.645   3.563 -0.1612  0.7532 -0.7423
20002TIP3   OH281496   0.340   0.013   5.611 -0.9648  0.3137 -0.7522
20002TIP3    H181497   0.252   0.048   5.625  0.1348  1.7412  3.2178
20002TIP3    H281498   0.329  -0.082   5.620 -1.5482  0.7032  3.8933
20003TIP3   OH281499   5.925   4.039   4.527 -0.6721 -0.4189 -0.0650
20003TIP3    H181500   5.906   3.946   4.539  0.1226 -0.8341 -1.7609
20003TIP3    H281501   6.013   4.050   4.562 -1.0716 -0.1168  0.8667
20004TIP3   OH281502   5.882   4.089   2.420  0.6675 -0.2501 -0.2259
20004TIP3    H181503   5.791   4.071   2.443  0.7577  0.5312  0.7595
20004TIP3    H281504   5.879   4.171   2.371  0.9154  0.0782  0.3160
20005TIP3   OH281505   0.212   6.022   4.642  0.6996 -0.0134 -0.3753
20005TIP3    H181506   0.232   6.088   4.575 -0.5448 -0.2190 -0.9622
20005TIP3    H281507   0.227   6.068   4.724 -1.7762  1.5836 -0.7478
20006TIP3   OH281508   4.995   5.714   1.770  0.1591  0.3805 -0.3094
20006TIP3    H181509   5.031   5.640   1.721 -1.5458 -2.0739  2.0220
20006TIP3    H281510   4.974   5.678   1.856 -1.2114  3.4699  0.7176
20007TIP3   OH281511   6.407   1.322   5.849 -0.1355 -0.2210  0.1753
20007TIP3    H181512   6.379   1.413   5.862  0.0864  0.0340 -1.0390
20007TIP3    H281513   6.477   1.310   5.913  1.5687  1.2795 -1.3337
20008TIP3   OH281514   3.900   0.852   2.894 -0.4367 -0.0572  0.1245
20008TIP3    H181515   3.856   0.808   2.967  1.0021  0.3785  1.3041
20008TIP3    H281516   3.925   0.781   2.835  0.0859 -0.6299  1.0122
20009TIP3   OH281517   2.101   0.603   5.141 -0.4940  0.2487 -0.2724
20009TIP3    H181518   2.127   0.512   5.130 -2.2231 -0.1552 -1.0721
20009TIP3    H281519   2.101   0.617   5.236 -2.9302 -1.3827 -0.0050
20010TIP3   OH281520   0.792   1.182   5.068  0.0119  0.1337 -0.2560
20010TIP3    H181521   0.745   1.117   5.016  0.6017  0.2290 -0.9239
20010TIP3    H281522   0.829   1.132   5.141 -0.4014 -0.0913 -0.2015
20011TIP3   OH281523   5.597   5.500   4.905  0.3123 -0.0452 -0.0967
20011TIP3    H181524   5.582   5.594   4.916  0.4996 -0.0294  0.0439
20011TIP3    H281525   5.663   5.495   4.836  0.1434 -0.0812 -0.2520
20012TIP3   OH281526   2.119   5.405   4.380  0.0345  0.0401 -0.1682
20012TIP3    H181527   2.034   5.372   4.409 -0.5160  0.2925 -1.4816
20012TIP3    H281528   2.174   5.400   4.459 -1.6076  1.3309  1.1060
20013TIP3   OH281529   0.610   5.633   2.578  0.0499 -0.1971 -0.6924
20013TIP3    H181530   0.661   5.643   2.498 -0.5733  0.3248 -1.0313
20013TIP3    H281531   0.521   5.659   2.554 -0.2451 -0.4798  0.0510
20014TIP3   OH281532   0.137   5.414   4.393 -0.6149 -0.0050 -0.0456
20014TIP3    H181533   0.150   5.435   4.486 -3.9933  0.0821  0.5013
20014TIP3    H281534   0.064   5.471   4.366 -0.4537 -0.8715 -2.4280
20015TIP3   OH281535   6.777   0.366   5.996 -0.0476  0.4158 -0.1605
20015TIP3    H181536   6.809   0.352   6.085  1.1584  1.0046 -0.5001
20015TIP3    H281537   6.802   0.286   5.949  0.2922  0.5701 -0.2439
20016TIP3   OH281538   1.293   3.374   4.451 -0.0499 -0.5433 -0.2505
20016TIP3    H181539   1.310   3.315   4.525  1.2520  0.0267 -0.0792
20016TIP3    H281540   1.279   3.315   4.377 -1.2707 -1.1197  0.4076
20017TIP3   OH281541   5.523   6.263   4.856 -0.2209 -0.2435 -0.4940
20017TIP3    H181542   5.558   6.344   4.894  0.0360 -0.1536 -0.9163
20017TIP3    H281543   5.455   6.235   4.917 -0.7311  0.6245 -0.6558
20018TIP3   OH281544   6.161   0.902   5.351  0.5829 -0.4725  0.1527
20018TIP3    H181545   6.147   0.823   5.299  2.0198 -0.2718 -0.5638
20018TIP3    H281546   6.251   0.928   5.331 -1.1756  3.7350 -2.9391
20019TIP3   OH281547   5.958   5.380   3.418  0.1669 -0.2680  0.3474
20019TIP3    H181548   5.925   5.410   3.334  1.5374 -0.8390 -0.4145
20019TIP3    H281549   5.940   5.286   3.419 -0.8291 -0.0840  1.1733
20020TIP3   OH281550   5.283   5.373   5.336  0.4501  0.5108  0.2243
20020TIP3    H181551   5.253   5.449   5.385  2.0994  1.1593  0.2720
20020TIP3    H281552   5.324   5.317   5.401 -0.9759 -0.5421  0.2280
20021TIP3   OH281553   4.598   6.113   0.775  1.2468  0.0757  0.0188
20021TIP3    H181554   4.684   6.112   0.818  1.1377  1.4257  0.2822
20021TIP3    H281555   4.616   6.141   0.686  0.8717  2.0701  0.5591
20022TIP3   OH281556   4.119   5.821   4.628 -0.1423  0.6649 -0.1558
20022TIP3    H181557   4.047   5.758   4.634 -0.5403  1.1707  0.4477
20022TIP3    H281558   4.138   5.845   4.718 -0.1742  1.6047 -0.3860
20023TIP3   OH281559   6.086   1.463   3.610  0.0749 -0.3265  0.1481
20023TIP3    H181560   6.118   1.414   3.686  0.9071  2.5418  1.7324
20023TIP3    H281561   6.025   1.526   3.647 -0.8869 -0.0774 -1.8300
20024TIP3   OH281562   5.948   7.184   2.582 -0.0539  0.4287  0.1566
20024TIP3    H181563   5.955   7.272   2.545 -0.0380 -0.5146 -2.1569
20024TIP3    H281564   6.038   7.154   2.591 -0.0638  0.5893  0.8274
20025TIP3   OH281565   1.074   0.458   3.417  0.4490  0.8751 -0.1298
20025TIP3    H181566   1.122   0.389   3.372  0.8438 -0.5550  2.4207
20025TIP3    H281567   1.140   0.500   3.473 -0.0487  2.5976 -0.7993
20026TIP3   OH281568   6.590   0.180   2.227 -0.5870  0.3440 -0.7394
20026TIP3    H181569   6.511   0.234   2.228 -2.1796 -1.8692 -2.1686
20026TIP3    H281570   6.628   0.195   2.140 -0.6546 -0.2964 -0.8783
20027TIP3   OH281571   6.426   6.675   3.917  0.1455 -0.0511 -0.3729
20027TIP3    H181572   6.348   6.619   3.904 -1.0484  1.7914 -1.3486
20027TIP3    H281573   6.410   6.719   4.001  0.8428 -0.7682  0.1409
20028TIP3   OH281574   5.152   0.342   4.956  0.3266  0.4386 -0.1845
20028TIP3    H181575   5.163   0.258   5.000  1.1202  0.8133  0.3530
20028TIP3    H281576   5.146   0.320   4.863  1.1156 -0.1707 -0.0990
20029TIP3   OH281577   0.550   0.400   4.075 -0.1721  0.4176  0.1741
20029TIP3    H181578   0.574   0.308   4.077  0.1426  0.4711 -0.9964
20029TIP3    H281579   0.454   0.400   4.078 -0.1899  0.0295 -0.3021
20030TIP3   OH281580   6.448   6.390   1.533  0.0490 -0.1915  0.0151
20030TIP3    H181581   6.511   6.412   1.465  0.8820 -1.3301  0.4002
20030TIP3    H281582   6.364   6.386   1.488  1.0709 -4.4696 -1.6989
20031TIP3   OH281583   0.933   0.852   4.424  0.2378 -0.7212  0.6654
20031TIP3    H181584   0.941   0.943   4.397 -0.4055 -0.7432  0.3923
20031TIP3    H281585   0.860   0.851   4.486 -0.7317 -1.2888 -0.4651
20032TIP3   OH281586   0.524   5.914   3.049  0.2076 -0.2224 -0.0244
20032TIP3    H181587   0.495   5.874   2.967 -1.5712  1.0626 -0.0242
20032TIP3    H281588   0.574   5.991   3.022  0.7502 -0.5309  0.0802
20033TIP3   OH281589   4.707   1.664   2.943  0.1060 -0.1958  0.0616
20033TIP3    H181590   4.667   1.577   2.938 -1.8928  0.3651  4.2771
20033TIP3    H281591   4.711   1.693   2.852 -3.8670 -2.6696 -1.0688
20034TIP3   OH281592   4.742   5.945   3.865 -0.1949  0.4826 -0.2047
20034TIP3    H181593   4.746   6.022   3.809 -1.3318  0.8385  0.1745
20034TIP3    H281594   4.706   5.876   3.809  0.3334  0.3704 -0.4025
20035TIP3   OH281595   4.408   6.605   2.683 -0.1573  0.7239  0.2112
20035TIP3    H181596   4.426   6.628   2.774  2.3362 -0.5421  0.0685
20035TIP3    H281597   4.399   6.510   2.684  2.7726  0.3823 -1.2845
20036TIP3   OH281598   0.644   6.542   2.475  0.8769 -0.7810  0.4478
20036TIP3    H181599   0.599   6.624   2.457  0.7919 -0.8562  0.3164
20036TIP3    H281600   0.733   6.568   2.500  0.6485 -0.6093  1.0935
20037TIP3   OH281601   1.530   4.961   4.594  0.3333  0.6687 -0.5683
20037TIP3    H181602   1.579   4.936   4.672  0.9216  0.8366 -0.8847
20037TIP3    H281603   1.488   4.879   4.565  3.0783 -0.2368 -2.1955
20038TIP3   OH281604   1.676   4.598   5.879  0.3317  0.0758  0.4725
20038TIP3    H181605   1.666   4.649   5.798  1.9736 -0.3267 -0.0063
20038TIP3    H281606   1.660   4.508   5.853  0.9610 -0.0660  0.5786
20039TIP3   OH281607   5.386   1.931   4.653  0.3871  0.5265 -0.2034
20039TIP3    H181608   5.356   1.842   4.634 -0.2535  0.8628 -0.8095
20039TIP3    H281609   5.348   1.953   4.738  0.2633  0.3479 -0.2146
20040TIP3   OH281610   2.857   0.974   5.578 -0.1907  0.1621 -0.2312
20040TIP3    H181611   2.925   1.017   5.631  1.6686 -0.7756 -1.7694
20040TIP3    H281612   2.822   0.905   5.634 -0.7776  1.4601  1.0256
20041TIP3   OH281613   6.474   0.915   4.175  0.4268  0.5117  0.0787
20041TIP3    H181614   6.557   0.868   4.165 -0.5390 -1.4693  1.1722
20041TIP3    H281615   6.420   0.884   4.102 -0.2592 -0.2019  0.8798
20042TIP3   OH281616   0.529   2.756   5.424 -0.7153  0.1339  0.1946
20042TIP3    H181617   0.599   2.790   5.480  1.2403  0.2850 -2.3046
20042TIP3    H281618   0.560   2.670   5.395 -0.6042  1.0894 -2.6278
20043TIP3   OH281619   0.053   2.167   3.850  0.0444  0.1866  0.1243
20043TIP3    H181620   0.106   2.220   3.910  1.7313  0.3371 -1.4679
20043TIP3    H281621   0.114   2.138   3.783 -1.1531 -2.5867  0.1536
20044TIP3   OH281622   0.137   1.462   6.194 -0.2458 -0.0798 -0.3879
20044TIP3    H181623   0.065   1.400   6.205 -0.4925  0.2626 -0.0187
20044TIP3    H281624   0.158   1.460   6.101  0.0264 -1.0255 -0.3062
20045TIP3   OH281625   2.075   6.567   4.252 -0.5848  0.1202  0.1625
20045TIP3    H181626   2.151   6.616   4.221 -0.3149  0.6903  1.6900
20045TIP3    H281627   2.013   6.635   4.280 -0.7884 -0.3834  0.9348
20046TIP3   OH281628   5.858   1.652   3.364  0.1961  0.1726 -0.2185
20046TIP3    H181629   5.824   1.697   3.287  0.1612 -1.6160 -1.2588
20046TIP3    H281630   5.896   1.722   3.417 -1.4144  1.6522 -0.9823
20047TIP3   OH281631   6.280   2.958   4.884 -0.3288  0.3571  0.3144
20047TIP3    H181632   6.330   2.877   4.879  0.2674  0.8922 -3.8235
20047TIP3    H281633   6.188   2.930   4.880 -0.2635 -0.2561  2.2943
20048TIP3   OH281634   6.239   6.065   3.337  0.3827 -0.1716 -0.3763
20048TIP3    H181635   6.158   6.071   3.285 -0.1447 -4.6942 -0.2321
20048TIP3    H281636   6.308   6.090   3.277 -0.7922  0.4318 -1.5053
20049TIP3   OH281637   2.884   2.954   5.232  0.3228 -0.2958 -0.4352
20049TIP3    H181638   2.931   2.925   5.310 -0.4557  1.9392  0.9381
20049TIP3    H281639   2.792   2.948   5.256  0.1185  3.6096  0.1467
20050TIP3   OH281640   7.082   5.084   1.239  0.0175 -0.5058  0.2307
20050TIP3    H181641   7.087   5.046   1.151  3.0549 -0.6411  0.4096
20050TIP3    H281642   7.096   5.178   1.226  1.4461 -0.6451  0.6101
20051TIP3   OH281643   4.154   2.979   5.932  0.2272 -0.0463  0.3729
20051TIP3    H181644   4.170   2.910   5.997 -0.5341 -0.3731  0.2211
20051TIP3    H281645   4.061   2.971   5.911  0.3035  0.5404 -0.2123
20052TIP3   OH281646   2.108   0.990   5.690 -0.0412 -0.1509 -0.3660
20052TIP3    H181647   2.108   1.062   5.752 -0.3639  0.5399 -1.1572
20052TIP3    H281648   2.151   0.918   5.736 -3.5196 -0.8405  2.0398
20053TIP3   OH281649   2.395   2.251   3.368 -0.3277 -0.6870  0.2019
20053TIP3    H181650   2.385   2.344   3.387  0.9828 -0.3531 -0.6843
20053TIP3    H281651   2.340   2.235   3.291 -0.5851 -0.6573  0.3793
20054TIP3   OH281652   6.555   1.014   3.010  0.5615 -0.1512  0.0044
20054TIP3    H181653   6.529   1.032   3.100 -0.7146  0.2506 -0.4422
20054TIP3    H281654   6.553   1.099   2.967 -0.7553 -0.6341 -0.9029
20055TIP3   OH281655   3.153   0.113   5.292  0.3331 -0.3912  0.3500
20055TIP3    H181656   3.166   0.073   5.378 -0.6995 -0.1581  0.6205
20055TIP3    H281657   3.174   0.043   5.230 -0.6590 -1.1172  0.8153
20056TIP3   OH281658   1.748   0.215   4.825  0.3810 -0.0511 -0.1969
20056TIP3    H181659   1.675   0.272   4.851  0.7679 -1.1363  3.5258
20056TIP3    H281660   1.818   0.276   4.802 -0.8323  0.9701 -1.3329
20057TIP3   OH281661   3.835   1.004   4.610  0.3233  0.0877  0.3512
20057TIP3    H181662   3.875   1.019   4.525  1.4112  1.2909  1.0604
20057TIP3    H281663   3.827   0.909   4.616  3.1117 -0.2134  0.1706
20058TIP3   OH281664   3.851   5.984   5.399 -0.4988  0.5683  0.2335
20058TIP3    H181665   3.887   6.055   5.453 -0.7399  0.4204  0.5914
20058TIP3    H281666   3.833   5.913   5.461 -1.9994  0.8730  0.1631
20059TIP3   OH281667   3.417   2.983   4.909  0.6623  0.0387 -0.3014
20059TIP3    H181668   3.467   3.065   4.910 -0.3881  0.7149 -1.2015
20059TIP3    H281669   3.394   2.970   4.817 -0.4696 -0.4585  0.0354
20060TIP3   OH281670   4.925   4.099   1.918  0.1399 -0.1920  0.3771
20060TIP3    H181671   4.866   4.127   1.848 -0.5185 -0.1441  0.9463
20060TIP3    H281672   4.920   4.169   1.983 -0.8735 -1.2303  1.4292
20061TIP3   OH281673   5.345   2.232   5.994 -0.5911 -0.2311 -0.3692
20061TIP3    H181674   5.357   2.318   6.032  0.2008  0.0055 -1.1331
20061TIP3    H281675   5.304   2.248   5.909  2.2422 -0.3422 -1.8355
20062TIP3   OH281676   4.366   2.532   3.914  0.0105  0.1414 -0.3057
20062TIP3    H181677   4.281   2.564   3.947 -0.1167 -1.4113  0.8993
20062TIP3    H281678   4.419   2.518   3.992  0.5645 -1.1999 -0.9045
20063TIP3   OH281679   5.912   2.709   5.053  0.5539  0.1123  0.1286
20063TIP3    H181680   5.940   2.717   5.145  0.5474  0.1807  0.1244
20063TIP3    H281681   5.916   2.615   5.036  1.7402  0.2127 -0.1647
20064TIP3   OH281682   3.388   4.508   3.494 -0.0355 -0.0470 -0.5191
20064TIP3    H181683   3.468   4.455   3.495 -1.1201 -1.7673 -1.3804
20064TIP3    H281684   3.386   4.551   3.579  1.3924 -0.6246 -0.1845
20065TIP3   OH281685   5.351   1.399   4.982  0.0585  0.0782 -0.2229
20065TIP3    H181686   5.285   1.460   4.948 -0.8001 -1.7564 -2.0022
20065TIP3    H281687   5.413   1.389   4.910 -0.8495 -2.5683 -0.7017
20066TIP3   OH281688   3.692   5.216   3.168 -0.3541 -0.3310 -0.4419
20066TIP3    H181689   3.687   5.311   3.174 -3.8827 -0.4966  0.6257
20066TIP3    H281690   3.710   5.199   3.076  1.2493  1.3799 -0.4636
20067TIP3   OH281691   5.081   0.913   3.277 -0.3923  0.4770 -0.6521
20067TIP3    H181692   5.030   0.954   3.346  0.1409 -0.5663  0.3840
20067TIP3    H281693   5.089   0.980   3.209 -1.7252  1.1960 -0.1209
20068TIP3   OH281694   6.170   5.591   3.588  0.0565  0.3442 -0.5969
20068TIP3    H181695   6.116   5.516   3.562  0.8460 -0.8223  1.0442
20068TIP3    H281696   6.178   5.644   3.508 -0.6157 -1.2508 -1.7495
20069TIP3   OH281697   1.188   1.157   5.888  0.7934  0.4698 -0.0344
20069TIP3    H181698   1.264   1.137   5.943  1.1167  0.8216 -0.3587
20069TIP3    H281699   1.225   1.178   5.802  0.1157 -3.6140 -1.4300
20070TIP3   OH281700   2.150   1.194   5.300 -0.0272  0.1369 -0.0232
20070TIP3    H181701   2.217   1.182   5.367  0.1938 -1.0524 -0.4364
20070TIP3    H281702   2.068   1.205   5.348 -0.0084 -1.6216  0.4376
20071TIP3   OH281703   5.221   2.278   4.288  0.2610 -0.9171 -0.4221
20071TIP3    H181704   5.128   2.301   4.282  0.3194 -0.4849  0.3228
20071TIP3    H281705   5.232   2.244   4.377  1.3149  1.2176  0.2826
20072TIP3   OH281706   5.834   2.289   5.707  0.2129 -0.2700  0.4956
20072TIP3    H181707   5.802   2.210   5.665 -3.3083  1.5061 -0.2934
20072TIP3    H281708   5.841   2.266   5.800 -0.7333 -1.4928  0.2622
20073TIP3   OH281709   6.493   0.985   4.469 -0.0965  0.0956  0.0271
20073TIP3    H181710   6.488   0.955   4.378  1.5546  1.0258 -0.4078
20073TIP3    H281711   6.501   1.081   4.462  0.3648  0.1427  1.1154
20074TIP3   OH281712   4.349   5.699   4.467  0.0985 -0.7225  0.2247
20074TIP3    H181713   4.277   5.733   4.520  0.8579  0.9023  0.2288
20074TIP3    H281714   4.399   5.776   4.442  1.7792 -1.8243  0.1100
20075TIP3   OH281715   6.955   2.182   5.999  0.5488  0.0112 -0.2637
20075TIP3    H181716   6.959   2.142   6.086  1.5945  0.5232 -0.0708
20075TIP3    H281717   7.038   2.158   5.958 -0.3398 -1.0523 -1.4976
20076TIP3   OH281718   5.902   5.753   3.641 -0.0207 -0.1310  0.3622
20076TIP3    H181719   5.969   5.786   3.701  1.2974 -0.2325 -1.0143
20076TIP3    H281720   5.904   5.658   3.654 -0.2008 -0.0978  0.6326
20077TIP3   OH281721   6.864   0.825   4.792 -0.6124  0.5883 -0.2449
20077TIP3    H181722   6.909   0.910   4.787  1.2548 -0.3108  0.5264
20077TIP3    H281723   6.935   0.761   4.791 -1.8871 -0.8865  1.4266
20078TIP3   OH281724   5.428   6.581   4.571  0.4455  0.2326 -0.1716
20078TIP3    H181725   5.412   6.589   4.665  1.6016 -0.9269  0.1302
20078TIP3    H281726   5.470   6.664   4.547 -1.0114  1.0554  0.0770
20079TIP3   OH281727   6.890   0.984   5.922  0.0672 -0.3853 -0.6161
20079TIP3    H181728   6.980   0.957   5.942  0.0527  0.2985  0.4206
20079TIP3    H281729   6.899   1.070   5.881 -0.0567 -0.7403 -1.3925
20080TIP3   OH281730   2.151   6.137   4.475  0.0900  0.1829 -0.2002
20080TIP3    H181731   2.125   6.229   4.480 -2.7120 -0.4957 -1.1712
20080TIP3    H281732   2.132   6.111   4.385 -1.7927 -2.0334  0.7866
20081TIP3   OH281733   0.276   2.818   3.827  0.4348  0.1419 -0.1858
20081TIP3    H181734   0.244   2.906   3.845  1.3101  0.2514  0.8795
20081TIP3    H281735   0.306   2.786   3.912 -0.4465 -1.4203 -0.4424
20082TIP3   OH281736   6.727   1.838   4.306 -0.5421  0.1704  0.1769
20082TIP3    H181737   6.707   1.928   4.334 -1.3237 -0.0639  0.3939
20082TIP3    H281738   6.772   1.849   4.222  0.4451  0.8123  0.7794
20083TIP3   OH281739   1.376   1.628   5.011 -0.3910 -0.0805  0.0849
20083TIP3    H181740   1.468   1.656   5.014 -0.9854  2.4234 -2.4520
20083TIP3    H281741   1.329   1.698   5.056 -1.1990 -0.5253 -0.0704
20084TIP3   OH281742   0.629   6.741   3.958  0.7336  0.0753  0.5018
20084TIP3    H181743   0.688   6.670   3.933 -1.4347 -0.8401 -2.3097
20084TIP3    H281744   0.638   6.806   3.889 -0.5171  0.5477  0.7561
20085TIP3   OH281745   1.567   2.921   6.312 -0.3722 -0.2470  0.4401
20085TIP3    H181746   1.545   3.010   6.283  1.5647  0.0884 -0.1024
20085TIP3    H281747   1.609   2.881   6.235  4.6362  0.5601  2.5612
20086TIP3   OH281748   0.626   2.546   6.026 -0.6159 -0.2948  0.4726
20086TIP3    H181749   0.706   2.497   6.010 -0.3441  0.0130  0.8752
20086TIP3    H281750   0.645   2.635   5.995 -1.1620 -0.4799 -0.4048
20087TIP3   OH281751   2.222   5.426   4.876  0.2229  0.7388  0.4325
20087TIP3    H181752   2.215   5.364   4.948 -0.3707  0.3256  0.0232
20087TIP3    H281753   2.313   5.420   4.847  0.3293  0.5360  0.8186
20088TIP3   OH281754   6.775   2.512   4.712 -0.1528  0.5167 -0.5417
20088TIP3    H181755   6.867   2.507   4.684 -0.7404  0.1925 -2.5365
20088TIP3    H281756   6.759   2.429   4.756  1.1118  1.4818  1.8084
20089TIP3   OH281757   1.822   4.202   5.521  0.1322 -0.1124  0.6263
20089TIP3    H181758   1.779   4.244   5.596 -0.3293 -1.3508  1.0648
20089TIP3    H281759   1.781   4.116   5.515  0.3981 -0.1479 -0.8568
20090TIP3   OH281760   0.940   3.551   6.056 -0.8977 -0.1490 -0.1452
20090TIP3    H181761   0.905   3.529   6.143 -0.5922 -0.2423 -0.0452
20090TIP3    H281762   1.035   3.544   6.066 -0.8467  0.1807 -0.3970
20091TIP3   OH281763   0.082   3.590   5.384  0.0770  0.1611 -0.4043
20091TIP3    H181764   0.045   3.548   5.461  1.3287  0.9468  0.6500
20091TIP3    H281765   0.006   3.621   5.335 -0.7282 -0.2759  0.5513
20092TIP3   OH281766   6.512   5.136   5.187  0.2453  0.2210  0.7274
20092TIP3    H181767   6.488   5.061   5.132  2.4608  0.2697 -0.3248
20092TIP3    H281768   6.430   5.158   5.232 -0.7816 -1.9513  0.0224
20093TIP3   OH281769   5.484   1.031   3.361  0.5854 -0.0933  0.7380
20093TIP3    H181770   5.441   1.094   3.303  0.8601 -1.5559 -1.0858
20093TIP3    H281771   5.528   1.085   3.427 -0.4923  1.5566  0.1386
20094TIP3   OH281772   2.593   1.231   5.640 -0.0593 -0.4951  0.4331
20094TIP3    H181773   2.657   1.162   5.657  0.3629  0.1424  1.4654
20094TIP3    H281774   2.563   1.257   5.726 -1.1258 -0.2288 -0.0159
20095TIP3   OH281775   5.922   3.203   4.510  0.1511 -0.4502 -0.1770
20095TIP3    H181776   5.929   3.119   4.556 -1.6166 -1.0779 -1.0162
20095TIP3    H281777   5.844   3.194   4.456  1.0823  1.0104 -1.8097
20096TIP3   OH281778   4.503   4.046   5.915  0.8703  0.4973  0.0876
20096TIP3    H181779   4.474   4.129   5.875  2.1243  0.5382 -0.7591
20096TIP3    H281780   4.504   4.064   6.009 -1.7495  0.5254  0.1654
20097TIP3   OH281781   5.032   6.382   2.290 -0.5788 -0.5539 -0.2798
20097TIP3    H181782   5.066   6.312   2.345  1.3402  0.2105 -0.4469
20097TIP3    H281783   4.969   6.428   2.346 -1.1307 -1.8053  0.1446
20098TIP3   OH281784   2.658   3.183   6.179 -0.5380  0.1313  0.1483
20098TIP3    H181785   2.689   3.098   6.148 -3.3684 -0.5798 -0.9236
20098TIP3    H281786   2.592   3.162   6.245 -0.1037  1.5365  1.0542
20099TIP3   OH281787   2.439   1.079   2.084 -0.0412 -0.4839  0.0340
20099TIP3    H181788   2.525   1.122   2.076 -0.0073 -0.7912 -1.4031
20099TIP3    H281789   2.376   1.146   2.057 -0.1441 -0.7187 -0.3040
20100TIP3   OH281790   6.678   6.138   4.584  0.0068  0.6211 -0.6697
20100TIP3    H181791   6.740   6.098   4.645 -1.0957  1.1610  0.8225
20100TIP3    H281792   6.731   6.200   4.534  0.6610  1.2137  0.7173
20101TIP3   OH281793   3.588   1.498   4.844 -0.0995  0.3316  0.2846
20101TIP3    H181794   3.638   1.524   4.767 -0.4126  0.0610 -0.0123
20101TIP3    H281795   3.545   1.416   4.818  0.5546 -0.2603  1.0747
20102TIP3   OH281796   1.003   0.095   3.273  0.4139 -0.5138 -0.0465
20102TIP3    H181797   0.915   0.122   3.247  1.5931  0.4953 -3.2343
20102TIP3    H281798   1.031   0.036   3.203  3.0522  0.8599 -0.1827
20103TIP3   OH281799   2.303   2.419   3.809  0.1489  0.0085  0.0104
20103TIP3    H181800   2.355   2.478   3.753  0.8351 -1.0453 -0.4865
20103TIP3    H281801   2.337   2.332   3.789 -1.9415 -0.7245 -0.4383
20104TIP3   OH281802   1.682   2.592   5.663  0.1595 -0.0930  0.8843
20104TIP3    H181803   1.654   2.636   5.744 -2.9066 -1.6207  0.7438
20104TIP3    H281804   1.668   2.499   5.680 -1.6732 -0.3617 -1.7848
20105TIP3   OH281805   4.285   3.833   4.643  0.0949  0.2604 -0.3025
20105TIP3    H181806   4.230   3.837   4.565 -1.0287  0.8241  0.5050
20105TIP3    H281807   4.368   3.796   4.612 -0.4597  0.1440 -1.6855
20106TIP3   OH281808   3.953   4.329   1.230  0.1331 -0.0303 -0.0363
20106TIP3    H181809   3.901   4.340   1.150  0.6202  1.4128 -0.1693
20106TIP3    H281810   3.975   4.418   1.257  1.4101 -0.5761  0.7691
20107TIP3   OH281811   3.177   6.954   2.329  0.3027 -0.1906  0.3057
20107TIP3    H181812   3.230   6.900   2.270 -0.8630  0.8782 -1.7772
20107TIP3    H281813   3.198   6.922   2.417  3.4156 -0.6305 -0.5454
20108TIP3   OH281814   0.961   6.576   5.376  0.6374 -0.1167  0.2244
20108TIP3    H181815   0.960   6.520   5.299  1.4497 -0.6974  0.6281
20108TIP3    H281816   0.914   6.526   5.443  2.0301 -0.6524  0.8100
20109TIP3   OH281817   4.829   2.541   4.822  0.1693 -0.4749 -0.0853
20109TIP3    H181818   4.894   2.572   4.885  0.3764 -2.3330  0.6299
20109TIP3    H281819   4.745   2.552   4.867 -0.0743  2.0875 -1.0740
20110TIP3   OH281820   4.864   2.705   5.289  0.1343  0.4957  0.2888
20110TIP3    H181821   4.883   2.704   5.383 -0.2180 -1.2279  0.3553
20110TIP3    H281822   4.791   2.644   5.278  0.1231  0.7298 -1.1065
20111TIP3   OH281823   2.191   4.707   4.304 -0.5169  0.4313  0.2000
20111TIP3    H181824   2.269   4.691   4.252 -0.6364  0.2732  0.0679
20111TIP3    H281825   2.125   4.737   4.241 -0.7578 -0.0801  0.2049
20112TIP3   OH281826   2.509   2.060   2.743  0.5203 -0.1744  0.1686
20112TIP3    H181827   2.591   2.017   2.720 -0.4830 -1.3738 -1.3462
20112TIP3    H281828   2.534   2.132   2.800  2.5460 -0.9487  0.2919
20113TIP3   OH281829   4.804   1.730   3.498 -0.9281 -0.0559  0.2878
20113TIP3    H181830   4.791   1.759   3.408 -1.0808 -0.7655  0.0808
20113TIP3    H281831   4.877   1.784   3.530 -0.5231 -0.1711 -0.4246
20114TIP3   OH281832   4.306   1.788   3.217 -0.4307  0.2070  0.1211
20114TIP3    H181833   4.318   1.694   3.205 -0.0958  0.3949 -1.1356
20114TIP3    H281834   4.356   1.828   3.146  0.3151  1.3741  1.2799
20115TIP3   OH281835   6.049   0.701   3.480 -0.1993  0.0415  0.7775
20115TIP3    H181836   6.078   0.741   3.398 -2.3652  1.2021  0.5278
20115TIP3    H281837   6.112   0.731   3.545  0.6720  0.3453 -0.1912
20116TIP3   OH281838   5.867   3.866   4.772  0.5698 -0.5345 -0.3240
20116TIP3    H181839   5.927   3.917   4.826 -0.3500  0.3137 -0.0975
20116TIP3    H281840   5.839   3.794   4.828  0.8797 -0.5719 -0.2186
20117TIP3   OH281841   6.823   6.957   0.895  0.5834 -0.6913 -0.0793
20117TIP3    H181842   6.815   6.965   0.800  1.0194 -0.7422 -0.1215
20117TIP3    H281843   6.776   6.877   0.916  1.8884 -1.5695 -0.4525
20118TIP3   OH281844   3.282   1.408   2.710  0.0252  0.3286 -0.2737
20118TIP3    H181845   3.188   1.422   2.695 -0.2188 -0.1549  0.8029
20118TIP3    H281846   3.323   1.436   2.628 -0.7969  3.3664  0.2761
20119TIP3   OH281847   4.039   0.562   5.465 -0.5841 -0.3061  0.2774
20119TIP3    H181848   4.029   0.655   5.484  0.3931  0.4963 -2.7978
20119TIP3    H281849   3.949   0.529   5.464 -0.9950  0.7570  0.6566
20120TIP3   OH281850   4.928   2.564   5.747 -0.3255 -0.4655  0.0210
20120TIP3    H181851   4.980   2.560   5.827 -1.1289  1.1433  0.6601
20120TIP3    H281852   4.861   2.495   5.759  0.4469 -1.2120  0.0687
20121TIP3   OH281853   2.562   5.527   3.186  0.1480 -0.1526 -0.4089
20121TIP3    H181854   2.503   5.590   3.142  1.1444  1.0651 -0.0315
20121TIP3    H281855   2.634   5.581   3.218  0.8177 -1.4538  0.2859
20122TIP3   OH281856   5.516   1.307   4.488  0.6229 -0.2913 -0.2899
20122TIP3    H181857   5.600   1.259   4.488 -0.2324 -1.8757  1.3605
20122TIP3    H281858   5.498   1.324   4.396  2.9215  0.3407 -0.6473
20123TIP3   OH281859   0.882   6.234   5.558  0.1092 -0.1385  0.4110
20123TIP3    H181860   0.947   6.269   5.618 -1.0507 -0.9432  2.1635
20123TIP3    H281861   0.825   6.179   5.612 -2.4936  1.1451 -0.9245
20124TIP3   OH281862   3.327   3.451   5.502 -0.3986  0.5263 -0.1015
20124TIP3    H181863   3.309   3.488   5.588  0.2886  2.0428 -0.5858
20124TIP3    H281864   3.393   3.510   5.464 -1.7440  0.7059 -2.2309
20125TIP3   OH281865   7.085   3.185   5.735 -0.0421 -0.2560 -0.5346
20125TIP3    H181866   7.072   3.097   5.770 -1.4085 -0.3747 -1.2860
20125TIP3    H281867   7.033   3.242   5.792 -0.3814 -0.1464 -0.9477
20126TIP3   OH281868   0.779   2.655   3.930  0.2867  0.0140  0.0866
20126TIP3    H181869   0.750   2.566   3.910  0.7517 -0.3557  1.0200
20126TIP3    H281870   0.712   2.690   3.989 -0.2284  0.5162 -0.7830
20127TIP3   OH281871   0.154   3.857   6.143 -0.1848 -0.5727 -0.1047
20127TIP3    H181872   0.183   3.825   6.057  0.8839 -3.8643  1.3864
20127TIP3    H281873   0.236   3.882   6.187 -0.6756  0.5178  0.2030
20128TIP3   OH281874   6.140   3.295   5.158  0.3591 -0.1179  0.0852
20128TIP3    H181875   6.050   3.288   5.125 -0.6690  0.7279  2.6332
20128TIP3    H281876   6.158   3.389   5.159  0.2877 -0.1176  2.1564
20129TIP3   OH281877   5.939   1.001   3.826 -0.4727 -0.3462 -0.2924
20129TIP3    H181878   5.935   1.084   3.778 -0.7696 -0.6449 -0.7901
20129TIP3    H281879   5.851   0.992   3.864 -0.6096 -0.7069 -0.6988
20130TIP3   OH281880   0.922   7.100   3.596  0.2910 -0.5515 -0.2190
20130TIP3    H181881   0.904   7.074   3.686  1.1312  1.1798  0.4866
20130TIP3    H281882   0.840   7.084   3.549  0.0213 -2.0091  0.7146
20131TIP3   OH281883   3.576   2.174   5.105 -0.3216  0.2506 -0.3567
20131TIP3    H181884   3.617   2.106   5.159 -1.7097 -0.4906 -0.2234
20131TIP3    H281885   3.546   2.239   5.168  0.4836  0.7074 -0.4408
20132TIP3   OH281886   1.555   2.970   4.042  0.2738  0.0903 -0.0265
20132TIP3    H181887   1.585   2.996   3.955  0.6747  2.5883  0.8209
20132TIP3    H281888   1.475   2.919   4.026 -0.1119  1.2114 -1.8162
20133TIP3   OH281889   5.383   1.885   4.054  0.1913  0.0561 -0.2095
20133TIP3    H181890   5.436   1.898   3.975 -0.8130 -0.2953 -0.9522
20133TIP3    H281891   5.408   1.957   4.112  1.9586 -0.4791 -0.2697
20134TIP3   OH281892   6.091   3.348   4.384  0.1427 -0.3245 -0.5873
20134TIP3    H181893   6.067   3.294   4.309 -2.4760  1.3588 -1.0389
20134TIP3    H281894   6.052   3.305   4.459 -1.9758  0.9026 -0.9517
20135TIP3   OH281895   1.091   1.325   3.310 -0.5223  0.8712 -0.1296
20135TIP3    H181896   1.019   1.343   3.250 -1.5096 -0.0496  0.7373
20135TIP3    H281897   1.155   1.277   3.258 -0.6261  1.5018 -0.8491
20136TIP3   OH281898   5.645   1.772   3.864  0.4153  0.4329  0.4410
20136TIP3    H181899   5.553   1.768   3.838  0.2314  1.7001  0.8690
20136TIP3    H281900   5.661   1.688   3.906 -0.1750 -0.3351 -0.8430
20137TIP3   OH281901   3.275   1.764   4.886  0.1845 -0.2648  0.2919
20137TIP3    H181902   3.318   1.840   4.926  0.3707  0.4361 -1.1894
20137TIP3    H281903   3.269   1.700   4.957  2.1931  0.2429  0.9718
20138TIP3   OH281904   0.889   3.205   4.228  0.2791  0.5780 -0.3713
20138TIP3    H181905   0.816   3.239   4.176 -0.7680  0.3829  0.9419
20138TIP3    H281906   0.862   3.117   4.252  0.0696  1.1833  1.7386
20139TIP3   OH281907   0.063   4.097   5.891  0.0316 -0.5535  1.1304
20139TIP3    H181908  -0.026   4.076   5.919  0.2649 -1.1561  1.4386
20139TIP3    H281909   0.085   4.028   5.829 -0.7256  1.1469 -1.0710
20140TIP3   OH281910   6.079   3.061   5.949  0.3709 -0.3671  0.0005
20140TIP3    H181911   6.036   2.977   5.933 -1.0299  0.3381 -0.0391
20140TIP3    H281912   6.111   3.055   6.039 -1.6229 -0.1606  0.7441
20141TIP3   OH281913   6.579   4.758   5.285  0.1460 -0.6140  0.3442
20141TIP3    H181914   6.645   4.714   5.338 -0.0093 -0.0906  0.9977
20141TIP3    H281915   6.605   4.743   5.195  2.9541  2.2137  0.5752
20142TIP3   OH281916   2.896   3.504   3.837 -0.0506  0.2517 -0.5422
20142TIP3    H181917   2.840   3.448   3.782 -0.7581  0.4369 -0.0266
20142TIP3    H281918   2.843   3.583   3.851  0.6115  0.6994 -0.5856
20143TIP3   OH281919   7.152   6.002   4.725 -0.1403  0.0962 -0.0458
20143TIP3    H181920   7.244   6.005   4.700  0.7021  1.4424  3.0002
20143TIP3    H281921   7.111   6.073   4.677  0.4752 -0.2843 -1.1394
20144TIP3   OH281922   6.831   2.984   5.874 -0.5973 -0.4680 -0.0177
20144TIP3    H181923   6.921   2.954   5.884 -1.4217 -3.0689 -0.1141
20144TIP3    H281924   6.828   3.068   5.920  1.7270 -0.6355  0.4563
20145TIP3   OH281925   5.063   4.478   2.553 -0.0987  0.0824 -0.3167
20145TIP3    H181926   5.052   4.392   2.513  0.8435  0.1389 -0.7020
20145TIP3    H281927   4.980   4.523   2.537  0.1681  0.0060 -1.9422
20146TIP3   OH281928   4.448   4.722   3.592 -0.0001 -0.6265  0.1227
20146TIP3    H181929   4.399   4.757   3.667  2.1320  0.0973  1.1976
20146TIP3    H281930   4.524   4.779   3.584  0.1499 -1.1155 -2.1931
20147TIP3   OH281931   0.627   2.396   5.482 -0.8245  0.1129 -0.1983
20147TIP3    H181932   0.676   2.338   5.540 -0.7069 -0.7948 -1.1858
20147TIP3    H281933   0.559   2.435   5.538 -0.2853 -0.2282  0.6918
20148TIP3   OH281934   6.324   5.522   5.249  0.3261  0.6720  0.1658
20148TIP3    H181935   6.394   5.545   5.310  0.2442  3.2273 -0.6726
20148TIP3    H281936   6.361   5.540   5.162 -1.0059  1.0648 -0.3305
20149TIP3   OH281937   0.434   2.772   3.575  0.7722  0.8193  0.5222
20149TIP3    H181938   0.370   2.748   3.642  1.8550 -0.1596  1.2275
20149TIP3    H281939   0.390   2.756   3.492  0.5777 -1.2023  0.9915
20150TIP3   OH281940   2.918   7.112   5.998  0.1246  0.5554 -0.6210
20150TIP3    H181941   3.006   7.078   5.982  0.4013  1.1925 -0.4515
20150TIP3    H281942   2.870   7.037   6.034  1.1121  0.7014  1.0494
20151TIP3   OH281943   1.754   6.705   5.040 -0.0710  0.5444 -0.5011
20151TIP3    H181944   1.698   6.676   5.112 -0.9728 -1.5033 -1.9666
20151TIP3    H281945   1.836   6.656   5.053 -0.1739  0.3009 -0.7630
20152TIP3   OH281946   5.024   6.065   3.341 -0.1469  0.1413 -0.2088
20152TIP3    H181947   5.088   6.017   3.393  0.7047  1.2995 -0.1686
20152TIP3    H281948   4.940   6.044   3.381  0.2289 -1.1314 -0.0563
20153TIP3   OH281949   6.164   3.200   6.163  0.0689 -0.3199  0.2525
20153TIP3    H181950   6.077   3.212   6.202 -0.7924  0.1263 -1.7165
20153TIP3    H281951   6.196   3.289   6.150  0.7646 -0.4831  0.8297
20154TIP3   OH281952   0.482   2.743   2.421  0.4060 -0.0778 -0.0840
20154TIP3    H181953   0.482   2.835   2.450 -0.5503 -0.0918 -0.0267
20154TIP3    H281954   0.440   2.695   2.492  0.8443 -0.5473 -0.1432
20155TIP3   OH281955   1.966   3.824   3.280  0.5650 -0.1643 -0.8620
20155TIP3    H181956   2.003   3.766   3.213 -0.6986 -2.4199  0.2987
20155TIP3    H281957   1.900   3.770   3.323 -0.3235  2.0384  0.6009
20156TIP3   OH281958   5.580   4.237   5.219 -0.6966  0.0268  0.0024
20156TIP3    H181959   5.598   4.322   5.178  0.4300 -0.5499 -0.7190
20156TIP3    H281960   5.488   4.219   5.198  0.3119 -1.0929 -3.8528
20157TIP3   OH281961   6.258   4.328   5.111 -0.1147  0.0559  0.0912
20157TIP3    H181962   6.210   4.402   5.149 -0.8503 -0.2609 -0.2210
20157TIP3    H281963   6.200   4.293   5.045  0.1446 -0.9535  0.3921
20158TIP3   OH281964   3.398   1.825   3.920  0.1528 -0.1392 -0.1047
20158TIP3    H181965   3.352   1.864   3.995 -0.7339  0.5085 -0.9634
20158TIP3    H281966   3.485   1.863   3.924 -0.0910  0.4053  0.2167
20159TIP3   OH281967   2.398   5.785   4.395 -0.0520  0.2189  0.2309
20159TIP3    H181968   2.318   5.740   4.370  0.4033 -1.6217  1.9770
20159TIP3    H281969   2.369   5.861   4.446 -0.8395  2.2059 -3.0525
20160TIP3   OH281970   1.335   5.314   5.849 -0.0791  0.3997 -0.2624
20160TIP3    H181971   1.240   5.301   5.847  0.0362 -0.6484  0.6187
20160TIP3    H281972   1.346   5.409   5.855 -1.0839  0.5087  0.0104
20161TIP3   OH281973   6.679   1.589   4.086  0.2435 -0.0406 -0.2164
20161TIP3    H181974   6.775   1.596   4.088  0.2750 -0.1391 -1.2912
20161TIP3    H281975   6.659   1.555   3.999 -0.8368  1.1211 -0.4469
20162TIP3   OH281976   0.097   2.120   4.557  0.3037 -0.3226  0.0789
20162TIP3    H181977   0.171   2.125   4.497 -0.1605  0.3246 -0.4380
20162TIP3    H281978   0.129   2.160   4.638  0.1547  0.9520 -0.4979
20163TIP3   OH281979   6.489   6.412   3.566  0.2749 -0.0659  0.7030
20163TIP3    H181980   6.480   6.391   3.659 -0.5477 -1.1008  0.4044
20163TIP3    H281981   6.559   6.356   3.535 -0.8260 -1.2212  0.2612
20164TIP3   OH281982   0.276   6.116   5.110 -0.0252 -0.2113  0.3523
20164TIP3    H181983   0.372   6.117   5.109 -0.0236  1.1730  1.1002
20164TIP3    H281984   0.254   6.108   5.203 -0.6416 -2.1147  0.0660
20165TIP3   OH281985   2.205   3.583   3.817 -0.1239 -0.3544  0.6113
20165TIP3    H181986   2.257   3.508   3.848 -0.0763 -0.1763  0.9669
20165TIP3    H281987   2.157   3.612   3.895 -1.0278 -0.7412  0.1998
20166TIP3   OH281988   2.281   5.204   6.303  0.0026  0.5366 -0.2006
20166TIP3    H181989   2.271   5.294   6.271  0.7757  0.3522 -0.9993
20166TIP3    H281990   2.370   5.202   6.339  1.1195 -0.6951 -2.8917
20167TIP3   OH281991   2.603   4.335   1.869  0.1924  0.0398 -0.1990
20167TIP3    H181992   2.610   4.395   1.794 -0.4939 -0.2437 -0.5018
20167TIP3    H281993   2.591   4.249   1.829  1.7536 -0.3898  0.2289
20168TIP3   OH281994   6.897   5.298   5.370  0.4607  0.2079  0.1718
20168TIP3    H181995   6.930   5.342   5.448 -0.5866  0.1720  0.6466
20168TIP3    H281996   6.827   5.356   5.337 -0.2302 -0.5917  0.2181
20169TIP3   OH281997   6.658   5.454   1.969 -0.2801  0.2345 -0.5299
20169TIP3    H181998   6.599   5.524   1.998 -0.5318 -0.1465 -0.1038
20169TIP3    H281999   6.600   5.392   1.925 -0.2156 -0.1739 -0.0510
20170TIP3   OH282000   0.013   6.018   3.477 -0.7003 -0.1616 -0.1680
20170TIP3    H182001   0.024   5.956   3.549  1.0480 -0.5123 -0.7152
20170TIP3    H282002  -0.038   5.970   3.412  0.0665 -0.8116 -0.3031
20171TIP3   OH282003   6.309   2.831   4.298  0.0983  0.1016  0.0295
20171TIP3    H182004   6.252   2.859   4.370 -0.2445 -1.5071  0.3897
20171TIP3    H282005   6.252   2.829   4.222 -0.1677 -0.8364  0.2530
20172TIP3   OH282006   2.209   3.246   3.424 -0.4203 -0.7060 -0.8079
20172TIP3    H182007   2.148   3.307   3.465 -0.8840 -0.5448 -1.7217
20172TIP3    H282008   2.292   3.294   3.420 -0.1145 -1.0863  0.8374
20173TIP3   OH282009   5.214   3.973   5.181  0.1378  0.3486  0.0247
20173TIP3    H182010   5.219   3.902   5.245 -0.6628 -0.6860 -1.0391
20173TIP3    H282011   5.244   3.934   5.099 -2.0239  0.7266 -0.9809
20174TIP3   OH282012   3.635   4.141  15.372 -0.0536  0.4373  0.2556
20174TIP3    H182013   3.675   4.102  15.449 -0.1398 -0.6756 -0.2501
20174TIP3    H282014   3.584   4.215  15.406 -0.0818 -0.0344  1.2578
20175TIP3   OH282015   3.556   5.505   5.049 -0.4047  0.8043 -0.0679
20175TIP3    H182016   3.628   5.518   4.987  0.9231  1.0751  1.5168
20175TIP3    H282017   3.477   5.507   4.994  0.8472 -0.8462 -2.0225
20176TIP3   OH282018   3.718   5.492   5.816 -0.1891  0.3733  0.0141
20176TIP3    H182019   3.736   5.587   5.815 -0.1144  0.3690  0.7917
20176TIP3    H282020   3.768   5.458   5.741 -0.6105  1.0169 -0.5630
20177TIP3   OH282021   2.451   2.694   5.204 -0.0216 -0.1128 -0.4039
20177TIP3    H182022   2.407   2.610   5.204  1.6916 -1.0363  0.3085
20177TIP3    H282023   2.544   2.673   5.209  0.6043  1.7509 -2.6622
20178TIP3   OH282024   4.110   2.071   4.689  0.1906  0.1362 -0.2805
20178TIP3    H182025   4.163   2.143   4.654  2.5681 -0.8632  1.0908
20178TIP3    H282026   4.131   2.070   4.783 -0.0425 -2.1325 -0.2301
20179TIP3   OH282027   3.182   4.812   3.560  0.0523 -0.5145  0.0846
20179TIP3    H182028   3.157   4.862   3.482 -0.0227  1.3452  1.2587
20179TIP3    H282029   3.112   4.748   3.571  0.1186 -0.8691 -1.4287
20180TIP3   OH282030   4.545   5.432   5.306  0.1875  0.1599  0.0437
20180TIP3    H182031   4.516   5.415   5.396  1.0579 -0.6764  0.1686
20180TIP3    H282032   4.626   5.482   5.317 -0.4946  1.3607 -0.2951
20181TIP3   OH282033   3.402   5.555   5.603  0.0710 -0.4259  0.3855
20181TIP3    H182034   3.421   5.642   5.639  0.6351 -0.3529 -0.0858
20181TIP3    H282035   3.432   5.494   5.671 -0.7884 -0.2499  0.9359
20182TIP3   OH282036   3.723   0.720   3.067  0.1683  0.4068  0.2713
20182TIP3    H182037   3.640   0.750   3.104 -0.5772 -0.2383 -0.8457
20182TIP3    H282038   3.700   0.687   2.980  1.4805 -0.4247  0.2209
20183TIP3   OH282039   5.457   5.740   4.517  0.0893 -0.5003 -0.5775
20183TIP3    H182040   5.407   5.778   4.444  1.9981 -0.0874 -1.6962
20183TIP3    H282041   5.451   5.806   4.586 -1.1820 -0.6027 -0.5650
20184TIP3   OH282042   2.601   5.102   4.505 -0.2997  0.4425 -0.4710
20184TIP3    H182043   2.526   5.049   4.532  2.0849 -3.4228 -1.0499
20184TIP3    H282044   2.574   5.142   4.422 -2.3428  0.5961  0.2550
20185TIP3   OH282045   2.451   1.406   1.548 -0.5044 -0.4589 -0.5132
20185TIP3    H182046   2.402   1.464   1.489  1.0903 -0.3392 -1.7439
20185TIP3    H282047   2.513   1.464   1.592  0.6095 -1.1035 -1.2183
20186TIP3   OH282048   2.805   4.216   6.001 -0.5618  0.0591  0.0816
20186TIP3    H182049   2.765   4.182   5.921 -0.4409  0.9939 -0.3806
20186TIP3    H282050   2.897   4.191   5.995 -1.1090 -2.5693  1.3963
20187TIP3   OH282051   1.751   3.848   3.029 -0.0147  0.1106 -0.8385
20187TIP3    H182052   1.707   3.916   2.979 -0.4468  0.0308 -0.5742
20187TIP3    H282053   1.751   3.882   3.119  0.9194  0.3389 -0.9203
20188TIP3   OH282054   1.872   6.740   4.266 -0.5661  0.0286  0.1655
20188TIP3    H182055   1.893   6.834   4.265 -0.8602  0.1440  2.8133
20188TIP3    H282056   1.783   6.735   4.300  0.0591 -1.2922  1.6958
20189TIP3   OH282057   3.006   5.470   0.831 -0.5804 -0.2057 -0.5510
20189TIP3    H182058   3.030   5.448   0.741  0.0601 -2.0073  0.0436
20189TIP3    H282059   2.913   5.448   0.837 -0.7043  0.2265 -0.8598
20190TIP3   OH282060   6.792   2.184   4.133 -0.5498  0.3779  0.2716
20190TIP3    H182061   6.764   2.165   4.223 -2.0280  0.4083 -0.1710
20190TIP3    H282062   6.836   2.104   4.104 -1.0730 -0.0397  0.6275
20191TIP3   OH282063   1.928   3.506   5.910  0.6048  0.5008  0.8751
20191TIP3    H182064   1.966   3.419   5.901  1.0959  0.9606 -1.8434
20191TIP3    H282065   1.836   3.495   5.887  0.8434  0.8268 -0.2721
20192TIP3   OH282066   5.434   5.226   5.518  0.2394 -0.7242 -0.4216
20192TIP3    H182067   5.379   5.147   5.517  1.8030 -1.8532  0.6157
20192TIP3    H282068   5.511   5.201   5.468  0.7531  0.1483 -0.0579
20193TIP3   OH282069   2.206   3.085   2.789 -0.0274  0.1093  0.3441
20193TIP3    H182070   2.258   3.048   2.860 -0.1806 -1.2880 -0.2465
20193TIP3    H282071   2.125   3.035   2.790  0.6582 -1.1294 -1.8952
20194TIP3   OH282072   3.696   4.438   4.118  0.3683  0.8963  0.1468
20194TIP3    H182073   3.701   4.422   4.212  1.1729  1.6487  0.2369
20194TIP3    H282074   3.616   4.393   4.090 -0.7679  2.0252  1.4745
20195TIP3   OH282075   6.002   2.177   5.436  0.0487 -0.3700 -0.0958
20195TIP3    H182076   5.953   2.107   5.480  0.7940 -1.1129 -0.4421
20195TIP3    H282077   5.935   2.239   5.409 -0.5018 -0.3200  1.3590
20196TIP3   OH282078   6.057   6.364   2.196  0.1375 -0.6529 -0.1595
20196TIP3    H182079   6.152   6.364   2.190  0.2095  0.6173  0.6524
20196TIP3    H282080   6.038   6.425   2.268 -1.2628 -1.2677 -0.0020
20197TIP3   OH282081   4.722   5.420   5.047 -1.0211  0.6089 -0.1560
20197TIP3    H182082   4.784   5.415   4.973  0.0329 -0.9963  0.7888
20197TIP3    H282083   4.679   5.334   5.047 -0.8337  0.5097  1.2441
20198TIP3   OH282084   5.811   5.378   2.918  0.8616  0.7616 -0.0523
20198TIP3    H182085   5.718   5.355   2.920  0.7485  1.2198  0.0963
20198TIP3    H282086   5.843   5.342   2.836  0.1809  1.9878 -0.8646
20199TIP3   OH282087   5.042   4.683   6.074  0.3786  0.1716  0.5329
20199TIP3    H182088   5.071   4.630   6.147 -0.9682 -0.0463  0.9194
20199TIP3    H282089   5.054   4.627   5.997  2.8837  0.8061  0.4020
20200TIP3   OH282090   6.240   4.593   3.005 -0.3431 -0.1336  0.6195
20200TIP3    H182091   6.327   4.586   3.044 -0.6518 -0.3281  1.2705
20200TIP3    H282092   6.183   4.544   3.064 -0.9633  0.3164  0.3999
20201TIP3   OH282093   5.020   3.204   2.398  0.1442  0.3852  0.0686
20201TIP3    H182094   5.021   3.168   2.309 -1.6470 -0.9544  0.5625
20201TIP3    H282095   4.950   3.269   2.397  0.8021  1.1050  0.2379
20202TIP3   OH282096   5.011   3.694   4.874 -0.0553  0.5064  0.5247
20202TIP3    H182097   5.053   3.637   4.809 -1.2265  1.1176 -0.7923
20202TIP3    H282098   4.995   3.776   4.828 -2.1853  0.4765  1.1403
20203TIP3   OH282099   2.561   3.823   3.883 -0.6102 -0.1582  0.1378
20203TIP3    H182100   2.578   3.774   3.963 -0.6994 -0.4361 -0.0141
20203TIP3    H282101   2.640   3.811   3.830 -1.0889 -1.0697 -0.3746
20204TIP3   OH282102   6.218   5.281   4.231  0.1958  0.6752 -0.9142
20204TIP3    H182103   6.295   5.338   4.226  0.8077 -0.1181 -0.7119
20204TIP3    H282104   6.240   5.207   4.173  0.3098 -0.3864  0.4583
20205TIP3   OH282105   5.837   5.857   4.617 -0.3260  0.1180 -0.0085
20205TIP3    H182106   5.896   5.803   4.564 -0.9277 -0.0561 -0.5076
20205TIP3    H282107   5.783   5.903   4.553 -2.4015 -1.5894  0.4623
20206TIP3   OH282108   2.561   3.496   4.079 -0.2409 -0.2184  0.0131
20206TIP3    H182109   2.503   3.535   4.145  0.1304  0.4957 -0.0807
20206TIP3    H282110   2.501   3.465   4.010 -0.4633  1.2454 -0.4606
20207TIP3   OH282111   6.287   4.056   6.346  0.2905 -0.1213 -1.0157
20207TIP3    H182112   6.332   3.983   6.389 -0.0117 -0.2086 -0.8474
20207TIP3    H282113   6.357   4.105   6.303  0.5707 -0.1623 -0.6131
20208TIP3   OH282114   5.952   6.959   4.269 -0.6524  0.2869 -0.3331
20208TIP3    H182115   5.941   7.038   4.322 -0.1038  0.1079  0.0522
20208TIP3    H282116   5.928   6.887   4.328  1.9297 -0.0604  0.3304
20209TIP3   OH282117   6.651   2.714   2.488  0.1082  0.1667 -0.3398
20209TIP3    H182118   6.561   2.683   2.478 -0.5200  1.6185  0.6404
20209TIP3    H282119   6.671   2.755   2.403 -2.0874  4.5973  1.1425
20210TIP3   OH282120   4.532   3.965   4.853  0.3113 -0.2467 -0.5064
20210TIP3    H182121   4.533   3.876   4.888  0.1048 -0.2686 -0.5523
20210TIP3    H282122   4.440   3.992   4.859  0.1733 -0.4593 -1.5419
20211TIP3   OH282123   1.584   5.169   3.671 -0.7734  0.1504  0.6398
20211TIP3    H182124   1.591   5.144   3.763 -0.7309 -0.8539  0.3622
20211TIP3    H282125   1.667   5.212   3.652 -0.9141  0.6677  1.1595
20212TIP3   OH282126   2.398   0.053   3.007 -0.8174 -0.3856 -0.1878
20212TIP3    H182127   2.310   0.025   3.032 -1.3566  2.0173  0.7241
20212TIP3    H282128   2.456  -0.011   3.049 -2.0492 -0.8840  0.7890
20213TIP3   OH282129   5.314   5.075   4.660 -0.1903 -0.2828 -0.4546
20213TIP3    H182130   5.342   5.122   4.739 -1.5002 -0.5670  0.1920
20213TIP3    H282131   5.225   5.047   4.680 -0.1251 -1.3214 -1.6115
20214TIP3   OH282132   7.177   5.578   4.245  0.5078  0.3028  0.6402
20214TIP3    H182133   7.237   5.651   4.231  1.4967 -0.4399  1.0139
20214TIP3    H282134   7.109   5.614   4.301  0.6850  1.1004  0.3506
20215TIP3   OH282135   5.621   4.480   5.537 -0.2118  0.0185  0.1073
20215TIP3    H182136   5.614   4.443   5.625  0.4063  0.8758  0.5278
20215TIP3    H282137   5.702   4.442   5.502 -1.2851 -1.5902 -0.7253
20216TIP3   OH282138   5.592   5.643   3.849  0.1605  0.0350 -0.4797
20216TIP3    H182139   5.663   5.697   3.816  0.7906 -1.2703 -1.2962
20216TIP3    H282140   5.537   5.625   3.772 -1.5634  1.7432  0.2916
20217TIP3   OH282141   5.333   4.203   5.104  0.5506  0.1193  0.3319
20217TIP3    H182142   5.330   4.222   5.011  1.2323 -1.2887  0.0035
20217TIP3    H282143   5.266   4.136   5.118  1.8363 -1.1652  0.4622
20218TIP3   OH282144   6.913   5.868   5.882 -0.3192  0.3480 -0.3419
20218TIP3    H182145   6.931   5.786   5.928  0.3180  2.9793  4.3465
20218TIP3    H282146   6.839   5.847   5.825 -1.9714 -2.7741  2.7641
20219TIP3   OH282147   4.031   5.832   3.499 -0.0661 -0.1457  0.2922
20219TIP3    H182148   4.041   5.840   3.404 -2.2740  3.7137  0.2827
20219TIP3    H282149   3.952   5.779   3.511  1.5938 -2.7690  0.0783
20220TIP3   OH282150   0.835   4.566   4.328 -0.1715 -0.0480  0.3886
20220TIP3    H182151   0.765   4.537   4.269  0.2073  2.1164 -1.2149
20220TIP3    H282152   0.797   4.641   4.374  0.9073  0.8140 -0.1171
20221TIP3   OH282153   0.879   5.513   5.320  0.4323 -0.5041  0.3221
20221TIP3    H182154   0.950   5.454   5.343  0.9166 -0.3437 -0.7358
20221TIP3    H282155   0.847   5.546   5.405 -0.3076 -2.7948  0.9546
20222TIP3   OH282156   1.324   2.829   4.007 -0.2181  0.1714 -0.1993
20222TIP3    H182157   1.249   2.852   4.063 -0.2202  0.5660 -0.3603
20222TIP3    H282158   1.291   2.841   3.918  1.0034  3.5057 -0.2513
20223TIP3   OH282159   6.620   0.444   4.681 -0.2055 -0.2933 -0.3791
20223TIP3    H182160   6.643   0.520   4.733  0.9609 -1.5948  1.0619
20223TIP3    H282161   6.702   0.417   4.640 -0.7387 -0.3939 -1.3999
20224TIP3   OH282162   7.112   2.761   4.684 -0.1566  0.0670 -0.3204
20224TIP3    H182163   7.180   2.812   4.640  1.5754 -1.0526  0.9848
20224TIP3    H282164   7.158   2.715   4.754 -2.1824 -1.1011  0.2878
20225TIP3   OH282165   0.698   0.367   4.835  1.0782  0.6809 -0.2509
20225TIP3    H182166   0.761   0.311   4.880 -0.9447  0.2833  2.2301
20225TIP3    H282167   0.615   0.320   4.842  0.3293  1.5812 -2.7164
20226TIP3   OH282168   6.846   5.514   5.902  0.2398  0.6739  0.3127
20226TIP3    H182169   6.820   5.424   5.884  0.7466  0.4844  0.5257
20226TIP3    H282170   6.810   5.565   5.829  1.1701  0.1027 -0.5564
20227TIP3   OH282171   5.231   4.575   4.420  0.1432  0.5806  0.1188
20227TIP3    H182172   5.192   4.517   4.485  1.3301 -0.5742 -0.1906
20227TIP3    H282173   5.311   4.530   4.392  1.1159  2.3900 -0.0787
20228TIP3   OH282174   5.654   0.441   4.251  0.3182 -0.1724  0.3218
20228TIP3    H182175   5.729   0.413   4.304 -0.8461 -1.6482  1.2311
20228TIP3    H282176   5.661   0.388   4.171  0.0772 -0.5211  0.5328
20229TIP3   OH282177   4.769   3.778   4.952 -0.0364  0.1445 -0.1649
20229TIP3    H182178   4.788   3.836   4.879 -0.7635 -1.1444 -1.4147
20229TIP3    H282179   4.847   3.722   4.960 -0.5010 -0.6143 -0.8529
20230TIP3   OH282180   2.680   0.072   3.806 -0.2360  0.0415 -0.2418
20230TIP3    H182181   2.712   0.090   3.718 -0.8313  0.2461 -0.4239
20230TIP3    H282182   2.704   0.149   3.857 -0.9393  0.4551 -0.5187
20231TIP3   OH282183   0.720   6.043   5.683  0.3263  0.7402 -0.7105
20231TIP3    H182184   0.711   5.978   5.753 -0.5749  2.1316  0.4896
20231TIP3    H282185   0.725   5.992   5.603 -0.3895 -0.8080  0.2168
20232TIP3   OH282186   0.781   2.300   4.547  0.4966  0.5450 -0.2632
20232TIP3    H182187   0.808   2.246   4.472  0.6017 -2.6938  1.9826
20232TIP3    H282188   0.693   2.270   4.568  1.7533 -1.1260  3.0029
20233TIP3   OH282189   4.588   4.592   5.000 -0.6694 -0.4419  0.5142
20233TIP3    H182190   4.559   4.523   4.941 -2.4376 -0.5710  1.5040
20233TIP3    H282191   4.667   4.627   4.959 -1.8305 -0.5492 -1.8984
20234TIP3   OH282192   0.781   6.679   5.918  0.3116 -0.3378  0.1413
20234TIP3    H182193   0.728   6.740   5.969 -1.4511 -0.3699 -1.6088
20234TIP3    H282194   0.862   6.670   5.968  0.3966  3.0247  0.6714
20235TIP3   OH282195   1.426   5.131   3.387 -0.1669 -0.0433 -0.2353
20235TIP3    H182196   1.396   5.068   3.321 -0.8485  0.0609 -0.0270
20235TIP3    H282197   1.461   5.077   3.458  0.5520 -0.1578 -0.6770
20236TIP3   OH282198   2.188   4.280   3.135  0.0152  0.2375 -0.4011
20236TIP3    H182199   2.130   4.207   3.117 -0.9393  1.2954 -1.7648
20236TIP3    H282200   2.271   4.240   3.162 -0.1603 -1.3573 -2.1591
20237TIP3   OH282201   1.982   3.066   2.475 -0.0975 -0.3583  0.0654
20237TIP3    H182202   2.060   3.012   2.489  0.1248 -0.5524 -1.7774
20237TIP3    H282203   2.009   3.131   2.410 -1.1066  0.3783  0.3719
20238TIP3   OH282204   0.594   4.404   5.142  0.0512 -0.2721  0.1974
20238TIP3    H182205   0.518   4.445   5.102 -1.3667 -3.1107 -0.1324
20238TIP3    H282206   0.646   4.372   5.068  0.3808 -0.4119  0.4862
20239TIP3   OH282207   2.801   0.961   5.287  0.1086 -0.6824  0.1138
20239TIP3    H182208   2.710   0.950   5.313  0.5630 -2.2980  1.1349
20239TIP3    H282209   2.832   1.036   5.338 -0.4581 -0.6117  0.3520
20240TIP3   OH282210   3.641   1.868   2.675 -0.1279  0.2672  0.4486
20240TIP3    H182211   3.649   1.936   2.608  0.8922 -0.2284  0.0511
20240TIP3    H282212   3.602   1.912   2.750 -0.9746  0.9061 -0.3603
20241TIP3   OH282213   3.992   4.913   4.836 -0.5146  0.1209 -0.3725
20241TIP3    H182214   4.023   4.994   4.877  0.9260 -0.2766 -0.6342
20241TIP3    H282215   3.951   4.864   4.907 -1.3894  1.0683 -0.2091
20242TIP3   OH282216   3.439   6.150   5.438  0.4138  0.2001 -0.1400
20242TIP3    H182217   3.485   6.066   5.449 -0.6035 -0.1701  1.3292
20242TIP3    H282218   3.508   6.211   5.412  1.3143 -0.9000 -0.4013
20243TIP3   OH282219   5.123   0.036   5.641 -0.1863 -0.7449  0.3283
20243TIP3    H182220   5.162   0.086   5.713 -2.6276 -0.1836  1.3142
20243TIP3    H282221   5.179   0.056   5.566  0.3597  1.4785  1.2769
20244TIP3   OH282222   1.315   4.360   5.008  0.0706  0.0219 -0.5194
20244TIP3    H182223   1.345   4.379   4.919  0.5001 -0.1188 -0.4062
20244TIP3    H282224   1.283   4.443   5.041 -1.9441 -0.3293 -1.5119
20245TIP3   OH282225   1.940   0.790   5.556 -0.3104 -0.3943 -0.2712
20245TIP3    H182226   1.974   0.831   5.636 -2.9081  1.1243  0.1315
20245TIP3    H282227   1.953   0.855   5.488  0.4194 -1.0478 -0.7615
20246TIP3   OH282228   0.250   0.705   4.145  0.3490 -0.1702  0.7374
20246TIP3    H182229   0.340   0.715   4.176  0.7315 -0.5670 -0.2137
20246TIP3    H282230   0.255   0.635   4.080 -0.5458  0.1874  0.2707
20247TIP3   OH282231   2.647   5.985   4.554  0.0103 -0.1017 -1.3791
20247TIP3    H182232   2.682   6.041   4.623  0.7677 -0.5546 -1.3858
20247TIP3    H282233   2.559   6.018   4.538 -0.1300  0.0799 -0.2742
20248TIP3   OH282234   4.826   1.476   5.271 -0.1378  0.4973  0.1976
20248TIP3    H182235   4.822   1.559   5.319  0.5334  0.4937  0.2584
20248TIP3    H282236   4.856   1.500   5.184  0.0289  0.3212  0.2063
20249TIP3   OH282237   6.854   6.669   2.144 -0.2489  0.8649 -0.2864
20249TIP3    H182238   6.808   6.691   2.063  1.3807  2.1495 -0.8791
20249TIP3    H282239   6.822   6.732   2.208 -0.2771  0.9311 -0.3653
20250TIP3   OH282240   5.012   0.145   3.628 -0.0247 -0.9323 -0.3924
20250TIP3    H182241   4.963   0.114   3.704  0.8696 -0.8542  0.2237
20250TIP3    H282242   4.945   0.158   3.561 -0.9769  0.0633  0.7144
20251TIP3   OH282243   4.731   6.581   4.907  0.2971  0.1010  0.5222
20251TIP3    H182244   4.763   6.599   4.819  1.0900  1.0123  0.9903
20251TIP3    H282245   4.809   6.555   4.956 -0.2209 -0.8926  0.8282
20252TIP3   OH282246   3.853   6.180   4.828  1.0021  0.2442  0.7270
20252TIP3    H182247   3.866   6.222   4.913 -1.3359  0.0133  1.2189
20252TIP3    H282248   3.791   6.237   4.782 -1.4406 -2.1174  1.0064
20253TIP3   OH282249   4.236   0.009   4.700 -0.1445  0.4692 -0.5267
20253TIP3    H182250   4.253   0.002   4.794 -0.8262 -0.0710 -0.4403
20253TIP3    H282251   4.235   0.104   4.683 -3.8029  0.7293  0.7390
20254TIP3   OH282252   4.891   1.724   4.216 -0.6271 -0.5149 -0.0269
20254TIP3    H182253   4.857   1.758   4.133  0.2571 -0.1794 -0.2612
20254TIP3    H282254   4.985   1.737   4.210 -0.6484  0.5530  1.4885
20255TIP3   OH282255   4.138   0.087   5.591 -0.6210 -0.0740  0.0716
20255TIP3    H182256   4.127   0.176   5.626 -1.3368 -0.8826  1.9887
20255TIP3    H282257   4.203   0.096   5.521  0.5865  1.6827  1.3875
20256TIP3   OH282258   0.359   4.483   5.055 -0.4840 -0.1755 -0.1490
20256TIP3    H182259   0.322   4.402   5.020 -0.6360 -0.1075 -0.1489
20256TIP3    H282260   0.359   4.543   4.981  1.8052 -0.8797 -0.7600
20257TIP3   OH282261   0.383   4.690   4.848  0.5942 -0.3061 -0.3256
20257TIP3    H182262   0.409   4.650   4.766  0.1057 -1.8474  0.2526
20257TIP3    H282263   0.333   4.767   4.822 -0.3218 -1.2703 -1.4836
20258TIP3   OH282264   4.643   6.777   5.492  0.6857  0.1509  0.0653
20258TIP3    H182265   4.733   6.811   5.494  0.4895  0.8950 -2.0297
20258TIP3    H282266   4.589   6.854   5.470 -0.2646 -0.6162 -0.3283
20259TIP3   OH282267   4.768   6.116   5.808  0.6210  0.3713 -0.1850
20259TIP3    H182268   4.738   6.165   5.885  0.2638  0.2178 -0.2273
20259TIP3    H282269   4.728   6.161   5.734 -0.4069 -0.5011 -0.1671
20260TIP3   OH282270   6.402   1.186   3.887  0.7179 -0.0658 -0.2802
20260TIP3    H182271   6.463   1.166   3.957  0.5711 -3.0074 -0.9311
20260TIP3    H282272   6.453   1.239   3.825  2.3726 -1.7276 -0.3822
20261TIP3   OH282273   3.009   0.410   6.389  0.0229  0.0483  0.1972
20261TIP3    H182274   3.044   0.329   6.426  0.3849  0.7856  1.5238
20261TIP3    H282275   2.994   0.466   6.465 -1.2008  0.8554 -0.6122
20262TIP3   OH282276   2.972   4.582   0.501  0.2959  0.7881  0.4055
20262TIP3    H182277   2.978   4.488   0.516 -0.3543  0.6415 -0.2237
20262TIP3    H282278   2.987   4.621   0.588  0.4251  0.1025  0.6928
20263TIP3   OH282279   3.128   3.925   5.197 -0.0529 -0.2344  0.0161
20263TIP3    H182280   3.141   3.972   5.115  0.2838 -0.9924 -0.3715
20263TIP3    H282281   3.185   3.969   5.260 -1.1840  1.0790  0.1309
20264TIP3   OH282282   2.390   5.181   3.696 -0.3339  0.9978  0.9116
20264TIP3    H182283   2.481   5.176   3.665 -0.1879 -0.2120  1.5165
20264TIP3    H282284   2.339   5.199   3.617  0.1951 -0.6766  0.1476
20265TIP3   OH282285   5.891   6.198   5.829 -0.2615 -0.0745  0.3098
20265TIP3    H182286   5.882   6.268   5.894  0.0835 -0.7666  1.1211
20265TIP3    H282287   5.801   6.169   5.813 -0.3485  0.0912  0.4895
20266TIP3   OH282288   2.456   2.210   5.286 -0.4764  0.3180  0.0786
20266TIP3    H182289   2.499   2.174   5.364 -0.1348  1.2797  0.3322
20266TIP3    H282290   2.383   2.150   5.269 -0.3383 -0.0899  0.9219
20267TIP3   OH282291   3.595   5.547   2.189 -0.8304  0.0497 -0.0306
20267TIP3    H182292   3.529   5.552   2.259  0.0449  1.1923  0.7224
20267TIP3    H282293   3.546   5.517   2.113 -2.2887  1.1587  0.4460
20268TIP3   OH282294   1.689   3.292   5.212 -0.1227  0.3792  0.0389
20268TIP3    H182295   1.738   3.214   5.185  0.3022  0.9850 -1.0111
20268TIP3    H282296   1.620   3.259   5.269  2.5901 -0.3322  3.0607
20269TIP3   OH282297   0.024   6.125   1.486  0.1083 -0.4724 -0.2068
20269TIP3    H182298  -0.017   6.119   1.572 -0.3269 -2.8040 -0.5509
20269TIP3    H282299  -0.039   6.085   1.426 -0.5834  3.0472 -2.0228
20270TIP3   OH282300   0.225   0.624   5.676  0.7029 -0.4326 -0.2286
20270TIP3    H182301   0.320   0.630   5.685  0.6728  0.0591 -0.2120
20270TIP3    H282302   0.191   0.662   5.757  0.4905 -0.2459 -0.4021
20271TIP3   OH282303   5.833   5.837   5.894 -0.0517  0.4423 -0.1831
20271TIP3    H182304   5.886   5.837   5.974 -1.9118 -1.6015  1.1072
20271TIP3    H282305   5.865   5.761   5.844 -2.7143 -1.7575  1.3279
20272TIP3   OH282306   2.114   6.363   5.628 -0.1190  0.1616  0.4005
20272TIP3    H182307   2.121   6.455   5.652  1.5212  0.5593 -1.4471
20272TIP3    H282308   2.023   6.351   5.603 -0.2435  1.3904  0.2420
20273TIP3   OH282309   5.162   0.054   4.908 -0.0414  0.1521  0.1692
20273TIP3    H182310   5.118   0.087   4.829  1.8585  2.0563 -0.1497
20273TIP3    H282311   5.246   0.021   4.876  1.0048  1.5025  1.4417
20274TIP3   OH282312   6.989   6.363   2.834 -0.1916  0.8761 -0.0106
20274TIP3    H182313   7.019   6.426   2.767 -1.0015  0.5414 -0.6840
20274TIP3    H282314   7.051   6.291   2.828 -0.3624  0.7737 -0.5036
20275TIP3   OH282315   0.213   6.079   5.388 -0.6726  0.5838  0.1469
20275TIP3    H182316   0.294   6.036   5.417 -2.9766 -3.4334  1.1424
20275TIP3    H282317   0.182   6.125   5.465 -0.1514  0.7781  0.2440
20276TIP3   OH282318   3.566   4.220   3.246 -0.0785 -0.0013 -0.6259
20276TIP3    H182319   3.475   4.239   3.222 -0.7155 -2.4655 -0.2583
20276TIP3    H282320   3.599   4.167   3.174  0.3183 -1.1389  0.3932
20277TIP3   OH282321   5.679   6.894   5.135 -0.3020 -0.5271  0.4344
20277TIP3    H182322   5.688   6.813   5.186  1.2694 -0.2117  0.6718
20277TIP3    H282323   5.677   6.864   5.044 -1.4634 -0.9560  0.5855
20278TIP3   OH282324   6.736   0.466   5.629  0.2527 -0.2939  0.0193
20278TIP3    H182325   6.761   0.509   5.711  1.8893 -0.4138 -0.3962
20278TIP3    H282326   6.641   0.468   5.629  0.2625  0.9403  1.2719
20279TIP3   OH282327   6.605   0.676   6.129  0.1276 -0.2312  0.5814
20279TIP3    H182328   6.567   0.616   6.065 -1.8775 -0.4905  1.9781
20279TIP3    H282329   6.663   0.622   6.182 -0.8534 -0.7449  1.1527
20280TIP3   OH282330   6.379   0.200   2.534 -0.3268 -0.4989  0.1194
20280TIP3    H182331   6.345   0.172   2.449  2.5702 -0.9980 -0.9359
20280TIP3    H282332   6.301   0.215   2.587 -2.1552 -2.1635 -1.9788
20281TIP3   OH282333   2.872   5.170   4.789  0.0476  0.1982  0.1084
20281TIP3    H182334   2.831   5.155   4.874 -0.3168 -2.4184 -0.4619
20281TIP3    H282335   2.891   5.263   4.787 -0.8119  0.4679  2.6633
20282TIP3   OH282336   2.241   5.379   3.294  0.5324  0.6679 -0.4844
20282TIP3    H182337   2.274   5.439   3.360  1.5297 -0.6515  0.2357
20282TIP3    H282338   2.318   5.330   3.264 -0.6092 -2.0036  0.7675
20283TIP3   OH282339   1.851   6.992   3.058  0.1460  0.4126 -0.5825
20283TIP3    H182340   1.888   7.047   2.989 -0.2684  0.9654 -0.3685
20283TIP3    H282341   1.757   7.013   3.058 -0.1645 -0.9802 -1.1179
20284TIP3   OH282342   6.175   2.515   2.189 -0.0048  0.2216  0.1152
20284TIP3    H182343   6.095   2.483   2.229  0.6904 -0.0317  1.3542
20284TIP3    H282344   6.194   2.596   2.236  0.1586  0.5801 -0.5628
20285TIP3   OH282345   2.375   0.707   3.231  0.1622  0.3757 -0.0358
20285TIP3    H182346   2.423   0.716   3.314  0.3093 -2.2537  0.2081
20285TIP3    H282347   2.283   0.722   3.255  0.0554 -1.5470  0.8675
20286TIP3   OH282348   6.416   5.600   5.522  0.7902  0.4617  0.0434
20286TIP3    H182349   6.354   5.560   5.582  0.3851  0.2161 -0.5369
20286TIP3    H282350   6.465   5.662   5.576  0.1100  0.5819  0.5254
   7.19958   7.19958  15.61230
