Title
82350
    1SAPS     N    1   3.779   3.681  10.080
    1SAPS   HN1    2   3.839   3.629  10.147
    1SAPS   HN2    3   3.765   3.625   9.994
    1SAPS   HN3    4   3.823   3.772  10.055
    1SAPS   C12    5   3.647   3.723  10.139
    1SAPS  H12A    6   3.650   3.702  10.245
    1SAPS   C13    7   3.629   3.876  10.122
    1SAPS  O13A    8   3.725   3.941  10.072
    1SAPS  O13B    9   3.533   3.931  10.183
    1SAPS   C11   10   3.532   3.642  10.070
    1SAPS  H11A   11   3.572   3.540  10.052
    1SAPS  H11B   12   3.511   3.691   9.972
    1SAPS     P   13   3.289   3.554  10.078
    1SAPS   O13   14   3.192   3.520  10.186
    1SAPS   O14   15   3.240   3.631   9.963
    1SAPS   O12   16   3.412   3.631  10.147
    1SAPS   O11   17   3.363   3.421  10.034
    1SAPS    C1   18   3.365   3.370   9.900
    1SAPS    HA   19   3.337   3.262   9.904
    1SAPS    HB   20   3.291   3.419   9.832
    1SAPS    C2   21   3.507   3.379   9.834
    1SAPS    HS   22   3.580   3.370   9.917
    1SAPS   O21   23   3.518   3.504   9.763
    1SAPS   C21   24   3.631   3.569   9.769
    1SAPS   O22   25   3.724   3.548   9.846
    1SAPS   C22   26   3.625   3.689   9.674
    1SAPS   H2R   27   3.571   3.656   9.583
    1SAPS   H2S   28   3.566   3.768   9.724
    1SAPS    C3   29   3.538   3.260   9.737
    1SAPS    HX   30   3.500   3.167   9.785
    1SAPS    HY   31   3.648   3.252   9.730
    1SAPS   O31   32   3.482   3.280   9.605
    1SAPS   C31   33   3.468   3.170   9.532
    1SAPS   O32   34   3.503   3.058   9.565
    1SAPS   C32   35   3.401   3.203   9.396
    1SAPS   H2X   36   3.363   3.307   9.402
    1SAPS   H2Y   37   3.318   3.129   9.388
    1SAPS   C23   38   3.766   3.741   9.638
    1SAPS   H3R   39   3.821   3.658   9.587
    1SAPS   H3S   40   3.822   3.765   9.730
    1SAPS   C24   41   3.767   3.865   9.546
    1SAPS   H4R   42   3.870   3.878   9.509
    1SAPS   H4S   43   3.746   3.953   9.611
    1SAPS   C25   44   3.670   3.867   9.430
    1SAPS   H5R   45   3.588   3.940   9.440
    1SAPS   C26   46   3.672   3.789   9.320
    1SAPS   H6R   47   3.599   3.806   9.240
    1SAPS   C27   48   3.774   3.682   9.291
    1SAPS   H7R   49   3.827   3.660   9.386
    1SAPS   H7S   50   3.849   3.723   9.220
    1SAPS   C28   51   3.726   3.547   9.244
    1SAPS   H8R   52   3.672   3.491   9.321
    1SAPS   C29   53   3.746   3.488   9.124
    1SAPS   H9R   54   3.701   3.389   9.112
    1SAPS  C210   55   3.818   3.538   9.001
    1SAPS  H10R   56   3.919   3.491   8.998
    1SAPS  H10S   57   3.833   3.648   9.007
    1SAPS  C211   58   3.742   3.500   8.875
    1SAPS  H11R   59   3.685   3.406   8.882
    1SAPS  C212   60   3.739   3.567   8.759
    1SAPS  H12R   61   3.678   3.526   8.677
    1SAPS  C213   62   3.811   3.695   8.726
    1SAPS  H13R   63   3.860   3.738   8.816
    1SAPS  H13S   64   3.736   3.770   8.692
    1SAPS  C214   65   3.915   3.675   8.619
    1SAPS  H14R   66   3.958   3.573   8.612
    1SAPS  C215   67   3.962   3.770   8.536
    1SAPS  H15R   68   4.037   3.744   8.461
    1SAPS  C216   69   3.918   3.914   8.536
    1SAPS  H16R   70   4.004   3.982   8.517
    1SAPS  H16S   71   3.875   3.944   8.634
    1SAPS  C217   72   3.810   3.936   8.428
    1SAPS  H17R   73   3.762   4.035   8.443
    1SAPS  H17S   74   3.731   3.860   8.443
    1SAPS  C218   75   3.865   3.929   8.285
    1SAPS  H18R   76   3.964   3.877   8.283
    1SAPS  H18S   77   3.883   4.033   8.248
    1SAPS  C219   78   3.772   3.855   8.188
    1SAPS  H19R   79   3.775   3.747   8.212
    1SAPS  H19S   80   3.812   3.867   8.084
    1SAPS  C220   81   3.627   3.904   8.192
    1SAPS  H20R   82   3.578   3.875   8.287
    1SAPS  H20S   83   3.568   3.861   8.108
    1SAPS  H20T   84   3.624   4.015   8.185
    1SAPS   C33   85   3.491   3.191   9.271
    1SAPS   H3X   86   3.538   3.091   9.283
    1SAPS   H3Y   87   3.568   3.271   9.277
    1SAPS   C34   88   3.435   3.187   9.127
    1SAPS   H4X   89   3.366   3.101   9.118
    1SAPS   H4Y   90   3.522   3.166   9.061
    1SAPS   C35   91   3.365   3.311   9.066
    1SAPS   H5X   92   3.258   3.306   9.096
    1SAPS   H5Y   93   3.364   3.299   8.955
    1SAPS   C36   94   3.425   3.450   9.096
    1SAPS   H6X   95   3.515   3.460   9.031
    1SAPS   H6Y   96   3.455   3.458   9.203
    1SAPS   C37   97   3.334   3.571   9.063
    1SAPS   H7X   98   3.250   3.574   9.136
    1SAPS   H7Y   99   3.293   3.557   8.960
    1SAPS   C38  100   3.397   3.711   9.069
    1SAPS   H8X  101   3.431   3.730   9.173
    1SAPS   H8Y  102   3.316   3.783   9.047
    1SAPS   C39  103   3.512   3.729   8.969
    1SAPS   H9X  104   3.491   3.667   8.879
    1SAPS   H9Y  105   3.605   3.691   9.016
    1SAPS  C310  106   3.539   3.873   8.922
    1SAPS  H10X  107   3.621   3.870   8.846
    1SAPS  H10Y  108   3.576   3.933   9.007
    1SAPS  C311  109   3.418   3.945   8.860
    1SAPS  H11X  110   3.452   4.039   8.813
    1SAPS  H11Y  111   3.350   3.970   8.944
    1SAPS  C312  112   3.334   3.865   8.759
    1SAPS  H12X  113   3.246   3.926   8.732
    1SAPS  H12Y  114   3.295   3.773   8.807
    1SAPS  C313  115   3.408   3.827   8.631
    1SAPS  H13X  116   3.494   3.761   8.656
    1SAPS  H13Y  117   3.449   3.918   8.582
    1SAPS  C314  118   3.315   3.754   8.534
    1SAPS  H14X  119   3.233   3.823   8.502
    1SAPS  H14Y  120   3.267   3.669   8.587
    1SAPS  C315  121   3.389   3.701   8.410
    1SAPS  H15X  122   3.496   3.729   8.418
    1SAPS  H15Y  123   3.347   3.747   8.319
    1SAPS  C316  124   3.379   3.548   8.399
    1SAPS  H16X  125   3.272   3.521   8.402
    1SAPS  H16Y  126   3.428   3.501   8.487
    1SAPS  C317  127   3.441   3.492   8.270
    1SAPS  H17X  128   3.392   3.540   8.183
    1SAPS  H17Y  129   3.420   3.383   8.266
    1SAPS  C318  130   3.593   3.511   8.260
    1SAPS  H18X  131   3.644   3.457   8.342
    1SAPS  H18Y  132   3.619   3.619   8.268
    1SAPS  H18Z  133   3.631   3.473   8.163
    2SAPS     N  134   2.227   3.447  10.110
    2SAPS   HN1  135   2.230   3.343  10.099
    2SAPS   HN2  136   2.285   3.492  10.036
    2SAPS   HN3  137   2.271   3.474  10.200
    2SAPS   C12  138   2.088   3.503  10.102
    2SAPS  H12A  139   2.025   3.439  10.162
    2SAPS   C13  140   2.076   3.648  10.158
    2SAPS  O13A  141   2.183   3.706  10.191
    2SAPS  O13B  142   1.965   3.680  10.211
    2SAPS   C11  143   2.043   3.498   9.952
    2SAPS  H11A  144   2.088   3.410   9.903
    2SAPS  H11B  145   2.084   3.587   9.900
    2SAPS     P  146   1.815   3.365   9.945
    2SAPS   O13  147   1.900   3.255   9.996
    2SAPS   O14  148   1.688   3.387  10.017
    2SAPS   O12  149   1.901   3.498   9.937
    2SAPS   O11  150   1.786   3.326   9.794
    2SAPS    C1  151   1.890   3.320   9.696
    2SAPS    HA  152   1.992   3.313   9.740
    2SAPS    HB  153   1.877   3.229   9.634
    2SAPS    C2  154   1.888   3.442   9.600
    2SAPS    HS  155   1.889   3.536   9.659
    2SAPS   O21  156   1.772   3.431   9.516
    2SAPS   C21  157   1.665   3.499   9.550
    2SAPS   O22  158   1.651   3.571   9.647
    2SAPS   C22  159   1.563   3.485   9.437
    2SAPS   H2R  160   1.521   3.382   9.442
    2SAPS   H2S  161   1.483   3.559   9.456
    2SAPS    C3  162   2.012   3.442   9.506
    2SAPS    HX  163   2.104   3.453   9.567
    2SAPS    HY  164   2.004   3.532   9.441
    2SAPS   O31  165   2.017   3.320   9.430
    2SAPS   C31  166   2.081   3.325   9.314
    2SAPS   O32  167   2.152   3.415   9.275
    2SAPS   C32  168   2.052   3.194   9.241
    2SAPS   H2X  169   1.942   3.177   9.240
    2SAPS   H2Y  170   2.096   3.114   9.305
    2SAPS   C23  171   1.627   3.509   9.298
    2SAPS   H3R  172   1.548   3.503   9.221
    2SAPS   H3S  173   1.702   3.429   9.276
    2SAPS   C24  174   1.696   3.646   9.291
    2SAPS   H4R  175   1.775   3.651   9.369
    2SAPS   H4S  176   1.619   3.721   9.320
    2SAPS   C25  177   1.753   3.679   9.156
    2SAPS   H5R  178   1.679   3.679   9.075
    2SAPS   C26  179   1.880   3.711   9.125
    2SAPS   H6R  180   1.904   3.733   9.020
    2SAPS   C27  181   1.999   3.720   9.218
    2SAPS   H7R  182   2.063   3.631   9.203
    2SAPS   H7S  183   1.968   3.718   9.325
    2SAPS   C28  184   2.076   3.846   9.192
    2SAPS   H8R  185   2.034   3.935   9.242
    2SAPS   C29  186   2.189   3.860   9.120
    2SAPS   H9R  187   2.233   3.961   9.113
    2SAPS  C210  188   2.268   3.755   9.046
    2SAPS  H10R  189   2.222   3.655   9.058
    2SAPS  H10S  190   2.368   3.747   9.093
    2SAPS  C211  191   2.288   3.790   8.901
    2SAPS  H11R  192   2.358   3.873   8.881
    2SAPS  C212  193   2.230   3.728   8.797
    2SAPS  H12R  194   2.254   3.760   8.694
    2SAPS  C213  195   2.134   3.612   8.809
    2SAPS  H13R  196   2.070   3.624   8.899
    2SAPS  H13S  197   2.192   3.519   8.827
    2SAPS  C214  198   2.047   3.597   8.688
    2SAPS  H14R  199   1.961   3.666   8.686
    2SAPS  C215  200   2.061   3.510   8.586
    2SAPS  H15R  201   1.988   3.512   8.504
    2SAPS  C216  202   2.170   3.407   8.571
    2SAPS  H16R  203   2.242   3.411   8.656
    2SAPS  H16S  204   2.229   3.429   8.480
    2SAPS  C217  205   2.118   3.261   8.564
    2SAPS  H17R  206   2.067   3.237   8.659
    2SAPS  H17S  207   2.206   3.194   8.555
    2SAPS  C218  208   2.023   3.232   8.446
    2SAPS  H18R  209   1.931   3.293   8.457
    2SAPS  H18S  210   1.992   3.125   8.452
    2SAPS  C219  211   2.085   3.257   8.308
    2SAPS  H19R  212   2.175   3.193   8.297
    2SAPS  H19S  213   2.118   3.363   8.301
    2SAPS  C220  214   1.988   3.229   8.193
    2SAPS  H20R  215   1.953   3.124   8.196
    2SAPS  H20S  216   2.038   3.247   8.095
    2SAPS  H20T  217   1.900   3.296   8.200
    2SAPS   C33  218   2.114   3.179   9.099
    2SAPS   H3X  219   2.111   3.071   9.074
    2SAPS   H3Y  220   2.222   3.207   9.102
    2SAPS   C34  221   2.044   3.253   8.983
    2SAPS   H4X  222   2.039   3.183   8.897
    2SAPS   H4Y  223   2.108   3.338   8.952
    2SAPS   C35  224   1.904   3.309   9.010
    2SAPS   H5X  225   1.916   3.402   9.068
    2SAPS   H5Y  226   1.840   3.242   9.071
    2SAPS   C36  227   1.828   3.339   8.880
    2SAPS   H6X  228   1.759   3.255   8.853
    2SAPS   H6Y  229   1.902   3.349   8.797
    2SAPS   C37  230   1.752   3.471   8.892
    2SAPS   H7X  231   1.828   3.543   8.928
    2SAPS   H7Y  232   1.671   3.464   8.968
    2SAPS   C38  233   1.699   3.527   8.760
    2SAPS   H8X  234   1.599   3.484   8.736
    2SAPS   H8Y  235   1.769   3.497   8.679
    2SAPS   C39  236   1.692   3.681   8.766
    2SAPS   H9X  237   1.790   3.721   8.800
    2SAPS   H9Y  238   1.618   3.709   8.844
    2SAPS  C310  239   1.655   3.747   8.633
    2SAPS  H10X  240   1.639   3.855   8.650
    2SAPS  H10Y  241   1.561   3.703   8.595
    2SAPS  C311  242   1.762   3.732   8.525
    2SAPS  H11X  243   1.791   3.625   8.514
    2SAPS  H11Y  244   1.852   3.790   8.555
    2SAPS  C312  245   1.714   3.782   8.389
    2SAPS  H12X  246   1.685   3.889   8.398
    2SAPS  H12Y  247   1.625   3.725   8.356
    2SAPS  C313  248   1.826   3.769   8.286
    2SAPS  H13X  249   1.847   3.662   8.265
    2SAPS  H13Y  250   1.918   3.811   8.332
    2SAPS  C314  251   1.798   3.845   8.157
    2SAPS  H14X  252   1.741   3.937   8.180
    2SAPS  H14Y  253   1.736   3.783   8.088
    2SAPS  C315  254   1.929   3.888   8.089
    2SAPS  H15X  255   1.985   3.950   8.162
    2SAPS  H15Y  256   1.907   3.952   8.001
    2SAPS  C316  257   2.021   3.771   8.049
    2SAPS  H16X  258   2.046   3.710   8.139
    2SAPS  H16Y  259   2.116   3.815   8.012
    2SAPS  C317  260   1.962   3.680   7.940
    2SAPS  H17X  261   1.873   3.628   7.981
    2SAPS  H17Y  262   2.037   3.601   7.917
    2SAPS  C318  263   1.924   3.752   7.811
    2SAPS  H18X  264   1.885   3.680   7.736
    2SAPS  H18Y  265   2.012   3.804   7.768
    2SAPS  H18Z  266   1.845   3.828   7.830
    3SAPS     N  267   1.735   4.976  10.228
    3SAPS   HN1  268   1.773   4.884  10.197
    3SAPS   HN2  269   1.758   4.994  10.328
    3SAPS   HN3  270   1.633   4.983  10.213
    3SAPS   C12  271   1.807   5.081  10.149
    3SAPS  H12A  272   1.748   5.102  10.060
    3SAPS   C13  273   1.827   5.212  10.229
    3SAPS  O13A  274   1.818   5.208  10.354
    3SAPS  O13B  275   1.871   5.313  10.169
    3SAPS   C11  276   1.946   5.024  10.108
    3SAPS  H11A  277   2.016   5.033  10.194
    3SAPS  H11B  278   1.989   5.085  10.026
    3SAPS     P  279   1.923   4.834   9.924
    3SAPS   O13  280   2.031   4.888   9.842
    3SAPS   O14  281   1.909   4.687   9.937
    3SAPS   O12  282   1.938   4.885  10.073
    3SAPS   O11  283   1.787   4.902   9.885
    3SAPS    C1  284   1.661   4.839   9.904
    3SAPS    HA  285   1.666   4.729   9.886
    3SAPS    HB  286   1.625   4.852  10.008
    3SAPS    C2  287   1.553   4.897   9.809
    3SAPS    HS  288   1.461   4.836   9.815
    3SAPS   O21  289   1.597   4.904   9.672
    3SAPS   C21  290   1.655   4.803   9.610
    3SAPS   O22  291   1.680   4.692   9.652
    3SAPS   C22  292   1.670   4.845   9.464
    3SAPS   H2R  293   1.596   4.790   9.403
    3SAPS   H2S  294   1.648   4.954   9.459
    3SAPS    C3  295   1.515   5.042   9.852
    3SAPS    HX  296   1.468   5.035   9.952
    3SAPS    HY  297   1.437   5.080   9.782
    3SAPS   O31  298   1.629   5.131   9.862
    3SAPS   C31  299   1.664   5.193   9.750
    3SAPS   O32  300   1.593   5.205   9.651
    3SAPS   C32  301   1.805   5.250   9.765
    3SAPS   H2X  302   1.862   5.185   9.834
    3SAPS   H2Y  303   1.797   5.351   9.809
    3SAPS   C23  304   1.812   4.836   9.407
    3SAPS   H3R  305   1.887   4.817   9.487
    3SAPS   H3S  306   1.828   4.938   9.368
    3SAPS   C24  307   1.828   4.741   9.289
    3SAPS   H4R  308   1.744   4.754   9.218
    3SAPS   H4S  309   1.827   4.636   9.325
    3SAPS   C25  310   1.961   4.782   9.230
    3SAPS   H5R  311   2.043   4.784   9.302
    3SAPS   C26  312   1.986   4.818   9.103
    3SAPS   H6R  313   2.090   4.842   9.077
    3SAPS   C27  314   1.884   4.824   8.992
    3SAPS   H7R  315   1.815   4.909   9.010
    3SAPS   H7S  316   1.822   4.732   8.992
    3SAPS   C28  317   1.956   4.844   8.861
    3SAPS   H8R  318   2.037   4.919   8.865
    3SAPS   C29  319   1.935   4.783   8.744
    3SAPS   H9R  320   1.996   4.813   8.658
    3SAPS  C210  321   1.832   4.677   8.712
    3SAPS  H10R  322   1.751   4.723   8.651
    3SAPS  H10S  323   1.783   4.638   8.803
    3SAPS  C211  324   1.898   4.564   8.637
    3SAPS  H11R  325   1.927   4.479   8.700
    3SAPS  C212  326   1.928   4.558   8.506
    3SAPS  H12R  327   1.974   4.467   8.466
    3SAPS  C213  328   1.901   4.665   8.404
    3SAPS  H13R  329   1.849   4.751   8.451
    3SAPS  H13S  330   1.827   4.626   8.330
    3SAPS  C214  331   2.026   4.718   8.338
    3SAPS  H14R  332   2.095   4.762   8.411
    3SAPS  C215  333   2.067   4.717   8.209
    3SAPS  H15R  334   2.166   4.761   8.190
    3SAPS  C216  335   2.006   4.665   8.080
    3SAPS  H16R  336   2.084   4.605   8.028
    3SAPS  H16S  337   1.984   4.750   8.013
    3SAPS  C217  338   1.881   4.575   8.082
    3SAPS  H17R  339   1.791   4.640   8.079
    3SAPS  H17S  340   1.879   4.514   8.175
    3SAPS  C218  341   1.874   4.474   7.967
    3SAPS  H18R  342   1.961   4.406   7.979
    3SAPS  H18S  343   1.886   4.524   7.868
    3SAPS  C219  344   1.746   4.390   7.970
    3SAPS  H19R  345   1.706   4.387   8.074
    3SAPS  H19S  346   1.775   4.287   7.942
    3SAPS  C220  347   1.635   4.438   7.876
    3SAPS  H20R  348   1.598   4.538   7.909
    3SAPS  H20S  349   1.549   4.368   7.877
    3SAPS  H20T  350   1.672   4.446   7.772
    3SAPS   C33  351   1.881   5.257   9.630
    3SAPS   H3X  352   1.979   5.307   9.646
    3SAPS   H3Y  353   1.824   5.318   9.556
    3SAPS   C34  354   1.906   5.117   9.573
    3SAPS   H4X  355   1.808   5.069   9.552
    3SAPS   H4Y  356   1.956   5.056   9.651
    3SAPS   C35  357   1.994   5.113   9.447
    3SAPS   H5X  358   2.019   5.008   9.421
    3SAPS   H5Y  359   2.090   5.160   9.475
    3SAPS   C36  360   1.941   5.186   9.323
    3SAPS   H6X  361   1.908   5.288   9.350
    3SAPS   H6Y  362   1.854   5.131   9.280
    3SAPS   C37  363   2.052   5.196   9.218
    3SAPS   H7X  364   2.092   5.095   9.195
    3SAPS   H7Y  365   2.134   5.254   9.267
    3SAPS   C38  366   2.014   5.269   9.090
    3SAPS   H8X  367   2.098   5.336   9.060
    3SAPS   H8Y  368   1.925   5.333   9.112
    3SAPS   C39  369   1.984   5.176   8.972
    3SAPS   H9X  370   1.890   5.121   8.994
    3SAPS   H9Y  371   2.066   5.101   8.965
    3SAPS  C310  372   1.971   5.247   8.836
    3SAPS  H10X  373   2.070   5.289   8.806
    3SAPS  H10Y  374   1.900   5.332   8.847
    3SAPS  C311  375   1.917   5.153   8.727
    3SAPS  H11X  376   1.822   5.111   8.765
    3SAPS  H11Y  377   1.989   5.069   8.712
    3SAPS  C312  378   1.891   5.218   8.591
    3SAPS  H12X  379   1.983   5.212   8.529
    3SAPS  H12Y  380   1.868   5.326   8.606
    3SAPS  C313  381   1.773   5.155   8.516
    3SAPS  H13X  382   1.764   5.201   8.415
    3SAPS  H13Y  383   1.680   5.179   8.572
    3SAPS  C314  384   1.777   5.002   8.500
    3SAPS  H14X  385   1.801   4.958   8.599
    3SAPS  H14Y  386   1.857   4.973   8.428
    3SAPS  C315  387   1.641   4.941   8.459
    3SAPS  H15X  388   1.561   4.993   8.516
    3SAPS  H15Y  389   1.638   4.834   8.490
    3SAPS  C316  390   1.612   4.951   8.308
    3SAPS  H16X  391   1.665   5.041   8.270
    3SAPS  H16Y  392   1.503   4.969   8.293
    3SAPS  C317  393   1.654   4.828   8.226
    3SAPS  H17X  394   1.763   4.814   8.242
    3SAPS  H17Y  395   1.642   4.851   8.118
    3SAPS  C318  396   1.578   4.698   8.254
    3SAPS  H18X  397   1.629   4.611   8.207
    3SAPS  H18Y  398   1.477   4.704   8.209
    3SAPS  H18Z  399   1.569   4.678   8.363
    4SAPS     N  400   4.012   6.918   9.897
    4SAPS   HN1  401   4.020   7.017   9.867
    4SAPS   HN2  402   4.106   6.876   9.910
    4SAPS   HN3  403   3.956   6.866   9.826
    4SAPS   C12  404   3.940   6.916  10.028
    4SAPS  H12A  405   3.998   6.975  10.097
    4SAPS   C13  406   3.799   6.978  10.021
    4SAPS  O13A  407   3.753   7.012   9.909
    4SAPS  O13B  408   3.749   7.016  10.131
    4SAPS   C11  409   3.928   6.770  10.080
    4SAPS  H11A  410   3.879   6.708  10.002
    4SAPS  H11B  411   3.860   6.768  10.169
    4SAPS     P  412   4.095   6.568  10.110
    4SAPS   O13  413   4.155   6.527  10.238
    4SAPS   O14  414   3.979   6.494  10.057
    4SAPS   O12  415   4.056   6.722  10.120
    4SAPS   O11  416   4.208   6.581   9.999
    4SAPS    C1  417   4.241   6.471   9.913
    4SAPS    HA  418   4.346   6.439   9.932
    4SAPS    HB  419   4.179   6.382   9.934
    4SAPS    C2  420   4.220   6.507   9.762
    4SAPS    HS  421   4.220   6.413   9.704
    4SAPS   O21  422   4.329   6.595   9.714
    4SAPS   C21  423   4.445   6.529   9.688
    4SAPS   O22  424   4.465   6.413   9.717
    4SAPS   C22  425   4.565   6.609   9.621
    4SAPS   H2R  426   4.631   6.625   9.710
    4SAPS   H2S  427   4.617   6.537   9.555
    4SAPS    C3  428   4.071   6.565   9.751
    4SAPS    HX  429   4.071   6.662   9.805
    4SAPS    HY  430   4.008   6.495   9.810
    4SAPS   O31  431   4.011   6.572   9.618
    4SAPS   C31  432   3.942   6.683   9.587
    4SAPS   O32  433   3.913   6.771   9.667
    4SAPS   C32  434   3.920   6.690   9.434
    4SAPS   H2X  435   3.850   6.611   9.400
    4SAPS   H2Y  436   4.013   6.660   9.382
    4SAPS   C23  437   4.553   6.749   9.552
    4SAPS   H3R  438   4.578   6.829   9.625
    4SAPS   H3S  439   4.443   6.746   9.533
    4SAPS   C24  440   4.603   6.793   9.409
    4SAPS   H4R  441   4.641   6.701   9.360
    4SAPS   H4S  442   4.699   6.841   9.436
    4SAPS   C25  443   4.534   6.890   9.308
    4SAPS   H5R  444   4.563   6.993   9.332
    4SAPS   C26  445   4.446   6.884   9.199
    4SAPS   H6R  446   4.428   6.980   9.148
    4SAPS   C27  447   4.371   6.773   9.125
    4SAPS   H7R  448   4.327   6.713   9.207
    4SAPS   H7S  449   4.444   6.709   9.070
    4SAPS   C28  450   4.240   6.774   9.049
    4SAPS   H8R  451   4.156   6.816   9.107
    4SAPS   C29  452   4.209   6.720   8.929
    4SAPS   H9R  453   4.106   6.728   8.893
    4SAPS  C210  454   4.299   6.644   8.835
    4SAPS  H10R  455   4.239   6.573   8.775
    4SAPS  H10S  456   4.372   6.583   8.892
    4SAPS  C211  457   4.373   6.743   8.748
    4SAPS  H11R  458   4.416   6.829   8.802
    4SAPS  C212  459   4.391   6.736   8.615
    4SAPS  H12R  460   4.450   6.815   8.566
    4SAPS  C213  461   4.342   6.628   8.522
    4SAPS  H13R  462   4.322   6.676   8.423
    4SAPS  H13S  463   4.244   6.587   8.555
    4SAPS  C214  464   4.440   6.515   8.510
    4SAPS  H14R  465   4.454   6.456   8.602
    4SAPS  C215  466   4.510   6.481   8.400
    4SAPS  H15R  467   4.582   6.398   8.409
    4SAPS  C216  468   4.508   6.547   8.265
    4SAPS  H16R  469   4.601   6.607   8.248
    4SAPS  H16S  470   4.422   6.618   8.255
    4SAPS  C217  471   4.497   6.443   8.153
    4SAPS  H17R  472   4.407   6.380   8.171
    4SAPS  H17S  473   4.587   6.378   8.158
    4SAPS  C218  474   4.489   6.501   8.012
    4SAPS  H18R  475   4.543   6.429   7.946
    4SAPS  H18S  476   4.544   6.598   8.007
    4SAPS  C219  477   4.346   6.518   7.958
    4SAPS  H19R  478   4.285   6.559   8.041
    4SAPS  H19S  479   4.305   6.417   7.933
    4SAPS  C220  480   4.330   6.609   7.836
    4SAPS  H20R  481   4.224   6.638   7.823
    4SAPS  H20S  482   4.362   6.557   7.743
    4SAPS  H20T  483   4.391   6.701   7.847
    4SAPS   C33  484   3.871   6.828   9.381
    4SAPS   H3X  485   3.921   6.911   9.435
    4SAPS   H3Y  486   3.762   6.836   9.402
    4SAPS   C34  487   3.895   6.849   9.229
    4SAPS   H4X  488   3.895   6.751   9.176
    4SAPS   H4Y  489   3.994   6.897   9.214
    4SAPS   C35  490   3.785   6.937   9.167
    4SAPS   H5X  491   3.778   7.029   9.230
    4SAPS   H5Y  492   3.689   6.884   9.175
    4SAPS   C36  493   3.805   6.985   9.022
    4SAPS   H6X  494   3.887   7.059   9.017
    4SAPS   H6Y  495   3.712   7.039   8.994
    4SAPS   C37  496   3.827   6.876   8.916
    4SAPS   H7X  497   3.764   6.787   8.940
    4SAPS   H7Y  498   3.933   6.841   8.919
    4SAPS   C38  499   3.792   6.926   8.774
    4SAPS   H8X  500   3.868   7.000   8.742
    4SAPS   H8Y  501   3.695   6.980   8.779
    4SAPS   C39  502   3.777   6.817   8.667
    4SAPS   H9X  503   3.745   6.864   8.572
    4SAPS   H9Y  504   3.697   6.745   8.696
    4SAPS  C310  505   3.904   6.735   8.641
    4SAPS  H10X  506   3.884   6.662   8.559
    4SAPS  H10Y  507   3.928   6.676   8.732
    4SAPS  C311  508   4.026   6.820   8.603
    4SAPS  H11X  509   4.112   6.751   8.587
    4SAPS  H11Y  510   4.054   6.885   8.688
    4SAPS  C312  511   4.008   6.908   8.478
    4SAPS  H12X  512   4.106   6.957   8.460
    4SAPS  H12Y  513   3.934   6.988   8.498
    4SAPS  C313  514   3.968   6.832   8.349
    4SAPS  H13X  515   3.963   6.904   8.265
    4SAPS  H13Y  516   3.867   6.789   8.364
    4SAPS  C314  517   4.067   6.721   8.314
    4SAPS  H14X  518   4.066   6.644   8.394
    4SAPS  H14Y  519   4.168   6.767   8.315
    4SAPS  C315  520   4.048   6.653   8.177
    4SAPS  H15X  521   4.130   6.579   8.170
    4SAPS  H15Y  522   4.062   6.728   8.096
    4SAPS  C316  523   3.917   6.576   8.153
    4SAPS  H16X  524   3.931   6.515   8.061
    4SAPS  H16Y  525   3.835   6.647   8.131
    4SAPS  C317  526   3.880   6.483   8.269
    4SAPS  H17X  527   3.809   6.535   8.337
    4SAPS  H17Y  528   3.972   6.467   8.328
    4SAPS  C318  529   3.824   6.347   8.226
    4SAPS  H18X  530   3.894   6.296   8.157
    4SAPS  H18Y  531   3.727   6.358   8.173
    4SAPS  H18Z  532   3.809   6.282   8.315
    5SAPS     N  533   6.839   4.615  10.158
    5SAPS   HN1  534   6.847   4.567  10.066
    5SAPS   HN2  535   6.872   4.550  10.231
    5SAPS   HN3  536   6.740   4.645  10.173
    5SAPS   C12  537   6.926   4.737  10.162
    5SAPS  H12A  538   6.915   4.782  10.259
    5SAPS   C13  539   7.078   4.707  10.145
    5SAPS  O13A  540   7.117   4.588  10.163
    5SAPS  O13B  541   7.155   4.805  10.160
    5SAPS   C11  542   6.874   4.837  10.054
    5SAPS  H11A  543   6.870   4.786   9.956
    5SAPS  H11B  544   6.947   4.920  10.045
    5SAPS     P  545   6.640   4.938   9.990
    5SAPS   O13  546   6.562   4.820   9.951
    5SAPS   O14  547   6.570   5.055  10.050
    5SAPS   O12  548   6.748   4.890  10.096
    5SAPS   O11  549   6.733   4.990   9.873
    5SAPS    C1  550   6.778   5.126   9.878
    5SAPS    HA  551   6.692   5.194   9.862
    5SAPS    HB  552   6.828   5.148   9.975
    5SAPS    C2  553   6.880   5.160   9.766
    5SAPS    HS  554   6.914   5.264   9.786
    5SAPS   O21  555   6.809   5.158   9.641
    5SAPS   C21  556   6.877   5.199   9.536
    5SAPS   O22  557   6.991   5.242   9.539
    5SAPS   C22  558   6.792   5.181   9.411
    5SAPS   H2R  559   6.839   5.102   9.348
    5SAPS   H2S  560   6.692   5.144   9.441
    5SAPS    C3  561   7.006   5.068   9.770
    5SAPS    HX  562   7.033   5.052   9.876
    5SAPS    HY  563   7.089   5.121   9.720
    5SAPS   O31  564   6.980   4.942   9.704
    5SAPS   C31  565   7.088   4.865   9.697
    5SAPS   O32  566   7.192   4.884   9.756
    5SAPS   C32  567   7.061   4.753   9.597
    5SAPS   H2X  568   6.965   4.773   9.545
    5SAPS   H2Y  569   7.051   4.658   9.654
    5SAPS   C23  570   6.773   5.312   9.331
    5SAPS   H3R  571   6.728   5.390   9.397
    5SAPS   H3S  572   6.699   5.293   9.250
    5SAPS   C24  573   6.901   5.369   9.269
    5SAPS   H4R  574   6.969   5.401   9.351
    5SAPS   H4S  575   6.875   5.461   9.213
    5SAPS   C25  576   6.974   5.270   9.182
    5SAPS   H5R  577   7.030   5.193   9.238
    5SAPS   C26  578   6.976   5.267   9.048
    5SAPS   H6R  579   7.033   5.187   8.996
    5SAPS   C27  580   6.904   5.363   8.957
    5SAPS   H7R  581   6.961   5.375   8.863
    5SAPS   H7S  582   6.897   5.464   9.002
    5SAPS   C28  583   6.766   5.307   8.936
    5SAPS   H8R  584   6.701   5.310   9.024
    5SAPS   C29  585   6.718   5.256   8.822
    5SAPS   H9R  586   6.615   5.217   8.824
    5SAPS  C210  587   6.790   5.242   8.691
    5SAPS  H10R  588   6.818   5.135   8.677
    5SAPS  H10S  589   6.885   5.299   8.687
    5SAPS  C211  590   6.699   5.290   8.580
    5SAPS  H11R  591   6.685   5.398   8.576
    5SAPS  C212  592   6.633   5.211   8.493
    5SAPS  H12R  593   6.568   5.257   8.418
    5SAPS  C213  594   6.638   5.060   8.493
    5SAPS  H13R  595   6.744   5.027   8.498
    5SAPS  H13S  596   6.600   5.022   8.396
    5SAPS  C214  597   6.563   4.999   8.609
    5SAPS  H14R  598   6.550   5.064   8.697
    5SAPS  C215  599   6.512   4.876   8.614
    5SAPS  H15R  600   6.459   4.844   8.706
    5SAPS  C216  601   6.518   4.773   8.505
    5SAPS  H16R  602   6.486   4.675   8.546
    5SAPS  H16S  603   6.623   4.760   8.469
    5SAPS  C217  604   6.429   4.808   8.384
    5SAPS  H17R  605   6.490   4.861   8.308
    5SAPS  H17S  606   6.347   4.877   8.414
    5SAPS  C218  607   6.362   4.685   8.321
    5SAPS  H18R  608   6.289   4.645   8.395
    5SAPS  H18S  609   6.304   4.717   8.232
    5SAPS  C219  610   6.452   4.568   8.283
    5SAPS  H19R  611   6.497   4.525   8.375
    5SAPS  H19S  612   6.533   4.606   8.219
    5SAPS  C220  613   6.375   4.458   8.208
    5SAPS  H20R  614   6.290   4.421   8.270
    5SAPS  H20S  615   6.442   4.373   8.184
    5SAPS  H20T  616   6.334   4.499   8.114
    5SAPS   C33  617   7.176   4.742   9.495
    5SAPS   H3X  618   7.147   4.669   9.417
    5SAPS   H3Y  619   7.266   4.703   9.547
    5SAPS   C34  620   7.211   4.872   9.421
    5SAPS   H4X  621   7.293   4.851   9.350
    5SAPS   H4Y  622   7.249   4.948   9.493
    5SAPS   C35  623   7.094   4.932   9.341
    5SAPS   H5X  624   7.134   5.020   9.288
    5SAPS   H5Y  625   7.014   4.967   9.410
    5SAPS   C36  626   7.032   4.835   9.238
    5SAPS   H6X  627   6.966   4.762   9.289
    5SAPS   H6Y  628   7.115   4.778   9.190
    5SAPS   C37  629   6.955   4.910   9.130
    5SAPS   H7X  630   7.025   4.986   9.088
    5SAPS   H7Y  631   6.870   4.966   9.173
    5SAPS   C38  632   6.905   4.822   9.015
    5SAPS   H8X  633   6.801   4.790   9.037
    5SAPS   H8Y  634   6.967   4.730   9.007
    5SAPS   C39  635   6.910   4.895   8.880
    5SAPS   H9X  636   6.872   4.998   8.896
    5SAPS   H9Y  637   6.843   4.847   8.806
    5SAPS  C310  638   7.054   4.903   8.824
    5SAPS  H10X  639   7.125   4.913   8.908
    5SAPS  H10Y  640   7.064   4.995   8.763
    5SAPS  C311  641   7.094   4.780   8.740
    5SAPS  H11X  642   7.078   4.688   8.800
    5SAPS  H11Y  643   7.203   4.787   8.719
    5SAPS  C312  644   7.021   4.767   8.605
    5SAPS  H12X  645   6.913   4.749   8.621
    5SAPS  H12Y  646   7.062   4.679   8.550
    5SAPS  C313  647   7.040   4.892   8.519
    5SAPS  H13X  648   7.148   4.914   8.510
    5SAPS  H13Y  649   6.991   4.977   8.572
    5SAPS  C314  650   6.979   4.886   8.378
    5SAPS  H14X  651   6.869   4.879   8.387
    5SAPS  H14Y  652   7.014   4.794   8.326
    5SAPS  C315  653   7.017   5.009   8.293
    5SAPS  H15X  654   6.942   5.019   8.211
    5SAPS  H15Y  655   7.115   4.991   8.246
    5SAPS  C316  656   7.026   5.140   8.374
    5SAPS  H16X  657   7.111   5.133   8.444
    5SAPS  H16Y  658   6.933   5.152   8.434
    5SAPS  C317  659   7.046   5.266   8.289
    5SAPS  H17X  660   7.129   5.250   8.217
    5SAPS  H17Y  661   7.076   5.349   8.357
    5SAPS  C318  662   6.919   5.308   8.215
    5SAPS  H18X  663   6.835   5.321   8.287
    5SAPS  H18Y  664   6.890   5.227   8.145
    5SAPS  H18Z  665   6.933   5.402   8.159
    6SAPS     N  666   0.113   4.175  10.096
    6SAPS   HN1  667   0.129   4.273  10.063
    6SAPS   HN2  668   0.036   4.174  10.165
    6SAPS   HN3  669   0.201   4.138  10.137
    6SAPS   C12  670   0.077   4.086   9.982
    6SAPS  H12A  671  -0.006   4.130   9.930
    6SAPS   C13  672   0.194   4.075   9.881
    6SAPS  O13A  673   0.306   4.127   9.911
    6SAPS  O13B  674   0.176   4.007   9.777
    6SAPS   C11  675   0.039   3.944  10.036
    6SAPS  H11A  676   0.133   3.890  10.059
    6SAPS  H11B  677  -0.009   3.887   9.954
    6SAPS     P  678  -0.171   4.026  10.185
    6SAPS   O13  679  -0.263   3.951  10.274
    6SAPS   O14  680  -0.118   4.154  10.239
    6SAPS   O12  681  -0.043   3.939  10.155
    6SAPS   O11  682  -0.235   4.049  10.043
    6SAPS    C1  683  -0.291   3.941   9.968
    6SAPS    HA  684  -0.243   3.843   9.988
    6SAPS    HB  685  -0.399   3.932   9.994
    6SAPS    C2  686  -0.282   3.969   9.816
    6SAPS    HS  687  -0.370   3.920   9.769
    6SAPS   O21  688  -0.159   3.915   9.763
    6SAPS   C21  689  -0.163   3.884   9.633
    6SAPS   O22  690  -0.265   3.869   9.568
    6SAPS   C22  691  -0.021   3.870   9.578
    6SAPS   H2R  692   0.026   3.971   9.585
    6SAPS   H2S  693   0.035   3.802   9.645
    6SAPS    C3  694  -0.289   4.121   9.788
    6SAPS    HX  695  -0.202   4.170   9.837
    6SAPS    HY  696  -0.382   4.160   9.835
    6SAPS   O31  697  -0.285   4.147   9.647
    6SAPS   C31  698  -0.316   4.270   9.612
    6SAPS   O32  699  -0.351   4.359   9.688
    6SAPS   C32  700  -0.309   4.278   9.459
    6SAPS   H2X  701  -0.413   4.266   9.423
    6SAPS   H2Y  702  -0.252   4.191   9.420
    6SAPS   C23  703  -0.016   3.820   9.432
    6SAPS   H3R  704  -0.065   3.893   9.365
    6SAPS   H3S  705  -0.072   3.724   9.424
    6SAPS   C24  706   0.128   3.793   9.382
    6SAPS   H4R  707   0.122   3.749   9.281
    6SAPS   H4S  708   0.173   3.716   9.448
    6SAPS   C25  709   0.216   3.916   9.385
    6SAPS   H5R  710   0.225   3.963   9.484
    6SAPS   C26  711   0.284   3.971   9.281
    6SAPS   H6R  712   0.346   4.059   9.301
    6SAPS   C27  713   0.286   3.919   9.139
    6SAPS   H7R  714   0.193   3.862   9.116
    6SAPS   H7S  715   0.370   3.847   9.130
    6SAPS   C28  716   0.303   4.026   9.034
    6SAPS   H8R  717   0.284   4.129   9.066
    6SAPS   C29  718   0.337   4.002   8.906
    6SAPS   H9R  719   0.345   4.087   8.836
    6SAPS  C210  720   0.365   3.866   8.847
    6SAPS  H10R  721   0.317   3.789   8.911
    6SAPS  H10S  722   0.474   3.846   8.852
    6SAPS  C211  723   0.319   3.847   8.705
    6SAPS  H11R  724   0.390   3.879   8.628
    6SAPS  C212  725   0.200   3.798   8.666
    6SAPS  H12R  726   0.181   3.787   8.558
    6SAPS  C213  727   0.087   3.752   8.755
    6SAPS  H13R  728   0.118   3.740   8.861
    6SAPS  H13S  729   0.053   3.652   8.721
    6SAPS  C214  730  -0.029   3.848   8.747
    6SAPS  H14R  731  -0.045   3.909   8.837
    6SAPS  C215  732  -0.112   3.861   8.642
    6SAPS  H15R  733  -0.192   3.936   8.645
    6SAPS  C216  734  -0.101   3.779   8.517
    6SAPS  H16R  735  -0.202   3.742   8.491
    6SAPS  H16S  736  -0.039   3.688   8.531
    6SAPS  C217  737  -0.046   3.852   8.393
    6SAPS  H17R  738   0.051   3.902   8.417
    6SAPS  H17S  739  -0.117   3.931   8.362
    6SAPS  C218  740  -0.025   3.752   8.280
    6SAPS  H18R  741  -0.119   3.694   8.264
    6SAPS  H18S  742   0.054   3.679   8.309
    6SAPS  C219  743   0.014   3.818   8.148
    6SAPS  H19R  744   0.107   3.877   8.163
    6SAPS  H19S  745  -0.068   3.887   8.118
    6SAPS  C220  746   0.038   3.717   8.036
    6SAPS  H20R  747   0.126   3.654   8.063
    6SAPS  H20S  748   0.061   3.769   7.940
    6SAPS  H20T  749  -0.050   3.652   8.021
    6SAPS   C33  750  -0.255   4.412   9.407
    6SAPS   H3X  751  -0.276   4.492   9.481
    6SAPS   H3Y  752  -0.313   4.440   9.316
    6SAPS   C34  753  -0.104   4.410   9.372
    6SAPS   H4X  754  -0.046   4.391   9.464
    6SAPS   H4Y  755  -0.075   4.511   9.335
    6SAPS   C35  756  -0.063   4.308   9.264
    6SAPS   H5X  757  -0.082   4.206   9.302
    6SAPS   H5Y  758   0.047   4.315   9.247
    6SAPS   C36  759  -0.135   4.326   9.129
    6SAPS   H6X  760  -0.066   4.374   9.056
    6SAPS   H6Y  761  -0.221   4.395   9.140
    6SAPS   C37  762  -0.190   4.195   9.074
    6SAPS   H7X  763  -0.253   4.216   8.985
    6SAPS   H7Y  764  -0.254   4.148   9.152
    6SAPS   C38  765  -0.082   4.094   9.033
    6SAPS   H8X  766  -0.133   4.003   8.994
    6SAPS   H8Y  767  -0.024   4.062   9.122
    6SAPS   C39  768   0.017   4.147   8.928
    6SAPS   H9X  769   0.081   4.062   8.897
    6SAPS   H9Y  770   0.083   4.223   8.975
    6SAPS  C310  771  -0.043   4.207   8.800
    6SAPS  H10X  772  -0.099   4.299   8.824
    6SAPS  H10Y  773  -0.113   4.134   8.753
    6SAPS  C311  774   0.070   4.240   8.700
    6SAPS  H11X  775   0.125   4.148   8.672
    6SAPS  H11Y  776   0.142   4.306   8.753
    6SAPS  C312  777   0.023   4.313   8.574
    6SAPS  H12X  778   0.105   4.381   8.541
    6SAPS  H12Y  779  -0.065   4.377   8.597
    6SAPS  C313  780  -0.009   4.220   8.456
    6SAPS  H13X  781  -0.094   4.153   8.483
    6SAPS  H13Y  782   0.080   4.156   8.436
    6SAPS  C314  783  -0.044   4.300   8.329
    6SAPS  H14X  784   0.038   4.372   8.308
    6SAPS  H14Y  785  -0.135   4.359   8.350
    6SAPS  C315  786  -0.068   4.215   8.204
    6SAPS  H15X  787  -0.110   4.280   8.124
    6SAPS  H15Y  788  -0.143   4.137   8.227
    6SAPS  C316  789   0.058   4.147   8.147
    6SAPS  H16X  790   0.027   4.082   8.063
    6SAPS  H16Y  791   0.103   4.083   8.226
    6SAPS  C317  792   0.166   4.242   8.094
    6SAPS  H17X  793   0.205   4.304   8.177
    6SAPS  H17Y  794   0.120   4.310   8.020
    6SAPS  C318  795   0.283   4.167   8.028
    6SAPS  H18X  796   0.247   4.105   7.944
    6SAPS  H18Y  797   0.332   4.100   8.102
    6SAPS  H18Z  798   0.359   4.239   7.990
    7SAPS     N  799   1.974   7.221  10.167
    7SAPS   HN1  800   2.050   7.229  10.238
    7SAPS   HN2  801   1.893   7.280  10.195
    7SAPS   HN3  802   1.942   7.122  10.163
    7SAPS   C12  803   2.024   7.261  10.033
    7SAPS  H12A  804   1.961   7.339   9.995
    7SAPS   C13  805   2.169   7.315  10.041
    7SAPS  O13A  806   2.233   7.303  10.149
    7SAPS  O13B  807   2.204   7.396   9.952
    7SAPS   C11  808   2.022   7.138   9.937
    7SAPS  H11A  809   2.094   7.061   9.971
    7SAPS  H11B  810   2.057   7.172   9.838
    7SAPS     P  811   1.837   6.958  10.000
    7SAPS   O13  812   1.870   6.833   9.929
    7SAPS   O14  813   1.889   6.972  10.138
    7SAPS   O12  814   1.890   7.085   9.921
    7SAPS   O11  815   1.682   6.985  10.007
    7SAPS    C1  816   1.590   6.941   9.906
    7SAPS    HA  817   1.599   6.832   9.889
    7SAPS    HB  818   1.489   6.961   9.947
    7SAPS    C2  819   1.597   7.015   9.769
    7SAPS    HS  820   1.672   6.961   9.708
    7SAPS   O21  821   1.632   7.154   9.787
    7SAPS   C21  822   1.698   7.206   9.685
    7SAPS   O22  823   1.747   7.144   9.592
    7SAPS   C22  824   1.698   7.358   9.698
    7SAPS   H2R  825   1.702   7.384   9.806
    7SAPS   H2S  826   1.789   7.397   9.647
    7SAPS    C3  827   1.458   7.009   9.697
    7SAPS    HX  828   1.389   7.072   9.757
    7SAPS    HY  829   1.419   6.905   9.704
    7SAPS   O31  830   1.458   7.059   9.562
    7SAPS   C31  831   1.491   6.967   9.471
    7SAPS   O32  832   1.523   6.853   9.496
    7SAPS   C32  833   1.475   7.026   9.330
    7SAPS   H2X  834   1.541   7.115   9.323
    7SAPS   H2Y  835   1.370   7.059   9.318
    7SAPS   C23  836   1.569   7.418   9.635
    7SAPS   H3R  837   1.564   7.526   9.658
    7SAPS   H3S  838   1.481   7.371   9.684
    7SAPS   C24  839   1.559   7.397   9.482
    7SAPS   H4R  840   1.460   7.435   9.448
    7SAPS   H4S  841   1.561   7.288   9.459
    7SAPS   C25  842   1.669   7.472   9.412
    7SAPS   H5R  843   1.685   7.573   9.454
    7SAPS   C26  844   1.750   7.430   9.314
    7SAPS   H6R  845   1.824   7.501   9.275
    7SAPS   C27  846   1.750   7.295   9.247
    7SAPS   H7R  847   1.658   7.283   9.187
    7SAPS   H7S  848   1.748   7.214   9.324
    7SAPS   C28  849   1.872   7.278   9.160
    7SAPS   H8R  850   1.959   7.232   9.210
    7SAPS   C29  851   1.884   7.313   9.030
    7SAPS   H9R  852   1.980   7.295   8.979
    7SAPS  C210  853   1.778   7.377   8.944
    7SAPS  H10R  854   1.820   7.465   8.891
    7SAPS  H10S  855   1.694   7.416   9.006
    7SAPS  C211  856   1.723   7.275   8.848
    7SAPS  H11R  857   1.657   7.201   8.895
    7SAPS  C212  858   1.746   7.266   8.716
    7SAPS  H12R  859   1.709   7.176   8.664
    7SAPS  C213  860   1.832   7.352   8.627
    7SAPS  H13R  861   1.900   7.284   8.571
    7SAPS  H13S  862   1.897   7.420   8.686
    7SAPS  C214  863   1.749   7.432   8.529
    7SAPS  H14R  864   1.706   7.524   8.570
    7SAPS  C215  865   1.722   7.401   8.401
    7SAPS  H15R  866   1.660   7.471   8.344
    7SAPS  C216  867   1.767   7.280   8.324
    7SAPS  H16R  868   1.683   7.244   8.260
    7SAPS  H16S  869   1.791   7.195   8.391
    7SAPS  C217  870   1.889   7.302   8.231
    7SAPS  H17R  871   1.890   7.222   8.154
    7SAPS  H17S  872   1.981   7.289   8.292
    7SAPS  C218  873   1.899   7.440   8.161
    7SAPS  H18R  874   1.990   7.438   8.097
    7SAPS  H18S  875   1.914   7.519   8.238
    7SAPS  C219  876   1.781   7.479   8.072
    7SAPS  H19R  877   1.801   7.579   8.028
    7SAPS  H19S  878   1.689   7.488   8.133
    7SAPS  C220  879   1.756   7.380   7.958
    7SAPS  H20R  880   1.734   7.279   7.998
    7SAPS  H20S  881   1.845   7.374   7.892
    7SAPS  H20T  882   1.669   7.412   7.897
    7SAPS   C33  883   1.512   6.924   9.220
    7SAPS   H3X  884   1.449   6.833   9.231
    7SAPS   H3Y  885   1.618   6.893   9.233
    7SAPS   C34  886   1.493   6.979   9.078
    7SAPS   H4X  887   1.549   7.075   9.068
    7SAPS   H4Y  888   1.386   7.000   9.060
    7SAPS   C35  889   1.546   6.880   8.972
    7SAPS   H5X  890   1.493   6.783   8.986
    7SAPS   H5Y  891   1.654   6.863   8.992
    7SAPS   C36  892   1.526   6.928   8.828
    7SAPS   H6X  893   1.572   7.028   8.815
    7SAPS   H6Y  894   1.417   6.939   8.810
    7SAPS   C37  895   1.584   6.833   8.721
    7SAPS   H7X  896   1.563   6.875   8.620
    7SAPS   H7Y  897   1.529   6.736   8.728
    7SAPS   C38  898   1.735   6.804   8.731
    7SAPS   H8X  899   1.761   6.730   8.653
    7SAPS   H8Y  900   1.758   6.758   8.830
    7SAPS   C39  901   1.825   6.927   8.713
    7SAPS   H9X  902   1.803   7.001   8.794
    7SAPS   H9Y  903   1.802   6.974   8.615
    7SAPS  C310  904   1.973   6.890   8.719
    7SAPS  H10X  905   1.988   6.805   8.649
    7SAPS  H10Y  906   1.997   6.853   8.822
    7SAPS  C311  907   2.070   7.003   8.681
    7SAPS  H11X  908   2.040   7.046   8.583
    7SAPS  H11Y  909   2.172   6.961   8.668
    7SAPS  C312  910   2.079   7.114   8.787
    7SAPS  H12X  911   2.093   7.069   8.887
    7SAPS  H12Y  912   1.981   7.167   8.788
    7SAPS  C313  913   2.190   7.218   8.763
    7SAPS  H13X  914   2.288   7.176   8.795
    7SAPS  H13Y  915   2.170   7.306   8.828
    7SAPS  C314  916   2.204   7.266   8.618
    7SAPS  H14X  917   2.103   7.284   8.574
    7SAPS  H14Y  918   2.252   7.186   8.558
    7SAPS  C315  919   2.285   7.396   8.605
    7SAPS  H15X  920   2.377   7.383   8.665
    7SAPS  H15Y  921   2.228   7.481   8.646
    7SAPS  C316  922   2.327   7.425   8.460
    7SAPS  H16X  923   2.372   7.334   8.417
    7SAPS  H16Y  924   2.405   7.505   8.460
    7SAPS  C317  925   2.212   7.471   8.370
    7SAPS  H17X  926   2.185   7.576   8.396
    7SAPS  H17Y  927   2.122   7.409   8.390
    7SAPS  C318  928   2.247   7.463   8.222
    7SAPS  H18X  929   2.176   7.521   8.160
    7SAPS  H18Y  930   2.246   7.357   8.187
    7SAPS  H18Z  931   2.349   7.503   8.204
    8SAPS     N  932   6.662   6.182  10.250
    8SAPS   HN1  933   6.599   6.187  10.332
    8SAPS   HN2  934   6.661   6.089  10.203
    8SAPS   HN3  935   6.759   6.203  10.280
    8SAPS   C12  936   6.627   6.284  10.146
    8SAPS  H12A  937   6.528   6.261  10.110
    8SAPS   C13  938   6.625   6.429  10.201
    8SAPS  O13A  939   6.651   6.448  10.323
    8SAPS  O13B  940   6.587   6.521  10.125
    8SAPS   C11  941   6.730   6.264  10.031
    8SAPS  H11A  942   6.826   6.313  10.059
    8SAPS  H11B  943   6.692   6.313   9.939
    8SAPS     P  944   6.868   6.066   9.923
    8SAPS   O13  945   6.996   6.119   9.978
    8SAPS   O14  946   6.857   5.920   9.920
    8SAPS   O12  947   6.749   6.123  10.009
    8SAPS   O11  948   6.840   6.128   9.781
    8SAPS    C1  949   6.911   6.079   9.668
    8SAPS    HA  950   7.007   6.135   9.659
    8SAPS    HB  951   6.934   5.970   9.675
    8SAPS    C2  952   6.836   6.100   9.533
    8SAPS    HS  953   6.813   6.208   9.521
    8SAPS   O21  954   6.718   6.019   9.529
    8SAPS   C21  955   6.610   6.077   9.577
    8SAPS   O22  956   6.601   6.190   9.621
    8SAPS   C22  957   6.492   5.981   9.563
    8SAPS   H2R  958   6.531   5.877   9.555
    8SAPS   H2S  959   6.431   5.988   9.656
    8SAPS    C3  960   6.931   6.059   9.417
    8SAPS    HX  961   6.966   5.957   9.439
    8SAPS    HY  962   7.018   6.128   9.421
    8SAPS   O31  963   6.865   6.060   9.288
    8SAPS   C31  964   6.951   6.054   9.186
    8SAPS   O32  965   7.071   6.071   9.196
    8SAPS   C32  966   6.881   6.015   9.057
    8SAPS   H2X  967   6.879   5.904   9.051
    8SAPS   H2Y  968   6.942   6.054   8.973
    8SAPS   C23  969   6.405   6.013   9.439
    8SAPS   H3R  970   6.331   5.931   9.428
    8SAPS   H3S  971   6.469   6.013   9.348
    8SAPS   C24  972   6.332   6.148   9.451
    8SAPS   H4R  973   6.409   6.228   9.461
    8SAPS   H4S  974   6.275   6.149   9.546
    8SAPS   C25  975   6.239   6.177   9.336
    8SAPS   H5R  976   6.141   6.127   9.344
    8SAPS   C26  977   6.263   6.251   9.226
    8SAPS   H6R  978   6.184   6.258   9.149
    8SAPS   C27  979   6.389   6.325   9.188
    8SAPS   H7R  980   6.369   6.382   9.094
    8SAPS   H7S  981   6.466   6.250   9.161
    8SAPS   C28  982   6.444   6.421   9.290
    8SAPS   H8R  983   6.381   6.442   9.377
    8SAPS   C29  984   6.564   6.481   9.280
    8SAPS   H9R  985   6.597   6.550   9.359
    8SAPS  C210  986   6.660   6.463   9.165
    8SAPS  H10R  987   6.663   6.356   9.135
    8SAPS  H10S  988   6.763   6.488   9.198
    8SAPS  C211  989   6.620   6.551   9.050
    8SAPS  H11R  990   6.598   6.655   9.080
    8SAPS  C212  991   6.602   6.520   8.920
    8SAPS  H12R  992   6.574   6.600   8.850
    8SAPS  C213  993   6.618   6.386   8.855
    8SAPS  H13R  994   6.638   6.309   8.932
    8SAPS  H13S  995   6.709   6.389   8.791
    8SAPS  C214  996   6.498   6.344   8.773
    8SAPS  H14R  997   6.425   6.282   8.827
    8SAPS  C215  998   6.475   6.375   8.644
    8SAPS  H15R  999   6.385   6.335   8.595
    8SAPS  C216 1000   6.564   6.458   8.555
    8SAPS  H16R 1001   6.637   6.517   8.616
    8SAPS  H16S 1002   6.503   6.532   8.500
    8SAPS  C217 1003   6.646   6.375   8.454
    8SAPS  H17R 1004   6.709   6.446   8.396
    8SAPS  H17S 1005   6.577   6.325   8.382
    8SAPS  C218 1006   6.736   6.270   8.519
    8SAPS  H18R 1007   6.672   6.184   8.549
    8SAPS  H18S 1008   6.782   6.311   8.611
    8SAPS  C219 1009   6.849   6.220   8.428
    8SAPS  H19R 1010   6.807   6.204   8.327
    8SAPS  H19S 1011   6.885   6.122   8.466
    8SAPS  C220 1012   6.968   6.316   8.421
    8SAPS  H20R 1013   6.936   6.416   8.387
    8SAPS  H20S 1014   7.045   6.277   8.351
    8SAPS  H20T 1015   7.015   6.327   8.522
    8SAPS   C33 1016   6.737   6.068   9.045
    8SAPS   H3X 1017   6.737   6.176   9.072
    8SAPS   H3Y 1018   6.670   6.016   9.117
    8SAPS   C34 1019   6.679   6.055   8.903
    8SAPS   H4X 1020   6.739   6.116   8.831
    8SAPS   H4Y 1021   6.577   6.098   8.906
    8SAPS   C35 1022   6.670   5.911   8.852
    8SAPS   H5X 1023   6.682   5.843   8.940
    8SAPS   H5Y 1024   6.755   5.888   8.784
    8SAPS   C36 1025   6.536   5.883   8.784
    8SAPS   H6X 1026   6.455   5.943   8.831
    8SAPS   H6Y 1027   6.510   5.775   8.798
    8SAPS   C37 1028   6.541   5.909   8.634
    8SAPS   H7X 1029   6.597   5.825   8.589
    8SAPS   H7Y 1030   6.598   6.002   8.614
    8SAPS   C38 1031   6.404   5.919   8.565
    8SAPS   H8X 1032   6.364   6.021   8.580
    8SAPS   H8Y 1033   6.332   5.846   8.609
    8SAPS   C39 1034   6.421   5.888   8.416
    8SAPS   H9X 1035   6.433   5.779   8.403
    8SAPS   H9Y 1036   6.516   5.936   8.383
    8SAPS  C310 1037   6.309   5.940   8.324
    8SAPS  H10X 1038   6.210   5.917   8.368
    8SAPS  H10Y 1039   6.317   5.885   8.228
    8SAPS  C311 1040   6.322   6.090   8.296
    8SAPS  H11X 1041   6.429   6.119   8.295
    8SAPS  H11Y 1042   6.276   6.145   8.381
    8SAPS  C312 1043   6.256   6.135   8.164
    8SAPS  H12X 1044   6.247   6.245   8.163
    8SAPS  H12Y 1045   6.155   6.090   8.159
    8SAPS  C313 1046   6.325   6.091   8.035
    8SAPS  H13X 1047   6.263   6.127   7.950
    8SAPS  H13Y 1048   6.325   5.980   8.032
    8SAPS  C314 1049   6.465   6.146   8.014
    8SAPS  H14X 1050   6.519   6.151   8.111
    8SAPS  H14Y 1051   6.456   6.251   7.979
    8SAPS  C315 1052   6.548   6.062   7.916
    8SAPS  H15X 1053   6.647   6.111   7.901
    8SAPS  H15Y 1054   6.496   6.061   7.818
    8SAPS  C316 1055   6.570   5.917   7.964
    8SAPS  H16X 1056   6.640   5.866   7.895
    8SAPS  H16Y 1057   6.474   5.862   7.955
    8SAPS  C317 1058   6.620   5.903   8.108
    8SAPS  H17X 1059   6.646   5.797   8.128
    8SAPS  H17Y 1060   6.532   5.927   8.172
    8SAPS  C318 1061   6.736   5.993   8.152
    8SAPS  H18X 1062   6.833   5.942   8.142
    8SAPS  H18Y 1063   6.723   6.021   8.259
    8SAPS  H18Z 1064   6.740   6.088   8.094
    9SAPS     N 1065   4.446   3.571   6.196
    9SAPS   HN1 1066   4.356   3.586   6.245
    9SAPS   HN2 1067   4.502   3.496   6.239
    9SAPS   HN3 1068   4.498   3.661   6.193
    9SAPS   C12 1069   4.420   3.540   6.052
    9SAPS  H12A 1070   4.332   3.478   6.043
    9SAPS   C13 1071   4.402   3.670   5.969
    9SAPS  O13A 1072   4.469   3.769   6.010
    9SAPS  O13B 1073   4.363   3.660   5.850
    9SAPS   C11 1074   4.545   3.466   5.997
    9SAPS  H11A 1075   4.587   3.403   6.078
    9SAPS  H11B 1076   4.626   3.538   5.973
    9SAPS     P 1077   4.492   3.234   5.889
    9SAPS   O13 1078   4.402   3.194   5.779
    9SAPS   O14 1079   4.626   3.172   5.895
    9SAPS   O12 1080   4.515   3.390   5.880
    9SAPS   O11 1081   4.420   3.221   6.030
    9SAPS    C1 1082   4.441   3.107   6.114
    9SAPS    HA 1083   4.342   3.075   6.154
    9SAPS    HB 1084   4.483   3.019   6.060
    9SAPS    C2 1085   4.531   3.138   6.237
    9SAPS    HS 1086   4.534   3.045   6.299
    9SAPS   O21 1087   4.479   3.252   6.309
    9SAPS   C21 1088   4.409   3.219   6.418
    9SAPS   O22 1089   4.376   3.107   6.448
    9SAPS   C22 1090   4.388   3.347   6.499
    9SAPS   H2R 1091   4.486   3.399   6.510
    9SAPS   H2S 1092   4.320   3.412   6.440
    9SAPS    C3 1093   4.679   3.164   6.199
    9SAPS    HX 1094   4.693   3.250   6.130
    9SAPS    HY 1095   4.715   3.075   6.143
    9SAPS   O31 1096   4.760   3.179   6.317
    9SAPS   C31 1097   4.759   3.296   6.379
    9SAPS   O32 1098   4.713   3.401   6.338
    9SAPS   C32 1099   4.822   3.269   6.516
    9SAPS   H2X 1100   4.931   3.253   6.502
    9SAPS   H2Y 1101   4.777   3.172   6.550
    9SAPS   C23 1102   4.326   3.327   6.640
    9SAPS   H3R 1103   4.232   3.268   6.635
    9SAPS   H3S 1104   4.297   3.428   6.677
    9SAPS   C24 1105   4.422   3.267   6.745
    9SAPS   H4R 1106   4.397   3.314   6.842
    9SAPS   H4S 1107   4.526   3.299   6.722
    9SAPS   C25 1108   4.415   3.117   6.755
    9SAPS   H5R 1109   4.453   3.061   6.668
    9SAPS   C26 1110   4.364   3.047   6.858
    9SAPS   H6R 1111   4.365   2.937   6.852
    9SAPS   C27 1112   4.305   3.103   6.985
    9SAPS   H7R 1113   4.225   3.035   7.021
    9SAPS   H7S 1114   4.253   3.199   6.963
    9SAPS   C28 1115   4.410   3.127   7.091
    9SAPS   H8R 1116   4.513   3.141   7.055
    9SAPS   C29 1117   4.386   3.132   7.223
    9SAPS   H9R 1118   4.470   3.149   7.291
    9SAPS  C210 1119   4.250   3.114   7.285
    9SAPS  H10R 1120   4.217   3.009   7.266
    9SAPS  H10S 1121   4.175   3.179   7.235
    9SAPS  C211 1122   4.249   3.136   7.434
    9SAPS  H11R 1123   4.341   3.108   7.485
    9SAPS  C212 1124   4.147   3.183   7.508
    9SAPS  H12R 1125   4.163   3.187   7.617
    9SAPS  C213 1126   4.008   3.224   7.466
    9SAPS  H13R 1127   3.939   3.210   7.552
    9SAPS  H13S 1128   3.972   3.152   7.390
    9SAPS  C214 1129   3.992   3.364   7.411
    9SAPS  H14R 1130   4.010   3.371   7.303
    9SAPS  C215 1131   3.958   3.477   7.476
    9SAPS  H15R 1132   3.947   3.570   7.417
    9SAPS  C216 1133   3.928   3.499   7.623
    9SAPS  H16R 1134   3.934   3.404   7.680
    9SAPS  H16S 1135   3.826   3.540   7.636
    9SAPS  C217 1136   4.031   3.600   7.678
    9SAPS  H17R 1137   4.024   3.694   7.619
    9SAPS  H17S 1138   4.132   3.557   7.659
    9SAPS  C218 1139   4.018   3.637   7.827
    9SAPS  H18R 1140   3.990   3.547   7.885
    9SAPS  H18S 1141   3.933   3.707   7.839
    9SAPS  C219 1142   4.145   3.699   7.890
    9SAPS  H19R 1143   4.130   3.700   8.001
    9SAPS  H19S 1144   4.153   3.805   7.860
    9SAPS  C220 1145   4.279   3.631   7.859
    9SAPS  H20R 1146   4.264   3.525   7.830
    9SAPS  H20S 1147   4.346   3.635   7.947
    9SAPS  H20T 1148   4.331   3.682   7.774
    9SAPS   C33 1149   4.798   3.370   6.630
    9SAPS   H3X 1150   4.692   3.401   6.635
    9SAPS   H3Y 1151   4.860   3.461   6.613
    9SAPS   C34 1152   4.838   3.302   6.762
    9SAPS   H4X 1153   4.943   3.266   6.752
    9SAPS   H4Y 1154   4.774   3.213   6.778
    9SAPS   C35 1155   4.830   3.390   6.887
    9SAPS   H5X 1156   4.879   3.488   6.868
    9SAPS   H5Y 1157   4.887   3.339   6.968
    9SAPS   C36 1158   4.687   3.411   6.938
    9SAPS   H6X 1159   4.639   3.312   6.952
    9SAPS   H6Y 1160   4.628   3.468   6.863
    9SAPS   C37 1161   4.687   3.486   7.071
    9SAPS   H7X 1162   4.727   3.589   7.056
    9SAPS   H7Y 1163   4.755   3.433   7.141
    9SAPS   C38 1164   4.549   3.494   7.137
    9SAPS   H8X 1165   4.508   3.390   7.145
    9SAPS   H8Y 1166   4.478   3.552   7.074
    9SAPS   C39 1167   4.557   3.554   7.278
    9SAPS   H9X 1168   4.532   3.662   7.274
    9SAPS   H9Y 1169   4.662   3.545   7.313
    9SAPS  C310 1170   4.468   3.481   7.381
    9SAPS  H10X 1171   4.490   3.373   7.379
    9SAPS  H10Y 1172   4.362   3.493   7.351
    9SAPS  C311 1173   4.486   3.535   7.523
    9SAPS  H11X 1174   4.399   3.504   7.585
    9SAPS  H11Y 1175   4.486   3.646   7.520
    9SAPS  C312 1176   4.616   3.488   7.593
    9SAPS  H12X 1177   4.620   3.537   7.693
    9SAPS  H12Y 1178   4.704   3.523   7.535
    9SAPS  C313 1179   4.628   3.336   7.613
    9SAPS  H13X 1180   4.719   3.318   7.674
    9SAPS  H13Y 1181   4.641   3.285   7.516
    9SAPS  C314 1182   4.507   3.276   7.687
    9SAPS  H14X 1183   4.417   3.283   7.622
    9SAPS  H14Y 1184   4.487   3.338   7.777
    9SAPS  C315 1185   4.526   3.130   7.730
    9SAPS  H15X 1186   4.614   3.124   7.797
    9SAPS  H15Y 1187   4.544   3.064   7.643
    9SAPS  C316 1188   4.402   3.082   7.808
    9SAPS  H16X 1189   4.317   3.071   7.737
    9SAPS  H16Y 1190   4.378   3.163   7.879
    9SAPS  C317 1191   4.415   2.954   7.891
    9SAPS  H17X 1192   4.454   2.871   7.829
    9SAPS  H17Y 1193   4.313   2.926   7.924
    9SAPS  C318 1194   4.501   2.973   8.017
    9SAPS  H18X 1195   4.608   2.983   7.988
    9SAPS  H18Y 1196   4.491   2.886   8.085
    9SAPS  H18Z 1197   4.471   3.065   8.071
   10SAPS     N 1198   5.786   2.253   5.718
   10SAPS   HN1 1199   5.846   2.179   5.677
   10SAPS   HN2 1200   5.763   2.322   5.644
   10SAPS   HN3 1201   5.834   2.300   5.798
   10SAPS   C12 1202   5.663   2.193   5.775
   10SAPS  H12A 1203   5.584   2.265   5.765
   10SAPS   C13 1204   5.618   2.061   5.708
   10SAPS  O13A 1205   5.689   2.012   5.616
   10SAPS  O13B 1206   5.499   2.025   5.728
   10SAPS   C11 1207   5.690   2.168   5.926
   10SAPS  H11A 1208   5.748   2.073   5.938
   10SAPS  H11B 1209   5.594   2.154   5.980
   10SAPS     P 1210   5.699   2.408   6.030
   10SAPS   O13 1211   5.803   2.512   6.028
   10SAPS   O14 1212   5.578   2.428   5.947
   10SAPS   O12 1213   5.768   2.274   5.982
   10SAPS   O11 1214   5.662   2.368   6.178
   10SAPS    C1 1215   5.768   2.318   6.261
   10SAPS    HA 1216   5.821   2.232   6.213
   10SAPS    HB 1217   5.842   2.398   6.282
   10SAPS    C2 1218   5.711   2.268   6.395
   10SAPS    HS 1219   5.640   2.186   6.369
   10SAPS   O21 1220   5.639   2.377   6.455
   10SAPS   C21 1221   5.571   2.345   6.563
   10SAPS   O22 1222   5.574   2.236   6.618
   10SAPS   C22 1223   5.494   2.465   6.616
   10SAPS   H2R 1224   5.535   2.486   6.717
   10SAPS   H2S 1225   5.513   2.554   6.551
   10SAPS    C3 1226   5.823   2.207   6.486
   10SAPS    HX 1227   5.898   2.156   6.421
   10SAPS    HY 1228   5.775   2.128   6.548
   10SAPS   O31 1229   5.887   2.310   6.565
   10SAPS   C31 1230   5.919   2.273   6.688
   10SAPS   O32 1231   5.933   2.158   6.727
   10SAPS   C32 1232   5.931   2.397   6.775
   10SAPS   H2X 1233   6.004   2.466   6.727
   10SAPS   H2Y 1234   5.970   2.365   6.874
   10SAPS   C23 1235   5.343   2.438   6.632
   10SAPS   H3R 1236   5.323   2.329   6.637
   10SAPS   H3S 1237   5.287   2.475   6.543
   10SAPS   C24 1238   5.288   2.497   6.763
   10SAPS   H4R 1239   5.349   2.457   6.847
   10SAPS   H4S 1240   5.185   2.460   6.779
   10SAPS   C25 1241   5.292   2.647   6.753
   10SAPS   H5R 1242   5.273   2.686   6.652
   10SAPS   C26 1243   5.305   2.735   6.854
   10SAPS   H6R 1244   5.303   2.842   6.830
   10SAPS   C27 1245   5.321   2.704   7.000
   10SAPS   H7R 1246   5.221   2.672   7.037
   10SAPS   H7S 1247   5.343   2.800   7.053
   10SAPS   C28 1248   5.426   2.605   7.043
   10SAPS   H8R 1249   5.515   2.600   6.979
   10SAPS   C29 1250   5.417   2.522   7.149
   10SAPS   H9R 1251   5.501   2.454   7.168
   10SAPS  C210 1252   5.304   2.511   7.248
   10SAPS  H10R 1253   5.341   2.446   7.330
   10SAPS  H10S 1254   5.221   2.455   7.201
   10SAPS  C211 1255   5.249   2.639   7.307
   10SAPS  H11R 1256   5.244   2.726   7.239
   10SAPS  C212 1257   5.208   2.659   7.433
   10SAPS  H12R 1258   5.175   2.760   7.461
   10SAPS  C213 1259   5.211   2.558   7.544
   10SAPS  H13R 1260   5.303   2.496   7.536
   10SAPS  H13S 1261   5.124   2.490   7.528
   10SAPS  C214 1262   5.206   2.612   7.684
   10SAPS  H14R 1263   5.240   2.716   7.697
   10SAPS  C215 1264   5.163   2.544   7.790
   10SAPS  H15R 1265   5.161   2.594   7.888
   10SAPS  C216 1266   5.111   2.402   7.792
   10SAPS  H16R 1267   5.094   2.360   7.690
   10SAPS  H16S 1268   5.013   2.400   7.845
   10SAPS  C217 1269   5.206   2.309   7.867
   10SAPS  H17R 1270   5.228   2.351   7.967
   10SAPS  H17S 1271   5.304   2.303   7.814
   10SAPS  C218 1272   5.147   2.169   7.885
   10SAPS  H18R 1273   5.168   2.107   7.796
   10SAPS  H18S 1274   5.036   2.176   7.895
   10SAPS  C219 1275   5.202   2.102   8.010
   10SAPS  H19R 1276   5.311   2.125   8.018
   10SAPS  H19S 1277   5.192   1.992   7.999
   10SAPS  C220 1278   5.130   2.148   8.137
   10SAPS  H20R 1279   5.127   2.259   8.142
   10SAPS  H20S 1280   5.181   2.111   8.229
   10SAPS  H20T 1281   5.025   2.110   8.138
   10SAPS   C33 1282   5.795   2.468   6.790
   10SAPS   H3X 1283   5.725   2.403   6.848
   10SAPS   H3Y 1284   5.753   2.483   6.689
   10SAPS   C34 1285   5.800   2.608   6.853
   10SAPS   H4X 1286   5.696   2.643   6.872
   10SAPS   H4Y 1287   5.844   2.677   6.778
   10SAPS   C35 1288   5.883   2.618   6.981
   10SAPS   H5X 1289   5.891   2.724   7.011
   10SAPS   H5Y 1290   5.986   2.585   6.955
   10SAPS   C36 1291   5.835   2.535   7.102
   10SAPS   H6X 1292   5.804   2.433   7.071
   10SAPS   H6Y 1293   5.747   2.585   7.147
   10SAPS   C37 1294   5.950   2.524   7.204
   10SAPS   H7X 1295   6.002   2.622   7.206
   10SAPS   H7Y 1296   6.020   2.448   7.164
   10SAPS   C38 1297   5.914   2.487   7.349
   10SAPS   H8X 1298   5.845   2.563   7.392
   10SAPS   H8Y 1299   6.008   2.491   7.408
   10SAPS   C39 1300   5.855   2.346   7.366
   10SAPS   H9X 1301   5.917   2.276   7.307
   10SAPS   H9Y 1302   5.752   2.343   7.325
   10SAPS  C310 1303   5.855   2.298   7.512
   10SAPS  H10X 1304   5.958   2.301   7.554
   10SAPS  H10Y 1305   5.825   2.191   7.511
   10SAPS  C311 1306   5.758   2.373   7.606
   10SAPS  H11X 1307   5.713   2.299   7.675
   10SAPS  H11Y 1308   5.675   2.416   7.545
   10SAPS  C312 1309   5.824   2.483   7.691
   10SAPS  H12X 1310   5.867   2.559   7.622
   10SAPS  H12Y 1311   5.909   2.442   7.751
   10SAPS  C313 1312   5.725   2.556   7.785
   10SAPS  H13X 1313   5.632   2.572   7.727
   10SAPS  H13Y 1314   5.766   2.655   7.812
   10SAPS  C314 1315   5.681   2.482   7.913
   10SAPS  H14X 1316   5.662   2.375   7.888
   10SAPS  H14Y 1317   5.584   2.524   7.947
   10SAPS  C315 1318   5.781   2.492   8.030
   10SAPS  H15X 1319   5.880   2.459   7.992
   10SAPS  H15Y 1320   5.751   2.420   8.110
   10SAPS  C316 1321   5.797   2.631   8.092
   10SAPS  H16X 1322   5.819   2.705   8.012
   10SAPS  H16Y 1323   5.885   2.630   8.160
   10SAPS  C317 1324   5.677   2.681   8.175
   10SAPS  H17X 1325   5.586   2.675   8.112
   10SAPS  H17Y 1326   5.694   2.788   8.199
   10SAPS  C318 1327   5.654   2.604   8.305
   10SAPS  H18X 1328   5.572   2.651   8.364
   10SAPS  H18Y 1329   5.746   2.605   8.367
   10SAPS  H18Z 1330   5.627   2.499   8.284
   11SAPS     N 1331   6.246   4.409   5.965
   11SAPS   HN1 1332   6.151   4.368   5.983
   11SAPS   HN2 1333   6.299   4.333   5.917
   11SAPS   HN3 1334   6.290   4.434   6.056
   11SAPS   C12 1335   6.233   4.527   5.877
   11SAPS  H12A 1336   6.332   4.554   5.843
   11SAPS   C13 1337   6.145   4.501   5.752
   11SAPS  O13A 1338   6.106   4.384   5.727
   11SAPS  O13B 1339   6.118   4.595   5.672
   11SAPS   C11 1340   6.178   4.646   5.960
   11SAPS  H11A 1341   6.216   4.639   6.064
   11SAPS  H11B 1342   6.067   4.640   5.965
   11SAPS     P 1343   6.324   4.863   5.966
   11SAPS   O13 1344   6.442   4.782   6.000
   11SAPS   O14 1345   6.336   4.980   5.877
   11SAPS   O12 1346   6.218   4.768   5.897
   11SAPS   O11 1347   6.243   4.902   6.096
   11SAPS    C1 1348   6.113   4.960   6.076
   11SAPS    HA 1349   6.126   5.066   6.043
   11SAPS    HB 1350   6.053   4.908   5.999
   11SAPS    C2 1351   6.029   4.960   6.207
   11SAPS    HS 1352   5.946   5.032   6.193
   11SAPS   O21 1353   6.113   5.001   6.318
   11SAPS   C21 1354   6.153   5.126   6.309
   11SAPS   O22 1355   6.106   5.211   6.236
   11SAPS   C22 1356   6.267   5.151   6.407
   11SAPS   H2R 1357   6.290   5.057   6.462
   11SAPS   H2S 1358   6.356   5.178   6.346
   11SAPS    C3 1359   5.962   4.821   6.234
   11SAPS    HX 1360   5.956   4.767   6.137
   11SAPS    HY 1361   5.858   4.841   6.267
   11SAPS   O31 1362   6.027   4.744   6.338
   11SAPS   C31 1363   6.061   4.620   6.311
   11SAPS   O32 1364   6.032   4.556   6.212
   11SAPS   C32 1365   6.144   4.563   6.426
   11SAPS   H2X 1366   6.230   4.510   6.380
   11SAPS   H2Y 1367   6.082   4.490   6.482
   11SAPS   C23 1368   6.234   5.267   6.503
   11SAPS   H3R 1369   6.212   5.358   6.442
   11SAPS   H3S 1370   6.322   5.291   6.567
   11SAPS   C24 1371   6.112   5.238   6.592
   11SAPS   H4R 1372   6.025   5.215   6.527
   11SAPS   H4S 1373   6.086   5.332   6.646
   11SAPS   C25 1374   6.135   5.124   6.687
   11SAPS   H5R 1375   6.212   5.051   6.659
   11SAPS   C26 1376   6.065   5.106   6.800
   11SAPS   H6R 1377   6.089   5.020   6.864
   11SAPS   C27 1378   5.954   5.197   6.846
   11SAPS   H7R 1379   5.866   5.189   6.779
   11SAPS   H7S 1380   5.987   5.303   6.839
   11SAPS   C28 1381   5.913   5.169   6.988
   11SAPS   H8R 1382   5.813   5.125   7.002
   11SAPS   C29 1383   5.986   5.201   7.095
   11SAPS   H9R 1384   5.948   5.181   7.196
   11SAPS  C210 1385   6.119   5.270   7.088
   11SAPS  H10R 1386   6.166   5.264   6.988
   11SAPS  H10S 1387   6.191   5.221   7.156
   11SAPS  C211 1388   6.093   5.415   7.122
   11SAPS  H11R 1389   6.071   5.481   7.037
   11SAPS  C212 1390   6.094   5.464   7.247
   11SAPS  H12R 1391   6.074   5.571   7.263
   11SAPS  C213 1392   6.123   5.382   7.369
   11SAPS  H13R 1393   6.224   5.413   7.404
   11SAPS  H13S 1394   6.132   5.273   7.347
   11SAPS  C214 1395   6.024   5.402   7.479
   11SAPS  H14R 1396   5.971   5.499   7.480
   11SAPS  C215 1397   5.997   5.314   7.577
   11SAPS  H15R 1398   5.933   5.348   7.659
   11SAPS  C216 1399   6.056   5.177   7.602
   11SAPS  H16R 1400   6.113   5.180   7.697
   11SAPS  H16S 1401   6.128   5.145   7.523
   11SAPS  C217 1402   5.945   5.071   7.614
   11SAPS  H17R 1403   5.921   5.031   7.513
   11SAPS  H17S 1404   5.853   5.119   7.653
   11SAPS  C218 1405   5.977   4.956   7.711
   11SAPS  H18R 1406   6.032   4.998   7.798
   11SAPS  H18S 1407   6.045   4.883   7.661
   11SAPS  C219 1408   5.851   4.886   7.763
   11SAPS  H19R 1409   5.801   4.833   7.679
   11SAPS  H19S 1410   5.779   4.964   7.797
   11SAPS  C220 1411   5.876   4.790   7.879
   11SAPS  H20R 1412   5.931   4.701   7.845
   11SAPS  H20S 1413   5.779   4.757   7.923
   11SAPS  H20T 1414   5.935   4.840   7.959
   11SAPS   C33 1415   6.197   4.673   6.521
   11SAPS   H3X 1416   6.115   4.713   6.584
   11SAPS   H3Y 1417   6.237   4.757   6.461
   11SAPS   C34 1418   6.311   4.623   6.609
   11SAPS   H4X 1419   6.391   4.582   6.544
   11SAPS   H4Y 1420   6.277   4.541   6.676
   11SAPS   C35 1421   6.368   4.738   6.691
   11SAPS   H5X 1422   6.293   4.768   6.767
   11SAPS   H5Y 1423   6.384   4.826   6.624
   11SAPS   C36 1424   6.502   4.702   6.755
   11SAPS   H6X 1425   6.576   4.680   6.675
   11SAPS   H6Y 1426   6.491   4.612   6.818
   11SAPS   C37 1427   6.554   4.817   6.841
   11SAPS   H7X 1428   6.563   4.909   6.779
   11SAPS   H7Y 1429   6.655   4.791   6.879
   11SAPS   C38 1430   6.462   4.846   6.960
   11SAPS   H8X 1431   6.391   4.761   6.972
   11SAPS   H8Y 1432   6.401   4.937   6.941
   11SAPS   C39 1433   6.540   4.859   7.090
   11SAPS   H9X 1434   6.610   4.946   7.086
   11SAPS   H9Y 1435   6.600   4.768   7.105
   11SAPS  C310 1436   6.444   4.875   7.206
   11SAPS  H10X 1437   6.370   4.792   7.204
   11SAPS  H10Y 1438   6.387   4.970   7.198
   11SAPS  C311 1439   6.517   4.871   7.339
   11SAPS  H11X 1440   6.584   4.959   7.349
   11SAPS  H11Y 1441   6.581   4.780   7.344
   11SAPS  C312 1442   6.416   4.868   7.452
   11SAPS  H12X 1443   6.349   4.780   7.440
   11SAPS  H12Y 1444   6.353   4.959   7.447
   11SAPS  C313 1445   6.484   4.861   7.587
   11SAPS  H13X 1446   6.558   4.943   7.597
   11SAPS  H13Y 1447   6.540   4.765   7.597
   11SAPS  C314 1448   6.380   4.869   7.698
   11SAPS  H14X 1449   6.294   4.931   7.666
   11SAPS  H14Y 1450   6.428   4.923   7.782
   11SAPS  C315 1451   6.334   4.729   7.739
   11SAPS  H15X 1452   6.423   4.668   7.765
   11SAPS  H15Y 1453   6.285   4.679   7.652
   11SAPS  C316 1454   6.238   4.728   7.858
   11SAPS  H16X 1455   6.224   4.624   7.894
   11SAPS  H16Y 1456   6.139   4.767   7.824
   11SAPS  C317 1457   6.287   4.816   7.972
   11SAPS  H17X 1458   6.218   4.803   8.059
   11SAPS  H17Y 1459   6.277   4.922   7.941
   11SAPS  C318 1460   6.431   4.787   8.014
   11SAPS  H18X 1461   6.505   4.813   7.935
   11SAPS  H18Y 1462   6.443   4.679   8.037
   11SAPS  H18Z 1463   6.457   4.847   8.104
   12SAPS     N 1464   4.702   7.123   5.812
   12SAPS   HN1 1465   4.660   7.030   5.833
   12SAPS   HN2 1466   4.692   7.142   5.711
   12SAPS   HN3 1467   4.800   7.130   5.844
   12SAPS   C12 1468   4.617   7.227   5.877
   12SAPS  H12A 1469   4.680   7.291   5.937
   12SAPS   C13 1470   4.551   7.315   5.765
   12SAPS  O13A 1471   4.575   7.283   5.645
   12SAPS  O13B 1472   4.518   7.432   5.795
   12SAPS   C11 1473   4.509   7.157   5.966
   12SAPS  H11A 1474   4.429   7.114   5.903
   12SAPS  H11B 1475   4.460   7.237   6.027
   12SAPS     P 1476   4.561   6.904   6.027
   12SAPS   O13 1477   4.447   6.835   6.089
   12SAPS   O14 1478   4.578   6.892   5.880
   12SAPS   O12 1479   4.564   7.059   6.057
   12SAPS   O11 1480   4.698   6.858   6.091
   12SAPS    C1 1481   4.746   6.928   6.207
   12SAPS    HA 1482   4.816   7.008   6.175
   12SAPS    HB 1483   4.665   6.978   6.265
   12SAPS    C2 1484   4.819   6.833   6.306
   12SAPS    HS 1485   4.849   6.741   6.253
   12SAPS   O21 1486   4.728   6.804   6.414
   12SAPS   C21 1487   4.771   6.723   6.509
   12SAPS   O22 1488   4.870   6.653   6.504
   12SAPS   C22 1489   4.671   6.730   6.625
   12SAPS   H2R 1490   4.615   6.826   6.619
   12SAPS   H2S 1491   4.599   6.648   6.606
   12SAPS    C3 1492   4.945   6.907   6.358
   12SAPS    HX 1493   5.011   6.928   6.271
   12SAPS    HY 1494   5.003   6.842   6.427
   12SAPS   O31 1495   4.901   7.031   6.414
   12SAPS   C31 1496   4.915   7.043   6.545
   12SAPS   O32 1497   4.988   6.975   6.615
   12SAPS   C32 1498   4.824   7.154   6.594
   12SAPS   H2X 1499   4.719   7.117   6.592
   12SAPS   H2Y 1500   4.832   7.241   6.525
   12SAPS   C23 1501   4.731   6.712   6.766
   12SAPS   H3R 1502   4.793   6.620   6.772
   12SAPS   H3S 1503   4.645   6.698   6.836
   12SAPS   C24 1504   4.811   6.834   6.810
   12SAPS   H4R 1505   4.785   6.915   6.739
   12SAPS   H4S 1506   4.919   6.813   6.796
   12SAPS   C25 1507   4.779   6.888   6.947
   12SAPS   H5R 1508   4.672   6.908   6.963
   12SAPS   C26 1509   4.866   6.914   7.046
   12SAPS   H6R 1510   4.828   6.955   7.141
   12SAPS   C27 1511   5.015   6.894   7.043
   12SAPS   H7R 1512   5.065   6.977   7.097
   12SAPS   H7S 1513   5.052   6.900   6.938
   12SAPS   C28 1514   5.048   6.758   7.099
   12SAPS   H8R 1515   4.984   6.677   7.062
   12SAPS   C29 1516   5.147   6.726   7.185
   12SAPS   H9R 1517   5.158   6.621   7.215
   12SAPS  C210 1518   5.249   6.820   7.245
   12SAPS  H10R 1519   5.211   6.924   7.239
   12SAPS  H10S 1520   5.341   6.819   7.184
   12SAPS  C211 1521   5.286   6.788   7.389
   12SAPS  H11R 1522   5.357   6.706   7.400
   12SAPS  C212 1523   5.241   6.851   7.500
   12SAPS  H12R 1524   5.278   6.814   7.597
   12SAPS  C213 1525   5.144   6.966   7.513
   12SAPS  H13R 1526   5.202   7.061   7.510
   12SAPS  H13S 1527   5.101   6.963   7.616
   12SAPS  C214 1528   5.028   6.976   7.417
   12SAPS  H14R 1529   5.022   6.896   7.342
   12SAPS  C215 1530   4.933   7.071   7.414
   12SAPS  H15R 1531   4.854   7.067   7.337
   12SAPS  C216 1532   4.925   7.186   7.509
   12SAPS  H16R 1533   4.897   7.280   7.456
   12SAPS  H16S 1534   5.025   7.205   7.555
   12SAPS  C217 1535   4.826   7.161   7.624
   12SAPS  H17R 1536   4.838   7.057   7.663
   12SAPS  H17S 1537   4.721   7.171   7.587
   12SAPS  C218 1538   4.853   7.259   7.738
   12SAPS  H18R 1539   4.842   7.362   7.698
   12SAPS  H18S 1540   4.959   7.244   7.768
   12SAPS  C219 1541   4.767   7.242   7.863
   12SAPS  H19R 1542   4.662   7.222   7.834
   12SAPS  H19S 1543   4.768   7.338   7.918
   12SAPS  C220 1544   4.817   7.132   7.956
   12SAPS  H20R 1545   4.754   7.128   8.048
   12SAPS  H20S 1546   4.922   7.152   7.986
   12SAPS  H20T 1547   4.813   7.033   7.906
   12SAPS   C33 1548   4.863   7.196   6.737
   12SAPS   H3X 1549   4.967   7.234   6.736
   12SAPS   H3Y 1550   4.861   7.109   6.807
   12SAPS   C34 1551   4.772   7.305   6.791
   12SAPS   H4X 1552   4.764   7.385   6.715
   12SAPS   H4Y 1553   4.823   7.346   6.881
   12SAPS   C35 1554   4.630   7.261   6.832
   12SAPS   H5X 1555   4.612   7.156   6.801
   12SAPS   H5Y 1556   4.556   7.325   6.779
   12SAPS   C36 1557   4.609   7.276   6.983
   12SAPS   H6X 1558   4.633   7.380   7.014
   12SAPS   H6Y 1559   4.682   7.210   7.035
   12SAPS   C37 1560   4.466   7.245   7.028
   12SAPS   H7X 1561   4.438   7.143   6.993
   12SAPS   H7Y 1562   4.396   7.316   6.977
   12SAPS   C38 1563   4.444   7.255   7.180
   12SAPS   H8X 1564   4.339   7.227   7.202
   12SAPS   H8Y 1565   4.457   7.361   7.212
   12SAPS   C39 1566   4.537   7.166   7.265
   12SAPS   H9X 1567   4.498   7.161   7.368
   12SAPS   H9Y 1568   4.639   7.210   7.269
   12SAPS  C310 1569   4.547   7.024   7.206
   12SAPS  H10X 1570   4.613   7.026   7.117
   12SAPS  H10Y 1571   4.446   6.996   7.168
   12SAPS  C311 1572   4.595   6.915   7.303
   12SAPS  H11X 1573   4.549   6.930   7.403
   12SAPS  H11Y 1574   4.705   6.921   7.316
   12SAPS  C312 1575   4.555   6.777   7.250
   12SAPS  H12X 1576   4.515   6.791   7.147
   12SAPS  H12Y 1577   4.472   6.737   7.312
   12SAPS  C313 1578   4.667   6.673   7.240
   12SAPS  H13X 1579   4.750   6.707   7.175
   12SAPS  H13Y 1580   4.621   6.585   7.190
   12SAPS  C314 1581   4.720   6.620   7.374
   12SAPS  H14X 1582   4.744   6.512   7.359
   12SAPS  H14Y 1583   4.639   6.628   7.450
   12SAPS  C315 1584   4.848   6.688   7.422
   12SAPS  H15X 1585   4.831   6.740   7.518
   12SAPS  H15Y 1586   4.871   6.765   7.346
   12SAPS  C316 1587   4.969   6.593   7.430
   12SAPS  H16X 1588   5.060   6.656   7.429
   12SAPS  H16Y 1589   4.971   6.530   7.339
   12SAPS  C317 1590   4.981   6.505   7.555
   12SAPS  H17X 1591   5.066   6.435   7.540
   12SAPS  H17Y 1592   4.889   6.443   7.564
   12SAPS  C318 1593   5.006   6.584   7.684
   12SAPS  H18X 1594   5.103   6.639   7.677
   12SAPS  H18Y 1595   5.010   6.516   7.772
   12SAPS  H18Z 1596   4.926   6.659   7.702
   13SAPS     N 1597   7.118   2.168   5.912
   13SAPS   HN1 1598   7.143   2.083   5.967
   13SAPS   HN2 1599   7.188   2.185   5.837
   13SAPS   HN3 1600   7.106   2.249   5.976
   13SAPS   C12 1601   6.983   2.143   5.851
   13SAPS  H12A 1602   6.962   2.227   5.786
   13SAPS   C13 1603   6.977   2.015   5.762
   13SAPS  O13A 1604   7.087   1.966   5.724
   13SAPS  O13B 1605   6.870   1.992   5.698
   13SAPS   C11 1606   6.882   2.148   5.968
   13SAPS  H11A 1607   6.898   2.061   6.035
   13SAPS  H11B 1608   6.779   2.142   5.928
   13SAPS     P 1609   6.844   2.297   6.182
   13SAPS   O13 1610   6.898   2.426   6.233
   13SAPS   O14 1611   6.698   2.280   6.177
   13SAPS   O12 1612   6.903   2.273   6.037
   13SAPS   O11 1613   6.912   2.176   6.260
   13SAPS    C1 1614   7.049   2.184   6.299
   13SAPS    HA 1615   7.116   2.190   6.211
   13SAPS    HB 1616   7.066   2.275   6.361
   13SAPS    C2 1617   7.093   2.062   6.386
   13SAPS    HS 1618   7.094   1.974   6.319
   13SAPS   O21 1619   7.002   2.046   6.496
   13SAPS   C21 1620   6.907   1.956   6.479
   13SAPS   O22 1621   6.896   1.880   6.384
   13SAPS   C22 1622   6.818   1.956   6.603
   13SAPS   H2R 1623   6.855   1.875   6.670
   13SAPS   H2S 1624   6.830   2.053   6.656
   13SAPS    C3 1625   7.239   2.075   6.441
   13SAPS    HX 1626   7.300   2.128   6.365
   13SAPS    HY 1627   7.280   1.972   6.448
   13SAPS   O31 1628   7.249   2.145   6.567
   13SAPS   C31 1629   7.231   2.068   6.675
   13SAPS   O32 1630   7.220   1.947   6.674
   13SAPS   C32 1631   7.225   2.153   6.802
   13SAPS   H2X 1632   7.256   2.257   6.776
   13SAPS   H2Y 1633   7.299   2.112   6.874
   13SAPS   C23 1634   6.670   1.932   6.569
   13SAPS   H3R 1635   6.660   1.835   6.515
   13SAPS   H3S 1636   6.633   2.012   6.501
   13SAPS   C24 1637   6.581   1.925   6.695
   13SAPS   H4R 1638   6.626   1.850   6.763
   13SAPS   H4S 1639   6.482   1.886   6.664
   13SAPS   C25 1640   6.559   2.058   6.763
   13SAPS   H5R 1641   6.501   2.130   6.704
   13SAPS   C26 1642   6.605   2.097   6.884
   13SAPS   H6R 1643   6.581   2.199   6.917
   13SAPS   C27 1644   6.690   2.019   6.982
   13SAPS   H7R 1645   6.703   2.083   7.072
   13SAPS   H7S 1646   6.792   2.009   6.939
   13SAPS   C28 1647   6.645   1.884   7.031
   13SAPS   H8R 1648   6.547   1.851   6.996
   13SAPS   C29 1649   6.717   1.805   7.114
   13SAPS   H9R 1650   6.676   1.708   7.144
   13SAPS  C210 1651   6.853   1.837   7.172
   13SAPS  H10R 1652   6.858   1.796   7.275
   13SAPS  H10S 1653   6.864   1.947   7.184
   13SAPS  C211 1654   6.966   1.780   7.091
   13SAPS  H11R 1655   6.942   1.690   7.033
   13SAPS  C212 1656   7.092   1.829   7.083
   13SAPS  H12R 1657   7.165   1.778   7.018
   13SAPS  C213 1658   7.144   1.952   7.154
   13SAPS  H13R 1659   7.062   2.025   7.169
   13SAPS  H13S 1660   7.217   2.002   7.087
   13SAPS  C214 1661   7.211   1.924   7.286
   13SAPS  H14R 1662   7.232   1.818   7.308
   13SAPS  C215 1663   7.244   2.017   7.377
   13SAPS  H15R 1664   7.294   1.986   7.470
   13SAPS  C216 1665   7.219   2.165   7.364
   13SAPS  H16R 1666   7.125   2.187   7.309
   13SAPS  H16S 1667   7.302   2.212   7.307
   13SAPS  C217 1668   7.211   2.233   7.502
   13SAPS  H17R 1669   7.200   2.343   7.488
   13SAPS  H17S 1670   7.308   2.218   7.554
   13SAPS  C218 1671   7.098   2.183   7.592
   13SAPS  H18R 1672   7.089   2.072   7.586
   13SAPS  H18S 1673   7.002   2.227   7.557
   13SAPS  C219 1674   7.120   2.219   7.740
   13SAPS  H19R 1675   7.143   2.328   7.745
   13SAPS  H19S 1676   7.210   2.165   7.777
   13SAPS  C220 1677   7.000   2.187   7.829
   13SAPS  H20R 1678   6.984   2.077   7.833
   13SAPS  H20S 1679   6.908   2.235   7.788
   13SAPS  H20T 1680   7.017   2.225   7.932
   13SAPS   C33 1681   7.083   2.152   6.863
   13SAPS   H3X 1682   7.059   2.049   6.897
   13SAPS   H3Y 1683   7.009   2.179   6.785
   13SAPS   C34 1684   7.065   2.248   6.982
   13SAPS   H4X 1685   7.087   2.352   6.950
   13SAPS   H4Y 1686   7.136   2.224   7.064
   13SAPS   C35 1687   6.921   2.249   7.034
   13SAPS   H5X 1688   6.904   2.155   7.091
   13SAPS   H5Y 1689   6.851   2.250   6.947
   13SAPS   C36 1690   6.889   2.369   7.122
   13SAPS   H6X 1691   6.899   2.463   7.064
   13SAPS   H6Y 1692   6.964   2.373   7.204
   13SAPS   C37 1693   6.748   2.363   7.184
   13SAPS   H7X 1694   6.733   2.261   7.226
   13SAPS   H7Y 1695   6.671   2.380   7.107
   13SAPS   C38 1696   6.736   2.465   7.298
   13SAPS   H8X 1697   6.756   2.566   7.256
   13SAPS   H8Y 1698   6.817   2.440   7.369
   13SAPS   C39 1699   6.603   2.469   7.375
   13SAPS   H9X 1700   6.527   2.516   7.309
   13SAPS   H9Y 1701   6.614   2.535   7.463
   13SAPS  C310 1702   6.548   2.333   7.420
   13SAPS  H10X 1703   6.536   2.268   7.331
   13SAPS  H10Y 1704   6.446   2.346   7.464
   13SAPS  C311 1705   6.639   2.266   7.522
   13SAPS  H11X 1706   6.625   2.311   7.623
   13SAPS  H11Y 1707   6.744   2.284   7.493
   13SAPS  C312 1708   6.621   2.114   7.527
   13SAPS  H12X 1709   6.614   2.076   7.423
   13SAPS  H12Y 1710   6.526   2.088   7.580
   13SAPS  C313 1711   6.741   2.049   7.594
   13SAPS  H13X 1712   6.745   2.076   7.702
   13SAPS  H13Y 1713   6.833   2.089   7.546
   13SAPS  C314 1714   6.743   1.898   7.577
   13SAPS  H14X 1715   6.723   1.871   7.471
   13SAPS  H14Y 1716   6.659   1.855   7.638
   13SAPS  C315 1717   6.877   1.837   7.618
   13SAPS  H15X 1718   6.909   1.878   7.717
   13SAPS  H15Y 1719   6.954   1.866   7.543
   13SAPS  C316 1720   6.870   1.684   7.628
   13SAPS  H16X 1721   6.971   1.640   7.626
   13SAPS  H16Y 1722   6.815   1.647   7.539
   13SAPS  C317 1723   6.797   1.640   7.755
   13SAPS  H17X 1724   6.732   1.723   7.789
   13SAPS  H17Y 1725   6.871   1.626   7.837
   13SAPS  C318 1726   6.711   1.515   7.737
   13SAPS  H18X 1727   6.662   1.488   7.833
   13SAPS  H18Y 1728   6.769   1.428   7.701
   13SAPS  H18Z 1729   6.632   1.532   7.660
   14SAPS     N 1730   6.478   6.176   6.130
   14SAPS   HN1 1731   6.426   6.266   6.136
   14SAPS   HN2 1732   6.425   6.097   6.174
   14SAPS   HN3 1733   6.573   6.191   6.170
   14SAPS   C12 1734   6.486   6.146   5.984
   14SAPS  H12A 1735   6.588   6.120   5.961
   14SAPS   C13 1736   6.399   6.027   5.940
   14SAPS  O13A 1737   6.332   5.966   6.027
   14SAPS  O13B 1738   6.402   5.994   5.818
   14SAPS   C11 1739   6.441   6.273   5.909
   14SAPS  H11A 1740   6.330   6.279   5.910
   14SAPS  H11B 1741   6.470   6.264   5.802
   14SAPS     P 1742   6.642   6.437   5.942
   14SAPS   O13 1743   6.660   6.438   5.796
   14SAPS   O14 1744   6.665   6.562   6.015
   14SAPS   O12 1745   6.492   6.393   5.969
   14SAPS   O11 1746   6.720   6.313   6.005
   14SAPS    C1 1747   6.839   6.329   6.084
   14SAPS    HA 1748   6.917   6.261   6.044
   14SAPS    HB 1749   6.881   6.431   6.077
   14SAPS    C2 1750   6.825   6.293   6.236
   14SAPS    HS 1751   6.926   6.265   6.273
   14SAPS   O21 1752   6.729   6.187   6.259
   14SAPS   C21 1753   6.784   6.066   6.247
   14SAPS   O22 1754   6.889   6.041   6.191
   14SAPS   C22 1755   6.694   5.963   6.315
   14SAPS   H2R 1756   6.607   6.013   6.364
   14SAPS   H2S 1757   6.657   5.896   6.235
   14SAPS    C3 1758   6.784   6.416   6.320
   14SAPS    HX 1759   6.861   6.494   6.302
   14SAPS    HY 1760   6.786   6.389   6.428
   14SAPS   O31 1761   6.652   6.462   6.284
   14SAPS   C31 1762   6.631   6.588   6.324
   14SAPS   O32 1763   6.702   6.650   6.400
   14SAPS   C32 1764   6.494   6.634   6.276
   14SAPS   H2X 1765   6.498   6.646   6.165
   14SAPS   H2Y 1766   6.473   6.733   6.322
   14SAPS   C23 1767   6.771   5.879   6.420
   14SAPS   H3R 1768   6.877   5.865   6.390
   14SAPS   H3S 1769   6.724   5.778   6.422
   14SAPS   C24 1770   6.764   5.933   6.564
   14SAPS   H4R 1771   6.810   5.854   6.627
   14SAPS   H4S 1772   6.657   5.938   6.594
   14SAPS   C25 1773   6.836   6.063   6.590
   14SAPS   H5R 1774   6.929   6.076   6.532
   14SAPS   C26 1775   6.801   6.161   6.676
   14SAPS   H6R 1776   6.866   6.249   6.685
   14SAPS   C27 1777   6.681   6.163   6.767
   14SAPS   H7R 1778   6.614   6.077   6.742
   14SAPS   H7S 1779   6.620   6.254   6.745
   14SAPS   C28 1780   6.711   6.160   6.915
   14SAPS   H8R 1781   6.750   6.254   6.957
   14SAPS   C29 1782   6.692   6.054   6.997
   14SAPS   H9R 1783   6.718   6.066   7.103
   14SAPS  C210 1784   6.639   5.918   6.958
   14SAPS  H10R 1785   6.563   5.927   6.878
   14SAPS  H10S 1786   6.585   5.872   7.043
   14SAPS  C211 1787   6.752   5.831   6.908
   14SAPS  H11R 1788   6.811   5.879   6.828
   14SAPS  C212 1789   6.795   5.711   6.952
   14SAPS  H12R 1790   6.882   5.665   6.901
   14SAPS  C213 1791   6.742   5.628   7.066
   14SAPS  H13R 1792   6.721   5.525   7.031
   14SAPS  H13S 1793   6.644   5.667   7.102
   14SAPS  C214 1794   6.839   5.623   7.182
   14SAPS  H14R 1795   6.910   5.540   7.182
   14SAPS  C215 1796   6.842   5.712   7.282
   14SAPS  H15R 1797   6.917   5.701   7.362
   14SAPS  C216 1798   6.748   5.830   7.293
   14SAPS  H16R 1799   6.650   5.798   7.334
   14SAPS  H16S 1800   6.726   5.867   7.191
   14SAPS  C217 1801   6.799   5.954   7.368
   14SAPS  H17R 1802   6.714   6.024   7.383
   14SAPS  H17S 1803   6.868   6.007   7.299
   14SAPS  C218 1804   6.868   5.928   7.502
   14SAPS  H18R 1805   6.881   5.820   7.521
   14SAPS  H18S 1806   6.805   5.967   7.586
   14SAPS  C219 1807   7.004   5.997   7.504
   14SAPS  H19R 1808   6.988   6.100   7.541
   14SAPS  H19S 1809   7.042   6.003   7.400
   14SAPS  C220 1810   7.114   5.928   7.583
   14SAPS  H20R 1811   7.187   6.003   7.622
   14SAPS  H20S 1812   7.172   5.857   7.520
   14SAPS  H20T 1813   7.076   5.869   7.669
   14SAPS   C33 1814   6.384   6.536   6.318
   14SAPS   H3X 1815   6.405   6.437   6.273
   14SAPS   H3Y 1816   6.286   6.571   6.280
   14SAPS   C34 1817   6.378   6.526   6.471
   14SAPS   H4X 1818   6.346   6.624   6.511
   14SAPS   H4Y 1819   6.478   6.505   6.514
   14SAPS   C35 1820   6.285   6.415   6.517
   14SAPS   H5X 1821   6.187   6.422   6.464
   14SAPS   H5Y 1822   6.265   6.430   6.625
   14SAPS   C36 1823   6.348   6.277   6.493
   14SAPS   H6X 1824   6.452   6.275   6.531
   14SAPS   H6Y 1825   6.351   6.258   6.384
   14SAPS   C37 1826   6.267   6.165   6.559
   14SAPS   H7X 1827   6.271   6.074   6.496
   14SAPS   H7Y 1828   6.162   6.199   6.565
   14SAPS   C38 1829   6.317   6.127   6.699
   14SAPS   H8X 1830   6.420   6.087   6.691
   14SAPS   H8Y 1831   6.255   6.044   6.739
   14SAPS   C39 1832   6.314   6.242   6.800
   14SAPS   H9X 1833   6.215   6.293   6.796
   14SAPS   H9Y 1834   6.392   6.317   6.774
   14SAPS  C310 1835   6.337   6.192   6.942
   14SAPS  H10X 1836   6.430   6.132   6.946
   14SAPS  H10Y 1837   6.254   6.123   6.969
   14SAPS  C311 1838   6.344   6.304   7.046
   14SAPS  H11X 1839   6.259   6.375   7.033
   14SAPS  H11Y 1840   6.438   6.360   7.032
   14SAPS  C312 1841   6.338   6.240   7.185
   14SAPS  H12X 1842   6.415   6.160   7.187
   14SAPS  H12Y 1843   6.239   6.193   7.199
   14SAPS  C313 1844   6.367   6.335   7.300
   14SAPS  H13X 1845   6.349   6.279   7.395
   14SAPS  H13Y 1846   6.297   6.422   7.300
   14SAPS  C314 1847   6.511   6.384   7.299
   14SAPS  H14X 1848   6.517   6.479   7.241
   14SAPS  H14Y 1849   6.577   6.311   7.249
   14SAPS  C315 1850   6.562   6.407   7.441
   14SAPS  H15X 1851   6.482   6.456   7.501
   14SAPS  H15Y 1852   6.648   6.478   7.436
   14SAPS  C316 1853   6.612   6.278   7.508
   14SAPS  H16X 1854   6.685   6.229   7.441
   14SAPS  H16Y 1855   6.527   6.209   7.524
   14SAPS  C317 1856   6.682   6.305   7.642
   14SAPS  H17X 1857   6.773   6.365   7.622
   14SAPS  H17Y 1858   6.717   6.209   7.686
   14SAPS  C318 1859   6.596   6.379   7.743
   14SAPS  H18X 1860   6.547   6.469   7.700
   14SAPS  H18Y 1861   6.660   6.415   7.827
   14SAPS  H18Z 1862   6.516   6.312   7.783
   15SAPS     N 1863   7.179   5.470   5.985
   15SAPS   HN1 1864   7.184   5.366   5.984
   15SAPS   HN2 1865   7.226   5.513   6.067
   15SAPS   HN3 1866   7.078   5.498   5.984
   15SAPS   C12 1867   7.239   5.524   5.859
   15SAPS  H12A 1868   7.338   5.481   5.849
   15SAPS   C13 1869   7.159   5.485   5.733
   15SAPS  O13A 1870   7.064   5.404   5.743
   15SAPS  O13B 1871   7.184   5.544   5.625
   15SAPS   C11 1872   7.254   5.678   5.874
   15SAPS  H11A 1873   7.154   5.723   5.890
   15SAPS  H11B 1874   7.294   5.718   5.778
   15SAPS     P 1875   7.315   5.808   6.095
   15SAPS   O13 1876   7.434   5.817   6.181
   15SAPS   O14 1877   7.263   5.933   6.035
   15SAPS   O12 1878   7.348   5.708   5.977
   15SAPS   O11 1879   7.200   5.725   6.165
   15SAPS    C1 1880   7.115   5.787   6.262
   15SAPS    HA 1881   7.093   5.893   6.239
   15SAPS    HB 1882   7.016   5.735   6.259
   15SAPS    C2 1883   7.167   5.773   6.409
   15SAPS    HS 1884   7.084   5.796   6.479
   15SAPS   O21 1885   7.278   5.861   6.434
   15SAPS   C21 1886   7.249   5.987   6.452
   15SAPS   O22 1887   7.139   6.040   6.440
   15SAPS   C22 1888   7.373   6.062   6.502
   15SAPS   H2R 1889   7.442   6.071   6.416
   15SAPS   H2S 1890   7.339   6.162   6.536
   15SAPS    C3 1891   7.215   5.629   6.440
   15SAPS    HX 1892   7.287   5.603   6.360
   15SAPS    HY 1893   7.128   5.561   6.434
   15SAPS   O31 1894   7.276   5.622   6.572
   15SAPS   C31 1895   7.365   5.524   6.583
   15SAPS   O32 1896   7.379   5.433   6.504
   15SAPS   C32 1897   7.449   5.543   6.710
   15SAPS   H2X 1898   7.477   5.650   6.717
   15SAPS   H2Y 1899   7.542   5.483   6.698
   15SAPS   C23 1900   7.444   5.988   6.618
   15SAPS   H3R 1901   7.531   6.049   6.650
   15SAPS   H3S 1902   7.483   5.891   6.579
   15SAPS   C24 1903   7.352   5.961   6.738
   15SAPS   H4R 1904   7.267   5.897   6.706
   15SAPS   H4S 1905   7.309   6.057   6.774
   15SAPS   C25 1906   7.428   5.890   6.847
   15SAPS   H5R 1907   7.519   5.838   6.814
   15SAPS   C26 1908   7.396   5.887   6.977
   15SAPS   H6R 1909   7.461   5.832   7.046
   15SAPS   C27 1910   7.278   5.953   7.042
   15SAPS   H7R 1911   7.202   5.987   6.968
   15SAPS   H7S 1912   7.316   6.044   7.092
   15SAPS   C28 1913   7.212   5.864   7.144
   15SAPS   H8R 1914   7.124   5.809   7.109
   15SAPS   C29 1915   7.251   5.848   7.272
   15SAPS   H9R 1916   7.193   5.778   7.334
   15SAPS  C210 1917   7.368   5.914   7.342
   15SAPS  H10R 1918   7.329   5.994   7.409
   15SAPS  H10S 1919   7.432   5.968   7.269
   15SAPS  C211 1920   7.453   5.817   7.420
   15SAPS  H11R 1921   7.491   5.733   7.360
   15SAPS  C212 1922   7.490   5.822   7.550
   15SAPS  H12R 1923   7.552   5.740   7.590
   15SAPS  C213 1924   7.454   5.928   7.652
   15SAPS  H13R 1925   7.373   5.889   7.716
   15SAPS  H13S 1926   7.413   6.019   7.603
   15SAPS  C214 1927   7.573   5.968   7.736
   15SAPS  H14R 1928   7.638   6.042   7.688
   15SAPS  C215 1929   7.604   5.923   7.859
   15SAPS  H15R 1930   7.696   5.962   7.906
   15SAPS  C216 1931   7.528   5.823   7.942
   15SAPS  H16R 1932   7.599   5.750   7.986
   15SAPS  H16S 1933   7.457   5.765   7.879
   15SAPS  C217 1934   7.449   5.883   8.060
   15SAPS  H17R 1935   7.395   5.974   8.026
   15SAPS  H17S 1936   7.519   5.914   8.141
   15SAPS  C218 1937   7.351   5.784   8.122
   15SAPS  H18R 1938   7.406   5.698   8.165
   15SAPS  H18S 1939   7.285   5.744   8.042
   15SAPS  C219 1940   7.263   5.846   8.231
   15SAPS  H19R 1941   7.208   5.933   8.189
   15SAPS  H19S 1942   7.328   5.886   8.312
   15SAPS  C220 1943   7.162   5.747   8.288
   15SAPS  H20R 1944   7.214   5.667   8.345
   15SAPS  H20S 1945   7.103   5.699   8.208
   15SAPS  H20T 1946   7.092   5.800   8.357
   15SAPS   C33 1947   7.372   5.497   6.836
   15SAPS   H3X 1948   7.349   5.389   6.826
   15SAPS   H3Y 1949   7.277   5.554   6.844
   15SAPS   C34 1950   7.448   5.513   6.969
   15SAPS   H4X 1951   7.460   5.620   6.995
   15SAPS   H4Y 1952   7.550   5.469   6.959
   15SAPS   C35 1953   7.372   5.441   7.082
   15SAPS   H5X 1954   7.351   5.337   7.049
   15SAPS   H5Y 1955   7.274   5.491   7.096
   15SAPS   C36 1956   7.445   5.434   7.217
   15SAPS   H6X 1957   7.545   5.482   7.208
   15SAPS   H6Y 1958   7.460   5.328   7.247
   15SAPS   C37 1959   7.365   5.497   7.330
   15SAPS   H7X 1960   7.330   5.596   7.293
   15SAPS   H7Y 1961   7.430   5.514   7.418
   15SAPS   C38 1962   7.243   5.414   7.374
   15SAPS   H8X 1963   7.275   5.337   7.447
   15SAPS   H8Y 1964   7.200   5.361   7.286
   15SAPS   C39 1965   7.133   5.503   7.433
   15SAPS   H9X 1966   7.047   5.441   7.465
   15SAPS   H9Y 1967   7.097   5.569   7.351
   15SAPS  C310 1968   7.180   5.591   7.549
   15SAPS  H10X 1969   7.100   5.667   7.565
   15SAPS  H10Y 1970   7.272   5.647   7.519
   15SAPS  C311 1971   7.208   5.519   7.681
   15SAPS  H11X 1972   7.268   5.585   7.747
   15SAPS  H11Y 1973   7.268   5.428   7.661
   15SAPS  C312 1974   7.079   5.480   7.753
   15SAPS  H12X 1975   7.102   5.414   7.839
   15SAPS  H12Y 1976   7.016   5.425   7.681
   15SAPS  C313 1977   6.993   5.597   7.804
   15SAPS  H13X 1978   6.897   5.553   7.838
   15SAPS  H13Y 1979   6.970   5.666   7.720
   15SAPS  C314 1980   7.055   5.671   7.922
   15SAPS  H14X 1981   7.153   5.710   7.887
   15SAPS  H14Y 1982   7.076   5.598   8.003
   15SAPS  C315 1983   6.969   5.785   7.979
   15SAPS  H15X 1984   7.023   5.836   8.062
   15SAPS  H15Y 1985   6.878   5.740   8.025
   15SAPS  C316 1986   6.924   5.892   7.879
   15SAPS  H16X 1987   6.823   5.928   7.908
   15SAPS  H16Y 1988   6.910   5.850   7.776
   15SAPS  C317 1989   7.008   6.019   7.877
   15SAPS  H17X 1990   6.969   6.082   7.960
   15SAPS  H17Y 1991   6.987   6.074   7.783
   15SAPS  C318 1992   7.159   6.000   7.896
   15SAPS  H18X 1993   7.218   6.069   7.831
   15SAPS  H18Y 1994   7.193   5.898   7.867
   15SAPS  H18Z 1995   7.187   6.020   8.002
   16SAPS     N 1996   7.200   0.246   5.977
   16SAPS   HN1 1997   7.264   0.318   6.016
   16SAPS   HN2 1998   7.134   0.298   5.915
   16SAPS   HN3 1999   7.150   0.195   6.052
   16SAPS   C12 2000   7.283   0.155   5.891
   16SAPS  H12A 2001   7.214   0.090   5.839
   16SAPS   C13 2002   7.360   0.237   5.785
   16SAPS  O13A 2003   7.328   0.357   5.766
   16SAPS  O13B 2004   7.449   0.183   5.716
   16SAPS   C11 2005   7.383   0.071   5.977
   16SAPS  H11A 2006   7.335   0.042   6.074
   16SAPS  H11B 2007   7.469   0.136   6.001
   16SAPS     P 2008   7.358  -0.178   5.899
   16SAPS   O13 2009   7.238  -0.154   5.816
   16SAPS   O14 2010   7.450  -0.283   5.849
   16SAPS   O12 2011   7.436  -0.043   5.909
   16SAPS   O11 2012   7.320  -0.206   6.049
   16SAPS    C1 2013   7.427  -0.222   6.143
   16SAPS    HA 2014   7.499  -0.300   6.109
   16SAPS    HB 2015   7.482  -0.128   6.161
   16SAPS    C2 2016   7.368  -0.270   6.277
   16SAPS    HS 2017   7.298  -0.352   6.251
   16SAPS   O21 2018   7.297  -0.160   6.339
   16SAPS   C21 2019   7.222  -0.199   6.441
   16SAPS   O22 2020   7.200  -0.314   6.472
   16SAPS   C22 2021   7.164  -0.077   6.511
   16SAPS   H2R 2022   7.220   0.013   6.478
   16SAPS   H2S 2023   7.058  -0.066   6.480
   16SAPS    C3 2024   7.479  -0.329   6.370
   16SAPS    HX 2025   7.553  -0.383   6.308
   16SAPS    HY 2026   7.430  -0.407   6.433
   16SAPS   O31 2027   7.545  -0.225   6.446
   16SAPS   C31 2028   7.543  -0.242   6.579
   16SAPS   O32 2029   7.500  -0.339   6.636
   16SAPS   C32 2030   7.601  -0.117   6.644
   16SAPS   H2X 2031   7.525  -0.037   6.635
   16SAPS   H2Y 2032   7.693  -0.088   6.588
   16SAPS   C23 2033   7.172  -0.088   6.665
   16SAPS   H3R 2034   7.147   0.012   6.707
   16SAPS   H3S 2035   7.275  -0.113   6.698
   16SAPS   C24 2036   7.073  -0.192   6.721
   16SAPS   H4R 2037   7.108  -0.294   6.696
   16SAPS   H4S 2038   6.976  -0.178   6.668
   16SAPS   C25 2039   7.051  -0.176   6.868
   16SAPS   H5R 2040   7.010  -0.077   6.896
   16SAPS   C26 2041   7.068  -0.268   6.965
   16SAPS   H6R 2042   7.048  -0.239   7.069
   16SAPS   C27 2043   7.113  -0.411   6.949
   16SAPS   H7R 2044   7.055  -0.457   6.866
   16SAPS   H7S 2045   7.082  -0.466   7.040
   16SAPS   C28 2046   7.260  -0.432   6.923
   16SAPS   H8R 2047   7.290  -0.435   6.818
   16SAPS   C29 2048   7.355  -0.443   7.017
   16SAPS   H9R 2049   7.459  -0.458   6.985
   16SAPS  C210 2050   7.334  -0.434   7.166
   16SAPS  H10R 2051   7.253  -0.361   7.188
   16SAPS  H10S 2052   7.425  -0.390   7.212
   16SAPS  C211 2053   7.294  -0.563   7.233
   16SAPS  H11R 2054   7.237  -0.633   7.170
   16SAPS  C212 2055   7.320  -0.592   7.361
   16SAPS  H12R 2056   7.287  -0.688   7.403
   16SAPS  C213 2057   7.391  -0.499   7.456
   16SAPS  H13R 2058   7.365  -0.529   7.559
   16SAPS  H13S 2059   7.352  -0.396   7.444
   16SAPS  C214 2060   7.541  -0.500   7.441
   16SAPS  H14R 2061   7.584  -0.591   7.397
   16SAPS  C215 2062   7.624  -0.400   7.475
   16SAPS  H15R 2063   7.732  -0.415   7.458
   16SAPS  C216 2064   7.589  -0.267   7.536
   16SAPS  H16R 2065   7.479  -0.252   7.546
   16SAPS  H16S 2066   7.623  -0.186   7.467
   16SAPS  C217 2067   7.653  -0.246   7.675
   16SAPS  H17R 2068   7.685  -0.141   7.685
   16SAPS  H17S 2069   7.744  -0.308   7.689
   16SAPS  C218 2070   7.550  -0.277   7.784
   16SAPS  H18R 2071   7.518  -0.382   7.765
   16SAPS  H18S 2072   7.462  -0.212   7.768
   16SAPS  C219 2073   7.597  -0.261   7.929
   16SAPS  H19R 2074   7.676  -0.182   7.929
   16SAPS  H19S 2075   7.644  -0.354   7.964
   16SAPS  C220 2076   7.487  -0.223   8.029
   16SAPS  H20R 2077   7.530  -0.200   8.129
   16SAPS  H20S 2078   7.413  -0.305   8.042
   16SAPS  H20T 2079   7.432  -0.132   7.994
   16SAPS   C33 2080   7.636  -0.139   6.793
   16SAPS   H3X 2081   7.705  -0.058   6.825
   16SAPS   H3Y 2082   7.689  -0.235   6.808
   16SAPS   C34 2083   7.512  -0.133   6.883
   16SAPS   H4X 2084   7.436  -0.206   6.849
   16SAPS   H4Y 2085   7.467  -0.032   6.875
   16SAPS   C35 2086   7.544  -0.161   7.031
   16SAPS   H5X 2087   7.647  -0.124   7.050
   16SAPS   H5Y 2088   7.547  -0.270   7.050
   16SAPS   C36 2089   7.452  -0.088   7.131
   16SAPS   H6X 2090   7.490   0.017   7.124
   16SAPS   H6Y 2091   7.471  -0.124   7.234
   16SAPS   C37 2092   7.301  -0.079   7.104
   16SAPS   H7X 2093   7.248  -0.162   7.156
   16SAPS   H7Y 2094   7.282  -0.089   6.995
   16SAPS   C38 2095   7.243   0.056   7.150
   16SAPS   H8X 2096   7.296   0.132   7.089
   16SAPS   H8Y 2097   7.268   0.072   7.257
   16SAPS   C39 2098   7.093   0.083   7.128
   16SAPS   H9X 2099   7.069   0.061   7.022
   16SAPS   H9Y 2100   7.075   0.192   7.143
   16SAPS  C310 2101   7.000   0.006   7.223
   16SAPS  H10X 2102   7.031  -0.101   7.224
   16SAPS  H10Y 2103   6.897   0.012   7.184
   16SAPS  C311 2104   7.001   0.063   7.366
   16SAPS  H11X 2105   6.965   0.168   7.363
   16SAPS  H11Y 2106   7.105   0.065   7.404
   16SAPS  C312 2107   6.913  -0.018   7.463
   16SAPS  H12X 2108   6.808  -0.014   7.429
   16SAPS  H12Y 2109   6.917   0.032   7.563
   16SAPS  C313 2110   6.954  -0.165   7.480
   16SAPS  H13X 2111   6.932  -0.220   7.385
   16SAPS  H13Y 2112   6.891  -0.211   7.559
   16SAPS  C314 2113   7.102  -0.188   7.516
   16SAPS  H14X 2114   7.166  -0.158   7.429
   16SAPS  H14Y 2115   7.118  -0.296   7.532
   16SAPS  C315 2116   7.151  -0.112   7.640
   16SAPS  H15X 2117   7.153  -0.002   7.619
   16SAPS  H15Y 2118   7.256  -0.143   7.659
   16SAPS  C316 2119   7.067  -0.136   7.766
   16SAPS  H16X 2120   7.014  -0.232   7.753
   16SAPS  H16Y 2121   6.988  -0.058   7.776
   16SAPS  C317 2122   7.151  -0.144   7.895
   16SAPS  H17X 2123   7.247  -0.197   7.874
   16SAPS  H17Y 2124   7.096  -0.207   7.968
   16SAPS  C318 2125   7.178  -0.011   7.962
   16SAPS  H18X 2126   7.208  -0.025   8.068
   16SAPS  H18Y 2127   7.087   0.053   7.957
   16SAPS  H18Z 2128   7.260   0.046   7.912
   17SAPC     N 2129   4.344   4.059  10.046
   17SAPC   C12 2130   4.387   3.937   9.967
   17SAPC  H12A 2131   4.480   3.901  10.009
   17SAPC  H12B 2132   4.407   3.966   9.864
   17SAPC   C13 2133   4.452   4.163  10.045
   17SAPC  H13A 2134   4.476   4.197   9.945
   17SAPC  H13B 2135   4.425   4.248  10.106
   17SAPC  H13C 2136   4.543   4.124  10.089
   17SAPC   C14 2137   4.215   4.115   9.994
   17SAPC  H14A 2138   4.137   4.041  10.001
   17SAPC  H14B 2139   4.183   4.200  10.052
   17SAPC  H14C 2140   4.223   4.145   9.890
   17SAPC   C15 2141   4.321   4.020  10.190
   17SAPC  H15A 2142   4.258   3.932  10.193
   17SAPC  H15B 2143   4.414   3.993  10.238
   17SAPC  H15C 2144   4.274   4.099  10.247
   17SAPC   C11 2145   4.292   3.816   9.967
   17SAPC  H11A 2146   4.329   3.744   9.890
   17SAPC  H11B 2147   4.189   3.846   9.939
   17SAPC     P 2148   4.230   3.616  10.117
   17SAPC   O13 2149   4.260   3.569  10.255
   17SAPC   O14 2150   4.087   3.624  10.081
   17SAPC   O12 2151   4.294   3.758  10.097
   17SAPC   O11 2152   4.314   3.530  10.013
   17SAPC    C1 2153   4.431   3.464  10.064
   17SAPC    HA 2154   4.496   3.537  10.118
   17SAPC    HB 2155   4.402   3.386  10.137
   17SAPC    C2 2156   4.523   3.394   9.958
   17SAPC    HS 2157   4.621   3.378  10.008
   17SAPC   O21 2158   4.539   3.478   9.842
   17SAPC   C21 2159   4.609   3.590   9.863
   17SAPC   O22 2160   4.673   3.617   9.963
   17SAPC   C22 2161   4.600   3.678   9.738
   17SAPC   H2R 2162   4.613   3.613   9.650
   17SAPC   H2S 2163   4.496   3.719   9.738
   17SAPC    C3 2164   4.472   3.249   9.920
   17SAPC    HX 2165   4.429   3.205  10.013
   17SAPC    HY 2166   4.564   3.192   9.895
   17SAPC   O31 2167   4.378   3.236   9.809
   17SAPC   C31 2168   4.345   3.107   9.786
   17SAPC   O32 2169   4.379   3.014   9.857
   17SAPC   C32 2170   4.263   3.082   9.655
   17SAPC   H2X 2171   4.190   3.003   9.680
   17SAPC   H2Y 2172   4.333   3.035   9.583
   17SAPC   C23 2173   4.698   3.798   9.728
   17SAPC   H3R 2174   4.801   3.760   9.712
   17SAPC   H3S 2175   4.697   3.855   9.823
   17SAPC   C24 2176   4.661   3.897   9.614
   17SAPC   H4R 2177   4.728   3.985   9.623
   17SAPC   H4S 2178   4.557   3.932   9.631
   17SAPC   C25 2179   4.675   3.840   9.474
   17SAPC   H5R 2180   4.744   3.755   9.467
   17SAPC   C26 2181   4.609   3.879   9.363
   17SAPC   H6R 2182   4.632   3.827   9.268
   17SAPC   C27 2183   4.504   3.987   9.350
   17SAPC   H7R 2184   4.469   4.021   9.450
   17SAPC   H7S 2185   4.414   3.943   9.302
   17SAPC   C28 2186   4.550   4.108   9.271
   17SAPC   H8R 2187   4.587   4.191   9.333
   17SAPC   C29 2188   4.553   4.122   9.137
   17SAPC   H9R 2189   4.589   4.217   9.095
   17SAPC  C210 2190   4.510   4.020   9.035
   17SAPC  H10R 2191   4.460   3.933   9.082
   17SAPC  H10S 2192   4.603   3.978   8.989
   17SAPC  C211 2193   4.420   4.076   8.928
   17SAPC  H11R 2194   4.316   4.094   8.960
   17SAPC  C212 2195   4.453   4.104   8.800
   17SAPC  H12R 2196   4.375   4.141   8.732
   17SAPC  C213 2197   4.588   4.087   8.735
   17SAPC  H13R 2198   4.663   4.137   8.800
   17SAPC  H13S 2199   4.590   4.145   8.641
   17SAPC  C214 2200   4.628   3.944   8.710
   17SAPC  H14R 2201   4.680   3.894   8.793
   17SAPC  C215 2202   4.605   3.875   8.597
   17SAPC  H15R 2203   4.641   3.772   8.589
   17SAPC  C216 2204   4.536   3.930   8.474
   17SAPC  H16R 2205   4.585   4.023   8.441
   17SAPC  H16S 2206   4.430   3.954   8.496
   17SAPC  C217 2207   4.541   3.829   8.358
   17SAPC  H17R 2208   4.476   3.742   8.380
   17SAPC  H17S 2209   4.645   3.792   8.347
   17SAPC  C218 2210   4.500   3.891   8.224
   17SAPC  H18R 2211   4.551   3.989   8.212
   17SAPC  H18S 2212   4.390   3.910   8.223
   17SAPC  C219 2213   4.539   3.801   8.106
   17SAPC  H19R 2214   4.478   3.708   8.110
   17SAPC  H19S 2215   4.645   3.772   8.119
   17SAPC  C220 2216   4.523   3.867   7.969
   17SAPC  H20R 2217   4.551   3.797   7.888
   17SAPC  H20S 2218   4.589   3.957   7.962
   17SAPC  H20T 2219   4.418   3.900   7.953
   17SAPC   C33 2220   4.183   3.204   9.599
   17SAPC   H3X 2221   4.228   3.293   9.648
   17SAPC   H3Y 2222   4.088   3.183   9.653
   17SAPC   C34 2223   4.165   3.245   9.445
   17SAPC   H4X 2224   4.148   3.154   9.384
   17SAPC   H4Y 2225   4.268   3.285   9.434
   17SAPC   C35 2226   4.078   3.366   9.382
   17SAPC   H5X 2227   4.058   3.446   9.456
   17SAPC   H5Y 2228   3.979   3.327   9.349
   17SAPC   C36 2229   4.122   3.469   9.271
   17SAPC   H6X 2230   4.059   3.454   9.181
   17SAPC   H6Y 2231   4.226   3.441   9.245
   17SAPC   C37 2232   4.114   3.621   9.310
   17SAPC   H7X 2233   4.174   3.640   9.401
   17SAPC   H7Y 2234   4.010   3.640   9.343
   17SAPC   C38 2235   4.154   3.737   9.214
   17SAPC   H8X 2236   4.265   3.739   9.210
   17SAPC   H8Y 2237   4.126   3.832   9.262
   17SAPC   C39 2238   4.096   3.739   9.071
   17SAPC   H9X 2239   3.991   3.776   9.074
   17SAPC   H9Y 2240   4.092   3.635   9.033
   17SAPC  C310 2241   4.173   3.828   8.970
   17SAPC  H10X 2242   4.282   3.824   8.995
   17SAPC  H10Y 2243   4.143   3.934   8.982
   17SAPC  C311 2244   4.156   3.784   8.823
   17SAPC  H11X 2245   4.085   3.854   8.772
   17SAPC  H11Y 2246   4.106   3.685   8.825
   17SAPC  C312 2247   4.285   3.771   8.739
   17SAPC  H12X 2248   4.371   3.752   8.807
   17SAPC  H12Y 2249   4.307   3.868   8.689
   17SAPC  C313 2250   4.282   3.657   8.635
   17SAPC  H13X 2251   4.269   3.700   8.533
   17SAPC  H13Y 2252   4.192   3.594   8.655
   17SAPC  C314 2253   4.403   3.562   8.636
   17SAPC  H14X 2254   4.425   3.532   8.741
   17SAPC  H14Y 2255   4.494   3.614   8.599
   17SAPC  C315 2256   4.378   3.435   8.553
   17SAPC  H15X 2257   4.387   3.464   8.447
   17SAPC  H15Y 2258   4.274   3.400   8.572
   17SAPC  C316 2259   4.473   3.317   8.579
   17SAPC  H16X 2260   4.466   3.281   8.684
   17SAPC  H16Y 2261   4.578   3.350   8.565
   17SAPC  C317 2262   4.443   3.199   8.485
   17SAPC  H17X 2263   4.417   3.240   8.385
   17SAPC  H17Y 2264   4.354   3.145   8.523
   17SAPC  C318 2265   4.559   3.102   8.467
   17SAPC  H18X 2266   4.645   3.153   8.419
   17SAPC  H18Y 2267   4.593   3.060   8.564
   17SAPC  H18Z 2268   4.529   3.018   8.400
   18SAPC     N 2269   4.767   2.978  10.248
   18SAPC   C12 2270   4.728   3.069  10.132
   18SAPC  H12A 2271   4.702   3.165  10.172
   18SAPC  H12B 2272   4.638   3.029  10.087
   18SAPC   C13 2273   4.667   2.990  10.358
   18SAPC  H13A 2274   4.569   2.958  10.325
   18SAPC  H13B 2275   4.694   2.933  10.446
   18SAPC  H13C 2276   4.653   3.093  10.389
   18SAPC   C14 2277   4.772   2.836  10.203
   18SAPC  H14A 2278   4.805   2.768  10.281
   18SAPC  H14B 2279   4.676   2.804  10.163
   18SAPC  H14C 2280   4.840   2.828  10.119
   18SAPC   C15 2281   4.904   3.016  10.295
   18SAPC  H15A 2282   4.907   3.118  10.330
   18SAPC  H15B 2283   4.936   2.952  10.376
   18SAPC  H15C 2284   4.974   3.007  10.213
   18SAPC   C11 2285   4.833   3.090  10.019
   18SAPC  H11A 2286   4.915   3.153  10.060
   18SAPC  H11B 2287   4.788   3.151   9.938
   18SAPC     P 2288   4.825   2.879   9.856
   18SAPC   O13 2289   4.938   2.827   9.777
   18SAPC   O14 2290   4.738   2.777   9.920
   18SAPC   O12 2291   4.889   2.968   9.971
   18SAPC   O11 2292   4.736   2.978   9.772
   18SAPC    C1 2293   4.797   3.054   9.667
   18SAPC    HA 2294   4.880   3.115   9.708
   18SAPC    HB 2295   4.838   2.990   9.586
   18SAPC    C2 2296   4.695   3.153   9.604
   18SAPC    HS 2297   4.628   3.185   9.686
   18SAPC   O21 2298   4.620   3.086   9.495
   18SAPC   C21 2299   4.507   3.154   9.466
   18SAPC   O22 2300   4.473   3.253   9.528
   18SAPC   C22 2301   4.426   3.095   9.345
   18SAPC   H2R 2302   4.490   3.019   9.295
   18SAPC   H2S 2303   4.336   3.043   9.385
   18SAPC    C3 2304   4.773   3.280   9.558
   18SAPC    HX 2305   4.833   3.315   9.645
   18SAPC    HY 2306   4.705   3.365   9.536
   18SAPC   O31 2307   4.855   3.245   9.444
   18SAPC   C31 2308   4.981   3.284   9.449
   18SAPC   O32 2309   5.023   3.380   9.511
   18SAPC   C32 2310   5.071   3.179   9.382
   18SAPC   H2X 2311   5.125   3.130   9.466
   18SAPC   H2Y 2312   5.148   3.231   9.321
   18SAPC   C23 2313   4.377   3.204   9.242
   18SAPC   H3R 2314   4.464   3.214   9.173
   18SAPC   H3S 2315   4.373   3.305   9.287
   18SAPC   C24 2316   4.263   3.193   9.139
   18SAPC   H4R 2317   4.177   3.254   9.175
   18SAPC   H4S 2318   4.227   3.088   9.135
   18SAPC   C25 2319   4.301   3.243   9.000
   18SAPC   H5R 2320   4.306   3.156   8.932
   18SAPC   C26 2321   4.325   3.360   8.937
   18SAPC   H6R 2322   4.345   3.352   8.829
   18SAPC   C27 2323   4.322   3.504   8.980
   18SAPC   H7R 2324   4.252   3.507   9.066
   18SAPC   H7S 2325   4.263   3.553   8.900
   18SAPC   C28 2326   4.432   3.604   9.015
   18SAPC   H8R 2327   4.393   3.674   9.090
   18SAPC   C29 2328   4.560   3.630   8.982
   18SAPC   H9R 2329   4.602   3.719   9.029
   18SAPC  C210 2330   4.657   3.563   8.888
   18SAPC  H10R 2331   4.655   3.613   8.789
   18SAPC  H10S 2332   4.629   3.457   8.871
   18SAPC  C211 2333   4.796   3.575   8.949
   18SAPC  H11R 2334   4.800   3.617   9.051
   18SAPC  C212 2335   4.912   3.536   8.895
   18SAPC  H12R 2336   5.005   3.552   8.951
   18SAPC  C213 2337   4.929   3.474   8.760
   18SAPC  H13R 2338   5.037   3.477   8.733
   18SAPC  H13S 2339   4.880   3.540   8.685
   18SAPC  C214 2340   4.876   3.334   8.747
   18SAPC  H14R 2341   4.817   3.295   8.831
   18SAPC  C215 2342   4.892   3.258   8.637
   18SAPC  H15R 2343   4.846   3.158   8.632
   18SAPC  C216 2344   4.965   3.304   8.514
   18SAPC  H16R 2345   5.030   3.221   8.477
   18SAPC  H16S 2346   5.033   3.390   8.534
   18SAPC  C217 2347   4.873   3.345   8.398
   18SAPC  H17R 2348   4.809   3.259   8.370
   18SAPC  H17S 2349   4.935   3.368   8.309
   18SAPC  C218 2350   4.784   3.467   8.427
   18SAPC  H18R 2351   4.845   3.560   8.420
   18SAPC  H18S 2352   4.745   3.463   8.531
   18SAPC  C219 2353   4.664   3.474   8.332
   18SAPC  H19R 2354   4.599   3.560   8.363
   18SAPC  H19S 2355   4.603   3.382   8.343
   18SAPC  C220 2356   4.704   3.489   8.187
   18SAPC  H20R 2357   4.768   3.579   8.177
   18SAPC  H20S 2358   4.614   3.501   8.122
   18SAPC  H20T 2359   4.761   3.401   8.152
   18SAPC   C33 2360   5.004   3.069   9.298
   18SAPC   H3X 2361   4.895   3.059   9.318
   18SAPC   H3Y 2362   5.049   2.972   9.326
   18SAPC   C34 2363   5.028   3.081   9.147
   18SAPC   H4X 2364   5.137   3.086   9.124
   18SAPC   H4Y 2365   4.983   3.175   9.109
   18SAPC   C35 2366   4.968   2.958   9.079
   18SAPC   H5X 2367   4.877   2.931   9.137
   18SAPC   H5Y 2368   5.038   2.871   9.086
   18SAPC   C36 2369   4.924   2.979   8.935
   18SAPC   H6X 2370   5.010   2.978   8.865
   18SAPC   H6Y 2371   4.881   3.082   8.928
   18SAPC   C37 2372   4.815   2.878   8.896
   18SAPC   H7X 2373   4.753   2.923   8.816
   18SAPC   H7Y 2374   4.749   2.861   8.984
   18SAPC   C38 2375   4.867   2.741   8.851
   18SAPC   H8X 2376   4.783   2.669   8.845
   18SAPC   H8Y 2377   4.938   2.703   8.928
   18SAPC   C39 2378   4.936   2.748   8.715
   18SAPC   H9X 2379   4.988   2.652   8.695
   18SAPC   H9Y 2380   5.014   2.827   8.719
   18SAPC  C310 2381   4.841   2.778   8.598
   18SAPC  H10X 2382   4.756   2.843   8.630
   18SAPC  H10Y 2383   4.796   2.683   8.561
   18SAPC  C311 2384   4.915   2.852   8.487
   18SAPC  H11X 2385   5.009   2.798   8.462
   18SAPC  H11Y 2386   4.945   2.951   8.526
   18SAPC  C312 2387   4.833   2.872   8.360
   18SAPC  H12X 2388   4.735   2.918   8.386
   18SAPC  H12Y 2389   4.812   2.774   8.311
   18SAPC  C313 2390   4.909   2.963   8.265
   18SAPC  H13X 2391   4.999   2.908   8.229
   18SAPC  H13Y 2392   4.944   3.052   8.322
   18SAPC  C314 2393   4.830   3.013   8.145
   18SAPC  H14X 2394   4.737   3.064   8.179
   18SAPC  H14Y 2395   4.800   2.925   8.084
   18SAPC  C315 2396   4.914   3.109   8.060
   18SAPC  H15X 2397   5.010   3.059   8.037
   18SAPC  H15Y 2398   4.937   3.201   8.117
   18SAPC  C316 2399   4.845   3.144   7.928
   18SAPC  H16X 2400   4.767   3.222   7.946
   18SAPC  H16Y 2401   4.792   3.053   7.892
   18SAPC  C317 2402   4.942   3.189   7.818
   18SAPC  H17X 2403   4.886   3.193   7.722
   18SAPC  H17Y 2404   5.022   3.113   7.806
   18SAPC  C318 2405   5.005   3.324   7.845
   18SAPC  H18X 2406   5.079   3.317   7.928
   18SAPC  H18Y 2407   4.926   3.395   7.876
   18SAPC  H18Z 2408   5.056   3.364   7.755
   19SAPC     N 2409   4.815   6.617   9.895
   19SAPC   C12 2410   4.703   6.710   9.938
   19SAPC  H12A 2411   4.616   6.697   9.874
   19SAPC  H12B 2412   4.734   6.813   9.923
   19SAPC   C13 2413   4.766   6.475   9.892
   19SAPC  H13A 2414   4.740   6.443   9.992
   19SAPC  H13B 2415   4.679   6.461   9.830
   19SAPC  H13C 2416   4.843   6.406   9.857
   19SAPC   C14 2417   4.873   6.657   9.762
   19SAPC  H14A 2418   4.798   6.655   9.684
   19SAPC  H14B 2419   4.914   6.756   9.767
   19SAPC  H14C 2420   4.952   6.590   9.732
   19SAPC   C15 2421   4.926   6.625   9.994
   19SAPC  H15A 2422   5.010   6.563   9.965
   19SAPC  H15B 2423   4.957   6.727  10.006
   19SAPC  H15C 2424   4.889   6.593  10.091
   19SAPC   C11 2425   4.653   6.702  10.085
   19SAPC  H11A 2426   4.638   6.596  10.113
   19SAPC  H11B 2427   4.554   6.751  10.092
   19SAPC     P 2428   4.784   6.917  10.151
   19SAPC   O13 2429   4.792   6.985  10.282
   19SAPC   O14 2430   4.905   6.915  10.067
   19SAPC   O12 2431   4.745   6.764  10.176
   19SAPC   O11 2432   4.661   6.973  10.065
   19SAPC    C1 2433   4.689   7.058   9.953
   19SAPC    HA 2434   4.744   7.149   9.987
   19SAPC    HB 2435   4.754   7.006   9.879
   19SAPC    C2 2436   4.562   7.109   9.876
   19SAPC    HS 2437   4.493   7.154   9.951
   19SAPC   O21 2438   4.495   7.001   9.807
   19SAPC   C21 2439   4.371   7.028   9.757
   19SAPC   O22 2440   4.307   7.128   9.779
   19SAPC   C22 2441   4.342   6.916   9.654
   19SAPC   H2R 2442   4.408   6.947   9.570
   19SAPC   H2S 2443   4.378   6.825   9.708
   19SAPC    C3 2444   4.607   7.220   9.775
   19SAPC    HX 2445   4.628   7.309   9.837
   19SAPC    HY 2446   4.524   7.247   9.707
   19SAPC   O31 2447   4.730   7.188   9.705
   19SAPC   C31 2448   4.719   7.141   9.581
   19SAPC   O32 2449   4.614   7.119   9.524
   19SAPC   C32 2450   4.860   7.132   9.518
   19SAPC   H2X 2451   4.936   7.136   9.599
   19SAPC   H2Y 2452   4.870   7.221   9.453
   19SAPC   C23 2453   4.210   6.867   9.583
   19SAPC   H3R 2454   4.152   6.957   9.554
   19SAPC   H3S 2455   4.152   6.810   9.659
   19SAPC   C24 2456   4.232   6.778   9.450
   19SAPC   H4R 2457   4.316   6.832   9.401
   19SAPC   H4S 2458   4.147   6.804   9.384
   19SAPC   C25 2459   4.257   6.623   9.444
   19SAPC   H5R 2460   4.185   6.572   9.510
   19SAPC   C26 2461   4.339   6.528   9.385
   19SAPC   H6R 2462   4.316   6.424   9.414
   19SAPC   C27 2463   4.455   6.527   9.286
   19SAPC   H7R 2464   4.486   6.632   9.266
   19SAPC   H7S 2465   4.417   6.487   9.189
   19SAPC   C28 2466   4.593   6.469   9.310
   19SAPC   H8R 2467   4.597   6.407   9.401
   19SAPC   C29 2468   4.707   6.487   9.238
   19SAPC   H9R 2469   4.798   6.435   9.271
   19SAPC  C210 2470   4.727   6.569   9.111
   19SAPC  H10R 2471   4.644   6.546   9.042
   19SAPC  H10S 2472   4.818   6.531   9.059
   19SAPC  C211 2473   4.738   6.719   9.121
   19SAPC  H11R 2474   4.771   6.759   9.218
   19SAPC  C212 2475   4.722   6.805   9.019
   19SAPC  H12R 2476   4.727   6.913   9.038
   19SAPC  C213 2477   4.692   6.766   8.877
   19SAPC  H13R 2478   4.645   6.850   8.822
   19SAPC  H13S 2479   4.620   6.681   8.872
   19SAPC  C214 2480   4.824   6.727   8.815
   19SAPC  H14R 2481   4.912   6.746   8.879
   19SAPC  C215 2482   4.848   6.670   8.697
   19SAPC  H15R 2483   4.954   6.655   8.669
   19SAPC  C216 2484   4.754   6.626   8.590
   19SAPC  H16R 2485   4.663   6.690   8.586
   19SAPC  H16S 2486   4.722   6.521   8.609
   19SAPC  C217 2487   4.828   6.633   8.456
   19SAPC  H17R 2488   4.770   6.581   8.377
   19SAPC  H17S 2489   4.925   6.578   8.463
   19SAPC  C218 2490   4.854   6.778   8.411
   19SAPC  H18R 2491   4.854   6.845   8.499
   19SAPC  H18S 2492   4.769   6.810   8.346
   19SAPC  C219 2493   4.986   6.798   8.337
   19SAPC  H19R 2494   4.987   6.736   8.245
   19SAPC  H19S 2495   5.069   6.764   8.402
   19SAPC  C220 2496   5.010   6.945   8.300
   19SAPC  H20R 2497   5.011   7.008   8.391
   19SAPC  H20S 2498   4.930   6.982   8.232
   19SAPC  H20T 2499   5.108   6.955   8.248
   19SAPC   C33 2500   4.882   7.006   9.432
   19SAPC   H3X 2501   4.801   6.999   9.356
   19SAPC   H3Y 2502   4.877   6.916   9.497
   19SAPC   C34 2503   5.016   6.999   9.356
   19SAPC   H4X 2504   5.020   6.903   9.302
   19SAPC   H4Y 2505   5.100   6.999   9.429
   19SAPC   C35 2506   5.038   7.112   9.254
   19SAPC   H5X 2507   5.135   7.095   9.204
   19SAPC   H5Y 2508   5.043   7.210   9.306
   19SAPC   C36 2509   4.929   7.119   9.145
   19SAPC   H6X 2510   4.831   7.142   9.192
   19SAPC   H6Y 2511   4.920   7.021   9.094
   19SAPC   C37 2512   4.959   7.228   9.041
   19SAPC   H7X 2513   5.059   7.212   8.996
   19SAPC   H7Y 2514   4.962   7.326   9.094
   19SAPC   C38 2515   4.853   7.236   8.930
   19SAPC   H8X 2516   4.855   7.338   8.887
   19SAPC   H8Y 2517   4.752   7.221   8.973
   19SAPC   C39 2518   4.879   7.137   8.815
   19SAPC   H9X 2519   4.859   7.033   8.849
   19SAPC   H9Y 2520   4.986   7.144   8.786
   19SAPC  C310 2521   4.794   7.168   8.691
   19SAPC  H10X 2522   4.835   7.111   8.604
   19SAPC  H10Y 2523   4.804   7.276   8.667
   19SAPC  C311 2524   4.646   7.133   8.708
   19SAPC  H11X 2525   4.614   7.166   8.809
   19SAPC  H11Y 2526   4.631   7.023   8.702
   19SAPC  C312 2527   4.554   7.202   8.606
   19SAPC  H12X 2528   4.596   7.301   8.579
   19SAPC  H12Y 2529   4.456   7.219   8.656
   19SAPC  C313 2530   4.525   7.122   8.479
   19SAPC  H13X 2531   4.463   7.185   8.411
   19SAPC  H13Y 2532   4.464   7.033   8.506
   19SAPC  C314 2533   4.649   7.076   8.403
   19SAPC  H14X 2534   4.699   6.996   8.461
   19SAPC  H14Y 2535   4.720   7.161   8.393
   19SAPC  C315 2536   4.618   7.025   8.262
   19SAPC  H15X 2537   4.711   6.988   8.213
   19SAPC  H15Y 2538   4.579   7.110   8.201
   19SAPC  C316 2539   4.513   6.913   8.258
   19SAPC  H16X 2540   4.420   6.949   8.308
   19SAPC  H16Y 2541   4.548   6.824   8.313
   19SAPC  C317 2542   4.477   6.878   8.114
   19SAPC  H17X 2543   4.543   6.796   8.077
   19SAPC  H17Y 2544   4.498   6.966   8.050
   19SAPC  C318 2545   4.330   6.841   8.098
   19SAPC  H18X 2546   4.265   6.914   8.150
   19SAPC  H18Y 2547   4.309   6.741   8.143
   19SAPC  H18Z 2548   4.300   6.838   7.991
   20SAPC     N 2549   4.435   0.252  10.021
   20SAPC   C12 2550   4.365   0.193  10.142
   20SAPC  H12A 2551   4.379   0.259  10.226
   20SAPC  H12B 2552   4.417   0.102  10.169
   20SAPC   C13 2553   4.362   0.371   9.966
   20SAPC  H13A 2554   4.418   0.414   9.885
   20SAPC  H13B 2555   4.266   0.339   9.929
   20SAPC  H13C 2556   4.348   0.447  10.041
   20SAPC   C14 2557   4.574   0.293  10.060
   20SAPC  H14A 2558   4.575   0.375  10.130
   20SAPC  H14B 2559   4.628   0.213  10.108
   20SAPC  H14C 2560   4.634   0.321   9.974
   20SAPC   C15 2561   4.443   0.147   9.915
   20SAPC  H15A 2562   4.503   0.064   9.950
   20SAPC  H15B 2563   4.344   0.108   9.896
   20SAPC  H15C 2564   4.485   0.186   9.823
   20SAPC   C11 2565   4.216   0.155  10.130
   20SAPC  H11A 2566   4.157   0.248  10.112
   20SAPC  H11B 2567   4.185   0.115  10.229
   20SAPC     P 2568   4.046   0.000  10.011
   20SAPC   O13 2569   4.037  -0.100   9.903
   20SAPC   O14 2570   4.002  -0.043  10.145
   20SAPC   O12 2571   4.193   0.059  10.026
   20SAPC   O11 2572   3.963   0.131   9.974
   20SAPC    C1 2573   4.015   0.230   9.883
   20SAPC    HA 2574   4.008   0.330   9.930
   20SAPC    HB 2575   4.122   0.213   9.857
   20SAPC    C2 2576   3.937   0.232   9.749
   20SAPC    HS 2577   3.830   0.244   9.774
   20SAPC   O21 2578   3.962   0.106   9.684
   20SAPC   C21 2579   3.869   0.070   9.598
   20SAPC   O22 2580   3.765   0.132   9.579
   20SAPC   C22 2581   3.910  -0.059   9.530
   20SAPC   H2R 2582   3.883  -0.144   9.597
   20SAPC   H2S 2583   3.851  -0.068   9.436
   20SAPC    C3 2584   3.982   0.349   9.656
   20SAPC    HX 2585   3.940   0.445   9.694
   20SAPC    HY 2586   3.939   0.332   9.555
   20SAPC   O31 2587   4.125   0.355   9.650
   20SAPC   C31 2588   4.171   0.452   9.571
   20SAPC   O32 2589   4.106   0.547   9.533
   20SAPC   C32 2590   4.313   0.418   9.529
   20SAPC   H2X 2591   4.378   0.427   9.619
   20SAPC   H2Y 2592   4.346   0.493   9.454
   20SAPC   C23 2593   4.061  -0.065   9.498
   20SAPC   H3R 2594   4.114  -0.101   9.589
   20SAPC   H3S 2595   4.099   0.037   9.476
   20SAPC   C24 2596   4.093  -0.154   9.377
   20SAPC   H4R 2597   4.043  -0.112   9.287
   20SAPC   H4S 2598   4.050  -0.255   9.394
   20SAPC   C25 2599   4.242  -0.162   9.362
   20SAPC   H5R 2600   4.297  -0.186   9.454
   20SAPC   C26 2601   4.313  -0.147   9.248
   20SAPC   H6R 2602   4.422  -0.159   9.252
   20SAPC   C27 2603   4.257  -0.121   9.110
   20SAPC   H7R 2604   4.339  -0.081   9.046
   20SAPC   H7S 2605   4.179  -0.042   9.115
   20SAPC   C28 2606   4.201  -0.246   9.046
   20SAPC   H8R 2607   4.206  -0.333   9.113
   20SAPC   C29 2608   4.139  -0.263   8.927
   20SAPC   H9R 2609   4.106  -0.365   8.901
   20SAPC  C210 2610   4.105  -0.162   8.821
   20SAPC  H10R 2611   4.056  -0.212   8.736
   20SAPC  H10S 2612   4.198  -0.119   8.780
   20SAPC  C211 2613   4.015  -0.053   8.876
   20SAPC  H11R 2614   4.011  -0.045   8.985
   20SAPC  C212 2615   3.936   0.028   8.804
   20SAPC  H12R 2616   3.881   0.107   8.858
   20SAPC  C213 2617   3.919   0.029   8.656
   20SAPC  H13R 2618   4.016   0.004   8.606
   20SAPC  H13S 2619   3.894   0.132   8.623
   20SAPC  C214 2620   3.813  -0.069   8.611
   20SAPC  H14R 2621   3.777  -0.141   8.686
   20SAPC  C215 2622   3.761  -0.071   8.488
   20SAPC  H15R 2623   3.682  -0.144   8.463
   20SAPC  C216 2624   3.802   0.024   8.378
   20SAPC  H16R 2625   3.817  -0.031   8.283
   20SAPC  H16S 2626   3.899   0.074   8.401
   20SAPC  C217 2627   3.695   0.132   8.359
   20SAPC  H17R 2628   3.658   0.171   8.456
   20SAPC  H17S 2629   3.610   0.085   8.306
   20SAPC  C218 2630   3.747   0.251   8.277
   20SAPC  H18R 2631   3.664   0.290   8.213
   20SAPC  H18S 2632   3.827   0.213   8.211
   20SAPC  C219 2633   3.802   0.367   8.361
   20SAPC  H19R 2634   3.885   0.328   8.424
   20SAPC  H19S 2635   3.723   0.404   8.429
   20SAPC  C220 2636   3.853   0.483   8.275
   20SAPC  H20R 2637   3.770   0.524   8.213
   20SAPC  H20S 2638   3.933   0.448   8.205
   20SAPC  H20T 2639   3.895   0.564   8.338
   20SAPC   C33 2640   4.323   0.274   9.471
   20SAPC   H3X 2641   4.267   0.200   9.532
   20SAPC   H3Y 2642   4.430   0.245   9.475
   20SAPC   C34 2643   4.281   0.264   9.323
   20SAPC   H4X 2644   4.316   0.165   9.287
   20SAPC   H4Y 2645   4.335   0.342   9.266
   20SAPC   C35 2646   4.130   0.273   9.292
   20SAPC   H5X 2647   4.080   0.340   9.365
   20SAPC   H5Y 2648   4.084   0.173   9.302
   20SAPC   C36 2649   4.097   0.331   9.153
   20SAPC   H6X 2650   4.148   0.428   9.139
   20SAPC   H6Y 2651   3.987   0.350   9.150
   20SAPC   C37 2652   4.129   0.238   9.035
   20SAPC   H7X 2653   4.074   0.273   8.945
   20SAPC   H7Y 2654   4.090   0.137   9.059
   20SAPC   C38 2655   4.278   0.231   9.000
   20SAPC   H8X 2656   4.334   0.187   9.085
   20SAPC   H8Y 2657   4.316   0.334   8.985
   20SAPC   C39 2658   4.312   0.144   8.879
   20SAPC   H9X 2659   4.266   0.043   8.891
   20SAPC   H9Y 2660   4.422   0.128   8.877
   20SAPC  C310 2661   4.269   0.203   8.744
   20SAPC  H10X 2662   4.305   0.308   8.738
   20SAPC  H10Y 2663   4.159   0.204   8.736
   20SAPC  C311 2664   4.330   0.124   8.628
   20SAPC  H11X 2665   4.267   0.035   8.608
   20SAPC  H11Y 2666   4.430   0.089   8.660
   20SAPC  C312 2667   4.353   0.202   8.497
   20SAPC  H12X 2668   4.369   0.127   8.417
   20SAPC  H12Y 2669   4.449   0.258   8.505
   20SAPC  C313 2670   4.243   0.302   8.458
   20SAPC  H13X 2671   4.288   0.402   8.443
   20SAPC  H13Y 2672   4.168   0.311   8.539
   20SAPC  C314 2673   4.169   0.261   8.331
   20SAPC  H14X 2674   4.085   0.331   8.314
   20SAPC  H14Y 2675   4.125   0.160   8.346
   20SAPC  C315 2676   4.257   0.260   8.206
   20SAPC  H15X 2677   4.348   0.198   8.222
   20SAPC  H15Y 2678   4.291   0.363   8.183
   20SAPC  C316 2679   4.180   0.203   8.087
   20SAPC  H16X 2680   4.092   0.268   8.069
   20SAPC  H16Y 2681   4.140   0.102   8.113
   20SAPC  C317 2682   4.264   0.192   7.960
   20SAPC  H17X 2683   4.345   0.117   7.975
   20SAPC  H17Y 2684   4.313   0.290   7.941
   20SAPC  C318 2685   4.180   0.156   7.837
   20SAPC  H18X 2686   4.091   0.223   7.829
   20SAPC  H18Y 2687   4.144   0.051   7.844
   20SAPC  H18Z 2688   4.238   0.167   7.743
   21SAPC     N 2689   3.587   7.328   9.939
   21SAPC   C12 2690   3.606   7.420  10.057
   21SAPC  H12A 2691   3.635   7.518  10.022
   21SAPC  H12B 2692   3.689   7.381  10.115
   21SAPC   C13 2693   3.483   7.379   9.845
   21SAPC  H13A 2694   3.390   7.389   9.899
   21SAPC  H13B 2695   3.509   7.474   9.801
   21SAPC  H13C 2696   3.465   7.307   9.766
   21SAPC   C14 2697   3.714   7.304   9.865
   21SAPC  H14A 2698   3.753   7.392   9.817
   21SAPC  H14B 2699   3.790   7.263   9.930
   21SAPC  H14C 2700   3.700   7.225   9.792
   21SAPC   C15 2701   3.545   7.193   9.990
   21SAPC  H15A 2702   3.537   7.121   9.910
   21SAPC  H15B 2703   3.621   7.150  10.054
   21SAPC  H15C 2704   3.452   7.197  10.043
   21SAPC   C11 2705   3.488   7.435  10.156
   21SAPC  H11A 2706   3.521   7.502  10.238
   21SAPC  H11B 2707   3.467   7.335  10.200
   21SAPC     P 2708   3.239   7.495  10.181
   21SAPC   O13 2709   3.225   7.374  10.264
   21SAPC   O14 2710   3.245   7.624  10.255
   21SAPC   O12 2711   3.371   7.489  10.092
   21SAPC   O11 2712   3.119   7.503  10.078
   21SAPC    C1 2713   3.136   7.528   9.938
   21SAPC    HA 2714   3.069   7.612   9.910
   21SAPC    HB 2715   3.239   7.558   9.909
   21SAPC    C2 2716   3.095   7.404   9.854
   21SAPC    HS 2717   2.999   7.367   9.896
   21SAPC   O21 2718   3.199   7.305   9.858
   21SAPC   C21 2719   3.155   7.180   9.845
   21SAPC   O22 2720   3.039   7.145   9.859
   21SAPC   C22 2721   3.269   7.093   9.794
   21SAPC   H2R 2722   3.366   7.143   9.814
   21SAPC   H2S 2723   3.268   6.998   9.852
   21SAPC    C3 2724   3.071   7.444   9.706
   21SAPC    HX 2725   2.982   7.512   9.704
   21SAPC    HY 2726   3.047   7.353   9.647
   21SAPC   O31 2727   3.188   7.508   9.652
   21SAPC   C31 2728   3.167   7.567   9.535
   21SAPC   O32 2729   3.059   7.581   9.482
   21SAPC   C32 2730   3.301   7.616   9.482
   21SAPC   H2X 2731   3.380   7.544   9.513
   21SAPC   H2Y 2732   3.323   7.714   9.529
   21SAPC   C23 2733   3.258   7.066   9.642
   21SAPC   H3R 2734   3.261   7.161   9.586
   21SAPC   H3S 2735   3.160   7.017   9.622
   21SAPC   C24 2736   3.369   6.972   9.588
   21SAPC   H4R 2737   3.347   6.958   9.480
   21SAPC   H4S 2738   3.356   6.873   9.637
   21SAPC   C25 2739   3.511   7.020   9.608
   21SAPC   H5R 2740   3.557   6.986   9.702
   21SAPC   C26 2741   3.584   7.095   9.523
   21SAPC   H6R 2742   3.688   7.116   9.551
   21SAPC   C27 2743   3.543   7.151   9.389
   21SAPC   H7R 2744   3.440   7.118   9.362
   21SAPC   H7S 2745   3.608   7.109   9.309
   21SAPC   C28 2746   3.548   7.302   9.387
   21SAPC   H8R 2747   3.479   7.348   9.460
   21SAPC   C29 2748   3.623   7.385   9.311
   21SAPC   H9R 2749   3.609   7.493   9.325
   21SAPC  C210 2750   3.725   7.351   9.205
   21SAPC  H10R 2751   3.777   7.256   9.231
   21SAPC  H10S 2752   3.805   7.428   9.206
   21SAPC  C211 2753   3.670   7.337   9.065
   21SAPC  H11R 2754   3.641   7.234   9.040
   21SAPC  C212 2755   3.650   7.432   8.972
   21SAPC  H12R 2756   3.608   7.400   8.876
   21SAPC  C213 2757   3.676   7.581   8.980
   21SAPC  H13R 2758   3.764   7.607   8.919
   21SAPC  H13S 2759   3.703   7.609   9.084
   21SAPC  C214 2760   3.561   7.668   8.934
   21SAPC  H14R 2761   3.519   7.733   9.013
   21SAPC  C215 2762   3.503   7.675   8.812
   21SAPC  H15R 2763   3.419   7.743   8.797
   21SAPC  C216 2764   3.539   7.595   8.689
   21SAPC  H16R 2765   3.626   7.528   8.708
   21SAPC  H16S 2766   3.573   7.664   8.608
   21SAPC  C217 2767   3.423   7.509   8.635
   21SAPC  H17R 2768   3.378   7.451   8.719
   21SAPC  H17S 2769   3.464   7.435   8.564
   21SAPC  C218 2770   3.311   7.588   8.564
   21SAPC  H18R 2771   3.278   7.671   8.630
   21SAPC  H18S 2772   3.223   7.522   8.549
   21SAPC  C219 2773   3.351   7.646   8.427
   21SAPC  H19R 2774   3.452   7.692   8.434
   21SAPC  H19S 2775   3.280   7.727   8.400
   21SAPC  C220 2776   3.351   7.543   8.313
   21SAPC  H20R 2777   3.402   7.450   8.345
   21SAPC  H20S 2778   3.403   7.584   8.224
   21SAPC  H20T 2779   3.247   7.517   8.283
   21SAPC   C33 2780   3.302   7.628   9.328
   21SAPC   H3X 2781   3.404   7.661   9.299
   21SAPC   H3Y 2782   3.231   7.706   9.293
   21SAPC   C34 2783   3.271   7.496   9.256
   21SAPC   H4X 2784   3.162   7.479   9.251
   21SAPC   H4Y 2785   3.314   7.411   9.314
   21SAPC   C35 2786   3.332   7.493   9.116
   21SAPC   H5X 2787   3.437   7.530   9.126
   21SAPC   H5Y 2788   3.278   7.564   9.050
   21SAPC   C36 2789   3.340   7.355   9.050
   21SAPC   H6X 2790   3.400   7.285   9.111
   21SAPC   H6Y 2791   3.390   7.367   8.951
   21SAPC   C37 2792   3.203   7.294   9.023
   21SAPC   H7X 2793   3.139   7.379   8.991
   21SAPC   H7Y 2794   3.161   7.253   9.118
   21SAPC   C38 2795   3.200   7.188   8.913
   21SAPC   H8X 2796   3.274   7.108   8.934
   21SAPC   H8Y 2797   3.227   7.235   8.816
   21SAPC   C39 2798   3.060   7.127   8.904
   21SAPC   H9X 2799   2.985   7.209   8.904
   21SAPC   H9Y 2800   3.043   7.071   8.999
   21SAPC  C310 2801   3.028   7.042   8.780
   21SAPC  H10X 2802   2.935   6.986   8.803
   21SAPC  H10Y 2803   3.108   6.966   8.762
   21SAPC  C311 2804   3.001   7.128   8.656
   21SAPC  H11X 2805   3.097   7.156   8.608
   21SAPC  H11Y 2806   2.954   7.223   8.688
   21SAPC  C312 2807   2.904   7.063   8.555
   21SAPC  H12X 2808   2.805   7.051   8.605
   21SAPC  H12Y 2809   2.939   6.961   8.529
   21SAPC  C313 2810   2.885   7.147   8.427
   21SAPC  H13X 2811   2.934   7.245   8.441
   21SAPC  H13Y 2812   2.776   7.165   8.409
   21SAPC  C314 2813   2.945   7.079   8.304
   21SAPC  H14X 2814   2.889   6.986   8.280
   21SAPC  H14Y 2815   3.049   7.052   8.330
   21SAPC  C315 2816   2.958   7.167   8.179
   21SAPC  H15X 2817   3.024   7.252   8.205
   21SAPC  H15Y 2818   2.859   7.206   8.147
   21SAPC  C316 2819   3.022   7.089   8.064
   21SAPC  H16X 2820   2.946   7.022   8.017
   21SAPC  H16Y 2821   3.100   7.023   8.106
   21SAPC  C317 2822   3.091   7.173   7.957
   21SAPC  H17X 2823   3.147   7.255   8.005
   21SAPC  H17Y 2824   3.012   7.217   7.893
   21SAPC  C318 2825   3.187   7.091   7.870
   21SAPC  H18X 2826   3.135   7.005   7.822
   21SAPC  H18Y 2827   3.270   7.050   7.932
   21SAPC  H18Z 2828   3.231   7.154   7.790
   22SAPC     N 2829   0.977   6.293  10.202
   22SAPC   C12 2830   1.061   6.407  10.147
   22SAPC  H12A 2831   1.165   6.389  10.172
   22SAPC  H12B 2832   1.031   6.497  10.198
   22SAPC   C13 2833   0.831   6.328  10.201
   22SAPC  H13A 2834   0.771   6.247  10.240
   22SAPC  H13B 2835   0.811   6.418  10.256
   22SAPC  H13C 2836   0.800   6.346  10.099
   22SAPC   C14 2837   0.995   6.169  10.120
   22SAPC  H14A 2838   0.960   6.187  10.020
   22SAPC  H14B 2839   1.099   6.140  10.113
   22SAPC  H14C 2840   0.938   6.087  10.161
   22SAPC   C15 2841   1.015   6.265  10.344
   22SAPC  H15A 2842   0.956   6.184  10.384
   22SAPC  H15B 2843   1.119   6.237  10.351
   22SAPC  H15C 2844   1.002   6.353  10.405
   22SAPC   C11 2845   1.053   6.437   9.995
   22SAPC  H11A 2846   1.087   6.349   9.937
   22SAPC  H11B 2847   1.125   6.519   9.972
   22SAPC     P 2848   0.832   6.404   9.857
   22SAPC   O13 2849   0.873   6.262   9.854
   22SAPC   O14 2850   0.693   6.434   9.896
   22SAPC   O12 2851   0.922   6.481   9.963
   22SAPC   O11 2852   0.872   6.480   9.724
   22SAPC    C1 2853   0.854   6.622   9.723
   22SAPC    HA 2854   0.745   6.646   9.727
   22SAPC    HB 2855   0.901   6.671   9.811
   22SAPC    C2 2856   0.914   6.689   9.596
   22SAPC    HS 2857   0.866   6.789   9.584
   22SAPC   O21 2858   0.893   6.611   9.477
   22SAPC   C21 2859   0.769   6.577   9.450
   22SAPC   O22 2860   0.668   6.618   9.505
   22SAPC   C22 2861   0.773   6.473   9.339
   22SAPC   H2R 2862   0.848   6.504   9.263
   22SAPC   H2S 2863   0.807   6.379   9.387
   22SAPC    C3 2864   1.067   6.710   9.612
   22SAPC    HX 2865   1.084   6.767   9.706
   22SAPC    HY 2866   1.104   6.774   9.528
   22SAPC   O31 2867   1.136   6.583   9.623
   22SAPC   C31 2868   1.179   6.536   9.505
   22SAPC   O32 2869   1.210   6.605   9.410
   22SAPC   C32 2870   1.182   6.383   9.508
   22SAPC   H2X 2871   1.085   6.348   9.549
   22SAPC   H2Y 2872   1.263   6.352   9.578
   22SAPC   C23 2873   0.637   6.450   9.271
   22SAPC   H3R 2874   0.554   6.466   9.343
   22SAPC   H3S 2875   0.633   6.344   9.238
   22SAPC   C24 2876   0.616   6.536   9.146
   22SAPC   H4R 2877   0.521   6.501   9.101
   22SAPC   H4S 2878   0.696   6.514   9.073
   22SAPC   C25 2879   0.605   6.683   9.177
   22SAPC   H5R 2880   0.514   6.713   9.231
   22SAPC   C26 2881   0.698   6.777   9.153
   22SAPC   H6R 2882   0.674   6.881   9.182
   22SAPC   C27 2883   0.834   6.758   9.090
   22SAPC   H7R 2884   0.840   6.820   8.999
   22SAPC   H7S 2885   0.849   6.653   9.055
   22SAPC   C28 2886   0.945   6.796   9.185
   22SAPC   H8R 2887   0.914   6.846   9.278
   22SAPC   C29 2888   1.075   6.768   9.169
   22SAPC   H9R 2889   1.145   6.797   9.249
   22SAPC  C210 2890   1.138   6.693   9.055
   22SAPC  H10R 2891   1.098   6.589   9.057
   22SAPC  H10S 2892   1.246   6.682   9.078
   22SAPC  C211 2893   1.125   6.757   8.918
   22SAPC  H11R 2894   1.155   6.862   8.914
   22SAPC  C212 2895   1.080   6.697   8.806
   22SAPC  H12R 2896   1.076   6.756   8.713
   22SAPC  C213 2897   1.032   6.554   8.792
   22SAPC  H13R 2898   1.039   6.498   8.888
   22SAPC  H13S 2899   1.100   6.500   8.723
   22SAPC  C214 2900   0.891   6.549   8.743
   22SAPC  H14R 2901   0.814   6.560   8.821
   22SAPC  C215 2902   0.852   6.533   8.615
   22SAPC  H15R 2903   0.744   6.531   8.593
   22SAPC  C216 2904   0.943   6.518   8.495
   22SAPC  H16R 2905   0.915   6.425   8.440
   22SAPC  H16S 2906   1.049   6.507   8.524
   22SAPC  C217 2907   0.933   6.636   8.398
   22SAPC  H17R 2908   1.019   6.631   8.328
   22SAPC  H17S 2909   0.941   6.730   8.456
   22SAPC  C218 2910   0.802   6.635   8.317
   22SAPC  H18R 2911   0.723   6.682   8.380
   22SAPC  H18S 2912   0.774   6.529   8.298
   22SAPC  C219 2913   0.804   6.705   8.181
   22SAPC  H19R 2914   0.838   6.811   8.194
   22SAPC  H19S 2915   0.699   6.710   8.146
   22SAPC  C220 2916   0.889   6.637   8.074
   22SAPC  H20R 2917   0.993   6.621   8.110
   22SAPC  H20S 2918   0.892   6.699   7.982
   22SAPC  H20T 2919   0.845   6.538   8.048
   22SAPC   C33 2920   1.206   6.321   9.368
   22SAPC   H3X 2921   1.228   6.213   9.380
   22SAPC   H3Y 2922   1.293   6.368   9.319
   22SAPC   C34 2923   1.082   6.335   9.279
   22SAPC   H4X 2924   1.055   6.442   9.269
   22SAPC   H4Y 2925   0.997   6.283   9.329
   22SAPC   C35 2926   1.095   6.277   9.137
   22SAPC   H5X 2927   1.136   6.174   9.143
   22SAPC   H5Y 2928   1.166   6.338   9.077
   22SAPC   C36 2929   0.958   6.272   9.067
   22SAPC   H6X 2930   0.919   6.375   9.054
   22SAPC   H6Y 2931   0.888   6.219   9.135
   22SAPC   C37 2932   0.958   6.199   8.932
   22SAPC   H7X 2933   1.014   6.104   8.943
   22SAPC   H7Y 2934   1.010   6.261   8.855
   22SAPC   C38 2935   0.815   6.167   8.886
   22SAPC   H8X 2936   0.760   6.261   8.864
   22SAPC   H8Y 2937   0.764   6.118   8.972
   22SAPC   C39 2938   0.808   6.073   8.765
   22SAPC   H9X 2939   0.704   6.035   8.756
   22SAPC   H9Y 2940   0.874   5.985   8.782
   22SAPC  C310 2941   0.843   6.140   8.633
   22SAPC  H10X 2942   0.948   6.177   8.638
   22SAPC  H10Y 2943   0.777   6.228   8.618
   22SAPC  C311 2944   0.827   6.044   8.514
   22SAPC  H11X 2945   0.725   6.000   8.518
   22SAPC  H11Y 2946   0.900   5.961   8.524
   22SAPC  C312 2947   0.845   6.112   8.378
   22SAPC  H12X 2948   0.769   6.193   8.369
   22SAPC  H12Y 2949   0.826   6.039   8.297
   22SAPC  C313 2950   0.984   6.172   8.359
   22SAPC  H13X 2951   1.060   6.091   8.357
   22SAPC  H13Y 2952   1.010   6.239   8.444
   22SAPC  C314 2953   0.993   6.254   8.230
   22SAPC  H14X 2954   0.906   6.322   8.221
   22SAPC  H14Y 2955   0.988   6.184   8.144
   22SAPC  C315 2956   1.121   6.338   8.226
   22SAPC  H15X 2957   1.202   6.284   8.279
   22SAPC  H15Y 2958   1.104   6.434   8.280
   22SAPC  C316 2959   1.167   6.366   8.083
   22SAPC  H16X 2960   1.247   6.444   8.086
   22SAPC  H16Y 2961   1.084   6.407   8.022
   22SAPC  C317 2962   1.225   6.240   8.019
   22SAPC  H17X 2963   1.143   6.167   7.997
   22SAPC  H17Y 2964   1.294   6.192   8.091
   22SAPC  C318 2965   1.301   6.270   7.892
   22SAPC  H18X 2966   1.374   6.351   7.910
   22SAPC  H18Y 2967   1.230   6.303   7.812
   22SAPC  H18Z 2968   1.357   6.181   7.856
   23SAPC     N 2969   5.764   7.320  10.129
   23SAPC   C12 2970   5.911   7.364  10.135
   23SAPC  H12A 2971   5.974   7.277  10.134
   23SAPC  H12B 2972   5.932   7.415  10.228
   23SAPC   C13 2973   5.739   7.266   9.991
   23SAPC  H13A 2974   5.761   7.343   9.918
   23SAPC  H13B 2975   5.802   7.181   9.971
   23SAPC  H13C 2976   5.636   7.233   9.979
   23SAPC   C14 2977   5.734   7.208  10.224
   23SAPC  H14A 2978   5.732   7.238  10.328
   23SAPC  H14B 2979   5.639   7.163  10.202
   23SAPC  H14C 2980   5.807   7.129  10.214
   23SAPC   C15 2981   5.668   7.433  10.151
   23SAPC  H15A 2982   5.567   7.401  10.129
   23SAPC  H15B 2983   5.672   7.472  10.251
   23SAPC  H15C 2984   5.696   7.513  10.084
   23SAPC   C11 2985   5.961   7.459  10.023
   23SAPC  H11A 2986   5.976   7.402   9.929
   23SAPC  H11B 2987   6.060   7.501  10.052
   23SAPC     P 2988   5.888   7.712   9.978
   23SAPC   O13 2989   5.785   7.779  10.060
   23SAPC   O14 2990   6.029   7.749  10.002
   23SAPC   O12 2991   5.864   7.560  10.000
   23SAPC   O11 2992   5.849   7.729   9.824
   23SAPC    C1 2993   5.792   7.614   9.759
   23SAPC    HA 2994   5.861   7.528   9.760
   23SAPC    HB 2995   5.698   7.584   9.810
   23SAPC    C2 2996   5.755   7.644   9.611
   23SAPC    HS 2997   5.725   7.750   9.605
   23SAPC   O21 2998   5.644   7.558   9.579
   23SAPC   C21 2999   5.581   7.590   9.467
   23SAPC   O22 3000   5.597   7.692   9.403
   23SAPC   C22 3001   5.480   7.479   9.435
   23SAPC   H2R 3002   5.538   7.384   9.428
   23SAPC   H2S 3003   5.410   7.471   9.521
   23SAPC    C3 3004   5.878   7.623   9.517
   23SAPC    HX 3005   5.949   7.705   9.540
   23SAPC    HY 3006   5.848   7.636   9.410
   23SAPC   O31 3007   5.945   7.498   9.540
   23SAPC   C31 3008   5.893   7.393   9.480
   23SAPC   O32 3009   5.796   7.393   9.406
   23SAPC   C32 3010   5.974   7.269   9.518
   23SAPC   H2X 3011   5.940   7.236   9.619
   23SAPC   H2Y 3012   6.082   7.297   9.524
   23SAPC   C23 3013   5.402   7.501   9.304
   23SAPC   H3R 3014   5.356   7.603   9.304
   23SAPC   H3S 3015   5.319   7.427   9.300
   23SAPC   C24 3016   5.491   7.481   9.180
   23SAPC   H4R 3017   5.547   7.387   9.195
   23SAPC   H4S 3018   5.569   7.560   9.181
   23SAPC   C25 3019   5.418   7.474   9.048
   23SAPC   H5R 3020   5.338   7.398   9.045
   23SAPC   C26 3021   5.437   7.548   8.937
   23SAPC   H6R 3022   5.374   7.527   8.850
   23SAPC   C27 3023   5.536   7.660   8.912
   23SAPC   H7R 3024   5.506   7.713   8.820
   23SAPC   H7S 3025   5.635   7.615   8.886
   23SAPC   C28 3026   5.547   7.765   9.021
   23SAPC   H8R 3027   5.454   7.822   9.032
   23SAPC   C29 3028   5.648   7.799   9.103
   23SAPC   H9R 3029   5.623   7.872   9.181
   23SAPC  C210 3030   5.790   7.747   9.119
   23SAPC  H10R 3031   5.812   7.744   9.228
   23SAPC  H10S 3032   5.858   7.826   9.081
   23SAPC  C211 3033   5.827   7.613   9.063
   23SAPC  H11R 3034   5.803   7.526   9.125
   23SAPC  C212 3035   5.881   7.595   8.941
   23SAPC  H12R 3036   5.891   7.493   8.901
   23SAPC  C213 3037   5.914   7.702   8.843
   23SAPC  H13R 3038   5.964   7.784   8.898
   23SAPC  H13S 3039   5.818   7.744   8.805
   23SAPC  C214 3040   6.002   7.657   8.730
   23SAPC  H14R 3041   6.093   7.602   8.761
   23SAPC  C215 3042   5.985   7.681   8.599
   23SAPC  H15R 3043   6.058   7.640   8.528
   23SAPC  C216 3044   5.873   7.759   8.535
   23SAPC  H16R 3045   5.897   7.771   8.428
   23SAPC  H16S 3046   5.867   7.861   8.579
   23SAPC  C217 3047   5.735   7.693   8.543
   23SAPC  H17R 3048   5.697   7.689   8.647
   23SAPC  H17S 3049   5.744   7.588   8.508
   23SAPC  C218 3050   5.634   7.767   8.455
   23SAPC  H18R 3051   5.672   7.768   8.351
   23SAPC  H18S 3052   5.627   7.873   8.488
   23SAPC  C219 3053   5.494   7.705   8.458
   23SAPC  H19R 3054   5.432   7.759   8.383
   23SAPC  H19S 3055   5.449   7.722   8.558
   23SAPC  C220 3056   5.490   7.555   8.428
   23SAPC  H20R 3057   5.552   7.532   8.339
   23SAPC  H20S 3058   5.386   7.521   8.409
   23SAPC  H20T 3059   5.530   7.497   8.514
   23SAPC   C33 3060   5.954   7.157   9.415
   23SAPC   H3X 3061   5.845   7.135   9.406
   23SAPC   H3Y 3062   6.003   7.063   9.448
   23SAPC   C34 3063   6.007   7.196   9.276
   23SAPC   H4X 3064   6.116   7.178   9.269
   23SAPC   H4Y 3065   5.992   7.305   9.258
   23SAPC   C35 3066   5.930   7.121   9.167
   23SAPC   H5X 3067   5.825   7.158   9.170
   23SAPC   H5Y 3068   5.928   7.012   9.192
   23SAPC   C36 3069   5.983   7.139   9.025
   23SAPC   H6X 3070   5.921   7.081   8.953
   23SAPC   H6Y 3071   6.086   7.098   9.021
   23SAPC   C37 3072   5.991   7.283   8.979
   23SAPC   H7X 3073   6.046   7.344   9.055
   23SAPC   H7Y 3074   5.886   7.319   8.973
   23SAPC   C38 3075   6.067   7.298   8.846
   23SAPC   H8X 3076   6.165   7.247   8.857
   23SAPC   H8Y 3077   6.090   7.406   8.830
   23SAPC   C39 3078   5.994   7.244   8.722
   23SAPC   H9X 3079   5.973   7.136   8.733
   23SAPC   H9Y 3080   6.064   7.256   8.636
   23SAPC  C310 3081   5.864   7.319   8.689
   23SAPC  H10X 3082   5.881   7.428   8.703
   23SAPC  H10Y 3083   5.785   7.289   8.760
   23SAPC  C311 3084   5.815   7.302   8.545
   23SAPC  H11X 3085   5.724   7.364   8.533
   23SAPC  H11Y 3086   5.785   7.196   8.529
   23SAPC  C312 3087   5.917   7.345   8.437
   23SAPC  H12X 3088   5.981   7.257   8.414
   23SAPC  H12Y 3089   5.983   7.425   8.477
   23SAPC  C313 3090   5.850   7.397   8.309
   23SAPC  H13X 3091   5.809   7.499   8.325
   23SAPC  H13Y 3092   5.764   7.331   8.287
   23SAPC  C314 3093   5.942   7.400   8.186
   23SAPC  H14X 3094   6.028   7.331   8.201
   23SAPC  H14Y 3095   5.984   7.502   8.175
   23SAPC  C315 3096   5.867   7.357   8.058
   23SAPC  H15X 3097   5.761   7.387   8.066
   23SAPC  H15Y 3098   5.870   7.246   8.052
   23SAPC  C316 3099   5.923   7.417   7.928
   23SAPC  H16X 3100   5.881   7.360   7.843
   23SAPC  H16Y 3101   6.034   7.406   7.925
   23SAPC  C317 3102   5.884   7.565   7.910
   23SAPC  H17X 3103   5.933   7.626   7.989
   23SAPC  H17Y 3104   5.775   7.573   7.925
   23SAPC  C318 3105   5.919   7.622   7.773
   23SAPC  H18X 3106   6.028   7.615   7.753
   23SAPC  H18Y 3107   5.888   7.728   7.766
   23SAPC  H18Z 3108   5.865   7.565   7.693
   24SAPC     N 3109   7.103   6.869   9.900
   24SAPC   C12 3110   6.975   6.824   9.970
   24SAPC  H12A 3111   6.974   6.717   9.979
   24SAPC  H12B 3112   6.891   6.852   9.909
   24SAPC   C13 3113   7.089   7.013   9.862
   24SAPC  H13A 3114   7.183   7.056   9.832
   24SAPC  H13B 3115   7.015   7.029   9.785
   24SAPC  H13C 3116   7.056   7.068   9.949
   24SAPC   C14 3117   7.216   6.858   9.999
   24SAPC  H14A 3118   7.235   6.755  10.027
   24SAPC  H14B 3119   7.308   6.901   9.962
   24SAPC  H14C 3120   7.190   6.913  10.088
   24SAPC   C15 3121   7.134   6.788   9.778
   24SAPC  H15A 3122   7.053   6.789   9.707
   24SAPC  H15B 3123   7.222   6.824   9.728
   24SAPC  H15C 3124   7.151   6.683   9.801
   24SAPC   C11 3125   6.949   6.884  10.112
   24SAPC  H11A 3126   7.016   6.833  10.185
   24SAPC  H11B 3127   6.844   6.860  10.141
   24SAPC     P 3128   6.949   7.111  10.244
   24SAPC   O13 3129   6.902   7.027  10.356
   24SAPC   O14 3130   7.070   7.194  10.269
   24SAPC   O12 3131   6.970   7.025  10.114
   24SAPC   O11 3132   6.836   7.213  10.204
   24SAPC    C1 3133   6.855   7.297  10.089
   24SAPC    HA 3134   6.851   7.404  10.120
   24SAPC    HB 3135   6.953   7.282  10.039
   24SAPC    C2 3136   6.747   7.276   9.980
   24SAPC    HS 3137   6.649   7.307  10.023
   24SAPC   O21 3138   6.743   7.137   9.941
   24SAPC   C21 3139   6.648   7.109   9.854
   24SAPC   O22 3140   6.545   7.171   9.838
   24SAPC   C22 3141   6.693   6.993   9.766
   24SAPC   H2R 3142   6.795   6.961   9.795
   24SAPC   H2S 3143   6.622   6.908   9.783
   24SAPC    C3 3144   6.780   7.365   9.857
   24SAPC    HX 3145   6.799   7.469   9.892
   24SAPC    HY 3146   6.691   7.367   9.790
   24SAPC   O31 3147   6.897   7.311   9.791
   24SAPC   C31 3148   6.915   7.357   9.669
   24SAPC   O32 3149   6.851   7.446   9.617
   24SAPC   C32 3150   7.020   7.269   9.602
   24SAPC   H2X 3151   6.972   7.171   9.584
   24SAPC   H2Y 3152   7.105   7.254   9.672
   24SAPC   C23 3153   6.690   7.035   9.618
   24SAPC   H3R 3154   6.755   7.124   9.600
   24SAPC   H3S 3155   6.587   7.067   9.592
   24SAPC   C24 3156   6.729   6.921   9.522
   24SAPC   H4R 3157   6.682   6.947   9.425
   24SAPC   H4S 3158   6.681   6.827   9.557
   24SAPC   C25 3159   6.878   6.901   9.506
   24SAPC   H5R 3160   6.938   6.903   9.598
   24SAPC   C26 3161   6.940   6.884   9.387
   24SAPC   H6R 3162   7.049   6.870   9.383
   24SAPC   C27 3163   6.865   6.882   9.256
   24SAPC   H7R 3164   6.803   6.973   9.249
   24SAPC   H7S 3165   6.794   6.796   9.258
   24SAPC   C28 3166   6.948   6.874   9.131
   24SAPC   H8R 3167   7.057   6.880   9.141
   24SAPC   C29 3168   6.894   6.860   9.008
   24SAPC   H9R 3169   6.959   6.857   8.920
   24SAPC  C210 3170   6.746   6.851   8.979
   24SAPC  H10R 3171   6.689   6.830   9.072
   24SAPC  H10S 3172   6.731   6.763   8.913
   24SAPC  C211 3173   6.686   6.974   8.920
   24SAPC  H11R 3174   6.679   7.060   8.988
   24SAPC  C212 3175   6.639   6.987   8.795
   24SAPC  H12R 3176   6.595   7.083   8.765
   24SAPC  C213 3177   6.640   6.879   8.690
   24SAPC  H13R 3178   6.553   6.811   8.705
   24SAPC  H13S 3179   6.731   6.816   8.700
   24SAPC  C214 3180   6.630   6.938   8.552
   24SAPC  H14R 3181   6.574   7.032   8.543
   24SAPC  C215 3182   6.679   6.883   8.441
   24SAPC  H15R 3183   6.669   6.939   8.347
   24SAPC  C216 3184   6.754   6.753   8.433
   24SAPC  H16R 3185   6.683   6.669   8.420
   24SAPC  H16S 3186   6.813   6.732   8.525
   24SAPC  C217 3187   6.850   6.754   8.313
   24SAPC  H17R 3188   6.913   6.663   8.316
   24SAPC  H17S 3189   6.918   6.842   8.322
   24SAPC  C218 3190   6.774   6.757   8.180
   24SAPC  H18R 3191   6.687   6.826   8.183
   24SAPC  H18S 3192   6.732   6.655   8.164
   24SAPC  C219 3193   6.859   6.799   8.062
   24SAPC  H19R 3194   6.794   6.792   7.972
   24SAPC  H19S 3195   6.943   6.726   8.049
   24SAPC  C220 3196   6.913   6.942   8.069
   24SAPC  H20R 3197   6.969   6.966   7.977
   24SAPC  H20S 3198   6.981   6.956   8.156
   24SAPC  H20T 3199   6.829   7.014   8.079
   24SAPC   C33 3200   7.070   7.325   9.468
   24SAPC   H3X 3201   7.168   7.374   9.485
   24SAPC   H3Y 3202   7.003   7.402   9.425
   24SAPC   C34 3203   7.085   7.214   9.364
   24SAPC   H4X 3204   6.988   7.198   9.312
   24SAPC   H4Y 3205   7.115   7.118   9.411
   24SAPC   C35 3206   7.195   7.252   9.265
   24SAPC   H5X 3207   7.291   7.226   9.313
   24SAPC   H5Y 3208   7.190   7.362   9.245
   24SAPC   C36 3209   7.190   7.182   9.131
   24SAPC   H6X 3210   7.176   7.073   9.147
   24SAPC   H6Y 3211   7.287   7.199   9.079
   24SAPC   C37 3212   7.080   7.237   9.042
   24SAPC   H7X 3213   7.094   7.346   9.025
   24SAPC   H7Y 3214   6.982   7.222   9.092
   24SAPC   C38 3215   7.081   7.162   8.910
   24SAPC   H8X 3216   7.097   7.055   8.934
   24SAPC   H8Y 3217   7.164   7.196   8.844
   24SAPC   C39 3218   6.947   7.172   8.841
   24SAPC   H9X 3219   6.870   7.151   8.918
   24SAPC   H9Y 3220   6.936   7.095   8.761
   24SAPC  C310 3221   6.920   7.311   8.785
   24SAPC  H10X 3222   6.993   7.336   8.704
   24SAPC  H10Y 3223   6.932   7.385   8.866
   24SAPC  C311 3224   6.777   7.317   8.734
   24SAPC  H11X 3225   6.742   7.421   8.747
   24SAPC  H11Y 3226   6.714   7.258   8.805
   24SAPC  C312 3227   6.757   7.262   8.592
   24SAPC  H12X 3228   6.654   7.222   8.588
   24SAPC  H12Y 3229   6.826   7.177   8.576
   24SAPC  C313 3230   6.768   7.360   8.475
   24SAPC  H13X 3231   6.691   7.441   8.479
   24SAPC  H13Y 3232   6.741   7.302   8.384
   24SAPC  C314 3233   6.901   7.434   8.455
   24SAPC  H14X 3234   6.931   7.483   8.550
   24SAPC  H14Y 3235   6.885   7.516   8.381
   24SAPC  C315 3236   7.013   7.346   8.401
   24SAPC  H15X 3237   7.049   7.284   8.486
   24SAPC  H15Y 3238   7.099   7.410   8.370
   24SAPC  C316 3239   6.973   7.255   8.284
   24SAPC  H16X 3240   6.897   7.180   8.314
   24SAPC  H16Y 3241   7.064   7.197   8.258
   24SAPC  C317 3242   6.928   7.329   8.157
   24SAPC  H17X 3243   6.948   7.260   8.072
   24SAPC  H17Y 3244   6.994   7.418   8.146
   24SAPC  C318 3245   6.782   7.373   8.142
   24SAPC  H18X 3246   6.757   7.454   8.214
   24SAPC  H18Y 3247   6.714   7.287   8.158
   24SAPC  H18Z 3248   6.765   7.412   8.039
   25SAPC     N 3249   4.656   4.153   5.775
   25SAPC   C12 3250   4.749   4.215   5.879
   25SAPC  H12A 3251   4.762   4.319   5.852
   25SAPC  H12B 3252   4.845   4.165   5.875
   25SAPC   C13 3253   4.727   4.116   5.649
   25SAPC  H13A 3254   4.658   4.069   5.580
   25SAPC  H13B 3255   4.769   4.202   5.599
   25SAPC  H13C 3256   4.806   4.044   5.667
   25SAPC   C14 3257   4.590   4.031   5.832
   25SAPC  H14A 3258   4.659   3.951   5.851
   25SAPC  H14B 3259   4.542   4.057   5.925
   25SAPC  H14C 3260   4.513   3.993   5.766
   25SAPC   C15 3261   4.546   4.251   5.744
   25SAPC  H15A 3262   4.584   4.346   5.708
   25SAPC  H15B 3263   4.475   4.212   5.673
   25SAPC  H15C 3264   4.491   4.271   5.835
   25SAPC   C11 3265   4.700   4.213   6.026
   25SAPC  H11A 3266   4.766   4.280   6.086
   25SAPC  H11B 3267   4.709   4.111   6.068
   25SAPC     P 3268   4.495   4.290   6.169
   25SAPC   O13 3269   4.349   4.295   6.141
   25SAPC   O14 3270   4.544   4.196   6.271
   25SAPC   O12 3271   4.564   4.256   6.032
   25SAPC   O11 3272   4.551   4.436   6.196
   25SAPC    C1 3273   4.554   4.528   6.086
   25SAPC    HA 3274   4.617   4.488   6.003
   25SAPC    HB 3275   4.452   4.546   6.046
   25SAPC    C2 3276   4.616   4.666   6.124
   25SAPC    HS 3277   4.666   4.708   6.034
   25SAPC   O21 3278   4.709   4.654   6.233
   25SAPC   C21 3279   4.816   4.580   6.210
   25SAPC   O22 3280   4.852   4.540   6.101
   25SAPC   C22 3281   4.900   4.569   6.338
   25SAPC   H2R 3282   4.992   4.629   6.318
   25SAPC   H2S 3283   4.846   4.618   6.422
   25SAPC    C3 3284   4.504   4.768   6.163
   25SAPC    HX 3285   4.449   4.794   6.070
   25SAPC    HY 3286   4.550   4.861   6.201
   25SAPC   O31 3287   4.410   4.710   6.255
   25SAPC   C31 3288   4.447   4.712   6.382
   25SAPC   O32 3289   4.534   4.784   6.430
   25SAPC   C32 3290   4.357   4.618   6.461
   25SAPC   H2X 3291   4.282   4.572   6.394
   25SAPC   H2Y 3292   4.304   4.678   6.539
   25SAPC   C23 3293   4.943   4.425   6.375
   25SAPC   H3R 3294   5.023   4.432   6.452
   25SAPC   H3S 3295   4.988   4.375   6.287
   25SAPC   C24 3296   4.831   4.335   6.433
   25SAPC   H4R 3297   4.873   4.234   6.453
   25SAPC   H4S 3298   4.754   4.322   6.354
   25SAPC   C25 3299   4.766   4.392   6.557
   25SAPC   H5R 3300   4.718   4.490   6.539
   25SAPC   C26 3301   4.755   4.339   6.680
   25SAPC   H6R 3302   4.707   4.401   6.758
   25SAPC   C27 3303   4.806   4.208   6.734
   25SAPC   H7R 3304   4.865   4.233   6.825
   25SAPC   H7S 3305   4.877   4.162   6.662
   25SAPC   C28 3306   4.709   4.101   6.778
   25SAPC   H8R 3307   4.683   4.028   6.700
   25SAPC   C29 3308   4.652   4.090   6.900
   25SAPC   H9R 3309   4.585   4.004   6.916
   25SAPC  C210 3310   4.670   4.182   7.019
   25SAPC  H10R 3311   4.663   4.288   6.985
   25SAPC  H10S 3312   4.772   4.175   7.064
   25SAPC  C211 3313   4.562   4.157   7.121
   25SAPC  H11R 3314   4.466   4.125   7.076
   25SAPC  C212 3315   4.562   4.166   7.255
   25SAPC  H12R 3316   4.467   4.146   7.306
   25SAPC  C213 3317   4.674   4.205   7.350
   25SAPC  H13R 3318   4.674   4.315   7.363
   25SAPC  H13S 3319   4.773   4.178   7.308
   25SAPC  C214 3320   4.652   4.139   7.485
   25SAPC  H14R 3321   4.556   4.086   7.496
   25SAPC  C215 3322   4.735   4.137   7.590
   25SAPC  H15R 3323   4.703   4.083   7.681
   25SAPC  C216 3324   4.871   4.200   7.600
   25SAPC  H16R 3325   4.894   4.257   7.508
   25SAPC  H16S 3326   4.950   4.122   7.611
   25SAPC  C217 3327   4.878   4.295   7.722
   25SAPC  H17R 3328   4.793   4.366   7.716
   25SAPC  H17S 3329   4.970   4.356   7.717
   25SAPC  C218 3330   4.877   4.222   7.857
   25SAPC  H18R 3331   4.982   4.218   7.895
   25SAPC  H18S 3332   4.844   4.116   7.844
   25SAPC  C219 3333   4.787   4.289   7.961
   25SAPC  H19R 3334   4.817   4.395   7.970
   25SAPC  H19S 3335   4.804   4.240   8.059
   25SAPC  C220 3336   4.637   4.282   7.928
   25SAPC  H20R 3337   4.607   4.177   7.910
   25SAPC  H20S 3338   4.614   4.341   7.838
   25SAPC  H20T 3339   4.577   4.322   8.013
   25SAPC   C33 3340   4.437   4.507   6.530
   25SAPC   H3X 3341   4.511   4.554   6.598
   25SAPC   H3Y 3342   4.493   4.446   6.455
   25SAPC   C34 3343   4.347   4.413   6.612
   25SAPC   H4X 3344   4.293   4.344   6.544
   25SAPC   H4Y 3345   4.272   4.475   6.664
   25SAPC   C35 3346   4.432   4.335   6.713
   25SAPC   H5X 3347   4.504   4.408   6.755
   25SAPC   H5Y 3348   4.489   4.255   6.661
   25SAPC   C36 3349   4.361   4.278   6.837
   25SAPC   H6X 3350   4.443   4.261   6.911
   25SAPC   H6Y 3351   4.317   4.178   6.818
   25SAPC   C37 3352   4.262   4.374   6.901
   25SAPC   H7X 3353   4.166   4.377   6.845
   25SAPC   H7Y 3354   4.304   4.476   6.892
   25SAPC   C38 3355   4.239   4.345   7.051
   25SAPC   H8X 3356   4.326   4.293   7.094
   25SAPC   H8Y 3357   4.151   4.278   7.065
   25SAPC   C39 3358   4.217   4.474   7.130
   25SAPC   H9X 3359   4.147   4.455   7.214
   25SAPC   H9Y 3360   4.170   4.549   7.063
   25SAPC  C310 3361   4.347   4.531   7.187
   25SAPC  H10X 3362   4.382   4.464   7.268
   25SAPC  H10Y 3363   4.323   4.630   7.232
   25SAPC  C311 3364   4.461   4.547   7.085
   25SAPC  H11X 3365   4.435   4.627   7.012
   25SAPC  H11Y 3366   4.478   4.453   7.029
   25SAPC  C312 3367   4.593   4.578   7.153
   25SAPC  H12X 3368   4.672   4.597   7.077
   25SAPC  H12Y 3369   4.624   4.490   7.213
   25SAPC  C313 3370   4.580   4.700   7.244
   25SAPC  H13X 3371   4.504   4.684   7.324
   25SAPC  H13Y 3372   4.546   4.785   7.182
   25SAPC  C314 3373   4.711   4.736   7.312
   25SAPC  H14X 3374   4.696   4.832   7.366
   25SAPC  H14Y 3375   4.786   4.754   7.232
   25SAPC  C315 3376   4.763   4.630   7.409
   25SAPC  H15X 3377   4.862   4.664   7.447
   25SAPC  H15Y 3378   4.782   4.534   7.355
   25SAPC  C316 3379   4.672   4.603   7.530
   25SAPC  H16X 3380   4.726   4.534   7.599
   25SAPC  H16Y 3381   4.580   4.550   7.496
   25SAPC  C317 3382   4.632   4.730   7.606
   25SAPC  H17X 3383   4.561   4.788   7.544
   25SAPC  H17Y 3384   4.723   4.792   7.620
   25SAPC  C318 3385   4.570   4.702   7.743
   25SAPC  H18X 3386   4.546   4.798   7.794
   25SAPC  H18Y 3387   4.642   4.646   7.807
   25SAPC  H18Z 3388   4.477   4.643   7.733
   26SAPC     N 3389   4.082   5.325   6.005
   26SAPC   C12 3390   4.222   5.313   5.945
   26SAPC  H12A 3391   4.215   5.290   5.840
   26SAPC  H12B 3392   4.271   5.228   5.991
   26SAPC   C13 3393   4.089   5.383   6.142
   26SAPC  H13A 3394   4.155   5.324   6.204
   26SAPC  H13B 3395   4.130   5.483   6.136
   26SAPC  H13C 3396   3.992   5.391   6.188
   26SAPC   C14 3397   3.997   5.413   5.920
   26SAPC  H14A 3398   3.997   5.380   5.817
   26SAPC  H14B 3399   3.894   5.419   5.955
   26SAPC  H14C 3400   4.039   5.512   5.922
   26SAPC   C15 3401   4.021   5.188   6.012
   26SAPC  H15A 3402   4.009   5.146   5.913
   26SAPC  H15B 3403   4.083   5.121   6.070
   26SAPC  H15C 3404   3.923   5.191   6.057
   26SAPC   C11 3405   4.320   5.432   5.957
   26SAPC  H11A 3406   4.422   5.393   5.935
   26SAPC  H11B 3407   4.322   5.470   6.061
   26SAPC     P 3408   4.359   5.675   5.881
   26SAPC   O13 3409   4.483   5.660   5.961
   26SAPC   O14 3410   4.370   5.744   5.751
   26SAPC   O12 3411   4.289   5.534   5.861
   26SAPC   O11 3412   4.243   5.745   5.962
   26SAPC    C1 3413   4.119   5.758   5.889
   26SAPC    HA 3414   4.134   5.811   5.793
   26SAPC    HB 3415   4.075   5.660   5.863
   26SAPC    C2 3416   4.012   5.839   5.967
   26SAPC    HS 3417   3.938   5.877   5.893
   26SAPC   O21 3418   4.072   5.948   6.037
   26SAPC   C21 3419   4.145   6.030   5.963
   26SAPC   O22 3420   4.135   6.045   5.842
   26SAPC   C22 3421   4.238   6.109   6.053
   26SAPC   H2R 3422   4.273   6.196   5.995
   26SAPC   H2S 3423   4.176   6.147   6.138
   26SAPC    C3 3424   3.932   5.752   6.070
   26SAPC    HX 3425   3.874   5.677   6.011
   26SAPC    HY 3426   3.857   5.815   6.121
   26SAPC   O31 3427   4.014   5.679   6.164
   26SAPC   C31 3428   4.047   5.750   6.273
   26SAPC   O32 3429   4.021   5.866   6.293
   26SAPC   C32 3430   4.109   5.656   6.376
   26SAPC   H2X 3431   4.153   5.720   6.456
   26SAPC   H2Y 3432   4.191   5.599   6.327
   26SAPC   C23 3433   4.361   6.029   6.106
   26SAPC   H3R 3434   4.438   6.104   6.132
   26SAPC   H3S 3435   4.403   5.965   6.026
   26SAPC   C24 3436   4.333   5.944   6.233
   26SAPC   H4R 3437   4.275   5.855   6.199
   26SAPC   H4S 3438   4.267   6.002   6.302
   26SAPC   C25 3439   4.459   5.900   6.303
   26SAPC   H5R 3440   4.543   5.882   6.234
   26SAPC   C26 3441   4.480   5.877   6.435
   26SAPC   H6R 3442   4.581   5.849   6.466
   26SAPC   C27 3443   4.383   5.889   6.551
   26SAPC   H7R 3444   4.278   5.893   6.514
   26SAPC   H7S 3445   4.399   5.987   6.602
   26SAPC   C28 3446   4.400   5.774   6.648
   26SAPC   H8R 3447   4.403   5.675   6.599
   26SAPC   C29 3448   4.410   5.777   6.783
   26SAPC   H9R 3449   4.429   5.682   6.836
   26SAPC  C210 3450   4.409   5.895   6.876
   26SAPC  H10R 3451   4.418   5.988   6.815
   26SAPC  H10S 3452   4.500   5.892   6.939
   26SAPC  C211 3453   4.287   5.911   6.965
   26SAPC  H11R 3454   4.205   5.967   6.918
   26SAPC  C212 3455   4.268   5.865   7.091
   26SAPC  H12R 3456   4.172   5.888   7.140
   26SAPC  C213 3457   4.362   5.785   7.177
   26SAPC  H13R 3458   4.435   5.731   7.113
   26SAPC  H13S 3459   4.302   5.705   7.227
   26SAPC  C214 3460   4.440   5.854   7.286
   26SAPC  H14R 3461   4.549   5.854   7.272
   26SAPC  C215 3462   4.390   5.916   7.395
   26SAPC  H15R 3463   4.460   5.963   7.465
   26SAPC  C216 3464   4.244   5.931   7.433
   26SAPC  H16R 3465   4.182   5.847   7.396
   26SAPC  H16S 3466   4.203   6.024   7.387
   26SAPC  C217 3467   4.228   5.943   7.585
   26SAPC  H17R 3468   4.306   6.009   7.628
   26SAPC  H17S 3469   4.240   5.842   7.631
   26SAPC  C218 3470   4.092   6.003   7.626
   26SAPC  H18R 3471   4.011   5.945   7.578
   26SAPC  H18S 3472   4.087   6.107   7.588
   26SAPC  C219 3473   4.073   6.003   7.778
   26SAPC  H19R 3474   4.160   6.053   7.826
   26SAPC  H19S 3475   4.070   5.898   7.814
   26SAPC  C220 3476   3.946   6.076   7.822
   26SAPC  H20R 3477   3.927   6.060   7.930
   26SAPC  H20S 3478   3.858   6.038   7.765
   26SAPC  H20T 3479   3.955   6.185   7.802
   26SAPC   C33 3480   4.002   5.563   6.436
   26SAPC   H3X 3481   3.941   5.517   6.355
   26SAPC   H3Y 3482   3.933   5.622   6.500
   26SAPC   C34 3483   4.061   5.452   6.522
   26SAPC   H4X 3484   4.141   5.401   6.464
   26SAPC   H4Y 3485   3.982   5.377   6.545
   26SAPC   C35 3486   4.118   5.502   6.655
   26SAPC   H5X 3487   4.035   5.534   6.723
   26SAPC   H5Y 3488   4.182   5.591   6.639
   26SAPC   C36 3489   4.201   5.391   6.718
   26SAPC   H6X 3490   4.283   5.369   6.647
   26SAPC   H6Y 3491   4.137   5.301   6.729
   26SAPC   C37 3492   4.265   5.422   6.853
   26SAPC   H7X 3493   4.314   5.521   6.849
   26SAPC   H7Y 3494   4.344   5.346   6.874
   26SAPC   C38 3495   4.165   5.420   6.969
   26SAPC   H8X 3496   4.115   5.321   6.974
   26SAPC   H8Y 3497   4.088   5.498   6.949
   26SAPC   C39 3498   4.235   5.448   7.102
   26SAPC   H9X 3499   4.275   5.552   7.097
   26SAPC   H9Y 3500   4.323   5.380   7.112
   26SAPC  C310 3501   4.146   5.430   7.225
   26SAPC  H10X 3502   4.205   5.451   7.317
   26SAPC  H10Y 3503   4.116   5.323   7.228
   26SAPC  C311 3504   4.018   5.515   7.226
   26SAPC  H11X 3505   3.979   5.529   7.123
   26SAPC  H11Y 3506   4.042   5.617   7.266
   26SAPC  C312 3507   3.907   5.450   7.308
   26SAPC  H12X 3508   3.886   5.348   7.267
   26SAPC  H12Y 3509   3.814   5.509   7.298
   26SAPC  C313 3510   3.942   5.437   7.456
   26SAPC  H13X 3511   3.954   5.540   7.496
   26SAPC  H13Y 3512   4.039   5.385   7.469
   26SAPC  C314 3513   3.835   5.363   7.537
   26SAPC  H14X 3514   3.841   5.254   7.518
   26SAPC  H14Y 3515   3.735   5.398   7.503
   26SAPC  C315 3516   3.845   5.392   7.687
   26SAPC  H15X 3517   3.759   5.346   7.740
   26SAPC  H15Y 3518   3.835   5.502   7.699
   26SAPC  C316 3519   3.976   5.349   7.755
   26SAPC  H16X 3520   4.046   5.307   7.679
   26SAPC  H16Y 3521   3.953   5.268   7.827
   26SAPC  C317 3522   4.046   5.463   7.830
   26SAPC  H17X 3523   4.117   5.418   7.902
   26SAPC  H17Y 3524   3.971   5.520   7.890
   26SAPC  C318 3525   4.123   5.561   7.740
   26SAPC  H18X 3526   4.181   5.633   7.801
   26SAPC  H18Y 3527   4.053   5.619   7.676
   26SAPC  H18Z 3528   4.194   5.505   7.675
   27SAPC     N 3529   2.527   0.658   6.043
   27SAPC   C12 3530   2.487   0.534   5.965
   27SAPC  H12A 3531   2.379   0.529   5.963
   27SAPC  H12B 3532   2.523   0.447   6.018
   27SAPC   C13 3533   2.453   0.660   6.174
   27SAPC  H13A 3534   2.477   0.751   6.228
   27SAPC  H13B 3535   2.347   0.663   6.157
   27SAPC  H13C 3536   2.477   0.575   6.235
   27SAPC   C14 3537   2.675   0.663   6.065
   27SAPC  H14A 3538   2.725   0.662   5.970
   27SAPC  H14B 3539   2.704   0.753   6.118
   27SAPC  H14C 3540   2.711   0.576   6.117
   27SAPC   C15 3541   2.490   0.780   5.966
   27SAPC  H15A 3542   2.388   0.775   5.931
   27SAPC  H15B 3543   2.499   0.868   6.028
   27SAPC  H15C 3544   2.554   0.791   5.880
   27SAPC   C11 3545   2.535   0.518   5.819
   27SAPC  H11A 3546   2.499   0.604   5.758
   27SAPC  H11B 3547   2.490   0.427   5.775
   27SAPC     P 3548   2.755   0.385   5.868
   27SAPC   O13 3549   2.799   0.307   5.750
   27SAPC   O14 3550   2.855   0.434   5.963
   27SAPC   O12 3551   2.677   0.512   5.812
   27SAPC   O11 3552   2.644   0.302   5.948
   27SAPC    C1 3553   2.690   0.202   6.041
   27SAPC    HA 3554   2.727   0.113   5.985
   27SAPC    HB 3555   2.775   0.240   6.101
   27SAPC    C2 3556   2.580   0.153   6.142
   27SAPC    HS 3557   2.536   0.059   6.105
   27SAPC   O21 3558   2.479   0.254   6.162
   27SAPC   C21 3559   2.378   0.243   6.078
   27SAPC   O22 3560   2.376   0.172   5.978
   27SAPC   C22 3561   2.263   0.331   6.127
   27SAPC   H2R 3562   2.288   0.438   6.109
   27SAPC   H2S 3563   2.173   0.306   6.066
   27SAPC    C3 3564   2.639   0.116   6.281
   27SAPC    HX 3565   2.696   0.022   6.266
   27SAPC    HY 3566   2.557   0.094   6.352
   27SAPC   O31 3567   2.728   0.219   6.329
   27SAPC   C31 3568   2.666   0.323   6.384
   27SAPC   O32 3569   2.555   0.321   6.434
   27SAPC   C32 3570   2.750   0.447   6.357
   27SAPC   H2X 3571   2.749   0.460   6.246
   27SAPC   H2Y 3572   2.855   0.427   6.386
   27SAPC   C23 3573   2.232   0.310   6.277
   27SAPC   H3R 3574   2.320   0.333   6.340
   27SAPC   H3S 3575   2.208   0.202   6.292
   27SAPC   C24 3576   2.111   0.392   6.326
   27SAPC   H4R 3577   2.081   0.347   6.423
   27SAPC   H4S 3578   2.026   0.375   6.257
   27SAPC   C25 3579   2.135   0.540   6.345
   27SAPC   H5R 3580   2.139   0.598   6.252
   27SAPC   C26 3581   2.145   0.604   6.463
   27SAPC   H6R 3582   2.156   0.714   6.462
   27SAPC   C27 3583   2.135   0.545   6.603
   27SAPC   H7R 3584   2.069   0.456   6.601
   27SAPC   H7S 3585   2.084   0.617   6.669
   27SAPC   C28 3586   2.269   0.505   6.662
   27SAPC   H8R 3587   2.350   0.487   6.589
   27SAPC   C29 3588   2.295   0.484   6.793
   27SAPC   H9R 3589   2.397   0.455   6.822
   27SAPC  C210 3590   2.198   0.495   6.908
   27SAPC  H10R 3591   2.218   0.414   6.980
   27SAPC  H10S 3592   2.095   0.475   6.872
   27SAPC  C211 3593   2.199   0.629   6.978
   27SAPC  H11R 3594   2.128   0.702   6.936
   27SAPC  C212 3595   2.276   0.667   7.082
   27SAPC  H12R 3596   2.265   0.770   7.121
   27SAPC  C213 3597   2.379   0.583   7.151
   27SAPC  H13R 3598   2.471   0.584   7.089
   27SAPC  H13S 3599   2.346   0.477   7.153
   27SAPC  C214 3600   2.420   0.631   7.288
   27SAPC  H14R 3601   2.451   0.736   7.295
   27SAPC  C215 3602   2.424   0.555   7.399
   27SAPC  H15R 3603   2.454   0.600   7.495
   27SAPC  C216 3604   2.387   0.409   7.404
   27SAPC  H16R 3605   2.430   0.360   7.494
   27SAPC  H16S 3606   2.425   0.354   7.316
   27SAPC  C217 3607   2.235   0.390   7.412
   27SAPC  H17R 3608   2.214   0.281   7.416
   27SAPC  H17S 3609   2.186   0.430   7.321
   27SAPC  C218 3610   2.174   0.458   7.537
   27SAPC  H18R 3611   2.174   0.568   7.523
   27SAPC  H18S 3612   2.238   0.436   7.625
   27SAPC  C219 3613   2.031   0.409   7.560
   27SAPC  H19R 3614   2.030   0.298   7.554
   27SAPC  H19S 3615   1.971   0.450   7.476
   27SAPC  C220 3616   1.967   0.451   7.692
   27SAPC  H20R 3617   1.857   0.465   7.679
   27SAPC  H20S 3618   2.010   0.546   7.730
   27SAPC  H20T 3619   1.981   0.372   7.769
   27SAPC   C33 3620   2.696   0.574   6.426
   27SAPC   H3X 3621   2.585   0.579   6.425
   27SAPC   H3Y 3622   2.733   0.660   6.368
   27SAPC   C34 3623   2.749   0.587   6.569
   27SAPC   H4X 3624   2.765   0.694   6.594
   27SAPC   H4Y 3625   2.848   0.537   6.574
   27SAPC   C35 3626   2.660   0.528   6.678
   27SAPC   H5X 3627   2.616   0.431   6.647
   27SAPC   H5Y 3628   2.576   0.599   6.698
   27SAPC   C36 3629   2.743   0.506   6.805
   27SAPC   H6X 3630   2.808   0.595   6.818
   27SAPC   H6Y 3631   2.808   0.417   6.790
   27SAPC   C37 3632   2.660   0.492   6.932
   27SAPC   H7X 3633   2.589   0.407   6.918
   27SAPC   H7Y 3634   2.602   0.586   6.943
   27SAPC   C38 3635   2.742   0.465   7.060
   27SAPC   H8X 3636   2.819   0.388   7.038
   27SAPC   H8Y 3637   2.673   0.423   7.136
   27SAPC   C39 3638   2.809   0.590   7.120
   27SAPC   H9X 3639   2.731   0.663   7.148
   27SAPC   H9Y 3640   2.873   0.638   7.042
   27SAPC  C310 3641   2.897   0.560   7.244
   27SAPC  H10X 3642   2.953   0.652   7.271
   27SAPC  H10Y 3643   2.971   0.482   7.217
   27SAPC  C311 3644   2.815   0.514   7.366
   27SAPC  H11X 3645   2.759   0.423   7.337
   27SAPC  H11Y 3646   2.742   0.594   7.391
   27SAPC  C312 3647   2.899   0.483   7.491
   27SAPC  H12X 3648   2.967   0.568   7.513
   27SAPC  H12Y 3649   2.963   0.395   7.469
   27SAPC  C313 3650   2.815   0.452   7.617
   27SAPC  H13X 3651   2.771   0.546   7.656
   27SAPC  H13Y 3652   2.882   0.411   7.695
   27SAPC  C314 3653   2.700   0.353   7.588
   27SAPC  H14X 3654   2.741   0.266   7.533
   27SAPC  H14Y 3655   2.630   0.404   7.518
   27SAPC  C315 3656   2.617   0.302   7.708
   27SAPC  H15X 3657   2.554   0.220   7.666
   27SAPC  H15Y 3658   2.549   0.382   7.745
   27SAPC  C316 3659   2.697   0.245   7.826
   27SAPC  H16X 3660   2.717   0.321   7.904
   27SAPC  H16Y 3661   2.796   0.220   7.782
   27SAPC  C317 3662   2.646   0.114   7.890
   27SAPC  H17X 3663   2.736   0.057   7.923
   27SAPC  H17Y 3664   2.595   0.052   7.814
   27SAPC  C318 3665   2.558   0.132   8.014
   27SAPC  H18X 3666   2.599   0.209   8.082
   27SAPC  H18Y 3667   2.549   0.036   8.069
   27SAPC  H18Z 3668   2.455   0.164   7.986
   28SAPC     N 3669   0.184   3.540   5.798
   28SAPC   C12 3670   0.293   3.596   5.888
   28SAPC  H12A 3671   0.251   3.623   5.983
   28SAPC  H12B 3672   0.333   3.686   5.843
   28SAPC   C13 3673   0.113   3.649   5.724
   28SAPC  H13A 3674   0.031   3.608   5.667
   28SAPC  H13B 3675   0.075   3.725   5.791
   28SAPC  H13C 3676   0.180   3.696   5.653
   28SAPC   C14 3677   0.243   3.443   5.700
   28SAPC  H14A 3678   0.295   3.366   5.756
   28SAPC  H14B 3679   0.167   3.396   5.640
   28SAPC  H14C 3680   0.316   3.491   5.636
   28SAPC   C15 3681   0.086   3.462   5.880
   28SAPC  H15A 3682   0.137   3.383   5.933
   28SAPC  H15B 3683   0.039   3.521   5.957
   28SAPC  H15C 3684   0.012   3.413   5.819
   28SAPC   C11 3685   0.412   3.502   5.921
   28SAPC  H11A 3686   0.483   3.552   5.990
   28SAPC  H11B 3687   0.469   3.481   5.827
   28SAPC     P 3688   0.311   3.376   6.124
   28SAPC   O13 3689   0.312   3.516   6.173
   28SAPC   O14 3690   0.180   3.309   6.119
   28SAPC   O12 3691   0.368   3.378   5.976
   28SAPC   O11 3692   0.418   3.286   6.198
   28SAPC    C1 3693   0.460   3.163   6.136
   28SAPC    HA 3694   0.380   3.086   6.149
   28SAPC    HB 3695   0.478   3.174   6.027
   28SAPC    C2 3696   0.592   3.107   6.196
   28SAPC    HS 3697   0.618   3.014   6.142
   28SAPC   O21 3698   0.577   3.083   6.337
   28SAPC   C21 3699   0.514   2.971   6.364
   28SAPC   O22 3700   0.489   2.881   6.287
   28SAPC   C22 3701   0.476   2.969   6.511
   28SAPC   H2R 3702   0.418   2.875   6.526
   28SAPC   H2S 3703   0.570   2.965   6.570
   28SAPC    C3 3704   0.713   3.203   6.175
   28SAPC    HX 3705   0.737   3.203   6.066
   28SAPC    HY 3706   0.800   3.153   6.223
   28SAPC   O31 3707   0.686   3.338   6.221
   28SAPC   C31 3708   0.761   3.377   6.323
   28SAPC   O32 3709   0.866   3.327   6.358
   28SAPC   C32 3710   0.712   3.509   6.387
   28SAPC   H2X 3711   0.771   3.582   6.328
   28SAPC   H2Y 3712   0.744   3.508   6.493
   28SAPC   C23 3713   0.391   3.090   6.553
   28SAPC   H3R 3714   0.297   3.095   6.494
   28SAPC   H3S 3715   0.445   3.184   6.529
   28SAPC   C24 3716   0.359   3.090   6.703
   28SAPC   H4R 3717   0.453   3.119   6.755
   28SAPC   H4S 3718   0.287   3.174   6.720
   28SAPC   C25 3719   0.308   2.965   6.770
   28SAPC   H5R 3720   0.217   2.923   6.724
   28SAPC   C26 3721   0.365   2.898   6.873
   28SAPC   H6R 3722   0.310   2.809   6.909
   28SAPC   C27 3723   0.492   2.924   6.952
   28SAPC   H7R 3724   0.503   2.841   7.026
   28SAPC   H7S 3725   0.480   3.012   7.018
   28SAPC   C28 3726   0.625   2.935   6.881
   28SAPC   H8R 3727   0.622   2.912   6.774
   28SAPC   C29 3728   0.742   2.978   6.933
   28SAPC   H9R 3729   0.829   2.980   6.865
   28SAPC  C210 3730   0.773   3.027   7.073
   28SAPC  H10R 3731   0.821   2.945   7.130
   28SAPC  H10S 3732   0.681   3.054   7.128
   28SAPC  C211 3733   0.869   3.144   7.066
   28SAPC  H11R 3734   0.947   3.134   6.989
   28SAPC  C212 3735   0.873   3.255   7.142
   28SAPC  H12R 3736   0.952   3.329   7.118
   28SAPC  C213 3737   0.781   3.294   7.256
   28SAPC  H13R 3738   0.780   3.213   7.332
   28SAPC  H13S 3739   0.677   3.302   7.219
   28SAPC  C214 3740   0.824   3.426   7.316
   28SAPC  H14R 3741   0.849   3.504   7.243
   28SAPC  C215 3742   0.831   3.456   7.447
   28SAPC  H15R 3743   0.868   3.555   7.477
   28SAPC  C216 3744   0.798   3.365   7.561
   28SAPC  H16R 3745   0.702   3.313   7.538
   28SAPC  H16S 3746   0.779   3.424   7.654
   28SAPC  C217 3747   0.902   3.256   7.592
   28SAPC  H17R 3748   0.983   3.301   7.653
   28SAPC  H17S 3749   0.948   3.220   7.497
   28SAPC  C218 3750   0.833   3.139   7.662
   28SAPC  H18R 3751   0.785   3.073   7.586
   28SAPC  H18S 3752   0.751   3.183   7.723
   28SAPC  C219 3753   0.915   3.057   7.761
   28SAPC  H19R 3754   0.987   2.993   7.706
   28SAPC  H19S 3755   0.845   2.990   7.815
   28SAPC  C220 3756   0.989   3.144   7.863
   28SAPC  H20R 3757   1.085   3.180   7.820
   28SAPC  H20S 3758   1.009   3.086   7.956
   28SAPC  H20T 3759   0.932   3.235   7.889
   28SAPC   C33 3760   0.565   3.558   6.376
   28SAPC   H3X 3761   0.521   3.514   6.285
   28SAPC   H3Y 3762   0.566   3.668   6.361
   28SAPC   C34 3763   0.471   3.532   6.497
   28SAPC   H4X 3764   0.477   3.425   6.525
   28SAPC   H4Y 3765   0.369   3.549   6.458
   28SAPC   C35 3766   0.487   3.622   6.622
   28SAPC   H5X 3767   0.502   3.728   6.591
   28SAPC   H5Y 3768   0.578   3.590   6.678
   28SAPC   C36 3769   0.362   3.617   6.714
   28SAPC   H6X 3770   0.329   3.511   6.716
   28SAPC   H6Y 3771   0.280   3.673   6.664
   28SAPC   C37 3772   0.373   3.668   6.861
   28SAPC   H7X 3773   0.317   3.764   6.869
   28SAPC   H7Y 3774   0.479   3.688   6.886
   28SAPC   C38 3775   0.317   3.566   6.964
   28SAPC   H8X 3776   0.402   3.500   6.991
   28SAPC   H8Y 3777   0.241   3.506   6.909
   28SAPC   C39 3778   0.249   3.608   7.097
   28SAPC   H9X 3779   0.152   3.555   7.102
   28SAPC   H9Y 3780   0.221   3.716   7.091
   28SAPC  C310 3781   0.324   3.570   7.228
   28SAPC  H10X 3782   0.431   3.552   7.206
   28SAPC  H10Y 3783   0.279   3.474   7.264
   28SAPC  C311 3784   0.315   3.667   7.347
   28SAPC  H11X 3785   0.220   3.725   7.341
   28SAPC  H11Y 3786   0.402   3.736   7.340
   28SAPC  C312 3787   0.334   3.608   7.487
   28SAPC  H12X 3788   0.359   3.693   7.555
   28SAPC  H12Y 3789   0.423   3.541   7.486
   28SAPC  C313 3790   0.212   3.538   7.547
   28SAPC  H13X 3791   0.200   3.439   7.498
   28SAPC  H13Y 3792   0.120   3.596   7.526
   28SAPC  C314 3793   0.226   3.522   7.700
   28SAPC  H14X 3794   0.207   3.620   7.749
   28SAPC  H14Y 3795   0.332   3.497   7.721
   28SAPC  C315 3796   0.137   3.412   7.760
   28SAPC  H15X 3797   0.156   3.318   7.704
   28SAPC  H15Y 3798   0.030   3.438   7.746
   28SAPC  C316 3799   0.166   3.389   7.909
   28SAPC  H16X 3800   0.120   3.473   7.967
   28SAPC  H16Y 3801   0.275   3.393   7.929
   28SAPC  C317 3802   0.112   3.258   7.967
   28SAPC  H17X 3803   0.001   3.258   7.954
   28SAPC  H17Y 3804   0.133   3.257   8.076
   28SAPC  C318 3805   0.170   3.130   7.907
   28SAPC  H18X 3806   0.153   3.126   7.798
   28SAPC  H18Y 3807   0.123   3.040   7.953
   28SAPC  H18Z 3808   0.279   3.123   7.925
   29SAPC     N 3809   3.140   7.295   5.856
   29SAPC   C12 3810   3.287   7.306   5.896
   29SAPC  H12A 3811   3.348   7.297   5.807
   29SAPC  H12B 3812   3.309   7.220   5.957
   29SAPC   C13 3813   3.056   7.311   5.978
   29SAPC  H13A 3814   3.089   7.241   6.053
   29SAPC  H13B 3815   3.073   7.408   6.021
   29SAPC  H13C 3816   2.951   7.296   5.958
   29SAPC   C14 3817   3.102   7.402   5.758
   29SAPC  H14A 3818   3.123   7.500   5.798
   29SAPC  H14B 3819   3.157   7.392   5.665
   29SAPC  H14C 3820   2.996   7.399   5.736
   29SAPC   C15 3821   3.118   7.159   5.799
   29SAPC  H15A 3822   3.014   7.141   5.775
   29SAPC  H15B 3823   3.178   7.145   5.710
   29SAPC  H15C 3824   3.150   7.083   5.868
   29SAPC   C11 3825   3.332   7.428   5.979
   29SAPC  H11A 3826   3.298   7.522   5.930
   29SAPC  H11B 3827   3.443   7.432   5.983
   29SAPC     P 3828   3.322   7.307   6.212
   29SAPC   O13 3829   3.263   7.181   6.160
   29SAPC   O14 3830   3.468   7.310   6.227
   29SAPC   O12 3831   3.279   7.423   6.112
   29SAPC   O11 3832   3.250   7.349   6.347
   29SAPC    C1 3833   3.158   7.458   6.360
   29SAPC    HA 3834   3.205   7.536   6.423
   29SAPC    HB 3835   3.133   7.507   6.263
   29SAPC    C2 3836   3.022   7.417   6.425
   29SAPC    HS 3837   2.958   7.508   6.426
   29SAPC   O21 3838   3.042   7.366   6.557
   29SAPC   C21 3839   3.054   7.456   6.651
   29SAPC   O22 3840   3.019   7.573   6.645
   29SAPC   C22 3841   3.123   7.389   6.768
   29SAPC   H2R 3842   3.112   7.452   6.858
   29SAPC   H2S 3843   3.073   7.292   6.785
   29SAPC    C3 3844   2.945   7.310   6.345
   29SAPC    HX 3845   2.927   7.350   6.244
   29SAPC    HY 3846   2.848   7.297   6.398
   29SAPC   O31 3847   3.013   7.183   6.340
   29SAPC   C31 3848   2.950   7.093   6.268
   29SAPC   O32 3849   2.843   7.112   6.211
   29SAPC   C32 3850   3.027   6.962   6.263
   29SAPC   H2X 3851   3.132   6.984   6.233
   29SAPC   H2Y 3852   2.978   6.903   6.182
   29SAPC   C23 3853   3.272   7.368   6.732
   29SAPC   H3R 3854   3.285   7.335   6.627
   29SAPC   H3S 3855   3.309   7.285   6.796
   29SAPC   C24 3856   3.353   7.495   6.759
   29SAPC   H4R 3857   3.334   7.521   6.866
   29SAPC   H4S 3858   3.308   7.577   6.698
   29SAPC   C25 3859   3.502   7.493   6.734
   29SAPC   H5R 3860   3.532   7.518   6.632
   29SAPC   C26 3861   3.596   7.459   6.825
   29SAPC   H6R 3862   3.702   7.462   6.794
   29SAPC   C27 3863   3.572   7.417   6.969
   29SAPC   H7R 3864   3.518   7.496   7.025
   29SAPC   H7S 3865   3.669   7.403   7.021
   29SAPC   C28 3866   3.494   7.288   6.970
   29SAPC   H8R 3867   3.502   7.229   6.878
   29SAPC   C29 3868   3.417   7.237   7.067
   29SAPC   H9R 3869   3.359   7.147   7.044
   29SAPC  C210 3870   3.389   7.295   7.202
   29SAPC  H10R 3871   3.295   7.354   7.193
   29SAPC  H10S 3872   3.469   7.365   7.234
   29SAPC  C211 3873   3.372   7.183   7.302
   29SAPC  H11R 3874   3.387   7.081   7.264
   29SAPC  C212 3875   3.340   7.195   7.432
   29SAPC  H12R 3876   3.329   7.103   7.491
   29SAPC  C213 3877   3.313   7.321   7.511
   29SAPC  H13R 3878   3.407   7.351   7.561
   29SAPC  H13S 3879   3.244   7.291   7.593
   29SAPC  C214 3880   3.250   7.437   7.438
   29SAPC  H14R 3881   3.175   7.409   7.363
   29SAPC  C215 3882   3.274   7.568   7.457
   29SAPC  H15R 3883   3.221   7.641   7.394
   29SAPC  C216 3884   3.369   7.627   7.558
   29SAPC  H16R 3885   3.464   7.655   7.507
   29SAPC  H16S 3886   3.396   7.554   7.637
   29SAPC  C217 3887   3.311   7.753   7.626
   29SAPC  H17R 3888   3.209   7.777   7.588
   29SAPC  H17S 3889   3.375   7.840   7.600
   29SAPC  C218 3890   3.306   7.743   7.779
   29SAPC  H18R 3891   3.408   7.729   7.820
   29SAPC  H18S 3892   3.247   7.652   7.805
   29SAPC  C219 3893   3.239   7.865   7.843
   29SAPC  H19R 3894   3.196   7.835   7.941
   29SAPC  H19S 3895   3.154   7.897   7.779
   29SAPC  C220 3896   3.336   7.981   7.864
   29SAPC  H20R 3897   3.382   8.011   7.767
   29SAPC  H20S 3898   3.417   7.951   7.934
   29SAPC  H20T 3899   3.283   8.069   7.906
   29SAPC   C33 3900   3.025   6.882   6.395
   29SAPC   H3X 3901   3.053   6.776   6.373
   29SAPC   H3Y 3902   2.923   6.880   6.439
   29SAPC   C34 3903   3.126   6.936   6.497
   29SAPC   H4X 3904   3.098   7.040   6.525
   29SAPC   H4Y 3905   3.226   6.940   6.450
   29SAPC   C35 3906   3.133   6.849   6.623
   29SAPC   H5X 3907   3.157   6.745   6.592
   29SAPC   H5Y 3908   3.034   6.848   6.674
   29SAPC   C36 3909   3.241   6.894   6.722
   29SAPC   H6X 3910   3.336   6.907   6.666
   29SAPC   H6Y 3911   3.258   6.815   6.798
   29SAPC   C37 3912   3.211   7.027   6.791
   29SAPC   H7X 3913   3.184   7.102   6.713
   29SAPC   H7Y 3914   3.304   7.064   6.840
   29SAPC   C38 3915   3.101   7.021   6.897
   29SAPC   H8X 3916   3.005   6.989   6.850
   29SAPC   H8Y 3917   3.085   7.124   6.936
   29SAPC   C39 3918   3.134   6.928   7.014
   29SAPC   H9X 3919   3.234   6.953   7.056
   29SAPC   H9Y 3920   3.138   6.823   6.977
   29SAPC  C310 3921   3.029   6.935   7.126
   29SAPC  H10X 3922   3.049   6.853   7.198
   29SAPC  H10Y 3923   2.928   6.920   7.082
   29SAPC  C311 3924   3.032   7.067   7.203
   29SAPC  H11X 3925   3.015   7.153   7.135
   29SAPC  H11Y 3926   3.132   7.078   7.248
   29SAPC  C312 3927   2.927   7.073   7.315
   29SAPC  H12X 3928   2.938   6.982   7.378
   29SAPC  H12Y 3929   2.825   7.073   7.273
   29SAPC  C313 3930   2.950   7.196   7.402
   29SAPC  H13X 3931   2.934   7.289   7.343
   29SAPC  H13Y 3932   3.057   7.195   7.433
   29SAPC  C314 3933   2.865   7.199   7.529
   29SAPC  H14X 3934   2.849   7.093   7.560
   29SAPC  H14Y 3935   2.765   7.243   7.508
   29SAPC  C315 3936   2.934   7.272   7.644
   29SAPC  H15X 3937   3.031   7.222   7.664
   29SAPC  H15Y 3938   2.872   7.263   7.736
   29SAPC  C316 3939   2.959   7.420   7.617
   29SAPC  H16X 3940   2.860   7.471   7.618
   29SAPC  H16Y 3941   2.997   7.432   7.513
   29SAPC  C317 3942   3.059   7.490   7.711
   29SAPC  H17X 3943   3.075   7.593   7.673
   29SAPC  H17Y 3944   3.157   7.437   7.703
   29SAPC  C318 3945   3.026   7.497   7.861
   29SAPC  H18X 3946   2.958   7.415   7.891
   29SAPC  H18Y 3947   2.977   7.594   7.885
   29SAPC  H18Z 3948   3.119   7.491   7.921
   30SAPC     N 3949   5.517   7.283   6.032
   30SAPC   C12 3950   5.399   7.196   6.071
   30SAPC  H12A 3951   5.341   7.249   6.146
   30SAPC  H12B 3952   5.437   7.108   6.121
   30SAPC   C13 3953   5.474   7.421   5.993
   30SAPC  H13A 3954   5.388   7.417   5.927
   30SAPC  H13B 3955   5.447   7.479   6.080
   30SAPC  H13C 3956   5.554   7.474   5.943
   30SAPC   C14 3957   5.609   7.299   6.150
   30SAPC  H14A 3958   5.556   7.341   6.235
   30SAPC  H14B 3959   5.649   7.204   6.181
   30SAPC  H14C 3960   5.691   7.364   6.125
   30SAPC   C15 3961   5.597   7.221   5.922
   30SAPC  H15A 3962   5.539   7.210   5.832
   30SAPC  H15B 3963   5.684   7.280   5.900
   30SAPC  H15C 3964   5.631   7.122   5.949
   30SAPC   C11 3965   5.301   7.148   5.962
   30SAPC  H11A 3966   5.230   7.076   6.008
   30SAPC  H11B 3967   5.358   7.091   5.885
   30SAPC     P 3968   5.089   7.301   5.946
   30SAPC   O13 3969   5.059   7.424   5.869
   30SAPC   O14 3970   4.994   7.188   5.930
   30SAPC   O12 3971   5.233   7.256   5.898
   30SAPC   O11 3972   5.115   7.332   6.098
   30SAPC    C1 3973   5.141   7.462   6.153
   30SAPC    HA 3974   5.188   7.531   6.080
   30SAPC    HB 3975   5.044   7.506   6.185
   30SAPC    C2 3976   5.232   7.451   6.279
   30SAPC    HS 3977   5.336   7.436   6.241
   30SAPC   O21 3978   5.186   7.344   6.362
   30SAPC   C21 3979   5.275   7.251   6.390
   30SAPC   O22 3980   5.391   7.248   6.353
   30SAPC   C22 3981   5.207   7.143   6.468
   30SAPC   H2R 3982   5.175   7.181   6.567
   30SAPC   H2S 3983   5.118   7.117   6.407
   30SAPC    C3 3984   5.237   7.581   6.365
   30SAPC    HX 3985   5.135   7.626   6.362
   30SAPC    HY 3986   5.306   7.653   6.317
   30SAPC   O31 3987   5.271   7.558   6.504
   30SAPC   C31 3988   5.396   7.524   6.531
   30SAPC   O32 3989   5.483   7.503   6.449
   30SAPC   C32 3990   5.418   7.530   6.682
   30SAPC   H2X 3991   5.353   7.454   6.730
   30SAPC   H2Y 3992   5.385   7.631   6.716
   30SAPC   C23 3993   5.295   7.017   6.481
   30SAPC   H3R 3994   5.351   6.998   6.387
   30SAPC   H3S 3995   5.224   6.932   6.492
   30SAPC   C24 3996   5.392   7.021   6.600
   30SAPC   H4R 3997   5.432   7.124   6.612
   30SAPC   H4S 3998   5.479   6.956   6.576
   30SAPC   C25 3999   5.326   6.968   6.725
   30SAPC   H5R 4000   5.288   6.865   6.715
   30SAPC   C26 4001   5.301   7.033   6.840
   30SAPC   H6R 4002   5.253   6.977   6.922
   30SAPC   C27 4003   5.336   7.176   6.871
   30SAPC   H7R 4004   5.333   7.238   6.778
   30SAPC   H7S 4005   5.441   7.180   6.906
   30SAPC   C28 4006   5.246   7.239   6.975
   30SAPC   H8R 4007   5.168   7.306   6.934
   30SAPC   C29 4008   5.251   7.220   7.108
   30SAPC   H9R 4009   5.179   7.272   7.172
   30SAPC  C210 4010   5.348   7.131   7.183
   30SAPC  H10R 4011   5.352   7.034   7.128
   30SAPC  H10S 4012   5.303   7.109   7.282
   30SAPC  C211 4013   5.491   7.173   7.199
   30SAPC  H11R 4014   5.537   7.215   7.108
   30SAPC  C212 4015   5.568   7.162   7.310
   30SAPC  H12R 4016   5.672   7.197   7.305
   30SAPC  C213 4017   5.527   7.104   7.444
   30SAPC  H13R 4018   5.606   7.033   7.477
   30SAPC  H13S 4019   5.435   7.043   7.434
   30SAPC  C214 4020   5.507   7.210   7.549
   30SAPC  H14R 4021   5.527   7.314   7.519
   30SAPC  C215 4022   5.463   7.188   7.675
   30SAPC  H15R 4023   5.451   7.274   7.742
   30SAPC  C216 4024   5.426   7.055   7.735
   30SAPC  H16R 4025   5.470   6.971   7.677
   30SAPC  H16S 4026   5.316   7.041   7.734
   30SAPC  C217 4027   5.474   7.042   7.881
   30SAPC  H17R 4028   5.583   7.061   7.886
   30SAPC  H17S 4029   5.459   6.936   7.912
   30SAPC  C218 4030   5.400   7.133   7.980
   30SAPC  H18R 4031   5.320   7.190   7.927
   30SAPC  H18S 4032   5.472   7.208   8.020
   30SAPC  C219 4033   5.335   7.058   8.097
   30SAPC  H19R 4034   5.394   6.966   8.119
   30SAPC  H19S 4035   5.234   7.024   8.066
   30SAPC  C220 4036   5.326   7.140   8.226
   30SAPC  H20R 4037   5.259   7.228   8.212
   30SAPC  H20S 4038   5.427   7.177   8.255
   30SAPC  H20T 4039   5.286   7.079   8.309
   30SAPC   C33 4040   5.567   7.510   6.721
   30SAPC   H3X 4041   5.631   7.574   6.657
   30SAPC   H3Y 4042   5.597   7.404   6.703
   30SAPC   C34 4043   5.597   7.548   6.867
   30SAPC   H4X 4044   5.558   7.651   6.885
   30SAPC   H4Y 4045   5.706   7.550   6.884
   30SAPC   C35 4046   5.532   7.455   6.970
   30SAPC   H5X 4047   5.592   7.361   6.973
   30SAPC   H5Y 4048   5.430   7.429   6.936
   30SAPC   C36 4049   5.520   7.515   7.112
   30SAPC   H6X 4050   5.593   7.598   7.125
   30SAPC   H6Y 4051   5.545   7.437   7.187
   30SAPC   C37 4052   5.378   7.564   7.142
   30SAPC   H7X 4053   5.303   7.487   7.113
   30SAPC   H7Y 4054   5.358   7.653   7.078
   30SAPC   C38 4055   5.355   7.600   7.290
   30SAPC   H8X 4056   5.276   7.678   7.295
   30SAPC   H8Y 4057   5.448   7.643   7.333
   30SAPC   C39 4058   5.304   7.483   7.375
   30SAPC   H9X 4059   5.375   7.397   7.369
   30SAPC   H9Y 4060   5.208   7.448   7.332
   30SAPC  C310 4061   5.281   7.523   7.521
   30SAPC  H10X 4062   5.234   7.623   7.522
   30SAPC  H10Y 4063   5.378   7.530   7.575
   30SAPC  C311 4064   5.186   7.428   7.595
   30SAPC  H11X 4065   5.232   7.327   7.608
   30SAPC  H11Y 4066   5.097   7.415   7.531
   30SAPC  C312 4067   5.138   7.483   7.729
   30SAPC  H12X 4068   5.052   7.422   7.764
   30SAPC  H12Y 4069   5.099   7.586   7.714
   30SAPC  C313 4070   5.241   7.484   7.842
   30SAPC  H13X 4071   5.313   7.567   7.826
   30SAPC  H13Y 4072   5.298   7.389   7.842
   30SAPC  C314 4073   5.171   7.500   7.978
   30SAPC  H14X 4074   5.101   7.415   7.992
   30SAPC  H14Y 4075   5.110   7.593   7.978
   30SAPC  C315 4076   5.267   7.503   8.098
   30SAPC  H15X 4077   5.329   7.411   8.099
   30SAPC  H15Y 4078   5.206   7.505   8.191
   30SAPC  C316 4079   5.359   7.627   8.100
   30SAPC  H16X 4080   5.357   7.669   8.202
   30SAPC  H16Y 4081   5.317   7.705   8.032
   30SAPC  C317 4082   5.504   7.594   8.063
   30SAPC  H17X 4083   5.510   7.563   7.957
   30SAPC  H17Y 4084   5.537   7.507   8.124
   30SAPC  C318 4085   5.601   7.710   8.089
   30SAPC  H18X 4086   5.632   7.758   7.993
   30SAPC  H18Y 4087   5.693   7.673   8.140
   30SAPC  H18Z 4088   5.554   7.788   8.153
   31SAPC     N 4089   6.806   1.183   5.809
   31SAPC   C12 4090   6.723   1.194   5.937
   31SAPC  H12A 4091   6.650   1.114   5.937
   31SAPC  H12B 4092   6.670   1.288   5.936
   31SAPC   C13 4093   6.867   1.046   5.798
   31SAPC  H13A 4094   6.793   0.968   5.789
   31SAPC  H13B 4095   6.936   1.039   5.715
   31SAPC  H13C 4096   6.922   1.025   5.888
   31SAPC   C14 4097   6.721   1.209   5.689
   31SAPC  H14A 4098   6.782   1.214   5.600
   31SAPC  H14B 4099   6.646   1.133   5.675
   31SAPC  H14C 4100   6.669   1.304   5.698
   31SAPC   C15 4101   6.918   1.282   5.816
   31SAPC  H15A 4102   6.880   1.383   5.829
   31SAPC  H15B 4103   6.980   1.258   5.900
   31SAPC  H15C 4104   6.980   1.279   5.728
   31SAPC   C11 4105   6.799   1.185   6.072
   31SAPC  H11A 4106   6.726   1.188   6.155
   31SAPC  H11B 4107   6.863   1.275   6.083
   31SAPC     P 4108   7.015   1.051   6.144
   31SAPC   O13 4109   7.007   1.101   6.282
   31SAPC   O14 4110   7.059   0.912   6.121
   31SAPC   O12 4111   6.872   1.064   6.079
   31SAPC   O11 4112   7.098   1.150   6.050
   31SAPC    C1 4113   7.125   1.286   6.090
   31SAPC    HA 4114   7.110   1.352   6.002
   31SAPC    HB 4115   7.058   1.321   6.170
   31SAPC    C2 4116   7.270   1.307   6.138
   31SAPC    HS 4117   7.338   1.262   6.062
   31SAPC   O21 4118   7.286   1.241   6.264
   31SAPC   C21 4119   7.411   1.227   6.303
   31SAPC   O22 4120   7.509   1.252   6.234
   31SAPC   C22 4121   7.415   1.181   6.448
   31SAPC   H2R 4122   7.519   1.195   6.485
   31SAPC   H2S 4123   7.348   1.248   6.507
   31SAPC    C3 4124   7.301   1.460   6.148
   31SAPC    HX 4125   7.309   1.497   6.044
   31SAPC    HY 4126   7.400   1.478   6.195
   31SAPC   O31 4127   7.194   1.534   6.214
   31SAPC   C31 4128   7.200   1.528   6.347
   31SAPC   O32 4129   7.291   1.479   6.411
   31SAPC   C32 4130   7.080   1.599   6.409
   31SAPC   H2X 4131   6.987   1.565   6.358
   31SAPC   H2Y 4132   7.093   1.708   6.393
   31SAPC   C23 4133   7.369   1.034   6.468
   31SAPC   H3R 4134   7.439   0.965   6.415
   31SAPC   H3S 4135   7.269   1.021   6.421
   31SAPC   C24 4136   7.359   0.995   6.616
   31SAPC   H4R 4137   7.324   0.889   6.621
   31SAPC   H4S 4138   7.280   1.058   6.664
   31SAPC   C25 4139   7.492   1.008   6.686
   31SAPC   H5R 4140   7.578   0.985   6.621
   31SAPC   C26 4141   7.515   1.043   6.813
   31SAPC   H6R 4142   7.620   1.044   6.848
   31SAPC   C27 4143   7.414   1.077   6.920
   31SAPC   H7R 4144   7.426   1.007   7.006
   31SAPC   H7S 4145   7.310   1.063   6.883
   31SAPC   C28 4146   7.434   1.218   6.965
   31SAPC   H8R 4147   7.418   1.294   6.887
   31SAPC   C29 4148   7.467   1.260   7.088
   31SAPC   H9R 4149   7.475   1.369   7.103
   31SAPC  C210 4150   7.495   1.180   7.213
   31SAPC  H10R 4151   7.555   1.090   7.188
   31SAPC  H10S 4152   7.398   1.141   7.253
   31SAPC  C211 4153   7.565   1.258   7.323
   31SAPC  H11R 4154   7.667   1.223   7.346
   31SAPC  C212 4155   7.516   1.364   7.391
   31SAPC  H12R 4156   7.578   1.412   7.468
   31SAPC  C213 4157   7.379   1.424   7.369
   31SAPC  H13R 4158   7.302   1.345   7.387
   31SAPC  H13S 4159   7.368   1.446   7.261
   31SAPC  C214 4160   7.337   1.551   7.439
   31SAPC  H14R 4161   7.310   1.631   7.369
   31SAPC  C215 4162   7.328   1.579   7.571
   31SAPC  H15R 4163   7.296   1.680   7.600
   31SAPC  C216 4164   7.358   1.487   7.686
   31SAPC  H16R 4165   7.465   1.458   7.684
   31SAPC  H16S 4166   7.298   1.394   7.678
   31SAPC  C217 4167   7.328   1.554   7.822
   31SAPC  H17R 4168   7.224   1.595   7.821
   31SAPC  H17S 4169   7.395   1.641   7.836
   31SAPC  C218 4170   7.341   1.464   7.946
   31SAPC  H18R 4171   7.243   1.414   7.963
   31SAPC  H18S 4172   7.358   1.528   8.036
   31SAPC  C219 4173   7.446   1.353   7.941
   31SAPC  H19R 4174   7.546   1.395   7.964
   31SAPC  H19S 4175   7.452   1.308   7.839
   31SAPC  C220 4176   7.410   1.239   8.038
   31SAPC  H20R 4177   7.393   1.279   8.140
   31SAPC  H20S 4178   7.491   1.163   8.042
   31SAPC  H20T 4179   7.317   1.189   8.005
   31SAPC   C33 4180   7.071   1.569   6.561
   31SAPC   H3X 4181   6.994   1.635   6.607
   31SAPC   H3Y 4182   7.168   1.593   6.610
   31SAPC   C34 4183   7.035   1.423   6.587
   31SAPC   H4X 4184   7.097   1.357   6.523
   31SAPC   H4Y 4185   6.929   1.403   6.559
   31SAPC   C35 4186   7.059   1.378   6.732
   31SAPC   H5X 4187   7.163   1.403   6.763
   31SAPC   H5Y 4188   7.051   1.267   6.732
   31SAPC   C36 4189   6.958   1.432   6.833
   31SAPC   H6X 4190   6.863   1.456   6.780
   31SAPC   H6Y 4191   6.996   1.527   6.877
   31SAPC   C37 4192   6.927   1.330   6.943
   31SAPC   H7X 4193   6.879   1.242   6.895
   31SAPC   H7Y 4194   6.854   1.373   7.015
   31SAPC   C38 4195   7.052   1.281   7.018
   31SAPC   H8X 4196   7.126   1.241   6.945
   31SAPC   H8Y 4197   7.024   1.195   7.082
   31SAPC   C39 4198   7.120   1.390   7.103
   31SAPC   H9X 4199   7.154   1.474   7.038
   31SAPC   H9Y 4200   7.210   1.343   7.148
   31SAPC  C310 4201   7.033   1.443   7.217
   31SAPC  H10X 4202   6.948   1.504   7.178
   31SAPC  H10Y 4203   7.095   1.509   7.282
   31SAPC  C311 4204   6.978   1.327   7.300
   31SAPC  H11X 4205   7.061   1.253   7.305
   31SAPC  H11Y 4206   6.893   1.279   7.246
   31SAPC  C312 4207   6.934   1.361   7.442
   31SAPC  H12X 4208   6.846   1.429   7.439
   31SAPC  H12Y 4209   7.016   1.415   7.494
   31SAPC  C313 4210   6.899   1.233   7.519
   31SAPC  H13X 4211   6.810   1.187   7.471
   31SAPC  H13Y 4212   6.870   1.259   7.623
   31SAPC  C314 4213   7.012   1.128   7.523
   31SAPC  H14X 4214   7.027   1.084   7.422
   31SAPC  H14Y 4215   6.975   1.047   7.589
   31SAPC  C315 4216   7.146   1.178   7.578
   31SAPC  H15X 4217   7.135   1.204   7.685
   31SAPC  H15Y 4218   7.177   1.271   7.525
   31SAPC  C316 4219   7.260   1.075   7.568
   31SAPC  H16X 4220   7.286   1.056   7.462
   31SAPC  H16Y 4221   7.223   0.979   7.611
   31SAPC  C317 4222   7.384   1.112   7.650
   31SAPC  H17X 4223   7.350   1.142   7.751
   31SAPC  H17Y 4224   7.433   1.200   7.603
   31SAPC  C318 4225   7.484   0.997   7.664
   31SAPC  H18X 4226   7.518   0.964   7.563
   31SAPC  H18Y 4227   7.438   0.911   7.716
   31SAPC  H18Z 4228   7.573   1.030   7.722
   32SAPC     N 4229   0.248   0.624   5.790
   32SAPC   C12 4230   0.223   0.488   5.853
   32SAPC  H12A 4231   0.257   0.410   5.787
   32SAPC  H12B 4232   0.117   0.474   5.861
   32SAPC   C13 4233   0.203   0.620   5.647
   32SAPC  H13A 4234   0.096   0.605   5.643
   32SAPC  H13B 4235   0.224   0.714   5.597
   32SAPC  H13C 4236   0.248   0.539   5.592
   32SAPC   C14 4237   0.167   0.727   5.863
   32SAPC  H14A 4238   0.062   0.709   5.850
   32SAPC  H14B 4239   0.187   0.719   5.969
   32SAPC  H14C 4240   0.190   0.827   5.830
   32SAPC   C15 4241   0.393   0.661   5.799
   32SAPC  H15A 4242   0.420   0.667   5.904
   32SAPC  H15B 4243   0.455   0.587   5.751
   32SAPC  H15C 4244   0.411   0.758   5.755
   32SAPC   C11 4245   0.282   0.464   5.994
   32SAPC  H11A 4246   0.393   0.477   5.992
   32SAPC  H11B 4247   0.265   0.358   6.021
   32SAPC     P 4248   0.099   0.513   6.171
   32SAPC   O13 4249   0.038   0.628   6.240
   32SAPC   O14 4250   0.007   0.437   6.081
   32SAPC   O12 4251   0.227   0.555   6.089
   32SAPC   O11 4252   0.151   0.411   6.279
   32SAPC    C1 4253   0.118   0.272   6.267
   32SAPC    HA 4254   0.018   0.253   6.311
   32SAPC    HB 4255   0.114   0.241   6.160
   32SAPC    C2 4256   0.224   0.176   6.330
   32SAPC    HS 4257   0.183   0.073   6.331
   32SAPC   O21 4258   0.259   0.216   6.463
   32SAPC   C21 4259   0.161   0.212   6.550
   32SAPC   O22 4260   0.045   0.178   6.529
   32SAPC   C22 4261   0.217   0.243   6.687
   32SAPC   H2R 4262   0.294   0.166   6.711
   32SAPC   H2S 4263   0.268   0.341   6.682
   32SAPC    C3 4264   0.354   0.173   6.243
   32SAPC    HX 4265   0.329   0.122   6.147
   32SAPC    HY 4266   0.429   0.110   6.295
   32SAPC   O31 4267   0.399   0.306   6.213
   32SAPC   C31 4268   0.503   0.350   6.283
   32SAPC   O32 4269   0.583   0.281   6.341
   32SAPC   C32 4270   0.509   0.502   6.276
   32SAPC   H2X 4271   0.427   0.541   6.212
   32SAPC   H2Y 4272   0.606   0.528   6.229
   32SAPC   C23 4273   0.109   0.244   6.797
   32SAPC   H3R 4274   0.050   0.151   6.796
   32SAPC   H3S 4275   0.038   0.327   6.775
   32SAPC   C24 4276   0.176   0.262   6.933
   32SAPC   H4R 4277   0.273   0.315   6.918
   32SAPC   H4S 4278   0.202   0.161   6.972
   32SAPC   C25 4279   0.094   0.343   7.029
   32SAPC   H5R 4280   0.025   0.415   6.983
   32SAPC   C26 4281   0.097   0.333   7.163
   32SAPC   H6R 4282   0.029   0.395   7.223
   32SAPC   C27 4283   0.184   0.237   7.238
   32SAPC   H7R 4284   0.262   0.193   7.172
   32SAPC   H7S 4285   0.117   0.153   7.268
   32SAPC   C28 4286   0.253   0.288   7.359
   32SAPC   H8R 4287   0.301   0.386   7.351
   32SAPC   C29 4288   0.261   0.219   7.474
   32SAPC   H9R 4289   0.309   0.267   7.561
   32SAPC  C210 4290   0.205   0.083   7.502
   32SAPC  H10R 4291   0.276   0.025   7.565
   32SAPC  H10S 4292   0.188   0.022   7.410
   32SAPC  C211 4293   0.076   0.108   7.574
   32SAPC  H11R 4294  -0.011   0.128   7.510
   32SAPC  C212 4295   0.061   0.109   7.707
   32SAPC  H12R 4296  -0.038   0.135   7.746
   32SAPC  C213 4297   0.168   0.086   7.811
   32SAPC  H13R 4298   0.223  -0.006   7.784
   32SAPC  H13S 4299   0.118   0.061   7.907
   32SAPC  C214 4300   0.270   0.193   7.840
   32SAPC  H14R 4301   0.271   0.279   7.772
   32SAPC  C215 4302   0.358   0.187   7.942
   32SAPC  H15R 4303   0.431   0.268   7.956
   32SAPC  C216 4304   0.368   0.074   8.041
   32SAPC  H16R 4305   0.286   0.000   8.024
   32SAPC  H16S 4306   0.351   0.111   8.145
   32SAPC  C217 4307   0.500  -0.007   8.040
   32SAPC  H17R 4308   0.477  -0.108   8.081
   32SAPC  H17S 4309   0.573   0.037   8.111
   32SAPC  C218 4310   0.568  -0.028   7.904
   32SAPC  H18R 4311   0.493  -0.056   7.827
   32SAPC  H18S 4312   0.638  -0.114   7.913
   32SAPC  C219 4313   0.652   0.091   7.855
   32SAPC  H19R 4314   0.584   0.162   7.804
   32SAPC  H19S 4315   0.721   0.052   7.777
   32SAPC  C220 4316   0.734   0.167   7.960
   32SAPC  H20R 4317   0.811   0.231   7.914
   32SAPC  H20S 4318   0.788   0.096   8.028
   32SAPC  H20T 4319   0.668   0.230   8.022
   32SAPC   C33 4320   0.501   0.569   6.415
   32SAPC   H3X 4321   0.527   0.676   6.396
   32SAPC   H3Y 4322   0.577   0.527   6.483
   32SAPC   C34 4323   0.362   0.570   6.482
   32SAPC   H4X 4324   0.325   0.466   6.497
   32SAPC   H4Y 4325   0.290   0.621   6.415
   32SAPC   C35 4326   0.367   0.645   6.616
   32SAPC   H5X 4327   0.422   0.739   6.595
   32SAPC   H5Y 4328   0.429   0.590   6.691
   32SAPC   C36 4329   0.234   0.690   6.678
   32SAPC   H6X 4330   0.167   0.727   6.598
   32SAPC   H6Y 4331   0.259   0.775   6.744
   32SAPC   C37 4332   0.159   0.588   6.766
   32SAPC   H7X 4333   0.229   0.541   6.839
   32SAPC   H7Y 4334   0.120   0.510   6.698
   32SAPC   C38 4335   0.041   0.652   6.842
   32SAPC   H8X 4336  -0.032   0.574   6.875
   32SAPC   H8Y 4337  -0.013   0.716   6.768
   32SAPC   C39 4338   0.079   0.740   6.963
   32SAPC   H9X 4339  -0.004   0.811   6.982
   32SAPC   H9Y 4340   0.169   0.799   6.935
   32SAPC  C310 4341   0.109   0.668   7.095
   32SAPC  H10X 4342   0.175   0.582   7.072
   32SAPC  H10Y 4343   0.015   0.630   7.141
   32SAPC  C311 4344   0.188   0.756   7.193
   32SAPC  H11X 4345   0.189   0.861   7.157
   32SAPC  H11Y 4346   0.292   0.716   7.188
   32SAPC  C312 4347   0.148   0.754   7.342
   32SAPC  H12X 4348   0.042   0.787   7.351
   32SAPC  H12Y 4349   0.211   0.828   7.395
   32SAPC  C313 4350   0.169   0.617   7.407
   32SAPC  H13X 4351   0.277   0.590   7.403
   32SAPC  H13Y 4352   0.113   0.543   7.347
   32SAPC  C314 4353   0.120   0.608   7.552
   32SAPC  H14X 4354   0.030   0.673   7.563
   32SAPC  H14Y 4355   0.196   0.648   7.622
   32SAPC  C315 4356   0.080   0.465   7.591
   32SAPC  H15X 4357   0.171   0.411   7.623
   32SAPC  H15Y 4358   0.039   0.412   7.502
   32SAPC  C316 4359  -0.026   0.455   7.701
   32SAPC  H16X 4360  -0.038   0.348   7.732
   32SAPC  H16Y 4361  -0.124   0.486   7.661
   32SAPC  C317 4362   0.009   0.536   7.826
   32SAPC  H17X 4363  -0.072   0.516   7.899
   32SAPC  H17Y 4364   0.006   0.644   7.801
   32SAPC  C318 4365   0.145   0.501   7.888
   32SAPC  H18X 4366   0.175   0.577   7.963
   32SAPC  H18Y 4367   0.225   0.497   7.811
   32SAPC  H18Z 4368   0.139   0.403   7.939
   33POPC     N 4369   3.924   2.763   9.905
   33POPC   C12 4370   4.012   2.834  10.006
   33POPC  H12A 4371   4.102   2.776  10.023
   33POPC  H12B 4372   3.959   2.838  10.100
   33POPC   C13 4373   3.784   2.817   9.919
   33POPC  H13A 4374   3.716   2.780   9.843
   33POPC  H13B 4375   3.742   2.791  10.015
   33POPC  H13C 4376   3.786   2.925   9.913
   33POPC   C14 4377   3.971   2.793   9.766
   33POPC  H14A 4378   3.969   2.900   9.753
   33POPC  H14B 4379   4.072   2.758   9.750
   33POPC  H14C 4380   3.905   2.749   9.693
   33POPC   C15 4381   3.920   2.616   9.929
   33POPC  H15A 4382   3.875   2.592  10.024
   33POPC  H15B 4383   4.019   2.570   9.928
   33POPC  H15C 4384   3.858   2.565   9.857
   33POPC   C11 4385   4.055   2.980   9.973
   33POPC  H11A 4386   4.119   2.980   9.882
   33POPC  H11B 4387   4.119   3.016  10.056
   33POPC     P 4388   3.942   3.218   9.984
   33POPC   O13 4389   4.007   3.235  10.117
   33POPC   O14 4390   3.804   3.267   9.973
   33POPC   O12 4391   3.942   3.063   9.951
   33POPC   O11 4392   4.033   3.277   9.868
   33POPC    C1 4393   4.057   3.418   9.846
   33POPC    HA 4394   3.987   3.481   9.906
   33POPC    HB 4395   4.160   3.439   9.881
   33POPC    C2 4396   4.046   3.470   9.697
   33POPC    HS 4397   3.978   3.558   9.699
   33POPC   O21 4398   3.978   3.359   9.631
   33POPC   C21 4399   3.860   3.337   9.572
   33POPC   O22 4400   3.775   3.419   9.548
   33POPC   C22 4401   3.855   3.182   9.533
   33POPC   H2R 4402   3.815   3.132   9.624
   33POPC   H2S 4403   3.959   3.146   9.521
   33POPC    C3 4404   4.196   3.532   9.641
   33POPC    HX 4405   4.258   3.541   9.733
   33POPC    HY 4406   4.167   3.636   9.614
   33POPC   O31 4407   4.285   3.478   9.530
   33POPC   C31 4408   4.392   3.555   9.479
   33POPC   O32 4409   4.413   3.665   9.526
   33POPC   C32 4410   4.475   3.515   9.340
   33POPC   H2X 4411   4.513   3.616   9.314
   33POPC   H2Y 4412   4.400   3.498   9.260
   33POPC   C23 4413   3.794   3.108   9.407
   33POPC   H3R 4414   3.686   3.097   9.430
   33POPC   H3S 4415   3.833   3.004   9.405
   33POPC   C24 4416   3.800   3.162   9.262
   33POPC   H4R 4417   3.782   3.272   9.264
   33POPC   H4S 4418   3.716   3.113   9.208
   33POPC   C25 4419   3.912   3.126   9.164
   33POPC   H5R 4420   3.948   3.022   9.178
   33POPC   H5S 4421   3.996   3.195   9.188
   33POPC   C26 4422   3.871   3.149   9.016
   33POPC   H6R 4423   3.802   3.236   9.011
   33POPC   H6S 4424   3.815   3.061   8.977
   33POPC   C27 4425   3.991   3.180   8.926
   33POPC   H7R 4426   4.053   3.088   8.912
   33POPC   H7S 4427   4.050   3.255   8.983
   33POPC   C28 4428   3.969   3.250   8.789
   33POPC   H8R 4429   4.069   3.250   8.741
   33POPC   H8S 4430   3.949   3.357   8.810
   33POPC   C29 4431   3.863   3.198   8.695
   33POPC   H91 4432   3.775   3.152   8.743
   33POPC  C210 4433   3.868   3.209   8.561
   33POPC  H101 4434   3.785   3.168   8.501
   33POPC  C211 4435   3.979   3.274   8.481
   33POPC  H11R 4436   4.028   3.197   8.418
   33POPC  H11S 4437   4.059   3.314   8.547
   33POPC  C212 4438   3.932   3.391   8.393
   33POPC  H12R 4439   3.863   3.457   8.449
   33POPC  H12S 4440   3.877   3.352   8.305
   33POPC  C213 4441   4.050   3.477   8.343
   33POPC  H13R 4442   4.098   3.529   8.429
   33POPC  H13S 4443   4.011   3.555   8.274
   33POPC  C214 4444   4.156   3.393   8.272
   33POPC  H14R 4445   4.109   3.296   8.245
   33POPC  H14S 4446   4.239   3.366   8.341
   33POPC  C215 4447   4.212   3.455   8.144
   33POPC  H15R 4448   4.287   3.533   8.169
   33POPC  H15S 4449   4.130   3.503   8.088
   33POPC  C216 4450   4.273   3.346   8.055
   33POPC  H16R 4451   4.340   3.283   8.117
   33POPC  H16S 4452   4.336   3.390   7.974
   33POPC  C217 4453   4.164   3.257   7.992
   33POPC  H17R 4454   4.069   3.269   8.047
   33POPC  H17S 4455   4.197   3.152   8.002
   33POPC  C218 4456   4.134   3.285   7.846
   33POPC  H18R 4457   4.227   3.282   7.784
   33POPC  H18S 4458   4.091   3.387   7.833
   33POPC  H18T 4459   4.061   3.212   7.806
   33POPC   C33 4460   4.607   3.424   9.305
   33POPC   H3X 4461   4.612   3.333   9.368
   33POPC   H3Y 4462   4.695   3.486   9.335
   33POPC   C34 4463   4.641   3.363   9.160
   33POPC   H4X 4464   4.733   3.417   9.128
   33POPC   H4Y 4465   4.558   3.389   9.091
   33POPC   C35 4466   4.678   3.209   9.127
   33POPC   H5X 4467   4.660   3.148   9.217
   33POPC   H5Y 4468   4.787   3.205   9.108
   33POPC   C36 4469   4.608   3.136   9.001
   33POPC   H6X 4470   4.686   3.111   8.926
   33POPC   H6Y 4471   4.546   3.212   8.948
   33POPC   C37 4472   4.524   3.003   9.023
   33POPC   H7X 4473   4.433   3.020   9.085
   33POPC   H7Y 4474   4.587   2.936   9.085
   33POPC   C38 4475   4.470   2.915   8.903
   33POPC   H8X 4476   4.441   2.818   8.948
   33POPC   H8Y 4477   4.551   2.893   8.830
   33POPC   C39 4478   4.343   2.957   8.822
   33POPC   H9X 4479   4.365   3.054   8.772
   33POPC   H9Y 4480   4.258   2.970   8.892
   33POPC  C310 4481   4.294   2.859   8.712
   33POPC  H10X 4482   4.256   2.766   8.759
   33POPC  H10Y 4483   4.381   2.832   8.649
   33POPC  C311 4484   4.184   2.916   8.619
   33POPC  H11X 4485   4.210   3.020   8.588
   33POPC  H11Y 4486   4.088   2.924   8.675
   33POPC  C312 4487   4.164   2.831   8.493
   33POPC  H12X 4488   4.127   2.731   8.527
   33POPC  H12Y 4489   4.261   2.815   8.443
   33POPC  C313 4490   4.063   2.885   8.389
   33POPC  H13X 4491   3.991   2.956   8.436
   33POPC  H13Y 4492   4.004   2.799   8.351
   33POPC  C314 4493   4.127   2.948   8.264
   33POPC  H14X 4494   4.211   2.882   8.231
   33POPC  H14Y 4495   4.171   3.047   8.288
   33POPC  C315 4496   4.030   2.961   8.145
   33POPC  H15X 4497   3.980   2.863   8.127
   33POPC  H15Y 4498   4.089   2.983   8.054
   33POPC  C316 4499   3.921   3.067   8.162
   33POPC  H16X 4500   3.962   3.158   8.210
   33POPC  H16Y 4501   3.837   3.030   8.225
   33POPC  H16Z 4502   3.881   3.097   8.063
   34POPC     N 4503   3.264   5.227   9.792
   34POPC   C12 4504   3.305   5.298   9.920
   34POPC  H12A 4505   3.219   5.310   9.985
   34POPC  H12B 4506   3.340   5.398   9.898
   34POPC   C13 4507   3.193   5.100   9.830
   34POPC  H13A 4508   3.172   5.036   9.746
   34POPC  H13B 4509   3.256   5.046   9.899
   34POPC  H13C 4510   3.102   5.118   9.886
   34POPC   C14 4511   3.174   5.312   9.708
   34POPC  H14A 4512   3.146   5.259   9.618
   34POPC  H14B 4513   3.084   5.334   9.763
   34POPC  H14C 4514   3.224   5.403   9.681
   34POPC   C15 4515   3.386   5.189   9.715
   34POPC  H15A 4516   3.449   5.126   9.775
   34POPC  H15B 4517   3.446   5.276   9.688
   34POPC  H15C 4518   3.363   5.134   9.625
   34POPC   C11 4519   3.414   5.230  10.006
   34POPC  H11A 4520   3.435   5.295  10.093
   34POPC  H11B 4521   3.508   5.222   9.947
   34POPC     P 4522   3.478   5.004  10.114
   34POPC   O13 4523   3.413   4.879  10.162
   34POPC   O14 4524   3.564   5.080  10.206
   34POPC   O12 4525   3.369   5.102  10.053
   34POPC   O11 4526   3.561   4.969   9.984
   34POPC    C1 4527   3.499   4.887   9.885
   34POPC    HA 4528   3.408   4.935   9.843
   34POPC    HB 4529   3.469   4.788   9.927
   34POPC    C2 4530   3.595   4.861   9.767
   34POPC    HS 4531   3.681   4.805   9.809
   34POPC   O21 4532   3.636   4.988   9.713
   34POPC   C21 4533   3.748   4.983   9.643
   34POPC   O22 4534   3.814   4.884   9.620
   34POPC   C22 4535   3.783   5.125   9.597
   34POPC   H2R 4536   3.877   5.119   9.539
   34POPC   H2S 4537   3.801   5.184   9.689
   34POPC    C3 4538   3.527   4.775   9.657
   34POPC    HX 4539   3.491   4.680   9.704
   34POPC    HY 4540   3.607   4.748   9.584
   34POPC   O31 4541   3.415   4.846   9.599
   34POPC   C31 4542   3.414   4.855   9.467
   34POPC   O32 4543   3.489   4.798   9.390
   34POPC   C32 4544   3.306   4.954   9.425
   34POPC   H2X 4545   3.265   5.003   9.516
   34POPC   H2Y 4546   3.225   4.896   9.376
   34POPC   C23 4547   3.672   5.192   9.512
   34POPC   H3R 4548   3.574   5.143   9.532
   34POPC   H3S 4549   3.695   5.177   9.404
   34POPC   C24 4550   3.655   5.342   9.543
   34POPC   H4R 4551   3.750   5.394   9.520
   34POPC   H4S 4552   3.635   5.356   9.651
   34POPC   C25 4553   3.548   5.413   9.459
   34POPC   H5R 4554   3.547   5.520   9.489
   34POPC   H5S 4555   3.447   5.371   9.477
   34POPC   C26 4556   3.583   5.406   9.310
   34POPC   H6R 4557   3.555   5.307   9.267
   34POPC   H6S 4558   3.694   5.413   9.303
   34POPC   C27 4559   3.525   5.519   9.224
   34POPC   H7R 4560   3.510   5.611   9.283
   34POPC   H7S 4561   3.426   5.486   9.185
   34POPC   C28 4562   3.623   5.551   9.109
   34POPC   H8R 4563   3.676   5.456   9.086
   34POPC   H8S 4564   3.701   5.621   9.145
   34POPC   C29 4565   3.560   5.599   8.982
   34POPC   H91 4566   3.567   5.707   8.962
   34POPC  C210 4567   3.500   5.518   8.893
   34POPC  H101 4568   3.456   5.565   8.804
   34POPC  C211 4569   3.484   5.368   8.906
   34POPC  H11R 4570   3.390   5.346   8.960
   34POPC  H11S 4571   3.566   5.324   8.967
   34POPC  C212 4572   3.481   5.287   8.774
   34POPC  H12R 4573   3.500   5.181   8.800
   34POPC  H12S 4574   3.564   5.318   8.706
   34POPC  C213 4575   3.346   5.293   8.700
   34POPC  H13R 4576   3.263   5.281   8.772
   34POPC  H13S 4577   3.338   5.209   8.629
   34POPC  C214 4578   3.328   5.425   8.625
   34POPC  H14R 4579   3.423   5.482   8.631
   34POPC  H14S 4580   3.248   5.481   8.677
   34POPC  C215 4581   3.297   5.417   8.476
   34POPC  H15R 4582   3.249   5.514   8.449
   34POPC  H15S 4583   3.223   5.336   8.457
   34POPC  C216 4584   3.421   5.400   8.387
   34POPC  H16R 4585   3.505   5.459   8.430
   34POPC  H16S 4586   3.400   5.441   8.286
   34POPC  C217 4587   3.461   5.254   8.371
   34POPC  H17R 4588   3.385   5.202   8.308
   34POPC  H17S 4589   3.462   5.204   8.470
   34POPC  C218 4590   3.600   5.236   8.311
   34POPC  H18R 4591   3.675   5.272   8.384
   34POPC  H18S 4592   3.610   5.294   8.218
   34POPC  H18T 4593   3.620   5.129   8.290
   34POPC   C33 4594   3.364   5.060   9.328
   34POPC   H3X 4595   3.381   5.013   9.229
   34POPC   H3Y 4596   3.463   5.096   9.363
   34POPC   C34 4597   3.272   5.182   9.313
   34POPC   H4X 4598   3.316   5.250   9.237
   34POPC   H4Y 4599   3.269   5.238   9.409
   34POPC   C35 4600   3.129   5.144   9.273
   34POPC   H5X 4601   3.071   5.237   9.255
   34POPC   H5Y 4602   3.082   5.090   9.358
   34POPC   C36 4603   3.118   5.054   9.149
   34POPC   H6X 4604   3.012   5.022   9.136
   34POPC   H6Y 4605   3.176   4.961   9.165
   34POPC   C37 4606   3.166   5.121   9.020
   34POPC   H7X 4607   3.229   5.209   9.045
   34POPC   H7Y 4608   3.080   5.160   8.962
   34POPC   C38 4609   3.250   5.027   8.933
   34POPC   H8X 4610   3.321   4.970   8.996
   34POPC   H8Y 4611   3.311   5.090   8.864
   34POPC   C39 4612   3.166   4.932   8.847
   34POPC   H9X 4613   3.096   4.992   8.786
   34POPC   H9Y 4614   3.106   4.866   8.913
   34POPC  C310 4615   3.251   4.845   8.753
   34POPC  H10X 4616   3.182   4.782   8.693
   34POPC  H10Y 4617   3.316   4.777   8.813
   34POPC  C311 4618   3.337   4.924   8.653
   34POPC  H11X 4619   3.418   4.978   8.706
   34POPC  H11Y 4620   3.271   4.999   8.604
   34POPC  C312 4621   3.399   4.835   8.544
   34POPC  H12X 4622   3.319   4.773   8.500
   34POPC  H12Y 4623   3.474   4.767   8.590
   34POPC  C313 4624   3.463   4.919   8.433
   34POPC  H13X 4625   3.552   4.973   8.473
   34POPC  H13Y 4626   3.388   4.996   8.403
   34POPC  C314 4627   3.500   4.840   8.307
   34POPC  H14X 4628   3.527   4.912   8.227
   34POPC  H14Y 4629   3.410   4.785   8.272
   34POPC  C315 4630   3.616   4.741   8.325
   34POPC  H15X 4631   3.623   4.680   8.232
   34POPC  H15Y 4632   3.592   4.671   8.408
   34POPC  C316 4633   3.752   4.806   8.350
   34POPC  H16X 4634   3.832   4.729   8.353
   34POPC  H16Y 4635   3.752   4.862   8.446
   34POPC  H16Z 4636   3.776   4.878   8.268
   35POPC     N 4637   1.283   2.198   9.906
   35POPC   C12 4638   1.418   2.137   9.869
   35POPC  H12A 4639   1.482   2.214   9.828
   35POPC  H12B 4640   1.402   2.063   9.792
   35POPC   C13 4641   1.293   2.269  10.038
   35POPC  H13A 4642   1.197   2.308  10.069
   35POPC  H13B 4643   1.327   2.199  10.113
   35POPC  H13C 4644   1.361   2.352  10.035
   35POPC   C14 4645   1.234   2.296   9.804
   35POPC  H14A 4646   1.136   2.331   9.833
   35POPC  H14B 4647   1.298   2.384   9.800
   35POPC  H14C 4648   1.228   2.252   9.706
   35POPC   C15 4649   1.185   2.085   9.921
   35POPC  H15A 4650   1.088   2.118   9.956
   35POPC  H15B 4651   1.225   2.015   9.993
   35POPC  H15C 4652   1.169   2.030   9.830
   35POPC   C11 4653   1.499   2.068   9.982
   35POPC  H11A 4654   1.538   2.144  10.052
   35POPC  H11B 4655   1.587   2.019   9.934
   35POPC     P 4656   1.478   1.847  10.123
   35POPC   O13 4657   1.467   1.863  10.270
   35POPC   O14 4658   1.613   1.817  10.070
   35POPC   O12 4659   1.418   1.975  10.053
   35POPC   O11 4660   1.374   1.736  10.081
   35POPC    C1 4661   1.318   1.729   9.951
   35POPC    HA 4662   1.297   1.828   9.905
   35POPC    HB 4663   1.221   1.675   9.959
   35POPC    C2 4664   1.407   1.645   9.856
   35POPC    HS 4665   1.453   1.567   9.919
   35POPC   O21 4666   1.507   1.731   9.795
   35POPC   C21 4667   1.603   1.659   9.738
   35POPC   O22 4668   1.613   1.537   9.743
   35POPC   C22 4669   1.706   1.748   9.667
   35POPC   H2R 4670   1.755   1.686   9.590
   35POPC   H2S 4671   1.782   1.774   9.744
   35POPC    C3 4672   1.321   1.573   9.749
   35POPC    HX 4673   1.220   1.546   9.788
   35POPC    HY 4674   1.372   1.476   9.731
   35POPC   O31 4675   1.313   1.642   9.622
   35POPC   C31 4676   1.217   1.731   9.608
   35POPC   O32 4677   1.146   1.776   9.696
   35POPC   C32 4678   1.213   1.776   9.461
   35POPC   H2X 4679   1.294   1.724   9.405
   35POPC   H2Y 4680   1.235   1.885   9.458
   35POPC   C23 4681   1.651   1.878   9.603
   35POPC   H3R 4682   1.740   1.939   9.575
   35POPC   H3S 4683   1.592   1.938   9.676
   35POPC   C24 4684   1.570   1.855   9.474
   35POPC   H4R 4685   1.462   1.854   9.499
   35POPC   H4S 4686   1.596   1.756   9.431
   35POPC   C25 4687   1.598   1.963   9.368
   35POPC   H5R 4688   1.707   1.963   9.346
   35POPC   H5S 4689   1.572   2.063   9.408
   35POPC   C26 4690   1.525   1.942   9.234
   35POPC   H6R 4691   1.415   1.938   9.251
   35POPC   H6S 4692   1.556   1.844   9.191
   35POPC   C27 4693   1.558   2.055   9.135
   35POPC   H7R 4694   1.668   2.070   9.132
   35POPC   H7S 4695   1.512   2.148   9.174
   35POPC   C28 4696   1.506   2.036   8.991
   35POPC   H8R 4697   1.516   2.133   8.939
   35POPC   H8S 4698   1.397   2.015   8.996
   35POPC   C29 4699   1.577   1.926   8.916
   35POPC   H91 4700   1.547   1.824   8.945
   35POPC  C210 4701   1.671   1.940   8.821
   35POPC  H101 4702   1.712   1.850   8.773
   35POPC  C211 4703   1.728   2.070   8.767
   35POPC  H11R 4704   1.836   2.075   8.791
   35POPC  H11S 4705   1.682   2.158   8.815
   35POPC  C212 4706   1.713   2.085   8.614
   35POPC  H12R 4707   1.775   2.008   8.564
   35POPC  H12S 4708   1.755   2.184   8.585
   35POPC  C213 4709   1.569   2.075   8.560
   35POPC  H13R 4710   1.528   1.975   8.586
   35POPC  H13S 4711   1.574   2.081   8.449
   35POPC  C214 4712   1.475   2.184   8.612
   35POPC  H14R 4713   1.514   2.282   8.578
   35POPC  H14S 4714   1.475   2.183   8.723
   35POPC  C215 4715   1.329   2.170   8.564
   35POPC  H15R 4716   1.270   2.253   8.608
   35POPC  H15S 4717   1.287   2.076   8.604
   35POPC  C216 4718   1.311   2.173   8.412
   35POPC  H16R 4719   1.373   2.095   8.362
   35POPC  H16S 4720   1.345   2.272   8.375
   35POPC  C217 4721   1.164   2.152   8.372
   35POPC  H17R 4722   1.102   2.205   8.448
   35POPC  H17S 4723   1.140   2.043   8.379
   35POPC  C218 4724   1.127   2.204   8.234
   35POPC  H18R 4725   1.141   2.314   8.229
   35POPC  H18S 4726   1.021   2.181   8.209
   35POPC  H18T 4727   1.192   2.158   8.157
   35POPC   C33 4728   1.078   1.748   9.392
   35POPC   H3X 4729   1.019   1.843   9.392
   35POPC   H3Y 4730   1.018   1.675   9.451
   35POPC   C34 4731   1.089   1.691   9.249
   35POPC   H4X 4732   0.986   1.683   9.209
   35POPC   H4Y 4733   1.129   1.588   9.253
   35POPC   C35 4734   1.174   1.774   9.151
   35POPC   H5X 4735   1.282   1.750   9.165
   35POPC   H5Y 4736   1.160   1.882   9.173
   35POPC   C36 4737   1.135   1.750   9.003
   35POPC   H6X 4738   1.026   1.766   8.994
   35POPC   H6Y 4739   1.156   1.644   8.975
   35POPC   C37 4740   1.207   1.846   8.907
   35POPC   H7X 4741   1.314   1.818   8.897
   35POPC   H7Y 4742   1.201   1.947   8.952
   35POPC   C38 4743   1.142   1.857   8.768
   35POPC   H8X 4744   1.163   1.958   8.726
   35POPC   H8Y 4745   1.032   1.850   8.781
   35POPC   C39 4746   1.189   1.753   8.665
   35POPC   H9X 4747   1.112   1.747   8.585
   35POPC   H9Y 4748   1.191   1.653   8.714
   35POPC  C310 4749   1.322   1.784   8.595
   35POPC  H10X 4750   1.404   1.783   8.670
   35POPC  H10Y 4751   1.319   1.885   8.548
   35POPC  C311 4752   1.352   1.683   8.483
   35POPC  H11X 4753   1.293   1.708   8.392
   35POPC  H11Y 4754   1.312   1.586   8.520
   35POPC  C312 4755   1.500   1.661   8.451
   35POPC  H12X 4756   1.513   1.561   8.405
   35POPC  H12Y 4757   1.558   1.660   8.546
   35POPC  C313 4758   1.560   1.764   8.354
   35POPC  H13X 4759   1.671   1.754   8.357
   35POPC  H13Y 4760   1.534   1.866   8.389
   35POPC  C314 4761   1.512   1.746   8.210
   35POPC  H14X 4762   1.401   1.742   8.208
   35POPC  H14Y 4763   1.549   1.649   8.170
   35POPC  C315 4764   1.557   1.859   8.116
   35POPC  H15X 4765   1.510   1.954   8.150
   35POPC  H15Y 4766   1.516   1.837   8.015
   35POPC  C316 4767   1.708   1.879   8.106
   35POPC  H16X 4768   1.732   1.960   8.033
   35POPC  H16Y 4769   1.757   1.786   8.071
   35POPC  H16Z 4770   1.751   1.907   8.204
   36POPC     N 4771   1.162   6.954  10.007
   36POPC   C12 4772   1.099   7.029   9.890
   36POPC  H12A 4773   1.048   6.958   9.826
   36POPC  H12B 4774   1.176   7.076   9.831
   36POPC   C13 4775   1.257   7.046  10.079
   36POPC  H13A 4776   1.336   7.083  10.014
   36POPC  H13B 4777   1.204   7.134  10.111
   36POPC  H13C 4778   1.302   7.000  10.166
   36POPC   C14 4779   1.057   6.912  10.105
   36POPC  H14A 4780   1.099   6.862  10.191
   36POPC  H14B 4781   1.006   6.999  10.143
   36POPC  H14C 4782   0.983   6.847  10.061
   36POPC   C15 4783   1.236   6.832   9.961
   36POPC  H15A 4784   1.286   6.784  10.043
   36POPC  H15B 4785   1.311   6.857   9.887
   36POPC  H15C 4786   1.169   6.759   9.917
   36POPC   C11 4787   0.998   7.142   9.923
   36POPC  H11A 4788   0.912   7.099   9.979
   36POPC  H11B 4789   0.956   7.183   9.829
   36POPC     P 4790   1.158   7.351   9.937
   36POPC   O13 4791   1.271   7.362  10.030
   36POPC   O14 4792   1.081   7.473   9.904
   36POPC   O12 4793   1.056   7.246  10.001
   36POPC   O11 4794   1.206   7.278   9.804
   36POPC    C1 4795   1.214   7.350   9.679
   36POPC    HA 4796   1.287   7.301   9.612
   36POPC    HB 4797   1.248   7.455   9.694
   36POPC    C2 4798   1.077   7.351   9.606
   36POPC    HS 4799   1.003   7.385   9.682
   36POPC   O21 4800   1.051   7.219   9.557
   36POPC   C21 4801   0.923   7.187   9.557
   36POPC   O22 4802   0.835   7.245   9.619
   36POPC   C22 4803   0.903   7.065   9.470
   36POPC   H2R 4804   0.836   6.997   9.526
   36POPC   H2S 4805   1.000   7.013   9.452
   36POPC    C3 4806   1.068   7.454   9.489
   36POPC    HX 4807   1.092   7.554   9.532
   36POPC    HY 4808   0.961   7.452   9.457
   36POPC   O31 4809   1.150   7.425   9.374
   36POPC   C31 4810   1.133   7.520   9.281
   36POPC   O32 4811   1.076   7.626   9.299
   36POPC   C32 4812   1.190   7.478   9.146
   36POPC   H2X 4813   1.113   7.506   9.071
   36POPC   H2Y 4814   1.204   7.368   9.143
   36POPC   C23 4815   0.835   7.103   9.337
   36POPC   H3R 4816   0.753   7.176   9.353
   36POPC   H3S 4817   0.785   7.011   9.299
   36POPC   C24 4818   0.931   7.153   9.229
   36POPC   H4R 4819   1.024   7.091   9.227
   36POPC   H4S 4820   0.960   7.258   9.251
   36POPC   C25 4821   0.863   7.144   9.092
   36POPC   H5R 4822   0.764   7.193   9.101
   36POPC   H5S 4823   0.843   7.037   9.069
   36POPC   C26 4824   0.939   7.207   8.976
   36POPC   H6R 4825   1.036   7.153   8.960
   36POPC   H6S 4826   0.962   7.313   9.000
   36POPC   C27 4827   0.853   7.198   8.850
   36POPC   H7R 4828   0.754   7.244   8.874
   36POPC   H7S 4829   0.834   7.091   8.827
   36POPC   C28 4830   0.909   7.265   8.724
   36POPC   H8R 4831   0.839   7.245   8.641
   36POPC   H8S 4832   1.006   7.216   8.698
   36POPC   C29 4833   0.927   7.414   8.739
   36POPC   H91 4834   0.903   7.456   8.838
   36POPC  C210 4835   0.972   7.495   8.642
   36POPC  H101 4836   0.982   7.603   8.662
   36POPC  C211 4837   1.010   7.449   8.504
   36POPC  H11R 4838   0.981   7.344   8.485
   36POPC  H11S 4839   1.121   7.453   8.494
   36POPC  C212 4840   0.948   7.536   8.393
   36POPC  H12R 4841   0.881   7.614   8.435
   36POPC  H12S 4842   0.885   7.471   8.328
   36POPC  C213 4843   1.053   7.604   8.306
   36POPC  H13R 4844   1.128   7.651   8.373
   36POPC  H13S 4845   1.003   7.685   8.247
   36POPC  C214 4846   1.123   7.511   8.207
   36POPC  H14R 4847   1.046   7.469   8.139
   36POPC  H14S 4848   1.169   7.425   8.261
   36POPC  C215 4849   1.229   7.585   8.126
   36POPC  H15R 4850   1.315   7.612   8.190
   36POPC  H15S 4851   1.184   7.680   8.091
   36POPC  C216 4852   1.275   7.507   8.002
   36POPC  H16R 4853   1.281   7.576   7.915
   36POPC  H16S 4854   1.195   7.433   7.977
   36POPC  C217 4855   1.410   7.435   8.015
   36POPC  H17R 4856   1.492   7.508   7.996
   36POPC  H17S 4857   1.419   7.362   7.932
   36POPC  C218 4858   1.439   7.366   8.149
   36POPC  H18R 4859   1.465   7.440   8.227
   36POPC  H18S 4860   1.523   7.295   8.137
   36POPC  H18T 4861   1.351   7.309   8.185
   36POPC   C33 4862   1.321   7.553   9.115
   36POPC   H3X 4863   1.406   7.504   9.167
   36POPC   H3Y 4864   1.314   7.657   9.152
   36POPC   C34 4865   1.350   7.560   8.964
   36POPC   H4X 4866   1.435   7.630   8.950
   36POPC   H4Y 4867   1.263   7.605   8.910
   36POPC   C35 4868   1.386   7.427   8.899
   36POPC   H5X 4869   1.424   7.355   8.975
   36POPC   H5Y 4870   1.469   7.445   8.827
   36POPC   C36 4871   1.268   7.365   8.822
   36POPC   H6X 4872   1.223   7.442   8.756
   36POPC   H6Y 4873   1.191   7.333   8.895
   36POPC   C37 4874   1.311   7.246   8.736
   36POPC   H7X 4875   1.221   7.186   8.712
   36POPC   H7Y 4876   1.379   7.182   8.795
   36POPC   C38 4877   1.378   7.288   8.605
   36POPC   H8X 4878   1.453   7.368   8.625
   36POPC   H8Y 4879   1.302   7.333   8.537
   36POPC   C39 4880   1.450   7.173   8.534
   36POPC   H9X 4881   1.537   7.142   8.596
   36POPC   H9Y 4882   1.488   7.208   8.435
   36POPC  C310 4883   1.367   7.046   8.516
   36POPC  H10X 4884   1.335   7.007   8.615
   36POPC  H10Y 4885   1.430   6.967   8.468
   36POPC  C311 4886   1.244   7.069   8.430
   36POPC  H11X 4887   1.277   7.093   8.327
   36POPC  H11Y 4888   1.187   7.156   8.469
   36POPC  C312 4889   1.153   6.947   8.430
   36POPC  H12X 4890   1.102   6.939   8.528
   36POPC  H12Y 4891   1.213   6.855   8.414
   36POPC  C313 4892   1.050   6.958   8.319
   36POPC  H13X 4893   0.972   6.880   8.332
   36POPC  H13Y 4894   1.100   6.938   8.222
   36POPC  C314 4895   0.980   7.093   8.313
   36POPC  H14X 4896   1.053   7.172   8.284
   36POPC  H14Y 4897   0.938   7.120   8.412
   36POPC  C315 4898   0.869   7.090   8.209
   36POPC  H15X 4899   0.772   7.067   8.258
   36POPC  H15Y 4900   0.889   7.008   8.137
   36POPC  C316 4901   0.861   7.220   8.130
   36POPC  H16X 4902   0.945   7.229   8.058
   36POPC  H16Y 4903   0.864   7.308   8.199
   36POPC  H16Z 4904   0.765   7.224   8.074
   37POPC     N 4905   2.954   2.902   5.842
   37POPC   C12 4906   2.999   2.780   5.922
   37POPC  H12A 4907   3.036   2.705   5.854
   37POPC  H12B 4908   2.913   2.741   5.975
   37POPC   C13 4909   3.070   2.995   5.824
   37POPC  H13A 4910   3.151   2.947   5.772
   37POPC  H13B 4911   3.041   3.084   5.769
   37POPC  H13C 4912   3.106   3.023   5.922
   37POPC   C14 4913   2.898   2.862   5.709
   37POPC  H14A 4914   2.869   2.950   5.653
   37POPC  H14B 4915   2.971   2.809   5.650
   37POPC  H14C 4916   2.810   2.801   5.720
   37POPC   C15 4917   2.848   2.975   5.921
   37POPC  H15A 4918   2.760   2.915   5.938
   37POPC  H15B 4919   2.819   3.068   5.874
   37POPC  H15C 4920   2.885   2.998   6.020
   37POPC   C11 4921   3.107   2.804   6.030
   37POPC  H11A 4922   3.205   2.826   5.982
   37POPC  H11B 4923   3.124   2.711   6.090
   37POPC     P 4924   2.986   2.899   6.243
   37POPC   O13 4925   2.968   2.754   6.269
   37POPC   O14 4926   2.865   2.980   6.219
   37POPC   O12 4927   3.071   2.914   6.111
   37POPC   O11 4928   3.081   2.969   6.349
   37POPC    C1 4929   3.203   3.033   6.310
   37POPC    HA 4930   3.209   3.059   6.202
   37POPC    HB 4931   3.288   2.964   6.331
   37POPC    C2 4932   3.228   3.170   6.381
   37POPC    HS 4933   3.329   3.205   6.353
   37POPC   O21 4934   3.217   3.155   6.523
   37POPC   C21 4935   3.313   3.082   6.577
   37POPC   O22 4936   3.416   3.048   6.523
   37POPC   C22 4937   3.280   3.059   6.725
   37POPC   H2R 4938   3.171   3.073   6.740
   37POPC   H2S 4939   3.332   3.138   6.782
   37POPC    C3 4940   3.128   3.280   6.332
   37POPC    HX 4941   3.147   3.293   6.224
   37POPC    HY 4942   3.153   3.376   6.381
   37POPC   O31 4943   2.989   3.244   6.350
   37POPC   C31 4944   2.943   3.260   6.474
   37POPC   O32 4945   2.996   3.327   6.561
   37POPC   C32 4946   2.808   3.188   6.487
   37POPC   H2X 4947   2.821   3.084   6.448
   37POPC   H2Y 4948   2.737   3.241   6.421
   37POPC   C23 4949   3.329   2.921   6.773
   37POPC   H3R 4950   3.330   2.921   6.884
   37POPC   H3S 4951   3.434   2.906   6.740
   37POPC   C24 4952   3.243   2.803   6.726
   37POPC   H4R 4953   3.289   2.708   6.760
   37POPC   H4S 4954   3.236   2.800   6.615
   37POPC   C25 4955   3.103   2.815   6.787
   37POPC   H5R 4956   3.051   2.900   6.737
   37POPC   H5S 4957   3.118   2.839   6.894
   37POPC   C26 4958   3.010   2.695   6.778
   37POPC   H6R 4959   3.056   2.610   6.834
   37POPC   H6S 4960   2.999   2.666   6.671
   37POPC   C27 4961   2.872   2.726   6.838
   37POPC   H7R 4962   2.805   2.639   6.817
   37POPC   H7S 4963   2.831   2.814   6.784
   37POPC   C28 4964   2.871   2.748   6.990
   37POPC   H8R 4965   2.956   2.815   7.018
   37POPC   H8S 4966   2.892   2.650   7.039
   37POPC   C29 4967   2.743   2.812   7.039
   37POPC   H91 4968   2.701   2.886   6.970
   37POPC  C210 4969   2.680   2.789   7.155
   37POPC  H101 4970   2.589   2.846   7.178
   37POPC  C211 4971   2.724   2.693   7.263
   37POPC  H11R 4972   2.802   2.623   7.225
   37POPC  H11S 4973   2.637   2.631   7.292
   37POPC  C212 4974   2.779   2.757   7.392
   37POPC  H12R 4975   2.860   2.830   7.369
   37POPC  H12S 4976   2.825   2.675   7.451
   37POPC  C213 4977   2.670   2.821   7.478
   37POPC  H13R 4978   2.694   2.805   7.586
   37POPC  H13S 4979   2.574   2.768   7.459
   37POPC  C214 4980   2.651   2.972   7.455
   37POPC  H14R 4981   2.543   2.993   7.444
   37POPC  H14S 4982   2.701   3.003   7.361
   37POPC  C215 4983   2.703   3.057   7.572
   37POPC  H15R 4984   2.658   3.020   7.666
   37POPC  H15S 4985   2.669   3.162   7.558
   37POPC  C216 4986   2.857   3.056   7.585
   37POPC  H16R 4987   2.900   3.111   7.498
   37POPC  H16S 4988   2.893   2.951   7.580
   37POPC  C217 4989   2.908   3.119   7.715
   37POPC  H17R 4990   3.019   3.121   7.711
   37POPC  H17S 4991   2.880   3.052   7.800
   37POPC  C218 4992   2.856   3.260   7.743
   37POPC  H18R 4993   2.747   3.259   7.761
   37POPC  H18S 4994   2.877   3.327   7.657
   37POPC  H18T 4995   2.905   3.302   7.834
   37POPC   C33 4996   2.749   3.183   6.630
   37POPC   H3X 4997   2.646   3.141   6.621
   37POPC   H3Y 4998   2.739   3.285   6.673
   37POPC   C34 4999   2.824   3.093   6.729
   37POPC   H4X 5000   2.896   3.029   6.674
   37POPC   H4Y 5001   2.750   3.026   6.779
   37POPC   C35 5002   2.895   3.174   6.838
   37POPC   H5X 5003   2.821   3.246   6.881
   37POPC   H5Y 5004   2.979   3.230   6.791
   37POPC   C36 5005   2.948   3.092   6.955
   37POPC   H6X 5006   3.010   3.010   6.912
   37POPC   H6Y 5007   2.864   3.047   7.012
   37POPC   C37 5008   3.038   3.170   7.051
   37POPC   H7X 5009   2.975   3.237   7.114
   37POPC   H7Y 5010   3.108   3.234   6.994
   37POPC   C38 5011   3.116   3.073   7.139
   37POPC   H8X 5012   3.196   3.025   7.078
   37POPC   H8Y 5013   3.046   2.994   7.172
   37POPC   C39 5014   3.178   3.139   7.263
   37POPC   H9X 5015   3.096   3.173   7.329
   37POPC   H9Y 5016   3.237   3.228   7.234
   37POPC  C310 5017   3.267   3.042   7.340
   37POPC  H10X 5018   3.310   3.096   7.427
   37POPC  H10Y 5019   3.351   3.008   7.276
   37POPC  C311 5020   3.187   2.922   7.389
   37POPC  H11X 5021   3.152   2.859   7.305
   37POPC  H11Y 5022   3.097   2.961   7.442
   37POPC  C312 5023   3.267   2.836   7.486
   37POPC  H12X 5024   3.324   2.906   7.552
   37POPC  H12Y 5025   3.342   2.774   7.432
   37POPC  C313 5026   3.174   2.749   7.570
   37POPC  H13X 5027   3.133   2.667   7.506
   37POPC  H13Y 5028   3.088   2.810   7.604
   37POPC  C314 5029   3.242   2.690   7.694
   37POPC  H14X 5030   3.318   2.615   7.661
   37POPC  H14Y 5031   3.164   2.634   7.750
   37POPC  C315 5032   3.308   2.795   7.785
   37POPC  H15X 5033   3.401   2.833   7.738
   37POPC  H15Y 5034   3.340   2.745   7.879
   37POPC  C316 5035   3.221   2.917   7.819
   37POPC  H16X 5036   3.212   2.984   7.730
   37POPC  H16Y 5037   3.268   2.975   7.901
   37POPC  H16Z 5038   3.119   2.888   7.850
   38POPC     N 5039   3.688   6.124   5.917
   38POPC   C12 5040   3.643   6.211   6.033
   38POPC  H12A 5041   3.629   6.312   5.997
   38POPC  H12B 5042   3.721   6.216   6.108
   38POPC   C13 5043   3.706   5.985   5.969
   38POPC  H13A 5044   3.785   5.984   6.042
   38POPC  H13B 5045   3.617   5.958   6.023
   38POPC  H13C 5046   3.723   5.914   5.890
   38POPC   C14 5047   3.583   6.121   5.810
   38POPC  H14A 5048   3.613   6.060   5.726
   38POPC  H14B 5049   3.491   6.082   5.850
   38POPC  H14C 5050   3.562   6.221   5.774
   38POPC   C15 5051   3.816   6.179   5.862
   38POPC  H15A 5052   3.853   6.122   5.778
   38POPC  H15B 5053   3.893   6.181   5.938
   38POPC  H15C 5054   3.802   6.281   5.831
   38POPC   C11 5055   3.517   6.165   6.109
   38POPC  H11A 5056   3.435   6.145   6.038
   38POPC  H11B 5057   3.486   6.250   6.173
   38POPC     P 5058   3.427   6.004   6.284
   38POPC   O13 5059   3.324   5.948   6.193
   38POPC   O14 5060   3.395   6.119   6.370
   38POPC   O12 5061   3.547   6.049   6.189
   38POPC   O11 5062   3.486   5.888   6.372
   38POPC    C1 5063   3.592   5.801   6.336
   38POPC    HA 5064   3.637   5.826   6.238
   38POPC    HB 5065   3.550   5.698   6.329
   38POPC    C2 5066   3.702   5.802   6.445
   38POPC    HS 5067   3.773   5.721   6.417
   38POPC   O21 5068   3.641   5.771   6.572
   38POPC   C21 5069   3.719   5.763   6.677
   38POPC   O22 5070   3.841   5.758   6.675
   38POPC   C22 5071   3.631   5.746   6.801
   38POPC   H2R 5072   3.556   5.668   6.777
   38POPC   H2S 5073   3.577   5.841   6.818
   38POPC    C3 5074   3.784   5.936   6.444
   38POPC    HX 5075   3.801   5.962   6.337
   38POPC    HY 5076   3.883   5.918   6.491
   38POPC   O31 5077   3.718   6.040   6.516
   38POPC   C31 5078   3.725   6.163   6.468
   38POPC   O32 5079   3.780   6.199   6.365
   38POPC   C32 5080   3.663   6.258   6.571
   38POPC   H2X 5081   3.587   6.319   6.518
   38POPC   H2Y 5082   3.743   6.324   6.611
   38POPC   C23 5083   3.709   5.703   6.929
   38POPC   H3R 5084   3.795   5.637   6.904
   38POPC   H3S 5085   3.638   5.643   6.991
   38POPC   C24 5086   3.755   5.819   7.019
   38POPC   H4R 5087   3.792   5.778   7.115
   38POPC   H4S 5088   3.666   5.882   7.042
   38POPC   C25 5089   3.865   5.909   6.960
   38POPC   H5R 5090   3.830   5.951   6.863
   38POPC   H5S 5091   3.955   5.847   6.938
   38POPC   C26 5092   3.903   6.026   7.052
   38POPC   H6R 5093   3.988   6.081   7.006
   38POPC   H6S 5094   3.936   5.988   7.151
   38POPC   C27 5095   3.787   6.125   7.070
   38POPC   H7R 5096   3.704   6.075   7.126
   38POPC   H7S 5097   3.750   6.146   6.967
   38POPC   C28 5098   3.821   6.256   7.142
   38POPC   H8R 5099   3.922   6.290   7.111
   38POPC   H8S 5100   3.824   6.239   7.252
   38POPC   C29 5101   3.719   6.359   7.101
   38POPC   H91 5102   3.729   6.389   6.996
   38POPC  C210 5103   3.621   6.416   7.173
   38POPC  H101 5104   3.556   6.489   7.122
   38POPC  C211 5105   3.586   6.394   7.317
   38POPC  H11R 5106   3.656   6.322   7.365
   38POPC  H11S 5107   3.484   6.352   7.327
   38POPC  C212 5108   3.592   6.529   7.391
   38POPC  H12R 5109   3.508   6.593   7.358
   38POPC  H12S 5110   3.687   6.583   7.368
   38POPC  C213 5111   3.586   6.512   7.543
   38POPC  H13R 5112   3.506   6.438   7.566
   38POPC  H13S 5113   3.556   6.608   7.591
   38POPC  C214 5114   3.721   6.469   7.601
   38POPC  H14R 5115   3.789   6.557   7.601
   38POPC  H14S 5116   3.767   6.393   7.535
   38POPC  C215 5117   3.712   6.410   7.742
   38POPC  H15R 5118   3.662   6.483   7.809
   38POPC  H15S 5119   3.815   6.394   7.780
   38POPC  C216 5120   3.639   6.276   7.744
   38POPC  H16R 5121   3.689   6.207   7.672
   38POPC  H16S 5122   3.533   6.288   7.710
   38POPC  C217 5123   3.639   6.211   7.882
   38POPC  H17R 5124   3.742   6.211   7.923
   38POPC  H17S 5125   3.607   6.105   7.868
   38POPC  C218 5126   3.547   6.278   7.983
   38POPC  H18R 5127   3.569   6.387   7.989
   38POPC  H18S 5128   3.561   6.235   8.085
   38POPC  H18T 5129   3.440   6.265   7.955
   38POPC   C33 5130   3.595   6.179   6.686
   38POPC   H3X 5131   3.669   6.114   6.738
   38POPC   H3Y 5132   3.519   6.113   6.640
   38POPC   C34 5133   3.525   6.266   6.789
   38POPC   H4X 5134   3.472   6.348   6.735
   38POPC   H4Y 5135   3.598   6.313   6.859
   38POPC   C35 5136   3.421   6.184   6.864
   38POPC   H5X 5137   3.366   6.123   6.789
   38POPC   H5Y 5138   3.349   6.255   6.910
   38POPC   C36 5139   3.470   6.087   6.972
   38POPC   H6X 5140   3.507   6.148   7.057
   38POPC   H6Y 5141   3.555   6.028   6.931
   38POPC   C37 5142   3.359   5.991   7.018
   38POPC   H7X 5143   3.334   5.923   6.933
   38POPC   H7Y 5144   3.268   6.050   7.041
   38POPC   C38 5145   3.388   5.908   7.143
   38POPC   H8X 5146   3.478   5.845   7.125
   38POPC   H8Y 5147   3.303   5.838   7.160
   38POPC   C39 5148   3.405   5.994   7.270
   38POPC   H9X 5149   3.306   6.040   7.295
   38POPC   H9Y 5150   3.477   6.076   7.252
   38POPC  C310 5151   3.455   5.912   7.390
   38POPC  H10X 5152   3.392   5.820   7.398
   38POPC  H10Y 5153   3.441   5.970   7.484
   38POPC  C311 5154   3.603   5.873   7.375
   38POPC  H11X 5155   3.667   5.948   7.427
   38POPC  H11Y 5156   3.631   5.877   7.267
   38POPC  C312 5157   3.634   5.731   7.424
   38POPC  H12X 5158   3.734   5.701   7.388
   38POPC  H12Y 5159   3.560   5.662   7.379
   38POPC  C313 5160   3.630   5.719   7.577
   38POPC  H13X 5161   3.614   5.613   7.605
   38POPC  H13Y 5162   3.545   5.778   7.618
   38POPC  C314 5163   3.762   5.764   7.641
   38POPC  H14X 5164   3.792   5.862   7.596
   38POPC  H14Y 5165   3.842   5.692   7.612
   38POPC  C315 5166   3.758   5.781   7.793
   38POPC  H15X 5167   3.706   5.877   7.812
   38POPC  H15Y 5168   3.862   5.792   7.831
   38POPC  C316 5169   3.687   5.671   7.874
   38POPC  H16X 5170   3.740   5.574   7.866
   38POPC  H16Y 5171   3.582   5.656   7.838
   38POPC  H16Z 5172   3.683   5.699   7.981
   39POPC     N 5173   1.292   2.303   5.966
   39POPC   C12 5174   1.380   2.393   5.881
   39POPC  H12A 5175   1.317   2.457   5.821
   39POPC  H12B 5176   1.438   2.332   5.813
   39POPC   C13 5177   1.373   2.189   6.021
   39POPC  H13A 5178   1.459   2.229   6.073
   39POPC  H13B 5179   1.316   2.131   6.091
   39POPC  H13C 5180   1.410   2.124   5.943
   39POPC   C14 5181   1.239   2.380   6.083
   39POPC  H14A 5182   1.187   2.470   6.052
   39POPC  H14B 5183   1.170   2.321   6.141
   39POPC  H14C 5184   1.320   2.411   6.147
   39POPC   C15 5185   1.178   2.252   5.883
   39POPC  H15A 5186   1.211   2.189   5.803
   39POPC  H15B 5187   1.123   2.335   5.841
   39POPC  H15C 5188   1.107   2.200   5.944
   39POPC   C11 5189   1.480   2.486   5.954
   39POPC  H11A 5190   1.419   2.559   6.011
   39POPC  H11B 5191   1.536   2.546   5.879
   39POPC     P 5192   1.621   2.486   6.165
   39POPC   O13 5193   1.517   2.465   6.268
   39POPC   O14 5194   1.655   2.624   6.125
   39POPC   O12 5195   1.573   2.411   6.033
   39POPC   O11 5196   1.753   2.412   6.207
   39POPC    C1 5197   1.823   2.312   6.135
   39POPC    HA 5198   1.912   2.356   6.085
   39POPC    HB 5199   1.760   2.267   6.055
   39POPC    C2 5200   1.868   2.193   6.227
   39POPC    HS 5201   1.865   2.101   6.165
   39POPC   O21 5202   1.778   2.179   6.339
   39POPC   C21 5203   1.652   2.150   6.306
   39POPC   O22 5204   1.613   2.117   6.195
   39POPC   C22 5205   1.568   2.146   6.434
   39POPC   H2R 5206   1.566   2.248   6.478
   39POPC   H2S 5207   1.626   2.079   6.502
   39POPC    C3 5208   2.017   2.206   6.279
   39POPC    HX 5209   2.078   2.215   6.187
   39POPC    HY 5210   2.044   2.108   6.324
   39POPC   O31 5211   2.052   2.317   6.366
   39POPC   C31 5212   2.073   2.290   6.496
   39POPC   O32 5213   2.044   2.185   6.550
   39POPC   C32 5214   2.159   2.408   6.568
   39POPC   H2X 5215   2.163   2.337   6.653
   39POPC   H2Y 5216   2.076   2.472   6.531
   39POPC   C23 5217   1.425   2.087   6.422
   39POPC   H3R 5218   1.423   2.015   6.337
   39POPC   H3S 5219   1.353   2.168   6.399
   39POPC   C24 5220   1.380   2.008   6.547
   39POPC   H4R 5221   1.457   1.930   6.570
   39POPC   H4S 5222   1.288   1.951   6.522
   39POPC   C25 5223   1.357   2.094   6.672
   39POPC   H5R 5224   1.279   2.170   6.647
   39POPC   H5S 5225   1.448   2.155   6.691
   39POPC   C26 5226   1.312   2.023   6.803
   39POPC   H6R 5227   1.204   2.003   6.788
   39POPC   H6S 5228   1.316   2.097   6.885
   39POPC   C27 5229   1.373   1.888   6.849
   39POPC   H7R 5230   1.442   1.848   6.772
   39POPC   H7S 5231   1.288   1.817   6.853
   39POPC   C28 5232   1.439   1.883   6.992
   39POPC   H8R 5233   1.379   1.811   7.052
   39POPC   H8S 5234   1.418   1.980   7.042
   39POPC   C29 5235   1.585   1.838   6.998
   39POPC   H91 5236   1.599   1.751   6.932
   39POPC  C210 5237   1.701   1.875   7.061
   39POPC  H101 5238   1.787   1.812   7.033
   39POPC  C211 5239   1.751   1.980   7.161
   39POPC  H11R 5240   1.842   1.929   7.199
   39POPC  H11S 5241   1.682   1.987   7.248
   39POPC  C212 5242   1.824   2.116   7.135
   39POPC  H12R 5243   1.753   2.200   7.118
   39POPC  H12S 5244   1.886   2.106   7.044
   39POPC  C213 5245   1.915   2.167   7.249
   39POPC  H13R 5246   1.960   2.265   7.224
   39POPC  H13S 5247   2.000   2.095   7.256
   39POPC  C214 5248   1.855   2.178   7.390
   39POPC  H14R 5249   1.941   2.170   7.460
   39POPC  H14S 5250   1.788   2.092   7.413
   39POPC  C215 5251   1.785   2.311   7.424
   39POPC  H15R 5252   1.681   2.312   7.384
   39POPC  H15S 5253   1.841   2.394   7.376
   39POPC  C216 5254   1.785   2.336   7.576
   39POPC  H16R 5255   1.760   2.442   7.599
   39POPC  H16S 5256   1.888   2.318   7.612
   39POPC  C217 5257   1.690   2.244   7.654
   39POPC  H17R 5258   1.672   2.151   7.596
   39POPC  H17S 5259   1.592   2.294   7.666
   39POPC  C218 5260   1.746   2.203   7.791
   39POPC  H18R 5261   1.844   2.153   7.779
   39POPC  H18S 5262   1.677   2.131   7.841
   39POPC  H18T 5263   1.759   2.292   7.856
   39POPC   C33 5264   2.139   2.518   6.689
   39POPC   H3X 5265   2.219   2.500   6.765
   39POPC   H3Y 5266   2.042   2.488   6.735
   39POPC   C34 5267   2.124   2.674   6.673
   39POPC   H4X 5268   2.084   2.706   6.574
   39POPC   H4Y 5269   2.224   2.721   6.680
   39POPC   C35 5270   2.034   2.744   6.780
   39POPC   H5X 5271   2.097   2.784   6.862
   39POPC   H5Y 5272   1.974   2.659   6.822
   39POPC   C36 5273   1.919   2.843   6.748
   39POPC   H6X 5274   1.858   2.813   6.661
   39POPC   H6Y 5275   1.967   2.940   6.720
   39POPC   C37 5276   1.825   2.870   6.871
   39POPC   H7X 5277   1.784   2.973   6.855
   39POPC   H7Y 5278   1.887   2.875   6.963
   39POPC   C38 5279   1.699   2.781   6.897
   39POPC   H8X 5280   1.686   2.707   6.815
   39POPC   H8Y 5281   1.609   2.846   6.890
   39POPC   C39 5282   1.692   2.707   7.034
   39POPC   H9X 5283   1.789   2.721   7.088
   39POPC   H9Y 5284   1.677   2.598   7.018
   39POPC  C310 5285   1.576   2.747   7.127
   39POPC  H10X 5286   1.480   2.708   7.087
   39POPC  H10Y 5287   1.571   2.858   7.124
   39POPC  C311 5288   1.592   2.707   7.275
   39POPC  H11X 5289   1.561   2.797   7.333
   39POPC  H11Y 5290   1.698   2.686   7.299
   39POPC  C312 5291   1.502   2.593   7.326
   39POPC  H12X 5292   1.540   2.495   7.290
   39POPC  H12Y 5293   1.399   2.608   7.285
   39POPC  C313 5294   1.494   2.593   7.480
   39POPC  H13X 5295   1.496   2.698   7.514
   39POPC  H13Y 5296   1.584   2.543   7.522
   39POPC  C314 5297   1.367   2.529   7.537
   39POPC  H14X 5298   1.365   2.419   7.519
   39POPC  H14Y 5299   1.279   2.573   7.483
   39POPC  C315 5300   1.351   2.560   7.686
   39POPC  H15X 5301   1.398   2.658   7.706
   39POPC  H15Y 5302   1.411   2.487   7.745
   39POPC  C316 5303   1.206   2.562   7.735
   39POPC  H16X 5304   1.146   2.633   7.675
   39POPC  H16Y 5305   1.201   2.594   7.841
   39POPC  H16Z 5306   1.160   2.461   7.726
   40POPC     N 5307   6.990   0.468   6.269
   40POPC   C12 5308   6.969   0.592   6.182
   40POPC  H12A 5309   7.035   0.671   6.214
   40POPC  H12B 5310   6.870   0.631   6.198
   40POPC   C13 5311   6.912   0.353   6.214
   40POPC  H13A 5312   6.927   0.348   6.107
   40POPC  H13B 5313   6.936   0.259   6.261
   40POPC  H13C 5314   6.806   0.372   6.225
   40POPC   C14 5315   7.135   0.438   6.278
   40POPC  H14A 5316   7.158   0.351   6.338
   40POPC  H14B 5317   7.178   0.428   6.179
   40POPC  H14C 5318   7.189   0.522   6.319
   40POPC   C15 5319   6.945   0.495   6.409
   40POPC  H15A 5320   6.958   0.408   6.472
   40POPC  H15B 5321   6.841   0.523   6.410
   40POPC  H15C 5322   7.002   0.577   6.451
   40POPC   C11 5323   6.986   0.575   6.028
   40POPC  H11A 5324   7.086   0.532   6.008
   40POPC  H11B 5325   6.987   0.676   5.982
   40POPC     P 5326   6.734   0.544   5.957
   40POPC   O13 5327   6.645   0.427   5.975
   40POPC   O14 5328   6.715   0.624   5.834
   40POPC   O12 5329   6.885   0.494   5.969
   40POPC   O11 5330   6.714   0.637   6.083
   40POPC    C1 5331   6.726   0.779   6.075
   40POPC    HA 5332   6.662   0.821   5.994
   40POPC    HB 5333   6.831   0.809   6.055
   40POPC    C2 5334   6.683   0.847   6.208
   40POPC    HS 5335   6.701   0.956   6.197
   40POPC   O21 5336   6.763   0.797   6.317
   40POPC   C21 5337   6.744   0.867   6.430
   40POPC   O22 5338   6.687   0.974   6.437
   40POPC   C22 5339   6.783   0.781   6.551
   40POPC   H2R 5340   6.819   0.683   6.515
   40POPC   H2S 5341   6.690   0.764   6.608
   40POPC    C3 5342   6.530   0.827   6.233
   40POPC    HX 5343   6.481   0.901   6.166
   40POPC    HY 5344   6.502   0.858   6.336
   40POPC   O31 5345   6.477   0.696   6.201
   40POPC   C31 5346   6.514   0.597   6.284
   40POPC   O32 5347   6.580   0.612   6.385
   40POPC   C32 5348   6.442   0.468   6.245
   40POPC   H2X 5349   6.425   0.472   6.135
   40POPC   H2Y 5350   6.344   0.467   6.297
   40POPC   C23 5351   6.889   0.844   6.644
   40POPC   H3R 5352   6.854   0.944   6.678
   40POPC   H3S 5353   6.984   0.858   6.589
   40POPC   C24 5354   6.911   0.755   6.766
   40POPC   H4R 5355   6.935   0.651   6.734
   40POPC   H4S 5356   6.817   0.751   6.824
   40POPC   C25 5357   7.025   0.805   6.855
   40POPC   H5R 5358   7.017   0.915   6.866
   40POPC   H5S 5359   7.122   0.784   6.805
   40POPC   C26 5360   7.024   0.742   6.995
   40POPC   H6R 5361   7.119   0.770   7.046
   40POPC   H6S 5362   7.021   0.631   6.988
   40POPC   C27 5363   6.907   0.793   7.081
   40POPC   H7R 5364   6.812   0.746   7.049
   40POPC   H7S 5365   6.897   0.902   7.064
   40POPC   C28 5366   6.930   0.771   7.231
   40POPC   H8R 5367   6.849   0.821   7.287
   40POPC   H8S 5368   7.025   0.824   7.256
   40POPC   C29 5369   6.936   0.625   7.268
   40POPC   H91 5370   6.858   0.563   7.222
   40POPC  C210 5371   7.028   0.564   7.344
   40POPC  H101 5372   7.019   0.456   7.364
   40POPC  C211 5373   7.145   0.632   7.407
   40POPC  H11R 5374   7.208   0.674   7.325
   40POPC  H11S 5375   7.208   0.556   7.458
   40POPC  C212 5376   7.116   0.747   7.506
   40POPC  H12R 5377   7.050   0.823   7.459
   40POPC  H12S 5378   7.213   0.798   7.526
   40POPC  C213 5379   7.055   0.707   7.640
   40POPC  H13R 5380   7.133   0.664   7.707
   40POPC  H13S 5381   6.976   0.631   7.625
   40POPC  C214 5382   6.994   0.829   7.710
   40POPC  H14R 5383   6.910   0.864   7.647
   40POPC  H14S 5384   7.069   0.911   7.718
   40POPC  C215 5385   6.943   0.800   7.851
   40POPC  H15R 5386   6.914   0.693   7.853
   40POPC  H15S 5387   6.852   0.860   7.872
   40POPC  C216 5388   7.048   0.829   7.958
   40POPC  H16R 5389   7.147   0.795   7.921
   40POPC  H16S 5390   7.022   0.770   8.049
   40POPC  C217 5391   7.054   0.977   7.996
   40POPC  H17R 5392   6.949   1.013   7.993
   40POPC  H17S 5393   7.112   1.031   7.918
   40POPC  C218 5394   7.107   1.016   8.135
   40POPC  H18R 5395   7.098   1.125   8.152
   40POPC  H18S 5396   7.215   0.990   8.146
   40POPC  H18T 5397   7.049   0.965   8.215
   40POPC   C33 5398   6.521   0.339   6.277
   40POPC   H3X 5399   6.622   0.343   6.231
   40POPC   H3Y 5400   6.467   0.256   6.226
   40POPC   C34 5401   6.530   0.301   6.426
   40POPC   H4X 5402   6.510   0.192   6.435
   40POPC   H4Y 5403   6.452   0.355   6.485
   40POPC   C35 5404   6.669   0.326   6.487
   40POPC   H5X 5405   6.696   0.433   6.477
   40POPC   H5Y 5406   6.742   0.265   6.429
   40POPC   C36 5407   6.682   0.287   6.635
   40POPC   H6X 5408   6.784   0.247   6.652
   40POPC   H6Y 5409   6.609   0.207   6.659
   40POPC   C37 5410   6.661   0.404   6.732
   40POPC   H7X 5411   6.555   0.435   6.729
   40POPC   H7Y 5412   6.723   0.491   6.701
   40POPC   C38 5413   6.700   0.364   6.875
   40POPC   H8X 5414   6.809   0.345   6.881
   40POPC   H8Y 5415   6.648   0.269   6.900
   40POPC   C39 5416   6.661   0.470   6.979
   40POPC   H9X 5417   6.559   0.507   6.956
   40POPC   H9Y 5418   6.730   0.557   6.971
   40POPC  C310 5419   6.662   0.415   7.122
   40POPC  H10X 5420   6.766   0.387   7.149
   40POPC  H10Y 5421   6.601   0.323   7.126
   40POPC  C311 5422   6.606   0.515   7.224
   40POPC  H11X 5423   6.499   0.534   7.201
   40POPC  H11Y 5424   6.659   0.613   7.216
   40POPC  C312 5425   6.618   0.461   7.367
   40POPC  H12X 5426   6.723   0.434   7.389
   40POPC  H12Y 5427   6.558   0.368   7.372
   40POPC  C313 5428   6.567   0.558   7.475
   40POPC  H13X 5429   6.550   0.497   7.567
   40POPC  H13Y 5430   6.470   0.601   7.446
   40POPC  C314 5431   6.668   0.668   7.509
   40POPC  H14X 5432   6.666   0.745   7.429
   40POPC  H14Y 5433   6.770   0.625   7.511
   40POPC  C315 5434   6.643   0.734   7.645
   40POPC  H15X 5435   6.542   0.781   7.645
   40POPC  H15Y 5436   6.715   0.819   7.658
   40POPC  C316 5437   6.655   0.640   7.765
   40POPC  H16X 5438   6.654   0.698   7.860
   40POPC  H16Y 5439   6.750   0.583   7.759
   40POPC  H16Z 5440   6.571   0.567   7.768
   41CHL1    C3 5441   3.860   4.491   9.729
   41CHL1    H3 5442   3.882   4.599   9.713
   41CHL1    O3 5443   3.828   4.471   9.865
   41CHL1   H3' 5444   3.736   4.498   9.876
   41CHL1    C4 5445   3.740   4.450   9.640
   41CHL1   H4A 5446   3.711   4.346   9.666
   41CHL1   H4B 5447   3.654   4.514   9.667
   41CHL1    C5 5448   3.776   4.462   9.493
   41CHL1    C6 5449   3.708   4.544   9.411
   41CHL1    H6 5450   3.621   4.599   9.448
   41CHL1    C7 5451   3.739   4.562   9.265
   41CHL1   H7A 5452   3.645   4.569   9.207
   41CHL1   H7B 5453   3.794   4.657   9.251
   41CHL1    C8 5454   3.824   4.446   9.209
   41CHL1    H8 5455   3.758   4.357   9.201
   41CHL1   C14 5456   3.880   4.483   9.073
   41CHL1   H14 5457   3.954   4.564   9.091
   41CHL1   C15 5458   3.784   4.543   8.969
   41CHL1  H15A 5459   3.691   4.482   8.965
   41CHL1  H15B 5460   3.757   4.648   8.992
   41CHL1   C16 5461   3.862   4.531   8.837
   41CHL1  H16A 5462   3.796   4.484   8.760
   41CHL1  H16B 5463   3.895   4.630   8.801
   41CHL1   C17 5464   3.986   4.440   8.866
   41CHL1   H17 5465   4.071   4.510   8.885
   41CHL1   C13 5466   3.957   4.371   9.002
   41CHL1   C18 5467   3.864   4.249   8.977
   41CHL1  H18A 5468   3.777   4.277   8.914
   41CHL1  H18B 5469   3.919   4.168   8.925
   41CHL1  H18C 5470   3.826   4.207   9.072
   41CHL1   C12 5471   4.077   4.336   9.092
   41CHL1  H12A 5472   4.134   4.250   9.052
   41CHL1  H12B 5473   4.144   4.424   9.096
   41CHL1   C11 5474   4.034   4.302   9.237
   41CHL1  H11A 5475   3.980   4.205   9.232
   41CHL1  H11B 5476   4.124   4.288   9.299
   41CHL1    C9 5477   3.942   4.411   9.302
   41CHL1    H9 5478   4.003   4.503   9.306
   41CHL1   C10 5479   3.899   4.381   9.449
   41CHL1   C19 5480   3.864   4.230   9.460
   41CHL1  H19A 5481   3.787   4.202   9.385
   41CHL1  H19B 5482   3.954   4.167   9.444
   41CHL1  H19C 5483   3.826   4.204   9.561
   41CHL1    C1 5484   4.017   4.417   9.544
   41CHL1   H1A 5485   4.104   4.351   9.521
   41CHL1   H1B 5486   4.049   4.521   9.523
   41CHL1    C2 5487   3.984   4.407   9.694
   41CHL1   H2A 5488   4.070   4.443   9.755
   41CHL1   H2B 5489   3.963   4.302   9.721
   41CHL1   C20 5490   4.024   4.355   8.744
   41CHL1   H20 5491   3.939   4.288   8.720
   41CHL1   C21 5492   4.147   4.267   8.777
   41CHL1  H21A 5493   4.231   4.330   8.812
   41CHL1  H21B 5494   4.180   4.212   8.686
   41CHL1  H21C 5495   4.123   4.191   8.854
   41CHL1   C22 5496   4.054   4.440   8.618
   41CHL1  H22A 5497   3.977   4.519   8.605
   41CHL1  H22B 5498   4.152   4.491   8.631
   41CHL1   C23 5499   4.055   4.358   8.487
   41CHL1  H23A 5500   4.128   4.274   8.495
   41CHL1  H23B 5501   3.954   4.313   8.474
   41CHL1   C24 5502   4.090   4.442   8.364
   41CHL1  H24A 5503   4.026   4.533   8.362
   41CHL1  H24B 5504   4.196   4.477   8.374
   41CHL1   C25 5505   4.075   4.370   8.228
   41CHL1   H25 5506   4.113   4.439   8.150
   41CHL1   C26 5507   4.160   4.241   8.220
   41CHL1  H26A 5508   4.266   4.263   8.243
   41CHL1  H26B 5509   4.123   4.166   8.292
   41CHL1  H26C 5510   4.154   4.198   8.118
   41CHL1   C27 5511   3.928   4.340   8.195
   41CHL1  H27A 5512   3.867   4.433   8.203
   41CHL1  H27B 5513   3.919   4.301   8.092
   41CHL1  H27C 5514   3.887   4.265   8.266
   42CHL1    C3 5515   3.032   4.361   9.744
   42CHL1    H3 5516   2.957   4.284   9.715
   42CHL1    O3 5517   3.036   4.372   9.886
   42CHL1   H3' 5518   3.075   4.289   9.914
   42CHL1    C4 5519   3.171   4.320   9.695
   42CHL1   H4A 5520   3.245   4.393   9.734
   42CHL1   H4B 5521   3.197   4.222   9.741
   42CHL1    C5 5522   3.178   4.314   9.544
   42CHL1    C6 5523   3.215   4.201   9.481
   42CHL1    H6 5524   3.243   4.113   9.540
   42CHL1    C7 5525   3.227   4.189   9.333
   42CHL1   H7A 5526   3.322   4.137   9.306
   42CHL1   H7B 5527   3.143   4.127   9.294
   42CHL1    C8 5528   3.224   4.326   9.260
   42CHL1    H8 5529   3.324   4.374   9.272
   42CHL1   C14 5530   3.195   4.304   9.113
   42CHL1   H14 5531   3.092   4.262   9.110
   42CHL1   C15 5532   3.281   4.201   9.040
   42CHL1  H15A 5533   3.388   4.215   9.066
   42CHL1  H15B 5534   3.250   4.098   9.069
   42CHL1   C16 5535   3.256   4.231   8.892
   42CHL1  H16A 5536   3.354   4.251   8.843
   42CHL1  H16B 5537   3.206   4.147   8.841
   42CHL1   C17 5538   3.167   4.359   8.887
   42CHL1   H17 5539   3.062   4.322   8.890
   42CHL1   C13 5540   3.191   4.428   9.024
   42CHL1   C18 5541   3.329   4.499   9.021
   42CHL1  H18A 5542   3.324   4.589   8.956
   42CHL1  H18B 5543   3.359   4.532   9.122
   42CHL1  H18C 5544   3.409   4.432   8.982
   42CHL1   C12 5545   3.080   4.520   9.080
   42CHL1  H12A 5546   3.079   4.617   9.027
   42CHL1  H12B 5547   2.982   4.471   9.066
   42CHL1   C11 5548   3.101   4.548   9.231
   42CHL1  H11A 5549   3.192   4.610   9.241
   42CHL1  H11B 5550   3.014   4.607   9.268
   42CHL1    C9 5551   3.117   4.419   9.317
   42CHL1    H9 5552   3.021   4.363   9.305
   42CHL1   C10 5553   3.133   4.442   9.470
   42CHL1   C19 5554   3.241   4.551   9.494
   42CHL1  H19A 5555   3.207   4.648   9.452
   42CHL1  H19B 5556   3.261   4.566   9.602
   42CHL1  H19C 5557   3.336   4.523   9.444
   42CHL1    C1 5558   2.996   4.489   9.529
   42CHL1   H1A 5559   2.970   4.588   9.487
   42CHL1   H1B 5560   2.917   4.417   9.496
   42CHL1    C2 5561   2.991   4.496   9.683
   42CHL1   H2A 5562   2.888   4.521   9.716
   42CHL1   H2B 5563   3.059   4.575   9.719
   42CHL1   C20 5564   3.182   4.436   8.755
   42CHL1   H20 5565   3.281   4.486   8.752
   42CHL1   C21 5566   3.071   4.542   8.747
   42CHL1  H21A 5567   2.971   4.496   8.757
   42CHL1  H21B 5568   3.075   4.596   8.649
   42CHL1  H21C 5569   3.085   4.619   8.826
   42CHL1   C22 5570   3.175   4.340   8.632
   42CHL1  H22A 5571   3.261   4.270   8.634
   42CHL1  H22B 5572   3.082   4.279   8.640
   42CHL1   C23 5573   3.177   4.408   8.494
   42CHL1  H23A 5574   3.086   4.472   8.482
   42CHL1  H23B 5575   3.266   4.473   8.486
   42CHL1   C24 5576   3.175   4.306   8.378
   42CHL1  H24A 5577   3.273   4.254   8.373
   42CHL1  H24B 5578   3.097   4.230   8.399
   42CHL1   C25 5579   3.143   4.369   8.240
   42CHL1   H25 5580   3.045   4.420   8.249
   42CHL1   C26 5581   3.248   4.474   8.199
   42CHL1  H26A 5582   3.224   4.514   8.098
   42CHL1  H26B 5583   3.250   4.558   8.271
   42CHL1  H26C 5584   3.349   4.427   8.195
   42CHL1   C27 5585   3.130   4.260   8.132
   42CHL1  H27A 5586   3.227   4.207   8.119
   42CHL1  H27B 5587   3.052   4.187   8.160
   42CHL1  H27C 5588   3.102   4.306   8.035
   43CHL1    C3 5589   4.575   4.508   9.734
   43CHL1    H3 5590   4.647   4.591   9.749
   43CHL1    O3 5591   4.558   4.437   9.855
   43CHL1   H3' 5592   4.470   4.399   9.846
   43CHL1    C4 5593   4.439   4.564   9.691
   43CHL1   H4A 5594   4.362   4.484   9.694
   43CHL1   H4B 5595   4.409   4.640   9.766
   43CHL1    C5 5596   4.443   4.624   9.551
   43CHL1    C6 5597   4.408   4.751   9.529
   43CHL1    H6 5598   4.374   4.814   9.613
   43CHL1    C7 5599   4.411   4.812   9.394
   43CHL1   H7A 5600   4.326   4.883   9.379
   43CHL1   H7B 5601   4.507   4.869   9.388
   43CHL1    C8 5602   4.415   4.711   9.277
   43CHL1    H8 5603   4.315   4.664   9.272
   43CHL1   C14 5604   4.448   4.781   9.146
   43CHL1   H14 5605   4.550   4.823   9.157
   43CHL1   C15 5606   4.359   4.899   9.109
   43CHL1  H15A 5607   4.254   4.868   9.126
   43CHL1  H15B 5608   4.379   4.991   9.167
   43CHL1   C16 5609   4.381   4.918   8.958
   43CHL1  H16A 5610   4.280   4.919   8.912
   43CHL1  H16B 5611   4.432   5.014   8.935
   43CHL1   C17 5612   4.464   4.796   8.909
   43CHL1   H17 5613   4.570   4.831   8.910
   43CHL1   C13 5614   4.450   4.692   9.023
   43CHL1   C18 5615   4.314   4.621   9.005
   43CHL1  H18A 5616   4.319   4.546   8.923
   43CHL1  H18B 5617   4.287   4.565   9.098
   43CHL1  H18C 5618   4.232   4.693   8.983
   43CHL1   C12 5619   4.564   4.590   9.045
   43CHL1  H12A 5620   4.567   4.518   8.960
   43CHL1  H12B 5621   4.661   4.645   9.048
   43CHL1   C11 5622   4.545   4.513   9.178
   43CHL1  H11A 5623   4.458   4.446   9.164
   43CHL1  H11B 5624   4.634   4.449   9.196
   43CHL1    C9 5625   4.522   4.605   9.303
   43CHL1    H9 5626   4.616   4.662   9.316
   43CHL1   C10 5627   4.498   4.532   9.440
   43CHL1   C19 5628   4.393   4.420   9.419
   43CHL1  H19A 5629   4.429   4.344   9.346
   43CHL1  H19B 5630   4.370   4.366   9.513
   43CHL1  H19C 5631   4.298   4.463   9.380
   43CHL1    C1 5632   4.634   4.474   9.489
   43CHL1   H1A 5633   4.671   4.399   9.415
   43CHL1   H1B 5634   4.708   4.557   9.491
   43CHL1    C2 5635   4.631   4.410   9.629
   43CHL1   H2A 5636   4.733   4.380   9.659
   43CHL1   H2B 5637   4.567   4.319   9.625
   43CHL1   C20 5638   4.432   4.754   8.763
   43CHL1   H20 5639   4.358   4.671   8.763
   43CHL1   C21 5640   4.562   4.702   8.699
   43CHL1  H21A 5641   4.608   4.623   8.763
   43CHL1  H21B 5642   4.635   4.785   8.688
   43CHL1  H21C 5643   4.542   4.659   8.599
   43CHL1   C22 5644   4.366   4.866   8.676
   43CHL1  H22A 5645   4.265   4.888   8.715
   43CHL1  H22B 5646   4.427   4.959   8.682
   43CHL1   C23 5647   4.346   4.830   8.527
   43CHL1  H23A 5648   4.444   4.834   8.476
   43CHL1  H23B 5649   4.308   4.726   8.521
   43CHL1   C24 5650   4.245   4.922   8.455
   43CHL1  H24A 5651   4.145   4.907   8.502
   43CHL1  H24B 5652   4.272   5.029   8.470
   43CHL1   C25 5653   4.234   4.893   8.304
   43CHL1   H25 5654   4.230   4.782   8.292
   43CHL1   C26 5655   4.105   4.950   8.244
   43CHL1  H26A 5656   4.016   4.923   8.306
   43CHL1  H26B 5657   4.112   5.061   8.237
   43CHL1  H26C 5658   4.089   4.911   8.141
   43CHL1   C27 5659   4.355   4.948   8.227
   43CHL1  H27A 5660   4.345   4.926   8.119
   43CHL1  H27B 5661   4.360   5.059   8.240
   43CHL1  H27C 5662   4.449   4.904   8.265
   44CHL1    C3 5663   5.169   4.004   9.745
   44CHL1    H3 5664   5.225   4.099   9.733
   44CHL1    O3 5665   5.161   3.972   9.883
   44CHL1   H3' 5666   5.109   4.043   9.922
   44CHL1    C4 5667   5.027   4.020   9.689
   44CHL1   H4A 5668   4.969   3.928   9.712
   44CHL1   H4B 5669   4.977   4.103   9.744
   44CHL1    C5 5670   5.028   4.045   9.539
   44CHL1    C6 5671   4.974   4.156   9.487
   44CHL1    H6 5672   4.925   4.229   9.553
   44CHL1    C7 5673   4.970   4.185   9.340
   44CHL1   H7A 5674   4.871   4.226   9.311
   44CHL1   H7B 5675   5.047   4.261   9.314
   44CHL1    C8 5676   4.997   4.058   9.254
   44CHL1    H8 5677   4.906   3.994   9.261
   44CHL1   C14 5678   5.022   4.097   9.109
   44CHL1   H14 5679   5.118   4.153   9.109
   44CHL1   C15 5680   4.920   4.189   9.041
   44CHL1  H15A 5681   4.817   4.152   9.062
   44CHL1  H15B 5682   4.927   4.295   9.075
   44CHL1   C16 5683   4.952   4.173   8.892
   44CHL1  H16A 5684   4.858   4.149   8.837
   44CHL1  H16B 5685   4.994   4.266   8.847
   44CHL1   C17 5686   5.052   4.054   8.878
   44CHL1   H17 5687   5.153   4.099   8.875
   44CHL1   C13 5688   5.042   3.980   9.013
   44CHL1   C18 5689   4.916   3.891   9.010
   44CHL1  H18A 5690   4.932   3.808   8.937
   44CHL1  H18B 5691   4.895   3.845   9.109
   44CHL1  H18C 5692   4.826   3.948   8.978
   44CHL1   C12 5693   5.166   3.902   9.062
   44CHL1  H12A 5694   5.179   3.809   9.003
   44CHL1  H12B 5695   5.256   3.966   9.049
   44CHL1   C11 5696   5.154   3.861   9.210
   44CHL1  H11A 5697   5.076   3.782   9.214
   44CHL1  H11B 5698   5.250   3.815   9.243
   44CHL1    C9 5699   5.117   3.978   9.306
   44CHL1    H9 5700   5.203   4.049   9.302
   44CHL1   C10 5701   5.103   3.938   9.456
   44CHL1   C19 5702   5.026   3.804   9.463
   44CHL1  H19A 5703   4.996   3.777   9.566
   44CHL1  H19B 5704   4.936   3.808   9.399
   44CHL1  H19C 5705   5.091   3.721   9.427
   44CHL1    C1 5706   5.245   3.919   9.519
   44CHL1   H1A 5707   5.295   3.833   9.469
   44CHL1   H1B 5708   5.306   4.009   9.499
   44CHL1    C2 5709   5.244   3.893   9.671
   44CHL1   H2A 5710   5.348   3.886   9.708
   44CHL1   H2B 5711   5.194   3.795   9.691
   44CHL1   C20 5712   5.031   3.978   8.745
   44CHL1   H20 5713   4.933   3.927   8.745
   44CHL1   C21 5714   5.141   3.872   8.726
   44CHL1  H21A 5715   5.241   3.920   8.727
   44CHL1  H21B 5716   5.130   3.818   8.630
   44CHL1  H21C 5717   5.135   3.794   8.806
   44CHL1   C22 5718   5.030   4.077   8.624
   44CHL1  H22A 5719   4.938   4.139   8.628
   44CHL1  H22B 5720   5.118   4.143   8.636
   44CHL1   C23 5721   5.041   4.016   8.483
   44CHL1  H23A 5722   5.035   4.099   8.409
   44CHL1  H23B 5723   5.141   3.970   8.471
   44CHL1   C24 5724   4.931   3.915   8.447
   44CHL1  H24A 5725   4.939   3.827   8.514
   44CHL1  H24B 5726   4.831   3.962   8.466
   44CHL1   C25 5727   4.935   3.866   8.301
   44CHL1   H25 5728   4.872   3.775   8.295
   44CHL1   C26 5729   4.878   3.970   8.203
   44CHL1  H26A 5730   4.772   3.993   8.230
   44CHL1  H26B 5731   4.937   4.064   8.207
   44CHL1  H26C 5732   4.880   3.931   8.099
   44CHL1   C27 5733   5.077   3.828   8.258
   44CHL1  H27A 5734   5.138   3.919   8.239
   44CHL1  H27B 5735   5.127   3.769   8.338
   44CHL1  H27C 5736   5.074   3.767   8.165
   45CHL1    C3 5737   2.265   4.349   9.796
   45CHL1    H3 5738   2.335   4.434   9.782
   45CHL1    O3 5739   2.245   4.329   9.936
   45CHL1   H3' 5740   2.195   4.406   9.964
   45CHL1    C4 5741   2.132   4.378   9.726
   45CHL1   H4A 5742   2.061   4.295   9.747
   45CHL1   H4B 5743   2.087   4.469   9.771
   45CHL1    C5 5744   2.154   4.394   9.576
   45CHL1    C6 5745   2.122   4.508   9.516
   45CHL1    H6 5746   2.077   4.589   9.576
   45CHL1    C7 5747   2.138   4.533   9.370
   45CHL1   H7A 5748   2.034   4.553   9.334
   45CHL1   H7B 5749   2.197   4.625   9.355
   45CHL1    C8 5750   2.197   4.421   9.280
   45CHL1    H8 5751   2.277   4.471   9.222
   45CHL1   C14 5752   2.099   4.374   9.172
   45CHL1   H14 5753   2.013   4.327   9.224
   45CHL1   C15 5754   2.046   4.494   9.090
   45CHL1  H15A 5755   1.943   4.523   9.119
   45CHL1  H15B 5756   2.115   4.580   9.106
   45CHL1   C16 5757   2.056   4.459   8.943
   45CHL1  H16A 5758   1.962   4.411   8.910
   45CHL1  H16B 5759   2.076   4.549   8.880
   45CHL1   C17 5760   2.171   4.356   8.937
   45CHL1   H17 5761   2.265   4.413   8.946
   45CHL1   C13 5762   2.159   4.276   9.068
   45CHL1   C18 5763   2.048   4.169   9.053
   45CHL1  H18A 5764   1.953   4.215   9.016
   45CHL1  H18B 5765   2.075   4.087   8.983
   45CHL1  H18C 5766   2.026   4.123   9.152
   45CHL1   C12 5767   2.296   4.222   9.117
   45CHL1  H12A 5768   2.328   4.134   9.057
   45CHL1  H12B 5769   2.373   4.300   9.103
   45CHL1   C11 5770   2.294   4.185   9.266
   45CHL1  H11A 5771   2.215   4.108   9.276
   45CHL1  H11B 5772   2.390   4.139   9.295
   45CHL1    C9 5773   2.268   4.308   9.357
   45CHL1    H9 5774   2.369   4.352   9.372
   45CHL1   C10 5775   2.221   4.276   9.503
   45CHL1   C19 5776   2.119   4.159   9.502
   45CHL1  H19A 5777   2.168   4.065   9.471
   45CHL1  H19B 5778   2.076   4.139   9.602
   45CHL1  H19C 5779   2.036   4.182   9.432
   45CHL1    C1 5780   2.348   4.236   9.585
   45CHL1   H1A 5781   2.390   4.141   9.545
   45CHL1   H1B 5782   2.426   4.314   9.571
   45CHL1    C2 5783   2.326   4.223   9.737
   45CHL1   H2A 5784   2.424   4.207   9.788
   45CHL1   H2B 5785   2.260   4.136   9.757
   45CHL1   C20 5786   2.175   4.285   8.800
   45CHL1   H20 5787   2.072   4.250   8.775
   45CHL1   C21 5788   2.268   4.162   8.798
   45CHL1  H21A 5789   2.372   4.193   8.821
   45CHL1  H21B 5790   2.266   4.112   8.699
   45CHL1  H21C 5791   2.237   4.085   8.872
   45CHL1   C22 5792   2.219   4.388   8.692
   45CHL1  H22A 5793   2.148   4.474   8.689
   45CHL1  H22B 5794   2.318   4.430   8.721
   45CHL1   C23 5795   2.231   4.331   8.551
   45CHL1  H23A 5796   2.310   4.253   8.556
   45CHL1  H23B 5797   2.136   4.282   8.521
   45CHL1   C24 5798   2.272   4.436   8.447
   45CHL1  H24A 5799   2.191   4.510   8.434
   45CHL1  H24B 5800   2.363   4.490   8.481
   45CHL1   C25 5801   2.303   4.371   8.311
   45CHL1   H25 5802   2.213   4.313   8.281
   45CHL1   C26 5803   2.333   4.473   8.200
   45CHL1  H26A 5804   2.367   4.420   8.108
   45CHL1  H26B 5805   2.242   4.530   8.175
   45CHL1  H26C 5806   2.413   4.543   8.232
   45CHL1   C27 5807   2.420   4.275   8.322
   45CHL1  H27A 5808   2.444   4.234   8.222
   45CHL1  H27B 5809   2.510   4.326   8.362
   45CHL1  H27C 5810   2.396   4.188   8.388
   46CHL1    C3 5811   4.442   2.319   9.755
   46CHL1    H3 5812   4.472   2.212   9.752
   46CHL1    O3 5813   4.435   2.362   9.890
   46CHL1   H3' 5814   4.432   2.458   9.883
   46CHL1    C4 5815   4.547   2.404   9.683
   46CHL1   H4A 5816   4.526   2.512   9.702
   46CHL1   H4B 5817   4.646   2.384   9.730
   46CHL1    C5 5818   4.551   2.381   9.533
   46CHL1    C6 5819   4.665   2.349   9.470
   46CHL1    H6 5820   4.759   2.342   9.527
   46CHL1    C7 5821   4.676   2.333   9.321
   46CHL1   H7A 5822   4.766   2.386   9.283
   46CHL1   H7B 5823   4.687   2.226   9.296
   46CHL1    C8 5824   4.551   2.388   9.246
   46CHL1    H8 5825   4.556   2.499   9.249
   46CHL1   C14 5826   4.553   2.342   9.102
   46CHL1   H14 5827   4.550   2.231   9.105
   46CHL1   C15 5828   4.676   2.377   9.017
   46CHL1  H15A 5829   4.705   2.483   9.034
   46CHL1  H15B 5830   4.762   2.311   9.041
   46CHL1   C16 5831   4.628   2.357   8.873
   46CHL1  H16A 5832   4.649   2.449   8.814
   46CHL1  H16B 5833   4.680   2.272   8.824
   46CHL1   C17 5834   4.474   2.331   8.881
   46CHL1   H17 5835   4.461   2.220   8.885
   46CHL1   C13 5836   4.432   2.384   9.019
   46CHL1   C18 5837   4.421   2.539   9.011
   46CHL1  H18A 5838   4.414   2.584   9.112
   46CHL1  H18B 5839   4.510   2.583   8.960
   46CHL1  H18C 5840   4.331   2.569   8.954
   46CHL1   C12 5841   4.308   2.320   9.085
   46CHL1  H12A 5842   4.216   2.345   9.029
   46CHL1  H12B 5843   4.320   2.209   9.082
   46CHL1   C11 5844   4.294   2.366   9.231
   46CHL1  H11A 5845   4.268   2.474   9.229
   46CHL1  H11B 5846   4.208   2.312   9.276
   46CHL1    C9 5847   4.423   2.341   9.316
   46CHL1    H9 5848   4.432   2.231   9.321
   46CHL1   C10 5849   4.414   2.391   9.463
   46CHL1   C19 5850   4.370   2.540   9.464
   46CHL1  H19A 5851   4.266   2.550   9.425
   46CHL1  H19B 5852   4.371   2.582   9.566
   46CHL1  H19C 5853   4.437   2.602   9.401
   46CHL1    C1 5854   4.312   2.303   9.540
   46CHL1   H1A 5855   4.211   2.316   9.495
   46CHL1   H1B 5856   4.339   2.196   9.527
   46CHL1    C2 5857   4.304   2.333   9.691
   46CHL1   H2A 5858   4.232   2.264   9.739
   46CHL1   H2B 5859   4.266   2.437   9.706
   46CHL1   C20 5860   4.402   2.380   8.755
   46CHL1   H20 5861   4.423   2.488   8.741
   46CHL1   C21 5862   4.249   2.361   8.765
   46CHL1  H21A 5863   4.203   2.381   8.665
   46CHL1  H21B 5864   4.204   2.433   8.837
   46CHL1  H21C 5865   4.224   2.258   8.795
   46CHL1   C22 5866   4.451   2.306   8.628
   46CHL1  H22A 5867   4.549   2.256   8.645
   46CHL1  H22B 5868   4.379   2.225   8.604
   46CHL1   C23 5869   4.467   2.398   8.507
   46CHL1  H23A 5870   4.374   2.458   8.494
   46CHL1  H23B 5871   4.551   2.468   8.525
   46CHL1   C24 5872   4.494   2.315   8.381
   46CHL1  H24A 5873   4.576   2.244   8.403
   46CHL1  H24B 5874   4.404   2.255   8.357
   46CHL1   C25 5875   4.533   2.397   8.257
   46CHL1   H25 5876   4.625   2.454   8.280
   46CHL1   C26 5877   4.563   2.300   8.142
   46CHL1  H26A 5878   4.474   2.237   8.121
   46CHL1  H26B 5879   4.588   2.357   8.051
   46CHL1  H26C 5880   4.648   2.233   8.168
   46CHL1   C27 5881   4.424   2.497   8.215
   46CHL1  H27A 5882   4.330   2.444   8.189
   46CHL1  H27B 5883   4.402   2.570   8.297
   46CHL1  H27C 5884   4.457   2.555   8.126
   47CHL1    C3 5885   4.122   5.264   9.767
   47CHL1    H3 5886   4.032   5.200   9.772
   47CHL1    O3 5887   4.178   5.273   9.897
   47CHL1   H3' 5888   4.127   5.341   9.942
   47CHL1    C4 5889   4.224   5.205   9.669
   47CHL1   H4A 5890   4.315   5.268   9.671
   47CHL1   H4B 5891   4.254   5.105   9.708
   47CHL1    C5 5892   4.166   5.198   9.529
   47CHL1    C6 5893   4.153   5.080   9.466
   47CHL1    H6 5894   4.186   4.988   9.515
   47CHL1    C7 5895   4.102   5.068   9.325
   47CHL1   H7A 5896   4.163   4.994   9.270
   47CHL1   H7B 5897   3.997   5.031   9.326
   47CHL1    C8 5898   4.106   5.203   9.249
   47CHL1    H8 5899   4.212   5.230   9.232
   47CHL1   C14 5900   4.039   5.188   9.113
   47CHL1   H14 5901   3.934   5.157   9.132
   47CHL1   C15 5902   4.098   5.081   9.022
   47CHL1  H15A 5903   4.208   5.097   9.024
   47CHL1  H15B 5904   4.074   4.977   9.054
   47CHL1   C16 5905   4.047   5.113   8.882
   47CHL1  H16A 5906   4.133   5.115   8.812
   47CHL1  H16B 5907   3.973   5.038   8.846
   47CHL1   C17 5908   3.980   5.253   8.892
   47CHL1   H17 5909   3.871   5.236   8.906
   47CHL1   C13 5910   4.032   5.314   9.027
   47CHL1   C18 5911   4.171   5.375   9.000
   47CHL1  H18A 5912   4.238   5.305   8.944
   47CHL1  H18B 5913   4.162   5.469   8.942
   47CHL1  H18C 5914   4.221   5.401   9.096
   47CHL1   C12 5915   3.945   5.410   9.110
   47CHL1  H12A 5916   3.929   5.508   9.059
   47CHL1  H12B 5917   3.847   5.360   9.126
   47CHL1   C11 5918   4.005   5.440   9.251
   47CHL1  H11A 5919   4.097   5.500   9.234
   47CHL1  H11B 5920   3.935   5.503   9.309
   47CHL1    C9 5921   4.039   5.311   9.334
   47CHL1    H9 5922   3.939   5.269   9.361
   47CHL1   C10 5923   4.116   5.331   9.468
   47CHL1   C19 5924   4.240   5.418   9.440
   47CHL1  H19A 5925   4.303   5.433   9.531
   47CHL1  H19B 5926   4.304   5.374   9.361
   47CHL1  H19C 5927   4.210   5.519   9.405
   47CHL1    C1 5928   4.026   5.399   9.575
   47CHL1   H1A 5929   3.999   5.501   9.541
   47CHL1   H1B 5930   3.932   5.339   9.582
   47CHL1    C2 5931   4.083   5.404   9.719
   47CHL1   H2A 5932   4.008   5.450   9.787
   47CHL1   H2B 5933   4.175   5.466   9.720
   47CHL1   C20 5934   3.998   5.330   8.759
   47CHL1   H20 5935   4.104   5.363   8.750
   47CHL1   C21 5936   3.909   5.452   8.768
   47CHL1  H21A 5937   3.941   5.505   8.860
   47CHL1  H21B 5938   3.802   5.425   8.775
   47CHL1  H21C 5939   3.925   5.520   8.681
   47CHL1   C22 5940   3.966   5.249   8.630
   47CHL1  H22A 5941   4.046   5.174   8.614
   47CHL1  H22B 5942   3.870   5.196   8.643
   47CHL1   C23 5943   3.957   5.338   8.503
   47CHL1  H23A 5944   3.862   5.395   8.506
   47CHL1  H23B 5945   4.041   5.410   8.503
   47CHL1   C24 5946   3.961   5.257   8.372
   47CHL1  H24A 5947   4.065   5.220   8.358
   47CHL1  H24B 5948   3.894   5.169   8.383
   47CHL1   C25 5949   3.918   5.337   8.247
   47CHL1   H25 5950   3.820   5.385   8.270
   47CHL1   C26 5951   4.016   5.448   8.211
   47CHL1  H26A 5952   4.036   5.512   8.300
   47CHL1  H26B 5953   3.974   5.512   8.130
   47CHL1  H26C 5954   4.112   5.405   8.176
   47CHL1   C27 5955   3.898   5.245   8.126
   47CHL1  H27A 5956   3.829   5.161   8.151
   47CHL1  H27B 5957   3.854   5.302   8.041
   47CHL1  H27C 5958   3.995   5.202   8.093
   48CHL1    C3 5959   5.329   4.546   9.727
   48CHL1    H3 5960   5.309   4.437   9.722
   48CHL1    O3 5961   5.352   4.583   9.862
   48CHL1   H3' 5962   5.274   4.552   9.908
   48CHL1    C4 5963   5.453   4.579   9.641
   48CHL1   H4A 5964   5.475   4.687   9.654
   48CHL1   H4B 5965   5.539   4.524   9.683
   48CHL1    C5 5966   5.431   4.548   9.494
   48CHL1    C6 5967   5.516   4.470   9.424
   48CHL1    H6 5968   5.605   4.429   9.474
   48CHL1    C7 5969   5.501   4.440   9.278
   48CHL1   H7A 5970   5.598   4.457   9.225
   48CHL1   H7B 5971   5.476   4.332   9.265
   48CHL1    C8 5972   5.392   4.524   9.207
   48CHL1    H8 5973   5.436   4.624   9.186
   48CHL1   C14 5974   5.349   4.459   9.075
   48CHL1   H14 5975   5.306   4.360   9.101
   48CHL1   C15 5976   5.459   4.430   8.971
   48CHL1  H15A 5977   5.526   4.517   8.964
   48CHL1  H15B 5978   5.519   4.340   8.996
   48CHL1   C16 5979   5.380   4.414   8.840
   48CHL1  H16A 5980   5.421   4.485   8.765
   48CHL1  H16B 5981   5.386   4.311   8.799
   48CHL1   C17 5982   5.232   4.457   8.867
   48CHL1   H17 5983   5.176   4.364   8.888
   48CHL1   C13 5984   5.240   4.534   8.999
   48CHL1   C18 5985   5.290   4.674   8.962
   48CHL1  H18A 5986   5.211   4.731   8.908
   48CHL1  H18B 5987   5.315   4.731   9.055
   48CHL1  H18C 5988   5.381   4.673   8.899
   48CHL1   C12 5989   5.115   4.537   9.088
   48CHL1  H12A 5990   5.030   4.590   9.041
   48CHL1  H12B 5991   5.085   4.431   9.107
   48CHL1   C11 5992   5.146   4.603   9.223
   48CHL1  H11A 5993   5.162   4.712   9.204
   48CHL1  H11B 5994   5.055   4.595   9.287
   48CHL1    C9 5995   5.269   4.541   9.297
   48CHL1    H9 5996   5.237   4.437   9.320
   48CHL1   C10 5997   5.302   4.606   9.433
   48CHL1   C19 5998   5.333   4.756   9.412
   48CHL1  H19A 5999   5.251   4.807   9.357
   48CHL1  H19B 6000   5.342   4.808   9.510
   48CHL1  H19C 6001   5.427   4.772   9.355
   48CHL1    C1 6002   5.180   4.588   9.528
   48CHL1   H1A 6003   5.096   4.652   9.492
   48CHL1   H1B 6004   5.147   4.482   9.522
   48CHL1    C2 6005   5.207   4.622   9.675
   48CHL1   H2A 6006   5.117   4.596   9.736
   48CHL1   H2B 6007   5.225   4.731   9.686
   48CHL1   C20 6008   5.170   4.526   8.743
   48CHL1   H20 6009   5.231   4.615   8.717
   48CHL1   C21 6010   5.025   4.574   8.770
   48CHL1  H21A 6011   4.962   4.489   8.804
   48CHL1  H21B 6012   4.981   4.618   8.679
   48CHL1  H21C 6013   5.023   4.654   8.847
   48CHL1   C22 6014   5.174   4.433   8.620
   48CHL1  H22A 6015   5.277   4.395   8.603
   48CHL1  H22B 6016   5.108   4.346   8.642
   48CHL1   C23 6017   5.127   4.496   8.488
   48CHL1  H23A 6018   5.022   4.529   8.498
   48CHL1  H23B 6019   5.189   4.585   8.464
   48CHL1   C24 6020   5.137   4.394   8.374
   48CHL1  H24A 6021   5.244   4.368   8.358
   48CHL1  H24B 6022   5.086   4.300   8.405
   48CHL1   C25 6023   5.075   4.441   8.241
   48CHL1   H25 6024   5.112   4.544   8.221
   48CHL1   C26 6025   5.121   4.350   8.126
   48CHL1  H26A 6026   5.085   4.246   8.142
   48CHL1  H26B 6027   5.080   4.387   8.029
   48CHL1  H26C 6028   5.232   4.349   8.119
   48CHL1   C27 6029   4.922   4.445   8.251
   48CHL1  H27A 6030   4.882   4.344   8.271
   48CHL1  H27B 6031   4.889   4.513   8.332
   48CHL1  H27C 6032   4.878   4.482   8.155
   49CHL1    C3 6033   4.081   1.594   9.730
   49CHL1    H3 6034   3.976   1.576   9.698
   49CHL1    O3 6035   4.083   1.600   9.872
   49CHL1   H3' 6036   4.094   1.692   9.895
   49CHL1    C4 6037   4.170   1.477   9.684
   49CHL1   H4A 6038   4.271   1.491   9.727
   49CHL1   H4B 6039   4.130   1.384   9.730
   49CHL1    C5 6040   4.177   1.468   9.533
   49CHL1    C6 6041   4.143   1.355   9.469
   49CHL1    H6 6042   4.114   1.267   9.528
   49CHL1    C7 6043   4.151   1.338   9.320
   49CHL1   H7A 6044   4.202   1.243   9.294
   49CHL1   H7B 6045   4.048   1.333   9.278
   49CHL1    C8 6046   4.229   1.450   9.249
   49CHL1    H8 6047   4.337   1.429   9.264
   49CHL1   C14 6048   4.194   1.451   9.101
   49CHL1   H14 6049   4.089   1.485   9.095
   49CHL1   C15 6050   4.196   1.317   9.025
   49CHL1  H15A 6051   4.289   1.261   9.048
   49CHL1  H15B 6052   4.109   1.252   9.051
   49CHL1   C16 6053   4.194   1.360   8.878
   49CHL1  H16A 6054   4.275   1.306   8.824
   49CHL1  H16B 6055   4.097   1.337   8.829
   49CHL1   C17 6056   4.219   1.515   8.876
   49CHL1   H17 6057   4.119   1.562   8.868
   49CHL1   C13 6058   4.273   1.549   9.016
   49CHL1   C18 6059   4.424   1.514   9.019
   49CHL1  H18A 6060   4.443   1.414   8.977
   49CHL1  H18B 6061   4.483   1.589   8.962
   49CHL1  H18C 6062   4.461   1.516   9.124
   49CHL1   C12 6063   4.243   1.691   9.072
   49CHL1  H12A 6064   4.305   1.768   9.021
   49CHL1  H12B 6065   4.136   1.714   9.053
   49CHL1   C11 6066   4.270   1.700   9.224
   49CHL1  H11A 6067   4.380   1.690   9.238
   49CHL1  H11B 6068   4.240   1.800   9.260
   49CHL1    C9 6069   4.198   1.589   9.307
   49CHL1    H9 6070   4.089   1.605   9.289
   49CHL1   C10 6071   4.217   1.598   9.461
   49CHL1   C19 6072   4.367   1.621   9.490
   49CHL1  H19A 6073   4.429   1.541   9.442
   49CHL1  H19B 6074   4.401   1.719   9.451
   49CHL1  H19C 6075   4.388   1.621   9.599
   49CHL1    C1 6076   4.134   1.717   9.517
   49CHL1   H1A 6077   4.176   1.812   9.477
   49CHL1   H1B 6078   4.030   1.708   9.481
   49CHL1    C2 6079   4.131   1.726   9.671
   49CHL1   H2A 6080   4.064   1.809   9.702
   49CHL1   H2B 6081   4.233   1.747   9.710
   49CHL1   C20 6082   4.299   1.559   8.752
   49CHL1   H20 6083   4.399   1.512   8.754
   49CHL1   C21 6084   4.319   1.712   8.751
   49CHL1  H21A 6085   4.221   1.764   8.758
   49CHL1  H21B 6086   4.370   1.745   8.658
   49CHL1  H21C 6087   4.384   1.744   8.835
   49CHL1   C22 6088   4.230   1.510   8.622
   49CHL1  H22A 6089   4.233   1.399   8.618
   49CHL1  H22B 6090   4.123   1.542   8.621
   49CHL1   C23 6091   4.297   1.562   8.494
   49CHL1  H23A 6092   4.264   1.667   8.476
   49CHL1  H23B 6093   4.407   1.564   8.509
   49CHL1   C24 6094   4.266   1.476   8.371
   49CHL1  H24A 6095   4.306   1.374   8.388
   49CHL1  H24B 6096   4.156   1.467   8.357
   49CHL1   C25 6097   4.329   1.533   8.242
   49CHL1   H25 6098   4.431   1.570   8.266
   49CHL1   C26 6099   4.344   1.424   8.136
   49CHL1  H26A 6100   4.379   1.467   8.040
   49CHL1  H26B 6101   4.418   1.348   8.169
   49CHL1  H26C 6102   4.248   1.371   8.118
   49CHL1   C27 6103   4.249   1.653   8.190
   49CHL1  H27A 6104   4.297   1.692   8.097
   49CHL1  H27B 6105   4.145   1.623   8.167
   49CHL1  H27C 6106   4.248   1.735   8.264
   50CHL1    C3 6107   1.254   3.464   9.794
   50CHL1    H3 6108   1.358   3.495   9.770
   50CHL1    O3 6109   1.239   3.456   9.935
   50CHL1   H3' 6110   1.214   3.365   9.952
   50CHL1    C4 6111   1.155   3.570   9.741
   50CHL1   H4A 6112   1.055   3.548   9.784
   50CHL1   H4B 6113   1.187   3.668   9.782
   50CHL1    C5 6114   1.147   3.573   9.590
   50CHL1    C6 6115   1.167   3.686   9.521
   50CHL1    H6 6116   1.188   3.780   9.575
   50CHL1    C7 6117   1.154   3.696   9.372
   50CHL1   H7A 6118   1.101   3.789   9.343
   50CHL1   H7B 6119   1.256   3.701   9.326
   50CHL1    C8 6120   1.079   3.574   9.313
   50CHL1    H8 6121   0.972   3.584   9.342
   50CHL1   C14 6122   1.091   3.572   9.162
   50CHL1   H14 6123   1.201   3.571   9.143
   50CHL1   C15 6124   1.034   3.692   9.083
   50CHL1  H15A 6125   0.935   3.719   9.126
   50CHL1  H15B 6126   1.100   3.781   9.089
   50CHL1   C16 6127   1.018   3.639   8.939
   50CHL1  H16A 6128   0.911   3.643   8.908
   50CHL1  H16B 6129   1.078   3.696   8.865
   50CHL1   C17 6130   1.066   3.491   8.948
   50CHL1   H17 6131   1.177   3.498   8.946
   50CHL1   C13 6132   1.033   3.449   9.093
   50CHL1   C18 6133   0.880   3.446   9.122
   50CHL1  H18A 6134   0.824   3.527   9.071
   50CHL1  H18B 6135   0.836   3.349   9.090
   50CHL1  H18C 6136   0.857   3.454   9.231
   50CHL1   C12 6137   1.102   3.323   9.145
   50CHL1  H12A 6138   1.057   3.234   9.097
   50CHL1  H12B 6139   1.210   3.327   9.118
   50CHL1   C11 6140   1.087   3.315   9.297
   50CHL1  H11A 6141   0.980   3.294   9.319
   50CHL1  H11B 6142   1.147   3.229   9.334
   50CHL1    C9 6143   1.136   3.443   9.371
   50CHL1    H9 6144   1.245   3.449   9.350
   50CHL1   C10 6145   1.121   3.436   9.525
   50CHL1   C19 6146   0.978   3.390   9.559
   50CHL1  H19A 6147   0.904   3.452   9.504
   50CHL1  H19B 6148   0.963   3.283   9.530
   50CHL1  H19C 6149   0.956   3.397   9.668
   50CHL1    C1 6150   1.223   3.333   9.581
   50CHL1   H1A 6151   1.199   3.231   9.542
   50CHL1   H1B 6152   1.325   3.359   9.544
   50CHL1    C2 6153   1.227   3.326   9.734
   50CHL1   H2A 6154   1.307   3.255   9.765
   50CHL1   H2B 6155   1.130   3.287   9.772
   50CHL1   C20 6156   1.038   3.401   8.828
   50CHL1   H20 6157   1.033   3.468   8.739
   50CHL1   C21 6158   0.903   3.330   8.839
   50CHL1  H21A 6159   0.871   3.289   8.741
   50CHL1  H21B 6160   0.827   3.403   8.874
   50CHL1  H21C 6161   0.908   3.246   8.912
   50CHL1   C22 6162   1.150   3.299   8.798
   50CHL1  H22A 6163   1.246   3.353   8.785
   50CHL1  H22B 6164   1.161   3.228   8.882
   50CHL1   C23 6165   1.121   3.221   8.669
   50CHL1  H23A 6166   1.037   3.150   8.686
   50CHL1  H23B 6167   1.089   3.293   8.591
   50CHL1   C24 6168   1.242   3.143   8.616
   50CHL1  H24A 6169   1.320   3.215   8.585
   50CHL1  H24B 6170   1.284   3.081   8.698
   50CHL1   C25 6171   1.207   3.050   8.498
   50CHL1   H25 6172   1.142   2.969   8.537
   50CHL1   C26 6173   1.128   3.122   8.388
   50CHL1  H26A 6174   1.183   3.212   8.354
   50CHL1  H26B 6175   1.112   3.054   8.301
   50CHL1  H26C 6176   1.028   3.153   8.424
   50CHL1   C27 6177   1.335   2.989   8.440
   50CHL1  H27A 6178   1.311   2.925   8.352
   50CHL1  H27B 6179   1.405   3.068   8.407
   50CHL1  H27C 6180   1.385   2.926   8.517
   51CHL1    C3 6181   2.104   5.771   9.720
   51CHL1    H3 6182   2.017   5.839   9.720
   51CHL1    O3 6183   2.140   5.742   9.854
   51CHL1   H3' 6184   2.188   5.819   9.886
   51CHL1    C4 6185   2.066   5.640   9.647
   51CHL1   H4A 6186   2.146   5.565   9.667
   51CHL1   H4B 6187   1.975   5.600   9.696
   51CHL1    C5 6188   2.048   5.657   9.497
   51CHL1    C6 6189   1.937   5.618   9.433
   51CHL1    H6 6190   1.856   5.570   9.490
   51CHL1    C7 6191   1.917   5.626   9.283
   51CHL1   H7A 6192   1.874   5.531   9.245
   51CHL1   H7B 6193   1.846   5.707   9.259
   51CHL1    C8 6194   2.050   5.650   9.208
   51CHL1    H8 6195   2.107   5.555   9.213
   51CHL1   C14 6196   2.030   5.690   9.061
   51CHL1   H14 6197   1.982   5.791   9.064
   51CHL1   C15 6198   1.935   5.607   8.974
   51CHL1  H15A 6199   1.940   5.500   9.001
   51CHL1  H15B 6200   1.830   5.642   8.985
   51CHL1   C16 6201   1.986   5.625   8.830
   51CHL1  H16A 6202   2.019   5.526   8.792
   51CHL1  H16B 6203   1.907   5.665   8.762
   51CHL1   C17 6204   2.108   5.721   8.837
   51CHL1   H17 6205   2.068   5.824   8.826
   51CHL1   C13 6206   2.160   5.709   8.982
   51CHL1   C18 6207   2.251   5.584   8.992
   51CHL1  H18A 6208   2.346   5.600   8.936
   51CHL1  H18B 6209   2.279   5.561   9.097
   51CHL1  H18C 6210   2.200   5.494   8.950
   51CHL1   C12 6211   2.225   5.834   9.043
   51CHL1  H12A 6212   2.324   5.855   8.995
   51CHL1  H12B 6213   2.160   5.922   9.024
   51CHL1   C11 6214   2.247   5.817   9.194
   51CHL1  H11A 6215   2.336   5.752   9.205
   51CHL1  H11B 6216   2.268   5.918   9.235
   51CHL1    C9 6217   2.128   5.762   9.278
   51CHL1    H9 6218   2.056   5.846   9.283
   51CHL1   C10 6219   2.164   5.728   9.426
   51CHL1   C19 6220   2.287   5.633   9.429
   51CHL1  H19A 6221   2.308   5.596   9.531
   51CHL1  H19B 6222   2.269   5.545   9.363
   51CHL1  H19C 6223   2.379   5.685   9.394
   51CHL1    C1 6224   2.196   5.860   9.502
   51CHL1   H1A 6225   2.285   5.908   9.457
   51CHL1   H1B 6226   2.110   5.929   9.491
   51CHL1    C2 6227   2.223   5.840   9.653
   51CHL1   H2A 6228   2.242   5.938   9.701
   51CHL1   H2B 6229   2.314   5.778   9.666
   51CHL1   C20 6230   2.207   5.698   8.721
   51CHL1   H20 6231   2.253   5.597   8.731
   51CHL1   C21 6232   2.319   5.804   8.727
   51CHL1  H21A 6233   2.379   5.802   8.634
   51CHL1  H21B 6234   2.388   5.783   8.811
   51CHL1  H21C 6235   2.275   5.905   8.739
   51CHL1   C22 6236   2.138   5.700   8.582
   51CHL1  H22A 6237   2.053   5.628   8.581
   51CHL1  H22B 6238   2.095   5.802   8.566
   51CHL1   C23 6239   2.226   5.663   8.460
   51CHL1  H23A 6240   2.161   5.671   8.370
   51CHL1  H23B 6241   2.308   5.736   8.447
   51CHL1   C24 6242   2.285   5.521   8.467
   51CHL1  H24A 6243   2.361   5.519   8.548
   51CHL1  H24B 6244   2.205   5.449   8.493
   51CHL1   C25 6245   2.353   5.474   8.336
   51CHL1   H25 6246   2.427   5.551   8.307
   51CHL1   C26 6247   2.426   5.341   8.360
   51CHL1  H26A 6248   2.354   5.262   8.387
   51CHL1  H26B 6249   2.480   5.310   8.267
   51CHL1  H26C 6250   2.500   5.351   8.442
   51CHL1   C27 6251   2.253   5.456   8.221
   51CHL1  H27A 6252   2.306   5.420   8.130
   51CHL1  H27B 6253   2.176   5.381   8.248
   51CHL1  H27C 6254   2.202   5.552   8.196
   52CHL1    C3 6255   5.940   2.420   9.742
   52CHL1    H3 6256   5.914   2.316   9.711
   52CHL1    O3 6257   5.924   2.431   9.883
   52CHL1   H3' 6258   5.988   2.371   9.922
   52CHL1    C4 6259   6.085   2.450   9.702
   52CHL1   H4A 6260   6.113   2.549   9.744
   52CHL1   H4B 6261   6.151   2.376   9.752
   52CHL1    C5 6262   6.103   2.450   9.551
   52CHL1    C6 6263   6.190   2.366   9.492
   52CHL1    H6 6264   6.252   2.299   9.554
   52CHL1    C7 6265   6.215   2.363   9.344
   52CHL1   H7A 6266   6.325   2.360   9.326
   52CHL1   H7B 6267   6.171   2.271   9.301
   52CHL1    C8 6268   6.160   2.486   9.269
   52CHL1    H8 6269   6.226   2.573   9.288
   52CHL1   C14 6270   6.157   2.461   9.119
   52CHL1   H14 6271   6.078   2.385   9.103
   52CHL1   C15 6272   6.281   2.399   9.050
   52CHL1  H15A 6273   6.375   2.445   9.088
   52CHL1  H15B 6274   6.285   2.289   9.066
   52CHL1   C16 6275   6.261   2.433   8.902
   52CHL1  H16A 6276   6.349   2.490   8.866
   52CHL1  H16B 6277   6.250   2.342   8.840
   52CHL1   C17 6278   6.133   2.522   8.893
   52CHL1   H17 6279   6.047   2.453   8.879
   52CHL1   C13 6280   6.117   2.582   9.035
   52CHL1   C18 6281   6.215   2.701   9.048
   52CHL1  H18A 6282   6.178   2.788   8.990
   52CHL1  H18B 6283   6.226   2.734   9.154
   52CHL1  H18C 6284   6.316   2.674   9.009
   52CHL1   C12 6285   5.976   2.619   9.082
   52CHL1  H12A 6286   5.937   2.708   9.027
   52CHL1  H12B 6287   5.912   2.531   9.061
   52CHL1   C11 6288   5.968   2.646   9.234
   52CHL1  H11A 6289   6.028   2.737   9.254
   52CHL1  H11B 6290   5.863   2.668   9.263
   52CHL1    C9 6291   6.020   2.526   9.318
   52CHL1    H9 6292   5.955   2.440   9.294
   52CHL1   C10 6293   6.011   2.545   9.473
   52CHL1   C19 6294   6.049   2.691   9.507
   52CHL1  H19A 6295   5.973   2.762   9.467
   52CHL1  H19B 6296   6.053   2.709   9.617
   52CHL1  H19C 6297   6.148   2.717   9.464
   52CHL1    C1 6298   5.864   2.516   9.519
   52CHL1   H1A 6299   5.797   2.592   9.473
   52CHL1   H1B 6300   5.834   2.417   9.481
   52CHL1    C2 6301   5.844   2.517   9.672
   52CHL1   H2A 6302   5.739   2.491   9.695
   52CHL1   H2B 6303   5.862   2.620   9.710
   52CHL1   C20 6304   6.135   2.616   8.771
   52CHL1   H20 6305   6.220   2.687   8.780
   52CHL1   C21 6306   6.003   2.696   8.762
   52CHL1  H21A 6307   5.996   2.752   8.666
   52CHL1  H21B 6308   5.997   2.771   8.843
   52CHL1  H21C 6309   5.916   2.627   8.768
   52CHL1   C22 6310   6.157   2.536   8.640
   52CHL1  H22A 6311   6.244   2.467   8.650
   52CHL1  H22B 6312   6.067   2.473   8.622
   52CHL1   C23 6313   6.185   2.621   8.515
   52CHL1  H23A 6314   6.108   2.699   8.502
   52CHL1  H23B 6315   6.283   2.671   8.526
   52CHL1   C24 6316   6.184   2.532   8.390
   52CHL1  H24A 6317   6.266   2.458   8.394
   52CHL1  H24B 6318   6.088   2.476   8.389
   52CHL1   C25 6319   6.195   2.611   8.259
   52CHL1   H25 6320   6.124   2.696   8.265
   52CHL1   C26 6321   6.336   2.665   8.237
   52CHL1  H26A 6322   6.408   2.582   8.221
   52CHL1  H26B 6323   6.340   2.732   8.148
   52CHL1  H26C 6324   6.370   2.724   8.325
   52CHL1   C27 6325   6.150   2.522   8.141
   52CHL1  H27A 6326   6.110   2.585   8.059
   52CHL1  H27B 6327   6.235   2.462   8.103
   52CHL1  H27C 6328   6.069   2.453   8.173
   53CHL1    C3 6329   6.250   3.184   9.753
   53CHL1    H3 6330   6.314   3.095   9.740
   53CHL1    O3 6331   6.222   3.200   9.892
   53CHL1   H3' 6332   6.197   3.112   9.921
   53CHL1    C4 6333   6.324   3.308   9.700
   53CHL1   H4A 6334   6.262   3.398   9.719
   53CHL1   H4B 6335   6.417   3.321   9.759
   53CHL1    C5 6336   6.352   3.294   9.551
   53CHL1    C6 6337   6.477   3.301   9.502
   53CHL1    H6 6338   6.561   3.322   9.570
   53CHL1    C7 6339   6.510   3.290   9.356
   53CHL1   H7A 6340   6.578   3.372   9.325
   53CHL1   H7B 6341   6.563   3.194   9.338
   53CHL1    C8 6342   6.386   3.294   9.263
   53CHL1    H8 6343   6.357   3.401   9.251
   53CHL1   C14 6344   6.420   3.234   9.128
   53CHL1   H14 6345   6.442   3.127   9.148
   53CHL1   C15 6346   6.546   3.285   9.056
   53CHL1  H15A 6347   6.553   3.396   9.064
   53CHL1  H15B 6348   6.636   3.238   9.100
   53CHL1   C16 6349   6.526   3.244   8.909
   53CHL1  H16A 6350   6.529   3.334   8.845
   53CHL1  H16B 6351   6.606   3.174   8.875
   53CHL1   C17 6352   6.387   3.173   8.904
   53CHL1   H17 6353   6.408   3.069   8.936
   53CHL1   C13 6354   6.308   3.234   9.024
   53CHL1   C18 6355   6.264   3.380   8.996
   53CHL1  H18A 6356   6.176   3.379   8.928
   53CHL1  H18B 6357   6.232   3.432   9.088
   53CHL1  H18C 6358   6.346   3.439   8.949
   53CHL1   C12 6359   6.192   3.151   9.081
   53CHL1  H12A 6360   6.104   3.156   9.013
   53CHL1  H12B 6361   6.224   3.045   9.089
   53CHL1   C11 6362   6.150   3.202   9.220
   53CHL1  H11A 6363   6.101   3.301   9.206
   53CHL1  H11B 6364   6.073   3.133   9.261
   53CHL1    C9 6365   6.269   3.216   9.321
   53CHL1    H9 6366   6.307   3.112   9.333
   53CHL1   C10 6367   6.229   3.263   9.464
   53CHL1   C19 6368   6.151   3.396   9.455
   53CHL1  H19A 6369   6.060   3.385   9.391
   53CHL1  H19B 6370   6.117   3.430   9.555
   53CHL1  H19C 6371   6.214   3.476   9.410
   53CHL1    C1 6372   6.143   3.150   9.528
   53CHL1   H1A 6373   6.046   3.143   9.476
   53CHL1   H1B 6374   6.197   3.053   9.513
   53CHL1    C2 6375   6.117   3.165   9.679
   53CHL1   H2A 6376   6.065   3.075   9.716
   53CHL1   H2B 6377   6.052   3.253   9.696
   53CHL1   C20 6378   6.329   3.158   8.762
   53CHL1   H20 6379   6.413   3.118   8.701
   53CHL1   C21 6380   6.290   3.292   8.697
   53CHL1  H21A 6381   6.190   3.323   8.734
   53CHL1  H21B 6382   6.282   3.282   8.587
   53CHL1  H21C 6383   6.364   3.372   8.718
   53CHL1   C22 6384   6.216   3.052   8.751
   53CHL1  H22A 6385   6.257   2.953   8.782
   53CHL1  H22B 6386   6.135   3.078   8.822
   53CHL1   C23 6387   6.152   3.039   8.612
   53CHL1  H23A 6388   6.078   2.957   8.614
   53CHL1  H23B 6389   6.095   3.133   8.592
   53CHL1   C24 6390   6.251   3.014   8.497
   53CHL1  H24A 6391   6.324   3.097   8.492
   53CHL1  H24B 6392   6.309   2.921   8.519
   53CHL1   C25 6393   6.187   3.001   8.357
   53CHL1   H25 6394   6.139   2.902   8.350
   53CHL1   C26 6395   6.081   3.108   8.330
   53CHL1  H26A 6396   6.124   3.209   8.348
   53CHL1  H26B 6397   6.047   3.103   8.224
   53CHL1  H26C 6398   5.992   3.095   8.395
   53CHL1   C27 6399   6.297   3.011   8.251
   53CHL1  H27A 6400   6.379   2.941   8.274
   53CHL1  H27B 6401   6.256   2.987   8.150
   53CHL1  H27C 6402   6.339   3.114   8.248
   54CHL1    C3 6403   6.579   4.105   9.738
   54CHL1    H3 6404   6.538   4.005   9.710
   54CHL1    O3 6405   6.584   4.115   9.879
   54CHL1   H3' 6406   6.513   4.058   9.910
   54CHL1    C4 6407   6.720   4.119   9.678
   54CHL1   H4A 6408   6.762   4.216   9.712
   54CHL1   H4B 6409   6.783   4.039   9.721
   54CHL1    C5 6410   6.718   4.114   9.526
   54CHL1    C6 6411   6.788   4.022   9.458
   54CHL1    H6 6412   6.852   3.951   9.512
   54CHL1    C7 6413   6.793   4.012   9.308
   54CHL1   H7A 6414   6.897   3.996   9.274
   54CHL1   H7B 6415   6.733   3.925   9.275
   54CHL1    C8 6416   6.736   4.139   9.238
   54CHL1    H8 6417   6.814   4.218   9.246
   54CHL1   C14 6418   6.707   4.110   9.091
   54CHL1   H14 6419   6.623   4.037   9.090
   54CHL1   C15 6420   6.817   4.044   9.007
   54CHL1  H15A 6421   6.916   4.084   9.036
   54CHL1  H15B 6422   6.818   3.934   9.021
   54CHL1   C16 6423   6.785   4.084   8.862
   54CHL1  H16A 6424   6.869   4.144   8.823
   54CHL1  H16B 6425   6.771   3.995   8.797
   54CHL1   C17 6426   6.655   4.170   8.868
   54CHL1   H17 6427   6.571   4.098   8.865
   54CHL1   C13 6428   6.657   4.230   9.011
   54CHL1   C18 6429   6.760   4.346   9.015
   54CHL1  H18A 6430   6.722   4.434   8.959
   54CHL1  H18B 6431   6.780   4.380   9.119
   54CHL1  H18C 6432   6.858   4.316   8.971
   54CHL1   C12 6433   6.523   4.273   9.073
   54CHL1  H12A 6434   6.485   4.365   9.024
   54CHL1  H12B 6435   6.448   4.192   9.059
   54CHL1   C11 6436   6.538   4.302   9.225
   54CHL1  H11A 6437   6.596   4.396   9.234
   54CHL1  H11B 6438   6.437   4.323   9.268
   54CHL1    C9 6439   6.608   4.188   9.305
   54CHL1    H9 6440   6.540   4.100   9.298
   54CHL1   C10 6441   6.624   4.216   9.458
   54CHL1   C19 6442   6.676   4.361   9.476
   54CHL1  H19A 6443   6.709   4.382   9.580
   54CHL1  H19B 6444   6.760   4.383   9.407
   54CHL1  H19C 6445   6.595   4.434   9.454
   54CHL1    C1 6446   6.486   4.203   9.528
   54CHL1   H1A 6447   6.416   4.280   9.487
   54CHL1   H1B 6448   6.446   4.102   9.505
   54CHL1    C2 6449   6.487   4.213   9.682
   54CHL1   H2A 6450   6.384   4.200   9.721
   54CHL1   H2B 6451   6.524   4.314   9.712
   54CHL1   C20 6452   6.637   4.266   8.748
   54CHL1   H20 6453   6.694   4.360   8.767
   54CHL1   C21 6454   6.488   4.304   8.733
   54CHL1  H21A 6455   6.452   4.364   8.819
   54CHL1  H21B 6456   6.425   4.213   8.723
   54CHL1  H21C 6457   6.474   4.366   8.641
   54CHL1   C22 6458   6.693   4.215   8.612
   54CHL1  H22A 6459   6.680   4.296   8.538
   54CHL1  H22B 6460   6.802   4.198   8.623
   54CHL1   C23 6461   6.626   4.089   8.554
   54CHL1  H23A 6462   6.632   4.005   8.627
   54CHL1  H23B 6463   6.518   4.110   8.537
   54CHL1   C24 6464   6.687   4.045   8.419
   54CHL1  H24A 6465   6.628   3.961   8.378
   54CHL1  H24B 6466   6.679   4.130   8.348
   54CHL1   C25 6467   6.835   4.000   8.424
   54CHL1   H25 6468   6.894   4.082   8.472
   54CHL1   C26 6469   6.854   3.873   8.508
   54CHL1  H26A 6470   6.815   3.886   8.611
   54CHL1  H26B 6471   6.801   3.787   8.460
   54CHL1  H26C 6472   6.962   3.848   8.515
   54CHL1   C27 6473   6.892   3.980   8.283
   54CHL1  H27A 6474   6.999   3.950   8.288
   54CHL1  H27B 6475   6.836   3.900   8.230
   54CHL1  H27C 6476   6.884   4.073   8.224
   55CHL1    C3 6477   1.000   2.715   9.735
   55CHL1    H3 6478   1.101   2.674   9.712
   55CHL1    O3 6479   0.983   2.721   9.875
   55CHL1   H3' 6480   0.889   2.739   9.887
   55CHL1    C4 6481   0.987   2.856   9.675
   55CHL1   H4A 6482   0.888   2.898   9.705
   55CHL1   H4B 6483   1.064   2.921   9.721
   55CHL1    C5 6484   0.996   2.857   9.523
   55CHL1    C6 6485   1.075   2.942   9.456
   55CHL1    H6 6486   1.136   3.015   9.511
   55CHL1    C7 6487   1.085   2.946   9.306
   55CHL1   H7A 6488   1.076   3.049   9.266
   55CHL1   H7B 6489   1.186   2.909   9.278
   55CHL1    C8 6490   0.983   2.859   9.229
   55CHL1    H8 6491   0.889   2.917   9.222
   55CHL1   C14 6492   1.034   2.827   9.089
   55CHL1   H14 6493   1.124   2.762   9.103
   55CHL1   C15 6494   1.082   2.944   9.001
   55CHL1  H15A 6495   1.006   3.025   9.004
   55CHL1  H15B 6496   1.180   2.984   9.033
   55CHL1   C16 6497   1.087   2.882   8.860
   55CHL1  H16A 6498   1.032   2.948   8.790
   55CHL1  H16B 6499   1.191   2.870   8.825
   55CHL1   C17 6500   1.017   2.742   8.869
   55CHL1   H17 6501   1.098   2.667   8.881
   55CHL1   C13 6502   0.940   2.744   9.003
   55CHL1   C18 6503   0.807   2.821   8.983
   55CHL1  H18A 6504   0.823   2.920   8.935
   55CHL1  H18B 6505   0.739   2.763   8.917
   55CHL1  H18C 6506   0.753   2.837   9.079
   55CHL1   C12 6507   0.920   2.609   9.076
   55CHL1  H12A 6508   0.846   2.545   9.022
   55CHL1  H12B 6509   1.017   2.555   9.077
   55CHL1   C11 6510   0.871   2.628   9.221
   55CHL1  H11A 6511   0.766   2.664   9.215
   55CHL1  H11B 6512   0.870   2.529   9.270
   55CHL1    C9 6513   0.958   2.728   9.304
   55CHL1    H9 6514   1.058   2.679   9.311
   55CHL1   C10 6515   0.912   2.752   9.450
   55CHL1   C19 6516   0.774   2.822   9.448
   55CHL1  H19A 6517   0.722   2.814   9.546
   55CHL1  H19B 6518   0.782   2.930   9.421
   55CHL1  H19C 6519   0.711   2.777   9.369
   55CHL1    C1 6520   0.906   2.615   9.523
   55CHL1   H1A 6521   0.820   2.556   9.484
   55CHL1   H1B 6522   1.000   2.560   9.500
   55CHL1    C2 6523   0.893   2.623   9.676
   55CHL1   H2A 6524   0.901   2.521   9.720
   55CHL1   H2B 6525   0.792   2.662   9.702
   55CHL1   C20 6526   0.940   2.707   8.741
   55CHL1   H20 6527   0.860   2.783   8.726
   55CHL1   C21 6528   0.876   2.568   8.753
   55CHL1  H21A 6529   0.792   2.568   8.825
   55CHL1  H21B 6530   0.951   2.492   8.783
   55CHL1  H21C 6531   0.834   2.537   8.654
   55CHL1   C22 6532   1.028   2.710   8.613
   55CHL1  H22A 6533   1.111   2.783   8.622
   55CHL1  H22B 6534   1.074   2.610   8.600
   55CHL1   C23 6535   0.947   2.745   8.486
   55CHL1  H23A 6536   0.859   2.677   8.482
   55CHL1  H23B 6537   0.909   2.849   8.496
   55CHL1   C24 6538   1.029   2.733   8.357
   55CHL1  H24A 6539   1.102   2.816   8.355
   55CHL1  H24B 6540   1.086   2.638   8.358
   55CHL1   C25 6541   0.949   2.736   8.224
   55CHL1   H25 6542   0.923   2.632   8.198
   55CHL1   C26 6543   0.818   2.815   8.234
   55CHL1  H26A 6544   0.838   2.919   8.269
   55CHL1  H26B 6545   0.770   2.820   8.134
   55CHL1  H26C 6546   0.747   2.766   8.303
   55CHL1   C27 6547   1.036   2.793   8.110
   55CHL1  H27A 6548   0.980   2.793   8.014
   55CHL1  H27B 6549   1.066   2.898   8.133
   55CHL1  H27C 6550   1.128   2.732   8.097
   56CHL1    C3 6551   4.520   0.933   9.740
   56CHL1    H3 6552   4.505   1.042   9.727
   56CHL1    O3 6553   4.499   0.899   9.876
   56CHL1   H3' 6554   4.561   0.954   9.924
   56CHL1    C4 6555   4.420   0.858   9.649
   56CHL1   H4A 6556   4.424   0.750   9.676
   56CHL1   H4B 6557   4.318   0.893   9.676
   56CHL1    C5 6558   4.448   0.875   9.500
   56CHL1    C6 6559   4.355   0.912   9.412
   56CHL1    H6 6560   4.252   0.930   9.446
   56CHL1    C7 6561   4.379   0.921   9.263
   56CHL1   H7A 6562   4.301   0.864   9.208
   56CHL1   H7B 6563   4.373   1.027   9.231
   56CHL1    C8 6564   4.513   0.861   9.216
   56CHL1    H8 6565   4.502   0.751   9.213
   56CHL1   C14 6566   4.549   0.911   9.077
   56CHL1   H14 6567   4.563   1.021   9.086
   56CHL1   C15 6568   4.444   0.893   8.967
   56CHL1  H15A 6569   4.402   0.790   8.973
   56CHL1  H15B 6570   4.362   0.967   8.976
   56CHL1   C16 6571   4.522   0.910   8.837
   56CHL1  H16A 6572   4.505   0.821   8.772
   56CHL1  H16B 6573   4.490   1.001   8.783
   56CHL1   C17 6574   4.673   0.919   8.878
   56CHL1   H17 6575   4.693   1.027   8.893
   56CHL1   C13 6576   4.680   0.857   9.019
   56CHL1   C18 6577   4.676   0.703   9.007
   56CHL1  H18A 6578   4.662   0.654   9.106
   56CHL1  H18B 6579   4.593   0.672   8.941
   56CHL1  H18C 6580   4.771   0.665   8.964
   56CHL1   C12 6581   4.792   0.904   9.112
   56CHL1  H12A 6582   4.890   0.863   9.080
   56CHL1  H12B 6583   4.797   1.015   9.106
   56CHL1   C11 6584   4.765   0.862   9.258
   56CHL1  H11A 6585   4.777   0.752   9.261
   56CHL1  H11B 6586   4.843   0.908   9.323
   56CHL1    C9 6587   4.624   0.899   9.313
   56CHL1    H9 6588   4.623   1.010   9.317
   56CHL1   C10 6589   4.593   0.849   9.457
   56CHL1   C19 6590   4.605   0.694   9.463
   56CHL1  H19A 6591   4.595   0.656   9.566
   56CHL1  H19B 6592   4.527   0.646   9.400
   56CHL1  H19C 6593   4.704   0.659   9.425
   56CHL1    C1 6594   4.690   0.923   9.555
   56CHL1   H1A 6595   4.795   0.896   9.531
   56CHL1   H1B 6596   4.679   1.032   9.537
   56CHL1    C2 6597   4.664   0.896   9.703
   56CHL1   H2A 6598   4.735   0.955   9.765
   56CHL1   H2B 6599   4.680   0.789   9.726
   56CHL1   C20 6600   4.765   0.871   8.764
   56CHL1   H20 6601   4.735   0.767   8.738
   56CHL1   C21 6602   4.914   0.865   8.805
   56CHL1  H21A 6603   4.931   0.786   8.881
   56CHL1  H21B 6604   4.948   0.963   8.846
   56CHL1  H21C 6605   4.976   0.841   8.716
   56CHL1   C22 6606   4.746   0.960   8.639
   56CHL1  H22A 6607   4.661   1.030   8.655
   56CHL1  H22B 6608   4.836   1.023   8.623
   56CHL1   C23 6609   4.714   0.887   8.508
   56CHL1  H23A 6610   4.810   0.851   8.463
   56CHL1  H23B 6611   4.650   0.799   8.528
   56CHL1   C24 6612   4.640   0.978   8.408
   56CHL1  H24A 6613   4.538   0.997   8.448
   56CHL1  H24B 6614   4.692   1.076   8.399
   56CHL1   C25 6615   4.629   0.916   8.268
   56CHL1   H25 6616   4.609   0.807   8.282
   56CHL1   C26 6617   4.511   0.971   8.186
   56CHL1  H26A 6618   4.487   0.902   8.103
   56CHL1  H26B 6619   4.421   0.983   8.251
   56CHL1  H26C 6620   4.535   1.070   8.142
   56CHL1   C27 6621   4.759   0.934   8.189
   56CHL1  H27A 6622   4.782   1.042   8.178
   56CHL1  H27B 6623   4.845   0.886   8.242
   56CHL1  H27C 6624   4.749   0.889   8.088
   57CHL1    C3 6625   0.690   4.110   9.738
   57CHL1    H3 6626   0.622   4.024   9.718
   57CHL1    O3 6627   0.711   4.122   9.878
   57CHL1   H3' 6628   0.729   4.031   9.905
   57CHL1    C4 6629   0.825   4.087   9.668
   57CHL1   H4A 6630   0.893   4.171   9.695
   57CHL1   H4B 6631   0.870   3.994   9.711
   57CHL1    C5 6632   0.810   4.079   9.518
   57CHL1    C6 6633   0.849   3.970   9.450
   57CHL1    H6 6634   0.896   3.886   9.505
   57CHL1    C7 6635   0.838   3.954   9.302
   57CHL1   H7A 6636   0.933   3.915   9.259
   57CHL1   H7B 6637   0.758   3.881   9.279
   57CHL1    C8 6638   0.805   4.087   9.229
   57CHL1    H8 6639   0.899   4.147   9.223
   57CHL1   C14 6640   0.753   4.058   9.089
   57CHL1   H14 6641   0.655   4.008   9.105
   57CHL1   C15 6642   0.833   3.960   9.002
   57CHL1  H15A 6643   0.942   3.978   9.012
   57CHL1  H15B 6644   0.809   3.855   9.030
   57CHL1   C16 6645   0.786   3.989   8.860
   57CHL1  H16A 6646   0.873   4.019   8.797
   57CHL1  H16B 6647   0.736   3.901   8.815
   57CHL1   C17 6648   0.685   4.108   8.871
   57CHL1   H17 6649   0.587   4.061   8.894
   57CHL1   C13 6650   0.723   4.180   9.003
   57CHL1   C18 6651   0.850   4.265   8.979
   57CHL1  H18A 6652   0.931   4.205   8.931
   57CHL1  H18B 6653   0.827   4.350   8.912
   57CHL1  H18C 6654   0.889   4.306   9.074
   57CHL1   C12 6655   0.612   4.259   9.076
   57CHL1  H12A 6656   0.589   4.354   9.024
   57CHL1  H12B 6657   0.520   4.197   9.079
   57CHL1   C11 6658   0.652   4.292   9.222
   57CHL1  H11A 6659   0.734   4.367   9.217
   57CHL1  H11B 6660   0.565   4.340   9.272
   57CHL1    C9 6661   0.698   4.168   9.304
   57CHL1    H9 6662   0.610   4.101   9.309
   57CHL1   C10 6663   0.737   4.198   9.452
   57CHL1   C19 6664   0.831   4.320   9.455
   57CHL1  H19A 6665   0.778   4.412   9.422
   57CHL1  H19B 6666   0.868   4.341   9.558
   57CHL1  H19C 6667   0.920   4.304   9.390
   57CHL1    C1 6668   0.606   4.228   9.531
   57CHL1   H1A 6669   0.561   4.323   9.494
   57CHL1   H1B 6670   0.533   4.147   9.512
   57CHL1    C2 6671   0.624   4.238   9.684
   57CHL1   H2A 6672   0.524   4.251   9.732
   57CHL1   H2B 6673   0.687   4.326   9.709
   57CHL1   C20 6674   0.667   4.185   8.739
   57CHL1   H20 6675   0.765   4.222   8.702
   57CHL1   C21 6676   0.574   4.306   8.759
   57CHL1  H21A 6677   0.479   4.275   8.809
   57CHL1  H21B 6678   0.548   4.352   8.662
   57CHL1  H21C 6679   0.623   4.385   8.821
   57CHL1   C22 6680   0.603   4.095   8.630
   57CHL1  H22A 6681   0.529   4.028   8.679
   57CHL1  H22B 6682   0.545   4.159   8.560
   57CHL1   C23 6683   0.698   4.011   8.543
   57CHL1  H23A 6684   0.758   4.079   8.480
   57CHL1  H23B 6685   0.769   3.952   8.605
   57CHL1   C24 6686   0.618   3.913   8.456
   57CHL1  H24A 6687   0.554   3.850   8.522
   57CHL1  H24B 6688   0.552   3.971   8.389
   57CHL1   C25 6689   0.701   3.814   8.373
   57CHL1   H25 6690   0.751   3.743   8.442
   57CHL1   C26 6691   0.607   3.734   8.281
   57CHL1  H26A 6692   0.542   3.803   8.223
   57CHL1  H26B 6693   0.664   3.672   8.210
   57CHL1  H26C 6694   0.541   3.668   8.342
   57CHL1   C27 6695   0.813   3.884   8.293
   57CHL1  H27A 6696   0.771   3.970   8.236
   57CHL1  H27B 6697   0.891   3.923   8.362
   57CHL1  H27C 6698   0.861   3.813   8.223
   58CHL1    C3 6699   1.952   1.293   9.742
   58CHL1    H3 6700   2.058   1.318   9.719
   58CHL1    O3 6701   1.922   1.335   9.874
   58CHL1   H3' 6702   2.000   1.311   9.925
   58CHL1    C4 6703   1.861   1.366   9.641
   58CHL1   H4A 6704   1.755   1.351   9.673
   58CHL1   H4B 6705   1.880   1.475   9.650
   58CHL1    C5 6706   1.880   1.315   9.499
   58CHL1    C6 6707   1.913   1.396   9.398
   58CHL1    H6 6708   1.926   1.504   9.416
   58CHL1    C7 6709   1.929   1.348   9.256
   58CHL1   H7A 6710   1.878   1.419   9.186
   58CHL1   H7B 6711   2.037   1.347   9.230
   58CHL1    C8 6712   1.870   1.206   9.233
   58CHL1    H8 6713   1.760   1.219   9.232
   58CHL1   C14 6714   1.917   1.146   9.101
   58CHL1   H14 6715   2.026   1.126   9.112
   58CHL1   C15 6716   1.902   1.233   8.976
   58CHL1  H15A 6717   1.809   1.292   8.986
   58CHL1  H15B 6718   1.988   1.303   8.964
   58CHL1   C16 6719   1.890   1.133   8.860
   58CHL1  H16A 6720   1.792   1.148   8.810
   58CHL1  H16B 6721   1.971   1.150   8.785
   58CHL1   C17 6722   1.901   0.991   8.922
   58CHL1   H17 6723   2.009   0.968   8.927
   58CHL1   C13 6724   1.853   1.012   9.067
   58CHL1   C18 6725   1.700   1.024   9.065
   58CHL1  H18A 6726   1.663   1.091   8.985
   58CHL1  H18B 6727   1.659   0.922   9.050
   58CHL1  H18C 6728   1.659   1.059   9.162
   58CHL1   C12 6729   1.893   0.909   9.171
   58CHL1  H12A 6730   1.834   0.816   9.159
   58CHL1  H12B 6731   1.999   0.884   9.150
   58CHL1   C11 6732   1.871   0.960   9.315
   58CHL1  H11A 6733   1.763   0.945   9.333
   58CHL1  H11B 6734   1.924   0.894   9.386
   58CHL1    C9 6735   1.910   1.110   9.344
   58CHL1    H9 6736   2.021   1.111   9.345
   58CHL1   C10 6737   1.865   1.163   9.483
   58CHL1   C19 6738   1.713   1.134   9.501
   58CHL1  H19A 6739   1.692   1.025   9.502
   58CHL1  H19B 6740   1.674   1.173   9.598
   58CHL1  H19C 6741   1.653   1.180   9.420
   58CHL1    C1 6742   1.954   1.094   9.590
   58CHL1   H1A 6743   1.940   0.984   9.586
   58CHL1   H1B 6744   2.061   1.113   9.564
   58CHL1    C2 6745   1.931   1.142   9.734
   58CHL1   H2A 6746   2.000   1.088   9.802
   58CHL1   H2B 6747   1.827   1.118   9.764
   58CHL1   C20 6748   1.834   0.879   8.841
   58CHL1   H20 6749   1.725   0.879   8.862
   58CHL1   C21 6750   1.884   0.740   8.885
   58CHL1  H21A 6751   1.856   0.663   8.810
   58CHL1  H21B 6752   1.839   0.711   8.982
   58CHL1  H21C 6753   1.994   0.741   8.896
   58CHL1   C22 6754   1.845   0.894   8.686
   58CHL1  H22A 6755   1.773   0.823   8.640
   58CHL1  H22B 6756   1.811   0.996   8.656
   58CHL1   C23 6757   1.985   0.865   8.630
   58CHL1  H23A 6758   2.060   0.921   8.690
   58CHL1  H23B 6759   2.005   0.757   8.643
   58CHL1   C24 6760   2.003   0.897   8.480
   58CHL1  H24A 6761   2.107   0.869   8.451
   58CHL1  H24B 6762   1.935   0.836   8.418
   58CHL1   C25 6763   1.981   1.044   8.442
   58CHL1   H25 6764   1.879   1.075   8.475
   58CHL1   C26 6765   2.085   1.132   8.509
   58CHL1  H26A 6766   2.081   1.124   8.620
   58CHL1  H26B 6767   2.186   1.098   8.477
   58CHL1  H26C 6768   2.071   1.239   8.482
   58CHL1   C27 6769   1.986   1.060   8.289
   58CHL1  H27A 6770   1.909   0.996   8.240
   58CHL1  H27B 6771   1.969   1.166   8.260
   58CHL1  H27C 6772   2.086   1.029   8.252
   59CHL1    C3 6773   3.089   0.735   9.736
   59CHL1    H3 6774   3.147   0.829   9.738
   59CHL1    O3 6775   3.061   0.698   9.870
   59CHL1   H3' 6776   3.138   0.649   9.899
   59CHL1    C4 6777   2.959   0.756   9.657
   59CHL1   H4A 6778   2.900   0.662   9.660
   59CHL1   H4B 6779   2.899   0.833   9.709
   59CHL1    C5 6780   2.989   0.795   9.513
   59CHL1    C6 6781   2.941   0.909   9.460
   59CHL1    H6 6782   2.876   0.974   9.521
   59CHL1    C7 6783   2.963   0.951   9.318
   59CHL1   H7A 6784   2.868   0.990   9.274
   59CHL1   H7B 6785   3.038   1.032   9.313
   59CHL1    C8 6786   3.013   0.833   9.230
   59CHL1    H8 6787   2.928   0.763   9.217
   59CHL1   C14 6788   3.055   0.882   9.092
   59CHL1   H14 6789   3.140   0.952   9.107
   59CHL1   C15 6790   2.950   0.962   9.013
   59CHL1  H15A 6791   2.851   0.913   9.023
   59CHL1  H15B 6792   2.942   1.068   9.048
   59CHL1   C16 6793   2.998   0.953   8.868
   59CHL1  H16A 6794   2.914   0.916   8.806
   59CHL1  H16B 6795   3.033   1.051   8.829
   59CHL1   C17 6796   3.118   0.852   8.864
   59CHL1   H17 6797   3.210   0.914   8.872
   59CHL1   C13 6798   3.106   0.773   8.997
   59CHL1   C18 6799   3.000   0.664   8.977
   59CHL1  H18A 6800   2.906   0.706   8.934
   59CHL1  H18B 6801   3.038   0.585   8.908
   59CHL1  H18C 6802   2.974   0.613   9.072
   59CHL1   C12 6803   3.233   0.716   9.061
   59CHL1  H12A 6804   3.274   0.632   9.001
   59CHL1  H12B 6805   3.309   0.796   9.063
   59CHL1   C11 6806   3.206   0.662   9.204
   59CHL1  H11A 6807   3.148   0.568   9.191
   59CHL1  H11B 6808   3.302   0.634   9.251
   59CHL1    C9 6809   3.129   0.760   9.299
   59CHL1    H9 6810   3.202   0.840   9.323
   59CHL1   C10 6811   3.083   0.699   9.436
   59CHL1   C19 6812   3.008   0.567   9.408
   59CHL1  H19A 6813   2.931   0.580   9.329
   59CHL1  H19B 6814   3.078   0.488   9.374
   59CHL1  H19C 6815   2.958   0.526   9.499
   59CHL1    C1 6816   3.207   0.668   9.524
   59CHL1   H1A 6817   3.267   0.588   9.475
   59CHL1   H1B 6818   3.271   0.759   9.530
   59CHL1    C2 6819   3.174   0.626   9.669
   59CHL1   H2A 6820   3.268   0.609   9.725
   59CHL1   H2B 6821   3.117   0.531   9.668
   59CHL1   C20 6822   3.125   0.778   8.729
   59CHL1   H20 6823   3.040   0.706   8.722
   59CHL1   C21 6824   3.257   0.700   8.717
   59CHL1  H21A 6825   3.342   0.771   8.715
   59CHL1  H21B 6826   3.259   0.640   8.624
   59CHL1  H21C 6827   3.270   0.628   8.801
   59CHL1   C22 6828   3.110   0.874   8.606
   59CHL1  H22A 6829   3.016   0.932   8.614
   59CHL1  H22B 6830   3.195   0.946   8.607
   59CHL1   C23 6831   3.106   0.803   8.469
   59CHL1  H23A 6832   3.199   0.744   8.454
   59CHL1  H23B 6833   3.020   0.733   8.467
   59CHL1   C24 6834   3.094   0.904   8.353
   59CHL1  H24A 6835   3.007   0.970   8.372
   59CHL1  H24B 6836   3.186   0.967   8.353
   59CHL1   C25 6837   3.076   0.844   8.211
   59CHL1   H25 6838   3.106   0.923   8.139
   59CHL1   C26 6839   3.166   0.721   8.187
   59CHL1  H26A 6840   3.273   0.747   8.204
   59CHL1  H26B 6841   3.138   0.639   8.255
   59CHL1  H26C 6842   3.153   0.685   8.083
   59CHL1   C27 6843   2.930   0.809   8.181
   59CHL1  H27A 6844   2.865   0.898   8.195
   59CHL1  H27B 6845   2.919   0.774   8.076
   59CHL1  H27C 6846   2.894   0.728   8.248
   60CHL1    C3 6847   1.328   5.614   9.763
   60CHL1    H3 6848   1.330   5.504   9.778
   60CHL1    O3 6849   1.309   5.676   9.889
   60CHL1   H3' 6850   1.243   5.624   9.934
   60CHL1    C4 6851   1.463   5.656   9.702
   60CHL1   H4A 6852   1.465   5.767   9.694
   60CHL1   H4B 6853   1.543   5.628   9.774
   60CHL1    C5 6854   1.482   5.592   9.566
   60CHL1    C6 6855   1.584   5.508   9.544
   60CHL1    H6 6856   1.657   5.488   9.623
   60CHL1    C7 6857   1.608   5.439   9.413
   60CHL1   H7A 6858   1.715   5.439   9.386
   60CHL1   H7B 6859   1.577   5.333   9.423
   60CHL1    C8 6860   1.528   5.502   9.296
   60CHL1    H8 6861   1.578   5.596   9.266
   60CHL1   C14 6862   1.525   5.403   9.181
   60CHL1   H14 6863   1.468   5.316   9.221
   60CHL1   C15 6864   1.659   5.345   9.132
   60CHL1  H15A 6865   1.730   5.428   9.114
   60CHL1  H15B 6866   1.702   5.273   9.205
   60CHL1   C16 6867   1.623   5.278   8.999
   60CHL1  H16A 6868   1.694   5.314   8.921
   60CHL1  H16B 6869   1.630   5.167   9.005
   60CHL1   C17 6870   1.476   5.322   8.970
   60CHL1   H17 6871   1.413   5.245   9.019
   60CHL1   C13 6872   1.450   5.447   9.056
   60CHL1   C18 6873   1.516   5.571   8.993
   60CHL1  H18A 6874   1.520   5.656   9.066
   60CHL1  H18B 6875   1.619   5.550   8.959
   60CHL1  H18C 6876   1.456   5.605   8.906
   60CHL1   C12 6877   1.304   5.473   9.096
   60CHL1  H12A 6878   1.247   5.511   9.008
   60CHL1  H12B 6879   1.258   5.377   9.128
   60CHL1   C11 6880   1.295   5.573   9.214
   60CHL1  H11A 6881   1.329   5.672   9.177
   60CHL1  H11B 6882   1.189   5.583   9.245
   60CHL1    C9 6883   1.383   5.530   9.336
   60CHL1    H9 6884   1.342   5.432   9.367
   60CHL1   C10 6885   1.371   5.620   9.463
   60CHL1   C19 6886   1.382   5.768   9.419
   60CHL1  H19A 6887   1.379   5.837   9.507
   60CHL1  H19B 6888   1.477   5.786   9.365
   60CHL1  H19C 6889   1.298   5.797   9.353
   60CHL1    C1 6890   1.232   5.592   9.530
   60CHL1   H1A 6891   1.152   5.629   9.462
   60CHL1   H1B 6892   1.220   5.482   9.539
   60CHL1    C2 6893   1.213   5.653   9.670
   60CHL1   H2A 6894   1.117   5.620   9.713
   60CHL1   H2B 6895   1.211   5.764   9.661
   60CHL1   C20 6896   1.433   5.318   8.823
   60CHL1   H20 6897   1.335   5.370   8.814
   60CHL1   C21 6898   1.411   5.169   8.789
   60CHL1  H21A 6899   1.507   5.112   8.799
   60CHL1  H21B 6900   1.373   5.155   8.686
   60CHL1  H21C 6901   1.336   5.123   8.858
   60CHL1   C22 6902   1.531   5.384   8.723
   60CHL1  H22A 6903   1.552   5.489   8.751
   60CHL1  H22B 6904   1.628   5.329   8.725
   60CHL1   C23 6905   1.482   5.383   8.578
   60CHL1  H23A 6906   1.470   5.277   8.547
   60CHL1  H23B 6907   1.382   5.432   8.572
   60CHL1   C24 6908   1.580   5.454   8.483
   60CHL1  H24A 6909   1.589   5.560   8.514
   60CHL1  H24B 6910   1.680   5.407   8.492
   60CHL1   C25 6911   1.537   5.450   8.336
   60CHL1   H25 6912   1.438   5.501   8.328
   60CHL1   C26 6913   1.637   5.524   8.247
   60CHL1  H26A 6914   1.646   5.631   8.279
   60CHL1  H26B 6915   1.737   5.477   8.254
   60CHL1  H26C 6916   1.605   5.522   8.141
   60CHL1   C27 6917   1.520   5.306   8.283
   60CHL1  H27A 6918   1.457   5.243   8.349
   60CHL1  H27B 6919   1.468   5.311   8.185
   60CHL1  H27C 6920   1.618   5.257   8.270
   61CHL1    C3 6921   5.947   6.170   9.775
   61CHL1    H3 6922   6.051   6.177   9.736
   61CHL1    O3 6923   5.951   6.164   9.917
   61CHL1   H3' 6924   6.040   6.134   9.937
   61CHL1    C4 6925   5.868   6.295   9.733
   61CHL1   H4A 6926   5.765   6.288   9.775
   61CHL1   H4B 6927   5.916   6.383   9.779
   61CHL1    C5 6928   5.863   6.305   9.582
   61CHL1    C6 6929   5.917   6.410   9.520
   61CHL1    H6 6930   5.963   6.490   9.580
   61CHL1    C7 6931   5.916   6.430   9.372
   61CHL1   H7A 6932   5.881   6.532   9.348
   61CHL1   H7B 6933   6.021   6.419   9.336
   61CHL1    C8 6934   5.826   6.331   9.295
   61CHL1    H8 6935   5.722   6.368   9.296
   61CHL1   C14 6936   5.877   6.321   9.152
   61CHL1   H14 6937   5.974   6.267   9.162
   61CHL1   C15 6938   5.914   6.450   9.078
   61CHL1  H15A 6939   5.839   6.530   9.096
   61CHL1  H15B 6940   6.015   6.483   9.110
   61CHL1   C16 6941   5.916   6.409   8.930
   61CHL1  H16A 6942   5.837   6.463   8.874
   61CHL1  H16B 6943   6.015   6.431   8.883
   61CHL1   C17 6944   5.887   6.256   8.932
   61CHL1   H17 6945   5.984   6.208   8.957
   61CHL1   C13 6946   5.796   6.237   9.056
   61CHL1   C18 6947   5.657   6.303   9.033
   61CHL1  H18A 6948   5.594   6.294   9.124
   61CHL1  H18B 6949   5.665   6.411   9.008
   61CHL1  H18C 6950   5.604   6.254   8.949
   61CHL1   C12 6951   5.782   6.096   9.116
   61CHL1  H12A 6952   5.713   6.034   9.056
   61CHL1  H12B 6953   5.883   6.050   9.110
   61CHL1   C11 6954   5.742   6.096   9.266
   61CHL1  H11A 6955   5.636   6.129   9.273
   61CHL1  H11B 6956   5.747   5.991   9.304
   61CHL1    C9 6957   5.828   6.190   9.354
   61CHL1    H9 6958   5.933   6.156   9.341
   61CHL1   C10 6959   5.803   6.183   9.508
   61CHL1   C19 6960   5.650   6.176   9.533
   61CHL1  H19A 6961   5.597   6.258   9.481
   61CHL1  H19B 6962   5.610   6.080   9.496
   61CHL1  H19C 6963   5.626   6.181   9.641
   61CHL1    C1 6964   5.871   6.054   9.564
   61CHL1   H1A 6965   5.818   5.965   9.525
   61CHL1   H1B 6966   5.976   6.051   9.527
   61CHL1    C2 6967   5.879   6.045   9.718
   61CHL1   H2A 6968   5.936   5.954   9.747
   61CHL1   H2B 6969   5.777   6.036   9.760
   61CHL1   C20 6970   5.850   6.198   8.795
   61CHL1   H20 6971   5.740   6.206   8.779
   61CHL1   C21 6972   5.890   6.048   8.794
   61CHL1  H21A 6973   6.001   6.038   8.801
   61CHL1  H21B 6974   5.857   5.998   8.701
   61CHL1  H21C 6975   5.845   5.993   8.879
   61CHL1   C22 6976   5.919   6.275   8.680
   61CHL1  H22A 6977   5.866   6.372   8.666
   61CHL1  H22B 6978   6.025   6.298   8.707
   61CHL1   C23 6979   5.923   6.202   8.545
   61CHL1  H23A 6980   6.010   6.133   8.544
   61CHL1  H23B 6981   5.831   6.141   8.535
   61CHL1   C24 6982   5.930   6.297   8.425
   61CHL1  H24A 6983   5.835   6.354   8.415
   61CHL1  H24B 6984   6.011   6.372   8.442
   61CHL1   C25 6985   5.961   6.223   8.294
   61CHL1   H25 6986   6.067   6.192   8.306
   61CHL1   C26 6987   5.881   6.094   8.273
   61CHL1  H26A 6988   5.899   6.022   8.356
   61CHL1  H26B 6989   5.771   6.114   8.270
   61CHL1  H26C 6990   5.910   6.046   8.178
   61CHL1   C27 6991   5.949   6.313   8.170
   61CHL1  H27A 6992   5.978   6.256   8.079
   61CHL1  H27B 6993   5.844   6.348   8.158
   61CHL1  H27C 6994   6.016   6.401   8.179
   62CHL1    C3 6995   7.022   3.361   9.758
   62CHL1    H3 6996   7.113   3.425   9.764
   62CHL1    O3 6997   6.979   3.326   9.889
   62CHL1   H3' 6998   6.998   3.402   9.946
   62CHL1    C4 6999   6.910   3.438   9.685
   62CHL1   H4A 7000   6.817   3.378   9.693
   62CHL1   H4B 7001   6.891   3.532   9.741
   62CHL1    C5 7002   6.942   3.465   9.539
   62CHL1    C6 7003   6.945   3.590   9.490
   62CHL1    H6 7004   6.921   3.675   9.556
   62CHL1    C7 7005   6.973   3.624   9.346
   62CHL1   H7A 7006   6.903   3.702   9.311
   62CHL1   H7B 7007   7.076   3.666   9.337
   62CHL1    C8 7008   6.961   3.501   9.253
   62CHL1    H8 7009   6.852   3.478   9.246
   62CHL1   C14 7010   7.018   3.531   9.115
   62CHL1   H14 7011   7.127   3.548   9.129
   62CHL1   C15 7012   6.968   3.657   9.043
   62CHL1  H15A 7013   6.858   3.665   9.054
   62CHL1  H15B 7014   7.015   3.750   9.083
   62CHL1   C16 7015   7.004   3.633   8.895
   62CHL1  H16A 7016   6.914   3.650   8.833
   62CHL1  H16B 7017   7.084   3.702   8.862
   62CHL1   C17 7018   7.053   3.485   8.882
   62CHL1   H17 7019   7.164   3.488   8.886
   62CHL1   C13 7020   7.006   3.417   9.014
   62CHL1   C18 7021   6.857   3.380   8.997
   62CHL1  H18A 7022   6.812   3.350   9.094
   62CHL1  H18B 7023   6.798   3.465   8.956
   62CHL1  H18C 7024   6.846   3.293   8.928
   62CHL1   C12 7025   7.088   3.300   9.071
   62CHL1  H12A 7026   7.083   3.210   9.006
   62CHL1  H12B 7027   7.195   3.331   9.078
   62CHL1   C11 7028   7.040   3.259   9.212
   62CHL1  H11A 7029   6.940   3.213   9.199
   62CHL1  H11B 7030   7.108   3.181   9.253
   62CHL1    C9 7031   7.033   3.378   9.313
   62CHL1    H9 7032   7.138   3.411   9.327
   62CHL1   C10 7033   6.980   3.341   9.455
   62CHL1   C19 7034   6.854   3.252   9.439
   62CHL1  H19A 7035   6.882   3.152   9.397
   62CHL1  H19B 7036   6.803   3.233   9.535
   62CHL1  H19C 7037   6.783   3.300   9.369
   62CHL1    C1 7038   7.091   3.263   9.533
   62CHL1   H1A 7039   7.110   3.166   9.481
   62CHL1   H1B 7040   7.185   3.322   9.529
   62CHL1    C2 7041   7.058   3.233   9.681
   62CHL1   H2A 7042   7.144   3.183   9.729
   62CHL1   H2B 7043   6.972   3.163   9.685
   62CHL1   C20 7044   7.011   3.421   8.747
   62CHL1   H20 7045   6.901   3.408   8.746
   62CHL1   C21 7046   7.078   3.283   8.732
   62CHL1  H21A 7047   7.044   3.212   8.810
   62CHL1  H21B 7048   7.188   3.292   8.738
   62CHL1  H21C 7049   7.053   3.237   8.633
   62CHL1   C22 7050   7.045   3.506   8.622
   62CHL1  H22A 7051   7.023   3.613   8.640
   62CHL1  H22B 7052   7.154   3.497   8.601
   62CHL1   C23 7053   6.964   3.465   8.497
   62CHL1  H23A 7054   6.977   3.356   8.478
   62CHL1  H23B 7055   6.856   3.483   8.517
   62CHL1   C24 7056   7.005   3.542   8.370
   62CHL1  H24A 7057   7.001   3.651   8.392
   62CHL1  H24B 7058   7.109   3.515   8.343
   62CHL1   C25 7059   6.912   3.524   8.248
   62CHL1   H25 7060   6.812   3.561   8.278
   62CHL1   C26 7061   6.963   3.610   8.131
   62CHL1  H26A 7062   6.973   3.716   8.161
   62CHL1  H26B 7063   7.062   3.574   8.097
   62CHL1  H26C 7064   6.892   3.604   8.045
   62CHL1   C27 7065   6.899   3.378   8.205
   62CHL1  H27A 7066   6.819   3.370   8.128
   62CHL1  H27B 7067   6.994   3.341   8.162
   62CHL1  H27C 7068   6.871   3.314   8.291
   63CHL1    C3 7069   1.658   6.403   9.745
   63CHL1    H3 7070   1.599   6.309   9.738
   63CHL1    O3 7071   1.692   6.425   9.881
   63CHL1   H3' 7072   1.756   6.356   9.901
   63CHL1    C4 7073   1.786   6.390   9.660
   63CHL1   H4A 7074   1.844   6.484   9.672
   63CHL1   H4B 7075   1.848   6.308   9.702
   63CHL1    C5 7076   1.754   6.368   9.514
   63CHL1    C6 7077   1.800   6.261   9.446
   63CHL1    H6 7078   1.866   6.189   9.497
   63CHL1    C7 7079   1.774   6.235   9.300
   63CHL1   H7A 7080   1.868   6.209   9.247
   63CHL1   H7B 7081   1.705   6.148   9.290
   63CHL1    C8 7082   1.709   6.356   9.228
   63CHL1    H8 7083   1.790   6.429   9.208
   63CHL1   C14 7084   1.646   6.312   9.096
   63CHL1   H14 7085   1.564   6.241   9.121
   63CHL1   C15 7086   1.736   6.239   8.995
   63CHL1  H15A 7087   1.833   6.293   8.997
   63CHL1  H15B 7088   1.751   6.132   9.022
   63CHL1   C16 7089   1.666   6.258   8.859
   63CHL1  H16A 7090   1.737   6.305   8.788
   63CHL1  H16B 7091   1.631   6.161   8.816
   63CHL1   C17 7092   1.545   6.352   8.885
   63CHL1   H17 7093   1.458   6.286   8.907
   63CHL1   C13 7094   1.580   6.425   9.017
   63CHL1   C18 7095   1.683   6.536   8.984
   63CHL1  H18A 7096   1.729   6.580   9.075
   63CHL1  H18B 7097   1.765   6.500   8.918
   63CHL1  H18C 7098   1.631   6.619   8.931
   63CHL1   C12 7099   1.466   6.479   9.103
   63CHL1  H12A 7100   1.416   6.565   9.055
   63CHL1  H12B 7101   1.390   6.399   9.119
   63CHL1   C11 7102   1.518   6.528   9.239
   63CHL1  H11A 7103   1.578   6.620   9.221
   63CHL1  H11B 7104   1.431   6.559   9.301
   63CHL1    C9 7105   1.602   6.422   9.315
   63CHL1    H9 7106   1.531   6.341   9.339
   63CHL1   C10 7107   1.658   6.471   9.452
   63CHL1   C19 7108   1.739   6.602   9.431
   63CHL1  H19A 7109   1.821   6.588   9.359
   63CHL1  H19B 7110   1.673   6.683   9.394
   63CHL1  H19C 7111   1.781   6.639   9.527
   63CHL1    C1 7112   1.537   6.497   9.547
   63CHL1   H1A 7113   1.481   6.586   9.510
   63CHL1   H1B 7114   1.470   6.409   9.540
   63CHL1    C2 7115   1.572   6.519   9.695
   63CHL1   H2A 7116   1.479   6.527   9.754
   63CHL1   H2B 7117   1.629   6.614   9.705
   63CHL1   C20 7118   1.506   6.439   8.764
   63CHL1   H20 7119   1.583   6.517   8.749
   63CHL1   C21 7120   1.372   6.510   8.794
   63CHL1  H21A 7121   1.388   6.595   8.863
   63CHL1  H21B 7122   1.299   6.439   8.839
   63CHL1  H21C 7123   1.325   6.554   8.704
   63CHL1   C22 7124   1.499   6.366   8.627
   63CHL1  H22A 7125   1.595   6.314   8.607
   63CHL1  H22B 7126   1.417   6.291   8.627
   63CHL1   C23 7127   1.477   6.469   8.514
   63CHL1  H23A 7128   1.371   6.503   8.515
   63CHL1  H23B 7129   1.541   6.557   8.535
   63CHL1   C24 7130   1.508   6.423   8.371
   63CHL1  H24A 7131   1.604   6.366   8.370
   63CHL1  H24B 7132   1.427   6.355   8.335
   63CHL1   C25 7133   1.521   6.543   8.275
   63CHL1   H25 7134   1.609   6.602   8.308
   63CHL1   C26 7135   1.547   6.497   8.131
   63CHL1  H26A 7136   1.552   6.584   8.062
   63CHL1  H26B 7137   1.643   6.441   8.125
   63CHL1  H26C 7138   1.465   6.429   8.097
   63CHL1   C27 7139   1.399   6.637   8.281
   63CHL1  H27A 7140   1.307   6.584   8.250
   63CHL1  H27B 7141   1.384   6.678   8.383
   63CHL1  H27C 7142   1.415   6.724   8.213
   64CHL1    C3 7143   0.286   4.742   9.771
   64CHL1    H3 7144   0.317   4.635   9.771
   64CHL1    O3 7145   0.248   4.778   9.903
   64CHL1   H3' 7146   0.327   4.768   9.956
   64CHL1    C4 7147   0.403   4.830   9.723
   64CHL1   H4A 7148   0.372   4.936   9.730
   64CHL1   H4B 7149   0.488   4.817   9.794
   64CHL1    C5 7150   0.442   4.796   9.581
   64CHL1    C6 7151   0.567   4.756   9.551
   64CHL1    H6 7152   0.643   4.752   9.630
   64CHL1    C7 7153   0.613   4.724   9.411
   64CHL1   H7A 7154   0.713   4.768   9.392
   64CHL1   H7B 7155   0.623   4.614   9.400
   64CHL1    C8 7156   0.514   4.776   9.304
   64CHL1    H8 7157   0.524   4.887   9.302
   64CHL1   C14 7158   0.548   4.719   9.168
   64CHL1   H14 7159   0.533   4.609   9.175
   64CHL1   C15 7160   0.693   4.736   9.119
   64CHL1  H15A 7161   0.728   4.838   9.143
   64CHL1  H15B 7162   0.761   4.662   9.165
   64CHL1   C16 7163   0.682   4.719   8.967
   64CHL1  H16A 7164   0.727   4.810   8.923
   64CHL1  H16B 7165   0.737   4.629   8.931
   64CHL1   C17 7166   0.531   4.708   8.932
   64CHL1   H17 7167   0.508   4.600   8.937
   64CHL1   C13 7168   0.457   4.767   9.054
   64CHL1   C18 7169   0.459   4.921   9.046
   64CHL1  H18A 7170   0.395   4.955   8.962
   64CHL1  H18B 7171   0.420   4.969   9.138
   64CHL1  H18C 7172   0.562   4.959   9.029
   64CHL1   C12 7173   0.316   4.714   9.085
   64CHL1  H12A 7174   0.244   4.747   9.007
   64CHL1  H12B 7175   0.319   4.603   9.085
   64CHL1   C11 7176   0.267   4.763   9.223
   64CHL1  H11A 7177   0.245   4.872   9.212
   64CHL1  H11B 7178   0.171   4.713   9.248
   64CHL1    C9 7179   0.369   4.740   9.340
   64CHL1    H9 7180   0.371   4.630   9.354
   64CHL1   C10 7181   0.327   4.800   9.477
   64CHL1   C19 7182   0.285   4.948   9.455
   64CHL1  H19A 7183   0.189   4.954   9.400
   64CHL1  H19B 7184   0.270   5.002   9.551
   64CHL1  H19C 7185   0.362   5.003   9.396
   64CHL1    C1 7186   0.207   4.720   9.533
   64CHL1   H1A 7187   0.120   4.735   9.465
   64CHL1   H1B 7188   0.232   4.612   9.532
   64CHL1    C2 7189   0.166   4.758   9.677
   64CHL1   H2A 7190   0.082   4.694   9.712
   64CHL1   H2B 7191   0.131   4.864   9.680
   64CHL1   C20 7192   0.496   4.749   8.786
   64CHL1   H20 7193   0.540   4.668   8.723
   64CHL1   C21 7194   0.567   4.878   8.737
   64CHL1  H21A 7195   0.676   4.862   8.730
   64CHL1  H21B 7196   0.548   4.965   8.805
   64CHL1  H21C 7197   0.533   4.907   8.636
   64CHL1   C22 7198   0.345   4.749   8.752
   64CHL1  H22A 7199   0.302   4.652   8.787
   64CHL1  H22B 7200   0.293   4.831   8.805
   64CHL1   C23 7201   0.321   4.761   8.601
   64CHL1  H23A 7202   0.329   4.867   8.570
   64CHL1  H23B 7203   0.400   4.704   8.548
   64CHL1   C24 7204   0.184   4.707   8.556
   64CHL1  H24A 7205   0.176   4.600   8.585
   64CHL1  H24B 7206   0.104   4.763   8.610
   64CHL1   C25 7207   0.159   4.719   8.404
   64CHL1   H25 7208   0.166   4.826   8.376
   64CHL1   C26 7209   0.262   4.641   8.321
   64CHL1  H26A 7210   0.364   4.684   8.334
   64CHL1  H26B 7211   0.264   4.534   8.352
   64CHL1  H26C 7212   0.237   4.646   8.213
   64CHL1   C27 7213   0.017   4.671   8.370
   64CHL1  H27A 7214   0.003   4.567   8.405
   64CHL1  H27B 7215  -0.059   4.735   8.421
   64CHL1  H27C 7216  -0.001   4.676   8.261
   65CHL1    C3 7217   2.648  -0.043   9.725
   65CHL1    H3 7218   2.658   0.068   9.727
   65CHL1    O3 7219   2.627  -0.089   9.857
   65CHL1   H3' 7220   2.561  -0.031   9.894
   65CHL1    C4 7221   2.529  -0.081   9.635
   65CHL1   H4A 7222   2.518  -0.192   9.638
   65CHL1   H4B 7223   2.436  -0.039   9.680
   65CHL1    C5 7224   2.549  -0.035   9.492
   65CHL1    C6 7225   2.459   0.044   9.431
   65CHL1    H6 7226   2.367   0.073   9.485
   65CHL1    C7 7227   2.471   0.093   9.290
   65CHL1   H7A 7228   2.376   0.079   9.235
   65CHL1   H7B 7229   2.493   0.202   9.291
   65CHL1    C8 7230   2.585   0.023   9.211
   65CHL1    H8 7231   2.549  -0.078   9.182
   65CHL1   C14 7232   2.617   0.102   9.084
   65CHL1   H14 7233   2.650   0.202   9.120
   65CHL1   C15 7234   2.503   0.130   8.984
   65CHL1  H15A 7235   2.438   0.040   8.974
   65CHL1  H15B 7236   2.441   0.216   9.017
   65CHL1   C16 7237   2.576   0.157   8.851
   65CHL1  H16A 7238   2.549   0.079   8.778
   65CHL1  H16B 7239   2.551   0.257   8.809
   65CHL1   C17 7240   2.728   0.144   8.882
   65CHL1   H17 7241   2.762   0.242   8.922
   65CHL1   C13 7242   2.733   0.047   9.002
   65CHL1   C18 7243   2.700  -0.097   8.952
   65CHL1  H18A 7244   2.605  -0.101   8.895
   65CHL1  H18B 7245   2.781  -0.135   8.886
   65CHL1  H18C 7246   2.690  -0.167   9.037
   65CHL1   C12 7247   2.857   0.052   9.092
   65CHL1  H12A 7248   2.945   0.013   9.037
   65CHL1  H12B 7249   2.878   0.157   9.120
   65CHL1   C11 7250   2.838  -0.032   9.220
   65CHL1  H11A 7251   2.833  -0.139   9.191
   65CHL1  H11B 7252   2.927  -0.018   9.284
   65CHL1    C9 7253   2.710   0.009   9.299
   65CHL1    H9 7254   2.731   0.112   9.334
   65CHL1   C10 7255   2.683  -0.075   9.427
   65CHL1   C19 7256   2.675  -0.226   9.391
   65CHL1  H19A 7257   2.650  -0.287   9.480
   65CHL1  H19B 7258   2.597  -0.244   9.313
   65CHL1  H19C 7259   2.772  -0.263   9.352
   65CHL1    C1 7260   2.801  -0.053   9.526
   65CHL1   H1A 7261   2.892  -0.103   9.486
   65CHL1   H1B 7262   2.822   0.056   9.532
   65CHL1    C2 7263   2.775  -0.105   9.669
   65CHL1   H2A 7264   2.861  -0.079   9.735
   65CHL1   H2B 7265   2.765  -0.215   9.668
   65CHL1   C20 7266   2.815   0.118   8.758
   65CHL1   H20 7267   2.803   0.012   8.727
   65CHL1   C21 7268   2.963   0.147   8.794
   65CHL1  H21A 7269   3.012   0.055   8.831
   65CHL1  H21B 7270   2.971   0.226   8.871
   65CHL1  H21C 7271   3.021   0.181   8.706
   65CHL1   C22 7272   2.777   0.203   8.634
   65CHL1  H22A 7273   2.668   0.202   8.615
   65CHL1  H22B 7274   2.807   0.308   8.657
   65CHL1   C23 7275   2.847   0.158   8.504
   65CHL1  H23A 7276   2.946   0.115   8.526
   65CHL1  H23B 7277   2.786   0.078   8.457
   65CHL1   C24 7278   2.868   0.274   8.404
   65CHL1  H24A 7279   2.770   0.313   8.370
   65CHL1  H24B 7280   2.922   0.355   8.457
   65CHL1   C25 7281   2.953   0.233   8.282
   65CHL1   H25 7282   3.040   0.176   8.320
   65CHL1   C26 7283   2.874   0.144   8.187
   65CHL1  H26A 7284   2.823   0.061   8.242
   65CHL1  H26B 7285   2.797   0.204   8.135
   65CHL1  H26C 7286   2.941   0.099   8.111
   65CHL1   C27 7287   3.004   0.356   8.205
   65CHL1  H27A 7288   2.918   0.415   8.165
   65CHL1  H27B 7289   3.064   0.422   8.272
   65CHL1  H27C 7290   3.067   0.324   8.120
   66CHL1    C3 7291   7.121   5.517   9.729
   66CHL1    H3 7292   7.036   5.458   9.688
   66CHL1    O3 7293   7.127   5.501   9.870
   66CHL1   H3' 7294   7.175   5.419   9.881
   66CHL1    C4 7295   7.253   5.467   9.666
   66CHL1   H4A 7296   7.336   5.524   9.713
   66CHL1   H4B 7297   7.266   5.361   9.694
   66CHL1    C5 7298   7.260   5.486   9.516
   66CHL1    C6 7299   7.290   5.383   9.434
   66CHL1    H6 7300   7.311   5.284   9.477
   66CHL1    C7 7301   7.301   5.394   9.285
   66CHL1   H7A 7302   7.398   5.354   9.249
   66CHL1   H7B 7303   7.222   5.331   9.239
   66CHL1    C8 7304   7.285   5.539   9.229
   66CHL1    H8 7305   7.385   5.587   9.231
   66CHL1   C14 7306   7.231   5.534   9.087
   66CHL1   H14 7307   7.128   5.494   9.096
   66CHL1   C15 7308   7.300   5.443   8.984
   66CHL1  H15A 7309   7.410   5.459   8.988
   66CHL1  H15B 7310   7.278   5.335   9.002
   66CHL1   C16 7311   7.244   5.492   8.850
   66CHL1  H16A 7312   7.329   5.515   8.782
   66CHL1  H16B 7313   7.178   5.417   8.802
   66CHL1   C17 7314   7.164   5.623   8.880
   66CHL1   H17 7315   7.058   5.594   8.896
   66CHL1   C13 7316   7.215   5.670   9.018
   66CHL1   C18 7317   7.352   5.739   9.001
   66CHL1  H18A 7318   7.420   5.679   8.937
   66CHL1  H18B 7319   7.339   5.839   8.955
   66CHL1  H18C 7320   7.401   5.755   9.100
   66CHL1   C12 7321   7.117   5.753   9.102
   66CHL1  H12A 7322   7.111   5.856   9.061
   66CHL1  H12B 7323   7.017   5.706   9.098
   66CHL1   C11 7324   7.163   5.762   9.249
   66CHL1  H11A 7325   7.255   5.824   9.253
   66CHL1  H11B 7326   7.084   5.816   9.305
   66CHL1    C9 7327   7.188   5.623   9.313
   66CHL1    H9 7328   7.090   5.571   9.305
   66CHL1   C10 7329   7.221   5.626   9.464
   66CHL1   C19 7330   7.343   5.717   9.487
   66CHL1  H19A 7331   7.320   5.821   9.457
   66CHL1  H19B 7332   7.372   5.720   9.594
   66CHL1  H19C 7333   7.431   5.682   9.428
   66CHL1    C1 7334   7.097   5.682   9.541
   66CHL1   H1A 7335   7.086   5.790   9.519
   66CHL1   H1B 7336   7.006   5.630   9.503
   66CHL1    C2 7337   7.100   5.664   9.694
   66CHL1   H2A 7338   7.005   5.701   9.738
   66CHL1   H2B 7339   7.183   5.725   9.736
   66CHL1   C20 7340   7.166   5.720   8.762
   66CHL1   H20 7341   7.273   5.744   8.739
   66CHL1   C21 7342   7.096   5.854   8.792
   66CHL1  H21A 7343   7.087   5.914   8.699
   66CHL1  H21B 7344   7.154   5.915   8.865
   66CHL1  H21C 7345   6.994   5.837   8.833
   66CHL1   C22 7346   7.108   5.658   8.633
   66CHL1  H22A 7347   7.133   5.729   8.551
   66CHL1  H22B 7348   7.160   5.562   8.609
   66CHL1   C23 7349   6.956   5.636   8.633
   66CHL1  H23A 7350   6.926   5.568   8.715
   66CHL1  H23B 7351   6.907   5.734   8.653
   66CHL1   C24 7352   6.905   5.581   8.499
   66CHL1  H24A 7353   6.980   5.599   8.419
   66CHL1  H24B 7354   6.894   5.470   8.507
   66CHL1   C25 7355   6.773   5.645   8.455
   66CHL1   H25 7356   6.703   5.642   8.542
   66CHL1   C26 7357   6.794   5.791   8.412
   66CHL1  H26A 7358   6.831   5.854   8.495
   66CHL1  H26B 7359   6.867   5.795   8.328
   66CHL1  H26C 7360   6.698   5.833   8.376
   66CHL1   C27 7361   6.708   5.570   8.339
   66CHL1  H27A 7362   6.691   5.464   8.365
   66CHL1  H27B 7363   6.610   5.616   8.313
   66CHL1  H27C 7364   6.774   5.575   8.250
   67CHL1    C3 7365   6.199   6.929   9.700
   67CHL1    H3 7366   6.106   6.986   9.680
   67CHL1    O3 7367   6.217   6.918   9.841
   67CHL1   H3' 7368   6.281   6.986   9.863
   67CHL1    C4 7369   6.189   6.789   9.638
   67CHL1   H4A 7370   6.280   6.732   9.667
   67CHL1   H4B 7371   6.103   6.737   9.685
   67CHL1    C5 7372   6.178   6.796   9.487
   67CHL1    C6 7373   6.074   6.743   9.423
   67CHL1    H6 7374   5.996   6.690   9.480
   67CHL1    C7 7375   6.060   6.742   9.274
   67CHL1   H7A 7376   6.031   6.640   9.239
   67CHL1   H7B 7377   5.977   6.810   9.244
   67CHL1    C8 7378   6.189   6.781   9.197
   67CHL1    H8 7379   6.257   6.694   9.197
   67CHL1   C14 7380   6.152   6.817   9.054
   67CHL1   H14 7381   6.080   6.901   9.064
   67CHL1   C15 7382   6.075   6.714   8.970
   67CHL1  H15A 7383   6.125   6.615   8.979
   67CHL1  H15B 7384   5.969   6.706   9.002
   67CHL1   C16 7385   6.088   6.765   8.826
   67CHL1  H16A 7386   6.132   6.684   8.763
   67CHL1  H16B 7387   5.990   6.795   8.783
   67CHL1   C17 7388   6.185   6.888   8.831
   67CHL1   H17 7389   6.119   6.977   8.847
   67CHL1   C13 7390   6.264   6.867   8.963
   67CHL1   C18 7391   6.364   6.753   8.941
   67CHL1  H18A 7392   6.454   6.792   8.888
   67CHL1  H18B 7393   6.398   6.712   9.039
   67CHL1  H18C 7394   6.323   6.668   8.882
   67CHL1   C12 7395   6.336   6.986   9.032
   67CHL1  H12A 7396   6.429   7.009   8.976
   67CHL1  H12B 7397   6.276   7.079   9.030
   67CHL1   C11 7398   6.375   6.954   9.178
   67CHL1  H11A 7399   6.457   6.879   9.175
   67CHL1  H11B 7400   6.416   7.046   9.224
   67CHL1    C9 7401   6.257   6.900   9.264
   67CHL1    H9 7402   6.180   6.980   9.263
   67CHL1   C10 7403   6.289   6.875   9.415
   67CHL1   C19 7404   6.418   6.789   9.423
   67CHL1  H19A 7405   6.404   6.693   9.369
   67CHL1  H19B 7406   6.504   6.843   9.377
   67CHL1  H19C 7407   6.446   6.767   9.528
   67CHL1    C1 7408   6.310   7.012   9.487
   67CHL1   H1A 7409   6.402   7.060   9.447
   67CHL1   H1B 7410   6.225   7.078   9.461
   67CHL1    C2 7411   6.319   7.004   9.641
   67CHL1   H2A 7412   6.325   7.107   9.683
   67CHL1   H2B 7413   6.412   6.950   9.669
   67CHL1   C20 7414   6.257   6.913   8.698
   67CHL1   H20 7415   6.339   6.839   8.687
   67CHL1   C21 7416   6.315   7.056   8.697
   67CHL1  H21A 7417   6.380   7.071   8.608
   67CHL1  H21B 7418   6.374   7.077   8.788
   67CHL1  H21C 7419   6.232   7.130   8.691
   67CHL1   C22 7420   6.163   6.897   8.574
   67CHL1  H22A 7421   6.117   6.796   8.574
   67CHL1  H22B 7422   6.081   6.971   8.583
   67CHL1   C23 7423   6.230   6.913   8.436
   67CHL1  H23A 7424   6.278   7.013   8.427
   67CHL1  H23B 7425   6.308   6.836   8.424
   67CHL1   C24 7426   6.126   6.899   8.323
   67CHL1  H24A 7427   6.067   6.806   8.343
   67CHL1  H24B 7428   6.057   6.986   8.328
   67CHL1   C25 7429   6.180   6.892   8.180
   67CHL1   H25 7430   6.262   6.817   8.177
   67CHL1   C26 7431   6.069   6.844   8.084
   67CHL1  H26A 7432   6.030   6.746   8.116
   67CHL1  H26B 7433   5.985   6.917   8.084
   67CHL1  H26C 7434   6.108   6.835   7.980
   67CHL1   C27 7435   6.235   7.028   8.133
   67CHL1  H27A 7436   6.154   7.104   8.134
   67CHL1  H27B 7437   6.317   7.062   8.199
   67CHL1  H27C 7438   6.273   7.020   8.029
   68CHL1    C3 7439   0.778   0.420   9.769
   68CHL1    H3 7440   0.884   0.440   9.747
   68CHL1    O3 7441   0.752   0.451   9.905
   68CHL1   H3' 7442   0.828   0.411   9.949
   68CHL1    C4 7443   0.690   0.505   9.676
   68CHL1   H4A 7444   0.583   0.495   9.706
   68CHL1   H4B 7445   0.718   0.612   9.692
   68CHL1    C5 7446   0.709   0.463   9.531
   68CHL1    C6 7447   0.756   0.548   9.439
   68CHL1    H6 7448   0.776   0.653   9.465
   68CHL1    C7 7449   0.777   0.511   9.295
   68CHL1   H7A 7450   0.750   0.595   9.228
   68CHL1   H7B 7451   0.883   0.483   9.276
   68CHL1    C8 7452   0.691   0.388   9.259
   68CHL1    H8 7453   0.587   0.424   9.274
   68CHL1   C14 7454   0.711   0.344   9.115
   68CHL1   H14 7455   0.816   0.308   9.105
   68CHL1   C15 7456   0.692   0.449   9.006
   68CHL1  H15A 7457   0.602   0.509   9.031
   68CHL1  H15B 7458   0.780   0.517   8.996
   68CHL1   C16 7459   0.666   0.368   8.878
   68CHL1  H16A 7460   0.592   0.423   8.816
   68CHL1  H16B 7461   0.760   0.358   8.819
   68CHL1   C17 7462   0.620   0.225   8.922
   68CHL1   H17 7463   0.704   0.158   8.895
   68CHL1   C13 7464   0.620   0.229   9.077
   68CHL1   C18 7465   0.476   0.260   9.119
   68CHL1  H18A 7466   0.461   0.284   9.226
   68CHL1  H18B 7467   0.431   0.340   9.057
   68CHL1  H18C 7468   0.421   0.164   9.106
   68CHL1   C12 7469   0.674   0.108   9.156
   68CHL1  H12A 7470   0.614   0.018   9.130
   68CHL1  H12B 7471   0.779   0.089   9.127
   68CHL1   C11 7472   0.665   0.133   9.308
   68CHL1  H11A 7473   0.558   0.118   9.334
   68CHL1  H11B 7474   0.720   0.052   9.362
   68CHL1    C9 7475   0.719   0.272   9.357
   68CHL1    H9 7476   0.829   0.261   9.353
   68CHL1   C10 7477   0.682   0.313   9.503
   68CHL1   C19 7478   0.535   0.275   9.529
   68CHL1  H19A 7479   0.528   0.165   9.547
   68CHL1  H19B 7480   0.491   0.326   9.618
   68CHL1  H19C 7481   0.472   0.296   9.440
   68CHL1    C1 7482   0.771   0.234   9.602
   68CHL1   H1A 7483   0.754   0.126   9.586
   68CHL1   H1B 7484   0.877   0.258   9.579
   68CHL1    C2 7485   0.750   0.271   9.750
   68CHL1   H2A 7486   0.819   0.211   9.813
   68CHL1   H2B 7487   0.646   0.249   9.781
   68CHL1   C20 7488   0.494   0.168   8.849
   68CHL1   H20 7489   0.406   0.161   8.917
   68CHL1   C21 7490   0.522   0.020   8.815
   68CHL1  H21A 7491   0.551  -0.034   8.907
   68CHL1  H21B 7492   0.604   0.011   8.740
   68CHL1  H21C 7493   0.430  -0.029   8.774
   68CHL1   C22 7494   0.431   0.247   8.731
   68CHL1  H22A 7495   0.334   0.200   8.705
   68CHL1  H22B 7496   0.407   0.350   8.765
   68CHL1   C23 7497   0.515   0.252   8.603
   68CHL1  H23A 7498   0.495   0.346   8.547
   68CHL1  H23B 7499   0.622   0.252   8.631
   68CHL1   C24 7500   0.486   0.134   8.510
   68CHL1  H24A 7501   0.462   0.043   8.568
   68CHL1  H24B 7502   0.397   0.154   8.446
   68CHL1   C25 7503   0.608   0.102   8.423
   68CHL1   H25 7504   0.698   0.112   8.486
   68CHL1   C26 7505   0.603  -0.045   8.379
   68CHL1  H26A 7506   0.593  -0.111   8.467
   68CHL1  H26B 7507   0.517  -0.063   8.311
   68CHL1  H26C 7508   0.698  -0.072   8.328
   68CHL1   C27 7509   0.617   0.202   8.307
   68CHL1  H27A 7510   0.634   0.305   8.345
   68CHL1  H27B 7511   0.700   0.175   8.239
   68CHL1  H27C 7512   0.522   0.201   8.249
   69CHL1    C3 7513   3.939   4.777   6.232
   69CHL1    H3 7514   3.887   4.870   6.261
   69CHL1    O3 7515   3.986   4.792   6.099
   69CHL1   H3' 7516   3.907   4.810   6.047
   69CHL1    C4 7517   4.058   4.753   6.325
   69CHL1   H4A 7518   4.112   4.663   6.289
   69CHL1   H4B 7519   4.129   4.838   6.314
   69CHL1    C5 7520   4.013   4.735   6.469
   69CHL1    C6 7521   4.057   4.816   6.565
   69CHL1    H6 7522   4.129   4.894   6.538
   69CHL1    C7 7523   4.022   4.803   6.710
   69CHL1   H7A 7524   4.113   4.808   6.773
   69CHL1   H7B 7525   3.957   4.889   6.740
   69CHL1    C8 7526   3.947   4.672   6.744
   69CHL1    H8 7527   4.023   4.591   6.753
   69CHL1   C14 7528   3.872   4.688   6.876
   69CHL1   H14 7529   3.794   4.764   6.855
   69CHL1   C15 7530   3.949   4.744   6.997
   69CHL1  H15A 7531   4.052   4.702   7.000
   69CHL1  H15B 7532   3.956   4.855   6.992
   69CHL1   C16 7533   3.867   4.697   7.118
   69CHL1  H16A 7534   3.929   4.629   7.179
   69CHL1  H16B 7535   3.835   4.782   7.181
   69CHL1   C17 7536   3.744   4.621   7.059
   69CHL1   H17 7537   3.669   4.699   7.035
   69CHL1   C13 7538   3.796   4.565   6.924
   69CHL1   C18 7539   3.891   4.447   6.952
   69CHL1  H18A 7540   3.964   4.469   7.032
   69CHL1  H18B 7541   3.833   4.357   6.982
   69CHL1  H18C 7542   3.949   4.419   6.861
   69CHL1   C12 7543   3.693   4.527   6.815
   69CHL1  H12A 7544   3.645   4.430   6.841
   69CHL1  H12B 7545   3.615   4.606   6.809
   69CHL1   C11 7546   3.761   4.510   6.677
   69CHL1  H11A 7547   3.826   4.420   6.682
   69CHL1  H11B 7548   3.682   4.490   6.601
   69CHL1    C9 7549   3.846   4.634   6.635
   69CHL1    H9 7550   3.774   4.719   6.632
   69CHL1   C10 7551   3.908   4.625   6.493
   69CHL1   C19 7552   3.980   4.489   6.478
   69CHL1  H19A 7553   3.906   4.406   6.481
   69CHL1  H19B 7554   4.033   4.480   6.380
   69CHL1  H19C 7555   4.054   4.474   6.559
   69CHL1    C1 7556   3.794   4.637   6.386
   69CHL1   H1A 7557   3.732   4.546   6.390
   69CHL1   H1B 7558   3.730   4.724   6.414
   69CHL1    C2 7559   3.843   4.658   6.241
   69CHL1   H2A 7560   3.755   4.673   6.174
   69CHL1   H2B 7561   3.895   4.566   6.208
   69CHL1   C20 7562   3.678   4.524   7.158
   69CHL1   H20 7563   3.739   4.431   7.164
   69CHL1   C21 7564   3.537   4.487   7.107
   69CHL1  H21A 7565   3.482   4.431   7.185
   69CHL1  H21B 7566   3.542   4.422   7.017
   69CHL1  H21C 7567   3.478   4.579   7.082
   69CHL1   C22 7568   3.668   4.577   7.304
   69CHL1  H22A 7569   3.631   4.493   7.368
   69CHL1  H22B 7570   3.770   4.601   7.341
   69CHL1   C23 7571   3.574   4.697   7.325
   69CHL1  H23A 7572   3.598   4.777   7.252
   69CHL1  H23B 7573   3.470   4.664   7.304
   69CHL1   C24 7574   3.575   4.754   7.468
   69CHL1  H24A 7575   3.496   4.832   7.477
   69CHL1  H24B 7576   3.549   4.673   7.539
   69CHL1   C25 7577   3.710   4.817   7.513
   69CHL1   H25 7578   3.790   4.742   7.499
   69CHL1   C26 7579   3.745   4.942   7.431
   69CHL1  H26A 7580   3.748   4.919   7.322
   69CHL1  H26B 7581   3.668   5.021   7.448
   69CHL1  H26C 7582   3.843   4.983   7.462
   69CHL1   C27 7583   3.706   4.855   7.662
   69CHL1  H27A 7584   3.681   4.767   7.724
   69CHL1  H27B 7585   3.805   4.894   7.694
   69CHL1  H27C 7586   3.630   4.934   7.679
   70CHL1    C3 7587   4.359   2.665   6.254
   70CHL1    H3 7588   4.463   2.703   6.251
   70CHL1    O3 7589   4.305   2.665   6.122
   70CHL1   H3' 7590   4.357   2.601   6.074
   70CHL1    C4 7591   4.359   2.521   6.309
   70CHL1   H4A 7592   4.257   2.479   6.297
   70CHL1   H4B 7593   4.426   2.460   6.245
   70CHL1    C5 7594   4.400   2.516   6.455
   70CHL1    C6 7595   4.506   2.444   6.495
   70CHL1    H6 7596   4.562   2.384   6.422
   70CHL1    C7 7597   4.545   2.429   6.639
   70CHL1   H7A 7598   4.571   2.323   6.662
   70CHL1   H7B 7599   4.635   2.490   6.659
   70CHL1    C8 7600   4.433   2.473   6.737
   70CHL1    H8 7601   4.351   2.398   6.737
   70CHL1   C14 7602   4.490   2.481   6.877
   70CHL1   H14 7603   4.571   2.557   6.869
   70CHL1   C15 7604   4.559   2.356   6.933
   70CHL1  H15A 7605   4.495   2.266   6.917
   70CHL1  H15B 7606   4.659   2.339   6.886
   70CHL1   C16 7607   4.572   2.387   7.082
   70CHL1  H16A 7608   4.529   2.304   7.142
   70CHL1  H16B 7609   4.679   2.401   7.110
   70CHL1   C17 7610   4.495   2.520   7.107
   70CHL1   H17 7611   4.570   2.602   7.093
   70CHL1   C13 7612   4.397   2.531   6.988
   70CHL1   C18 7613   4.280   2.432   7.011
   70CHL1  H18A 7614   4.316   2.332   7.046
   70CHL1  H18B 7615   4.212   2.473   7.089
   70CHL1  H18C 7616   4.221   2.417   6.918
   70CHL1   C12 7617   4.345   2.670   6.946
   70CHL1  H12A 7618   4.269   2.707   7.017
   70CHL1  H12B 7619   4.430   2.741   6.946
   70CHL1   C11 7620   4.282   2.666   6.805
   70CHL1  H11A 7621   4.190   2.604   6.813
   70CHL1  H11B 7622   4.250   2.769   6.776
   70CHL1    C9 7623   4.376   2.608   6.695
   70CHL1    H9 7624   4.463   2.677   6.692
   70CHL1   C10 7625   4.318   2.605   6.551
   70CHL1   C19 7626   4.173   2.549   6.558
   70CHL1  H19A 7627   4.107   2.619   6.614
   70CHL1  H19B 7628   4.128   2.538   6.457
   70CHL1  H19C 7629   4.172   2.450   6.608
   70CHL1    C1 7630   4.318   2.749   6.492
   70CHL1   H1A 7631   4.251   2.814   6.552
   70CHL1   H1B 7632   4.421   2.791   6.500
   70CHL1    C2 7633   4.275   2.758   6.344
   70CHL1   H2A 7634   4.287   2.863   6.309
   70CHL1   H2B 7635   4.168   2.732   6.335
   70CHL1   C20 7636   4.448   2.534   7.252
   70CHL1   H20 7637   4.369   2.458   7.272
   70CHL1   C21 7638   4.390   2.674   7.276
   70CHL1  H21A 7639   4.296   2.687   7.219
   70CHL1  H21B 7640   4.463   2.753   7.246
   70CHL1  H21C 7641   4.364   2.689   7.384
   70CHL1   C22 7642   4.566   2.507   7.351
   70CHL1  H22A 7643   4.614   2.410   7.328
   70CHL1  H22B 7644   4.643   2.586   7.336
   70CHL1   C23 7645   4.529   2.500   7.499
   70CHL1  H23A 7646   4.488   2.597   7.535
   70CHL1  H23B 7647   4.451   2.422   7.514
   70CHL1   C24 7648   4.651   2.462   7.585
   70CHL1  H24A 7649   4.706   2.379   7.535
   70CHL1  H24B 7650   4.719   2.549   7.590
   70CHL1   C25 7651   4.616   2.414   7.727
   70CHL1   H25 7652   4.565   2.316   7.718
   70CHL1   C26 7653   4.747   2.392   7.805
   70CHL1  H26A 7654   4.728   2.350   7.906
   70CHL1  H26B 7655   4.812   2.322   7.750
   70CHL1  H26C 7656   4.801   2.489   7.817
   70CHL1   C27 7657   4.519   2.509   7.800
   70CHL1  H27A 7658   4.420   2.508   7.749
   70CHL1  H27B 7659   4.503   2.477   7.905
   70CHL1  H27C 7660   4.557   2.613   7.800
   71CHL1    C3 7661   2.333   3.476   6.236
   71CHL1    H3 7662   2.246   3.545   6.229
   71CHL1    O3 7663   2.389   3.460   6.106
   71CHL1   H3' 7664   2.409   3.550   6.078
   71CHL1    C4 7665   2.440   3.539   6.326
   71CHL1   H4A 7666   2.531   3.475   6.322
   71CHL1   H4B 7667   2.469   3.637   6.283
   71CHL1    C5 7668   2.391   3.551   6.469
   71CHL1    C6 7669   2.387   3.671   6.527
   71CHL1    H6 7670   2.422   3.760   6.473
   71CHL1    C7 7671   2.344   3.692   6.669
   71CHL1   H7A 7672   2.408   3.770   6.716
   71CHL1   H7B 7673   2.239   3.727   6.673
   71CHL1    C8 7674   2.352   3.560   6.750
   71CHL1    H8 7675   2.459   3.536   6.763
   71CHL1   C14 7676   2.287   3.580   6.886
   71CHL1   H14 7677   2.178   3.593   6.868
   71CHL1   C15 7678   2.330   3.705   6.962
   71CHL1  H15A 7679   2.441   3.705   6.964
   71CHL1  H15B 7680   2.294   3.800   6.918
   71CHL1   C16 7681   2.278   3.679   7.101
   71CHL1  H16A 7682   2.353   3.719   7.173
   71CHL1  H16B 7683   2.181   3.732   7.114
   71CHL1   C17 7684   2.249   3.527   7.116
   71CHL1   H17 7685   2.138   3.516   7.113
   71CHL1   C13 7686   2.302   3.464   6.984
   71CHL1   C18 7687   2.451   3.427   7.005
   71CHL1  H18A 7688   2.500   3.395   6.910
   71CHL1  H18B 7689   2.508   3.512   7.047
   71CHL1  H18C 7690   2.460   3.341   7.075
   71CHL1   C12 7691   2.222   3.348   6.919
   71CHL1  H12A 7692   2.231   3.256   6.980
   71CHL1  H12B 7693   2.115   3.377   6.915
   71CHL1   C11 7694   2.271   3.319   6.773
   71CHL1  H11A 7695   2.371   3.272   6.784
   71CHL1  H11B 7696   2.203   3.245   6.726
   71CHL1    C9 7697   2.282   3.445   6.679
   71CHL1    H9 7698   2.177   3.479   6.663
   71CHL1   C10 7699   2.342   3.421   6.536
   71CHL1   C19 7700   2.463   3.327   6.552
   71CHL1  H19A 7701   2.535   3.368   6.626
   71CHL1  H19B 7702   2.431   3.227   6.585
   71CHL1  H19C 7703   2.518   3.312   6.456
   71CHL1    C1 7704   2.237   3.357   6.441
   71CHL1   H1A 7705   2.210   3.256   6.480
   71CHL1   H1B 7706   2.146   3.419   6.441
   71CHL1    C2 7707   2.286   3.342   6.294
   71CHL1   H2A 7708   2.203   3.301   6.231
   71CHL1   H2B 7709   2.369   3.269   6.290
   71CHL1   C20 7710   2.295   3.476   7.254
   71CHL1   H20 7711   2.406   3.474   7.256
   71CHL1   C21 7712   2.243   3.332   7.276
   71CHL1  H21A 7713   2.279   3.292   7.373
   71CHL1  H21B 7714   2.279   3.265   7.195
   71CHL1  H21C 7715   2.132   3.331   7.276
   71CHL1   C22 7716   2.251   3.567   7.373
   71CHL1  H22A 7717   2.279   3.673   7.354
   71CHL1  H22B 7718   2.140   3.565   7.382
   71CHL1   C23 7719   2.316   3.536   7.509
   71CHL1  H23A 7720   2.267   3.446   7.554
   71CHL1  H23B 7721   2.423   3.512   7.493
   71CHL1   C24 7722   2.305   3.655   7.606
   71CHL1  H24A 7723   2.362   3.741   7.565
   71CHL1  H24B 7724   2.198   3.686   7.612
   71CHL1   C25 7725   2.355   3.628   7.750
   71CHL1   H25 7726   2.295   3.544   7.791
   71CHL1   C26 7727   2.503   3.589   7.756
   71CHL1  H26A 7728   2.566   3.671   7.714
   71CHL1  H26B 7729   2.534   3.570   7.861
   71CHL1  H26C 7730   2.522   3.496   7.697
   71CHL1   C27 7731   2.332   3.752   7.839
   71CHL1  H27A 7732   2.226   3.785   7.831
   71CHL1  H27B 7733   2.354   3.728   7.945
   71CHL1  H27C 7734   2.397   3.836   7.806
   72CHL1    C3 7735   5.059   2.816   6.206
   72CHL1    H3 7736   5.161   2.804   6.248
   72CHL1    O3 7737   5.068   2.818   6.064
   72CHL1   H3' 7738   5.129   2.748   6.042
   72CHL1    C4 7739   4.970   2.699   6.250
   72CHL1   H4A 7740   4.872   2.708   6.199
   72CHL1   H4B 7741   5.016   2.605   6.213
   72CHL1    C5 7742   4.948   2.696   6.400
   72CHL1    C6 7743   4.975   2.586   6.472
   72CHL1    H6 7744   5.010   2.495   6.422
   72CHL1    C7 7745   4.955   2.578   6.620
   72CHL1   H7A 7746   4.899   2.486   6.647
   72CHL1   H7B 7747   5.055   2.571   6.668
   72CHL1    C8 7748   4.882   2.699   6.686
   72CHL1    H8 7749   4.773   2.685   6.672
   72CHL1   C14 7750   4.917   2.708   6.834
   72CHL1   H14 7751   5.026   2.730   6.838
   72CHL1   C15 7752   4.901   2.582   6.918
   72CHL1  H15A 7753   4.805   2.531   6.896
   72CHL1  H15B 7754   4.985   2.512   6.898
   72CHL1   C16 7755   4.904   2.634   7.062
   72CHL1  H16A 7756   4.813   2.597   7.115
   72CHL1  H16B 7757   4.995   2.601   7.116
   72CHL1   C17 7758   4.899   2.790   7.055
   72CHL1   H17 7759   5.004   2.825   7.061
   72CHL1   C13 7760   4.851   2.823   6.911
   72CHL1   C18 7761   4.698   2.811   6.906
   72CHL1  H18A 7762   4.660   2.809   6.801
   72CHL1  H18B 7763   4.665   2.718   6.956
   72CHL1  H18C 7764   4.649   2.897   6.957
   72CHL1   C12 7765   4.902   2.953   6.847
   72CHL1  H12A 7766   4.854   3.041   6.895
   72CHL1  H12B 7767   5.012   2.960   6.863
   72CHL1   C11 7768   4.873   2.954   6.695
   72CHL1  H11A 7769   4.764   2.963   6.681
   72CHL1  H11B 7770   4.922   3.045   6.654
   72CHL1    C9 7771   4.926   2.829   6.619
   72CHL1    H9 7772   5.037   2.832   6.633
   72CHL1   C10 7773   4.904   2.829   6.466
   72CHL1   C19 7774   4.753   2.845   6.435
   72CHL1  H19A 7775   4.714   2.941   6.474
   72CHL1  H19B 7776   4.734   2.843   6.326
   72CHL1  H19C 7777   4.694   2.762   6.481
   72CHL1    C1 7778   4.986   2.947   6.406
   72CHL1   H1A 7779   4.937   3.042   6.437
   72CHL1   H1B 7780   5.088   2.945   6.450
   72CHL1    C2 7781   4.999   2.948   6.254
   72CHL1   H2A 7782   5.063   3.033   6.222
   72CHL1   H2B 7783   4.899   2.960   6.207
   72CHL1   C20 7784   4.824   2.848   7.177
   72CHL1   H20 7785   4.721   2.808   7.179
   72CHL1   C21 7786   4.816   3.002   7.170
   72CHL1  H21A 7787   4.918   3.046   7.163
   72CHL1  H21B 7788   4.765   3.043   7.259
   72CHL1  H21C 7789   4.757   3.035   7.081
   72CHL1   C22 7790   4.894   2.804   7.309
   72CHL1  H22A 7791   4.907   2.694   7.312
   72CHL1  H22B 7792   4.996   2.849   7.310
   72CHL1   C23 7793   4.824   2.842   7.441
   72CHL1  H23A 7794   4.806   2.952   7.445
   72CHL1  H23B 7795   4.726   2.791   7.447
   72CHL1   C24 7796   4.912   2.805   7.561
   72CHL1  H24A 7797   4.921   2.694   7.569
   72CHL1  H24B 7798   5.013   2.847   7.543
   72CHL1   C25 7799   4.867   2.862   7.696
   72CHL1   H25 7800   4.853   2.972   7.683
   72CHL1   C26 7801   4.735   2.802   7.745
   72CHL1  H26A 7802   4.653   2.819   7.672
   72CHL1  H26B 7803   4.749   2.692   7.759
   72CHL1  H26C 7804   4.706   2.845   7.843
   72CHL1   C27 7805   4.975   2.839   7.803
   72CHL1  H27A 7806   4.983   2.731   7.825
   72CHL1  H27B 7807   5.074   2.877   7.768
   72CHL1  H27C 7808   4.949   2.890   7.898
   73CHL1    C3 7809   2.592   4.928   6.255
   73CHL1    H3 7810   2.484   4.903   6.245
   73CHL1    O3 7811   2.645   4.958   6.127
   73CHL1   H3' 7812   2.667   5.052   6.133
   73CHL1    C4 7813   2.606   5.053   6.345
   73CHL1   H4A 7814   2.712   5.085   6.342
   73CHL1   H4B 7815   2.547   5.135   6.299
   73CHL1    C5 7816   2.565   5.028   6.489
   73CHL1    C6 7817   2.475   5.106   6.551
   73CHL1    H6 7818   2.431   5.191   6.497
   73CHL1    C7 7819   2.436   5.090   6.696
   73CHL1   H7A 7820   2.435   5.189   6.746
   73CHL1   H7B 7821   2.333   5.049   6.701
   73CHL1    C8 7822   2.531   4.996   6.776
   73CHL1    H8 7823   2.624   5.052   6.799
   73CHL1   C14 7824   2.464   4.954   6.906
   73CHL1   H14 7825   2.374   4.897   6.875
   73CHL1   C15 7826   2.408   5.064   6.999
   73CHL1  H15A 7827   2.478   5.150   7.005
   73CHL1  H15B 7828   2.310   5.098   6.960
   73CHL1   C16 7829   2.394   4.995   7.135
   73CHL1  H16A 7830   2.461   5.045   7.208
   73CHL1  H16B 7831   2.290   5.004   7.174
   73CHL1   C17 7832   2.439   4.847   7.114
   73CHL1   H17 7833   2.352   4.791   7.073
   73CHL1   C13 7834   2.541   4.858   6.997
   73CHL1   C18 7835   2.670   4.927   7.047
   73CHL1  H18A 7836   2.650   5.024   7.098
   73CHL1  H18B 7837   2.724   4.862   7.119
   73CHL1  H18C 7838   2.739   4.949   6.962
   73CHL1   C12 7839   2.570   4.732   6.913
   73CHL1  H12A 7840   2.633   4.660   6.969
   73CHL1  H12B 7841   2.473   4.681   6.891
   73CHL1   C11 7842   2.640   4.765   6.779
   73CHL1  H11A 7843   2.742   4.803   6.805
   73CHL1  H11B 7844   2.653   4.671   6.721
   73CHL1    C9 7845   2.566   4.872   6.693
   73CHL1    H9 7846   2.469   4.825   6.667
   73CHL1   C10 7847   2.630   4.905   6.555
   73CHL1   C19 7848   2.778   4.942   6.578
   73CHL1  H19A 7849   2.831   4.969   6.484
   73CHL1  H19B 7850   2.784   5.028   6.649
   73CHL1  H19C 7851   2.832   4.856   6.622
   73CHL1    C1 7852   2.620   4.782   6.461
   73CHL1   H1A 7853   2.680   4.699   6.502
   73CHL1   H1B 7854   2.514   4.748   6.458
   73CHL1    C2 7855   2.666   4.808   6.316
   73CHL1   H2A 7856   2.649   4.718   6.254
   73CHL1   H2B 7857   2.775   4.829   6.316
   73CHL1   C20 7858   2.475   4.776   7.247
   73CHL1   H20 7859   2.546   4.842   7.301
   73CHL1   C21 7860   2.547   4.642   7.224
   73CHL1  H21A 7861   2.560   4.589   7.321
   73CHL1  H21B 7862   2.648   4.661   7.183
   73CHL1  H21C 7863   2.490   4.577   7.155
   73CHL1   C22 7864   2.355   4.750   7.342
   73CHL1  H22A 7865   2.394   4.745   7.446
   73CHL1  H22B 7866   2.287   4.838   7.339
   73CHL1   C23 7867   2.273   4.620   7.319
   73CHL1  H23A 7868   2.250   4.609   7.211
   73CHL1  H23B 7869   2.336   4.532   7.348
   73CHL1   C24 7870   2.144   4.615   7.404
   73CHL1  H24A 7871   2.176   4.624   7.510
   73CHL1  H24B 7872   2.081   4.704   7.381
   73CHL1   C25 7873   2.054   4.489   7.395
   73CHL1   H25 7874   2.121   4.401   7.406
   73CHL1   C26 7875   1.953   4.485   7.511
   73CHL1  H26A 7876   1.885   4.572   7.506
   73CHL1  H26B 7877   1.893   4.392   7.507
   73CHL1  H26C 7878   2.007   4.486   7.609
   73CHL1   C27 7879   1.976   4.469   7.264
   73CHL1  H27A 7880   1.912   4.378   7.271
   73CHL1  H27B 7881   1.910   4.555   7.245
   73CHL1  H27C 7882   2.046   4.454   7.179
   74CHL1    C3 7883   1.773   4.073   6.265
   74CHL1    H3 7884   1.860   4.011   6.292
   74CHL1    O3 7885   1.761   4.081   6.124
   74CHL1   H3' 7886   1.845   4.117   6.095
   74CHL1    C4 7887   1.647   4.008   6.322
   74CHL1   H4A 7888   1.560   4.068   6.289
   74CHL1   H4B 7889   1.636   3.907   6.277
   74CHL1    C5 7890   1.650   4.002   6.473
   74CHL1    C6 7891   1.641   3.885   6.537
   74CHL1    H6 7892   1.629   3.792   6.480
   74CHL1    C7 7893   1.636   3.873   6.686
   74CHL1   H7A 7894   1.554   3.804   6.715
   74CHL1   H7B 7895   1.731   3.827   6.722
   74CHL1    C8 7896   1.612   4.009   6.756
   74CHL1    H8 7897   1.505   4.034   6.744
   74CHL1   C14 7898   1.645   4.000   6.903
   74CHL1   H14 7899   1.757   3.999   6.905
   74CHL1   C15 7900   1.608   3.870   6.976
   74CHL1  H15A 7901   1.509   3.834   6.941
   74CHL1  H15B 7902   1.683   3.790   6.958
   74CHL1   C16 7903   1.601   3.910   7.122
   74CHL1  H16A 7904   1.498   3.891   7.157
   74CHL1  H16B 7905   1.671   3.850   7.184
   74CHL1   C17 7906   1.634   4.063   7.132
   74CHL1   H17 7907   1.743   4.071   7.149
   74CHL1   C13 7908   1.609   4.121   6.990
   74CHL1   C18 7909   1.460   4.163   6.982
   74CHL1  H18A 7910   1.395   4.088   7.031
   74CHL1  H18B 7911   1.445   4.260   7.034
   74CHL1  H18C 7912   1.427   4.177   6.877
   74CHL1   C12 7913   1.700   4.234   6.937
   74CHL1  H12A 7914   1.677   4.329   6.990
   74CHL1  H12B 7915   1.806   4.208   6.958
   74CHL1   C11 7916   1.683   4.254   6.783
   74CHL1  H11A 7917   1.581   4.297   6.769
   74CHL1  H11B 7918   1.757   4.328   6.748
   74CHL1    C9 7919   1.695   4.123   6.697
   74CHL1    H9 7920   1.801   4.091   6.707
   74CHL1   C10 7921   1.670   4.139   6.544
   74CHL1   C19 7922   1.542   4.223   6.522
   74CHL1  H19A 7923   1.456   4.179   6.577
   74CHL1  H19B 7924   1.557   4.327   6.559
   74CHL1  H19C 7925   1.514   4.231   6.415
   74CHL1    C1 7926   1.792   4.210   6.478
   74CHL1   H1A 7927   1.799   4.313   6.518
   74CHL1   H1B 7928   1.885   4.156   6.508
   74CHL1    C2 7929   1.787   4.214   6.323
   74CHL1   H2A 7930   1.879   4.262   6.282
   74CHL1   H2B 7931   1.700   4.275   6.291
   74CHL1   C20 7932   1.564   4.122   7.257
   74CHL1   H20 7933   1.454   4.127   7.240
   74CHL1   C21 7934   1.615   4.265   7.282
   74CHL1  H21A 7935   1.724   4.264   7.304
   74CHL1  H21B 7936   1.562   4.311   7.368
   74CHL1  H21C 7937   1.597   4.330   7.193
   74CHL1   C22 7938   1.587   4.030   7.380
   74CHL1  H22A 7939   1.539   3.931   7.363
   74CHL1  H22B 7940   1.696   4.014   7.392
   74CHL1   C23 7941   1.530   4.076   7.516
   74CHL1  H23A 7942   1.586   4.166   7.548
   74CHL1  H23B 7943   1.423   4.103   7.506
   74CHL1   C24 7944   1.545   3.962   7.619
   74CHL1  H24A 7945   1.468   3.885   7.599
   74CHL1  H24B 7946   1.644   3.913   7.604
   74CHL1   C25 7947   1.538   4.004   7.767
   74CHL1   H25 7948   1.443   4.059   7.783
   74CHL1   C26 7949   1.539   3.882   7.860
   74CHL1  H26A 7950   1.539   3.915   7.967
   74CHL1  H26B 7951   1.449   3.818   7.844
   74CHL1  H26C 7952   1.629   3.820   7.842
   74CHL1   C27 7953   1.655   4.094   7.805
   74CHL1  H27A 7954   1.651   4.117   7.913
   74CHL1  H27B 7955   1.752   4.043   7.783
   74CHL1  H27C 7956   1.653   4.189   7.748
   75CHL1    C3 7957   5.006   5.776   6.231
   75CHL1    H3 7958   5.064   5.865   6.264
   75CHL1    O3 7959   4.992   5.779   6.090
   75CHL1   H3' 7960   5.079   5.759   6.055
   75CHL1    C4 7961   5.080   5.648   6.272
   75CHL1   H4A 7962   5.024   5.561   6.231
   75CHL1   H4B 7963   5.180   5.647   6.223
   75CHL1    C5 7964   5.092   5.635   6.422
   75CHL1    C6 7965   5.211   5.623   6.482
   75CHL1    H6 7966   5.303   5.620   6.421
   75CHL1    C7 7967   5.229   5.605   6.630
   75CHL1   H7A 7968   5.303   5.524   6.650
   75CHL1   H7B 7969   5.269   5.699   6.674
   75CHL1    C8 7970   5.096   5.568   6.701
   75CHL1    H8 7971   5.073   5.462   6.676
   75CHL1   C14 7972   5.111   5.583   6.851
   75CHL1   H14 7973   5.131   5.691   6.869
   75CHL1   C15 7974   5.230   5.509   6.914
   75CHL1  H15A 7975   5.238   5.407   6.873
   75CHL1  H15B 7976   5.323   5.566   6.894
   75CHL1   C16 7977   5.194   5.505   7.063
   75CHL1  H16A 7978   5.201   5.400   7.098
   75CHL1  H16B 7979   5.263   5.568   7.124
   75CHL1   C17 7980   5.048   5.558   7.077
   75CHL1   H17 7981   5.056   5.667   7.100
   75CHL1   C13 7982   4.988   5.549   6.934
   75CHL1   C18 7983   4.944   5.402   6.909
   75CHL1  H18A 7984   4.853   5.379   6.967
   75CHL1  H18B 7985   4.920   5.384   6.802
   75CHL1  H18C 7986   5.024   5.330   6.938
   75CHL1   C12 7987   4.880   5.650   6.893
   75CHL1  H12A 7988   4.784   5.631   6.946
   75CHL1  H12B 7989   4.914   5.752   6.920
   75CHL1   C11 7990   4.853   5.645   6.741
   75CHL1  H11A 7991   4.802   5.548   6.721
   75CHL1  H11B 7992   4.781   5.725   6.714
   75CHL1    C9 7993   4.981   5.658   6.653
   75CHL1    H9 7994   5.017   5.761   6.670
   75CHL1   C10 7995   4.958   5.645   6.500
   75CHL1   C19 7996   4.877   5.515   6.472
   75CHL1  H19A 7997   4.775   5.522   6.515
   75CHL1  H19B 7998   4.864   5.498   6.363
   75CHL1  H19C 7999   4.928   5.426   6.514
   75CHL1    C1 8000   4.879   5.769   6.450
   75CHL1   H1A 8001   4.777   5.766   6.494
   75CHL1   H1B 8002   4.929   5.861   6.488
   75CHL1    C2 8003   4.867   5.780   6.297
   75CHL1   H2A 8004   4.816   5.875   6.270
   75CHL1   H2B 8005   4.806   5.696   6.258
   75CHL1   C20 8006   4.973   5.491   7.193
   75CHL1   H20 8007   4.956   5.385   7.167
   75CHL1   C21 8008   4.836   5.559   7.213
   75CHL1  H21A 8009   4.770   5.542   7.126
   75CHL1  H21B 8010   4.848   5.668   7.231
   75CHL1  H21C 8011   4.783   5.514   7.300
   75CHL1   C22 8012   5.054   5.489   7.326
   75CHL1  H22A 8013   5.157   5.452   7.307
   75CHL1  H22B 8014   5.063   5.592   7.367
   75CHL1   C23 8015   4.993   5.395   7.430
   75CHL1  H23A 8016   4.929   5.322   7.376
   75CHL1  H23B 8017   5.073   5.338   7.481
   75CHL1   C24 8018   4.908   5.465   7.537
   75CHL1  H24A 8019   4.974   5.498   7.620
   75CHL1  H24B 8020   4.862   5.557   7.494
   75CHL1   C25 8021   4.795   5.377   7.591
   75CHL1   H25 8022   4.729   5.350   7.506
   75CHL1   C26 8023   4.846   5.245   7.652
   75CHL1  H26A 8024   4.953   5.253   7.682
   75CHL1  H26B 8025   4.787   5.216   7.741
   75CHL1  H26C 8026   4.837   5.164   7.577
   75CHL1   C27 8027   4.709   5.454   7.691
   75CHL1  H27A 8028   4.650   5.533   7.641
   75CHL1  H27B 8029   4.639   5.384   7.742
   75CHL1  H27C 8030   4.773   5.501   7.769
   76CHL1    C3 8031   2.770   1.257   6.260
   76CHL1    H3 8032   2.867   1.202   6.266
   76CHL1    O3 8033   2.736   1.278   6.124
   76CHL1   H3' 8034   2.646   1.312   6.127
   76CHL1    C4 8035   2.659   1.175   6.326
   76CHL1   H4A 8036   2.562   1.222   6.301
   76CHL1   H4B 8037   2.657   1.074   6.278
   76CHL1    C5 8038   2.676   1.167   6.476
   76CHL1    C6 8039   2.690   1.050   6.537
   76CHL1    H6 8040   2.686   0.957   6.479
   76CHL1    C7 8041   2.700   1.035   6.686
   76CHL1   H7A 8042   2.642   0.946   6.720
   76CHL1   H7B 8043   2.805   1.020   6.717
   76CHL1    C8 8044   2.651   1.160   6.761
   76CHL1    H8 8045   2.540   1.165   6.754
   76CHL1   C14 8046   2.695   1.150   6.905
   76CHL1   H14 8047   2.806   1.165   6.904
   76CHL1   C15 8048   2.677   1.014   6.976
   76CHL1  H15A 8049   2.573   0.977   6.961
   76CHL1  H15B 8050   2.748   0.937   6.940
   76CHL1   C16 8051   2.702   1.050   7.122
   76CHL1  H16A 8052   2.620   1.009   7.185
   76CHL1  H16B 8053   2.799   1.009   7.157
   76CHL1   C17 8054   2.704   1.207   7.131
   76CHL1   H17 8055   2.811   1.237   7.124
   76CHL1   C13 8056   2.641   1.257   6.999
   76CHL1   C18 8057   2.487   1.248   7.009
   76CHL1  H18A 8058   2.454   1.148   7.045
   76CHL1  H18B 8059   2.447   1.323   7.080
   76CHL1  H18C 8060   2.439   1.267   6.911
   76CHL1   C12 8061   2.689   1.393   6.943
   76CHL1  H12A 8062   2.643   1.476   7.000
   76CHL1  H12B 8063   2.800   1.400   6.956
   76CHL1   C11 8064   2.658   1.410   6.792
   76CHL1  H11A 8065   2.547   1.420   6.784
   76CHL1  H11B 8066   2.704   1.504   6.754
   76CHL1    C9 8067   2.705   1.290   6.703
   76CHL1    H9 8068   2.816   1.285   6.715
   76CHL1   C10 8069   2.680   1.303   6.549
   76CHL1   C19 8070   2.546   1.379   6.529
   76CHL1  H19A 8071   2.516   1.385   6.422
   76CHL1  H19B 8072   2.464   1.329   6.586
   76CHL1  H19C 8073   2.555   1.483   6.565
   76CHL1    C1 8074   2.796   1.381   6.482
   76CHL1   H1A 8075   2.802   1.483   6.527
   76CHL1   H1B 8076   2.892   1.330   6.505
   76CHL1    C2 8077   2.784   1.394   6.329
   76CHL1   H2A 8078   2.872   1.447   6.287
   76CHL1   H2B 8079   2.693   1.452   6.304
   76CHL1   C20 8080   2.655   1.255   7.268
   76CHL1   H20 8081   2.555   1.211   7.288
   76CHL1   C21 8082   2.643   1.409   7.276
   76CHL1  H21A 8083   2.740   1.457   7.251
   76CHL1  H21B 8084   2.614   1.440   7.378
   76CHL1  H21C 8085   2.566   1.447   7.206
   76CHL1   C22 8086   2.754   1.205   7.377
   76CHL1  H22A 8087   2.797   1.107   7.349
   76CHL1  H22B 8088   2.839   1.276   7.382
   76CHL1   C23 8089   2.696   1.184   7.518
   76CHL1  H23A 8090   2.661   1.281   7.559
   76CHL1  H23B 8091   2.611   1.113   7.514
   76CHL1   C24 8092   2.807   1.126   7.608
   76CHL1  H24A 8093   2.848   1.036   7.558
   76CHL1  H24B 8094   2.888   1.203   7.611
   76CHL1   C25 8095   2.769   1.086   7.751
   76CHL1   H25 8096   2.690   1.008   7.744
   76CHL1   C26 8097   2.888   1.024   7.826
   76CHL1  H26A 8098   2.970   1.099   7.837
   76CHL1  H26B 8099   2.858   0.991   7.927
   76CHL1  H26C 8100   2.928   0.937   7.770
   76CHL1   C27 8101   2.714   1.204   7.832
   76CHL1  H27A 8102   2.688   1.172   7.934
   76CHL1  H27B 8103   2.791   1.284   7.838
   76CHL1  H27C 8104   2.623   1.246   7.784
   77CHL1    C3 8105   1.993   5.535   6.227
   77CHL1    H3 8106   1.888   5.567   6.247
   77CHL1    O3 8107   2.020   5.545   6.088
   77CHL1   H3' 8108   1.945   5.507   6.042
   77CHL1    C4 8109   2.088   5.628   6.304
   77CHL1   H4A 8110   2.193   5.607   6.274
   77CHL1   H4B 8111   2.068   5.732   6.273
   77CHL1    C5 8112   2.067   5.605   6.452
   77CHL1    C6 8113   2.013   5.701   6.526
   77CHL1    H6 8114   1.987   5.797   6.478
   77CHL1    C7 8115   1.987   5.690   6.673
   77CHL1   H7A 8116   2.003   5.787   6.723
   77CHL1   H7B 8117   1.881   5.660   6.691
   77CHL1    C8 8118   2.081   5.586   6.736
   77CHL1    H8 8119   2.183   5.628   6.732
   77CHL1   C14 8120   2.040   5.566   6.882
   77CHL1   H14 8121   1.941   5.517   6.880
   77CHL1   C15 8122   2.021   5.692   6.968
   77CHL1  H15A 8123   2.104   5.763   6.950
   77CHL1  H15B 8124   1.924   5.743   6.946
   77CHL1   C16 8125   2.026   5.639   7.112
   77CHL1  H16A 8126   2.098   5.703   7.167
   77CHL1  H16B 8127   1.927   5.646   7.161
   77CHL1   C17 8128   2.074   5.490   7.105
   77CHL1   H17 8129   1.982   5.428   7.110
   77CHL1   C13 8130   2.132   5.474   6.961
   77CHL1   C18 8131   2.275   5.526   6.964
   77CHL1  H18A 8132   2.317   5.534   6.861
   77CHL1  H18B 8133   2.278   5.627   7.011
   77CHL1  H18C 8134   2.342   5.457   7.020
   77CHL1   C12 8135   2.132   5.340   6.886
   77CHL1  H12A 8136   2.194   5.265   6.940
   77CHL1  H12B 8137   2.027   5.305   6.880
   77CHL1   C11 8138   2.169   5.350   6.736
   77CHL1  H11A 8139   2.276   5.378   6.729
   77CHL1  H11B 8140   2.157   5.249   6.690
   77CHL1    C9 8141   2.079   5.452   6.661
   77CHL1    H9 8142   1.975   5.415   6.672
   77CHL1   C10 8143   2.102   5.465   6.506
   77CHL1   C19 8144   2.246   5.420   6.474
   77CHL1  H19A 8145   2.320   5.471   6.539
   77CHL1  H19B 8146   2.255   5.310   6.491
   77CHL1  H19C 8147   2.274   5.438   6.368
   77CHL1    C1 8148   2.004   5.374   6.427
   77CHL1   H1A 8149   2.025   5.268   6.454
   77CHL1   H1B 8150   1.900   5.396   6.460
   77CHL1    C2 8151   2.011   5.390   6.273
   77CHL1   H2A 8152   1.930   5.330   6.225
   77CHL1   H2B 8153   2.109   5.352   6.237
   77CHL1   C20 8154   2.163   5.454   7.227
   77CHL1   H20 8155   2.265   5.496   7.210
   77CHL1   C21 8156   2.182   5.302   7.238
   77CHL1  H21A 8157   2.238   5.263   7.149
   77CHL1  H21B 8158   2.084   5.250   7.244
   77CHL1  H21C 8159   2.241   5.277   7.328
   77CHL1   C22 8160   2.123   5.517   7.364
   77CHL1  H22A 8161   2.195   5.480   7.440
   77CHL1  H22B 8162   2.140   5.627   7.359
   77CHL1   C23 8163   1.981   5.496   7.418
   77CHL1  H23A 8164   1.906   5.521   7.340
   77CHL1  H23B 8165   1.968   5.389   7.445
   77CHL1   C24 8166   1.957   5.584   7.543
   77CHL1  H24A 8167   2.033   5.557   7.619
   77CHL1  H24B 8168   1.971   5.691   7.517
   77CHL1   C25 8169   1.818   5.567   7.607
   77CHL1   H25 8170   1.801   5.458   7.618
   77CHL1   C26 8171   1.812   5.628   7.749
   77CHL1  H26A 8172   1.712   5.611   7.794
   77CHL1  H26B 8173   1.888   5.581   7.814
   77CHL1  H26C 8174   1.831   5.737   7.744
   77CHL1   C27 8175   1.705   5.626   7.520
   77CHL1  H27A 8176   1.607   5.608   7.569
   77CHL1  H27B 8177   1.719   5.736   7.508
   77CHL1  H27C 8178   1.704   5.579   7.420
   78CHL1    C3 8179   4.862   1.219   6.234
   78CHL1    H3 8180   4.952   1.279   6.209
   78CHL1    O3 8181   4.784   1.201   6.116
   78CHL1   H3' 8182   4.767   1.288   6.080
   78CHL1    C4 8183   4.905   1.080   6.283
   78CHL1   H4A 8184   4.814   1.018   6.298
   78CHL1   H4B 8185   4.963   1.031   6.202
   78CHL1    C5 8186   4.985   1.095   6.410
   78CHL1    C6 8187   5.117   1.071   6.410
   78CHL1    H6 8188   5.167   1.036   6.318
   78CHL1    C7 8189   5.205   1.090   6.530
   78CHL1   H7A 8190   5.280   1.008   6.536
   78CHL1   H7B 8191   5.262   1.185   6.517
   78CHL1    C8 8192   5.125   1.096   6.662
   78CHL1    H8 8193   5.096   0.994   6.693
   78CHL1   C14 8194   5.213   1.153   6.772
   78CHL1   H14 8195   5.226   1.260   6.742
   78CHL1   C15 8196   5.357   1.102   6.789
   78CHL1  H15A 8197   5.360   0.991   6.786
   78CHL1  H15B 8198   5.421   1.142   6.707
   78CHL1   C16 8199   5.398   1.152   6.928
   78CHL1  H16A 8200   5.426   1.067   6.994
   78CHL1  H16B 8201   5.483   1.224   6.922
   78CHL1   C17 8202   5.271   1.223   6.981
   78CHL1   H17 8203   5.275   1.323   6.931
   78CHL1   C13 8204   5.152   1.154   6.911
   78CHL1   C18 8205   5.131   1.012   6.967
   78CHL1  H18A 8206   5.076   0.948   6.895
   78CHL1  H18B 8207   5.228   0.963   6.992
   78CHL1  H18C 8208   5.070   1.016   7.059
   78CHL1   C12 8209   5.017   1.227   6.908
   78CHL1  H12A 8210   4.965   1.217   7.006
   78CHL1  H12B 8211   5.040   1.335   6.892
   78CHL1   C11 8212   4.926   1.182   6.792
   78CHL1  H11A 8213   4.892   1.079   6.818
   78CHL1  H11B 8214   4.837   1.248   6.788
   78CHL1    C9 8215   4.998   1.181   6.654
   78CHL1    H9 8216   5.034   1.285   6.638
   78CHL1   C10 8217   4.907   1.151   6.530
   78CHL1   C19 8218   4.802   1.047   6.577
   78CHL1  H19A 8219   4.749   0.998   6.492
   78CHL1  H19B 8220   4.848   0.966   6.638
   78CHL1  H19C 8221   4.725   1.096   6.640
   78CHL1    C1 8222   4.837   1.284   6.485
   78CHL1   H1A 8223   4.756   1.308   6.558
   78CHL1   H1B 8224   4.910   1.367   6.493
   78CHL1    C2 8225   4.779   1.292   6.341
   78CHL1   H2A 8226   4.768   1.399   6.312
   78CHL1   H2B 8227   4.676   1.251   6.341
   78CHL1   C20 8228   5.265   1.263   7.127
   78CHL1   H20 8229   5.169   1.319   7.135
   78CHL1   C21 8230   5.381   1.362   7.151
   78CHL1  H21A 8231   5.380   1.444   7.076
   78CHL1  H21B 8232   5.479   1.309   7.145
   78CHL1  H21C 8233   5.373   1.408   7.252
   78CHL1   C22 8234   5.259   1.159   7.241
   78CHL1  H22A 8235   5.194   1.074   7.212
   78CHL1  H22B 8236   5.360   1.119   7.263
   78CHL1   C23 8237   5.196   1.226   7.365
   78CHL1  H23A 8238   5.269   1.294   7.413
   78CHL1  H23B 8239   5.112   1.290   7.329
   78CHL1   C24 8240   5.135   1.130   7.468
   78CHL1  H24A 8241   5.035   1.170   7.497
   78CHL1  H24B 8242   5.119   1.030   7.422
   78CHL1   C25 8243   5.219   1.117   7.596
   78CHL1   H25 8244   5.237   1.219   7.636
   78CHL1   C26 8245   5.142   1.037   7.703
   78CHL1  H26A 8246   5.044   1.085   7.723
   78CHL1  H26B 8247   5.125   0.933   7.668
   78CHL1  H26C 8248   5.201   1.034   7.797
   78CHL1   C27 8249   5.354   1.051   7.565
   78CHL1  H27A 8250   5.420   1.121   7.511
   78CHL1  H27B 8251   5.402   1.022   7.661
   78CHL1  H27C 8252   5.340   0.960   7.504
   79CHL1    C3 8253   4.320   6.449   6.271
   79CHL1    H3 8254   4.212   6.455   6.297
   79CHL1    O3 8255   4.335   6.469   6.131
   79CHL1   H3' 8256   4.347   6.564   6.121
   79CHL1    C4 8257   4.398   6.558   6.346
   79CHL1   H4A 8258   4.503   6.559   6.309
   79CHL1   H4B 8259   4.355   6.657   6.319
   79CHL1    C5 8260   4.392   6.530   6.494
   79CHL1    C6 8261   4.337   6.618   6.578
   79CHL1    H6 8262   4.299   6.714   6.538
   79CHL1    C7 8263   4.333   6.600   6.726
   79CHL1   H7A 8264   4.361   6.694   6.778
   79CHL1   H7B 8265   4.229   6.575   6.757
   79CHL1    C8 8266   4.427   6.489   6.777
   79CHL1    H8 8267   4.531   6.528   6.774
   79CHL1   C14 8268   4.389   6.450   6.918
   79CHL1   H14 8269   4.293   6.396   6.910
   79CHL1   C15 8270   4.361   6.562   7.020
   79CHL1  H15A 8271   4.445   6.634   7.019
   79CHL1  H15B 8272   4.266   6.616   6.999
   79CHL1   C16 8273   4.356   6.485   7.152
   79CHL1  H16A 8274   4.409   6.540   7.232
   79CHL1  H16B 8275   4.250   6.470   7.184
   79CHL1   C17 8276   4.421   6.345   7.125
   79CHL1   H17 8277   4.336   6.274   7.112
   79CHL1   C13 8278   4.486   6.353   6.985
   79CHL1   C18 8279   4.629   6.415   6.990
   79CHL1  H18A 8280   4.688   6.389   6.900
   79CHL1  H18B 8281   4.625   6.526   6.994
   79CHL1  H18C 8282   4.688   6.379   7.078
   79CHL1   C12 8283   4.483   6.224   6.901
   79CHL1  H12A 8284   4.556   6.150   6.940
   79CHL1  H12B 8285   4.381   6.181   6.910
   79CHL1   C11 8286   4.512   6.251   6.751
   79CHL1  H11A 8287   4.619   6.277   6.742
   79CHL1  H11B 8288   4.496   6.157   6.693
   79CHL1    C9 8289   4.423   6.364   6.690
   79CHL1    H9 8290   4.318   6.327   6.698
   79CHL1   C10 8291   4.447   6.393   6.540
   79CHL1   C19 8292   4.600   6.383   6.510
   79CHL1  H19A 8293   4.658   6.445   6.581
   79CHL1  H19B 8294   4.634   6.278   6.520
   79CHL1  H19C 8295   4.624   6.414   6.407
   79CHL1    C1 8296   4.372   6.285   6.459
   79CHL1   H1A 8297   4.416   6.185   6.479
   79CHL1   H1B 8298   4.266   6.282   6.492
   79CHL1    C2 8299   4.373   6.310   6.308
   79CHL1   H2A 8300   4.307   6.234   6.262
   79CHL1   H2B 8301   4.476   6.297   6.267
   79CHL1   C20 8302   4.500   6.294   7.246
   79CHL1   H20 8303   4.576   6.370   7.273
   79CHL1   C21 8304   4.572   6.162   7.212
   79CHL1  H21A 8305   4.653   6.178   7.138
   79CHL1  H21B 8306   4.500   6.089   7.169
   79CHL1  H21C 8307   4.619   6.118   7.303
   79CHL1   C22 8308   4.405   6.273   7.367
   79CHL1  H22A 8309   4.338   6.362   7.378
   79CHL1  H22B 8310   4.340   6.186   7.346
   79CHL1   C23 8311   4.474   6.255   7.504
   79CHL1  H23A 8312   4.395   6.241   7.580
   79CHL1  H23B 8313   4.538   6.165   7.504
   79CHL1   C24 8314   4.557   6.378   7.540
   79CHL1  H24A 8315   4.652   6.376   7.481
   79CHL1  H24B 8316   4.500   6.468   7.510
   79CHL1   C25 8317   4.594   6.392   7.688
   79CHL1   H25 8318   4.500   6.380   7.746
   79CHL1   C26 8319   4.693   6.284   7.734
   79CHL1  H26A 8320   4.786   6.288   7.674
   79CHL1  H26B 8321   4.719   6.300   7.841
   79CHL1  H26C 8322   4.647   6.183   7.724
   79CHL1   C27 8323   4.649   6.533   7.714
   79CHL1  H27A 8324   4.684   6.544   7.819
   79CHL1  H27B 8325   4.735   6.555   7.647
   79CHL1  H27C 8326   4.572   6.610   7.694
   80CHL1    C3 8327   1.109   4.498   6.273
   80CHL1    H3 8328   1.195   4.428   6.279
   80CHL1    O3 8329   1.089   4.533   6.137
   80CHL1   H3' 8330   0.994   4.545   6.127
   80CHL1    C4 8331   0.982   4.431   6.328
   80CHL1   H4A 8332   0.895   4.498   6.311
   80CHL1   H4B 8333   0.964   4.339   6.269
   80CHL1    C5 8334   0.994   4.401   6.477
   80CHL1    C6 8335   0.983   4.277   6.526
   80CHL1    H6 8336   0.961   4.193   6.458
   80CHL1    C7 8337   0.996   4.244   6.672
   80CHL1   H7A 8338   0.924   4.165   6.702
   80CHL1   H7B 8339   1.098   4.206   6.693
   80CHL1    C8 8340   0.976   4.367   6.764
   80CHL1    H8 8341   0.869   4.396   6.762
   80CHL1   C14 8342   1.018   4.333   6.907
   80CHL1   H14 8343   1.126   4.307   6.901
   80CHL1   C15 8344   0.951   4.213   6.975
   80CHL1  H15A 8345   0.841   4.217   6.956
   80CHL1  H15B 8346   0.992   4.118   6.938
   80CHL1   C16 8347   0.978   4.234   7.125
   80CHL1  H16A 8348   0.881   4.238   7.179
   80CHL1  H16B 8349   1.040   4.153   7.168
   80CHL1   C17 8350   1.053   4.371   7.137
   80CHL1   H17 8351   1.160   4.347   7.125
   80CHL1   C13 8352   1.010   4.447   7.008
   80CHL1   C18 8353   0.864   4.497   7.025
   80CHL1  H18A 8354   0.821   4.529   6.927
   80CHL1  H18B 8355   0.797   4.418   7.067
   80CHL1  H18C 8356   0.862   4.585   7.092
   80CHL1   C12 8357   1.100   4.560   6.956
   80CHL1  H12A 8358   1.089   4.650   7.021
   80CHL1  H12B 8359   1.206   4.527   6.958
   80CHL1   C11 8360   1.061   4.601   6.813
   80CHL1  H11A 8361   0.961   4.648   6.818
   80CHL1  H11B 8362   1.131   4.678   6.775
   80CHL1    C9 8363   1.061   4.483   6.713
   80CHL1    H9 8364   1.165   4.444   6.712
   80CHL1   C10 8365   1.030   4.522   6.565
   80CHL1   C19 8366   0.910   4.621   6.565
   80CHL1  H19A 8367   0.877   4.647   6.463
   80CHL1  H19B 8368   0.824   4.578   6.620
   80CHL1  H19C 8369   0.939   4.717   6.614
   80CHL1    C1 8370   1.157   4.587   6.502
   80CHL1   H1A 8371   1.184   4.678   6.560
   80CHL1   H1B 8372   1.242   4.517   6.513
   80CHL1    C2 8373   1.143   4.624   6.354
   80CHL1   H2A 8374   1.238   4.668   6.317
   80CHL1   H2B 8375   1.064   4.700   6.341
   80CHL1   C20 8376   1.038   4.442   7.273
   80CHL1   H20 8377   0.943   4.500   7.274
   80CHL1   C21 8378   1.157   4.539   7.290
   80CHL1  H21A 8379   1.144   4.600   7.381
   80CHL1  H21B 8380   1.165   4.609   7.205
   80CHL1  H21C 8381   1.252   4.482   7.298
   80CHL1   C22 8382   1.033   4.346   7.396
   80CHL1  H22A 8383   0.952   4.271   7.383
   80CHL1  H22B 8384   1.129   4.292   7.402
   80CHL1   C23 8385   1.004   4.420   7.528
   80CHL1  H23A 8386   1.082   4.496   7.548
   80CHL1  H23B 8387   0.908   4.474   7.517
   80CHL1   C24 8388   0.994   4.330   7.653
   80CHL1  H24A 8389   0.967   4.395   7.739
   80CHL1  H24B 8390   0.911   4.257   7.639
   80CHL1   C25 8391   1.122   4.252   7.691
   80CHL1   H25 8392   1.138   4.172   7.615
   80CHL1   C26 8393   1.248   4.339   7.695
   80CHL1  H26A 8394   1.336   4.279   7.728
   80CHL1  H26B 8395   1.271   4.381   7.595
   80CHL1  H26C 8396   1.235   4.423   7.767
   80CHL1   C27 8397   1.102   4.184   7.827
   80CHL1  H27A 8398   1.015   4.115   7.824
   80CHL1  H27B 8399   1.192   4.127   7.856
   80CHL1  H27C 8400   1.083   4.261   7.906
   81CHL1    C3 8401   6.395   2.549   6.231
   81CHL1    H3 8402   6.451   2.454   6.220
   81CHL1    O3 8403   6.353   2.595   6.103
   81CHL1   H3' 8404   6.279   2.652   6.123
   81CHL1    C4 8405   6.268   2.525   6.317
   81CHL1   H4A 8406   6.200   2.612   6.306
   81CHL1   H4B 8407   6.215   2.438   6.273
   81CHL1    C5 8408   6.299   2.504   6.464
   81CHL1    C6 8409   6.259   2.396   6.532
   81CHL1    H6 8410   6.199   2.318   6.482
   81CHL1    C7 8411   6.284   2.380   6.680
   81CHL1   H7A 8412   6.197   2.331   6.730
   81CHL1   H7B 8413   6.372   2.315   6.698
   81CHL1    C8 8414   6.310   2.518   6.746
   81CHL1    H8 8415   6.216   2.576   6.735
   81CHL1   C14 8416   6.345   2.506   6.893
   81CHL1   H14 8417   6.441   2.452   6.897
   81CHL1   C15 8418   6.252   2.425   6.984
   81CHL1  H15A 8419   6.148   2.462   6.972
   81CHL1  H15B 8420   6.254   2.316   6.963
   81CHL1   C16 8421   6.304   2.461   7.123
   81CHL1  H16A 8422   6.224   2.452   7.198
   81CHL1  H16B 8423   6.384   2.388   7.150
   81CHL1   C17 8424   6.370   2.602   7.111
   81CHL1   H17 8425   6.478   2.587   7.131
   81CHL1   C13 8426   6.367   2.641   6.961
   81CHL1   C18 8427   6.249   2.739   6.936
   81CHL1  H18A 8428   6.155   2.700   6.981
   81CHL1  H18B 8429   6.271   2.838   6.982
   81CHL1  H18C 8430   6.232   2.758   6.828
   81CHL1   C12 8431   6.499   2.695   6.903
   81CHL1  H12A 8432   6.526   2.792   6.949
   81CHL1  H12B 8433   6.581   2.623   6.925
   81CHL1   C11 8434   6.486   2.712   6.751
   81CHL1  H11A 8435   6.423   2.803   6.738
   81CHL1  H11B 8436   6.586   2.735   6.708
   81CHL1    C9 8437   6.424   2.589   6.674
   81CHL1    H9 8438   6.506   2.514   6.672
   81CHL1   C10 8439   6.385   2.615   6.526
   81CHL1   C19 8440   6.309   2.749   6.521
   81CHL1  H19A 8441   6.375   2.835   6.546
   81CHL1  H19B 8442   6.272   2.772   6.419
   81CHL1  H19C 8443   6.223   2.748   6.591
   81CHL1    C1 8444   6.513   2.626   6.441
   81CHL1   H1A 8445   6.570   2.711   6.486
   81CHL1   H1B 8446   6.573   2.533   6.451
   81CHL1    C2 8447   6.488   2.655   6.292
   81CHL1   H2A 8448   6.584   2.655   6.236
   81CHL1   H2B 8449   6.443   2.756   6.282
   81CHL1   C20 8450   6.319   2.705   7.215
   81CHL1   H20 8451   6.225   2.752   7.181
   81CHL1   C21 8452   6.424   2.817   7.227
   81CHL1  H21A 8453   6.444   2.864   7.128
   81CHL1  H21B 8454   6.520   2.777   7.267
   81CHL1  H21C 8455   6.389   2.898   7.294
   81CHL1   C22 8456   6.283   2.643   7.352
   81CHL1  H22A 8457   6.174   2.619   7.351
   81CHL1  H22B 8458   6.336   2.546   7.369
   81CHL1   C23 8459   6.311   2.729   7.475
   81CHL1  H23A 8460   6.420   2.742   7.487
   81CHL1  H23B 8461   6.264   2.829   7.461
   81CHL1   C24 8462   6.255   2.664   7.602
   81CHL1  H24A 8463   6.144   2.670   7.599
   81CHL1  H24B 8464   6.284   2.557   7.605
   81CHL1   C25 8465   6.306   2.731   7.730
   81CHL1   H25 8466   6.416   2.714   7.737
   81CHL1   C26 8467   6.282   2.883   7.727
   81CHL1  H26A 8468   6.307   2.928   7.825
   81CHL1  H26B 8469   6.345   2.930   7.649
   81CHL1  H26C 8470   6.176   2.905   7.702
   81CHL1   C27 8471   6.240   2.669   7.852
   81CHL1  H27A 8472   6.277   2.718   7.945
   81CHL1  H27B 8473   6.130   2.682   7.847
   81CHL1  H27C 8474   6.262   2.560   7.858
   82CHL1    C3 8475   5.708   6.008   6.216
   82CHL1    H3 8476   5.719   6.118   6.232
   82CHL1    O3 8477   5.697   5.984   6.076
   82CHL1   H3' 8478   5.686   5.889   6.068
   82CHL1    C4 8479   5.831   5.935   6.269
   82CHL1   H4A 8480   5.824   5.827   6.244
   82CHL1   H4B 8481   5.920   5.974   6.216
   82CHL1    C5 8482   5.841   5.955   6.419
   82CHL1    C6 8483   5.947   6.018   6.471
   82CHL1    H6 8484   6.029   6.052   6.405
   82CHL1    C7 8485   5.966   6.039   6.617
   82CHL1   H7A 8486   6.070   6.014   6.644
   82CHL1   H7B 8487   5.946   6.145   6.644
   82CHL1    C8 8488   5.877   5.946   6.702
   82CHL1    H8 8489   5.921   5.844   6.692
   82CHL1   C14 8490   5.880   5.993   6.846
   82CHL1   H14 8491   5.817   6.084   6.851
   82CHL1   C15 8492   6.015   6.038   6.902
   82CHL1  H15A 8493   6.093   5.963   6.876
   82CHL1  H15B 8494   6.045   6.138   6.864
   82CHL1   C16 8495   5.992   6.039   7.052
   82CHL1  H16A 8496   6.080   5.990   7.098
   82CHL1  H16B 8497   5.983   6.143   7.092
   82CHL1   C17 8498   5.860   5.960   7.080
   82CHL1   H17 8499   5.782   6.036   7.102
   82CHL1   C13 8500   5.820   5.895   6.946
   82CHL1   C18 8501   5.890   5.756   6.938
   82CHL1  H18A 8502   5.998   5.766   6.960
   82CHL1  H18B 8503   5.847   5.685   7.012
   82CHL1  H18C 8504   5.878   5.709   6.838
   82CHL1   C12 8505   5.670   5.889   6.908
   82CHL1  H12A 8506   5.617   5.815   6.972
   82CHL1  H12B 8507   5.625   5.989   6.928
   82CHL1   C11 8508   5.648   5.856   6.757
   82CHL1  H11A 8509   5.678   5.750   6.746
   82CHL1  H11B 8510   5.540   5.865   6.732
   82CHL1    C9 8511   5.732   5.942   6.656
   82CHL1    H9 8512   5.695   6.046   6.666
   82CHL1   C10 8513   5.721   5.907   6.504
   82CHL1   C19 8514   5.712   5.754   6.491
   82CHL1  H19A 8515   5.799   5.706   6.540
   82CHL1  H19B 8516   5.618   5.716   6.537
   82CHL1  H19C 8517   5.709   5.720   6.385
   82CHL1    C1 8518   5.594   5.974   6.442
   82CHL1   H1A 8519   5.504   5.932   6.491
   82CHL1   H1B 8520   5.597   6.083   6.466
   82CHL1    C2 8521   5.581   5.959   6.289
   82CHL1   H2A 8522   5.493   6.017   6.252
   82CHL1   H2B 8523   5.565   5.852   6.264
   82CHL1   C20 8524   5.876   5.874   7.207
   82CHL1   H20 8525   5.947   5.791   7.187
   82CHL1   C21 8526   5.740   5.811   7.244
   82CHL1  H21A 8527   5.663   5.891   7.254
   82CHL1  H21B 8528   5.746   5.754   7.338
   82CHL1  H21C 8529   5.706   5.741   7.165
   82CHL1   C22 8530   5.938   5.957   7.322
   82CHL1  H22A 8531   6.044   5.980   7.298
   82CHL1  H22B 8532   5.885   6.055   7.330
   82CHL1   C23 8533   5.941   5.892   7.460
   82CHL1  H23A 8534   5.837   5.886   7.498
   82CHL1  H23B 8535   5.983   5.789   7.453
   82CHL1   C24 8536   6.027   5.974   7.557
   82CHL1  H24A 8537   6.133   5.970   7.522
   82CHL1  H24B 8538   5.996   6.081   7.555
   82CHL1   C25 8539   6.023   5.926   7.703
   82CHL1   H25 8540   6.019   5.815   7.703
   82CHL1   C26 8541   6.151   5.965   7.777
   82CHL1  H26A 8542   6.164   6.075   7.774
   82CHL1  H26B 8543   6.146   5.931   7.883
   82CHL1  H26C 8544   6.240   5.917   7.729
   82CHL1   C27 8545   5.901   5.981   7.779
   82CHL1  H27A 8546   5.808   5.936   7.740
   82CHL1  H27B 8547   5.907   5.956   7.887
   82CHL1  H27C 8548   5.896   6.091   7.769
   83CHL1    C3 8549   3.779   6.817   6.211
   83CHL1    H3 8550   3.886   6.792   6.228
   83CHL1    O3 8551   3.749   6.805   6.072
   83CHL1   H3' 8552   3.819   6.854   6.028
   83CHL1    C4 8553   3.690   6.719   6.290
   83CHL1   H4A 8554   3.584   6.736   6.261
   83CHL1   H4B 8555   3.715   6.617   6.256
   83CHL1    C5 8556   3.705   6.735   6.439
   83CHL1    C6 8557   3.738   6.631   6.518
   83CHL1    H6 8558   3.753   6.532   6.473
   83CHL1    C7 8559   3.748   6.639   6.667
   83CHL1   H7A 8560   3.697   6.552   6.714
   83CHL1   H7B 8561   3.855   6.636   6.698
   83CHL1    C8 8562   3.685   6.769   6.725
   83CHL1    H8 8563   3.574   6.758   6.721
   83CHL1   C14 8564   3.730   6.789   6.869
   83CHL1   H14 8565   3.840   6.802   6.866
   83CHL1   C15 8566   3.707   6.672   6.966
   83CHL1  H15A 8567   3.607   6.626   6.946
   83CHL1  H15B 8568   3.786   6.595   6.954
   83CHL1   C16 8569   3.709   6.736   7.105
   83CHL1  H16A 8570   3.611   6.716   7.154
   83CHL1  H16B 8571   3.790   6.695   7.169
   83CHL1   C17 8572   3.726   6.890   7.084
   83CHL1   H17 8573   3.836   6.909   7.079
   83CHL1   C13 8574   3.676   6.913   6.939
   83CHL1   C18 8575   3.522   6.907   6.941
   83CHL1  H18A 8576   3.482   6.818   6.995
   83CHL1  H18B 8577   3.482   6.998   6.992
   83CHL1  H18C 8578   3.480   6.906   6.838
   83CHL1   C12 8579   3.731   7.033   6.860
   83CHL1  H12A 8580   3.695   7.129   6.903
   83CHL1  H12B 8581   3.842   7.032   6.867
   83CHL1   C11 8582   3.690   7.026   6.711
   83CHL1  H11A 8583   3.580   7.044   6.706
   83CHL1  H11B 8584   3.738   7.110   6.657
   83CHL1    C9 8585   3.726   6.891   6.642
   83CHL1    H9 8586   3.837   6.887   6.644
   83CHL1   C10 8587   3.685   6.879   6.492
   83CHL1   C19 8588   3.535   6.913   6.476
   83CHL1  H19A 8589   3.503   6.909   6.369
   83CHL1  H19B 8590   3.473   6.840   6.532
   83CHL1  H19C 8591   3.513   7.016   6.510
   83CHL1    C1 8592   3.771   6.978   6.406
   83CHL1   H1A 8593   3.745   7.082   6.434
   83CHL1   H1B 8594   3.878   6.961   6.430
   83CHL1    C2 8595   3.754   6.962   6.254
   83CHL1   H2A 8596   3.825   7.030   6.202
   83CHL1   H2B 8597   3.651   6.993   6.225
   83CHL1   C20 8598   3.672   6.973   7.202
   83CHL1   H20 8599   3.561   6.982   7.192
   83CHL1   C21 8600   3.733   7.114   7.198
   83CHL1  H21A 8601   3.687   7.179   7.276
   83CHL1  H21B 8602   3.714   7.165   7.101
   83CHL1  H21C 8603   3.843   7.111   7.215
   83CHL1   C22 8604   3.699   6.906   7.341
   83CHL1  H22A 8605   3.644   6.810   7.346
   83CHL1  H22B 8606   3.807   6.885   7.350
   83CHL1   C23 8607   3.655   6.987   7.465
   83CHL1  H23A 8608   3.713   7.082   7.469
   83CHL1  H23B 8609   3.547   7.012   7.456
   83CHL1   C24 8610   3.678   6.910   7.597
   83CHL1  H24A 8611   3.612   6.821   7.599
   83CHL1  H24B 8612   3.783   6.874   7.597
   83CHL1   C25 8613   3.655   6.993   7.725
   83CHL1   H25 8614   3.714   7.087   7.716
   83CHL1   C26 8615   3.508   7.032   7.745
   83CHL1  H26A 8616   3.496   7.091   7.838
   83CHL1  H26B 8617   3.472   7.095   7.660
   83CHL1  H26C 8618   3.444   6.941   7.751
   83CHL1   C27 8619   3.706   6.919   7.850
   83CHL1  H27A 8620   3.694   6.982   7.940
   83CHL1  H27B 8621   3.649   6.824   7.864
   83CHL1  H27C 8622   3.814   6.894   7.839
   84CHL1    C3 8623   6.246   1.763   6.254
   84CHL1    H3 8624   6.332   1.833   6.267
   84CHL1    O3 8625   6.225   1.739   6.116
   84CHL1   H3' 8626   6.189   1.820   6.080
   84CHL1    C4 8627   6.278   1.629   6.322
   84CHL1   H4A 8628   6.200   1.556   6.294
   84CHL1   H4B 8629   6.374   1.592   6.279
   84CHL1    C5 8630   6.286   1.639   6.473
   84CHL1    C6 8631   6.394   1.597   6.541
   84CHL1    H6 8632   6.479   1.553   6.487
   84CHL1    C7 8633   6.405   1.599   6.691
   84CHL1   H7A 8634   6.443   1.501   6.728
   84CHL1   H7B 8635   6.480   1.675   6.721
   84CHL1    C8 8636   6.271   1.630   6.762
   84CHL1    H8 8637   6.213   1.535   6.766
   84CHL1   C14 8638   6.298   1.681   6.903
   84CHL1   H14 8639   6.345   1.781   6.889
   84CHL1   C15 8640   6.396   1.604   6.993
   84CHL1  H15A 8641   6.375   1.495   6.988
   84CHL1  H15B 8642   6.502   1.622   6.964
   84CHL1   C16 8643   6.365   1.658   7.134
   84CHL1  H16A 8644   6.342   1.573   7.202
   84CHL1  H16B 8645   6.449   1.716   7.177
   84CHL1   C17 8646   6.240   1.751   7.118
   84CHL1   H17 8647   6.278   1.852   7.097
   84CHL1   C13 8648   6.173   1.706   6.987
   84CHL1   C18 8649   6.098   1.572   7.011
   84CHL1  H18A 8650   6.164   1.495   7.056
   84CHL1  H18B 8651   6.013   1.587   7.081
   84CHL1  H18C 8652   6.057   1.532   6.916
   84CHL1   C12 8653   6.087   1.812   6.914
   84CHL1  H12A 8654   5.990   1.829   6.963
   84CHL1  H12B 8655   6.143   1.908   6.913
   84CHL1   C11 8656   6.059   1.772   6.768
   84CHL1  H11A 8657   5.990   1.684   6.771
   84CHL1  H11B 8658   6.005   1.855   6.719
   84CHL1    C9 8659   6.188   1.736   6.689
   84CHL1    H9 8660   6.250   1.828   6.691
   84CHL1   C10 8661   6.163   1.705   6.539
   84CHL1   C19 8662   6.043   1.608   6.527
   84CHL1  H19A 8663   6.027   1.576   6.421
   84CHL1  H19B 8664   6.060   1.517   6.589
   84CHL1  H19C 8665   5.949   1.657   6.560
   84CHL1    C1 8666   6.132   1.840   6.466
   84CHL1   H1A 8667   6.038   1.882   6.506
   84CHL1   H1B 8668   6.213   1.912   6.489
   84CHL1    C2 8669   6.120   1.827   6.313
   84CHL1   H2A 8670   6.105   1.928   6.269
   84CHL1   H2B 8671   6.032   1.765   6.289
   84CHL1   C20 8672   6.159   1.763   7.248
   84CHL1   H20 8673   6.139   1.661   7.289
   84CHL1   C21 8674   6.023   1.831   7.225
   84CHL1  H21A 8675   6.037   1.934   7.184
   84CHL1  H21B 8676   5.967   1.838   7.321
   84CHL1  H21C 8677   5.958   1.772   7.157
   84CHL1   C22 8678   6.242   1.842   7.353
   84CHL1  H22A 8679   6.335   1.785   7.376
   84CHL1  H22B 8680   6.273   1.938   7.307
   84CHL1   C23 8681   6.172   1.874   7.485
   84CHL1  H23A 8682   6.081   1.935   7.468
   84CHL1  H23B 8683   6.142   1.779   7.534
   84CHL1   C24 8684   6.265   1.955   7.576
   84CHL1  H24A 8685   6.356   1.894   7.596
   84CHL1  H24B 8686   6.299   2.045   7.522
   84CHL1   C25 8687   6.204   2.001   7.710
   84CHL1   H25 8688   6.134   2.084   7.687
   84CHL1   C26 8689   6.122   1.893   7.783
   84CHL1  H26A 8690   6.181   1.803   7.808
   84CHL1  H26B 8691   6.081   1.934   7.878
   84CHL1  H26C 8692   6.036   1.860   7.720
   84CHL1   C27 8693   6.316   2.057   7.799
   84CHL1  H27A 8694   6.358   2.150   7.755
   84CHL1  H27B 8695   6.279   2.080   7.902
   84CHL1  H27C 8696   6.398   1.983   7.808
   85CHL1    C3 8697   5.178   6.477   6.176
   85CHL1    H3 8698   5.198   6.369   6.165
   85CHL1    O3 8699   5.117   6.526   6.057
   85CHL1   H3' 8700   5.024   6.507   6.071
   85CHL1    C4 8701   5.078   6.500   6.290
   85CHL1   H4A 8702   5.050   6.607   6.293
   85CHL1   H4B 8703   4.984   6.444   6.268
   85CHL1    C5 8704   5.137   6.460   6.423
   85CHL1    C6 8705   5.075   6.370   6.501
   85CHL1    H6 8706   4.978   6.327   6.470
   85CHL1    C7 8707   5.122   6.334   6.639
   85CHL1   H7A 8708   5.035   6.330   6.709
   85CHL1   H7B 8709   5.171   6.235   6.639
   85CHL1    C8 8710   5.222   6.440   6.691
   85CHL1    H8 8711   5.162   6.533   6.708
   85CHL1   C14 8712   5.282   6.396   6.823
   85CHL1   H14 8713   5.339   6.303   6.803
   85CHL1   C15 8714   5.183   6.361   6.935
   85CHL1  H15A 8715   5.103   6.439   6.940
   85CHL1  H15B 8716   5.135   6.262   6.921
   85CHL1   C16 8717   5.269   6.367   7.062
   85CHL1  H16A 8718   5.215   6.424   7.140
   85CHL1  H16B 8719   5.290   6.265   7.100
   85CHL1   C17 8720   5.403   6.436   7.022
   85CHL1   H17 8721   5.478   6.356   7.008
   85CHL1   C13 8722   5.381   6.496   6.881
   85CHL1   C18 8723   5.313   6.635   6.894
   85CHL1  H18A 8724   5.219   6.625   6.954
   85CHL1  H18B 8725   5.379   6.710   6.942
   85CHL1  H18C 8726   5.284   6.676   6.795
   85CHL1   C12 8727   5.501   6.500   6.785
   85CHL1  H12A 8728   5.579   6.570   6.822
   85CHL1  H12B 8729   5.546   6.399   6.779
   85CHL1   C11 8730   5.457   6.545   6.644
   85CHL1  H11A 8731   5.437   6.654   6.651
   85CHL1  H11B 8732   5.542   6.533   6.573
   85CHL1    C9 8733   5.332   6.468   6.588
   85CHL1    H9 8734   5.371   6.367   6.562
   85CHL1   C10 8735   5.271   6.527   6.458
   85CHL1   C19 8736   5.244   6.677   6.479
   85CHL1  H19A 8737   5.195   6.724   6.391
   85CHL1  H19B 8738   5.178   6.695   6.567
   85CHL1  H19C 8739   5.339   6.733   6.494
   85CHL1    C1 8740   5.370   6.509   6.339
   85CHL1   H1A 8741   5.461   6.569   6.358
   85CHL1   H1B 8742   5.401   6.402   6.334
   85CHL1    C2 8743   5.311   6.550   6.202
   85CHL1   H2A 8744   5.383   6.527   6.121
   85CHL1   H2B 8745   5.294   6.660   6.201
   85CHL1   C20 8746   5.453   6.530   7.131
   85CHL1   H20 8747   5.379   6.613   7.144
   85CHL1   C21 8748   5.586   6.595   7.093
   85CHL1  H21A 8749   5.628   6.650   7.180
   85CHL1  H21B 8750   5.573   6.668   7.011
   85CHL1  H21C 8751   5.658   6.517   7.060
   85CHL1   C22 8752   5.465   6.464   7.270
   85CHL1  H22A 8753   5.517   6.536   7.337
   85CHL1  H22B 8754   5.363   6.447   7.312
   85CHL1   C23 8755   5.541   6.331   7.273
   85CHL1  H23A 8756   5.484   6.255   7.215
   85CHL1  H23B 8757   5.640   6.342   7.225
   85CHL1   C24 8758   5.559   6.283   7.417
   85CHL1  H24A 8759   5.635   6.350   7.464
   85CHL1  H24B 8760   5.464   6.295   7.473
   85CHL1   C25 8761   5.607   6.138   7.430
   85CHL1   H25 8762   5.690   6.122   7.358
   85CHL1   C26 8763   5.660   6.115   7.572
   85CHL1  H26A 8764   5.688   6.008   7.583
   85CHL1  H26B 8765   5.750   6.177   7.590
   85CHL1  H26C 8766   5.583   6.139   7.648
   85CHL1   C27 8767   5.494   6.039   7.399
   85CHL1  H27A 8768   5.405   6.060   7.462
   85CHL1  H27B 8769   5.465   6.045   7.292
   85CHL1  H27C 8770   5.528   5.935   7.420
   86CHL1    C3 8771   6.865   4.112   6.266
   86CHL1    H3 8772   6.940   4.190   6.292
   86CHL1    O3 8773   6.852   4.105   6.125
   86CHL1   H3' 8774   6.939   4.085   6.091
   86CHL1    C4 8775   6.909   3.975   6.320
   86CHL1   H4A 8776   6.837   3.899   6.284
   86CHL1   H4B 8777   7.007   3.950   6.273
   86CHL1    C5 8778   6.916   3.972   6.471
   86CHL1    C6 8779   7.029   3.936   6.534
   86CHL1    H6 8780   7.117   3.904   6.476
   86CHL1    C7 8781   7.043   3.928   6.683
   86CHL1   H7A 8782   7.090   3.831   6.713
   86CHL1   H7B 8783   7.110   4.009   6.718
   86CHL1    C8 8784   6.908   3.942   6.759
   86CHL1    H8 8785   6.853   3.845   6.752
   86CHL1   C14 8786   6.934   3.973   6.905
   86CHL1   H14 8787   6.981   4.073   6.907
   86CHL1   C15 8788   7.032   3.881   6.979
   86CHL1  H15A 8789   7.008   3.775   6.958
   86CHL1  H15B 8790   7.138   3.900   6.951
   86CHL1   C16 8791   7.005   3.913   7.127
   86CHL1  H16A 8792   6.990   3.817   7.182
   86CHL1  H16B 8793   7.090   3.968   7.172
   86CHL1   C17 8794   6.875   4.001   7.132
   86CHL1   H17 8795   6.909   4.106   7.136
   86CHL1   C13 8796   6.809   3.983   6.993
   86CHL1   C18 8797   6.730   3.851   6.994
   86CHL1  H18A 8798   6.644   3.855   7.064
   86CHL1  H18B 8799   6.687   3.832   6.893
   86CHL1  H18C 8800   6.794   3.764   7.022
   86CHL1   C12 8801   6.725   4.100   6.936
   86CHL1  H12A 8802   6.630   4.110   6.991
   86CHL1  H12B 8803   6.783   4.194   6.947
   86CHL1   C11 8804   6.694   4.080   6.785
   86CHL1  H11A 8805   6.622   3.996   6.777
   86CHL1  H11B 8806   6.643   4.171   6.747
   86CHL1    C9 8807   6.819   4.050   6.697
   86CHL1    H9 8808   6.880   4.142   6.701
   86CHL1   C10 8809   6.790   4.023   6.546
   86CHL1   C19 8810   6.683   3.912   6.532
   86CHL1  H19A 8811   6.716   3.818   6.582
   86CHL1  H19B 8812   6.587   3.944   6.577
   86CHL1  H19C 8813   6.663   3.889   6.425
   86CHL1    C1 8814   6.738   4.154   6.481
   86CHL1   H1A 8815   6.638   4.178   6.522
   86CHL1   H1B 8816   6.807   4.237   6.509
   86CHL1    C2 8817   6.730   4.151   6.327
   86CHL1   H2A 8818   6.699   4.251   6.289
   86CHL1   H2B 8819   6.653   4.078   6.295
   86CHL1   C20 8820   6.794   3.973   7.260
   86CHL1   H20 8821   6.764   3.866   7.261
   86CHL1   C21 8822   6.667   4.060   7.266
   86CHL1  H21A 8823   6.597   4.033   7.184
   86CHL1  H21B 8824   6.693   4.168   7.257
   86CHL1  H21C 8825   6.613   4.044   7.361
   86CHL1   C22 8826   6.881   3.997   7.387
   86CHL1  H22A 8827   6.979   3.945   7.376
   86CHL1  H22B 8828   6.903   4.106   7.395
   86CHL1   C23 8829   6.822   3.947   7.519
   86CHL1  H23A 8830   6.733   4.008   7.546
   86CHL1  H23B 8831   6.789   3.842   7.506
   86CHL1   C24 8832   6.926   3.955   7.632
   86CHL1  H24A 8833   7.012   3.890   7.604
   86CHL1  H24B 8834   6.965   4.059   7.637
   86CHL1   C25 8835   6.879   3.914   7.773
   86CHL1   H25 8836   6.968   3.919   7.839
   86CHL1   C26 8837   6.774   4.011   7.830
   86CHL1  H26A 8838   6.749   3.983   7.934
   86CHL1  H26B 8839   6.813   4.115   7.829
   86CHL1  H26C 8840   6.681   4.007   7.769
   86CHL1   C27 8841   6.826   3.770   7.776
   86CHL1  H27A 8842   6.806   3.739   7.881
   86CHL1  H27B 8843   6.732   3.762   7.719
   86CHL1  H27C 8844   6.901   3.700   7.732
   87CHL1    C3 8845   0.781   2.030   6.251
   87CHL1    H3 8846   0.678   2.000   6.282
   87CHL1    O3 8847   0.783   2.041   6.109
   87CHL1   H3' 8848   0.815   1.957   6.076
   87CHL1    C4 8849   0.817   2.167   6.311
   87CHL1   H4A 8850   0.918   2.195   6.276
   87CHL1   H4B 8851   0.747   2.243   6.270
   87CHL1    C5 8852   0.815   2.164   6.462
   87CHL1    C6 8853   0.742   2.252   6.533
   87CHL1    H6 8854   0.685   2.330   6.481
   87CHL1    C7 8855   0.739   2.255   6.683
   87CHL1   H7A 8856   0.753   2.359   6.720
   87CHL1   H7B 8857   0.639   2.220   6.718
   87CHL1    C8 8858   0.846   2.165   6.750
   87CHL1    H8 8859   0.942   2.220   6.741
   87CHL1   C14 8860   0.813   2.139   6.896
   87CHL1   H14 8861   0.724   2.074   6.897
   87CHL1   C15 8862   0.775   2.260   6.981
   87CHL1  H15A 8863   0.836   2.348   6.951
   87CHL1  H15B 8864   0.667   2.284   6.968
   87CHL1   C16 8865   0.805   2.218   7.124
   87CHL1  H16A 8866   0.881   2.288   7.164
   87CHL1  H16B 8867   0.715   2.220   7.190
   87CHL1   C17 8868   0.868   2.075   7.117
   87CHL1   H17 8869   0.783   2.003   7.124
   87CHL1   C13 8870   0.921   2.064   6.972
   87CHL1   C18 8871   1.055   2.143   6.969
   87CHL1  H18A 8872   1.046   2.243   7.016
   87CHL1  H18B 8873   1.134   2.086   7.022
   87CHL1  H18C 8874   1.090   2.159   6.864
   87CHL1   C12 8875   0.928   1.923   6.910
   87CHL1  H12A 8876   1.016   1.867   6.950
   87CHL1  H12B 8877   0.836   1.869   6.941
   87CHL1   C11 8878   0.935   1.921   6.755
   87CHL1  H11A 8879   1.042   1.923   6.725
   87CHL1  H11B 8880   0.898   1.821   6.721
   87CHL1    C9 8881   0.855   2.031   6.677
   87CHL1    H9 8882   0.751   1.993   6.677
   87CHL1   C10 8883   0.894   2.050   6.528
   87CHL1   C19 8884   1.041   2.097   6.516
   87CHL1  H19A 8885   1.108   2.025   6.567
   87CHL1  H19B 8886   1.075   2.104   6.411
   87CHL1  H19C 8887   1.057   2.197   6.564
   87CHL1    C1 8888   0.876   1.914   6.453
   87CHL1   H1A 8889   0.955   1.844   6.487
   87CHL1   H1B 8890   0.778   1.871   6.483
   87CHL1    C2 8891   0.880   1.924   6.299
   87CHL1   H2A 8892   0.857   1.825   6.255
   87CHL1   H2B 8893   0.983   1.952   6.267
   87CHL1   C20 8894   0.961   2.048   7.237
   87CHL1   H20 8895   1.047   2.119   7.233
   87CHL1   C21 8896   1.019   1.906   7.231
   87CHL1  H21A 8897   0.938   1.830   7.223
   87CHL1  H21B 8898   1.080   1.884   7.321
   87CHL1  H21C 8899   1.087   1.895   7.144
   87CHL1   C22 8900   0.888   2.075   7.371
   87CHL1  H22A 8901   0.866   2.184   7.377
   87CHL1  H22B 8902   0.791   2.021   7.372
   87CHL1   C23 8903   0.964   2.038   7.500
   87CHL1  H23A 8904   0.950   1.929   7.520
   87CHL1  H23B 8905   1.073   2.056   7.487
   87CHL1   C24 8906   0.915   2.120   7.621
   87CHL1  H24A 8907   0.976   2.214   7.623
   87CHL1  H24B 8908   0.809   2.147   7.607
   87CHL1   C25 8909   0.928   2.052   7.758
   87CHL1   H25 8910   1.026   1.999   7.759
   87CHL1   C26 8911   0.931   2.155   7.873
   87CHL1  H26A 8912   0.953   2.104   7.969
   87CHL1  H26B 8913   1.009   2.232   7.855
   87CHL1  H26C 8914   0.833   2.206   7.882
   87CHL1   C27 8915   0.815   1.951   7.780
   87CHL1  H27A 8916   0.825   1.902   7.879
   87CHL1  H27B 8917   0.716   2.003   7.776
   87CHL1  H27C 8918   0.816   1.873   7.701
   88CHL1    C3 8919   4.606   0.470   6.249
   88CHL1    H3 8920   4.500   0.435   6.250
   88CHL1    O3 8921   4.638   0.519   6.120
   88CHL1   H3' 8922   4.640   0.615   6.132
   88CHL1    C4 8923   4.622   0.586   6.349
   88CHL1   H4A 8924   4.719   0.637   6.331
   88CHL1   H4B 8925   4.543   0.662   6.325
   88CHL1    C5 8926   4.614   0.542   6.493
   88CHL1    C6 8927   4.527   0.596   6.580
   88CHL1    H6 8928   4.459   0.675   6.546
   88CHL1    C7 8929   4.521   0.561   6.726
   88CHL1   H7A 8930   4.501   0.651   6.787
   88CHL1   H7B 8931   4.439   0.489   6.744
   88CHL1    C8 8932   4.654   0.498   6.775
   88CHL1    H8 8933   4.730   0.578   6.778
   88CHL1   C14 8934   4.637   0.438   6.915
   88CHL1   H14 8935   4.568   0.352   6.901
   88CHL1   C15 8936   4.572   0.520   7.028
   88CHL1  H15A 8937   4.617   0.621   7.032
   88CHL1  H15B 8938   4.462   0.529   7.013
   88CHL1   C16 8939   4.607   0.440   7.155
   88CHL1  H16A 8940   4.653   0.507   7.231
   88CHL1  H16B 8941   4.516   0.393   7.199
   88CHL1   C17 8942   4.708   0.329   7.111
   88CHL1   H17 8943   4.644   0.242   7.082
   88CHL1   C13 8944   4.765   0.379   6.977
   88CHL1   C18 8945   4.869   0.491   7.004
   88CHL1  H18A 8946   4.831   0.567   7.075
   88CHL1  H18B 8947   4.963   0.448   7.046
   88CHL1  H18C 8948   4.896   0.543   6.909
   88CHL1   C12 8949   4.814   0.272   6.880
   88CHL1  H12A 8950   4.910   0.225   6.913
   88CHL1  H12B 8951   4.734   0.195   6.879
   88CHL1   C11 8952   4.832   0.323   6.736
   88CHL1  H11A 8953   4.915   0.397   6.739
   88CHL1  H11B 8954   4.864   0.238   6.671
   88CHL1    C9 8955   4.703   0.387   6.679
   88CHL1    H9 8956   4.624   0.308   6.683
   88CHL1   C10 8957   4.713   0.429   6.530
   88CHL1   C19 8958   4.857   0.476   6.504
   88CHL1  H19A 8959   4.931   0.394   6.517
   88CHL1  H19B 8960   4.872   0.515   6.401
   88CHL1  H19C 8961   4.880   0.558   6.576
   88CHL1    C1 8962   4.685   0.311   6.433
   88CHL1   H1A 8963   4.757   0.229   6.455
   88CHL1   H1B 8964   4.583   0.271   6.453
   88CHL1    C2 8965   4.696   0.349   6.284
   88CHL1   H2A 8966   4.667   0.263   6.220
   88CHL1   H2B 8967   4.801   0.374   6.259
   88CHL1   C20 8968   4.800   0.276   7.223
   88CHL1   H20 8969   4.842   0.362   7.281
   88CHL1   C21 8970   4.920   0.194   7.169
   88CHL1  H21A 8971   4.979   0.153   7.254
   88CHL1  H21B 8972   4.989   0.255   7.108
   88CHL1  H21C 8973   4.883   0.108   7.109
   88CHL1   C22 8974   4.726   0.180   7.318
   88CHL1  H22A 8975   4.658   0.115   7.259
   88CHL1  H22B 8976   4.801   0.113   7.363
   88CHL1   C23 8977   4.648   0.240   7.435
   88CHL1  H23A 8978   4.717   0.299   7.499
   88CHL1  H23B 8979   4.566   0.307   7.401
   88CHL1   C24 8980   4.590   0.123   7.514
   88CHL1  H24A 8981   4.524   0.064   7.446
   88CHL1  H24B 8982   4.674   0.056   7.544
   88CHL1   C25 8983   4.509   0.155   7.640
   88CHL1   H25 8984   4.424   0.220   7.613
   88CHL1   C26 8985   4.454   0.021   7.693
   88CHL1  H26A 8986   4.530  -0.059   7.683
   88CHL1  H26B 8987   4.427   0.030   7.801
   88CHL1  H26C 8988   4.365  -0.009   7.635
   88CHL1   C27 8989   4.592   0.228   7.748
   88CHL1  H27A 8990   4.632   0.323   7.708
   88CHL1  H27B 8991   4.528   0.251   7.836
   88CHL1  H27C 8992   4.677   0.164   7.781
   89CHL1    C3 8993   0.272   4.314   6.233
   89CHL1    H3 8994   0.175   4.367   6.252
   89CHL1    O3 8995   0.304   4.324   6.096
   89CHL1   H3' 8996   0.233   4.279   6.049
   89CHL1    C4 8997   0.383   4.382   6.316
   89CHL1   H4A 8998   0.480   4.337   6.286
   89CHL1   H4B 8999   0.387   4.489   6.286
   89CHL1    C5 9000   0.361   4.365   6.465
   89CHL1    C6 9001   0.352   4.470   6.548
   89CHL1    H6 9002   0.365   4.572   6.508
   89CHL1    C7 9003   0.335   4.458   6.697
   89CHL1   H7A 9004   0.403   4.528   6.750
   89CHL1   H7B 9005   0.231   4.485   6.725
   89CHL1    C8 9006   0.363   4.314   6.747
   89CHL1    H8 9007   0.473   4.300   6.740
   89CHL1   C14 9008   0.318   4.297   6.892
   89CHL1   H14 9009   0.208   4.315   6.892
   89CHL1   C15 9010   0.374   4.392   7.000
   89CHL1  H15A 9011   0.484   4.400   6.989
   89CHL1  H15B 9012   0.329   4.493   6.994
   89CHL1   C16 9013   0.340   4.321   7.132
   89CHL1  H16A 9014   0.428   4.321   7.199
   89CHL1  H16B 9015   0.255   4.370   7.185
   89CHL1   C17 9016   0.299   4.175   7.095
   89CHL1   H17 9017   0.188   4.170   7.097
   89CHL1   C13 9018   0.339   4.156   6.947
   89CHL1   C18 9019   0.491   4.122   6.939
   89CHL1  H18A 9020   0.530   4.134   6.836
   89CHL1  H18B 9021   0.551   4.188   7.005
   89CHL1  H18C 9022   0.514   4.017   6.967
   89CHL1   C12 9023   0.247   4.065   6.862
   89CHL1  H12A 9024   0.244   3.960   6.895
   89CHL1  H12B 9025   0.143   4.103   6.869
   89CHL1   C11 9026   0.290   4.067   6.715
   89CHL1  H11A 9027   0.390   4.019   6.709
   89CHL1  H11B 9028   0.220   4.004   6.656
   89CHL1    C9 9029   0.293   4.211   6.657
   89CHL1    H9 9030   0.187   4.243   6.657
   89CHL1   C10 9031   0.340   4.218   6.509
   89CHL1   C19 9032   0.476   4.145   6.495
   89CHL1  H19A 9033   0.464   4.036   6.514
   89CHL1  H19B 9034   0.518   4.154   6.392
   89CHL1  H19C 9035   0.551   4.186   6.566
   89CHL1    C1 9036   0.234   4.149   6.419
   89CHL1   H1A 9037   0.231   4.040   6.442
   89CHL1   H1B 9038   0.134   4.191   6.444
   89CHL1    C2 9039   0.258   4.166   6.269
   89CHL1   H2A 9040   0.174   4.121   6.212
   89CHL1   H2B 9041   0.351   4.113   6.240
   89CHL1   C20 9042   0.352   4.072   7.195
   89CHL1   H20 9043   0.463   4.084   7.202
   89CHL1   C21 9044   0.325   3.932   7.140
   89CHL1  H21A 9045   0.216   3.911   7.138
   89CHL1  H21B 9046   0.378   3.859   7.205
   89CHL1  H21C 9047   0.368   3.911   7.040
   89CHL1   C22 9048   0.296   4.078   7.340
   89CHL1  H22A 9049   0.338   3.991   7.395
   89CHL1  H22B 9050   0.334   4.170   7.390
   89CHL1   C23 9051   0.142   4.074   7.353
   89CHL1  H23A 9052   0.103   4.173   7.321
   89CHL1  H23B 9053   0.098   3.998   7.285
   89CHL1   C24 9054   0.092   4.046   7.496
   89CHL1  H24A 9055   0.160   4.095   7.568
   89CHL1  H24B 9056  -0.009   4.092   7.509
   89CHL1   C25 9057   0.078   3.896   7.535
   89CHL1   H25 9058   0.174   3.846   7.511
   89CHL1   C26 9059   0.054   3.880   7.685
   89CHL1  H26A 9060   0.043   3.772   7.710
   89CHL1  H26B 9061   0.139   3.921   7.743
   89CHL1  H26C 9062  -0.039   3.932   7.716
   89CHL1   C27 9063  -0.035   3.826   7.457
   89CHL1  H27A 9064  -0.131   3.880   7.471
   89CHL1  H27B 9065  -0.012   3.822   7.348
   89CHL1  H27C 9066  -0.049   3.722   7.494
   90CHL1    C3 9067   0.429   5.042   6.238
   90CHL1    H3 9068   0.343   4.973   6.236
   90CHL1    O3 9069   0.464   5.077   6.105
   90CHL1   H3' 9070   0.556   5.103   6.111
   90CHL1    C4 9071   0.391   5.169   6.315
   90CHL1   H4A 9072   0.473   5.243   6.308
   90CHL1   H4B 9073   0.303   5.215   6.264
   90CHL1    C5 9074   0.361   5.138   6.460
   90CHL1    C6 9075   0.241   5.167   6.514
   90CHL1    H6 9076   0.164   5.216   6.453
   90CHL1    C7 9077   0.207   5.143   6.658
   90CHL1   H7A 9078   0.151   5.230   6.699
   90CHL1   H7B 9079   0.140   5.054   6.665
   90CHL1    C8 9080   0.334   5.118   6.744
   90CHL1    H8 9081   0.386   5.216   6.753
   90CHL1   C14 9082   0.295   5.067   6.881
   90CHL1   H14 9083   0.250   4.967   6.866
   90CHL1   C15 9084   0.188   5.148   6.955
   90CHL1  H15A 9085   0.206   5.256   6.936
   90CHL1  H15B 9086   0.086   5.122   6.921
   90CHL1   C16 9087   0.213   5.115   7.102
   90CHL1  H16A 9088   0.244   5.210   7.151
   90CHL1  H16B 9089   0.123   5.074   7.152
   90CHL1   C17 9090   0.335   5.020   7.110
   90CHL1   H17 9091   0.296   4.916   7.103
   90CHL1   C13 9092   0.412   5.047   6.978
   90CHL1   C18 9093   0.493   5.179   6.995
   90CHL1  H18A 9094   0.429   5.262   7.031
   90CHL1  H18B 9095   0.575   5.163   7.067
   90CHL1  H18C 9096   0.539   5.211   6.899
   90CHL1   C12 9097   0.497   4.934   6.917
   90CHL1  H12A 9098   0.587   4.915   6.979
   90CHL1  H12B 9099   0.437   4.841   6.914
   90CHL1   C11 9100   0.542   4.969   6.773
   90CHL1  H11A 9101   0.619   5.049   6.784
   90CHL1  H11B 9102   0.593   4.881   6.728
   90CHL1    C9 9103   0.428   5.017   6.678
   90CHL1    H9 9104   0.365   4.927   6.661
   90CHL1   C10 9105   0.473   5.065   6.537
   90CHL1   C19 9106   0.591   5.164   6.554
   90CHL1  H19A 9107   0.681   5.112   6.594
   90CHL1  H19B 9108   0.623   5.208   6.457
   90CHL1  H19C 9109   0.564   5.246   6.623
   90CHL1    C1 9110   0.518   4.941   6.453
   90CHL1   H1A 9111   0.607   4.896   6.500
   90CHL1   H1B 9112   0.436   4.866   6.455
   90CHL1    C2 9113   0.549   4.973   6.305
   90CHL1   H2A 9114   0.573   4.879   6.251
   90CHL1   H2B 9115   0.638   5.039   6.301
   90CHL1   C20 9116   0.407   5.034   7.245
   90CHL1   H20 9117   0.455   5.135   7.251
   90CHL1   C21 9118   0.517   4.928   7.259
   90CHL1  H21A 9119   0.566   4.935   7.359
   90CHL1  H21B 9120   0.596   4.943   7.183
   90CHL1  H21C 9121   0.475   4.826   7.248
   90CHL1   C22 9122   0.307   5.028   7.365
   90CHL1  H22A 9123   0.230   5.107   7.353
   90CHL1  H22B 9124   0.255   4.930   7.364
   90CHL1   C23 9125   0.369   5.052   7.504
   90CHL1  H23A 9126   0.431   4.965   7.533
   90CHL1  H23B 9127   0.435   5.141   7.499
   90CHL1   C24 9128   0.260   5.075   7.610
   90CHL1  H24A 9129   0.206   5.169   7.586
   90CHL1  H24B 9130   0.186   4.992   7.604
   90CHL1   C25 9131   0.312   5.083   7.755
   90CHL1   H25 9132   0.356   4.985   7.782
   90CHL1   C26 9133   0.421   5.190   7.771
   90CHL1  H26A 9134   0.513   5.162   7.716
   90CHL1  H26B 9135   0.384   5.287   7.731
   90CHL1  H26C 9136   0.447   5.204   7.879
   90CHL1   C27 9137   0.195   5.110   7.852
   90CHL1  H27A 9138   0.231   5.116   7.957
   90CHL1  H27B 9139   0.146   5.207   7.826
   90CHL1  H27C 9140   0.119   5.030   7.845
   91CHL1    C3 9141   2.386   7.065   6.204
   91CHL1    H3 9142   2.319   6.977   6.197
   91CHL1    O3 9143   2.384   7.135   6.080
   91CHL1   H3' 9144   2.304   7.188   6.086
   91CHL1    C4 9145   2.335   7.162   6.310
   91CHL1   H4A 9146   2.399   7.253   6.311
   91CHL1   H4B 9147   2.233   7.195   6.282
   91CHL1    C5 9148   2.335   7.099   6.447
   91CHL1    C6 9149   2.219   7.086   6.512
   91CHL1    H6 9150   2.126   7.120   6.465
   91CHL1    C7 9151   2.207   7.034   6.651
   91CHL1   H7A 9152   2.143   7.100   6.712
   91CHL1   H7B 9153   2.159   6.934   6.647
   91CHL1    C8 9154   2.345   7.021   6.720
   91CHL1    H8 9155   2.380   7.121   6.754
   91CHL1   C14 9156   2.325   6.930   6.839
   91CHL1   H14 9157   2.290   6.834   6.795
   91CHL1   C15 9158   2.218   6.968   6.941
   91CHL1  H15A 9159   2.231   7.077   6.963
   91CHL1  H15B 9160   2.115   6.951   6.903
   91CHL1   C16 9161   2.250   6.880   7.063
   91CHL1  H16A 9162   2.274   6.942   7.152
   91CHL1  H16B 9163   2.166   6.812   7.087
   91CHL1   C17 9164   2.376   6.800   7.021
   91CHL1   H17 9165   2.335   6.715   6.961
   91CHL1   C13 9166   2.447   6.893   6.920
   91CHL1   C18 9167   2.508   7.015   6.993
   91CHL1  H18A 9168   2.538   7.094   6.921
   91CHL1  H18B 9169   2.438   7.061   7.066
   91CHL1  H18C 9170   2.600   6.985   7.049
   91CHL1   C12 9171   2.550   6.832   6.824
   91CHL1  H12A 9172   2.643   6.815   6.884
   91CHL1  H12B 9173   2.511   6.735   6.787
   91CHL1   C11 9174   2.580   6.922   6.703
   91CHL1  H11A 9175   2.631   7.014   6.739
   91CHL1  H11B 9176   2.650   6.870   6.635
   91CHL1    C9 9177   2.450   6.961   6.626
   91CHL1    H9 9178   2.407   6.864   6.592
   91CHL1   C10 9179   2.471   7.045   6.496
   91CHL1   C19 9180   2.566   7.163   6.528
   91CHL1  H19A 9181   2.526   7.225   6.611
   91CHL1  H19B 9182   2.667   7.127   6.555
   91CHL1  H19C 9183   2.579   7.228   6.438
   91CHL1    C1 9184   2.532   6.957   6.383
   91CHL1   H1A 9185   2.638   6.933   6.409
   91CHL1   H1B 9186   2.477   6.861   6.379
   91CHL1    C2 9187   2.528   7.019   6.241
   91CHL1   H2A 9188   2.564   6.946   6.166
   91CHL1   H2B 9189   2.595   7.107   6.238
   91CHL1   C20 9190   2.459   6.734   7.131
   91CHL1   H20 9191   2.545   6.799   7.158
   91CHL1   C21 9192   2.511   6.603   7.070
   91CHL1  H21A 9193   2.587   6.555   7.136
   91CHL1  H21B 9194   2.560   6.620   6.972
   91CHL1  H21C 9195   2.428   6.531   7.055
   91CHL1   C22 9196   2.382   6.700   7.262
   91CHL1  H22A 9197   2.275   6.728   7.258
   91CHL1  H22B 9198   2.383   6.590   7.275
   91CHL1   C23 9199   2.442   6.763   7.389
   91CHL1  H23A 9200   2.550   6.738   7.396
   91CHL1  H23B 9201   2.434   6.874   7.381
   91CHL1   C24 9202   2.370   6.712   7.515
   91CHL1  H24A 9203   2.262   6.734   7.506
   91CHL1  H24B 9204   2.383   6.602   7.520
   91CHL1   C25 9205   2.421   6.772   7.648
   91CHL1   H25 9206   2.531   6.760   7.651
   91CHL1   C26 9207   2.387   6.920   7.660
   91CHL1  H26A 9208   2.277   6.935   7.652
   91CHL1  H26B 9209   2.420   6.960   7.759
   91CHL1  H26C 9210   2.438   6.978   7.581
   91CHL1   C27 9211   2.360   6.696   7.766
   91CHL1  H27A 9212   2.394   6.590   7.767
   91CHL1  H27B 9213   2.391   6.743   7.862
   91CHL1  H27C 9214   2.249   6.698   7.760
   92CHL1    C3 9215   6.211   0.981   6.277
   92CHL1    H3 9216   6.316   1.017   6.278
   92CHL1    O3 9217   6.166   0.970   6.143
   92CHL1   H3' 9218   6.236   0.923   6.095
   92CHL1    C4 9219   6.200   0.844   6.346
   92CHL1   H4A 9220   6.094   0.810   6.336
   92CHL1   H4B 9221   6.261   0.771   6.289
   92CHL1    C5 9222   6.240   0.852   6.492
   92CHL1    C6 9223   6.342   0.781   6.541
   92CHL1    H6 9224   6.395   0.709   6.476
   92CHL1    C7 9225   6.389   0.784   6.684
   92CHL1   H7A 9226   6.415   0.682   6.718
   92CHL1   H7B 9227   6.480   0.847   6.692
   92CHL1    C8 9228   6.278   0.841   6.775
   92CHL1    H8 9229   6.198   0.764   6.776
   92CHL1   C14 9230   6.331   0.866   6.916
   92CHL1   H14 9231   6.403   0.950   6.909
   92CHL1   C15 9232   6.408   0.753   6.987
   92CHL1  H15A 9233   6.360   0.656   6.962
   92CHL1  H15B 9234   6.514   0.751   6.955
   92CHL1   C16 9235   6.392   0.784   7.137
   92CHL1  H16A 9236   6.347   0.695   7.186
   92CHL1  H16B 9237   6.489   0.807   7.185
   92CHL1   C17 9238   6.294   0.905   7.150
   92CHL1   H17 9239   6.357   0.996   7.156
   92CHL1   C13 9240   6.222   0.911   7.013
   92CHL1   C18 9241   6.110   0.804   7.016
   92CHL1  H18A 9242   6.057   0.795   6.918
   92CHL1  H18B 9243   6.149   0.704   7.043
   92CHL1  H18C 9244   6.032   0.831   7.091
   92CHL1   C12 9245   6.176   1.050   6.964
   92CHL1  H12A 9246   6.095   1.092   7.027
   92CHL1  H12B 9247   6.262   1.120   6.968
   92CHL1   C11 9248   6.125   1.044   6.818
   92CHL1  H11A 9249   6.028   0.989   6.824
   92CHL1  H11B 9250   6.103   1.147   6.782
   92CHL1    C9 9251   6.220   0.972   6.718
   92CHL1    H9 9252   6.308   1.039   6.708
   92CHL1   C10 9253   6.162   0.954   6.575
   92CHL1   C19 9254   6.017   0.901   6.587
   92CHL1  H19A 9255   6.013   0.811   6.653
   92CHL1  H19B 9256   5.951   0.979   6.630
   92CHL1  H19C 9257   5.973   0.874   6.489
   92CHL1    C1 9258   6.162   1.092   6.500
   92CHL1   H1A 9259   6.093   1.161   6.552
   92CHL1   H1B 9260   6.264   1.135   6.508
   92CHL1    C2 9261   6.125   1.085   6.351
   92CHL1   H2A 9262   6.137   1.184   6.303
   92CHL1   H2B 9263   6.019   1.054   6.339
   92CHL1   C20 9264   6.208   0.898   7.278
   92CHL1   H20 9265   6.144   0.807   7.274
   92CHL1   C21 9266   6.114   1.021   7.287
   92CHL1  H21A 9267   6.173   1.115   7.279
   92CHL1  H21B 9268   6.058   1.022   7.383
   92CHL1  H21C 9269   6.037   1.018   7.207
   92CHL1   C22 9270   6.292   0.884   7.408
   92CHL1  H22A 9271   6.358   0.796   7.399
   92CHL1  H22B 9272   6.356   0.974   7.420
   92CHL1   C23 9273   6.207   0.864   7.535
   92CHL1  H23A 9274   6.151   0.957   7.559
   92CHL1  H23B 9275   6.133   0.783   7.517
   92CHL1   C24 9276   6.294   0.828   7.657
   92CHL1  H24A 9277   6.340   0.729   7.639
   92CHL1  H24B 9278   6.374   0.904   7.663
   92CHL1   C25 9279   6.222   0.825   7.793
   92CHL1   H25 9280   6.173   0.924   7.808
   92CHL1   C26 9281   6.116   0.715   7.801
   92CHL1  H26A 9282   6.164   0.615   7.792
   92CHL1  H26B 9283   6.063   0.719   7.899
   92CHL1  H26C 9284   6.042   0.725   7.720
   92CHL1   C27 9285   6.326   0.807   7.906
   92CHL1  H27A 9286   6.376   0.708   7.895
   92CHL1  H27B 9287   6.404   0.886   7.901
   92CHL1  H27C 9288   6.277   0.811   8.005
   93CHL1    C3 9289   5.870   6.780   6.293
   93CHL1    H3 9290   5.762   6.754   6.298
   93CHL1    O3 9291   5.901   6.822   6.161
   93CHL1   H3' 9292   5.996   6.835   6.160
   93CHL1    C4 9293   5.900   6.896   6.390
   93CHL1   H4A 9294   6.004   6.932   6.372
   93CHL1   H4B 9295   5.833   6.981   6.363
   93CHL1    C5 9296   5.885   6.857   6.536
   93CHL1    C6 9297   5.807   6.926   6.621
   93CHL1    H6 9298   5.753   7.015   6.585
   93CHL1    C7 9299   5.798   6.896   6.768
   93CHL1   H7A 9300   5.804   6.990   6.827
   93CHL1   H7B 9301   5.700   6.849   6.790
   93CHL1    C8 9302   5.911   6.800   6.817
   93CHL1    H8 9303   6.006   6.857   6.817
   93CHL1   C14 9304   5.884   6.751   6.958
   93CHL1   H14 9305   5.786   6.698   6.952
   93CHL1   C15 9306   5.866   6.859   7.067
   93CHL1  H15A 9307   5.941   6.939   7.052
   93CHL1  H15B 9308   5.764   6.903   7.064
   93CHL1   C16 9309   5.894   6.784   7.199
   93CHL1  H16A 9310   5.979   6.834   7.250
   93CHL1  H16B 9311   5.806   6.785   7.266
   93CHL1   C17 9312   5.933   6.638   7.161
   93CHL1   H17 9313   5.838   6.580   7.157
   93CHL1   C13 9314   5.982   6.649   7.014
   93CHL1   C18 9315   6.127   6.706   7.015
   93CHL1  H18A 9316   6.135   6.795   7.081
   93CHL1  H18B 9317   6.198   6.629   7.051
   93CHL1  H18C 9318   6.159   6.737   6.913
   93CHL1   C12 9319   5.972   6.525   6.923
   93CHL1  H12A 9320   6.043   6.446   6.956
   93CHL1  H12B 9321   5.869   6.483   6.929
   93CHL1   C11 9322   6.004   6.560   6.776
   93CHL1  H11A 9323   6.113   6.581   6.771
   93CHL1  H11B 9324   5.985   6.471   6.713
   93CHL1    C9 9325   5.922   6.681   6.720
   93CHL1    H9 9326   5.818   6.642   6.711
   93CHL1   C10 9327   5.962   6.730   6.577
   93CHL1   C19 9328   6.112   6.767   6.577
   93CHL1  H19A 9329   6.174   6.679   6.606
   93CHL1  H19B 9330   6.147   6.799   6.476
   93CHL1  H19C 9331   6.134   6.849   6.648
   93CHL1    C1 9332   5.933   6.616   6.474
   93CHL1   H1A 9333   5.997   6.529   6.497
   93CHL1   H1B 9334   5.827   6.584   6.487
   93CHL1    C2 9335   5.954   6.657   6.327
   93CHL1   H2A 9336   5.924   6.573   6.261
   93CHL1   H2B 9337   6.061   6.678   6.310
   93CHL1   C20 9338   6.019   6.567   7.266
   93CHL1   H20 9339   6.124   6.601   7.255
   93CHL1   C21 9340   6.015   6.414   7.243
   93CHL1  H21A 9341   5.910   6.378   7.238
   93CHL1  H21B 9342   6.066   6.362   7.327
   93CHL1  H21C 9343   6.067   6.387   7.149
   93CHL1   C22 9344   5.981   6.599   7.414
   93CHL1  H22A 9345   6.061   6.554   7.477
   93CHL1  H22B 9346   5.985   6.708   7.432
   93CHL1   C23 9347   5.846   6.544   7.468
   93CHL1  H23A 9348   5.762   6.585   7.408
   93CHL1  H23B 9349   5.845   6.434   7.457
   93CHL1   C24 9350   5.828   6.579   7.617
   93CHL1  H24A 9351   5.921   6.549   7.669
   93CHL1  H24B 9352   5.816   6.688   7.629
   93CHL1   C25 9353   5.711   6.507   7.689
   93CHL1   H25 9354   5.713   6.400   7.660
   93CHL1   C26 9355   5.728   6.513   7.842
   93CHL1  H26A 9356   5.825   6.468   7.872
   93CHL1  H26B 9357   5.725   6.618   7.877
   93CHL1  H26C 9358   5.647   6.456   7.892
   93CHL1   C27 9359   5.574   6.566   7.651
   93CHL1  H27A 9360   5.567   6.672   7.681
   93CHL1  H27B 9361   5.558   6.559   7.541
   93CHL1  H27C 9362   5.493   6.509   7.702
   94CHL1    C3 9363   0.253   1.793   6.268
   94CHL1    H3 9364   0.294   1.895   6.282
   94CHL1    O3 9365   0.231   1.769   6.130
   94CHL1   H3' 9366   0.181   1.845   6.100
   94CHL1    C4 9367   0.352   1.690   6.324
   94CHL1   H4A 9368   0.312   1.588   6.303
   94CHL1   H4B 9369   0.447   1.698   6.266
   94CHL1    C5 9370   0.373   1.708   6.473
   94CHL1    C6 9371   0.495   1.728   6.524
   94CHL1    H6 9372   0.583   1.730   6.457
   94CHL1    C7 9373   0.524   1.737   6.671
   94CHL1   H7A 9374   0.611   1.672   6.697
   94CHL1   H7B 9375   0.552   1.842   6.697
   94CHL1    C8 9376   0.403   1.694   6.759
   94CHL1    H8 9377   0.396   1.583   6.756
   94CHL1   C14 9378   0.425   1.738   6.902
   94CHL1   H14 9379   0.434   1.849   6.897
   94CHL1   C15 9380   0.556   1.694   6.970
   94CHL1  H15A 9381   0.583   1.591   6.940
   94CHL1  H15B 9382   0.639   1.762   6.942
   94CHL1   C16 9383   0.524   1.703   7.120
   94CHL1  H16A 9384   0.531   1.601   7.165
   94CHL1  H16B 9385   0.595   1.770   7.173
   94CHL1   C17 9386   0.378   1.756   7.131
   94CHL1   H17 9387   0.387   1.867   7.124
   94CHL1   C13 9388   0.310   1.712   6.999
   94CHL1   C18 9389   0.274   1.563   7.012
   94CHL1  H18A 9390   0.345   1.509   7.079
   94CHL1  H18B 9391   0.174   1.557   7.058
   94CHL1  H18C 9392   0.270   1.512   6.914
   94CHL1   C12 9393   0.187   1.788   6.946
   94CHL1  H12A 9394   0.098   1.770   7.009
   94CHL1  H12B 9395   0.208   1.897   6.946
   94CHL1   C11 9396   0.153   1.742   6.802
   94CHL1  H11A 9397   0.117   1.637   6.807
   94CHL1  H11B 9398   0.068   1.803   6.765
   94CHL1    C9 9399   0.273   1.754   6.704
   94CHL1    H9 9400   0.291   1.863   6.698
   94CHL1   C10 9401   0.245   1.707   6.559
   94CHL1   C19 9402   0.189   1.563   6.566
   94CHL1  H19A 9403   0.251   1.497   6.631
   94CHL1  H19B 9404   0.086   1.563   6.607
   94CHL1  H19C 9405   0.184   1.516   6.465
   94CHL1    C1 9406   0.139   1.801   6.493
   94CHL1   H1A 9407   0.041   1.784   6.544
   94CHL1   H1B 9408   0.169   1.906   6.511
   94CHL1    C2 9409   0.120   1.781   6.342
   94CHL1   H2A 9410   0.047   1.854   6.301
   94CHL1   H2B 9411   0.080   1.679   6.323
   94CHL1   C20 9412   0.311   1.724   7.265
   94CHL1   H20 9413   0.287   1.616   7.271
   94CHL1   C21 9414   0.180   1.805   7.273
   94CHL1  H21A 9415   0.140   1.808   7.377
   94CHL1  H21B 9416   0.101   1.757   7.210
   94CHL1  H21C 9417   0.195   1.910   7.240
   94CHL1   C22 9418   0.401   1.757   7.387
   94CHL1  H22A 9419   0.499   1.706   7.378
   94CHL1  H22B 9420   0.420   1.866   7.387
   94CHL1   C23 9421   0.341   1.715   7.523
   94CHL1  H23A 9422   0.235   1.683   7.510
   94CHL1  H23B 9423   0.396   1.626   7.561
   94CHL1   C24 9424   0.344   1.829   7.627
   94CHL1  H24A 9425   0.450   1.852   7.655
   94CHL1  H24B 9426   0.302   1.918   7.576
   94CHL1   C25 9427   0.261   1.804   7.754
   94CHL1   H25 9428   0.158   1.778   7.721
   94CHL1   C26 9429   0.313   1.691   7.843
   94CHL1  H26A 9430   0.294   1.593   7.795
   94CHL1  H26B 9431   0.422   1.703   7.863
   94CHL1  H26C 9432   0.260   1.690   7.940
   94CHL1   C27 9433   0.249   1.931   7.840
   94CHL1  H27A 9434   0.190   2.008   7.785
   94CHL1  H27B 9435   0.195   1.908   7.935
   94CHL1  H27C 9436   0.349   1.971   7.864
   95CHL1    C3 9437   6.003   0.209   6.284
   95CHL1    H3 9438   5.911   0.259   6.321
   95CHL1    O3 9439   6.002   0.206   6.143
   95CHL1   H3' 9440   6.094   0.213   6.118
   95CHL1    C4 9441   6.127   0.286   6.330
   95CHL1   H4A 9442   6.218   0.240   6.284
   95CHL1   H4B 9443   6.120   0.389   6.290
   95CHL1    C5 9444   6.143   0.286   6.481
   95CHL1    C6 9445   6.148   0.401   6.550
   95CHL1    H6 9446   6.145   0.497   6.497
   95CHL1    C7 9447   6.167   0.408   6.699
   95CHL1   H7A 9448   6.241   0.487   6.724
   95CHL1   H7B 9449   6.071   0.437   6.747
   95CHL1    C8 9450   6.214   0.273   6.758
   95CHL1    H8 9451   6.321   0.261   6.729
   95CHL1   C14 9452   6.202   0.275   6.910
   95CHL1   H14 9453   6.093   0.283   6.932
   95CHL1   C15 9454   6.266   0.393   6.983
   95CHL1  H15A 9455   6.368   0.410   6.942
   95CHL1  H15B 9456   6.206   0.486   6.973
   95CHL1   C16 9457   6.275   0.345   7.129
   95CHL1  H16A 9458   6.379   0.362   7.165
   95CHL1  H16B 9459   6.204   0.399   7.194
   95CHL1   C17 9460   6.243   0.192   7.129
   95CHL1   H17 9461   6.137   0.182   7.160
   95CHL1   C13 9462   6.251   0.149   6.980
   95CHL1   C18 9463   6.399   0.122   6.946
   95CHL1  H18A 9464   6.464   0.204   6.983
   95CHL1  H18B 9465   6.431   0.027   6.993
   95CHL1  H18C 9466   6.416   0.112   6.836
   95CHL1   C12 9467   6.159   0.034   6.932
   95CHL1  H12A 9468   6.190  -0.063   6.977
   95CHL1  H12B 9469   6.055   0.055   6.965
   95CHL1   C11 9470   6.162   0.021   6.778
   95CHL1  H11A 9471   6.263  -0.017   6.752
   95CHL1  H11B 9472   6.088  -0.056   6.747
   95CHL1    C9 9473   6.133   0.155   6.702
   95CHL1    H9 9474   6.028   0.180   6.726
   95CHL1   C10 9475   6.142   0.146   6.547
   95CHL1   C19 9476   6.272   0.071   6.510
   95CHL1  H19A 9477   6.359   0.114   6.565
   95CHL1  H19B 9478   6.265  -0.037   6.537
   95CHL1  H19C 9479   6.294   0.074   6.401
   95CHL1    C1 9480   6.019   0.066   6.493
   95CHL1   H1A 9481   6.025  -0.039   6.529
   95CHL1   H1B 9482   5.927   0.111   6.535
   95CHL1    C2 9483   6.007   0.065   6.339
   95CHL1   H2A 9484   5.914   0.012   6.309
   95CHL1   H2B 9485   6.093   0.011   6.295
   95CHL1   C20 9486   6.329   0.116   7.233
   95CHL1   H20 9487   6.435   0.119   7.199
   95CHL1   C21 9488   6.283  -0.031   7.241
   95CHL1  H21A 9489   6.174  -0.037   7.260
   95CHL1  H21B 9490   6.337  -0.084   7.322
   95CHL1  H21C 9491   6.306  -0.085   7.146
   95CHL1   C22 9492   6.330   0.178   7.375
   95CHL1  H22A 9493   6.338   0.288   7.370
   95CHL1  H22B 9494   6.233   0.154   7.425
   95CHL1   C23 9495   6.448   0.130   7.463
   95CHL1  H23A 9496   6.443   0.020   7.478
   95CHL1  H23B 9497   6.543   0.153   7.410
   95CHL1   C24 9498   6.449   0.198   7.601
   95CHL1  H24A 9499   6.443   0.309   7.589
   95CHL1  H24B 9500   6.358   0.166   7.655
   95CHL1   C25 9501   6.572   0.164   7.688
   95CHL1   H25 9502   6.590   0.055   7.679
   95CHL1   C26 9503   6.700   0.238   7.643
   95CHL1  H26A 9504   6.786   0.205   7.704
   95CHL1  H26B 9505   6.722   0.218   7.536
   95CHL1  H26C 9506   6.688   0.348   7.657
   95CHL1   C27 9507   6.544   0.195   7.836
   95CHL1  H27A 9508   6.632   0.169   7.898
   95CHL1  H27B 9509   6.522   0.303   7.850
   95CHL1  H27C 9510   6.457   0.136   7.872
   96CHL1    C3 9511   6.642   7.107   6.240
   96CHL1    H3 9512   6.547   7.165   6.242
   96CHL1    O3 9513   6.689   7.102   6.105
   96CHL1   H3' 9514   6.630   7.041   6.060
   96CHL1    C4 9515   6.747   7.175   6.329
   96CHL1   H4A 9516   6.843   7.121   6.315
   96CHL1   H4B 9517   6.762   7.278   6.291
   96CHL1    C5 9518   6.708   7.173   6.476
   96CHL1    C6 9519   6.703   7.286   6.548
   96CHL1    H6 9520   6.729   7.382   6.501
   96CHL1    C7 9521   6.672   7.289   6.695
   96CHL1   H7A 9522   6.743   7.356   6.748
   96CHL1   H7B 9523   6.569   7.328   6.711
   96CHL1    C8 9524   6.680   7.149   6.762
   96CHL1    H8 9525   6.787   7.119   6.768
   96CHL1   C14 9526   6.624   7.155   6.902
   96CHL1   H14 9527   6.518   7.186   6.892
   96CHL1   C15 9528   6.689   7.258   6.996
   96CHL1  H15A 9529   6.799   7.247   6.991
   96CHL1  H15B 9530   6.662   7.363   6.971
   96CHL1   C16 9531   6.639   7.215   7.134
   96CHL1  H16A 9532   6.726   7.210   7.203
   96CHL1  H16B 9533   6.565   7.287   7.175
   96CHL1   C17 9534   6.573   7.074   7.119
   96CHL1   H17 9535   6.464   7.090   7.109
   96CHL1   C13 9536   6.621   7.023   6.980
   96CHL1   C18 9537   6.763   6.965   6.999
   96CHL1  H18A 9538   6.758   6.865   7.046
   96CHL1  H18B 9539   6.815   6.952   6.901
   96CHL1  H18C 9540   6.825   7.030   7.063
   96CHL1   C12 9541   6.532   6.927   6.899
   96CHL1  H12A 9542   6.529   6.827   6.947
   96CHL1  H12B 9543   6.428   6.967   6.896
   96CHL1   C11 9544   6.584   6.911   6.753
   96CHL1  H11A 9545   6.680   6.856   6.759
   96CHL1  H11B 9546   6.513   6.847   6.696
   96CHL1    C9 9547   6.606   7.046   6.677
   96CHL1    H9 9548   6.504   7.087   6.663
   96CHL1   C10 9549   6.669   7.035   6.534
   96CHL1   C19 9550   6.797   6.950   6.540
   96CHL1  H19A 9551   6.864   6.982   6.623
   96CHL1  H19B 9552   6.770   6.844   6.558
   96CHL1  H19C 9553   6.855   6.951   6.446
   96CHL1    C1 9554   6.568   6.967   6.437
   96CHL1   H1A 9555   6.554   6.863   6.472
   96CHL1   H1B 9556   6.470   7.019   6.443
   96CHL1    C2 9557   6.614   6.965   6.289
   96CHL1   H2A 9558   6.537   6.917   6.225
   96CHL1   H2B 9559   6.707   6.904   6.280
   96CHL1   C20 9560   6.597   6.990   7.246
   96CHL1   H20 9561   6.706   6.976   7.259
   96CHL1   C21 9562   6.531   6.851   7.235
   96CHL1  H21A 9563   6.578   6.791   7.154
   96CHL1  H21B 9564   6.422   6.861   7.213
   96CHL1  H21C 9565   6.543   6.795   7.330
   96CHL1   C22 9566   6.546   7.064   7.373
   96CHL1  H22A 9567   6.579   7.171   7.371
   96CHL1  H22B 9568   6.435   7.064   7.374
   96CHL1   C23 9569   6.599   7.009   7.506
   96CHL1  H23A 9570   6.542   6.917   7.533
   96CHL1  H23B 9571   6.706   6.981   7.493
   96CHL1   C24 9572   6.590   7.112   7.620
   96CHL1  H24A 9573   6.643   7.203   7.587
   96CHL1  H24B 9574   6.484   7.139   7.639
   96CHL1   C25 9575   6.655   7.067   7.753
   96CHL1   H25 9576   6.756   7.026   7.729
   96CHL1   C26 9577   6.675   7.186   7.848
   96CHL1  H26A 9578   6.739   7.264   7.800
   96CHL1  H26B 9579   6.577   7.231   7.874
   96CHL1  H26C 9580   6.725   7.153   7.941
   96CHL1   C27 9581   6.574   6.957   7.824
   96CHL1  H27A 9582   6.472   6.994   7.847
   96CHL1  H27B 9583   6.565   6.867   7.760
   96CHL1  H27C 9584   6.624   6.928   7.919
   97OSM      N 9585   3.114   2.947  10.305
   97OSM    C15 9586   3.068   2.844  10.404
   97OSM   H15A 9587   3.086   2.745  10.366
   97OSM   H15B 9588   2.962   2.854  10.425
   97OSM   H15C 9589   3.120   2.854  10.498
   97OSM    C14 9590   3.027   2.940  10.183
   97OSM   H14A 9591   2.924   2.964  10.204
   97OSM   H14B 9592   3.037   2.843  10.138
   97OSM   H14C 9593   3.067   3.008  10.109
   97OSM    C13 9594   3.107   3.085  10.362
   97OSM   H13A 9595   3.006   3.112  10.389
   97OSM   H13B 9596   3.142   3.157  10.290
   97OSM   H13C 9597   3.169   3.096  10.450
   97OSM    C12 9598   3.257   2.914  10.262
   97OSM   H12A 9599   3.257   2.812  10.228
   97OSM   H12B 9600   3.322   2.919  10.348
   97OSM    C11 9601   3.318   2.997  10.146
   97OSM   H11A 9602   3.427   2.976  10.138
   97OSM   H11B 9603   3.309   3.105  10.169
   97OSM      P 9604   3.269   2.829   9.953
   97OSM    O13 9605   3.412   2.810   9.922
   97OSM    O14 9606   3.206   2.729  10.042
   97OSM    O11 9607   3.179   2.848   9.822
   97OSM    O12 9608   3.252   2.970  10.023
   97OSM    C1S 9609   3.116   2.975   9.797
   97OSM    H1S 9610   3.190   3.057   9.806
   97OSM    H1T 9611   3.035   2.994   9.869
   97OSM     NF 9612   3.002   3.119   9.626
   97OSM    HNF 9613   2.906   3.139   9.640
   97OSM    C2S 9614   3.055   2.986   9.652
   97OSM    H2S 9615   3.138   2.965   9.581
   97OSM    C3S 9616   2.946   2.879   9.631
   97OSM    H3S 9617   2.858   2.905   9.694
   97OSM     O3 9618   2.982   2.746   9.668
   97OSM    HO3 9619   3.062   2.759   9.720
   97OSM    C4S 9620   2.901   2.887   9.486
   97OSM    H4S 9621   2.817   2.956   9.468
   97OSM    C5S 9622   2.956   2.823   9.381
   97OSM    H5S 9623   3.042   2.757   9.399
   97OSM    C6S 9624   2.910   2.834   9.237
   97OSM    H6S 9625   2.825   2.904   9.227
   97OSM    H6T 9626   2.875   2.735   9.200
   97OSM    C7S 9627   3.023   2.882   9.145
   97OSM    H7S 9628   3.107   2.810   9.144
   97OSM    H7T 9629   3.063   2.979   9.183
   97OSM    C8S 9630   2.973   2.904   9.001
   97OSM    H8S 9631   2.879   2.963   9.006
   97OSM    H8T 9632   2.949   2.807   8.953
   97OSM    C9S 9633   3.072   2.984   8.914
   97OSM    H9S 9634   3.100   3.074   8.972
   97OSM    H9T 9635   3.019   3.018   8.822
   97OSM   C10S 9636   3.200   2.911   8.872
   97OSM   H10S 9637   3.261   2.890   8.962
   97OSM   H10T 9638   3.259   2.980   8.808
   97OSM   C11S 9639   3.177   2.780   8.796
   97OSM   H11S 9640   3.131   2.706   8.865
   97OSM   H11T 9641   3.276   2.739   8.766
   97OSM   C12S 9642   3.091   2.789   8.669
   97OSM   H12S 9643   2.987   2.818   8.696
   97OSM   H12T 9644   3.087   2.688   8.624
   97OSM   C13S 9645   3.145   2.887   8.563
   97OSM   H13S 9646   3.253   2.908   8.581
   97OSM   H13T 9647   3.091   2.983   8.572
   97OSM   C14S 9648   3.131   2.832   8.420
   97OSM   H14S 9649   3.125   2.917   8.349
   97OSM   H14T 9650   3.036   2.775   8.413
   97OSM   C15S 9651   3.249   2.743   8.379
   97OSM   H15S 9652   3.273   2.674   8.464
   97OSM   H15T 9653   3.338   2.807   8.362
   97OSM   C16S 9654   3.223   2.657   8.255
   97OSM   H16S 9655   3.143   2.584   8.280
   97OSM   H16T 9656   3.314   2.598   8.230
   97OSM   C17S 9657   3.180   2.735   8.130
   97OSM   H17S 9658   3.265   2.794   8.092
   97OSM   H17T 9659   3.100   2.808   8.157
   97OSM   C18S 9660   3.126   2.643   8.021
   97OSM   H18S 9661   3.207   2.578   7.980
   97OSM   H18T 9662   3.082   2.702   7.938
   97OSM   H18U 9663   3.046   2.577   8.060
   97OSM    C1F 9664   3.085   3.219   9.600
   97OSM     OF 9665   3.204   3.205   9.617
   97OSM    C2F 9666   3.026   3.347   9.551
   97OSM    H2F 9667   3.024   3.417   9.637
   97OSM    H2G 9668   2.922   3.332   9.516
   97OSM    C3F 9669   3.111   3.411   9.439
   97OSM    H3F 9670   3.214   3.424   9.479
   97OSM    H3G 9671   3.078   3.516   9.422
   97OSM    C4F 9672   3.119   3.342   9.302
   97OSM    H4F 9673   3.179   3.249   9.317
   97OSM    H4G 9674   3.178   3.411   9.238
   97OSM    C5F 9675   2.998   3.287   9.225
   97OSM    H5F 9676   2.919   3.258   9.298
   97OSM    H5G 9677   3.030   3.194   9.174
   97OSM    C6F 9678   2.936   3.375   9.114
   97OSM    H6F 9679   2.901   3.467   9.164
   97OSM    H6G 9680   2.848   3.320   9.074
   97OSM    C7F 9681   3.020   3.430   8.997
   97OSM    H7F 9682   3.118   3.462   9.038
   97OSM    H7G 9683   2.970   3.521   8.960
   97OSM    C8F 9684   3.046   3.341   8.874
   97OSM    H8F 9685   3.119   3.262   8.902
   97OSM    H8G 9686   3.097   3.403   8.798
   97OSM    C9F 9687   2.919   3.281   8.820
   97OSM    H9F 9688   2.871   3.209   8.888
   97OSM   C10F 9689   2.862   3.306   8.702
   97OSM   H10F 9690   2.769   3.252   8.678
   97OSM   C11F 9691   2.909   3.399   8.594
   97OSM   H11F 9692   2.963   3.487   8.635
   97OSM   H11G 9693   2.821   3.439   8.540
   97OSM   C12F 9694   3.000   3.328   8.491
   97OSM   H12F 9695   2.961   3.226   8.472
   97OSM   H12G 9696   3.102   3.318   8.534
   97OSM   C13F 9697   3.006   3.402   8.357
   97OSM   H13F 9698   3.035   3.508   8.376
   97OSM   H13G 9699   2.905   3.403   8.312
   97OSM   C14F 9700   3.105   3.341   8.257
   97OSM   H14F 9701   3.207   3.343   8.302
   97OSM   H14G 9702   3.107   3.404   8.165
   97OSM   C15F 9703   3.074   3.196   8.218
   97OSM   H15F 9704   2.966   3.190   8.191
   97OSM   H15G 9705   3.091   3.130   8.306
   97OSM   C16F 9706   3.156   3.144   8.098
   97OSM   H16F 9707   3.119   3.195   8.006
   97OSM   H16G 9708   3.135   3.035   8.086
   97OSM   C17F 9709   3.308   3.166   8.107
   97OSM   H17F 9710   3.327   3.276   8.110
   97OSM   H17G 9711   3.355   3.129   8.014
   97OSM   C18F 9712   3.375   3.098   8.227
   97OSM   H18F 9713   3.359   2.988   8.223
   97OSM   H18G 9714   3.334   3.136   8.322
   97OSM   H18H 9715   3.485   3.118   8.226
   98OSM      N 9716   2.635   2.792  10.123
   98OSM    C15 9717   2.748   2.694  10.118
   98OSM   H15A 9718   2.747   2.625  10.202
   98OSM   H15B 9719   2.845   2.741  10.116
   98OSM   H15C 9720   2.741   2.631  10.031
   98OSM    C14 9721   2.637   2.873  10.249
   98OSM   H14A 9722   2.632   2.809  10.336
   98OSM   H14B 9723   2.549   2.936  10.249
   98OSM   H14C 9724   2.724   2.937  10.255
   98OSM    C13 9725   2.646   2.884  10.006
   98OSM   H13A 9726   2.636   2.827   9.914
   98OSM   H13B 9727   2.739   2.939  10.004
   98OSM   H13C 9728   2.564   2.954  10.009
   98OSM    C12 9729   2.501   2.720  10.112
   98OSM   H12A 9730   2.508   2.625  10.162
   98OSM   H12B 9731   2.485   2.697  10.007
   98OSM    C11 9732   2.374   2.794  10.165
   98OSM   H11A 9733   2.373   2.785  10.276
   98OSM   H11B 9734   2.287   2.737  10.127
   98OSM      P 9735   2.231   3.005  10.101
   98OSM    O13 9736   2.132   2.952  10.197
   98OSM    O14 9737   2.250   3.152  10.097
   98OSM    O11 9738   2.194   2.950   9.955
   98OSM    O12 9739   2.370   2.933  10.129
   98OSM    C1S 9740   2.300   2.951   9.858
   98OSM    H1S 9741   2.395   2.911   9.900
   98OSM    H1T 9742   2.320   3.055   9.823
   98OSM     NF 9743   2.392   2.839   9.659
   98OSM    HNF 9744   2.398   2.876   9.567
   98OSM    C2S 9745   2.269   2.862   9.733
   98OSM    H2S 9746   2.231   2.764   9.768
   98OSM    C3S 9747   2.159   2.931   9.648
   98OSM    H3S 9748   2.188   3.037   9.629
   98OSM     O3 9749   2.036   2.934   9.719
   98OSM    HO3 9750   2.065   2.915   9.808
   98OSM    C4S 9751   2.142   2.859   9.516
   98OSM    H4S 9752   2.076   2.772   9.516
   98OSM    C5S 9753   2.205   2.899   9.402
   98OSM    H5S 9754   2.269   2.988   9.408
   98OSM    C6S 9755   2.200   2.838   9.264
   98OSM    H6S 9756   2.290   2.773   9.254
   98OSM    H6T 9757   2.216   2.918   9.188
   98OSM    C7S 9758   2.081   2.752   9.215
   98OSM    H7S 9759   2.002   2.821   9.177
   98OSM    H7T 9760   2.038   2.693   9.298
   98OSM    C8S 9761   2.126   2.655   9.104
   98OSM    H8S 9762   2.140   2.554   9.148
   98OSM    H8T 9763   2.225   2.688   9.065
   98OSM    C9S 9764   2.034   2.646   8.981
   98OSM    H9S 9765   1.929   2.635   9.017
   98OSM    H9T 9766   2.059   2.554   8.923
   98OSM   C10S 9767   2.043   2.767   8.887
   98OSM   H10S 9768   2.036   2.860   8.949
   98OSM   H10T 9769   1.955   2.763   8.819
   98OSM   C11S 9770   2.167   2.781   8.798
   98OSM   H11S 9771   2.258   2.787   8.862
   98OSM   H11T 9772   2.159   2.878   8.744
   98OSM   C12S 9773   2.181   2.668   8.695
   98OSM   H12S 9774   2.081   2.623   8.676
   98OSM   H12T 9775   2.244   2.589   8.740
   98OSM   C13S 9776   2.243   2.708   8.559
   98OSM   H13S 9777   2.253   2.614   8.500
   98OSM   H13T 9778   2.345   2.748   8.574
   98OSM   C14S 9779   2.160   2.809   8.476
   98OSM   H14S 9780   2.151   2.904   8.532
   98OSM   H14T 9781   2.058   2.768   8.461
   98OSM   C15S 9782   2.214   2.839   8.335
   98OSM   H15S 9783   2.315   2.883   8.343
   98OSM   H15T 9784   2.149   2.916   8.290
   98OSM   C16S 9785   2.214   2.716   8.242
   98OSM   H16S 9786   2.149   2.737   8.155
   98OSM   H16T 9787   2.171   2.629   8.295
   98OSM   C17S 9788   2.354   2.679   8.191
   98OSM   H17S 9789   2.392   2.763   8.129
   98OSM   H17T 9790   2.345   2.590   8.125
   98OSM   C18S 9791   2.456   2.649   8.301
   98OSM   H18S 9792   2.430   2.556   8.356
   98OSM   H18T 9793   2.464   2.733   8.374
   98OSM   H18U 9794   2.556   2.637   8.254
   98OSM    C1F 9795   2.491   2.763   9.704
   98OSM     OF 9796   2.484   2.706   9.812
   98OSM    C2F 9797   2.612   2.756   9.617
   98OSM    H2F 9798   2.699   2.727   9.681
   98OSM    H2G 9799   2.632   2.857   9.575
   98OSM    C3F 9800   2.599   2.655   9.502
   98OSM    H3F 9801   2.584   2.553   9.544
   98OSM    H3G 9802   2.695   2.654   9.446
   98OSM    C4F 9803   2.485   2.681   9.403
   98OSM    H4F 9804   2.493   2.784   9.360
   98OSM    H4G 9805   2.388   2.672   9.457
   98OSM    C5F 9806   2.481   2.578   9.290
   98OSM    H5F 9807   2.378   2.570   9.249
   98OSM    H5G 9808   2.505   2.479   9.335
   98OSM    C6F 9809   2.579   2.607   9.176
   98OSM    H6F 9810   2.587   2.512   9.119
   98OSM    H6G 9811   2.679   2.633   9.215
   98OSM    C7F 9812   2.530   2.710   9.073
   98OSM    H7F 9813   2.534   2.813   9.114
   98OSM    H7G 9814   2.424   2.685   9.054
   98OSM    C8F 9815   2.608   2.700   8.941
   98OSM    H8F 9816   2.633   2.594   8.922
   98OSM    H8G 9817   2.704   2.754   8.950
   98OSM    C9F 9818   2.522   2.750   8.827
   98OSM    H9F 9819   2.443   2.680   8.797
   98OSM   C10F 9820   2.534   2.866   8.760
   98OSM   H10F 9821   2.463   2.888   8.680
   98OSM   C11F 9822   2.638   2.972   8.784
   98OSM   H11F 9823   2.689   2.959   8.882
   98OSM   H11G 9824   2.592   3.073   8.784
   98OSM   C12F 9825   2.742   2.964   8.671
   98OSM   H12F 9826   2.779   2.859   8.662
   98OSM   H12G 9827   2.830   3.026   8.698
   98OSM   C13F 9828   2.690   3.010   8.534
   98OSM   H13F 9829   2.665   3.118   8.538
   98OSM   H13G 9830   2.596   2.955   8.509
   98OSM   C14F 9831   2.793   2.985   8.424
   98OSM   H14F 9832   2.807   2.875   8.414
   98OSM   H14G 9833   2.891   3.026   8.457
   98OSM   C15F 9834   2.757   3.047   8.289
   98OSM   H15F 9835   2.834   3.015   8.215
   98OSM   H15G 9836   2.762   3.157   8.298
   98OSM   C16F 9837   2.619   3.008   8.234
   98OSM   H16F 9838   2.540   3.057   8.295
   98OSM   H16G 9839   2.605   2.898   8.244
   98OSM   C17F 9840   2.600   3.046   8.086
   98OSM   H17F 9841   2.499   3.012   8.053
   98OSM   H17G 9842   2.675   2.989   8.026
   98OSM   C18F 9843   2.616   3.195   8.056
   98OSM   H18F 9844   2.718   3.230   8.082
   98OSM   H18G 9845   2.542   3.254   8.115
   98OSM   H18H 9846   2.598   3.215   7.948
   99OSM      N 9847   3.089   2.011  10.113
   99OSM    C15 9848   3.058   1.964  10.252
   99OSM   H15A 9849   2.972   2.017  10.288
   99OSM   H15B 9850   3.141   1.979  10.319
   99OSM   H15C 9851   3.032   1.859  10.252
   99OSM    C14 9852   3.206   1.938  10.056
   99OSM   H14A 9853   3.224   1.971   9.955
   99OSM   H14B 9854   3.188   1.832  10.052
   99OSM   H14C 9855   3.296   1.953  10.114
   99OSM    C13 9856   2.970   1.980  10.026
   99OSM   H13A 9857   2.939   1.877  10.035
   99OSM   H13B 9858   2.992   2.004   9.923
   99OSM   H13C 9859   2.888   2.043  10.056
   99OSM    C12 9860   3.111   2.161  10.111
   99OSM   H12A 9861   3.115   2.192  10.008
   99OSM   H12B 9862   3.208   2.185  10.153
   99OSM    C11 9863   3.004   2.250  10.180
   99OSM   H11A 9864   3.037   2.356  10.172
   99OSM   H11B 9865   2.998   2.226  10.289
   99OSM      P 9866   2.758   2.331  10.127
   99OSM    O13 9867   2.631   2.256  10.130
   99OSM    O14 9868   2.779   2.422  10.241
   99OSM    O11 9869   2.768   2.415   9.993
   99OSM    O12 9870   2.878   2.229  10.119
   99OSM    C1S 9871   2.890   2.441   9.923
   99OSM    H1S 9872   2.981   2.415   9.980
   99OSM    H1T 9873   2.897   2.550   9.900
   99OSM     NF 9874   3.035   2.376   9.738
   99OSM    HNF 9875   3.062   2.461   9.694
   99OSM    C2S 9876   2.898   2.366   9.786
   99OSM    H2S 9877   2.872   2.260   9.803
   99OSM    C3S 9878   2.794   2.427   9.688
   99OSM    H3S 9879   2.800   2.538   9.694
   99OSM     O3 9880   2.662   2.390   9.725
   99OSM    HO3 9881   2.668   2.368   9.818
   99OSM    C4S 9882   2.819   2.383   9.545
   99OSM    H4S 9883   2.768   2.291   9.515
   99OSM    C5S 9884   2.891   2.455   9.456
   99OSM    H5S 9885   2.934   2.550   9.490
   99OSM    C6S 9886   2.921   2.422   9.311
   99OSM    H6S 9887   3.011   2.359   9.302
   99OSM    H6T 9888   2.944   2.517   9.259
   99OSM    C7S 9889   2.807   2.355   9.231
   99OSM    H7S 9890   2.710   2.390   9.272
   99OSM    H7T 9891   2.811   2.245   9.244
   99OSM    C8S 9892   2.809   2.393   9.082
   99OSM    H8S 9893   2.817   2.503   9.071
   99OSM    H8T 9894   2.711   2.362   9.039
   99OSM    C9S 9895   2.919   2.327   9.000
   99OSM    H9S 9896   2.904   2.217   9.002
   99OSM    H9T 9897   3.016   2.351   9.048
   99OSM   C10S 9898   2.926   2.373   8.853
   99OSM   H10S 9899   2.996   2.303   8.802
   99OSM   H10T 9900   2.972   2.474   8.848
   99OSM   C11S 9901   2.792   2.376   8.778
   99OSM   H11S 9902   2.759   2.481   8.768
   99OSM   H11T 9903   2.714   2.322   8.836
   99OSM   C12S 9904   2.797   2.310   8.640
   99OSM   H12S 9905   2.807   2.200   8.654
   99OSM   H12T 9906   2.700   2.328   8.589
   99OSM   C13S 9907   2.910   2.358   8.549
   99OSM   H13S 9908   3.008   2.338   8.597
   99OSM   H13T 9909   2.903   2.468   8.537
   99OSM   C14S 9910   2.909   2.287   8.413
   99OSM   H14S 9911   2.919   2.177   8.428
   99OSM   H14T 9912   2.997   2.321   8.355
   99OSM   C15S 9913   2.784   2.313   8.328
   99OSM   H15S 9914   2.698   2.258   8.371
   99OSM   H15T 9915   2.802   2.272   8.226
   99OSM   C16S 9916   2.749   2.461   8.318
   99OSM   H16S 9917   2.715   2.501   8.417
   99OSM   H16T 9918   2.662   2.470   8.249
   99OSM   C17S 9919   2.863   2.548   8.264
   99OSM   H17S 9920   2.916   2.489   8.186
   99OSM   H17T 9921   2.935   2.568   8.346
   99OSM   C18S 9922   2.815   2.680   8.204
   99OSM   H18S 9923   2.901   2.747   8.183
   99OSM   H18T 9924   2.748   2.731   8.276
   99OSM   H18U 9925   2.759   2.662   8.110
   99OSM    C1F 9926   3.109   2.266   9.726
   99OSM     OF 9927   3.121   2.186   9.818
   99OSM    C2F 9928   3.161   2.243   9.588
   99OSM    H2F 9929   3.205   2.337   9.549
   99OSM    H2G 9930   3.073   2.218   9.525
   99OSM    C3F 9931   3.264   2.129   9.575
   99OSM    H3F 9932   3.365   2.165   9.602
   99OSM    H3G 9933   3.237   2.046   9.644
   99OSM    C4F 9934   3.265   2.071   9.433
   99OSM    H4F 9935   3.163   2.030   9.417
   99OSM    H4G 9936   3.338   1.987   9.427
   99OSM    C5F 9937   3.289   2.170   9.318
   99OSM    H5F 9938   3.387   2.221   9.330
   99OSM    H5G 9939   3.209   2.246   9.319
   99OSM    C6F 9940   3.284   2.097   9.182
   99OSM    H6F 9941   3.225   2.004   9.199
   99OSM    H6G 9942   3.386   2.069   9.149
   99OSM    C7F 9943   3.208   2.171   9.071
   99OSM    H7F 9944   3.231   2.279   9.078
   99OSM    H7G 9945   3.099   2.157   9.091
   99OSM    C8F 9946   3.239   2.125   8.927
   99OSM    H8F 9947   3.346   2.150   8.909
   99OSM    H8G 9948   3.180   2.189   8.857
   99OSM    C9F 9949   3.219   1.979   8.897
   99OSM    H9F 9950   3.281   1.913   8.959
   99OSM   C10F 9951   3.138   1.921   8.806
   99OSM   H10F 9952   3.138   1.812   8.800
   99OSM   C11F 9953   3.044   1.987   8.708
   99OSM   H11F 9954   3.028   2.095   8.730
   99OSM   H11G 9955   2.945   1.938   8.719
   99OSM   C12F 9956   3.089   1.974   8.561
   99OSM   H12F 9957   2.999   1.976   8.495
   99OSM   H12G 9958   3.138   1.875   8.544
   99OSM   C13F 9959   3.183   2.087   8.516
   99OSM   H13F 9960   3.261   2.099   8.593
   99OSM   H13G 9961   3.127   2.183   8.513
   99OSM   C14F 9962   3.245   2.061   8.378
   99OSM   H14F 9963   3.164   2.043   8.303
   99OSM   H14G 9964   3.304   1.968   8.384
   99OSM   C15F 9965   3.337   2.174   8.328
   99OSM   H15F 9966   3.397   2.135   8.243
   99OSM   H15G 9967   3.408   2.202   8.409
   99OSM   C16F 9968   3.268   2.302   8.280
   99OSM   H16F 9969   3.346   2.378   8.256
   99OSM   H16G 9970   3.207   2.344   8.364
   99OSM   C17F 9971   3.180   2.284   8.155
   99OSM   H17F 9972   3.121   2.377   8.142
   99OSM   H17G 9973   3.107   2.202   8.172
   99OSM   C18F 9974   3.259   2.258   8.026
   99OSM   H18F 9975   3.190   2.239   7.941
   99OSM   H18G 9976   3.326   2.170   8.037
   99OSM   H18H 9977   3.320   2.347   8.001
  100OSM      N 9978   5.720   3.730  10.212
  100OSM    C15 9979   5.787   3.665  10.329
  100OSM   H15A 9980   5.888   3.701  10.339
  100OSM   H15B 9981   5.792   3.558  10.317
  100OSM   H15C 9982   5.733   3.684  10.421
  100OSM    C14 9983   5.803   3.704  10.090
  100OSM   H14A 9984   5.813   3.599  10.065
  100OSM   H14B 9985   5.902   3.748  10.101
  100OSM   H14C 9986   5.760   3.754  10.005
  100OSM    C13 9987   5.584   3.669  10.192
  100OSM   H13A 9988   5.523   3.682  10.280
  100OSM   H13B 9989   5.592   3.564  10.170
  100OSM   H13C 9990   5.534   3.718  10.109
  100OSM    C12 9991   5.709   3.880  10.235
  100OSM   H12A 9992   5.809   3.919  10.247
  100OSM   H12B 9993   5.654   3.898  10.326
  100OSM    C11 9994   5.645   3.965  10.122
  100OSM   H11A 9995   5.624   4.067  10.160
  100OSM   H11B 9996   5.546   3.923  10.093
  100OSM      P 9997   5.866   4.050  10.017
  100OSM    O13 9998   5.829   4.191  10.045
  100OSM    O14 9999   5.952   3.982  10.116
  100OSM    O1110000   5.926   4.034   9.871
  100OSM    O1210001   5.730   3.969  10.007
  100OSM    C1S10002   5.866   3.942   9.778
  100OSM    H1S10003   5.756   3.960   9.770
  100OSM    H1T10004   5.882   3.837   9.810
  100OSM     NF10005   5.849   3.883   9.536
  100OSM    HNF10006   5.895   3.806   9.492
  100OSM    C2S10007   5.925   3.959   9.635
  100OSM    H2S10008   5.918   4.067   9.610
  100OSM    C3S10009   6.076   3.918   9.635
  100OSM    H3S10010   6.081   3.807   9.642
  100OSM     O310011   6.154   3.967   9.744
  100OSM    HO310012   6.088   4.006   9.802
  100OSM    C4S10013   6.134   3.958   9.501
  100OSM    H4S10014   6.145   3.876   9.429
  100OSM    C5S10015   6.173   4.082   9.466
  100OSM    H5S10016   6.166   4.164   9.539
  100OSM    C6S10017   6.231   4.120   9.332
  100OSM    H6S10018   6.339   4.095   9.331
  100OSM    H6T10019   6.224   4.230   9.319
  100OSM    C7S10020   6.175   4.054   9.205
  100OSM    H7S10021   6.186   3.943   9.209
  100OSM    H7T10022   6.239   4.089   9.121
  100OSM    C8S10023   6.030   4.092   9.177
  100OSM    H8S10024   6.013   4.200   9.198
  100OSM    H8T10025   5.965   4.034   9.245
  100OSM    C9S10026   5.993   4.064   9.031
  100OSM    H9S10027   5.882   4.062   9.023
  100OSM    H9T10028   6.032   3.963   9.004
  100OSM   C10S10029   6.049   4.166   8.931
  100OSM   H10S10030   6.157   4.185   8.950
  100OSM   H10T10031   5.995   4.262   8.945
  100OSM   C11S10032   6.034   4.119   8.785
  100OSM   H11S10033   6.100   4.032   8.768
  100OSM   H11T10034   6.066   4.200   8.717
  100OSM   C12S10035   5.890   4.079   8.753
  100OSM   H12S10036   5.823   4.161   8.788
  100OSM   H12T10037   5.861   3.989   8.811
  100OSM   C13S10038   5.863   4.052   8.605
  100OSM   H13S10039   5.922   3.965   8.571
  100OSM   H13T10040   5.893   4.140   8.544
  100OSM   C14S10041   5.713   4.025   8.585
  100OSM   H14S10042   5.654   4.111   8.621
  100OSM   H14T10043   5.688   3.938   8.649
  100OSM   C15S10044   5.670   3.994   8.441
  100OSM   H15S10045   5.713   3.896   8.411
  100OSM   H15T10046   5.711   4.070   8.371
  100OSM   C16S10047   5.517   3.990   8.430
  100OSM   H16S10048   5.477   4.094   8.430
  100OSM   H16T10049   5.476   3.939   8.520
  100OSM   C17S10050   5.466   3.914   8.308
  100OSM   H17S10051   5.356   3.901   8.317
  100OSM   H17T10052   5.512   3.813   8.308
  100OSM   C18S10053   5.498   3.981   8.175
  100OSM   H18S10054   5.606   4.004   8.167
  100OSM   H18T10055   5.440   4.075   8.164
  100OSM   H18U10056   5.471   3.913   8.091
  100OSM    C1F10057   5.725   3.915   9.499
  100OSM     OF10058   5.665   4.007   9.551
  100OSM    C2F10059   5.664   3.832   9.390
  100OSM    H2F10060   5.560   3.806   9.418
  100OSM    H2G10061   5.722   3.738   9.380
  100OSM    C3F10062   5.664   3.907   9.255
  100OSM    H3F10063   5.764   3.952   9.236
  100OSM    H3G10064   5.592   3.992   9.261
  100OSM    C4F10065   5.627   3.819   9.134
  100OSM    H4F10066   5.625   3.883   9.044
  100OSM    H4G10067   5.524   3.780   9.149
  100OSM    C5F10068   5.723   3.701   9.106
  100OSM    H5F10069   5.688   3.650   9.014
  100OSM    H5G10070   5.717   3.627   9.189
  100OSM    C6F10071   5.868   3.745   9.086
  100OSM    H6F10072   5.907   3.787   9.182
  100OSM    H6G10073   5.868   3.828   9.012
  100OSM    C7F10074   5.966   3.636   9.039
  100OSM    H7F10075   5.955   3.548   9.106
  100OSM    H7G10076   6.070   3.673   9.050
  100OSM    C8F10077   5.947   3.589   8.892
  100OSM    H8F10078   5.845   3.546   8.883
  100OSM    H8G10079   6.017   3.505   8.876
  100OSM    C9F10080   5.969   3.699   8.790
  100OSM    H9F10081   5.916   3.793   8.811
  100OSM   C10F10082   6.043   3.691   8.678
  100OSM   H10F10083   6.052   3.780   8.613
  100OSM   C11F10084   6.119   3.570   8.632
  100OSM   H11F10085   6.067   3.477   8.665
  100OSM   H11G10086   6.220   3.570   8.679
  100OSM   C12F10087   6.139   3.557   8.480
  100OSM   H12F10088   6.204   3.470   8.462
  100OSM   H12G10089   6.192   3.647   8.441
  100OSM   C13F10090   6.009   3.535   8.401
  100OSM   H13F10091   5.952   3.631   8.400
  100OSM   H13G10092   5.945   3.459   8.451
  100OSM   C14F10093   6.038   3.490   8.257
  100OSM   H14F10094   6.040   3.380   8.250
  100OSM   H14G10095   6.139   3.527   8.230
  100OSM   C15F10096   5.940   3.547   8.154
  100OSM   H15F10097   5.985   3.535   8.053
  100OSM   H15G10098   5.929   3.656   8.174
  100OSM   C16F10099   5.802   3.480   8.152
  100OSM   H16F10100   5.764   3.469   8.255
  100OSM   H16G10101   5.812   3.378   8.109
  100OSM   C17F10102   5.701   3.562   8.069
  100OSM   H17F10103   5.745   3.584   7.970
  100OSM   H17G10104   5.684   3.659   8.121
  100OSM   C18F10105   5.568   3.491   8.049
  100OSM   H18F10106   5.579   3.406   7.978
  100OSM   H18G10107   5.492   3.561   8.009
  100OSM   H18H10108   5.533   3.450   8.146
  101OSM      N10109   1.467   3.988  10.123
  101OSM    C1510110   1.475   3.855  10.054
  101OSM   H15A10111   1.559   3.798  10.090
  101OSM   H15B10112   1.487   3.868   9.948
  101OSM   H15C10113   1.386   3.798  10.073
  101OSM    C1410114   1.344   4.060  10.075
  101OSM   H14A10115   1.251   4.011  10.103
  101OSM   H14B10116   1.346   4.073   9.968
  101OSM   H14C10117   1.343   4.160  10.116
  101OSM    C1310118   1.456   3.966  10.271
  101OSM   H13A10119   1.542   3.911  10.307
  101OSM   H13B10120   1.368   3.909  10.295
  101OSM   H13C10121   1.451   4.061  10.321
  101OSM    C1210122   1.589   4.074  10.090
  101OSM   H12A10123   1.591   4.091   9.983
  101OSM   H12B10124   1.679   4.019  10.114
  101OSM    C1110125   1.597   4.214  10.155
  101OSM   H11A10126   1.695   4.259  10.130
  101OSM   H11B10127   1.592   4.205  10.266
  101OSM      P10128   1.474   4.446  10.144
  101OSM    O1310129   1.328   4.471  10.150
  101OSM    O1410130   1.548   4.471  10.269
  101OSM    O1110131   1.537   4.524  10.022
  101OSM    O1210132   1.490   4.295  10.106
  101OSM    C1S10133   1.606   4.458   9.915
  101OSM    H1S10134   1.670   4.374   9.951
  101OSM    H1T10135   1.678   4.529   9.869
  101OSM     NF10136   1.598   4.351   9.697
  101OSM    HNF10137   1.631   4.416   9.628
  101OSM    C2S10138   1.513   4.407   9.801
  101OSM    H2S10139   1.448   4.327   9.841
  101OSM    C3S10140   1.421   4.523   9.752
  101OSM    H3S10141   1.479   4.618   9.746
  101OSM     O310142   1.312   4.549   9.840
  101OSM    HO310143   1.345   4.527   9.927
  101OSM    C4S10144   1.363   4.491   9.617
  101OSM    H4S10145   1.286   4.412   9.617
  101OSM    C5S10146   1.395   4.552   9.501
  101OSM    H5S10147   1.471   4.632   9.502
  101OSM    C6S10148   1.337   4.519   9.366
  101OSM    H6S10149   1.384   4.584   9.290
  101OSM    H6T10150   1.228   4.542   9.365
  101OSM    C7S10151   1.357   4.372   9.326
  101OSM    H7S10152   1.315   4.305   9.404
  101OSM    H7T10153   1.466   4.351   9.320
  101OSM    C8S10154   1.291   4.336   9.192
  101OSM    H8S10155   1.181   4.345   9.204
  101OSM    H8T10156   1.313   4.230   9.169
  101OSM    C9S10157   1.334   4.423   9.073
  101OSM    H9S10158   1.301   4.527   9.090
  101OSM    H9T10159   1.281   4.385   8.982
  101OSM   C10S10160   1.485   4.424   9.047
  101OSM   H10S10161   1.533   4.349   9.113
  101OSM   H10T10162   1.528   4.523   9.074
  101OSM   C11S10163   1.521   4.389   8.902
  101OSM   H11S10164   1.497   4.475   8.836
  101OSM   H11T10165   1.460   4.303   8.869
  101OSM   C12S10166   1.669   4.353   8.888
  101OSM   H12S10167   1.695   4.267   8.953
  101OSM   H12T10168   1.730   4.440   8.923
  101OSM   C13S10169   1.710   4.319   8.745
  101OSM   H13S10170   1.821   4.307   8.745
  101OSM   H13T10171   1.683   4.404   8.678
  101OSM   C14S10172   1.649   4.190   8.688
  101OSM   H14S10173   1.538   4.195   8.694
  101OSM   H14T10174   1.683   4.103   8.747
  101OSM   C15S10175   1.688   4.171   8.540
  101OSM   H15S10176   1.642   4.253   8.482
  101OSM   H15T10177   1.646   4.075   8.504
  101OSM   C16S10178   1.840   4.173   8.518
  101OSM   H16S10179   1.888   4.100   8.587
  101OSM   H16T10180   1.879   4.274   8.542
  101OSM   C17S10181   1.882   4.140   8.374
  101OSM   H17S10182   1.860   4.032   8.355
  101OSM   H17T10183   1.992   4.153   8.367
  101OSM   C18S10184   1.813   4.225   8.268
  101OSM   H18S10185   1.848   4.196   8.166
  101OSM   H18T10186   1.835   4.332   8.284
  101OSM   H18U10187   1.703   4.211   8.270
  101OSM    C1F10188   1.649   4.228   9.706
  101OSM     OF10189   1.627   4.158   9.804
  101OSM    C2F10190   1.735   4.180   9.593
  101OSM    H2F10191   1.832   4.144   9.635
  101OSM    H2G10192   1.756   4.264   9.523
  101OSM    C3F10193   1.665   4.064   9.519
  101OSM    H3F10194   1.566   4.097   9.481
  101OSM    H3G10195   1.647   3.982   9.592
  101OSM    C4F10196   1.748   4.005   9.403
  101OSM    H4F10197   1.707   3.904   9.379
  101OSM    H4G10198   1.852   3.990   9.438
  101OSM    C5F10199   1.748   4.089   9.274
  101OSM    H5F10200   1.823   4.045   9.205
  101OSM    H5G10201   1.781   4.192   9.298
  101OSM    C6F10202   1.614   4.094   9.198
  101OSM    H6F10203   1.534   4.134   9.264
  101OSM    H6G10204   1.626   4.166   9.114
  101OSM    C7F10205   1.570   3.961   9.137
  101OSM    H7F10206   1.548   3.892   9.222
  101OSM    H7G10207   1.654   3.919   9.078
  101OSM    C8F10208   1.446   3.973   9.045
  101OSM    H8F10209   1.479   4.013   8.947
  101OSM    H8G10210   1.378   4.049   9.089
  101OSM    C9F10211   1.372   3.842   9.035
  101OSM    H9F10212   1.341   3.801   9.132
  101OSM   C10F10213   1.341   3.774   8.924
  101OSM   H10F10214   1.289   3.678   8.934
  101OSM   C11F10215   1.375   3.812   8.783
  101OSM   H11F10216   1.390   3.719   8.724
  101OSM   H11G10217   1.471   3.868   8.782
  101OSM   C12F10218   1.275   3.900   8.706
  101OSM   H12F10219   1.262   3.996   8.761
  101OSM   H12G10220   1.176   3.851   8.698
  101OSM   C13F10221   1.328   3.930   8.565
  101OSM   H13F10222   1.317   3.839   8.501
  101OSM   H13G10223   1.437   3.952   8.572
  101OSM   C14F10224   1.261   4.050   8.497
  101OSM   H14F10225   1.278   4.140   8.559
  101OSM   H14G10226   1.152   4.032   8.491
  101OSM   C15F10227   1.317   4.074   8.356
  101OSM   H15F10228   1.294   3.985   8.293
  101OSM   H15G10229   1.428   4.083   8.360
  101OSM   C16F10230   1.258   4.199   8.290
  101OSM   H16F10231   1.305   4.290   8.334
  101OSM   H16G10232   1.149   4.203   8.312
  101OSM   C17F10233   1.276   4.201   8.137
  101OSM   H17F10234   1.224   4.290   8.097
  101OSM   H17G10235   1.225   4.111   8.096
  101OSM   C18F10236   1.421   4.202   8.090
  101OSM   H18F10237   1.475   4.111   8.124
  101OSM   H18G10238   1.474   4.292   8.128
  101OSM   H18H10239   1.424   4.204   7.978
  102OSM      N10240   3.524   5.905  10.274
  102OSM    C1510241   3.409   5.998  10.248
  102OSM   H15A10242   3.429   6.054  10.158
  102OSM   H15B10243   3.400   6.069  10.329
  102OSM   H15C10244   3.316   5.944  10.237
  102OSM    C1410245   3.648   5.990  10.281
  102OSM   H14A10246   3.644   6.063  10.360
  102OSM   H14B10247   3.660   6.041  10.187
  102OSM   H14C10248   3.737   5.930  10.288
  102OSM    C1310249   3.505   5.835  10.404
  102OSM   H13A10250   3.414   5.775  10.404
  102OSM   H13B10251   3.498   5.905  10.486
  102OSM   H13C10252   3.587   5.768  10.425
  102OSM    C1210253   3.538   5.804  10.161
  102OSM   H12A10254   3.453   5.736  10.164
  102OSM   H12B10255   3.626   5.744  10.180
  102OSM    C1110256   3.553   5.858  10.017
  102OSM   H11A10257   3.469   5.926   9.992
  102OSM   H11B10258   3.547   5.774   9.944
  102OSM      P10259   3.815   5.853  10.002
  102OSM    O1310260   3.872   5.871  10.137
  102OSM    O1410261   3.790   5.712   9.961
  102OSM    O1110262   3.896   5.932   9.891
  102OSM    O1210263   3.675   5.929  10.001
  102OSM    C1S10264   3.889   6.077   9.885
  102OSM    H1S10265   3.974   6.120   9.942
  102OSM    H1T10266   3.798   6.118   9.933
  102OSM     NF10267   3.792   6.061   9.657
  102OSM    HNF10268   3.827   6.006   9.582
  102OSM    C2S10269   3.892   6.132   9.738
  102OSM    H2S10270   3.866   6.240   9.739
  102OSM    C3S10271   4.041   6.119   9.688
  102OSM    H3S10272   4.076   6.015   9.707
  102OSM     O310273   4.128   6.205   9.760
  102OSM    HO310274   4.136   6.167   9.848
  102OSM    C4S10275   4.070   6.156   9.542
  102OSM    H4S10276   4.022   6.246   9.501
  102OSM    C5S10277   4.159   6.082   9.469
  102OSM    H5S10278   4.208   6.002   9.527
  102OSM    C6S10279   4.218   6.087   9.328
  102OSM    H6S10280   4.313   6.032   9.344
  102OSM    H6T10281   4.243   6.193   9.305
  102OSM    C7S10282   4.185   6.022   9.187
  102OSM    H7S10283   4.268   6.047   9.119
  102OSM    H7T10284   4.098   6.078   9.146
  102OSM    C8S10285   4.170   5.867   9.176
  102OSM    H8S10286   4.088   5.833   9.242
  102OSM    H8T10287   4.265   5.821   9.213
  102OSM    C9S10288   4.135   5.805   9.038
  102OSM    H9S10289   4.157   5.697   9.043
  102OSM    H9T10290   4.198   5.850   8.958
  102OSM   C10S10291   3.985   5.819   9.004
  102OSM   H10S10292   3.966   5.927   8.986
  102OSM   H10T10293   3.924   5.784   9.090
  102OSM   C11S10294   3.928   5.752   8.879
  102OSM   H11S10295   3.863   5.670   8.915
  102OSM   H11T10296   4.012   5.712   8.818
  102OSM   C12S10297   3.838   5.840   8.792
  102OSM   H12S10298   3.890   5.935   8.766
  102OSM   H12T10299   3.744   5.866   8.846
  102OSM   C13S10300   3.805   5.765   8.663
  102OSM   H13S10301   3.752   5.670   8.686
  102OSM   H13T10302   3.903   5.738   8.617
  102OSM   C14S10303   3.725   5.842   8.558
  102OSM   H14S10304   3.745   5.951   8.567
  102OSM   H14T10305   3.616   5.826   8.576
  102OSM   C15S10306   3.763   5.795   8.417
  102OSM   H15S10307   3.670   5.779   8.358
  102OSM   H15T10308   3.813   5.696   8.422
  102OSM   C16S10309   3.853   5.895   8.344
  102OSM   H16S10310   3.943   5.917   8.407
  102OSM   H16T10311   3.797   5.991   8.334
  102OSM   C17S10312   3.898   5.849   8.205
  102OSM   H17S10313   3.888   5.934   8.134
  102OSM   H17T10314   3.831   5.768   8.169
  102OSM   C18S10315   4.043   5.800   8.202
  102OSM   H18S10316   4.057   5.712   8.269
  102OSM   H18T10317   4.113   5.878   8.238
  102OSM   H18U10318   4.073   5.771   8.099
  102OSM    C1F10319   3.663   6.047   9.693
  102OSM     OF10320   3.611   6.116   9.781
  102OSM    C2F10321   3.585   5.933   9.630
  102OSM    H2F10322   3.568   5.860   9.711
  102OSM    H2G10323   3.648   5.883   9.553
  102OSM    C3F10324   3.446   5.969   9.569
  102OSM    H3F10325   3.395   6.038   9.639
  102OSM    H3G10326   3.385   5.876   9.564
  102OSM    C4F10327   3.445   6.033   9.428
  102OSM    H4F10328   3.529   6.105   9.421
  102OSM    H4G10329   3.351   6.091   9.416
  102OSM    C5F10330   3.449   5.936   9.308
  102OSM    H5F10331   3.350   5.892   9.286
  102OSM    H5G10332   3.515   5.852   9.338
  102OSM    C6F10333   3.511   5.996   9.180
  102OSM    H6F10334   3.538   5.911   9.113
  102OSM    H6G10335   3.604   6.046   9.215
  102OSM    C7F10336   3.445   6.107   9.094
  102OSM    H7F10337   3.467   6.205   9.142
  102OSM    H7G10338   3.335   6.096   9.089
  102OSM    C8F10339   3.503   6.102   8.950
  102OSM    H8F10340   3.439   6.033   8.892
  102OSM    H8G10341   3.602   6.052   8.957
  102OSM    C9F10342   3.527   6.231   8.873
  102OSM    H9F10343   3.605   6.296   8.917
  102OSM   C10F10344   3.466   6.270   8.760
  102OSM   H10F10345   3.496   6.364   8.712
  102OSM   C11F10346   3.358   6.194   8.687
  102OSM   H11F10347   3.291   6.262   8.631
  102OSM   H11G10348   3.292   6.149   8.764
  102OSM   C12F10349   3.404   6.080   8.593
  102OSM   H12F10350   3.336   6.002   8.631
  102OSM   H12G10351   3.508   6.045   8.611
  102OSM   C13F10352   3.364   6.080   8.444
  102OSM   H13F10353   3.318   6.176   8.412
  102OSM   H13G10354   3.281   6.007   8.431
  102OSM   C14F10355   3.472   6.036   8.344
  102OSM   H14F10356   3.570   6.023   8.396
  102OSM   H14G10357   3.486   6.115   8.267
  102OSM   C15F10358   3.431   5.906   8.274
  102OSM   H15F10359   3.327   5.918   8.235
  102OSM   H15G10360   3.429   5.825   8.350
  102OSM   C16F10361   3.520   5.863   8.157
  102OSM   H16F10362   3.514   5.753   8.144
  102OSM   H16G10363   3.625   5.889   8.182
  102OSM   C17F10364   3.485   5.931   8.025
  102OSM   H17F10365   3.574   5.922   7.960
  102OSM   H17G10366   3.468   6.039   8.045
  102OSM   C18F10367   3.364   5.875   7.949
  102OSM   H18F10368   3.353   5.927   7.851
  102OSM   H18G10369   3.271   5.892   8.007
  102OSM   H18H10370   3.376   5.767   7.930
  103OSM      N10371   2.558   1.187  10.129
  103OSM    C1510372   2.561   1.052  10.066
  103OSM   H15A10373   2.634   0.988  10.112
  103OSM   H15B10374   2.580   1.056   9.960
  103OSM   H15C10375   2.467   1.000  10.079
  103OSM    C1410376   2.521   1.174  10.273
  103OSM   H14A10377   2.594   1.117  10.329
  103OSM   H14B10378   2.424   1.130  10.285
  103OSM   H14C10379   2.517   1.273  10.317
  103OSM    C1310380   2.692   1.252  10.118
  103OSM   H13A10381   2.769   1.197  10.171
  103OSM   H13B10382   2.686   1.350  10.161
  103OSM   H13C10383   2.720   1.266  10.015
  103OSM    C1210384   2.455   1.277  10.061
  103OSM   H12A10385   2.365   1.220  10.043
  103OSM   H12B10386   2.492   1.307   9.964
  103OSM    C1110387   2.413   1.406  10.135
  103OSM   H11A10388   2.354   1.379  10.225
  103OSM   H11B10389   2.344   1.464  10.071
  103OSM      P10390   2.591   1.592  10.082
  103OSM    O1310391   2.499   1.705  10.065
  103OSM    O1410392   2.725   1.621  10.137
  103OSM    O1110393   2.611   1.512   9.946
  103OSM    O1210394   2.525   1.484  10.176
  103OSM    C1S10395   2.528   1.540   9.832
  103OSM    H1S10396   2.518   1.649   9.815
  103OSM    H1T10397   2.425   1.500   9.848
  103OSM     NF10398   2.594   1.333   9.706
  103OSM    HNF10399   2.683   1.297   9.677
  103OSM    C2S10400   2.587   1.477   9.702
  103OSM    H2S10401   2.520   1.505   9.618
  103OSM    C3S10402   2.729   1.532   9.671
  103OSM    H3S10403   2.797   1.501   9.753
  103OSM     O310404   2.739   1.674   9.664
  103OSM    HO310405   2.654   1.708   9.691
  103OSM    C4S10406   2.779   1.470   9.541
  103OSM    H4S10407   2.724   1.499   9.450
  103OSM    C5S10408   2.887   1.388   9.534
  103OSM    H5S10409   2.940   1.369   9.629
  103OSM    C6S10410   2.954   1.317   9.418
  103OSM    H6S10411   2.973   1.212   9.449
  103OSM    H6T10412   3.055   1.363   9.406
  103OSM    C7S10413   2.897   1.307   9.274
  103OSM    H7S10414   2.807   1.244   9.270
  103OSM    H7T10415   2.974   1.254   9.214
  103OSM    C8S10416   2.871   1.442   9.205
  103OSM    H8S10417   2.931   1.519   9.258
  103OSM    H8T10418   2.764   1.470   9.217
  103OSM    C9S10419   2.910   1.446   9.056
  103OSM    H9S10420   3.009   1.398   9.041
  103OSM    H9T10421   2.920   1.553   9.027
  103OSM   C10S10422   2.806   1.384   8.962
  103OSM   H10S10423   2.709   1.434   8.980
  103OSM   H10T10424   2.792   1.276   8.985
  103OSM   C11S10425   2.843   1.401   8.813
  103OSM   H11S10426   2.891   1.500   8.797
  103OSM   H11T10427   2.750   1.398   8.752
  103OSM   C12S10428   2.935   1.289   8.765
  103OSM   H12S10429   2.881   1.193   8.777
  103OSM   H12T10430   3.025   1.286   8.830
  103OSM   C13S10431   2.982   1.300   8.619
  103OSM   H13S10432   3.057   1.220   8.601
  103OSM   H13T10433   3.032   1.398   8.603
  103OSM   C14S10434   2.869   1.283   8.516
  103OSM   H14S10435   2.802   1.371   8.520
  103OSM   H14T10436   2.810   1.193   8.540
  103OSM   C15S10437   2.927   1.268   8.375
  103OSM   H15S10438   2.990   1.176   8.372
  103OSM   H15T10439   2.994   1.354   8.354
  103OSM   C16S10440   2.824   1.262   8.262
  103OSM   H16S10441   2.745   1.187   8.285
  103OSM   H16T10442   2.875   1.229   8.168
  103OSM   C17S10443   2.762   1.400   8.236
  103OSM   H17S10444   2.843   1.475   8.231
  103OSM   H17T10445   2.699   1.425   8.324
  103OSM   C18S10446   2.680   1.408   8.108
  103OSM   H18S10447   2.607   1.325   8.102
  103OSM   H18T10448   2.747   1.405   8.020
  103OSM   H18U10449   2.623   1.504   8.105
  103OSM    C1F10450   2.498   1.245   9.724
  103OSM     OF10451   2.387   1.273   9.769
  103OSM    C2F10452   2.539   1.105   9.692
  103OSM    H2F10453   2.476   1.038   9.754
  103OSM    H2G10454   2.645   1.090   9.721
  103OSM    C3F10455   2.521   1.072   9.542
  103OSM    H3F10456   2.415   1.090   9.514
  103OSM    H3G10457   2.542   0.964   9.530
  103OSM    C4F10458   2.612   1.146   9.443
  103OSM    H4F10459   2.645   1.075   9.364
  103OSM    H4G10460   2.704   1.182   9.495
  103OSM    C5F10461   2.542   1.263   9.371
  103OSM    H5F10462   2.618   1.322   9.316
  103OSM    H5G10463   2.495   1.333   9.444
  103OSM    C6F10464   2.437   1.218   9.269
  103OSM    H6F10465   2.341   1.196   9.321
  103OSM    H6G10466   2.472   1.124   9.221
  103OSM    C7F10467   2.415   1.323   9.159
  103OSM    H7F10468   2.509   1.334   9.101
  103OSM    H7G10469   2.394   1.421   9.206
  103OSM    C8F10470   2.300   1.289   9.063
  103OSM    H8F10471   2.299   1.364   8.980
  103OSM    H8G10472   2.204   1.302   9.118
  103OSM    C9F10473   2.307   1.148   9.010
  103OSM    H9F10474   2.248   1.075   9.067
  103OSM   C10F10475   2.377   1.106   8.903
  103OSM   H10F10476   2.370   1.000   8.874
  103OSM   C11F10477   2.462   1.191   8.812
  103OSM   H11F10478   2.562   1.146   8.798
  103OSM   H11G10479   2.477   1.294   8.853
  103OSM   C12F10480   2.390   1.203   8.677
  103OSM   H12F10481   2.290   1.247   8.695
  103OSM   H12G10482   2.375   1.102   8.632
  103OSM   C13F10483   2.462   1.291   8.573
  103OSM   H13F10484   2.548   1.236   8.530
  103OSM   H13G10485   2.500   1.383   8.623
  103OSM   C14F10486   2.362   1.331   8.464
  103OSM   H14F10487   2.281   1.390   8.512
  103OSM   H14G10488   2.317   1.238   8.422
  103OSM   C15F10489   2.418   1.409   8.346
  103OSM   H15F10490   2.470   1.337   8.278
  103OSM   H15G10491   2.494   1.481   8.383
  103OSM   C16F10492   2.309   1.485   8.268
  103OSM   H16F10493   2.353   1.530   8.177
  103OSM   H16G10494   2.274   1.568   8.333
  103OSM   C17F10495   2.186   1.401   8.229
  103OSM   H17F10496   2.104   1.471   8.200
  103OSM   H17G10497   2.149   1.344   8.316
  103OSM   C18F10498   2.212   1.306   8.112
  103OSM   H18F10499   2.220   1.366   8.018
  103OSM   H18G10500   2.128   1.234   8.100
  103OSM   H18H10501   2.306   1.249   8.126
  104OSM      N10502   3.852   0.610  10.044
  104OSM    C1510503   3.889   0.500  10.139
  104OSM   H15A10504   3.889   0.539  10.240
  104OSM   H15B10505   3.987   0.460  10.119
  104OSM   H15C10506   3.818   0.418  10.138
  104OSM    C1410507   3.960   0.714  10.049
  104OSM   H14A10508   4.058   0.670  10.040
  104OSM   H14B10509   3.953   0.767  10.143
  104OSM   H14C10510   3.948   0.785   9.969
  104OSM    C1310511   3.846   0.561   9.903
  104OSM   H13A10512   3.940   0.516   9.875
  104OSM   H13B10513   3.831   0.643   9.835
  104OSM   H13C10514   3.767   0.489   9.890
  104OSM    C1210515   3.718   0.669  10.084
  104OSM   H12A10516   3.640   0.596  10.066
  104OSM   H12B10517   3.699   0.755  10.021
  104OSM    C1110518   3.703   0.718  10.230
  104OSM   H11A10519   3.721   0.634  10.300
  104OSM   H11B10520   3.598   0.749  10.247
  104OSM      P10521   3.760   0.970  10.217
  104OSM    O1310522   3.635   1.012  10.283
  104OSM    O1410523   3.877   1.058  10.232
  104OSM    O1110524   3.723   0.955  10.064
  104OSM    O1210525   3.796   0.823  10.259
  104OSM    C1S10526   3.801   1.016   9.961
  104OSM    H1S10527   3.902   0.970   9.956
  104OSM    H1T10528   3.816   1.125   9.979
  104OSM     NF10529   3.820   1.032   9.716
  104OSM    HNF10530   3.808   1.119   9.669
  104OSM    C2S10531   3.730   0.998   9.824
  104OSM    H2S10532   3.701   0.892   9.813
  104OSM    C3S10533   3.600   1.084   9.824
  104OSM    H3S10534   3.626   1.188   9.852
  104OSM     O310535   3.507   1.036   9.921
  104OSM    HO310536   3.563   0.983   9.978
  104OSM    C4S10537   3.540   1.085   9.685
  104OSM    H4S10538   3.513   1.185   9.650
  104OSM    C5S10539   3.515   0.979   9.604
  104OSM    H5S10540   3.540   0.877   9.636
  104OSM    C6S10541   3.456   0.991   9.466
  104OSM    H6S10542   3.411   1.092   9.449
  104OSM    H6T10543   3.372   0.919   9.455
  104OSM    C7S10544   3.557   0.964   9.353
  104OSM    H7S10545   3.615   0.871   9.372
  104OSM    H7T10546   3.628   1.049   9.344
  104OSM    C8S10547   3.482   0.947   9.219
  104OSM    H8S10548   3.419   1.037   9.203
  104OSM    H8T10549   3.415   0.859   9.229
  104OSM    C9S10550   3.571   0.928   9.095
  104OSM    H9S10551   3.654   1.002   9.097
  104OSM    H9T10552   3.509   0.950   9.006
  104OSM   C10S10553   3.627   0.786   9.077
  104OSM   H10S10554   3.547   0.711   9.087
  104OSM   H10T10555   3.701   0.767   9.158
  104OSM   C11S10556   3.696   0.769   8.940
  104OSM   H11S10557   3.782   0.700   8.950
  104OSM   H11T10558   3.735   0.867   8.907
  104OSM   C12S10559   3.602   0.713   8.833
  104OSM   H12S10560   3.509   0.774   8.833
  104OSM   H12T10561   3.575   0.609   8.861
  104OSM   C13S10562   3.662   0.711   8.691
  104OSM   H13S10563   3.605   0.637   8.632
  104OSM   H13T10564   3.768   0.677   8.694
  104OSM   C14S10565   3.651   0.846   8.619
  104OSM   H14S10566   3.723   0.919   8.662
  104OSM   H14T10567   3.548   0.886   8.636
  104OSM   C15S10568   3.671   0.835   8.467
  104OSM   H15S10569   3.612   0.750   8.429
  104OSM   H15T10570   3.778   0.814   8.445
  104OSM   C16S10571   3.626   0.962   8.393
  104OSM   H16S10572   3.689   1.048   8.425
  104OSM   H16T10573   3.521   0.984   8.420
  104OSM   C17S10574   3.634   0.948   8.240
  104OSM   H17S10575   3.575   0.860   8.208
  104OSM   H17T10576   3.740   0.929   8.212
  104OSM   C18S10577   3.582   1.072   8.168
  104OSM   H18S10578   3.607   1.068   8.060
  104OSM   H18T10579   3.629   1.165   8.209
  104OSM   H18U10580   3.472   1.081   8.179
  104OSM    C1F10581   3.915   0.948   9.678
  104OSM     OF10582   3.931   0.841   9.735
  104OSM    C2F10583   3.999   0.997   9.564
  104OSM    H2F10584   4.107   0.980   9.588
  104OSM    H2G10585   3.984   1.107   9.556
  104OSM    C3F10586   3.964   0.934   9.427
  104OSM    H3F10587   3.854   0.922   9.414
  104OSM    H3G10588   4.011   0.834   9.421
  104OSM    C4F10589   4.016   1.026   9.315
  104OSM    H4F10590   4.109   1.070   9.355
  104OSM    H4G10591   3.946   1.109   9.295
  104OSM    C5F10592   4.058   0.957   9.185
  104OSM    H5F10593   4.093   0.854   9.207
  104OSM    H5G10594   4.143   1.015   9.143
  104OSM    C6F10595   3.953   0.950   9.074
  104OSM    H6F10596   3.894   1.044   9.073
  104OSM    H6G10597   3.884   0.866   9.098
  104OSM    C7F10598   4.016   0.929   8.935
  104OSM    H7F10599   4.068   1.023   8.908
  104OSM    H7G10600   3.937   0.913   8.857
  104OSM    C8F10601   4.120   0.815   8.927
  104OSM    H8F10602   4.194   0.831   9.009
  104OSM    H8G10603   4.176   0.832   8.832
  104OSM    C9F10604   4.070   0.673   8.938
  104OSM    H9F10605   4.007   0.651   9.025
  104OSM   C10F10606   4.096   0.575   8.849
  104OSM   H10F10607   4.053   0.475   8.863
  104OSM   C11F10608   4.179   0.593   8.724
  104OSM   H11F10609   4.218   0.497   8.686
  104OSM   H11G10610   4.267   0.657   8.744
  104OSM   C12F10611   4.093   0.659   8.615
  104OSM   H12F10612   4.024   0.733   8.662
  104OSM   H12G10613   4.029   0.583   8.565
  104OSM   C13F10614   4.173   0.738   8.512
  104OSM   H13F10615   4.221   0.669   8.439
  104OSM   H13G10616   4.254   0.796   8.562
  104OSM   C14F10617   4.080   0.837   8.442
  104OSM   H14F10618   4.036   0.905   8.518
  104OSM   H14G10619   3.997   0.782   8.394
  104OSM   C15F10620   4.149   0.923   8.336
  104OSM   H15F10621   4.235   0.978   8.378
  104OSM   H15G10622   4.074   0.998   8.304
  104OSM   C16F10623   4.191   0.843   8.212
  104OSM   H16F10624   4.125   0.755   8.200
  104OSM   H16G10625   4.294   0.804   8.227
  104OSM   C17F10626   4.181   0.928   8.085
  104OSM   H17F10627   4.265   0.905   8.016
  104OSM   H17G10628   4.194   1.035   8.112
  104OSM   C18F10629   4.049   0.905   8.012
  104OSM   H18F10630   3.968   0.880   8.084
  104OSM   H18G10631   4.058   0.823   7.939
  104OSM   H18H10632   4.018   0.997   7.958
  105OSM      N10633   0.962   4.767  10.170
  105OSM    C1510634   0.903   4.656  10.252
  105OSM   H15A10635   0.940   4.561  10.218
  105OSM   H15B10636   0.795   4.654  10.245
  105OSM   H15C10637   0.930   4.667  10.356
  105OSM    C1410638   1.112   4.758  10.178
  105OSM   H14A10639   1.149   4.662  10.145
  105OSM   H14B10640   1.148   4.777  10.278
  105OSM   H14C10641   1.156   4.832  10.113
  105OSM    C1310642   0.926   4.746  10.025
  105OSM   H13A10643   0.819   4.751  10.009
  105OSM   H13B10644   0.963   4.651   9.990
  105OSM   H13C10645   0.974   4.822   9.965
  105OSM    C1210646   0.912   4.903  10.220
  105OSM   H12A10647   0.940   4.914  10.323
  105OSM   H12B10648   0.804   4.904  10.216
  105OSM    C1110649   0.962   5.032  10.149
  105OSM   H11A10650   0.895   5.116  10.179
  105OSM   H11B10651   0.951   5.020  10.039
  105OSM      P10652   1.206   5.098  10.084
  105OSM    O1310653   1.326   5.150  10.152
  105OSM    O1410654   1.223   4.979   9.998
  105OSM    O1110655   1.141   5.215   9.997
  105OSM    O1210656   1.095   5.063  10.191
  105OSM    C1S10657   1.204   5.251   9.873
  105OSM    H1S10658   1.314   5.236   9.875
  105OSM    H1T10659   1.189   5.359   9.854
  105OSM     NF10660   1.240   5.184   9.639
  105OSM    HNF10661   1.308   5.257   9.637
  105OSM    C2S10662   1.146   5.174   9.750
  105OSM    H2S10663   1.137   5.067   9.780
  105OSM    C3S10664   1.001   5.229   9.721
  105OSM    H3S10665   0.991   5.330   9.764
  105OSM     O310666   0.899   5.148   9.781
  105OSM    HO310667   0.947   5.085   9.835
  105OSM    C4S10668   0.976   5.243   9.572
  105OSM    H4S10669   1.002   5.343   9.533
  105OSM    C5S10670   0.933   5.149   9.485
  105OSM    H5S10671   0.914   5.047   9.524
  105OSM    C6S10672   0.913   5.166   9.337
  105OSM    H6S10673   0.805   5.168   9.314
  105OSM    H6T10674   0.954   5.076   9.286
  105OSM    C7S10675   0.982   5.288   9.272
  105OSM    H7S10676   1.088   5.293   9.305
  105OSM    H7T10677   0.932   5.381   9.307
  105OSM    C8S10678   0.981   5.283   9.118
  105OSM    H8S10679   1.042   5.195   9.087
  105OSM    H8T10680   1.030   5.374   9.078
  105OSM    C9S10681   0.841   5.272   9.056
  105OSM    H9S10682   0.784   5.365   9.079
  105OSM    H9T10683   0.785   5.187   9.102
  105OSM   C10S10684   0.842   5.249   8.904
  105OSM   H10S10685   0.901   5.329   8.855
  105OSM   H10T10686   0.737   5.257   8.869
  105OSM   C11S10687   0.896   5.111   8.864
  105OSM   H11S10688   0.849   5.036   8.931
  105OSM   H11T10689   1.006   5.107   8.880
  105OSM   C12S10690   0.862   5.073   8.719
  105OSM   H12S10691   0.753   5.087   8.705
  105OSM   H12T10692   0.885   4.966   8.702
  105OSM   C13S10693   0.935   5.156   8.613
  105OSM   H13S10694   0.930   5.264   8.638
  105OSM   H13T10695   0.882   5.142   8.516
  105OSM   C14S10696   1.082   5.115   8.593
  105OSM   H14S10697   1.086   5.012   8.552
  105OSM   H14T10698   1.132   5.114   8.692
  105OSM   C15S10699   1.158   5.211   8.500
  105OSM   H15S10700   1.265   5.182   8.497
  105OSM   H15T10701   1.152   5.314   8.542
  105OSM   C16S10702   1.106   5.213   8.355
  105OSM   H16S10703   0.995   5.224   8.354
  105OSM   H16T10704   1.131   5.115   8.309
  105OSM   C17S10705   1.166   5.326   8.272
  105OSM   H17S10706   1.265   5.351   8.316
  105OSM   H17T10707   1.104   5.417   8.283
  105OSM   C18S10708   1.184   5.292   8.124
  105OSM   H18S10709   1.233   5.377   8.070
  105OSM   H18T10710   1.086   5.272   8.076
  105OSM   H18U10711   1.248   5.202   8.112
  105OSM    C1F10712   1.239   5.087   9.547
  105OSM     OF10713   1.187   4.979   9.572
  105OSM    C2F10714   1.293   5.116   9.411
  105OSM    H2F10715   1.327   5.222   9.404
  105OSM    H2G10716   1.212   5.099   9.337
  105OSM    C3F10717   1.410   5.020   9.386
  105OSM    H3F10718   1.380   4.916   9.409
  105OSM    H3G10719   1.487   5.052   9.460
  105OSM    C4F10720   1.471   5.022   9.245
  105OSM    H4F10721   1.545   4.939   9.236
  105OSM    H4G10722   1.527   5.116   9.230
  105OSM    C5F10723   1.370   5.006   9.131
  105OSM    H5F10724   1.425   5.006   9.034
  105OSM    H5G10725   1.300   5.092   9.131
  105OSM    C6F10726   1.286   4.877   9.138
  105OSM    H6F10727   1.231   4.873   9.234
  105OSM    H6G10728   1.354   4.789   9.133
  105OSM    C7F10729   1.186   4.873   9.022
  105OSM    H7F10730   1.242   4.878   8.926
  105OSM    H7G10731   1.121   4.962   9.029
  105OSM    C8F10732   1.100   4.746   9.024
  105OSM    H8F10733   1.047   4.739   9.121
  105OSM    H8G10734   1.167   4.658   9.017
  105OSM    C9F10735   1.002   4.749   8.910
  105OSM    H9F10736   0.929   4.831   8.917
  105OSM   C10F10737   1.002   4.671   8.801
  105OSM   H10F10738   0.926   4.688   8.724
  105OSM   C11F10739   1.102   4.562   8.769
  105OSM   H11F10740   1.057   4.491   8.697
  105OSM   H11G10741   1.129   4.503   8.859
  105OSM   C12F10742   1.230   4.621   8.707
  105OSM   H12F10743   1.289   4.537   8.662
  105OSM   H12G10744   1.294   4.667   8.786
  105OSM   C13F10745   1.200   4.726   8.599
  105OSM   H13F10746   1.186   4.825   8.647
  105OSM   H13G10747   1.105   4.698   8.550
  105OSM   C14F10748   1.307   4.737   8.490
  105OSM   H14F10749   1.324   4.636   8.446
  105OSM   H14G10750   1.403   4.770   8.535
  105OSM   C15F10751   1.267   4.834   8.377
  105OSM   H15F10752   1.345   4.831   8.298
  105OSM   H15G10753   1.267   4.937   8.418
  105OSM   C16F10754   1.131   4.808   8.309
  105OSM   H16F10755   1.125   4.874   8.221
  105OSM   H16G10756   1.050   4.838   8.379
  105OSM   C17F10757   1.106   4.663   8.264
  105OSM   H17F10758   1.007   4.660   8.212
  105OSM   H17G10759   1.097   4.597   8.353
  105OSM   C18F10760   1.211   4.603   8.170
  105OSM   H18F10761   1.235   4.673   8.087
  105OSM   H18G10762   1.175   4.508   8.126
  105OSM   H18H10763   1.305   4.580   8.226
  106OSM      N10764   0.393   3.209  10.256
  106OSM    C1510765   0.271   3.289  10.291
  106OSM   H15A10766   0.259   3.298  10.398
  106OSM   H15B10767   0.180   3.245  10.251
  106OSM   H15C10768   0.280   3.389  10.252
  106OSM    C1410769   0.511   3.276  10.320
  106OSM   H14A10770   0.526   3.374  10.276
  106OSM   H14B10771   0.602   3.222  10.302
  106OSM   H14C10772   0.499   3.288  10.427
  106OSM    C1310773   0.384   3.071  10.312
  106OSM   H13A10774   0.299   3.017  10.273
  106OSM   H13B10775   0.375   3.075  10.420
  106OSM   H13C10776   0.474   3.016  10.290
  106OSM    C1210777   0.412   3.208  10.105
  106OSM   H12A10778   0.332   3.152  10.058
  106OSM   H12B10779   0.504   3.156  10.082
  106OSM    C1110780   0.422   3.345  10.034
  106OSM   H11A10781   0.331   3.406  10.056
  106OSM   H11B10782   0.423   3.328   9.925
  106OSM      P10783   0.558   3.568  10.057
  106OSM    O1310784   0.436   3.632  10.109
  106OSM    O1410785   0.687   3.605  10.121
  106OSM    O1110786   0.571   3.584   9.900
  106OSM    O1210787   0.542   3.411  10.074
  106OSM    C1S10788   0.646   3.487   9.826
  106OSM    H1S10789   0.620   3.383   9.854
  106OSM    H1T10790   0.755   3.501   9.843
  106OSM     NF10791   0.658   3.377   9.605
  106OSM    HNF10792   0.743   3.379   9.554
  106OSM    C2S10793   0.618   3.500   9.674
  106OSM    H2S10794   0.509   3.514   9.659
  106OSM    C3S10795   0.692   3.626   9.621
  106OSM    H3S10796   0.800   3.614   9.640
  106OSM     O310797   0.654   3.749   9.683
  106OSM    HO310798   0.601   3.722   9.758
  106OSM    C4S10799   0.673   3.630   9.471
  106OSM    H4S10800   0.759   3.590   9.415
  106OSM    C5S10801   0.569   3.678   9.400
  106OSM    H5S10802   0.483   3.723   9.452
  106OSM    C6S10803   0.564   3.673   9.250
  106OSM    H6S10804   0.655   3.628   9.206
  106OSM    H6T10805   0.555   3.776   9.209
  106OSM    C7S10806   0.442   3.590   9.205
  106OSM    H7S10807   0.350   3.639   9.243
  106OSM    H7T10808   0.445   3.488   9.248
  106OSM    C8S10809   0.432   3.580   9.052
  106OSM    H8S10810   0.503   3.503   9.015
  106OSM    H8T10811   0.465   3.677   9.010
  106OSM    C9S10812   0.289   3.550   9.003
  106OSM    H9S10813   0.287   3.568   8.893
  106OSM    H9T10814   0.217   3.620   9.049
  106OSM   C10S10815   0.249   3.405   9.031
  106OSM   H10S10816   0.234   3.392   9.140
  106OSM   H10T10817   0.337   3.343   9.003
  106OSM   C11S10818   0.125   3.351   8.957
  106OSM   H11S10819   0.036   3.403   8.998
  106OSM   H11T10820   0.114   3.243   8.982
  106OSM   C12S10821   0.120   3.366   8.803
  106OSM   H12S10822   0.080   3.468   8.785
  106OSM   H12T10823   0.046   3.295   8.762
  106OSM   C13S10824   0.249   3.350   8.722
  106OSM   H13S10825   0.271   3.243   8.703
  106OSM   H13T10826   0.334   3.391   8.781
  106OSM   C14S10827   0.245   3.427   8.588
  106OSM   H14S10828   0.349   3.456   8.558
  106OSM   H14T10829   0.190   3.523   8.604
  106OSM   C15S10830   0.180   3.351   8.472
  106OSM   H15S10831   0.156   3.424   8.391
  106OSM   H15T10832   0.084   3.309   8.507
  106OSM   C16S10833   0.267   3.239   8.411
  106OSM   H16S10834   0.208   3.189   8.332
  106OSM   H16T10835   0.289   3.164   8.490
  106OSM   C17S10836   0.399   3.284   8.347
  106OSM   H17S10837   0.453   3.194   8.313
  106OSM   H17T10838   0.463   3.332   8.425
  106OSM   C18S10839   0.386   3.382   8.230
  106OSM   H18S10840   0.337   3.477   8.263
  106OSM   H18T10841   0.326   3.337   8.149
  106OSM   H18U10842   0.487   3.408   8.190
  106OSM    C1F10843   0.588   3.264   9.614
  106OSM     OF10844   0.486   3.257   9.682
  106OSM    C2F10845   0.641   3.145   9.541
  106OSM    H2F10846   0.637   3.059   9.610
  106OSM    H2G10847   0.747   3.162   9.512
  106OSM    C3F10848   0.555   3.114   9.417
  106OSM    H3F10849   0.447   3.116   9.444
  106OSM    H3G10850   0.578   3.009   9.385
  106OSM    C4F10851   0.580   3.205   9.295
  106OSM    H4F10852   0.679   3.180   9.251
  106OSM    H4G10853   0.583   3.311   9.328
  106OSM    C5F10854   0.471   3.192   9.186
  106OSM    H5F10855   0.501   3.255   9.099
  106OSM    H5G10856   0.377   3.233   9.228
  106OSM    C6F10857   0.445   3.049   9.138
  106OSM    H6F10858   0.435   2.984   9.229
  106OSM    H6G10859   0.532   3.012   9.080
  106OSM    C7F10860   0.313   3.027   9.061
  106OSM    H7F10861   0.233   3.084   9.112
  106OSM    H7G10862   0.285   2.920   9.067
  106OSM    C8F10863   0.315   3.066   8.911
  106OSM    H8F10864   0.336   3.175   8.905
  106OSM    H8G10865   0.212   3.052   8.871
  106OSM    C9F10866   0.412   2.990   8.825
  106OSM    H9F10867   0.379   2.888   8.799
  106OSM   C10F10868   0.527   3.037   8.773
  106OSM   H10F10869   0.586   2.970   8.709
  106OSM   C11F10870   0.584   3.175   8.790
  106OSM   H11F10871   0.686   3.169   8.835
  106OSM   H11G10872   0.524   3.238   8.859
  106OSM   C12F10873   0.592   3.247   8.654
  106OSM   H12F10874   0.497   3.230   8.599
  106OSM   H12G10875   0.674   3.198   8.597
  106OSM   C13F10876   0.613   3.399   8.665
  106OSM   H13F10877   0.679   3.421   8.752
  106OSM   H13G10878   0.517   3.448   8.690
  106OSM   C14F10879   0.673   3.470   8.542
  106OSM   H14F10880   0.705   3.571   8.573
  106OSM   H14G10881   0.593   3.484   8.466
  106OSM   C15F10882   0.792   3.401   8.472
  106OSM   H15F10883   0.764   3.298   8.442
  106OSM   H15G10884   0.879   3.394   8.542
  106OSM   C16F10885   0.834   3.474   8.344
  106OSM   H16F10886   0.871   3.576   8.370
  106OSM   H16G10887   0.743   3.485   8.281
  106OSM   C17F10888   0.940   3.402   8.261
  106OSM   H17F10889   0.906   3.297   8.245
  106OSM   H17G10890   1.035   3.398   8.317
  106OSM   C18F10891   0.962   3.467   8.124
  106OSM   H18F10892   1.002   3.570   8.137
  106OSM   H18G10893   0.866   3.474   8.068
  106OSM   H18H10894   1.034   3.409   8.063
  107OSM      N10895   2.192   0.597  10.282
  107OSM    C1510896   2.260   0.486  10.357
  107OSM   H15A10897   2.258   0.503  10.463
  107OSM   H15B10898   2.362   0.476  10.324
  107OSM   H15C10899   2.212   0.391  10.337
  107OSM    C1410900   2.049   0.609  10.325
  107OSM   H14A10901   1.998   0.684  10.267
  107OSM   H14B10902   2.042   0.639  10.429
  107OSM   H14C10903   1.998   0.515  10.316
  107OSM    C1310904   2.261   0.727  10.309
  107OSM   H13A10905   2.251   0.758  10.412
  107OSM   H13B10906   2.218   0.803  10.246
  107OSM   H13C10907   2.364   0.723  10.279
  107OSM    C1210908   2.199   0.561  10.134
  107OSM   H12A10909   2.135   0.476  10.114
  107OSM   H12B10910   2.298   0.525  10.112
  107OSM    C1110911   2.171   0.672  10.030
  107OSM   H11A10912   2.075   0.722  10.053
  107OSM   H11B10913   2.160   0.625   9.930
  107OSM      P10914   2.427   0.727  10.009
  107OSM    O1310915   2.500   0.771  10.129
  107OSM    O1410916   2.435   0.584   9.973
  107OSM    O1110917   2.467   0.819   9.887
  107OSM    O1210918   2.275   0.769  10.027
  107OSM    C1S10919   2.523   0.760   9.770
  107OSM    H1S10920   2.593   0.677   9.795
  107OSM    H1T10921   2.585   0.836   9.718
  107OSM     NF10922   2.490   0.677   9.544
  107OSM    HNF10923   2.461   0.722   9.460
  107OSM    C2S10924   2.418   0.710   9.666
  107OSM    H2S10925   2.370   0.617   9.704
  107OSM    C3S10926   2.305   0.817   9.644
  107OSM    H3S10927   2.350   0.919   9.647
  107OSM     O310928   2.204   0.817   9.744
  107OSM    HO310929   2.245   0.785   9.824
  107OSM    C4S10930   2.239   0.797   9.511
  107OSM    H4S10931   2.151   0.731   9.511
  107OSM    C5S10932   2.277   0.859   9.398
  107OSM    H5S10933   2.361   0.930   9.399
  107OSM    C6S10934   2.214   0.843   9.264
  107OSM    H6S10935   2.175   0.942   9.233
  107OSM    H6T10936   2.128   0.773   9.270
  107OSM    C7S10937   2.308   0.793   9.153
  107OSM    H7S10938   2.349   0.694   9.182
  107OSM    H7T10939   2.393   0.863   9.140
  107OSM    C8S10940   2.234   0.777   9.020
  107OSM    H8S10941   2.198   0.877   8.986
  107OSM    H8T10942   2.146   0.713   9.037
  107OSM    C9S10943   2.320   0.715   8.909
  107OSM    H9S10944   2.337   0.608   8.935
  107OSM    H9T10945   2.418   0.766   8.904
  107OSM   C10S10946   2.255   0.719   8.771
  107OSM   H10S10947   2.251   0.824   8.734
  107OSM   H10T10948   2.151   0.681   8.779
  107OSM   C11S10949   2.327   0.630   8.669
  107OSM   H11S10950   2.325   0.525   8.706
  107OSM   H11T10951   2.433   0.663   8.660
  107OSM   C12S10952   2.266   0.634   8.529
  107OSM   H12S10953   2.289   0.734   8.484
  107OSM   H12T10954   2.156   0.622   8.532
  107OSM   C13S10955   2.327   0.524   8.440
  107OSM   H13S10956   2.263   0.433   8.446
  107OSM   H13T10957   2.426   0.496   8.481
  107OSM   C14S10958   2.347   0.567   8.295
  107OSM   H14S10959   2.414   0.657   8.295
  107OSM   H14T10960   2.250   0.597   8.250
  107OSM   C15S10961   2.412   0.456   8.212
  107OSM   H15S10962   2.334   0.378   8.196
  107OSM   H15T10963   2.495   0.409   8.270
  107OSM   C16S10964   2.466   0.501   8.076
  107OSM   H16S10965   2.387   0.557   8.022
  107OSM   H16T10966   2.490   0.411   8.016
  107OSM   C17S10967   2.593   0.586   8.083
  107OSM   H17S10968   2.669   0.532   8.144
  107OSM   H17T10969   2.569   0.682   8.135
  107OSM   C18S10970   2.651   0.617   7.945
  107OSM   H18S10971   2.737   0.687   7.953
  107OSM   H18T10972   2.573   0.663   7.881
  107OSM   H18U10973   2.686   0.525   7.895
  107OSM    C1F10974   2.586   0.585   9.539
  107OSM     OF10975   2.604   0.506   9.630
  107OSM    C2F10976   2.671   0.583   9.416
  107OSM    H2F10977   2.720   0.483   9.411
  107OSM    H2G10978   2.749   0.661   9.428
  107OSM    C3F10979   2.594   0.610   9.286
  107OSM    H3F10980   2.567   0.717   9.277
  107OSM    H3G10981   2.501   0.549   9.282
  107OSM    C4F10982   2.681   0.570   9.166
  107OSM    H4F10983   2.705   0.462   9.174
  107OSM    H4G10984   2.777   0.626   9.168
  107OSM    C5F10985   2.614   0.595   9.032
  107OSM    H5F10986   2.616   0.704   9.008
  107OSM    H5G10987   2.508   0.563   9.038
  107OSM    C6F10988   2.681   0.514   8.921
  107OSM    H6F10989   2.647   0.409   8.933
  107OSM    H6G10990   2.791   0.514   8.936
  107OSM    C7F10991   2.649   0.562   8.779
  107OSM    H7F10992   2.598   0.661   8.785
  107OSM    H7G10993   2.578   0.489   8.735
  107OSM    C8F10994   2.773   0.579   8.691
  107OSM    H8F10995   2.847   0.498   8.713
  107OSM    H8G10996   2.824   0.674   8.720
  107OSM    C9F10997   2.736   0.577   8.545
  107OSM    H9F10998   2.716   0.476   8.505
  107OSM   C10F10999   2.719   0.683   8.465
  107OSM   H10F11000   2.691   0.665   8.360
  107OSM   C11F11001   2.735   0.828   8.503
  107OSM   H11F11002   2.817   0.874   8.443
  107OSM   H11G11003   2.763   0.841   8.610
  107OSM   C12F11004   2.607   0.910   8.478
  107OSM   H12F11005   2.622   1.013   8.516
  107OSM   H12G11006   2.523   0.865   8.536
  107OSM   C13F11007   2.569   0.917   8.330
  107OSM   H13F11008   2.550   0.814   8.294
  107OSM   H13G11009   2.653   0.959   8.270
  107OSM   C14F11010   2.441   0.998   8.303
  107OSM   H14F11011   2.467   1.106   8.299
  107OSM   H14G11012   2.372   0.984   8.389
  107OSM   C15F11013   2.368   0.955   8.175
  107OSM   H15F11014   2.278   1.019   8.162
  107OSM   H15G11015   2.333   0.851   8.189
  107OSM   C16F11016   2.452   0.962   8.047
  107OSM   H16F11017   2.545   0.903   8.059
  107OSM   H16G11018   2.481   1.068   8.027
  107OSM   C17F11019   2.374   0.906   7.927
  107OSM   H17F11020   2.280   0.964   7.915
  107OSM   H17G11021   2.345   0.801   7.950
  107OSM   C18F11022   2.452   0.909   7.796
  107OSM   H18F11023   2.472   1.014   7.765
  107OSM   H18G11024   2.395   0.859   7.715
  107OSM   H18H11025   2.550   0.857   7.807
  108OSM      N11026   0.649   1.715   9.994
  108OSM    C1511027   0.688   1.579   9.943
  108OSM   H15A11028   0.746   1.586   9.852
  108OSM   H15B11029   0.602   1.518   9.919
  108OSM   H15C11030   0.749   1.525  10.015
  108OSM    C1411031   0.771   1.801  10.006
  108OSM   H14A11032   0.848   1.752  10.065
  108OSM   H14B11033   0.746   1.892  10.057
  108OSM   H14C11034   0.814   1.826   9.910
  108OSM    C1311035   0.555   1.776   9.894
  108OSM   H13A11036   0.604   1.785   9.798
  108OSM   H13B11037   0.525   1.874   9.927
  108OSM   H13C11038   0.468   1.714   9.881
  108OSM    C1211039   0.582   1.704  10.130
  108OSM   H12A11040   0.656   1.665  10.200
  108OSM   H12B11041   0.505   1.629  10.124
  108OSM    C1111042   0.524   1.834  10.193
  108OSM   H11A11043   0.471   1.805  10.287
  108OSM   H11B11044   0.449   1.876  10.124
  108OSM      P11045   0.603   2.082  10.222
  108OSM    O1311046   0.482   2.113  10.303
  108OSM    O1411047   0.726   2.154  10.257
  108OSM    O1111048   0.571   2.101  10.067
  108OSM    O1211049   0.628   1.926  10.227
  108OSM    C1S11050   0.676   2.153   9.982
  108OSM    H1S11051   0.775   2.110  10.007
  108OSM    H1T11052   0.682   2.263   9.994
  108OSM     NF11053   0.753   2.180   9.746
  108OSM    HNF11054   0.731   2.260   9.692
  108OSM    C2S11055   0.647   2.124   9.831
  108OSM    H2S11056   0.646   2.014   9.815
  108OSM    C3S11057   0.505   2.179   9.799
  108OSM    H3S11058   0.491   2.276   9.851
  108OSM     O311059   0.406   2.088   9.848
  108OSM    HO311060   0.427   2.089   9.942
  108OSM    C4S11061   0.487   2.195   9.651
  108OSM    H4S11062   0.469   2.102   9.595
  108OSM    C5S11063   0.488   2.315   9.589
  108OSM    H5S11064   0.501   2.405   9.650
  108OSM    C6S11065   0.471   2.341   9.441
  108OSM    H6S11066   0.555   2.405   9.407
  108OSM    H6T11067   0.378   2.400   9.425
  108OSM    C7S11068   0.465   2.217   9.351
  108OSM    H7S11069   0.379   2.154   9.381
  108OSM    H7T11070   0.558   2.158   9.365
  108OSM    C8S11071   0.451   2.250   9.201
  108OSM    H8S11072   0.353   2.299   9.182
  108OSM    H8T11073   0.450   2.152   9.149
  108OSM    C9S11074   0.560   2.341   9.142
  108OSM    H9S11075   0.659   2.318   9.187
  108OSM    H9T11076   0.536   2.444   9.175
  108OSM   C10S11077   0.570   2.338   8.989
  108OSM   H10S11078   0.652   2.406   8.956
  108OSM   H10T11079   0.475   2.375   8.946
  108OSM   C11S11080   0.599   2.200   8.928
  108OSM   H11S11081   0.522   2.129   8.966
  108OSM   H11T11082   0.699   2.163   8.958
  108OSM   C12S11083   0.586   2.196   8.775
  108OSM   H12S11084   0.511   2.270   8.739
  108OSM   H12T11085   0.548   2.095   8.748
  108OSM   C13S11086   0.717   2.213   8.699
  108OSM   H13S11087   0.799   2.156   8.749
  108OSM   H13T11088   0.745   2.321   8.700
  108OSM   C14S11089   0.700   2.162   8.556
  108OSM   H14S11090   0.610   2.211   8.512
  108OSM   H14T11091   0.676   2.053   8.559
  108OSM   C15S11092   0.822   2.183   8.467
  108OSM   H15S11093   0.802   2.138   8.367
  108OSM   H15T11094   0.908   2.128   8.511
  108OSM   C16S11095   0.861   2.330   8.448
  108OSM   H16S11096   0.936   2.339   8.367
  108OSM   H16T11097   0.909   2.368   8.541
  108OSM   C17S11098   0.742   2.420   8.412
  108OSM   H17S11099   0.780   2.522   8.389
  108OSM   H17T11100   0.674   2.428   8.499
  108OSM   C18S11101   0.663   2.372   8.292
  108OSM   H18S11102   0.582   2.445   8.268
  108OSM   H18T11103   0.617   2.273   8.310
  108OSM   H18U11104   0.731   2.363   8.205
  108OSM    C1F11105   0.872   2.120   9.740
  108OSM     OF11106   0.897   2.024   9.811
  108OSM    C2F11107   0.974   2.174   9.645
  108OSM    H2F11108   1.072   2.130   9.676
  108OSM    H2G11109   0.980   2.285   9.653
  108OSM    C3F11110   0.955   2.131   9.498
  108OSM    H3F11111   0.888   2.043   9.491
  108OSM    H3G11112   1.054   2.098   9.458
  108OSM    C4F11113   0.907   2.245   9.406
  108OSM    H4F11114   0.977   2.332   9.416
  108OSM    H4G11115   0.806   2.279   9.437
  108OSM    C5F11116   0.905   2.202   9.259
  108OSM    H5F11117   1.005   2.166   9.229
  108OSM    H5G11118   0.882   2.290   9.195
  108OSM    C6F11119   0.801   2.093   9.234
  108OSM    H6F11120   0.721   2.131   9.167
  108OSM    H6G11121   0.751   2.065   9.329
  108OSM    C7F11122   0.856   1.965   9.170
  108OSM    H7F11123   0.945   1.932   9.227
  108OSM    H7G11124   0.891   1.987   9.066
  108OSM    C8F11125   0.751   1.853   9.169
  108OSM    H8F11126   0.715   1.835   9.273
  108OSM    H8G11127   0.798   1.759   9.134
  108OSM    C9F11128   0.639   1.896   9.080
  108OSM    H9F11129   0.562   1.960   9.127
  108OSM   C10F11130   0.627   1.865   8.950
  108OSM   H10F11131   0.542   1.906   8.894
  108OSM   C11F11132   0.721   1.781   8.868
  108OSM   H11F11133   0.676   1.681   8.851
  108OSM   H11G11134   0.819   1.764   8.918
  108OSM   C12F11135   0.746   1.847   8.731
  108OSM   H12F11136   0.812   1.935   8.747
  108OSM   H12G11137   0.651   1.883   8.687
  108OSM   C13F11138   0.811   1.753   8.629
  108OSM   H13F11139   0.736   1.679   8.594
  108OSM   H13G11140   0.894   1.697   8.677
  108OSM   C14F11141   0.866   1.832   8.509
  108OSM   H14F11142   0.946   1.900   8.546
  108OSM   H14G11143   0.785   1.896   8.467
  108OSM   C15F11144   0.924   1.744   8.398
  108OSM   H15F11145   0.970   1.654   8.443
  108OSM   H15G11146   1.005   1.800   8.346
  108OSM   C16F11147   0.821   1.701   8.293
  108OSM   H16F11148   0.735   1.651   8.344
  108OSM   H16G11149   0.869   1.627   8.226
  108OSM   C17F11150   0.766   1.814   8.205
  108OSM   H17F11151   0.851   1.877   8.170
  108OSM   H17G11152   0.699   1.879   8.266
  108OSM   C18F11153   0.690   1.760   8.084
  108OSM   H18F11154   0.758   1.700   8.020
  108OSM   H18G11155   0.647   1.842   8.024
  108OSM   H18H11156   0.607   1.693   8.117
  109OSM      N11157   5.919   1.078  10.128
  109OSM    C1511158   5.864   1.051  10.264
  109OSM   H15A11159   5.789   0.973  10.261
  109OSM   H15B11160   5.821   1.140  10.306
  109OSM   H15C11161   5.944   1.019  10.330
  109OSM    C1411162   5.810   1.116  10.033
  109OSM   H14A11163   5.853   1.139   9.937
  109OSM   H14B11164   5.758   1.204  10.069
  109OSM   H14C11165   5.741   1.034  10.020
  109OSM    C1311166   6.015   1.193  10.133
  109OSM   H13A11167   5.971   1.280  10.181
  109OSM   H13B11168   6.046   1.222  10.034
  109OSM   H13C11169   6.104   1.164  10.187
  109OSM    C1211170   5.988   0.954  10.072
  109OSM   H12A11171   6.025   0.980   9.974
  109OSM   H12B11172   5.914   0.877  10.052
  109OSM    C1111173   6.106   0.891  10.152
  109OSM   H11A11174   6.149   0.807  10.094
  109OSM   H11B11175   6.064   0.846  10.245
  109OSM      P11176   6.356   0.991  10.145
  109OSM    O1311177   6.410   1.122  10.186
  109OSM    O1411178   6.420   0.873  10.207
  109OSM    O1111179   6.360   0.982   9.986
  109OSM    O1211180   6.203   0.989  10.187
  109OSM    C1S11181   6.246   1.000   9.901
  109OSM    H1S11182   6.176   1.076   9.944
  109OSM    H1T11183   6.193   0.903   9.889
  109OSM     NF11184   6.161   1.036   9.669
  109OSM    HNF11185   6.176   0.979   9.589
  109OSM    C2S11186   6.276   1.051   9.756
  109OSM    H2S11187   6.299   1.160   9.763
  109OSM    C3S11188   6.397   0.981   9.695
  109OSM    H3S11189   6.382   0.871   9.698
  109OSM     O311190   6.515   1.012   9.767
  109OSM    HO311191   6.484   1.019   9.858
  109OSM    C4S11192   6.424   1.021   9.551
  109OSM    H4S11193   6.469   0.939   9.494
  109OSM    C5S11194   6.406   1.140   9.488
  109OSM    H5S11195   6.365   1.226   9.541
  109OSM    C6S11196   6.447   1.165   9.344
  109OSM    H6S11197   6.517   1.085   9.310
  109OSM    H6T11198   6.507   1.258   9.344
  109OSM    C7S11199   6.345   1.182   9.230
  109OSM    H7S11200   6.266   1.255   9.258
  109OSM    H7T11201   6.296   1.085   9.210
  109OSM    C8S11202   6.418   1.231   9.102
  109OSM    H8S11203   6.526   1.209   9.116
  109OSM    H8T11204   6.410   1.341   9.092
  109OSM    C9S11205   6.378   1.160   8.972
  109OSM    H9S11206   6.349   1.056   8.999
  109OSM    H9T11207   6.465   1.155   8.904
  109OSM   C10S11208   6.263   1.226   8.897
  109OSM   H10S11209   6.298   1.322   8.853
  109OSM   H10T11210   6.187   1.251   8.974
  109OSM   C11S11211   6.199   1.139   8.787
  109OSM   H11S11212   6.268   1.131   8.700
  109OSM   H11T11213   6.107   1.191   8.753
  109OSM   C12S11214   6.161   0.998   8.833
  109OSM   H12S11215   6.121   1.003   8.937
  109OSM   H12T11216   6.252   0.935   8.836
  109OSM   C13S11217   6.057   0.928   8.744
  109OSM   H13S11218   5.957   0.971   8.764
  109OSM   H13T11219   6.055   0.821   8.772
  109OSM   C14S11220   6.081   0.937   8.594
  109OSM   H14S11221   6.188   0.919   8.571
  109OSM   H14T11222   6.058   1.040   8.560
  109OSM   C15S11223   5.991   0.836   8.520
  109OSM   H15S11224   5.885   0.870   8.525
  109OSM   H15T11225   5.997   0.739   8.572
  109OSM   C16S11226   6.030   0.812   8.373
  109OSM   H16S11227   6.137   0.782   8.371
  109OSM   H16T11228   6.024   0.906   8.315
  109OSM   C17S11229   5.947   0.701   8.307
  109OSM   H17S11230   5.859   0.746   8.255
  109OSM   H17T11231   5.905   0.637   8.387
  109OSM   C18S11232   6.025   0.613   8.209
  109OSM   H18S11233   6.104   0.556   8.262
  109OSM   H18T11234   6.072   0.674   8.130
  109OSM   H18U11235   5.957   0.540   8.161
  109OSM    C1F11236   6.050   1.105   9.678
  109OSM     OF11237   6.002   1.141   9.785
  109OSM    C2F11238   5.989   1.134   9.544
  109OSM    H2F11239   6.005   1.047   9.477
  109OSM    H2G11240   6.042   1.221   9.499
  109OSM    C3F11241   5.840   1.166   9.559
  109OSM    H3F11242   5.839   1.273   9.589
  109OSM    H3G11243   5.796   1.114   9.646
  109OSM    C4F11244   5.752   1.137   9.435
  109OSM    H4F11245   5.655   1.189   9.446
  109OSM    H4G11246   5.729   1.028   9.434
  109OSM    C5F11247   5.811   1.169   9.296
  109OSM    H5F11248   5.733   1.141   9.222
  109OSM    H5G11249   5.900   1.104   9.277
  109OSM    C6F11250   5.851   1.314   9.272
  109OSM    H6F11251   5.947   1.334   9.325
  109OSM    H6G11252   5.772   1.381   9.312
  109OSM    C7F11253   5.865   1.354   9.125
  109OSM    H7F11254   5.916   1.453   9.121
  109OSM    H7G11255   5.763   1.369   9.083
  109OSM    C8F11256   5.944   1.255   9.039
  109OSM    H8F11257   6.028   1.216   9.100
  109OSM    H8G11258   5.989   1.314   8.956
  109OSM    C9F11259   5.867   1.141   8.978
  109OSM    H9F11260   5.893   1.041   9.016
  109OSM   C10F11261   5.772   1.154   8.884
  109OSM   H10F11262   5.722   1.064   8.844
  109OSM   C11F11263   5.728   1.285   8.825
  109OSM   H11F11264   5.783   1.370   8.872
  109OSM   H11G11265   5.621   1.300   8.852
  109OSM   C12F11266   5.742   1.307   8.674
  109OSM   H12F11267   5.729   1.415   8.653
  109OSM   H12G11268   5.658   1.256   8.622
  109OSM   C13F11269   5.874   1.260   8.611
  109OSM   H13F11270   5.884   1.150   8.626
  109OSM   H13G11271   5.960   1.311   8.660
  109OSM   C14F11272   5.875   1.291   8.461
  109OSM   H14F11273   5.893   1.400   8.446
  109OSM   H14G11274   5.772   1.271   8.423
  109OSM   C15F11275   5.974   1.214   8.373
  109OSM   H15F11276   5.947   1.235   8.268
  109OSM   H15G11277   5.961   1.104   8.387
  109OSM   C16F11278   6.121   1.255   8.392
  109OSM   H16F11279   6.171   1.195   8.470
  109OSM   H16G11280   6.122   1.361   8.427
  109OSM   C17F11281   6.203   1.250   8.261
  109OSM   H17F11282   6.291   1.315   8.275
  109OSM   H17G11283   6.142   1.294   8.179
  109OSM   C18F11284   6.252   1.111   8.221
  109OSM   H18F11285   6.309   1.117   8.126
  109OSM   H18G11286   6.167   1.041   8.206
  109OSM   H18H11287   6.320   1.069   8.299
  110OSM      N11288   5.313   6.631  10.234
  110OSM    C1511289   5.283   6.777  10.253
  110OSM   H15A11290   5.177   6.798  10.246
  110OSM   H15B11291   5.334   6.834  10.176
  110OSM   H15C11292   5.320   6.812  10.348
  110OSM    C1411293   5.256   6.553  10.348
  110OSM   H14A11294   5.273   6.447  10.334
  110OSM   H14B11295   5.150   6.571  10.359
  110OSM   H14C11296   5.303   6.580  10.441
  110OSM    C1311297   5.253   6.586  10.105
  110OSM   H13A11298   5.146   6.605  10.105
  110OSM   H13B11299   5.272   6.481  10.088
  110OSM   H13C11300   5.298   6.642  10.024
  110OSM    C1211301   5.464   6.611  10.226
  110OSM   H12A11302   5.486   6.506  10.240
  110OSM   H12B11303   5.511   6.663  10.308
  110OSM    C1111304   5.534   6.655  10.094
  110OSM   H11A11305   5.506   6.585  10.012
  110OSM   H11B11306   5.644   6.644  10.106
  110OSM      P11307   5.586   6.914  10.068
  110OSM    O1311308   5.514   7.010  10.154
  110OSM    O1411309   5.723   6.877  10.113
  110OSM    O1111310   5.588   6.972   9.920
  110OSM    O1211311   5.496   6.786  10.055
  110OSM    C1S11312   5.465   6.967   9.845
  110OSM    H1S11313   5.399   7.051   9.876
  110OSM    H1T11314   5.407   6.874   9.863
  110OSM     NF11315   5.570   6.862   9.648
  110OSM    HNF11316   5.668   6.880   9.642
  110OSM    C2S11317   5.484   6.971   9.690
  110OSM    H2S11318   5.384   6.957   9.645
  110OSM    C3S11319   5.538   7.109   9.642
  110OSM    H3S11320   5.643   7.121   9.676
  110OSM     O311321   5.467   7.222   9.695
  110OSM    HO311322   5.424   7.190   9.775
  110OSM    C4S11323   5.537   7.110   9.491
  110OSM    H4S11324   5.638   7.099   9.447
  110OSM    C5S11325   5.431   7.123   9.408
  110OSM    H5S11326   5.331   7.137   9.452
  110OSM    C6S11327   5.434   7.124   9.257
  110OSM    H6S11328   5.382   7.215   9.220
  110OSM    H6T11329   5.375   7.037   9.219
  110OSM    C7S11330   5.574   7.120   9.192
  110OSM    H7S11331   5.624   7.023   9.210
  110OSM    H7T11332   5.634   7.197   9.245
  110OSM    C8S11333   5.580   7.161   9.042
  110OSM    H8S11334   5.671   7.223   9.030
  110OSM    H8T11335   5.494   7.226   9.017
  110OSM    C9S11336   5.589   7.051   8.935
  110OSM    H9S11337   5.634   7.097   8.844
  110OSM    H9T11338   5.487   7.018   8.906
  110OSM   C10S11339   5.674   6.929   8.973
  110OSM   H10S11340   5.615   6.862   9.039
  110OSM   H10T11341   5.762   6.962   9.032
  110OSM   C11S11342   5.725   6.850   8.852
  110OSM   H11S11343   5.789   6.767   8.889
  110OSM   H11T11344   5.788   6.917   8.790
  110OSM   C12S11345   5.614   6.790   8.766
  110OSM   H12S11346   5.551   6.871   8.722
  110OSM   H12T11347   5.548   6.727   8.830
  110OSM   C13S11348   5.669   6.701   8.653
  110OSM   H13S11349   5.585   6.657   8.596
  110OSM   H13T11350   5.725   6.616   8.699
  110OSM   C14S11351   5.762   6.772   8.554
  110OSM   H14S11352   5.790   6.700   8.475
  110OSM   H14T11353   5.855   6.803   8.605
  110OSM   C15S11354   5.701   6.897   8.486
  110OSM   H15S11355   5.676   6.974   8.562
  110OSM   H15T11356   5.608   6.870   8.433
  110OSM   C16S11357   5.802   6.955   8.387
  110OSM   H16S11358   5.845   6.873   8.325
  110OSM   H16T11359   5.884   6.999   8.448
  110OSM   C17S11360   5.748   7.062   8.293
  110OSM   H17S11361   5.834   7.125   8.261
  110OSM   H17T11362   5.676   7.127   8.347
  110OSM   C18S11363   5.683   7.006   8.166
  110OSM   H18S11364   5.650   7.090   8.101
  110OSM   H18T11365   5.595   6.943   8.192
  110OSM   H18U11366   5.755   6.945   8.109
  110OSM    C1F11367   5.525   6.736   9.648
  110OSM     OF11368   5.409   6.710   9.678
  110OSM    C2F11369   5.625   6.629   9.615
  110OSM    H2F11370   5.636   6.562   9.703
  110OSM    H2G11371   5.724   6.675   9.594
  110OSM    C3F11372   5.579   6.547   9.493
  110OSM    H3F11373   5.480   6.501   9.514
  110OSM    H3G11374   5.651   6.463   9.481
  110OSM    C4F11375   5.574   6.626   9.362
  110OSM    H4F11376   5.642   6.579   9.287
  110OSM    H4G11377   5.611   6.729   9.379
  110OSM    C5F11378   5.433   6.633   9.302
  110OSM    H5F11379   5.363   6.673   9.378
  110OSM    H5G11380   5.399   6.531   9.274
  110OSM    C6F11381   5.431   6.723   9.178
  110OSM    H6F11382   5.496   6.679   9.100
  110OSM    H6G11383   5.474   6.821   9.207
  110OSM    C7F11384   5.291   6.747   9.120
  110OSM    H7F11385   5.224   6.787   9.199
  110OSM    H7G11386   5.248   6.651   9.083
  110OSM    C8F11387   5.301   6.847   9.004
  110OSM    H8F11388   5.369   6.803   8.927
  110OSM    H8G11389   5.354   6.937   9.042
  110OSM    C9F11390   5.171   6.891   8.943
  110OSM    H9F11391   5.106   6.950   9.009
  110OSM   C10F11392   5.131   6.865   8.818
  110OSM   H10F11393   5.034   6.904   8.783
  110OSM   C11F11394   5.207   6.787   8.714
  110OSM   H11F11395   5.313   6.820   8.709
  110OSM   H11G11396   5.163   6.808   8.615
  110OSM   C12F11397   5.205   6.633   8.735
  110OSM   H12F11398   5.112   6.602   8.787
  110OSM   H12G11399   5.289   6.603   8.800
  110OSM   C13F11400   5.212   6.558   8.601
  110OSM   H13F11401   5.128   6.592   8.537
  110OSM   H13G11402   5.198   6.448   8.617
  110OSM   C14F11403   5.343   6.583   8.527
  110OSM   H14F11404   5.419   6.510   8.562
  110OSM   H14G11405   5.380   6.685   8.554
  110OSM   C15F11406   5.335   6.582   8.374
  110OSM   H15F11407   5.256   6.653   8.340
  110OSM   H15G11408   5.305   6.480   8.341
  110OSM   C16F11409   5.470   6.623   8.314
  110OSM   H16F11410   5.549   6.555   8.352
  110OSM   H16G11411   5.494   6.724   8.354
  110OSM   C17F11412   5.480   6.630   8.160
  110OSM   H17F11413   5.575   6.580   8.131
  110OSM   H17G11414   5.491   6.736   8.130
  110OSM   C18F11415   5.365   6.568   8.082
  110OSM   H18F11416   5.343   6.465   8.119
  110OSM   H18G11417   5.390   6.561   7.974
  110OSM   H18H11418   5.273   6.629   8.093
  111OSM      N11419   0.461   5.783  10.046
  111OSM    C1511420   0.427   5.816   9.904
  111OSM   H15A11421   0.325   5.790   9.880
  111OSM   H15B11422   0.494   5.766   9.836
  111OSM   H15C11423   0.437   5.922   9.886
  111OSM    C1411424   0.604   5.822  10.069
  111OSM   H14A11425   0.618   5.929  10.067
  111OSM   H14B11426   0.668   5.780   9.992
  111OSM   H14C11427   0.638   5.781  10.163
  111OSM    C1311428   0.373   5.866  10.135
  111OSM   H13A11429   0.270   5.836  10.125
  111OSM   H13B11430   0.376   5.970  10.106
  111OSM   H13C11431   0.404   5.857  10.238
  111OSM    C1211432   0.444   5.634  10.074
  111OSM   H12A11433   0.505   5.579  10.005
  111OSM   H12B11434   0.341   5.607  10.054
  111OSM    C1111435   0.482   5.581  10.216
  111OSM   H11A11436   0.436   5.481  10.229
  111OSM   H11B11437   0.436   5.646  10.293
  111OSM      P11438   0.708   5.459  10.170
  111OSM    O1311439   0.852   5.485  10.194
  111OSM    O1411440   0.652   5.330  10.215
  111OSM    O1111441   0.673   5.482  10.018
  111OSM    O1211442   0.623   5.577  10.236
  111OSM    C1S11443   0.699   5.383   9.918
  111OSM    H1S11444   0.641   5.290   9.938
  111OSM    H1T11445   0.807   5.356   9.915
  111OSM     NF11446   0.663   5.334   9.676
  111OSM    HNF11447   0.747   5.325   9.623
  111OSM    C2S11448   0.658   5.437   9.778
  111OSM    H2S11449   0.553   5.472   9.785
  111OSM    C3S11450   0.747   5.559   9.741
  111OSM    H3S11451   0.853   5.526   9.735
  111OSM     O311452   0.742   5.663   9.838
  111OSM    HO311453   0.723   5.613   9.918
  111OSM    C4S11454   0.705   5.616   9.608
  111OSM    H4S11455   0.599   5.645   9.604
  111OSM    C5S11456   0.782   5.634   9.500
  111OSM    H5S11457   0.888   5.608   9.502
  111OSM    C6S11458   0.731   5.692   9.370
  111OSM    H6S11459   0.801   5.768   9.330
  111OSM    H6T11460   0.633   5.743   9.383
  111OSM    C7S11461   0.712   5.579   9.267
  111OSM    H7S11462   0.648   5.499   9.310
  111OSM    H7T11463   0.811   5.535   9.242
  111OSM    C8S11464   0.647   5.624   9.135
  111OSM    H8S11465   0.554   5.681   9.155
  111OSM    H8T11466   0.618   5.532   9.080
  111OSM    C9S11467   0.741   5.707   9.046
  111OSM    H9S11468   0.844   5.666   9.051
  111OSM    H9T11469   0.744   5.811   9.085
  111OSM   C10S11470   0.697   5.708   8.899
  111OSM   H10S11471   0.746   5.793   8.846
  111OSM   H10T11472   0.587   5.725   8.895
  111OSM   C11S11473   0.728   5.578   8.825
  111OSM   H11S11474   0.696   5.491   8.886
  111OSM   H11T11475   0.838   5.569   8.809
  111OSM   C12S11476   0.655   5.570   8.691
  111OSM   H12S11477   0.680   5.659   8.629
  111OSM   H12T11478   0.545   5.571   8.709
  111OSM   C13S11479   0.692   5.443   8.613
  111OSM   H13S11480   0.680   5.353   8.678
  111OSM   H13T11481   0.799   5.450   8.585
  111OSM   C14S11482   0.604   5.424   8.489
  111OSM   H14S11483   0.561   5.522   8.459
  111OSM   H14T11484   0.519   5.358   8.515
  111OSM   C15S11485   0.680   5.366   8.369
  111OSM   H15S11486   0.603   5.339   8.294
  111OSM   H15T11487   0.734   5.274   8.398
  111OSM   C16S11488   0.779   5.468   8.309
  111OSM   H16S11489   0.864   5.483   8.378
  111OSM   H16T11490   0.726   5.565   8.297
  111OSM   C17S11491   0.833   5.426   8.171
  111OSM   H17S11492   0.895   5.335   8.183
  111OSM   H17T11493   0.900   5.507   8.135
  111OSM   C18S11494   0.724   5.399   8.068
  111OSM   H18S11495   0.667   5.306   8.092
  111OSM   H18T11496   0.767   5.388   7.967
  111OSM   H18U11497   0.652   5.484   8.067
  111OSM    C1F11498   0.568   5.244   9.661
  111OSM     OF11499   0.486   5.221   9.749
  111OSM    C2F11500   0.565   5.176   9.527
  111OSM    H2F11501   0.522   5.074   9.537
  111OSM    H2G11502   0.669   5.166   9.490
  111OSM    C3F11503   0.483   5.261   9.426
  111OSM    H3F11504   0.503   5.370   9.441
  111OSM    H3G11505   0.376   5.244   9.447
  111OSM    C4F11506   0.512   5.231   9.278
  111OSM    H4F11507   0.523   5.121   9.265
  111OSM    H4G11508   0.608   5.278   9.249
  111OSM    C5F11509   0.399   5.281   9.187
  111OSM    H5F11510   0.377   5.388   9.210
  111OSM    H5G11511   0.308   5.222   9.213
  111OSM    C6F11512   0.427   5.267   9.037
  111OSM    H6F11513   0.500   5.184   9.021
  111OSM    H6G11514   0.474   5.359   8.997
  111OSM    C7F11515   0.298   5.235   8.959
  111OSM    H7F11516   0.229   5.321   8.967
  111OSM    H7G11517   0.249   5.148   9.008
  111OSM    C8F11518   0.322   5.202   8.810
  111OSM    H8F11519   0.399   5.123   8.803
  111OSM    H8G11520   0.364   5.292   8.760
  111OSM    C9F11521   0.195   5.154   8.743
  111OSM    H9F11522   0.163   5.053   8.772
  111OSM   C10F11523   0.120   5.223   8.655
  111OSM   H10F11524   0.030   5.176   8.613
  111OSM   C11F11525   0.148   5.363   8.606
  111OSM   H11F11526   0.205   5.420   8.683
  111OSM   H11G11527   0.054   5.419   8.590
  111OSM   C12F11528   0.230   5.366   8.476
  111OSM   H12F11529   0.314   5.294   8.482
  111OSM   H12G11530   0.273   5.468   8.467
  111OSM   C13F11531   0.147   5.336   8.350
  111OSM   H13F11532   0.064   5.410   8.344
  111OSM   H13G11533   0.102   5.235   8.359
  111OSM   C14F11534   0.229   5.344   8.220
  111OSM   H14F11535   0.162   5.321   8.134
  111OSM   H14G11536   0.309   5.266   8.222
  111OSM   C15F11537   0.294   5.481   8.197
  111OSM   H15F11538   0.365   5.501   8.280
  111OSM   H15G11539   0.216   5.560   8.200
  111OSM   C16F11540   0.373   5.493   8.066
  111OSM   H16F11541   0.450   5.413   8.062
  111OSM   H16G11542   0.426   5.591   8.069
  111OSM   C17F11543   0.290   5.488   7.938
  111OSM   H17F11544   0.196   5.546   7.953
  111OSM   H17G11545   0.259   5.383   7.919
  111OSM   C18F11546   0.365   5.544   7.817
  111OSM   H18F11547   0.395   5.650   7.835
  111OSM   H18G11548   0.303   5.540   7.726
  111OSM   H18H11549   0.459   5.486   7.799
  112OSM      N11550   0.057   2.657  10.274
  112OSM    C1511551   0.192   2.622  10.330
  112OSM   H15A11552   0.183   2.556  10.415
  112OSM   H15B11553   0.248   2.708  10.361
  112OSM   H15C11554   0.248   2.568  10.255
  112OSM    C1411555  -0.026   2.723  10.379
  112OSM   H14A11556  -0.122   2.754  10.340
  112OSM   H14B11557   0.020   2.814  10.415
  112OSM   H14C11558  -0.043   2.659  10.464
  112OSM    C1311559   0.076   2.752  10.159
  112OSM   H13A11560  -0.019   2.779  10.115
  112OSM   H13B11561   0.134   2.705  10.082
  112OSM   H13C11562   0.126   2.843  10.190
  112OSM    C1211563  -0.011   2.532  10.221
  112OSM   H12A11564  -0.113   2.557  10.196
  112OSM   H12B11565  -0.014   2.458  10.300
  112OSM    C1111566   0.049   2.466  10.094
  112OSM   H11A11567   0.016   2.527  10.008
  112OSM   H11B11568   0.003   2.365  10.080
  112OSM      P11569   0.278   2.480   9.972
  112OSM    O1311570   0.417   2.508  10.013
  112OSM    O1411571   0.249   2.373   9.875
  112OSM    O1111572   0.212   2.613   9.915
  112OSM    O1211573   0.191   2.453  10.102
  112OSM    C1S11574   0.267   2.674   9.798
  112OSM    H1S11575   0.376   2.688   9.808
  112OSM    H1T11576   0.224   2.776   9.787
  112OSM     NF11577   0.298   2.671   9.551
  112OSM    HNF11578   0.237   2.713   9.484
  112OSM    C2S11579   0.236   2.599   9.663
  112OSM    H2S11580   0.283   2.498   9.667
  112OSM    C3S11581   0.082   2.580   9.642
  112OSM    H3S11582   0.031   2.676   9.662
  112OSM     O311583   0.021   2.482   9.726
  112OSM    HO311584   0.093   2.446   9.779
  112OSM    C4S11585   0.058   2.547   9.495
  112OSM    H4S11586   0.021   2.633   9.437
  112OSM    C5S11587   0.076   2.429   9.431
  112OSM    H5S11588   0.111   2.341   9.486
  112OSM    C6S11589   0.051   2.411   9.283
  112OSM    H6S11590   0.116   2.481   9.226
  112OSM    H6T11591  -0.054   2.436   9.257
  112OSM    C7S11592   0.081   2.268   9.234
  112OSM    H7S11593   0.002   2.200   9.270
  112OSM    H7T11594   0.177   2.233   9.278
  112OSM    C8S11595   0.092   2.259   9.081
  112OSM    H8S11596   0.159   2.340   9.043
  112OSM    H8T11597  -0.008   2.276   9.037
  112OSM    C9S11598   0.148   2.125   9.032
  112OSM    H9S11599   0.091   2.044   9.083
  112OSM    H9T11600   0.254   2.113   9.062
  112OSM   C10S11601   0.136   2.105   8.880
  112OSM   H10S11602   0.054   2.170   8.842
  112OSM   H10T11603   0.106   2.000   8.858
  112OSM   C11S11604   0.266   2.131   8.804
  112OSM   H11S11605   0.338   2.050   8.830
  112OSM   H11T11606   0.309   2.227   8.837
  112OSM   C12S11607   0.246   2.133   8.652
  112OSM   H12S11608   0.180   2.048   8.622
  112OSM   H12T11609   0.343   2.119   8.601
  112OSM   C13S11610   0.185   2.266   8.606
  112OSM   H13S11611   0.262   2.345   8.617
  112OSM   H13T11612   0.101   2.292   8.673
  112OSM   C14S11613   0.131   2.263   8.463
  112OSM   H14S11614   0.076   2.359   8.446
  112OSM   H14T11615   0.057   2.181   8.454
  112OSM   C15S11616   0.237   2.250   8.353
  112OSM   H15S11617   0.336   2.287   8.387
  112OSM   H15T11618   0.205   2.315   8.269
  112OSM   C16S11619   0.250   2.107   8.297
  112OSM   H16S11620   0.151   2.057   8.306
  112OSM   H16T11621   0.323   2.049   8.357
  112OSM   C17S11622   0.289   2.105   8.148
  112OSM   H17S11623   0.211   2.159   8.091
  112OSM   H17T11624   0.288   1.999   8.114
  112OSM   C18S11625   0.426   2.166   8.118
  112OSM   H18S11626   0.506   2.110   8.171
  112OSM   H18T11627   0.429   2.272   8.150
  112OSM   H18U11628   0.447   2.162   8.009
  112OSM    C1F11629   0.428   2.672   9.529
  112OSM     OF11630   0.509   2.646   9.617
  112OSM    C2F11631   0.474   2.703   9.391
  112OSM    H2F11632   0.565   2.641   9.375
  112OSM    H2G11633   0.502   2.810   9.386
  112OSM    C3F11634   0.379   2.672   9.273
  112OSM    H3F11635   0.290   2.738   9.275
  112OSM    H3G11636   0.345   2.566   9.278
  112OSM    C4F11637   0.457   2.694   9.143
  112OSM    H4F11638   0.555   2.641   9.150
  112OSM    H4G11639   0.484   2.801   9.132
  112OSM    C5F11640   0.389   2.647   9.014
  112OSM    H5F11641   0.300   2.710   8.993
  112OSM    H5G11642   0.355   2.542   9.024
  112OSM    C6F11643   0.490   2.660   8.900
  112OSM    H6F11644   0.579   2.597   8.922
  112OSM    H6G11645   0.527   2.765   8.900
  112OSM    C7F11646   0.438   2.626   8.761
  112OSM    H7F11647   0.351   2.692   8.740
  112OSM    H7G11648   0.403   2.521   8.758
  112OSM    C8F11649   0.548   2.648   8.655
  112OSM    H8F11650   0.609   2.555   8.652
  112OSM    H8G11651   0.615   2.726   8.696
  112OSM    C9F11652   0.512   2.692   8.515
  112OSM    H9F11653   0.593   2.749   8.467
  112OSM   C10F11654   0.401   2.671   8.442
  112OSM   H10F11655   0.399   2.712   8.340
  112OSM   C11F11656   0.276   2.594   8.477
  112OSM   H11F11657   0.280   2.552   8.580
  112OSM   H11G11658   0.269   2.508   8.408
  112OSM   C12F11659   0.144   2.673   8.464
  112OSM   H12F11660   0.061   2.604   8.487
  112OSM   H12G11661   0.130   2.707   8.359
  112OSM   C13F11662   0.133   2.794   8.558
  112OSM   H13F11663   0.201   2.875   8.524
  112OSM   H13G11664   0.166   2.763   8.660
  112OSM   C14F11665  -0.011   2.847   8.571
  112OSM   H14F11666  -0.012   2.932   8.643
  112OSM   H14G11667  -0.074   2.767   8.614
  112OSM   C15F11668  -0.075   2.894   8.439
  112OSM   H15F11669  -0.182   2.914   8.458
  112OSM   H15G11670  -0.069   2.813   8.363
  112OSM   C16F11671  -0.011   3.021   8.384
  112OSM   H16F11672   0.097   3.004   8.364
  112OSM   H16G11673  -0.018   3.100   8.462
  112OSM   C17F11674  -0.078   3.073   8.256
  112OSM   H17F11675  -0.181   3.031   8.250
  112OSM   H17G11676  -0.023   3.034   8.168
  112OSM   C18F11677  -0.088   3.225   8.249
  112OSM   H18F11678   0.012   3.272   8.257
  112OSM   H18G11679  -0.150   3.264   8.333
  112OSM   H18H11680  -0.134   3.257   8.153
  113OSM      N11681   7.338   1.952  10.129
  113OSM    C1511682   7.332   1.995  10.272
  113OSM   H15A11683   7.321   2.102  10.281
  113OSM   H15B11684   7.421   1.966  10.325
  113OSM   H15C11685   7.248   1.948  10.321
  113OSM    C1411686   7.458   2.014  10.064
  113OSM   H14A11687   7.470   1.982   9.962
  113OSM   H14B11688   7.548   1.989  10.118
  113OSM   H14C11689   7.452   2.122  10.063
  113OSM    C1311690   7.351   1.802  10.130
  113OSM   H13A11691   7.367   1.763  10.030
  113OSM   H13B11692   7.260   1.759  10.166
  113OSM   H13C11693   7.432   1.770  10.194
  113OSM    C1211694   7.208   1.993  10.060
  113OSM   H12A11695   7.207   1.953   9.959
  113OSM   H12B11696   7.205   2.100  10.051
  113OSM    C1111697   7.076   1.946  10.126
  113OSM   H11A11698   6.991   1.991  10.070
  113OSM   H11B11699   7.068   1.986  10.229
  113OSM      P11700   6.990   1.725  10.019
  113OSM    O1311701   7.026   1.581  10.031
  113OSM    O1411702   6.849   1.765  10.027
  113OSM    O1111703   7.055   1.784   9.886
  113OSM    O1211704   7.068   1.804  10.131
  113OSM    C1S11705   7.179   1.737   9.834
  113OSM    H1S11706   7.200   1.631   9.862
  113OSM    H1T11707   7.263   1.800   9.871
  113OSM     NF11708   7.317   1.702   9.633
  113OSM    HNF11709   7.372   1.771   9.586
  113OSM    C2S11710   7.185   1.744   9.678
  113OSM    H2S11711   7.109   1.673   9.639
  113OSM    C3S11712   7.151   1.886   9.624
  113OSM    H3S11713   7.231   1.955   9.657
  113OSM     O311714   7.029   1.941   9.674
  113OSM    HO311715   7.007   1.886   9.749
  113OSM    C4S11716   7.147   1.881   9.474
  113OSM    H4S11717   7.056   1.834   9.432
  113OSM    C5S11718   7.240   1.932   9.391
  113OSM    H5S11719   7.327   1.985   9.433
  113OSM    C6S11720   7.239   1.925   9.240
  113OSM    H6S11721   7.339   1.890   9.207
  113OSM    H6T11722   7.226   2.027   9.198
  113OSM    C7S11723   7.136   1.833   9.171
  113OSM    H7S11724   7.036   1.880   9.173
  113OSM    H7T11725   7.131   1.737   9.225
  113OSM    C8S11726   7.176   1.800   9.026
  113OSM    H8S11727   7.107   1.726   8.981
  113OSM    H8T11728   7.276   1.752   9.029
  113OSM    C9S11729   7.190   1.919   8.930
  113OSM    H9S11730   7.237   1.882   8.837
  113OSM    H9T11731   7.259   1.994   8.974
  113OSM   C10S11732   7.060   1.992   8.895
  113OSM   H10S11733   7.021   2.041   8.986
  113OSM   H10T11734   6.983   1.918   8.861
  113OSM   C11S11735   7.081   2.098   8.785
  113OSM   H11S11736   7.163   2.166   8.814
  113OSM   H11T11737   6.987   2.157   8.777
  113OSM   C12S11738   7.109   2.038   8.647
  113OSM   H12S11739   7.029   1.965   8.623
  113OSM   H12T11740   7.205   1.982   8.648
  113OSM   C13S11741   7.116   2.142   8.534
  113OSM   H13S11742   7.200   2.212   8.554
  113OSM   H13T11743   7.022   2.202   8.532
  113OSM   C14S11744   7.135   2.075   8.397
  113OSM   H14S11745   7.044   2.016   8.373
  113OSM   H14T11746   7.220   2.003   8.405
  113OSM   C15S11747   7.161   2.170   8.280
  113OSM   H15S11748   7.260   2.219   8.293
  113OSM   H15T11749   7.085   2.250   8.280
  113OSM   C16S11750   7.160   2.100   8.143
  113OSM   H16S11751   7.202   2.169   8.067
  113OSM   H16T11752   7.055   2.078   8.114
  113OSM   C17S11753   7.238   1.967   8.138
  113OSM   H17S11754   7.186   1.892   8.200
  113OSM   H17T11755   7.339   1.983   8.183
  113OSM   C18S11756   7.255   1.912   7.996
  113OSM   H18S11757   7.157   1.895   7.948
  113OSM   H18T11758   7.311   1.816   7.999
  113OSM   H18U11759   7.312   1.984   7.934
  113OSM    C1F11760   7.366   1.579   9.646
  113OSM     OF11761   7.297   1.485   9.682
  113OSM    C2F11762   7.511   1.564   9.613
  113OSM    H2F11763   7.560   1.503   9.692
  113OSM    H2G11764   7.561   1.663   9.612
  113OSM    C3F11765   7.528   1.495   9.476
  113OSM    H3F11766   7.468   1.402   9.472
  113OSM    H3G11767   7.635   1.468   9.465
  113OSM    C4F11768   7.492   1.583   9.356
  113OSM    H4F11769   7.565   1.667   9.356
  113OSM    H4G11770   7.390   1.626   9.365
  113OSM    C5F11771   7.500   1.502   9.227
  113OSM    H5F11772   7.410   1.436   9.220
  113OSM    H5G11773   7.588   1.434   9.232
  113OSM    C6F11774   7.510   1.583   9.097
  113OSM    H6F11775   7.407   1.605   9.061
  113OSM    H6G11776   7.557   1.518   9.019
  113OSM    C7F11777   7.588   1.714   9.109
  113OSM    H7F11778   7.688   1.695   9.153
  113OSM    H7G11779   7.534   1.782   9.178
  113OSM    C8F11780   7.602   1.788   8.975
  113OSM    H8F11781   7.645   1.889   8.996
  113OSM    H8G11782   7.500   1.804   8.934
  113OSM    C9F11783   7.693   1.715   8.880
  113OSM    H9F11784   7.792   1.690   8.921
  113OSM   C10F11785   7.665   1.670   8.757
  113OSM   H10F11786   7.742   1.616   8.701
  113OSM   C11F11787   7.533   1.685   8.687
  113OSM   H11F11788   7.550   1.715   8.582
  113OSM   H11G11789   7.469   1.763   8.733
  113OSM   C12F11790   7.460   1.550   8.695
  113OSM   H12F11791   7.459   1.511   8.799
  113OSM   H12G11792   7.514   1.476   8.632
  113OSM   C13F11793   7.316   1.560   8.647
  113OSM   H13F11794   7.254   1.613   8.723
  113OSM   H13G11795   7.276   1.456   8.637
  113OSM   C14F11796   7.305   1.635   8.514
  113OSM   H14F11797   7.382   1.595   8.444
  113OSM   H14G11798   7.327   1.743   8.529
  113OSM   C15F11799   7.168   1.623   8.448
  113OSM   H15F11800   7.173   1.680   8.352
  113OSM   H15G11801   7.091   1.671   8.511
  113OSM   C16F11802   7.129   1.477   8.421
  113OSM   H16F11803   7.098   1.429   8.516
  113OSM   H16G11804   7.218   1.422   8.383
  113OSM   C17F11805   7.017   1.463   8.319
  113OSM   H17F11806   6.931   1.527   8.349
  113OSM   H17G11807   6.980   1.358   8.322
  113OSM   C18F11808   7.060   1.496   8.176
  113OSM   H18F11809   6.970   1.508   8.111
  113OSM   H18G11810   7.123   1.414   8.136
  113OSM   H18H11811   7.118   1.591   8.171
  114OSM      N11812   7.192   0.909  10.186
  114OSM    C1511813   7.106   1.031  10.177
  114OSM   H15A11814   7.167   1.121  10.182
  114OSM   H15B11815   7.036   1.034  10.259
  114OSM   H15C11816   7.053   1.031  10.083
  114OSM    C1411817   7.285   0.907  10.069
  114OSM   H14A11818   7.344   0.816  10.069
  114OSM   H14B11819   7.354   0.990  10.073
  114OSM   H14C11820   7.230   0.910   9.976
  114OSM    C1311821   7.275   0.915  10.310
  114OSM   H13A11822   7.213   0.925  10.398
  114OSM   H13B11823   7.344   0.998  10.307
  114OSM   H13C11824   7.333   0.825  10.319
  114OSM    C1211825   7.105   0.785  10.180
  114OSM   H12A11826   7.033   0.797  10.100
  114OSM   H12B11827   7.048   0.778  10.272
  114OSM    C1111828   7.175   0.648  10.156
  114OSM   H11A11829   7.210   0.644  10.051
  114OSM   H11B11830   7.098   0.568  10.166
  114OSM      P11831   7.428   0.599  10.213
  114OSM    O1311832   7.512   0.685  10.300
  114OSM    O1411833   7.454   0.454  10.220
  114OSM    O1111834   7.449   0.651  10.064
  114OSM    O1211835   7.278   0.625  10.252
  114OSM    C1S11836   7.573   0.607  10.004
  114OSM    H1S11837   7.567   0.500   9.977
  114OSM    H1T11838   7.659   0.620  10.074
  114OSM     NF11839   7.612   0.593   9.764
  114OSM    HNF11840   7.679   0.520   9.764
  114OSM    C2S11841   7.616   0.685   9.876
  114OSM    H2S11842   7.545   0.769   9.862
  114OSM    C3S11843   7.758   0.748   9.897
  114OSM    H3S11844   7.830   0.671   9.932
  114OSM     O311845   7.764   0.852   9.995
  114OSM    HO311846   7.676   0.861  10.033
  114OSM    C4S11847   7.807   0.800   9.765
  114OSM    H4S11848   7.908   0.767   9.736
  114OSM    C5S11849   7.737   0.882   9.686
  114OSM    H5S11850   7.638   0.916   9.717
  114OSM    C6S11851   7.781   0.932   9.552
  114OSM    H6S11852   7.873   0.881   9.517
  114OSM    H6T11853   7.803   1.041   9.560
  114OSM    C7S11854   7.669   0.913   9.449
  114OSM    H7S11855   7.569   0.895   9.494
  114OSM    H7T11856   7.693   0.819   9.395
  114OSM    C8S11857   7.655   1.027   9.347
  114OSM    H8S11858   7.743   1.095   9.347
  114OSM    H8T11859   7.569   1.092   9.374
  114OSM    C9S11860   7.637   0.969   9.209
  114OSM    H9S11861   7.549   0.902   9.212
  114OSM    H9T11862   7.725   0.907   9.184
  114OSM   C10S11863   7.619   1.073   9.098
  114OSM   H10S11864   7.711   1.135   9.086
  114OSM   H10T11865   7.535   1.140   9.125
  114OSM   C11S11866   7.588   0.997   8.971
  114OSM   H11S11867   7.545   0.899   9.002
  114OSM   H11T11868   7.679   0.973   8.912
  114OSM   C12S11869   7.484   1.062   8.881
  114OSM   H12S11870   7.533   1.131   8.809
  114OSM   H12T11871   7.418   1.126   8.944
  114OSM   C13S11872   7.406   0.951   8.811
  114OSM   H13S11873   7.331   0.994   8.741
  114OSM   H13T11874   7.349   0.893   8.887
  114OSM   C14S11875   7.500   0.855   8.736
  114OSM   H14S11876   7.441   0.781   8.678
  114OSM   H14T11877   7.563   0.796   8.806
  114OSM   C15S11878   7.594   0.932   8.642
  114OSM   H15S11879   7.665   0.862   8.594
  114OSM   H15T11880   7.658   1.003   8.698
  114OSM   C16S11881   7.512   1.008   8.538
  114OSM   H16S11882   7.583   1.076   8.485
  114OSM   H16T11883   7.439   1.077   8.585
  114OSM   C17S11884   7.441   0.916   8.439
  114OSM   H17S11885   7.417   0.975   8.348
  114OSM   H17T11886   7.345   0.884   8.484
  114OSM   C18S11887   7.522   0.790   8.402
  114OSM   H18S11888   7.529   0.720   8.488
  114OSM   H18T11889   7.625   0.818   8.372
  114OSM   H18U11890   7.476   0.734   8.318
  114OSM    C1F11891   7.518   0.602   9.669
  114OSM     OF11892   7.436   0.693   9.671
  114OSM    C2F11893   7.517   0.494   9.564
  114OSM    H2F11894   7.418   0.444   9.570
  114OSM    H2G11895   7.595   0.419   9.586
  114OSM    C3F11896   7.535   0.550   9.421
  114OSM    H3F11897   7.498   0.654   9.413
  114OSM    H3G11898   7.473   0.487   9.354
  114OSM    C4F11899   7.680   0.545   9.369
  114OSM    H4F11900   7.709   0.438   9.367
  114OSM    H4G11901   7.749   0.599   9.438
  114OSM    C5F11902   7.699   0.596   9.225
  114OSM    H5F11903   7.800   0.567   9.189
  114OSM    H5G11904   7.696   0.707   9.222
  114OSM    C6F11905   7.594   0.542   9.129
  114OSM    H6F11906   7.496   0.589   9.155
  114OSM    H6G11907   7.584   0.433   9.143
  114OSM    C7F11908   7.625   0.570   8.982
  114OSM    H7F11909   7.725   0.527   8.957
  114OSM    H7G11910   7.633   0.680   8.967
  114OSM    C8F11911   7.521   0.507   8.888
  114OSM    H8F11912   7.523   0.398   8.904
  114OSM    H8G11913   7.550   0.526   8.782
  114OSM    C9F11914   7.384   0.566   8.915
  114OSM    H9F11915   7.381   0.675   8.912
  114OSM   C10F11916   7.272   0.499   8.949
  114OSM   H10F11917   7.180   0.556   8.967
  114OSM   C11F11918   7.257   0.350   8.966
  114OSM   H11F11919   7.157   0.327   9.009
  114OSM   H11G11920   7.332   0.313   9.040
  114OSM   C12F11921   7.274   0.269   8.836
  114OSM   H12F11922   7.253   0.162   8.858
  114OSM   H12G11923   7.379   0.275   8.802
  114OSM   C13F11924   7.182   0.315   8.722
  114OSM   H13F11925   7.202   0.421   8.698
  114OSM   H13G11926   7.076   0.308   8.756
  114OSM   C14F11927   7.198   0.232   8.594
  114OSM   H14F11928   7.125   0.270   8.519
  114OSM   H14G11929   7.170   0.126   8.616
  114OSM   C15F11930   7.338   0.233   8.530
  114OSM   H15F11931   7.334   0.172   8.438
  114OSM   H15G11932   7.412   0.186   8.598
  114OSM   C16F11933   7.385   0.375   8.494
  114OSM   H16F11934   7.403   0.432   8.588
  114OSM   H16G11935   7.303   0.425   8.439
  114OSM   C17F11936   7.513   0.380   8.409
  114OSM   H17F11937   7.593   0.322   8.460
  114OSM   H17G11938   7.548   0.485   8.404
  114OSM   C18F11939   7.496   0.328   8.265
  114OSM   H18F11940   7.469   0.221   8.265
  114OSM   H18G11941   7.590   0.341   8.208
  114OSM   H18H11942   7.415   0.384   8.213
  115OSM      N11943   3.240   4.679   5.694
  115OSM    C1511944   3.336   4.567   5.668
  115OSM   H15A11945   3.284   4.475   5.644
  115OSM   H15B11946   3.391   4.547   5.758
  115OSM   H15C11947   3.406   4.590   5.589
  115OSM    C1411948   3.321   4.797   5.740
  115OSM   H14A11949   3.395   4.825   5.667
  115OSM   H14B11950   3.372   4.770   5.831
  115OSM   H14C11951   3.260   4.883   5.763
  115OSM    C1311952   3.168   4.715   5.568
  115OSM   H13A11953   3.106   4.802   5.583
  115OSM   H13B11954   3.106   4.633   5.534
  115OSM   H13C11955   3.238   4.738   5.489
  115OSM    C1211956   3.142   4.637   5.803
  115OSM   H12A11957   3.115   4.534   5.785
  115OSM   H12B11958   3.053   4.698   5.795
  115OSM    C1111959   3.191   4.644   5.950
  115OSM   H11A11960   3.109   4.608   6.016
  115OSM   H11B11961   3.209   4.750   5.978
  115OSM      P11962   3.305   4.412   5.983
  115OSM    O1311963   3.226   4.358   5.870
  115OSM    O1411964   3.445   4.364   5.996
  115OSM    O1111965   3.228   4.393   6.120
  115OSM    O1211966   3.311   4.569   5.969
  115OSM    C1S11967   3.257   4.482   6.229
  115OSM    H1S11968   3.206   4.579   6.213
  115OSM    H1T11969   3.366   4.501   6.240
  115OSM     NF11970   3.223   4.522   6.471
  115OSM    HNF11971   3.280   4.498   6.549
  115OSM    C2S11972   3.209   4.423   6.365
  115OSM    H2S11973   3.101   4.398   6.356
  115OSM    C3S11974   3.288   4.293   6.393
  115OSM    H3S11975   3.397   4.314   6.387
  115OSM     O311976   3.259   4.192   6.297
  115OSM    HO311977   3.220   4.240   6.223
  115OSM    C4S11978   3.259   4.239   6.531
  115OSM    H4S11979   3.350   4.206   6.583
  115OSM    C5S11980   3.141   4.219   6.591
  115OSM    H5S11981   3.046   4.242   6.540
  115OSM    C6S11982   3.129   4.161   6.730
  115OSM    H6S11983   3.228   4.129   6.768
  115OSM    H6T11984   3.070   4.068   6.723
  115OSM    C7S11985   3.065   4.253   6.836
  115OSM    H7S11986   2.968   4.294   6.802
  115OSM    H7T11987   3.134   4.337   6.858
  115OSM    C8S11988   3.043   4.171   6.964
  115OSM    H8S11989   3.138   4.116   6.982
  115OSM    H8T11990   2.964   4.095   6.946
  115OSM    C9S11991   3.011   4.247   7.093
  115OSM    H9S11992   2.960   4.174   7.160
  115OSM    H9T11993   2.937   4.328   7.074
  115OSM   C10S11994   3.139   4.293   7.162
  115OSM   H10S11995   3.188   4.377   7.108
  115OSM   H10T11996   3.211   4.209   7.156
  115OSM   C11S11997   3.124   4.326   7.311
  115OSM   H11S11998   3.048   4.260   7.358
  115OSM   H11T11999   3.089   4.431   7.322
  115OSM   C12S12000   3.258   4.308   7.382
  115OSM   H12S12001   3.333   4.372   7.331
  115OSM   H12T12002   3.291   4.202   7.370
  115OSM   C13S12003   3.256   4.343   7.530
  115OSM   H13S12004   3.179   4.285   7.584
  115OSM   H13T12005   3.231   4.451   7.540
  115OSM   C14S12006   3.395   4.317   7.590
  115OSM   H14S12007   3.468   4.358   7.517
  115OSM   H14T12008   3.414   4.208   7.600
  115OSM   C15S12009   3.421   4.389   7.722
  115OSM   H15S12010   3.396   4.322   7.807
  115OSM   H15T12011   3.353   4.477   7.729
  115OSM   C16S12012   3.566   4.440   7.731
  115OSM   H16S12013   3.590   4.492   7.636
  115OSM   H16T12014   3.636   4.354   7.737
  115OSM   C17S12015   3.589   4.537   7.847
  115OSM   H17S12016   3.525   4.626   7.829
  115OSM   H17T12017   3.694   4.571   7.844
  115OSM   C18S12018   3.558   4.481   7.985
  115OSM   H18S12019   3.627   4.397   8.010
  115OSM   H18T12020   3.453   4.443   7.990
  115OSM   H18U12021   3.569   4.560   8.062
  115OSM    C1F12022   3.147   4.631   6.473
  115OSM     OF12023   3.062   4.652   6.388
  115OSM    C2F12024   3.170   4.729   6.582
  115OSM    H2F12025   3.175   4.829   6.534
  115OSM    H2G12026   3.267   4.709   6.634
  115OSM    C3F12027   3.053   4.726   6.682
  115OSM    H3F12028   2.958   4.694   6.633
  115OSM    H3G12029   3.036   4.828   6.720
  115OSM    C4F12030   3.078   4.636   6.803
  115OSM    H4F12031   3.178   4.657   6.845
  115OSM    H4G12032   3.075   4.529   6.773
  115OSM    C5F12033   2.973   4.663   6.911
  115OSM    H5F12034   2.877   4.617   6.880
  115OSM    H5G12035   2.956   4.772   6.923
  115OSM    C6F12036   3.015   4.608   7.047
  115OSM    H6F12037   3.102   4.665   7.086
  115OSM    H6G12038   3.048   4.503   7.031
  115OSM    C7F12039   2.899   4.611   7.146
  115OSM    H7F12040   2.846   4.513   7.140
  115OSM    H7G12041   2.828   4.687   7.107
  115OSM    C8F12042   2.935   4.650   7.291
  115OSM    H8F12043   2.915   4.758   7.305
  115OSM    H8G12044   3.044   4.635   7.306
  115OSM    C9F12045   2.858   4.565   7.389
  115OSM    H9F12046   2.853   4.460   7.359
  115OSM   C10F12047   2.805   4.601   7.507
  115OSM   H10F12048   2.751   4.525   7.566
  115OSM   C11F12049   2.812   4.737   7.571
  115OSM   H11F12050   2.721   4.796   7.548
  115OSM   H11G12051   2.899   4.795   7.532
  115OSM   C12F12052   2.826   4.729   7.725
  115OSM   H12F12053   2.726   4.709   7.769
  115OSM   H12G12054   2.858   4.829   7.762
  115OSM   C13F12055   2.922   4.621   7.781
  115OSM   H13F12056   2.876   4.522   7.761
  115OSM   H13G12057   2.930   4.631   7.891
  115OSM   C14F12058   3.064   4.618   7.719
  115OSM   H14F12059   3.061   4.653   7.614
  115OSM   H14G12060   3.097   4.512   7.717
  115OSM   C15F12061   3.170   4.697   7.797
  115OSM   H15F12062   3.266   4.689   7.742
  115OSM   H15G12063   3.185   4.651   7.897
  115OSM   C16F12064   3.134   4.845   7.816
  115OSM   H16F12065   3.049   4.853   7.887
  115OSM   H16G12066   3.101   4.886   7.718
  115OSM   C17F12067   3.251   4.929   7.869
  115OSM   H17F12068   3.295   4.875   7.955
  115OSM   H17G12069   3.212   5.026   7.907
  115OSM   C18F12070   3.358   4.956   7.763
  115OSM   H18F12071   3.355   4.879   7.682
  115OSM   H18G12072   3.458   4.953   7.810
  115OSM   H18H12073   3.343   5.055   7.716
  116OSM      N12074   2.850   2.374   6.011
  116OSM    C1512075   2.969   2.429   6.085
  116OSM   H15A12076   3.028   2.496   6.025
  116OSM   H15B12077   3.033   2.349   6.120
  116OSM   H15C12078   2.938   2.485   6.172
  116OSM    C1412079   2.781   2.276   6.100
  116OSM   H14A12080   2.693   2.236   6.051
  116OSM   H14B12081   2.752   2.322   6.194
  116OSM   H14C12082   2.846   2.192   6.117
  116OSM    C1312083   2.753   2.485   5.982
  116OSM   H13A12084   2.794   2.560   5.916
  116OSM   H13B12085   2.722   2.535   6.072
  116OSM   H13C12086   2.662   2.450   5.936
  116OSM    C1212087   2.891   2.304   5.882
  116OSM   H12A12088   2.941   2.374   5.817
  116OSM   H12B12089   2.801   2.275   5.829
  116OSM    C1112090   2.979   2.176   5.894
  116OSM   H11A12091   3.066   2.196   5.960
  116OSM   H11B12092   3.020   2.151   5.794
  116OSM      P12093   2.786   2.009   5.859
  116OSM    O1312094   2.661   2.061   5.919
  116OSM    O1412095   2.810   2.038   5.717
  116OSM    O1112096   2.785   1.852   5.883
  116OSM    O1212097   2.906   2.064   5.945
  116OSM    C1S12098   2.889   1.783   5.952
  116OSM    H1S12099   2.989   1.821   5.921
  116OSM    H1T12100   2.886   1.675   5.924
  116OSM     NF12101   2.990   1.746   6.177
  116OSM    HNF12102   2.975   1.682   6.252
  116OSM    C2S12103   2.873   1.794   6.107
  116OSM    H2S12104   2.861   1.902   6.130
  116OSM    C3S12105   2.745   1.721   6.155
  116OSM    H3S12106   2.756   1.612   6.134
  116OSM     O312107   2.627   1.763   6.088
  116OSM    HO312108   2.662   1.809   6.012
  116OSM    C4S12109   2.732   1.740   6.305
  116OSM    H4S12110   2.737   1.648   6.364
  116OSM    C5S12111   2.712   1.857   6.368
  116OSM    H5S12112   2.706   1.949   6.308
  116OSM    C6S12113   2.699   1.878   6.516
  116OSM    H6S12114   2.591   1.882   6.544
  116OSM    H6T12115   2.742   1.977   6.542
  116OSM    C7S12116   2.766   1.776   6.611
  116OSM    H7S12117   2.875   1.773   6.588
  116OSM    H7T12118   2.724   1.675   6.597
  116OSM    C8S12119   2.749   1.819   6.757
  116OSM    H8S12120   2.643   1.805   6.790
  116OSM    H8T12121   2.771   1.928   6.763
  116OSM    C9S12122   2.844   1.747   6.854
  116OSM    H9S12123   2.939   1.726   6.799
  116OSM    H9T12124   2.802   1.650   6.886
  116OSM   C10S12125   2.881   1.833   6.976
  116OSM   H10S12126   2.906   1.935   6.942
  116OSM   H10T12127   2.972   1.790   7.023
  116OSM   C11S12128   2.772   1.839   7.084
  116OSM   H11S12129   2.755   1.737   7.124
  116OSM   H11T12130   2.676   1.875   7.040
  116OSM   C12S12131   2.813   1.932   7.199
  116OSM   H12S12132   2.805   2.037   7.165
  116OSM   H12T12133   2.920   1.914   7.223
  116OSM   C13S12134   2.732   1.913   7.327
  116OSM   H13S12135   2.748   1.810   7.366
  116OSM   H13T12136   2.624   1.925   7.305
  116OSM   C14S12137   2.771   2.016   7.434
  116OSM   H14S12138   2.748   2.117   7.393
  116OSM   H14T12139   2.881   2.012   7.449
  116OSM   C15S12140   2.699   2.000   7.568
  116OSM   H15S12141   2.589   1.997   7.550
  116OSM   H15T12142   2.719   2.090   7.630
  116OSM   C16S12143   2.740   1.876   7.650
  116OSM   H16S12144   2.715   1.785   7.592
  116OSM   H16T12145   2.681   1.874   7.743
  116OSM   C17S12146   2.890   1.872   7.686
  116OSM   H17S12147   2.918   1.967   7.735
  116OSM   H17T12148   2.949   1.864   7.592
  116OSM   C18S12149   2.928   1.755   7.777
  116OSM   H18S12150   2.871   1.760   7.872
  116OSM   H18T12151   3.036   1.758   7.801
  116OSM   H18U12152   2.905   1.658   7.728
  116OSM    C1F12153   3.096   1.825   6.183
  116OSM     OF12154   3.161   1.857   6.084
  116OSM    C2F12155   3.131   1.870   6.321
  116OSM    H2F12156   3.230   1.829   6.349
  116OSM    H2G12157   3.057   1.832   6.394
  116OSM    C3F12158   3.137   2.023   6.331
  116OSM    H3F12159   3.204   2.067   6.254
  116OSM    H3G12160   3.185   2.038   6.431
  116OSM    C4F12161   3.004   2.100   6.334
  116OSM    H4F12162   2.929   2.042   6.392
  116OSM    H4G12163   2.968   2.111   6.230
  116OSM    C5F12164   3.019   2.237   6.403
  116OSM    H5F12165   2.927   2.298   6.388
  116OSM    H5G12166   3.105   2.293   6.358
  116OSM    C6F12167   3.044   2.223   6.554
  116OSM    H6F12168   3.139   2.168   6.572
  116OSM    H6G12169   2.962   2.162   6.598
  116OSM    C7F12170   3.059   2.355   6.630
  116OSM    H7F12171   2.968   2.418   6.619
  116OSM    H7G12172   3.144   2.411   6.587
  116OSM    C8F12173   3.089   2.327   6.779
  116OSM    H8F12174   3.120   2.421   6.829
  116OSM    H8G12175   3.176   2.260   6.784
  116OSM    C9F12176   2.970   2.266   6.849
  116OSM    H9F12177   2.878   2.260   6.789
  116OSM   C10F12178   2.969   2.224   6.976
  116OSM   H10F12179   2.878   2.179   7.018
  116OSM   C11F12180   3.086   2.231   7.070
  116OSM   H11F12181   3.180   2.255   7.016
  116OSM   H11G12182   3.102   2.133   7.119
  116OSM   C12F12183   3.064   2.340   7.177
  116OSM   H12F12184   3.024   2.434   7.132
  116OSM   H12G12185   3.163   2.366   7.220
  116OSM   C13F12186   2.975   2.293   7.293
  116OSM   H13F12187   2.996   2.185   7.310
  116OSM   H13G12188   2.868   2.301   7.265
  116OSM   C14F12189   3.004   2.368   7.424
  116OSM   H14F12190   2.972   2.474   7.415
  116OSM   H14G12191   3.113   2.367   7.442
  116OSM   C15F12192   2.934   2.300   7.543
  116OSM   H15F12193   2.959   2.192   7.540
  116OSM   H15G12194   2.824   2.309   7.532
  116OSM   C16F12195   2.977   2.353   7.680
  116OSM   H16F12196   2.934   2.454   7.695
  116OSM   H16G12197   3.088   2.363   7.684
  116OSM   C17F12198   2.932   2.258   7.792
  116OSM   H17F12199   3.006   2.175   7.800
  116OSM   H17G12200   2.835   2.213   7.764
  116OSM   C18F12201   2.915   2.326   7.927
  116OSM   H18F12202   3.006   2.385   7.952
  116OSM   H18G12203   2.899   2.251   8.007
  116OSM   H18H12204   2.829   2.396   7.926
  117OSM      N12205   2.225   2.731   5.622
  117OSM    C1512206   2.171   2.766   5.488
  117OSM   H15A12207   2.196   2.868   5.464
  117OSM   H15B12208   2.063   2.760   5.487
  117OSM   H15C12209   2.212   2.702   5.411
  117OSM    C1412210   2.374   2.743   5.623
  117OSM   H14A12211   2.421   2.676   5.552
  117OSM   H14B12212   2.410   2.720   5.722
  117OSM   H14C12213   2.405   2.845   5.602
  117OSM    C1312214   2.173   2.834   5.719
  117OSM   H13A12215   2.211   2.933   5.697
  117OSM   H13B12216   2.205   2.810   5.819
  117OSM   H13C12217   2.065   2.840   5.718
  117OSM    C1212218   2.181   2.592   5.664
  117OSM   H12A12219   2.190   2.523   5.581
  117OSM   H12B12220   2.076   2.598   5.690
  117OSM    C1112221   2.252   2.529   5.785
  117OSM   H11A12222   2.357   2.503   5.758
  117OSM   H11B12223   2.201   2.435   5.815
  117OSM      P12224   2.362   2.667   5.983
  117OSM    O1312225   2.488   2.612   5.926
  117OSM    O1412226   2.349   2.813   5.991
  117OSM    O1112227   2.322   2.592   6.115
  117OSM    O1212228   2.243   2.619   5.892
  117OSM    C1S12229   2.184   2.572   6.152
  117OSM    H1S12230   2.171   2.466   6.180
  117OSM    H1T12231   2.111   2.593   6.070
  117OSM     NF12232   2.220   2.619   6.386
  117OSM    HNF12233   2.177   2.564   6.457
  117OSM    C2S12234   2.135   2.657   6.274
  117OSM    H2S12235   2.148   2.766   6.254
  117OSM    C3S12236   1.977   2.625   6.282
  117OSM    H3S12237   1.961   2.525   6.236
  117OSM     O312238   1.905   2.721   6.206
  117OSM    HO312239   1.837   2.670   6.162
  117OSM    C4S12240   1.913   2.627   6.421
  117OSM    H4S12241   1.913   2.727   6.467
  117OSM    C5S12242   1.847   2.525   6.485
  117OSM    H5S12243   1.834   2.430   6.431
  117OSM    C6S12244   1.785   2.526   6.625
  117OSM    H6S12245   1.675   2.527   6.613
  117OSM    H6T12246   1.810   2.621   6.675
  117OSM    C7S12247   1.818   2.411   6.729
  117OSM    H7S12248   1.898   2.342   6.694
  117OSM    H7T12249   1.725   2.350   6.722
  117OSM    C8S12250   1.841   2.451   6.879
  117OSM    H8S12251   1.755   2.418   6.942
  117OSM    H8T12252   1.829   2.562   6.883
  117OSM    C9S12253   1.972   2.414   6.958
  117OSM    H9S12254   2.040   2.355   6.893
  117OSM    H9T12255   1.942   2.348   7.043
  117OSM   C10S12256   2.050   2.536   7.017
  117OSM   H10S12257   1.978   2.617   7.041
  117OSM   H10T12258   2.117   2.572   6.937
  117OSM   C11S12259   2.147   2.525   7.136
  117OSM   H11S12260   2.216   2.438   7.122
  117OSM   H11T12261   2.091   2.512   7.230
  117OSM   C12S12262   2.233   2.655   7.141
  117OSM   H12S12263   2.167   2.742   7.120
  117OSM   H12T12264   2.307   2.650   7.059
  117OSM   C13S12265   2.308   2.685   7.272
  117OSM   H13S12266   2.385   2.763   7.250
  117OSM   H13T12267   2.364   2.595   7.306
  117OSM   C14S12268   2.219   2.740   7.384
  117OSM   H14S12269   2.141   2.665   7.409
  117OSM   H14T12270   2.166   2.831   7.348
  117OSM   C15S12271   2.299   2.776   7.511
  117OSM   H15S12272   2.364   2.864   7.488
  117OSM   H15T12273   2.365   2.691   7.537
  117OSM   C16S12274   2.212   2.809   7.632
  117OSM   H16S12275   2.148   2.722   7.656
  117OSM   H16T12276   2.145   2.895   7.608
  117OSM   C17S12277   2.295   2.845   7.756
  117OSM   H17S12278   2.358   2.934   7.732
  117OSM   H17T12279   2.364   2.761   7.778
  117OSM   C18S12280   2.211   2.875   7.880
  117OSM   H18S12281   2.149   2.787   7.908
  117OSM   H18T12282   2.143   2.961   7.861
  117OSM   H18U12283   2.276   2.901   7.967
  117OSM    C1F12284   2.350   2.653   6.405
  117OSM     OF12285   2.404   2.742   6.342
  117OSM    C2F12286   2.421   2.584   6.520
  117OSM    H2F12287   2.380   2.481   6.532
  117OSM    H2G12288   2.401   2.643   6.612
  117OSM    C3F12289   2.574   2.563   6.514
  117OSM    H3F12290   2.621   2.655   6.473
  117OSM    H3G12291   2.598   2.480   6.445
  117OSM    C4F12292   2.634   2.537   6.654
  117OSM    H4F12293   2.610   2.626   6.716
  117OSM    H4G12294   2.744   2.531   6.645
  117OSM    C5F12295   2.585   2.412   6.732
  117OSM    H5F12296   2.647   2.325   6.700
  117OSM    H5G12297   2.479   2.389   6.707
  117OSM    C6F12298   2.594   2.428   6.886
  117OSM    H6F12299   2.509   2.492   6.919
  117OSM    H6G12300   2.688   2.480   6.914
  117OSM    C7F12301   2.590   2.294   6.962
  117OSM    H7F12302   2.691   2.250   6.966
  117OSM    H7G12303   2.527   2.224   6.903
  117OSM    C8F12304   2.528   2.297   7.104
  117OSM    H8F12305   2.520   2.191   7.136
  117OSM    H8G12306   2.425   2.338   7.092
  117OSM    C9F12307   2.595   2.375   7.214
  117OSM    H9F12308   2.675   2.443   7.181
  117OSM   C10F12309   2.566   2.367   7.346
  117OSM   H10F12310   2.620   2.430   7.417
  117OSM   C11F12311   2.461   2.277   7.410
  117OSM   H11F12312   2.488   2.254   7.515
  117OSM   H11G12313   2.464   2.179   7.357
  117OSM   C12F12314   2.314   2.325   7.406
  117OSM   H12F12315   2.247   2.237   7.399
  117OSM   H12G12316   2.299   2.386   7.314
  117OSM   C13F12317   2.270   2.407   7.529
  117OSM   H13F12318   2.189   2.477   7.498
  117OSM   H13G12319   2.355   2.468   7.565
  117OSM   C14F12320   2.213   2.321   7.643
  117OSM   H14F12321   2.287   2.240   7.664
  117OSM   H14G12322   2.119   2.272   7.610
  117OSM   C15F12323   2.189   2.400   7.772
  117OSM   H15F12324   2.233   2.501   7.763
  117OSM   H15G12325   2.243   2.347   7.854
  117OSM   C16F12326   2.044   2.414   7.816
  117OSM   H16F12327   1.997   2.313   7.820
  117OSM   H16G12328   1.989   2.475   7.742
  117OSM   C17F12329   2.031   2.479   7.955
  117OSM   H17F12330   2.095   2.569   7.958
  117OSM   H17G12331   1.926   2.513   7.968
  117OSM   C18F12332   2.067   2.386   8.071
  117OSM   H18F12333   2.169   2.344   8.058
  117OSM   H18G12334   1.995   2.301   8.077
  117OSM   H18H12335   2.064   2.440   8.168
  118OSM      N12336   4.942   4.955   5.784
  118OSM    C1512337   5.034   5.048   5.857
  118OSM   H15A12338   5.099   5.102   5.789
  118OSM   H15B12339   5.093   4.997   5.931
  118OSM   H15C12340   4.974   5.122   5.908
  118OSM    C1412341   4.864   5.039   5.686
  118OSM   H14A12342   4.805   5.111   5.741
  118OSM   H14B12343   4.794   4.980   5.628
  118OSM   H14C12344   4.928   5.093   5.618
  118OSM    C1312345   5.020   4.856   5.704
  118OSM   H13A12346   5.082   4.793   5.766
  118OSM   H13B12347   5.085   4.907   5.634
  118OSM   H13C12348   4.954   4.794   5.644
  118OSM    C1212349   4.844   4.892   5.882
  118OSM   H12A12350   4.890   4.809   5.932
  118OSM   H12B12351   4.759   4.855   5.827
  118OSM    C1112352   4.787   4.987   5.991
  118OSM   H11A12353   4.867   5.022   6.059
  118OSM   H11B12354   4.717   4.931   6.056
  118OSM      P12355   4.571   5.099   5.898
  118OSM    O1312356   4.543   5.211   5.805
  118OSM    O1412357   4.533   4.964   5.852
  118OSM    O1112358   4.506   5.127   6.040
  118OSM    O1212359   4.725   5.100   5.930
  118OSM    C1S12360   4.573   5.212   6.135
  118OSM    H1S12361   4.540   5.317   6.117
  118OSM    H1T12362   4.683   5.213   6.126
  118OSM     NF12363   4.634   5.093   6.351
  118OSM    HNF12364   4.603   5.003   6.380
  118OSM    C2S12365   4.538   5.180   6.285
  118OSM    H2S12366   4.541   5.278   6.338
  118OSM    C3S12367   4.396   5.121   6.299
  118OSM    H3S12368   4.398   5.013   6.273
  118OSM     O312369   4.301   5.178   6.210
  118OSM    HO312370   4.357   5.195   6.134
  118OSM    C4S12371   4.347   5.138   6.439
  118OSM    H4S12372   4.318   5.241   6.464
  118OSM    C5S12373   4.337   5.041   6.531
  118OSM    H5S12374   4.366   4.938   6.506
  118OSM    C6S12375   4.288   5.062   6.671
  118OSM    H6S12376   4.180   5.040   6.682
  118OSM    H6T12377   4.304   5.168   6.702
  118OSM    C7S12378   4.367   4.981   6.773
  118OSM    H7S12379   4.472   5.016   6.769
  118OSM    H7T12380   4.367   4.872   6.750
  118OSM    C8S12381   4.314   5.004   6.915
  118OSM    H8S12382   4.232   4.932   6.937
  118OSM    H8T12383   4.272   5.106   6.922
  118OSM    C9S12384   4.426   4.992   7.018
  118OSM    H9S12385   4.503   5.069   6.996
  118OSM    H9T12386   4.473   4.892   7.009
  118OSM   C10S12387   4.376   5.012   7.161
  118OSM   H10S12388   4.329   4.917   7.196
  118OSM   H10T12389   4.297   5.091   7.163
  118OSM   C11S12390   4.488   5.054   7.256
  118OSM   H11S12391   4.519   5.158   7.232
  118OSM   H11T12392   4.578   4.989   7.242
  118OSM   C12S12393   4.442   5.046   7.401
  118OSM   H12S12394   4.418   4.941   7.427
  118OSM   H12T12395   4.348   5.105   7.408
  118OSM   C13S12396   4.546   5.100   7.499
  118OSM   H13S12397   4.572   5.204   7.470
  118OSM   H13T12398   4.638   5.039   7.493
  118OSM   C14S12399   4.495   5.101   7.644
  118OSM   H14S12400   4.578   5.136   7.710
  118OSM   H14T12401   4.470   4.997   7.675
  118OSM   C15S12402   4.372   5.191   7.666
  118OSM   H15S12403   4.289   5.155   7.601
  118OSM   H15T12404   4.397   5.294   7.635
  118OSM   C16S12405   4.321   5.188   7.810
  118OSM   H16S12406   4.305   5.082   7.840
  118OSM   H16T12407   4.221   5.238   7.814
  118OSM   C17S12408   4.413   5.257   7.912
  118OSM   H17S12409   4.515   5.215   7.904
  118OSM   H17T12410   4.375   5.232   8.013
  118OSM   C18S12411   4.419   5.410   7.898
  118OSM   H18S12412   4.324   5.457   7.931
  118OSM   H18T12413   4.438   5.440   7.793
  118OSM   H18U12414   4.501   5.450   7.962
  118OSM    C1F12415   4.758   5.131   6.382
  118OSM     OF12416   4.810   5.228   6.329
  118OSM    C2F12417   4.828   5.049   6.485
  118OSM    H2F12418   4.928   5.019   6.447
  118OSM    H2G12419   4.769   4.957   6.504
  118OSM    C3F12420   4.846   5.129   6.617
  118OSM    H3F12421   4.755   5.190   6.639
  118OSM    H3G12422   4.931   5.199   6.605
  118OSM    C4F12423   4.870   5.038   6.739
  118OSM    H4F12424   4.910   5.099   6.823
  118OSM    H4G12425   4.947   4.962   6.712
  118OSM    C5F12426   4.741   4.970   6.786
  118OSM    H5F12427   4.691   4.917   6.702
  118OSM    H5G12428   4.672   5.051   6.820
  118OSM    C6F12429   4.757   4.870   6.902
  118OSM    H6F12430   4.657   4.833   6.934
  118OSM    H6G12431   4.799   4.924   6.989
  118OSM    C7F12432   4.841   4.745   6.866
  118OSM    H7F12433   4.890   4.761   6.768
  118OSM    H7G12434   4.773   4.659   6.853
  118OSM    C8F12435   4.948   4.710   6.971
  118OSM    H8F12436   5.008   4.624   6.933
  118OSM    H8G12437   4.898   4.676   7.065
  118OSM    C9F12438   5.038   4.829   6.993
  118OSM    H9F12439   5.068   4.878   6.900
  118OSM   C10F12440   5.080   4.881   7.110
  118OSM   H10F12441   5.136   4.976   7.106
  118OSM   C11F12442   5.051   4.834   7.249
  118OSM   H11F12443   5.146   4.818   7.304
  118OSM   H11G12444   4.998   4.736   7.248
  118OSM   C12F12445   4.966   4.936   7.327
  118OSM   H12F12446   4.897   4.881   7.395
  118OSM   H12G12447   4.900   4.993   7.257
  118OSM   C13F12448   5.045   5.034   7.414
  118OSM   H13F12449   4.978   5.120   7.434
  118OSM   H13G12450   5.133   5.072   7.358
  118OSM   C14F12451   5.089   4.977   7.551
  118OSM   H14F12452   5.130   5.061   7.612
  118OSM   H14G12453   5.170   4.903   7.535
  118OSM   C15F12454   4.981   4.906   7.634
  118OSM   H15F12455   4.953   4.812   7.582
  118OSM   H15G12456   4.889   4.967   7.642
  118OSM   C16F12457   5.029   4.868   7.774
  118OSM   H16F12458   5.031   4.960   7.837
  118OSM   H16G12459   5.134   4.831   7.767
  118OSM   C17F12460   4.944   4.758   7.839
  118OSM   H17F12461   4.934   4.675   7.767
  118OSM   H17G12462   4.842   4.797   7.858
  118OSM   C18F12463   5.003   4.702   7.968
  118OSM   H18F12464   4.986   4.771   8.054
  118OSM   H18G12465   5.113   4.688   7.958
  118OSM   H18H12466   4.957   4.604   7.993
  119OSM      N12467   5.177   4.523   5.836
  119OSM    C1512468   5.180   4.490   5.690
  119OSM   H15A12469   5.154   4.573   5.627
  119OSM   H15B12470   5.117   4.406   5.666
  119OSM   H15C12471   5.281   4.461   5.664
  119OSM    C1412472   5.271   4.638   5.861
  119OSM   H14A12473   5.372   4.606   5.840
  119OSM   H14B12474   5.270   4.671   5.963
  119OSM   H14C12475   5.255   4.721   5.793
  119OSM    C1312476   5.039   4.559   5.880
  119OSM   H13A12477   4.971   4.476   5.871
  119OSM   H13B12478   4.998   4.640   5.821
  119OSM   H13C12479   5.037   4.588   5.984
  119OSM    C1212480   5.228   4.404   5.918
  119OSM   H12A12481   5.144   4.345   5.951
  119OSM   H12B12482   5.277   4.443   6.006
  119OSM    C1112483   5.330   4.310   5.849
  119OSM   H11A12484   5.279   4.252   5.769
  119OSM   H11B12485   5.367   4.235   5.923
  119OSM      P12486   5.561   4.433   5.875
  119OSM    O1312487   5.674   4.349   5.831
  119OSM    O1412488   5.571   4.580   5.855
  119OSM    O1112489   5.515   4.402   6.024
  119OSM    O1212490   5.437   4.383   5.791
  119OSM    C1S12491   5.505   4.505   6.124
  119OSM    H1S12492   5.467   4.600   6.083
  119OSM    H1T12493   5.605   4.525   6.169
  119OSM     NF12494   5.386   4.568   6.336
  119OSM    HNF12495   5.432   4.561   6.424
  119OSM    C2S12496   5.408   4.461   6.239
  119OSM    H2S12497   5.310   4.435   6.194
  119OSM    C3S12498   5.465   4.331   6.303
  119OSM    H3S12499   5.570   4.350   6.334
  119OSM     O312500   5.465   4.220   6.213
  119OSM    HO312501   5.493   4.260   6.130
  119OSM    C4S12502   5.385   4.298   6.428
  119OSM    H4S12503   5.431   4.336   6.520
  119OSM    C5S12504   5.271   4.227   6.436
  119OSM    H5S12505   5.230   4.182   6.344
  119OSM    C6S12506   5.195   4.199   6.562
  119OSM    H6S12507   5.205   4.092   6.591
  119OSM    H6T12508   5.088   4.214   6.540
  119OSM    C7S12509   5.228   4.286   6.685
  119OSM    H7S12510   5.250   4.391   6.656
  119OSM    H7T12511   5.315   4.245   6.741
  119OSM    C8S12512   5.104   4.290   6.774
  119OSM    H8S12513   5.074   4.186   6.803
  119OSM    H8T12514   5.025   4.334   6.710
  119OSM    C9S12515   5.109   4.378   6.898
  119OSM    H9S12516   5.006   4.405   6.929
  119OSM    H9T12517   5.162   4.471   6.871
  119OSM   C10S12518   5.176   4.309   7.017
  119OSM   H10S12519   5.257   4.245   6.978
  119OSM   H10T12520   5.105   4.243   7.072
  119OSM   C11S12521   5.237   4.413   7.110
  119OSM   H11S12522   5.270   4.497   7.046
  119OSM   H11T12523   5.328   4.371   7.159
  119OSM   C12S12524   5.145   4.468   7.219
  119OSM   H12S12525   5.039   4.464   7.186
  119OSM   H12T12526   5.171   4.574   7.237
  119OSM   C13S12527   5.165   4.391   7.349
  119OSM   H13S12528   5.272   4.392   7.379
  119OSM   H13T12529   5.136   4.285   7.328
  119OSM   C14S12530   5.081   4.439   7.467
  119OSM   H14S12531   5.093   4.366   7.550
  119OSM   H14T12532   4.974   4.439   7.436
  119OSM   C15S12533   5.114   4.579   7.521
  119OSM   H15S12534   5.030   4.609   7.587
  119OSM   H15T12535   5.117   4.652   7.437
  119OSM   C16S12536   5.242   4.591   7.604
  119OSM   H16S12537   5.251   4.698   7.633
  119OSM   H16T12538   5.331   4.565   7.542
  119OSM   C17S12539   5.240   4.507   7.732
  119OSM   H17S12540   5.259   4.401   7.707
  119OSM   H17T12541   5.138   4.512   7.776
  119OSM   C18S12542   5.339   4.555   7.837
  119OSM   H18S12543   5.443   4.555   7.797
  119OSM   H18T12544   5.336   4.489   7.927
  119OSM   H18U12545   5.315   4.658   7.870
  119OSM    C1F12546   5.300   4.668   6.313
  119OSM     OF12547   5.262   4.693   6.198
  119OSM    C2F12548   5.241   4.738   6.433
  119OSM    H2F12549   5.202   4.660   6.502
  119OSM    H2G12550   5.154   4.798   6.398
  119OSM    C3F12551   5.336   4.831   6.512
  119OSM    H3F12552   5.376   4.909   6.443
  119OSM    H3G12553   5.422   4.773   6.552
  119OSM    C4F12554   5.265   4.902   6.629
  119OSM    H4F12555   5.224   4.826   6.699
  119OSM    H4G12556   5.179   4.961   6.590
  119OSM    C5F12557   5.357   4.996   6.709
  119OSM    H5F12558   5.408   5.066   6.639
  119OSM    H5G12559   5.435   4.934   6.757
  119OSM    C6F12560   5.283   5.080   6.815
  119OSM    H6F12561   5.185   5.033   6.836
  119OSM    H6G12562   5.261   5.181   6.774
  119OSM    C7F12563   5.358   5.095   6.949
  119OSM    H7F12564   5.296   5.159   7.014
  119OSM    H7G12565   5.454   5.148   6.933
  119OSM    C8F12566   5.378   4.961   7.022
  119OSM    H8F12567   5.308   4.887   6.977
  119OSM    H8G12568   5.349   4.974   7.128
  119OSM    C9F12569   5.517   4.904   7.018
  119OSM    H9F12570   5.596   4.979   7.001
  119OSM   C10F12571   5.549   4.776   7.040
  119OSM   H10F12572   5.655   4.746   7.038
  119OSM   C11F12573   5.455   4.665   7.074
  119OSM   H11F12574   5.463   4.583   6.999
  119OSM   H11G12575   5.349   4.699   7.074
  119OSM   C12F12576   5.484   4.608   7.214
  119OSM   H12F12577   5.390   4.571   7.259
  119OSM   H12G12578   5.521   4.688   7.282
  119OSM   C13F12579   5.583   4.490   7.211
  119OSM   H13F12580   5.682   4.527   7.179
  119OSM   H13G12581   5.549   4.415   7.136
  119OSM   C14F12582   5.593   4.420   7.348
  119OSM   H14F12583   5.665   4.335   7.339
  119OSM   H14G12584   5.494   4.377   7.375
  119OSM   C15F12585   5.641   4.514   7.459
  119OSM   H15F12586   5.571   4.600   7.470
  119OSM   H15G12587   5.741   4.553   7.431
  119OSM   C16F12588   5.651   4.444   7.594
  119OSM   H16F12589   5.714   4.353   7.583
  119OSM   H16G12590   5.550   4.413   7.627
  119OSM   C17F12591   5.714   4.534   7.700
  119OSM   H17F12592   5.653   4.626   7.711
  119OSM   H17G12593   5.815   4.566   7.666
  119OSM   C18F12594   5.725   4.463   7.835
  119OSM   H18F12595   5.793   4.376   7.828
  119OSM   H18G12596   5.625   4.427   7.866
  119OSM   H18H12597   5.763   4.532   7.913
  120OSM      N12598   4.180   2.020   5.771
  120OSM    C1512599   4.169   2.155   5.835
  120OSM   H15A12600   4.156   2.145   5.942
  120OSM   H15B12601   4.087   2.212   5.794
  120OSM   H15C12602   4.260   2.211   5.818
  120OSM    C1412603   4.049   1.947   5.785
  120OSM   H14A12604   4.024   1.935   5.890
  120OSM   H14B12605   4.062   1.847   5.748
  120OSM   H14C12606   3.968   1.995   5.732
  120OSM    C1312607   4.217   2.031   5.627
  120OSM   H13A12608   4.136   2.070   5.567
  120OSM   H13B12609   4.242   1.934   5.588
  120OSM   H13C12610   4.303   2.095   5.615
  120OSM    C1212611   4.289   1.939   5.841
  120OSM   H12A12612   4.261   1.928   5.945
  120OSM   H12B12613   4.381   1.995   5.841
  120OSM    C1112614   4.317   1.796   5.789
  120OSM   H11A12615   4.402   1.752   5.845
  120OSM   H11B12616   4.351   1.800   5.683
  120OSM      P12617   4.162   1.650   5.937
  120OSM    O1312618   4.021   1.605   5.927
  120OSM    O1412619   4.267   1.554   5.974
  120OSM    O1112620   4.169   1.775   6.034
  120OSM    O1212621   4.201   1.713   5.797
  120OSM    C1S12622   4.111   1.768   6.165
  120OSM    H1S12623   4.075   1.666   6.192
  120OSM    H1T12624   4.023   1.835   6.170
  120OSM     NF12625   4.144   1.810   6.406
  120OSM    HNF12626   4.115   1.899   6.442
  120OSM    C2S12627   4.210   1.813   6.278
  120OSM    H2S12628   4.295   1.741   6.281
  120OSM    C3S12629   4.267   1.955   6.246
  120OSM    H3S12630   4.183   2.026   6.226
  120OSM     O312631   4.350   1.956   6.131
  120OSM    HO312632   4.342   1.866   6.098
  120OSM    C4S12633   4.349   2.006   6.362
  120OSM    H4S12634   4.455   1.979   6.358
  120OSM    C5S12635   4.303   2.081   6.465
  120OSM    H5S12636   4.197   2.109   6.470
  120OSM    C6S12637   4.389   2.130   6.577
  120OSM    H6S12638   4.358   2.234   6.602
  120OSM    H6T12639   4.495   2.137   6.544
  120OSM    C7S12640   4.387   2.049   6.708
  120OSM    H7S12641   4.477   2.078   6.766
  120OSM    H7T12642   4.397   1.940   6.686
  120OSM    C8S12643   4.265   2.076   6.798
  120OSM    H8S12644   4.175   2.027   6.754
  120OSM    H8T12645   4.247   2.185   6.800
  120OSM    C9S12646   4.286   2.029   6.944
  120OSM    H9S12647   4.201   2.064   7.006
  120OSM    H9T12648   4.378   2.078   6.983
  120OSM   C10S12649   4.301   1.877   6.958
  120OSM   H10S12650   4.369   1.839   6.879
  120OSM   H10T12651   4.202   1.828   6.944
  120OSM   C11S12652   4.362   1.834   7.093
  120OSM   H11S12653   4.460   1.883   7.107
  120OSM   H11T12654   4.380   1.725   7.086
  120OSM   C12S12655   4.272   1.861   7.214
  120OSM   H12S12656   4.167   1.840   7.187
  120OSM   H12T12657   4.278   1.968   7.243
  120OSM   C13S12658   4.311   1.771   7.333
  120OSM   H13S12659   4.414   1.796   7.366
  120OSM   H13T12660   4.313   1.665   7.297
  120OSM   C14S12661   4.216   1.777   7.452
  120OSM   H14S12662   4.111   1.769   7.417
  120OSM   H14T12663   4.227   1.875   7.503
  120OSM   C15S12664   4.243   1.662   7.551
  120OSM   H15S12665   4.351   1.663   7.579
  120OSM   H15T12666   4.223   1.566   7.498
  120OSM   C16S12667   4.158   1.666   7.679
  120OSM   H16S12668   4.173   1.570   7.732
  120OSM   H16T12669   4.051   1.672   7.651
  120OSM   C17S12670   4.194   1.782   7.773
  120OSM   H17S12671   4.188   1.877   7.717
  120OSM   H17T12672   4.300   1.770   7.805
  120OSM   C18S12673   4.105   1.792   7.897
  120OSM   H18S12674   3.998   1.796   7.868
  120OSM   H18T12675   4.128   1.884   7.955
  120OSM   H18U12676   4.119   1.704   7.963
  120OSM    C1F12677   4.101   1.703   6.470
  120OSM     OF12678   4.105   1.591   6.421
  120OSM    C2F12679   4.045   1.731   6.605
  120OSM    H2F12680   4.106   1.810   6.653
  120OSM    H2G12681   4.054   1.639   6.668
  120OSM    C3F12682   3.899   1.776   6.591
  120OSM    H3F12683   3.841   1.701   6.532
  120OSM    H3G12684   3.896   1.872   6.535
  120OSM    C4F12685   3.826   1.800   6.723
  120OSM    H4F12686   3.798   1.702   6.767
  120OSM    H4G12687   3.731   1.853   6.699
  120OSM    C5F12688   3.906   1.884   6.824
  120OSM    H5F12689   3.970   1.958   6.771
  120OSM    H5G12690   3.974   1.817   6.881
  120OSM    C6F12691   3.813   1.962   6.918
  120OSM    H6F12692   3.723   1.902   6.941
  120OSM    H6G12693   3.777   2.050   6.860
  120OSM    C7F12694   3.877   2.008   7.050
  120OSM    H7F12695   3.980   2.043   7.032
  120OSM    H7G12696   3.882   1.920   7.118
  120OSM    C8F12697   3.795   2.122   7.114
  120OSM    H8F12698   3.695   2.117   7.066
  120OSM    H8G12699   3.840   2.219   7.082
  120OSM    C9F12700   3.772   2.117   7.262
  120OSM    H9F12701   3.695   2.046   7.293
  120OSM   C10F12702   3.823   2.199   7.356
  120OSM   H10F12703   3.796   2.182   7.461
  120OSM   C11F12704   3.916   2.314   7.331
  120OSM   H11F12705   3.925   2.375   7.424
  120OSM   H11G12706   3.873   2.380   7.253
  120OSM   C12F12707   4.058   2.275   7.287
  120OSM   H12F12708   4.114   2.369   7.270
  120OSM   H12G12709   4.056   2.220   7.190
  120OSM   C13F12710   4.135   2.192   7.391
  120OSM   H13F12711   4.117   2.084   7.373
  120OSM   H13G12712   4.097   2.217   7.492
  120OSM   C14F12713   4.285   2.224   7.386
  120OSM   H14F12714   4.295   2.329   7.418
  120OSM   H14G12715   4.319   2.217   7.281
  120OSM   C15F12716   4.376   2.136   7.473
  120OSM   H15F12717   4.480   2.172   7.461
  120OSM   H15G12718   4.373   2.031   7.436
  120OSM   C16F12719   4.341   2.137   7.623
  120OSM   H16F12720   4.239   2.094   7.638
  120OSM   H16G12721   4.340   2.242   7.660
  120OSM   C17F12722   4.441   2.055   7.705
  120OSM   H17F12723   4.543   2.093   7.686
  120OSM   H17G12724   4.438   1.949   7.670
  120OSM   C18F12725   4.414   2.059   7.856
  120OSM   H18F12726   4.418   2.164   7.893
  120OSM   H18G12727   4.490   1.999   7.911
  120OSM   H18H12728   4.314   2.018   7.879
  121OSM      N12729   5.807   3.844   5.763
  121OSM    C1512730   5.745   3.760   5.655
  121OSM   H15A12731   5.689   3.678   5.699
  121OSM   H15B12732   5.821   3.716   5.592
  121OSM   H15C12733   5.677   3.818   5.595
  121OSM    C1412734   5.699   3.900   5.851
  121OSM   H14A12735   5.629   3.959   5.793
  121OSM   H14B12736   5.743   3.965   5.924
  121OSM   H14C12737   5.645   3.821   5.902
  121OSM    C1312738   5.899   3.758   5.844
  121OSM   H13A12739   5.846   3.684   5.901
  121OSM   H13B12740   5.955   3.822   5.911
  121OSM   H13C12741   5.972   3.709   5.782
  121OSM    C1212742   5.887   3.960   5.705
  121OSM   H12A12743   5.830   4.011   5.629
  121OSM   H12B12744   5.976   3.920   5.657
  121OSM    C1112745   5.936   4.068   5.805
  121OSM   H11A12746   5.851   4.118   5.855
  121OSM   H11B12747   5.989   4.147   5.747
  121OSM      P12748   6.109   4.099   5.997
  121OSM    O1312749   6.250   4.099   5.950
  121OSM    O1412750   6.050   4.233   6.010
  121OSM    O1112751   6.091   4.022   6.135
  121OSM    O1212752   6.023   4.009   5.901
  121OSM    C1S12753   5.954   4.006   6.176
  121OSM    H1S12754   5.903   3.933   6.110
  121OSM    H1T12755   5.897   4.102   6.171
  121OSM     NF12756   5.958   4.059   6.417
  121OSM    HNF12757   6.050   4.076   6.452
  121OSM    C2S12758   5.940   3.952   6.321
  121OSM    H2S12759   5.837   3.913   6.333
  121OSM    C3S12760   6.037   3.832   6.340
  121OSM    H3S12761   6.142   3.862   6.320
  121OSM     O312762   6.006   3.723   6.253
  121OSM    HO312763   6.063   3.740   6.178
  121OSM    C4S12764   6.024   3.783   6.481
  121OSM    H4S12765   5.920   3.773   6.515
  121OSM    C5S12766   6.123   3.753   6.566
  121OSM    H5S12767   6.228   3.758   6.533
  121OSM    C6S12768   6.100   3.705   6.706
  121OSM    H6S12769   6.198   3.695   6.759
  121OSM    H6T12770   6.055   3.603   6.705
  121OSM    C7S12771   6.011   3.800   6.788
  121OSM    H7S12772   5.914   3.817   6.736
  121OSM    H7T12773   6.062   3.899   6.798
  121OSM    C8S12774   5.981   3.744   6.927
  121OSM    H8S12775   6.076   3.724   6.981
  121OSM    H8T12776   5.929   3.647   6.913
  121OSM    C9S12777   5.890   3.834   7.012
  121OSM    H9S12778   5.858   3.774   7.099
  121OSM    H9T12779   5.800   3.862   6.955
  121OSM   C10S12780   5.963   3.959   7.061
  121OSM   H10S12781   5.993   4.022   6.974
  121OSM   H10T12782   6.056   3.928   7.114
  121OSM   C11S12783   5.880   4.045   7.157
  121OSM   H11S12784   5.794   4.089   7.103
  121OSM   H11T12785   5.943   4.129   7.194
  121OSM   C12S12786   5.829   3.967   7.279
  121OSM   H12S12787   5.912   3.907   7.322
  121OSM   H12T12788   5.749   3.896   7.248
  121OSM   C13S12789   5.773   4.061   7.385
  121OSM   H13S12790   5.696   4.126   7.341
  121OSM   H13T12791   5.856   4.126   7.422
  121OSM   C14S12792   5.711   3.987   7.503
  121OSM   H14S12793   5.787   3.918   7.547
  121OSM   H14T12794   5.626   3.925   7.469
  121OSM   C15S12795   5.665   4.085   7.611
  121OSM   H15S12796   5.588   4.154   7.570
  121OSM   H15T12797   5.752   4.145   7.644
  121OSM   C16S12798   5.608   4.011   7.732
  121OSM   H16S12799   5.681   3.934   7.761
  121OSM   H16T12800   5.514   3.959   7.703
  121OSM   C17S12801   5.582   4.103   7.851
  121OSM   H17S12802   5.671   4.167   7.869
  121OSM   H17T12803   5.572   4.037   7.940
  121OSM   C18S12804   5.456   4.190   7.840
  121OSM   H18S12805   5.367   4.127   7.818
  121OSM   H18T12806   5.467   4.264   7.758
  121OSM   H18U12807   5.438   4.244   7.935
  121OSM    C1F12808   5.856   4.143   6.438
  121OSM     OF12809   5.752   4.131   6.375
  121OSM    C2F12810   5.871   4.250   6.541
  121OSM    H2F12811   5.883   4.348   6.491
  121OSM    H2G12812   5.963   4.229   6.600
  121OSM    C3F12813   5.745   4.251   6.632
  121OSM    H3F12814   5.727   4.149   6.670
  121OSM    H3G12815   5.657   4.280   6.570
  121OSM    C4F12816   5.755   4.346   6.752
  121OSM    H4F12817   5.659   4.343   6.808
  121OSM    H4G12818   5.771   4.450   6.717
  121OSM    C5F12819   5.869   4.305   6.847
  121OSM    H5F12820   5.965   4.311   6.792
  121OSM    H5G12821   5.855   4.200   6.879
  121OSM    C6F12822   5.882   4.395   6.971
  121OSM    H6F12823   5.803   4.369   7.044
  121OSM    H6G12824   5.869   4.501   6.941
  121OSM    C7F12825   6.022   4.378   7.033
  121OSM    H7F12826   6.097   4.404   6.955
  121OSM    H7G12827   6.039   4.272   7.060
  121OSM    C8F12828   6.048   4.468   7.154
  121OSM    H8F12829   6.027   4.573   7.125
  121OSM    H8G12830   6.157   4.464   7.176
  121OSM    C9F12831   5.966   4.432   7.275
  121OSM    H9F12832   5.858   4.449   7.263
  121OSM   C10F12833   6.009   4.379   7.391
  121OSM   H10F12834   5.935   4.359   7.469
  121OSM   C11F12835   6.151   4.344   7.427
  121OSM   H11F12836   6.182   4.397   7.519
  121OSM   H11G12837   6.223   4.372   7.347
  121OSM   C12F12838   6.165   4.192   7.450
  121OSM   H12F12839   6.272   4.165   7.454
  121OSM   H12G12840   6.120   4.136   7.366
  121OSM   C13F12841   6.100   4.147   7.582
  121OSM   H13F12842   5.998   4.189   7.591
  121OSM   H13G12843   6.160   4.187   7.667
  121OSM   C14F12844   6.089   3.995   7.595
  121OSM   H14F12845   6.189   3.948   7.586
  121OSM   H14G12846   6.025   3.956   7.513
  121OSM   C15F12847   6.027   3.958   7.730
  121OSM   H15F12848   5.933   4.016   7.743
  121OSM   H15G12849   6.097   3.987   7.810
  121OSM   C16F12850   5.994   3.809   7.743
  121OSM   H16F12851   6.079   3.749   7.705
  121OSM   H16G12852   5.905   3.784   7.682
  121OSM   C17F12853   5.968   3.769   7.889
  121OSM   H17F12854   6.064   3.778   7.945
  121OSM   H17G12855   5.940   3.661   7.890
  121OSM   C18F12856   5.861   3.851   7.962
  121OSM   H18F12857   5.859   3.826   8.070
  121OSM   H18G12858   5.761   3.828   7.921
  121OSM   H18H12859   5.881   3.960   7.953
  122OSM      N12860   2.645   5.670   5.770
  122OSM    C1512861   2.530   5.607   5.697
  122OSM   H15A12862   2.440   5.665   5.711
  122OSM   H15B12863   2.511   5.507   5.732
  122OSM   H15C12864   2.551   5.603   5.591
  122OSM    C1412865   2.611   5.689   5.914
  122OSM   H14A12866   2.580   5.599   5.965
  122OSM   H14B12867   2.533   5.762   5.926
  122OSM   H14C12868   2.697   5.731   5.964
  122OSM    C1312869   2.769   5.586   5.754
  122OSM   H13A12870   2.805   5.592   5.653
  122OSM   H13B12871   2.754   5.481   5.775
  122OSM   H13C12872   2.848   5.624   5.817
  122OSM    C1212873   2.675   5.807   5.709
  122OSM   H12A12874   2.598   5.875   5.741
  122OSM   H12B12875   2.670   5.798   5.602
  122OSM    C1112876   2.812   5.873   5.744
  122OSM   H11A12877   2.815   5.975   5.700
  122OSM   H11B12878   2.892   5.815   5.694
  122OSM      P12879   2.970   5.847   5.951
  122OSM    O1312880   2.988   5.701   5.932
  122OSM    O1412881   3.071   5.937   5.892
  122OSM    O1112882   2.944   5.880   6.105
  122OSM    O1212883   2.830   5.884   5.885
  122OSM    C1S12884   2.808   5.904   6.144
  122OSM    H1S12885   2.741   5.827   6.099
  122OSM    H1T12886   2.774   6.005   6.111
  122OSM     NF12887   2.642   5.937   6.321
  122OSM    HNF12888   2.630   5.984   6.409
  122OSM    C2S12889   2.778   5.891   6.296
  122OSM    H2S12890   2.783   5.783   6.323
  122OSM    C3S12891   2.882   5.966   6.383
  122OSM    H3S12892   2.888   6.071   6.349
  122OSM     O312893   3.012   5.907   6.373
  122OSM    HO312894   3.021   5.883   6.280
  122OSM    C4S12895   2.847   5.962   6.530
  122OSM    H4S12896   2.867   5.864   6.577
  122OSM    C5S12897   2.801   6.064   6.605
  122OSM    H5S12898   2.790   6.163   6.558
  122OSM    C6S12899   2.771   6.060   6.753
  122OSM    H6S12900   2.661   6.060   6.772
  122OSM    H6T12901   2.807   6.155   6.799
  122OSM    C7S12902   2.841   5.943   6.827
  122OSM    H7S12903   2.943   5.931   6.784
  122OSM    H7T12904   2.789   5.847   6.806
  122OSM    C8S12905   2.863   5.959   6.978
  122OSM    H8S12906   2.768   5.950   7.035
  122OSM    H8T12907   2.903   6.059   7.005
  122OSM    C9S12908   2.961   5.851   7.026
  122OSM    H9S12909   3.065   5.880   6.999
  122OSM    H9T12910   2.935   5.759   6.969
  122OSM   C10S12911   2.952   5.811   7.173
  122OSM   H10S12912   3.022   5.726   7.189
  122OSM   H10T12913   2.849   5.775   7.196
  122OSM   C11S12914   2.992   5.920   7.271
  122OSM   H11S12915   2.917   6.002   7.264
  122OSM   H11T12916   3.091   5.960   7.244
  122OSM   C12S12917   2.996   5.861   7.412
  122OSM   H12S12918   3.065   5.774   7.414
  122OSM   H12T12919   2.895   5.825   7.440
  122OSM   C13S12920   3.044   5.963   7.516
  122OSM   H13S12921   3.151   5.987   7.498
  122OSM   H13T12922   3.036   5.915   7.616
  122OSM   C14S12923   2.962   6.092   7.512
  122OSM   H14S12924   2.854   6.068   7.523
  122OSM   H14T12925   2.975   6.142   7.414
  122OSM   C15S12926   3.007   6.191   7.620
  122OSM   H15S12927   2.943   6.282   7.615
  122OSM   H15T12928   3.111   6.221   7.595
  122OSM   C16S12929   3.006   6.136   7.763
  122OSM   H16S12930   3.040   6.217   7.832
  122OSM   H16T12931   3.081   6.055   7.773
  122OSM   C17S12932   2.870   6.086   7.810
  122OSM   H17S12933   2.881   5.983   7.852
  122OSM   H17T12934   2.799   6.078   7.725
  122OSM   C18S12935   2.810   6.178   7.916
  122OSM   H18S12936   2.707   6.147   7.941
  122OSM   H18T12937   2.808   6.281   7.875
  122OSM   H18U12938   2.872   6.179   8.008
  122OSM    C1F12939   2.533   5.888   6.260
  122OSM     OF12940   2.520   5.880   6.139
  122OSM    C2F12941   2.426   5.842   6.351
  122OSM    H2F12942   2.340   5.804   6.292
  122OSM    H2G12943   2.390   5.931   6.408
  122OSM    C3F12944   2.480   5.732   6.444
  122OSM    H3F12945   2.583   5.751   6.481
  122OSM    H3G12946   2.482   5.636   6.388
  122OSM    C4F12947   2.394   5.716   6.569
  122OSM    H4F12948   2.421   5.623   6.623
  122OSM    H4G12949   2.288   5.707   6.535
  122OSM    C5F12950   2.403   5.834   6.664
  122OSM    H5F12951   2.312   5.831   6.728
  122OSM    H5G12952   2.403   5.931   6.610
  122OSM    C6F12953   2.525   5.830   6.756
  122OSM    H6F12954   2.522   5.925   6.814
  122OSM    H6G12955   2.618   5.826   6.695
  122OSM    C7F12956   2.516   5.714   6.854
  122OSM    H7F12957   2.540   5.618   6.803
  122OSM    H7G12958   2.409   5.715   6.883
  122OSM    C8F12959   2.597   5.725   6.983
  122OSM    H8F12960   2.705   5.735   6.961
  122OSM    H8G12961   2.588   5.629   7.038
  122OSM    C9F12962   2.547   5.841   7.066
  122OSM    H9F12963   2.570   5.941   7.027
  122OSM   C10F12964   2.470   5.832   7.175
  122OSM   H10F12965   2.443   5.925   7.228
  122OSM   C11F12966   2.420   5.704   7.235
  122OSM   H11F12967   2.422   5.622   7.161
  122OSM   H11G12968   2.314   5.717   7.266
  122OSM   C12F12969   2.503   5.656   7.353
  122OSM   H12F12970   2.611   5.652   7.326
  122OSM   H12G12971   2.470   5.552   7.377
  122OSM   C13F12972   2.482   5.745   7.475
  122OSM   H13F12973   2.376   5.738   7.505
  122OSM   H13G12974   2.506   5.850   7.446
  122OSM   C14F12975   2.573   5.712   7.592
  122OSM   H14F12976   2.554   5.781   7.677
  122OSM   H14G12977   2.677   5.730   7.557
  122OSM   C15F12978   2.556   5.568   7.639
  122OSM   H15F12979   2.567   5.498   7.554
  122OSM   H15G12980   2.455   5.554   7.681
  122OSM   C16F12981   2.662   5.530   7.741
  122OSM   H16F12982   2.644   5.423   7.764
  122OSM   H16G12983   2.647   5.589   7.834
  122OSM   C17F12984   2.806   5.550   7.691
  122OSM   H17F12985   2.805   5.558   7.580
  122OSM   H17G12986   2.866   5.459   7.713
  122OSM   C18F12987   2.875   5.672   7.752
  122OSM   H18F12988   2.973   5.690   7.703
  122OSM   H18G12989   2.891   5.656   7.861
  122OSM   H18H12990   2.813   5.763   7.738
  123OSM      N12991   2.351   1.798   5.798
  123OSM    C1512992   2.496   1.826   5.817
  123OSM   H15A12993   2.558   1.746   5.779
  123OSM   H15B12994   2.520   1.839   5.921
  123OSM   H15C12995   2.526   1.916   5.766
  123OSM    C1412996   2.327   1.780   5.652
  123OSM   H14A12997   2.376   1.692   5.614
  123OSM   H14B12998   2.366   1.864   5.596
  123OSM   H14C12999   2.221   1.772   5.633
  123OSM    C1313000   2.319   1.671   5.871
  123OSM   H13A13001   2.370   1.586   5.828
  123OSM   H13B13002   2.213   1.653   5.870
  123OSM   H13C13003   2.348   1.680   5.975
  123OSM    C1213004   2.269   1.912   5.856
  123OSM   H12A13005   2.326   2.004   5.849
  123OSM   H12B13006   2.256   1.896   5.962
  123OSM    C1113007   2.129   1.939   5.796
  123OSM   H11A13008   2.144   1.995   5.701
  123OSM   H11B13009   2.072   2.008   5.863
  123OSM      P13010   1.968   1.746   5.876
  123OSM    O1313011   1.847   1.827   5.892
  123OSM    O1413012   1.952   1.607   5.827
  123OSM    O1113013   2.058   1.745   6.008
  123OSM    O1213014   2.057   1.820   5.768
  123OSM    C1S13015   2.033   1.840   6.113
  123OSM    H1S13016   1.926   1.837   6.143
  123OSM    H1T13017   2.051   1.944   6.078
  123OSM     NF13018   2.256   1.851   6.241
  123OSM    HNF13019   2.320   1.784   6.277
  123OSM    C2S13020   2.114   1.814   6.246
  123OSM    H2S13021   2.067   1.879   6.323
  123OSM    C3S13022   2.101   1.665   6.293
  123OSM    H3S13023   2.176   1.605   6.238
  123OSM     O313024   1.975   1.605   6.263
  123OSM    HO313025   1.937   1.659   6.194
  123OSM    C4S13026   2.128   1.654   6.442
  123OSM    H4S13027   2.070   1.723   6.505
  123OSM    C5S13028   2.211   1.565   6.501
  123OSM    H5S13029   2.263   1.493   6.436
  123OSM    C6S13030   2.242   1.547   6.649
  123OSM    H6S13031   2.353   1.538   6.658
  123OSM    H6T13032   2.202   1.449   6.683
  123OSM    C7S13033   2.203   1.653   6.755
  123OSM    H7S13034   2.174   1.749   6.707
  123OSM    H7T13035   2.295   1.674   6.815
  123OSM    C8S13036   2.095   1.608   6.856
  123OSM    H8S13037   2.111   1.501   6.880
  123OSM    H8T13038   1.995   1.619   6.809
  123OSM    C9S13039   2.097   1.686   6.989
  123OSM    H9S13040   2.070   1.792   6.968
  123OSM    H9T13041   2.200   1.684   7.031
  123OSM   C10S13042   2.000   1.632   7.098
  123OSM   H10S13043   2.023   1.525   7.118
  123OSM   H10T13044   1.897   1.638   7.058
  123OSM   C11S13045   2.007   1.707   7.232
  123OSM   H11S13046   2.033   1.812   7.207
  123OSM   H11T13047   2.089   1.664   7.294
  123OSM   C12S13048   1.878   1.712   7.315
  123OSM   H12S13049   1.854   1.616   7.365
  123OSM   H12T13050   1.792   1.727   7.246
  123OSM   C13S13051   1.879   1.825   7.419
  123OSM   H13S13052   1.774   1.854   7.440
  123OSM   H13T13053   1.930   1.914   7.378
  123OSM   C14S13054   1.947   1.792   7.551
  123OSM   H14S13055   2.057   1.786   7.533
  123OSM   H14T13056   1.913   1.694   7.590
  123OSM   C15S13057   1.917   1.901   7.655
  123OSM   H15S13058   1.811   1.891   7.688
  123OSM   H15T13059   1.927   2.002   7.608
  123OSM   C16S13060   2.010   1.895   7.775
  123OSM   H16S13061   2.018   1.789   7.808
  123OSM   H16T13062   1.966   1.953   7.859
  123OSM   C17S13063   2.148   1.951   7.744
  123OSM   H17S13064   2.141   2.062   7.736
  123OSM   H17T13065   2.185   1.913   7.646
  123OSM   C18S13066   2.249   1.913   7.851
  123OSM   H18S13067   2.210   1.945   7.950
  123OSM   H18T13068   2.347   1.962   7.833
  123OSM   H18U13069   2.264   1.803   7.853
  123OSM    C1F13070   2.305   1.971   6.210
  123OSM     OF13071   2.252   2.045   6.128
  123OSM    C2F13072   2.435   2.008   6.275
  123OSM    H2F13073   2.513   2.009   6.197
  123OSM    H2G13074   2.460   1.929   6.349
  123OSM    C3F13075   2.431   2.146   6.346
  123OSM    H3F13076   2.338   2.201   6.323
  123OSM    H3G13077   2.514   2.208   6.306
  123OSM    C4F13078   2.447   2.140   6.499
  123OSM    H4F13079   2.432   2.244   6.537
  123OSM    H4G13080   2.551   2.112   6.527
  123OSM    C5F13081   2.349   2.047   6.572
  123OSM    H5F13082   2.381   1.941   6.564
  123OSM    H5G13083   2.249   2.055   6.523
  123OSM    C6F13084   2.333   2.085   6.720
  123OSM    H6F13085   2.305   2.192   6.725
  123OSM    H6G13086   2.430   2.074   6.773
  123OSM    C7F13087   2.226   2.002   6.792
  123OSM    H7F13088   2.273   1.916   6.843
  123OSM    H7G13089   2.156   1.963   6.716
  123OSM    C8F13090   2.141   2.083   6.892
  123OSM    H8F13091   2.068   2.014   6.940
  123OSM    H8G13092   2.080   2.154   6.832
  123OSM    C9F13093   2.218   2.159   6.996
  123OSM    H9F13094   2.243   2.262   6.968
  123OSM   C10F13095   2.260   2.112   7.114
  123OSM   H10F13096   2.310   2.181   7.184
  123OSM   C11F13097   2.239   1.974   7.170
  123OSM   H11F13098   2.212   1.902   7.089
  123OSM   H11G13099   2.155   1.977   7.242
  123OSM   C12F13100   2.359   1.918   7.248
  123OSM   H12F13101   2.391   1.992   7.324
  123OSM   H12G13102   2.444   1.897   7.180
  123OSM   C13F13103   2.317   1.792   7.324
  123OSM   H13F13104   2.304   1.707   7.253
  123OSM   H13G13105   2.219   1.813   7.371
  123OSM   C14F13106   2.411   1.752   7.438
  123OSM   H14F13107   2.430   1.842   7.500
  123OSM   H14G13108   2.508   1.717   7.398
  123OSM   C15F13109   2.346   1.645   7.527
  123OSM   H15F13110   2.338   1.549   7.472
  123OSM   H15G13111   2.243   1.678   7.553
  123OSM   C16F13112   2.423   1.626   7.659
  123OSM   H16F13113   2.359   1.571   7.731
  123OSM   H16G13114   2.443   1.726   7.702
  123OSM   C17F13115   2.554   1.550   7.640
  123OSM   H17F13116   2.614   1.599   7.560
  123OSM   H17G13117   2.531   1.448   7.605
  123OSM   C18F13118   2.638   1.542   7.768
  123OSM   H18F13119   2.581   1.492   7.849
  123OSM   H18G13120   2.664   1.645   7.802
  123OSM   H18H13121   2.732   1.486   7.749
  124OSM      N13122   0.748   3.817   5.813
  124OSM    C1513123   0.634   3.722   5.826
  124OSM   H15A13124   0.574   3.724   5.736
  124OSM   H15B13125   0.570   3.748   5.909
  124OSM   H15C13126   0.669   3.621   5.839
  124OSM    C1413127   0.828   3.778   5.692
  124OSM   H14A13128   0.911   3.845   5.679
  124OSM   H14B13129   0.768   3.776   5.603
  124OSM   H14C13130   0.871   3.681   5.708
  124OSM    C1313131   0.693   3.954   5.790
  124OSM   H13A13132   0.630   3.987   5.872
  124OSM   H13B13133   0.629   3.954   5.703
  124OSM   H13C13134   0.771   4.027   5.774
  124OSM    C1213135   0.838   3.812   5.935
  124OSM   H12A13136   0.779   3.832   6.023
  124OSM   H12B13137   0.911   3.891   5.926
  124OSM    C1113138   0.918   3.681   5.956
  124OSM   H11A13139   0.851   3.593   5.943
  124OSM   H11B13140   0.956   3.676   6.060
  124OSM      P13141   1.143   3.776   5.854
  124OSM    O1313142   1.256   3.716   5.779
  124OSM    O1413143   1.086   3.902   5.800
  124OSM    O1113144   1.182   3.804   6.003
  124OSM    O1213145   1.027   3.670   5.864
  124OSM    C1S13146   1.232   3.707   6.093
  124OSM    H1S13147   1.340   3.689   6.075
  124OSM    H1T13148   1.181   3.608   6.084
  124OSM     NF13149   1.078   3.728   6.280
  124OSM    HNF13150   1.009   3.730   6.208
  124OSM    C2S13151   1.213   3.759   6.238
  124OSM    H2S13152   1.284   3.703   6.303
  124OSM    C3S13153   1.245   3.912   6.246
  124OSM    H3S13154   1.174   3.968   6.182
  124OSM     O313155   1.375   3.945   6.196
  124OSM    HO313156   1.403   3.865   6.151
  124OSM    C4S13157   1.223   3.959   6.388
  124OSM    H4S13158   1.146   4.038   6.396
  124OSM    C5S13159   1.281   3.915   6.501
  124OSM    H5S13160   1.355   3.833   6.497
  124OSM    C6S13161   1.245   3.965   6.637
  124OSM    H6S13162   1.146   4.015   6.635
  124OSM    H6T13163   1.318   4.041   6.671
  124OSM    C7S13164   1.232   3.854   6.746
  124OSM    H7S13165   1.310   3.776   6.731
  124OSM    H7T13166   1.134   3.803   6.738
  124OSM    C8S13167   1.251   3.918   6.883
  124OSM    H8S13168   1.186   4.008   6.892
  124OSM    H8T13169   1.356   3.954   6.880
  124OSM    C9S13170   1.235   3.835   7.012
  124OSM    H9S13171   1.128   3.833   7.042
  124OSM    H9T13172   1.288   3.889   7.093
  124OSM   C10S13173   1.283   3.689   7.012
  124OSM   H10S13174   1.378   3.678   6.956
  124OSM   H10T13175   1.208   3.626   6.959
  124OSM   C11S13176   1.304   3.637   7.155
  124OSM   H11S13177   1.387   3.693   7.204
  124OSM   H11T13178   1.336   3.531   7.150
  124OSM   C12S13179   1.178   3.645   7.243
  124OSM   H12S13180   1.092   3.614   7.181
  124OSM   H12T13181   1.160   3.750   7.276
  124OSM   C13S13182   1.184   3.551   7.365
  124OSM   H13S13183   1.229   3.454   7.333
  124OSM   H13T13184   1.080   3.529   7.397
  124OSM   C14S13185   1.259   3.605   7.487
  124OSM   H14S13186   1.362   3.637   7.460
  124OSM   H14T13187   1.268   3.521   7.560
  124OSM   C15S13188   1.184   3.720   7.558
  124OSM   H15S13189   1.075   3.712   7.537
  124OSM   H15T13190   1.219   3.817   7.517
  124OSM   C16S13191   1.203   3.717   7.710
  124OSM   H16S13192   1.312   3.719   7.732
  124OSM   H16T13193   1.163   3.621   7.750
  124OSM   C17S13194   1.134   3.834   7.781
  124OSM   H17S13195   1.025   3.830   7.758
  124OSM   H17T13196   1.173   3.928   7.739
  124OSM   C18S13197   1.152   3.834   7.934
  124OSM   H18S13198   1.120   3.737   7.977
  124OSM   H18T13199   1.092   3.915   7.980
  124OSM   H18U13200   1.259   3.851   7.960
  124OSM    C1F13201   1.046   3.711   6.408
  124OSM     OF13202   1.126   3.664   6.487
  124OSM    C2F13203   0.908   3.750   6.448
  124OSM    H2F13204   0.870   3.667   6.512
  124OSM    H2G13205   0.845   3.764   6.358
  124OSM    C3F13206   0.895   3.877   6.533
  124OSM    H3F13207   0.932   3.967   6.479
  124OSM    H3G13208   0.957   3.864   6.625
  124OSM    C4F13209   0.747   3.893   6.569
  124OSM    H4F13210   0.708   3.792   6.593
  124OSM    H4G13211   0.690   3.929   6.480
  124OSM    C5F13212   0.715   3.982   6.689
  124OSM    H5F13213   0.607   3.970   6.712
  124OSM    H5G13214   0.732   4.088   6.663
  124OSM    C6F13215   0.793   3.948   6.816
  124OSM    H6F13216   0.762   4.020   6.895
  124OSM    H6G13217   0.902   3.963   6.799
  124OSM    C7F13218   0.770   3.806   6.871
  124OSM    H7F13219   0.783   3.731   6.789
  124OSM    H7G13220   0.666   3.799   6.907
  124OSM    C8F13221   0.868   3.769   6.984
  124OSM    H8F13222   0.966   3.747   6.938
  124OSM    H8G13223   0.834   3.674   7.031
  124OSM    C9F13224   0.879   3.880   7.085
  124OSM    H9F13225   0.964   3.949   7.069
  124OSM   C10F13226   0.796   3.904   7.187
  124OSM   H10F13227   0.816   3.989   7.254
  124OSM   C11F13228   0.675   3.822   7.220
  124OSM   H11F13229   0.655   3.744   7.144
  124OSM   H11G13230   0.585   3.888   7.223
  124OSM   C12F13231   0.693   3.755   7.356
  124OSM   H12F13232   0.796   3.714   7.363
  124OSM   H12G13233   0.622   3.670   7.365
  124OSM   C13F13234   0.669   3.852   7.472
  124OSM   H13F13235   0.565   3.891   7.466
  124OSM   H13G13236   0.738   3.938   7.464
  124OSM   C14F13237   0.690   3.785   7.608
  124OSM   H14F13238   0.795   3.749   7.616
  124OSM   H14G13239   0.623   3.697   7.617
  124OSM   C15F13240   0.662   3.885   7.720
  124OSM   H15F13241   0.556   3.918   7.713
  124OSM   H15G13242   0.726   3.974   7.704
  124OSM   C16F13243   0.688   3.827   7.859
  124OSM   H16F13244   0.795   3.800   7.868
  124OSM   H16G13245   0.629   3.733   7.871
  124OSM   C17F13246   0.651   3.925   7.970
  124OSM   H17F13247   0.670   3.873   8.066
  124OSM   H17G13248   0.542   3.946   7.965
  124OSM   C18F13249   0.728   4.057   7.968
  124OSM   H18F13250   0.704   4.116   7.877
  124OSM   H18G13251   0.837   4.037   7.969
  124OSM   H18H13252   0.702   4.118   8.057
  125OSM      N13253   5.866   1.587   5.921
  125OSM    C1513254   5.787   1.667   5.821
  125OSM   H15A13255   5.850   1.740   5.770
  125OSM   H15B13256   5.706   1.720   5.869
  125OSM   H15C13257   5.744   1.601   5.748
  125OSM    C1413258   5.986   1.530   5.853
  125OSM   H14A13259   5.956   1.463   5.775
  125OSM   H14B13260   6.050   1.477   5.923
  125OSM   H14C13261   6.047   1.608   5.808
  125OSM    C1313262   5.908   1.679   6.032
  125OSM   H13A13263   5.820   1.719   6.081
  125OSM   H13B13264   5.965   1.762   5.993
  125OSM   H13C13265   5.969   1.627   6.104
  125OSM    C1213266   5.779   1.475   5.977
  125OSM   H12A13267   5.689   1.520   6.016
  125OSM   H12B13268   5.830   1.430   6.060
  125OSM    C1113269   5.733   1.363   5.880
  125OSM   H11A13270   5.679   1.285   5.939
  125OSM   H11B13271   5.822   1.312   5.837
  125OSM      P13272   5.497   1.431   5.789
  125OSM    O1313273   5.447   1.501   5.669
  125OSM    O1413274   5.439   1.298   5.823
  125OSM    O1113275   5.489   1.527   5.915
  125OSM    O1213276   5.653   1.413   5.773
  125OSM    C1S13277   5.376   1.533   6.002
  125OSM    H1S13278   5.309   1.445   5.991
  125OSM    H1T13279   5.315   1.624   5.981
  125OSM     NF13280   5.310   1.530   6.242
  125OSM    HNF13281   5.284   1.614   6.289
  125OSM    C2S13282   5.421   1.538   6.151
  125OSM    H2S13283   5.486   1.449   6.167
  125OSM    C3S13284   5.503   1.665   6.182
  125OSM    H3S13285   5.433   1.752   6.182
  125OSM     O313286   5.603   1.698   6.087
  125OSM    HO313287   5.571   1.655   6.007
  125OSM    C4S13288   5.563   1.649   6.320
  125OSM    H4S13289   5.641   1.572   6.329
  125OSM    C5S13290   5.527   1.722   6.426
  125OSM    H5S13291   5.451   1.800   6.410
  125OSM    C6S13292   5.578   1.713   6.568
  125OSM    H6S13293   5.495   1.740   6.636
  125OSM    H6T13294   5.658   1.789   6.584
  125OSM    C7S13295   5.629   1.577   6.619
  125OSM    H7S13296   5.718   1.544   6.561
  125OSM    H7T13297   5.550   1.500   6.607
  125OSM    C8S13298   5.665   1.587   6.769
  125OSM    H8S13299   5.578   1.628   6.823
  125OSM    H8T13300   5.749   1.659   6.781
  125OSM    C9S13301   5.703   1.453   6.834
  125OSM    H9S13302   5.791   1.409   6.782
  125OSM    H9T13303   5.617   1.383   6.824
  125OSM   C10S13304   5.735   1.470   6.983
  125OSM   H10S13305   5.649   1.521   7.031
  125OSM   H10T13306   5.823   1.537   6.994
  125OSM   C11S13307   5.762   1.336   7.054
  125OSM   H11S13308   5.842   1.282   6.999
  125OSM   H11T13309   5.669   1.275   7.048
  125OSM   C12S13310   5.804   1.345   7.202
  125OSM   H12S13311   5.908   1.385   7.208
  125OSM   H12T13312   5.807   1.241   7.243
  125OSM   C13S13313   5.712   1.431   7.289
  125OSM   H13S13314   5.626   1.468   7.229
  125OSM   H13T13315   5.770   1.520   7.323
  125OSM   C14S13316   5.653   1.360   7.412
  125OSM   H14S13317   5.623   1.257   7.384
  125OSM   H14T13318   5.561   1.415   7.442
  125OSM   C15S13319   5.748   1.358   7.532
  125OSM   H15S13320   5.771   1.462   7.564
  125OSM   H15T13321   5.844   1.311   7.501
  125OSM   C16S13322   5.691   1.279   7.650
  125OSM   H16S13323   5.768   1.270   7.729
  125OSM   H16T13324   5.667   1.176   7.614
  125OSM   C17S13325   5.563   1.338   7.711
  125OSM   H17S13326   5.485   1.346   7.633
  125OSM   H17T13327   5.585   1.441   7.747
  125OSM   C18S13328   5.507   1.255   7.827
  125OSM   H18S13329   5.494   1.149   7.797
  125OSM   H18T13330   5.409   1.294   7.860
  125OSM   H18U13331   5.577   1.257   7.913
  125OSM    C1F13332   5.243   1.420   6.270
  125OSM     OF13333   5.261   1.315   6.209
  125OSM    C2F13334   5.145   1.434   6.382
  125OSM    H2F13335   5.103   1.334   6.404
  125OSM    H2G13336   5.061   1.498   6.347
  125OSM    C3F13337   5.206   1.493   6.512
  125OSM    H3F13338   5.299   1.551   6.496
  125OSM    H3G13339   5.235   1.407   6.576
  125OSM    C4F13340   5.107   1.582   6.589
  125OSM    H4F13341   5.005   1.559   6.552
  125OSM    H4G13342   5.127   1.689   6.567
  125OSM    C5F13343   5.105   1.560   6.741
  125OSM    H5F13344   5.192   1.611   6.788
  125OSM    H5G13345   5.118   1.451   6.757
  125OSM    C6F13346   4.973   1.606   6.806
  125OSM    H6F13347   4.888   1.564   6.748
  125OSM    H6G13348   4.966   1.716   6.794
  125OSM    C7F13349   4.952   1.568   6.955
  125OSM    H7F13350   4.902   1.469   6.959
  125OSM    H7G13351   4.879   1.637   7.001
  125OSM    C8F13352   5.081   1.563   7.041
  125OSM    H8F13353   5.138   1.656   7.023
  125OSM    H8G13354   5.146   1.483   6.998
  125OSM    C9F13355   5.062   1.536   7.189
  125OSM    H9F13356   4.976   1.471   7.214
  125OSM   C10F13357   5.139   1.585   7.288
  125OSM   H10F13358   5.117   1.559   7.393
  125OSM   C11F13359   5.258   1.675   7.265
  125OSM   H11F13360   5.218   1.778   7.260
  125OSM   H11G13361   5.303   1.651   7.166
  125OSM   C12F13362   5.379   1.689   7.360
  125OSM   H12F13363   5.427   1.591   7.380
  125OSM   H12G13364   5.344   1.732   7.456
  125OSM   C13F13365   5.481   1.787   7.297
  125OSM   H13F13366   5.423   1.872   7.254
  125OSM   H13G13367   5.534   1.738   7.214
  125OSM   C14F13368   5.580   1.851   7.395
  125OSM   H14F13369   5.525   1.887   7.484
  125OSM   H14G13370   5.625   1.940   7.346
  125OSM   C15F13371   5.694   1.757   7.436
  125OSM   H15F13372   5.744   1.723   7.343
  125OSM   H15G13373   5.652   1.668   7.487
  125OSM   C16F13374   5.801   1.823   7.524
  125OSM   H16F13375   5.849   1.905   7.467
  125OSM   H16G13376   5.879   1.748   7.549
  125OSM   C17F13377   5.749   1.887   7.654
  125OSM   H17F13378   5.694   1.979   7.627
  125OSM   H17G13379   5.837   1.919   7.714
  125OSM   C18F13380   5.660   1.796   7.738
  125OSM   H18F13381   5.714   1.703   7.766
  125OSM   H18G13382   5.569   1.768   7.681
  125OSM   H18H13383   5.628   1.848   7.831
  126OSM      N13384   3.318   0.978   5.882
  126OSM    C1513385   3.260   1.113   5.854
  126OSM   H15A13386   3.235   1.120   5.749
  126OSM   H15B13387   3.331   1.192   5.876
  126OSM   H15C13388   3.168   1.129   5.908
  126OSM    C1413389   3.453   0.967   5.817
  126OSM   H14A13390   3.488   0.865   5.827
  126OSM   H14B13391   3.526   1.034   5.860
  126OSM   H14C13392   3.447   0.986   5.711
  126OSM    C1313393   3.330   0.954   6.029
  126OSM   H13A13394   3.357   0.850   6.045
  126OSM   H13B13395   3.236   0.969   6.079
  126OSM   H13C13396   3.407   1.015   6.075
  126OSM    C1213397   3.229   0.869   5.822
  126OSM   H12A13398   3.229   0.881   5.715
  126OSM   H12B13399   3.127   0.885   5.854
  126OSM    C1113400   3.266   0.721   5.853
  126OSM   H11A13401   3.199   0.656   5.792
  126OSM   H11B13402   3.241   0.700   5.959
  126OSM      P13403   3.459   0.547   5.858
  126OSM    O1313404   3.376   0.444   5.791
  126OSM    O1413405   3.605   0.543   5.828
  126OSM    O1113406   3.447   0.536   6.015
  126OSM    O1213407   3.403   0.692   5.826
  126OSM    C1S13408   3.518   0.628   6.097
  126OSM    H1S13409   3.493   0.734   6.072
  126OSM    H1T13410   3.628   0.616   6.081
  126OSM     NF13411   3.392   0.704   6.298
  126OSM    HNF13412   3.420   0.758   6.377
  126OSM    C2S13413   3.489   0.607   6.250
  126OSM    H2S13414   3.448   0.505   6.264
  126OSM    C3S13415   3.623   0.617   6.328
  126OSM    H3S13416   3.675   0.711   6.299
  126OSM     O313417   3.712   0.510   6.297
  126OSM    HO313418   3.661   0.449   6.243
  126OSM    C4S13419   3.597   0.618   6.477
  126OSM    H4S13420   3.575   0.518   6.519
  126OSM    C5S13421   3.602   0.725   6.559
  126OSM    H5S13422   3.629   0.824   6.519
  126OSM    C6S13423   3.576   0.724   6.708
  126OSM    H6S13424   3.670   0.750   6.760
  126OSM    H6T13425   3.548   0.622   6.743
  126OSM    C7S13426   3.468   0.823   6.759
  126OSM    H7S13427   3.369   0.795   6.717
  126OSM    H7T13428   3.492   0.925   6.724
  126OSM    C8S13429   3.460   0.825   6.913
  126OSM    H8S13430   3.560   0.852   6.952
  126OSM    H8T13431   3.443   0.721   6.950
  126OSM    C9S13432   3.352   0.917   6.975
  126OSM    H9S13433   3.251   0.886   6.941
  126OSM    H9T13434   3.363   1.021   6.940
  126OSM   C10S13435   3.354   0.913   7.129
  126OSM   H10S13436   3.443   0.968   7.166
  126OSM   H10T13437   3.363   0.808   7.164
  126OSM   C11S13438   3.228   0.973   7.194
  126OSM   H11S13439   3.138   0.915   7.162
  126OSM   H11T13440   3.216   1.077   7.158
  126OSM   C12S13441   3.235   0.974   7.348
  126OSM   H12S13442   3.337   1.009   7.374
  126OSM   H12T13443   3.227   0.870   7.387
  126OSM   C13S13444   3.130   1.065   7.415
  126OSM   H13S13445   3.032   1.013   7.408
  126OSM   H13T13446   3.121   1.158   7.355
  126OSM   C14S13447   3.158   1.101   7.563
  126OSM   H14S13448   3.236   1.034   7.605
  126OSM   H14T13449   3.066   1.082   7.621
  126OSM   C15S13450   3.198   1.249   7.585
  126OSM   H15S13451   3.169   1.308   7.496
  126OSM   H15T13452   3.309   1.255   7.594
  126OSM   C16S13453   3.138   1.321   7.708
  126OSM   H16S13454   3.029   1.298   7.716
  126OSM   H16T13455   3.146   1.430   7.692
  126OSM   C17S13456   3.206   1.289   7.841
  126OSM   H17S13457   3.213   1.179   7.853
  126OSM   H17T13458   3.141   1.326   7.923
  126OSM   C18S13459   3.345   1.353   7.857
  126OSM   H18S13460   3.413   1.322   7.774
  126OSM   H18T13461   3.391   1.322   7.953
  126OSM   H18U13462   3.337   1.464   7.855
  126OSM    C1F13463   3.265   0.705   6.260
  126OSM     OF13464   3.219   0.626   6.181
  126OSM    C2F13465   3.183   0.811   6.323
  126OSM    H2F13466   3.182   0.902   6.260
  126OSM    H2G13467   3.232   0.837   6.420
  126OSM    C3F13468   3.039   0.763   6.347
  126OSM    H3F13469   3.039   0.663   6.395
  126OSM    H3G13470   2.987   0.751   6.250
  126OSM    C4F13471   2.963   0.862   6.436
  126OSM    H4F13472   2.860   0.822   6.453
  126OSM    H4G13473   2.952   0.959   6.383
  126OSM    C5F13474   3.031   0.886   6.572
  126OSM    H5F13475   2.964   0.950   6.632
  126OSM    H5G13476   3.124   0.946   6.560
  126OSM    C6F13477   3.062   0.759   6.652
  126OSM    H6F13478   3.169   0.732   6.637
  126OSM    H6G13479   3.003   0.672   6.616
  126OSM    C7F13480   3.034   0.776   6.802
  126OSM    H7F13481   2.924   0.769   6.822
  126OSM    H7G13482   3.063   0.880   6.830
  126OSM    C8F13483   3.114   0.681   6.893
  126OSM    H8F13484   3.101   0.716   6.998
  126OSM    H8G13485   3.220   0.699   6.867
  126OSM    C9F13486   3.087   0.533   6.888
  126OSM    H9F13487   2.981   0.504   6.884
  126OSM   C10F13488   3.179   0.435   6.894
  126OSM   H10F13489   3.145   0.331   6.888
  126OSM   C11F13490   3.328   0.453   6.905
  126OSM   H11F13491   3.360   0.558   6.887
  126OSM   H11G13492   3.378   0.398   6.822
  126OSM   C12F13493   3.390   0.404   7.037
  126OSM   H12F13494   3.498   0.386   7.015
  126OSM   H12G13495   3.347   0.307   7.069
  126OSM   C13F13496   3.385   0.505   7.153
  126OSM   H13F13497   3.287   0.501   7.204
  126OSM   H13G13498   3.397   0.607   7.112
  126OSM   C14F13499   3.501   0.480   7.251
  126OSM   H14F13500   3.595   0.474   7.192
  126OSM   H14G13501   3.486   0.381   7.299
  126OSM   C15F13502   3.521   0.588   7.358
  126OSM   H15F13503   3.432   0.589   7.425
  126OSM   H15G13504   3.527   0.688   7.311
  126OSM   C16F13505   3.651   0.562   7.436
  126OSM   H16F13506   3.731   0.622   7.389
  126OSM   H16G13507   3.679   0.455   7.424
  126OSM   C17F13508   3.647   0.591   7.587
  126OSM   H17F13509   3.547   0.630   7.614
  126OSM   H17G13510   3.722   0.671   7.608
  126OSM   C18F13511   3.681   0.470   7.675
  126OSM   H18F13512   3.784   0.434   7.654
  126OSM   H18G13513   3.610   0.387   7.655
  126OSM   H18H13514   3.674   0.497   7.782
  127OSM      N13515   1.831   1.205   5.878
  127OSM    C1513516   1.731   1.179   5.769
  127OSM   H15A13517   1.753   1.235   5.680
  127OSM   H15B13518   1.631   1.203   5.803
  127OSM   H15C13519   1.732   1.074   5.745
  127OSM    C1413520   1.823   1.348   5.922
  127OSM   H14A13521   1.888   1.366   6.006
  127OSM   H14B13522   1.724   1.369   5.960
  127OSM   H14C13523   1.848   1.420   5.845
  127OSM    C1313524   1.791   1.121   5.996
  127OSM   H13A13525   1.689   1.138   6.026
  127OSM   H13B13526   1.850   1.142   6.084
  127OSM   H13C13527   1.805   1.016   5.976
  127OSM    C1213528   1.971   1.172   5.834
  127OSM   H12A13529   2.039   1.197   5.914
  127OSM   H12B13530   1.997   1.235   5.750
  127OSM    C1113531   2.001   1.025   5.798
  127OSM   H11A13532   2.092   1.026   5.734
  127OSM   H11B13533   1.919   0.983   5.736
  127OSM      P13534   2.158   0.891   5.958
  127OSM    O1313535   2.154   0.794   6.068
  127OSM    O1413536   2.231   0.851   5.835
  127OSM    O1113537   2.233   1.020   6.014
  127OSM    O1213538   2.016   0.946   5.917
  127OSM    C1S13539   2.171   1.106   6.111
  127OSM    H1S13540   2.064   1.124   6.087
  127OSM    H1T13541   2.221   1.206   6.108
  127OSM     NF13542   2.119   1.155   6.352
  127OSM    HNF13543   2.175   1.191   6.426
  127OSM    C2S13544   2.180   1.058   6.261
  127OSM    H2S13545   2.122   0.963   6.268
  127OSM    C3S13546   2.326   1.031   6.304
  127OSM    H3S13547   2.377   1.130   6.312
  127OSM     O313548   2.402   0.955   6.211
  127OSM    HO313549   2.342   0.947   6.136
  127OSM    C4S13550   2.330   0.960   6.436
  127OSM    H4S13551   2.305   0.853   6.432
  127OSM    C5S13552   2.364   1.016   6.554
  127OSM    H5S13553   2.394   1.121   6.558
  127OSM    C6S13554   2.369   0.942   6.685
  127OSM    H6S13555   2.413   1.006   6.764
  127OSM    H6T13556   2.436   0.853   6.676
  127OSM    C7S13557   2.235   0.894   6.740
  127OSM    H7S13558   2.258   0.845   6.837
  127OSM    H7T13559   2.190   0.817   6.674
  127OSM    C8S13560   2.134   1.006   6.766
  127OSM    H8S13561   2.090   1.037   6.669
  127OSM    H8T13562   2.184   1.094   6.810
  127OSM    C9S13563   2.022   0.958   6.860
  127OSM    H9S13564   1.997   0.853   6.836
  127OSM    H9T13565   1.933   1.020   6.839
  127OSM   C10S13566   2.058   0.973   7.009
  127OSM   H10S13567   2.051   1.079   7.039
  127OSM   H10T13568   2.164   0.942   7.023
  127OSM   C11S13569   1.971   0.887   7.102
  127OSM   H11S13570   1.976   0.781   7.069
  127OSM   H11T13571   1.865   0.918   7.095
  127OSM   C12S13572   2.017   0.895   7.248
  127OSM   H12S13573   1.984   0.994   7.288
  127OSM   H12T13574   2.128   0.894   7.252
  127OSM   C13S13575   1.966   0.781   7.337
  127OSM   H13S13576   2.014   0.686   7.304
  127OSM   H13T13577   1.857   0.769   7.323
  127OSM   C14S13578   1.995   0.800   7.488
  127OSM   H14S13579   2.104   0.811   7.504
  127OSM   H14T13580   1.962   0.709   7.542
  127OSM   C15S13581   1.923   0.923   7.546
  127OSM   H15S13582   1.817   0.923   7.512
  127OSM   H15T13583   1.970   1.013   7.501
  127OSM   C16S13584   1.923   0.936   7.699
  127OSM   H16S13585   2.028   0.944   7.736
  127OSM   H16T13586   1.878   0.845   7.744
  127OSM   C17S13587   1.843   1.060   7.745
  127OSM   H17S13588   1.742   1.056   7.700
  127OSM   H17T13589   1.893   1.151   7.707
  127OSM   C18S13590   1.829   1.073   7.897
  127OSM   H18S13591   1.768   1.163   7.922
  127OSM   H18T13592   1.928   1.083   7.945
  127OSM   H18U13593   1.778   0.984   7.940
  127OSM    C1F13594   1.991   1.189   6.345
  127OSM     OF13595   1.916   1.134   6.267
  127OSM    C2F13596   1.945   1.300   6.435
  127OSM    H2F13597   1.909   1.383   6.371
  127OSM    H2G13598   2.029   1.336   6.498
  127OSM    C3F13599   1.828   1.253   6.524
  127OSM    H3F13600   1.860   1.170   6.591
  127OSM    H3G13601   1.749   1.213   6.457
  127OSM    C4F13602   1.764   1.366   6.605
  127OSM    H4F13603   1.660   1.336   6.631
  127OSM    H4G13604   1.759   1.457   6.541
  127OSM    C5F13605   1.837   1.403   6.734
  127OSM    H5F13606   1.783   1.490   6.779
  127OSM    H5G13607   1.940   1.436   6.710
  127OSM    C6F13608   1.842   1.290   6.838
  127OSM    H6F13609   1.923   1.220   6.806
  127OSM    H6G13610   1.746   1.235   6.840
  127OSM    C7F13611   1.874   1.344   6.977
  127OSM    H7F13612   1.901   1.450   6.960
  127OSM    H7G13613   1.964   1.295   7.020
  127OSM    C8F13614   1.757   1.343   7.077
  127OSM    H8F13615   1.661   1.349   7.021
  127OSM    H8G13616   1.763   1.437   7.137
  127OSM    C9F13617   1.761   1.222   7.165
  127OSM    H9F13618   1.755   1.126   7.112
  127OSM   C10F13619   1.772   1.220   7.300
  127OSM   H10F13620   1.776   1.123   7.351
  127OSM   C11F13621   1.781   1.340   7.391
  127OSM   H11F13622   1.735   1.315   7.489
  127OSM   H11G13623   1.722   1.424   7.351
  127OSM   C12F13624   1.925   1.391   7.417
  127OSM   H12F13625   1.917   1.476   7.489
  127OSM   H12G13626   1.969   1.429   7.323
  127OSM   C13F13627   2.020   1.291   7.482
  127OSM   H13F13628   1.959   1.204   7.513
  127OSM   H13G13629   2.061   1.337   7.575
  127OSM   C14F13630   2.136   1.250   7.391
  127OSM   H14F13631   2.202   1.338   7.376
  127OSM   H14G13632   2.096   1.221   7.291
  127OSM   C15F13633   2.220   1.133   7.446
  127OSM   H15F13634   2.317   1.128   7.392
  127OSM   H15G13635   2.166   1.038   7.426
  127OSM   C16F13636   2.245   1.139   7.598
  127OSM   H16F13637   2.290   1.043   7.630
  127OSM   H16G13638   2.148   1.147   7.652
  127OSM   C17F13639   2.336   1.255   7.639
  127OSM   H17F13640   2.305   1.347   7.586
  127OSM   H17G13641   2.440   1.231   7.606
  127OSM   C18F13642   2.334   1.281   7.789
  127OSM   H18F13643   2.354   1.189   7.847
  127OSM   H18G13644   2.233   1.319   7.817
  127OSM   H18H13645   2.409   1.358   7.817
  128OSM      N13646   6.286   5.618   5.852
  128OSM    C1513647   6.412   5.698   5.867
  128OSM   H15A13648   6.420   5.738   5.967
  128OSM   H15B13649   6.412   5.785   5.803
  128OSM   H15C13650   6.498   5.636   5.846
  128OSM    C1413651   6.173   5.708   5.889
  128OSM   H14A13652   6.077   5.660   5.875
  128OSM   H14B13653   6.177   5.797   5.828
  128OSM   H14C13654   6.184   5.743   5.991
  128OSM    C1313655   6.274   5.574   5.709
  128OSM   H13A13656   6.288   5.656   5.640
  128OSM   H13B13657   6.181   5.524   5.690
  128OSM   H13C13658   6.354   5.505   5.690
  128OSM    C1213659   6.295   5.495   5.942
  128OSM   H12A13660   6.196   5.456   5.960
  128OSM   H12B13661   6.333   5.525   6.039
  128OSM    C1113662   6.383   5.378   5.888
  128OSM   H11A13663   6.324   5.320   5.814
  128OSM   H11B13664   6.405   5.307   5.971
  128OSM      P13665   6.650   5.397   5.863
  128OSM    O1313666   6.703   5.293   5.771
  128OSM    O1413667   6.721   5.526   5.864
  128OSM    O1113668   6.642   5.340   6.011
  128OSM    O1213669   6.501   5.425   5.823
  128OSM    C1S13670   6.618   5.431   6.120
  128OSM    H1S13671   6.534   5.499   6.097
  128OSM    H1T13672   6.708   5.493   6.139
  128OSM     NF13673   6.548   5.445   6.358
  128OSM    HNF13674   6.609   5.443   6.437
  128OSM    C2S13675   6.584   5.353   6.250
  128OSM    H2S13676   6.496   5.288   6.229
  128OSM    C3S13677   6.704   5.262   6.290
  128OSM    H3S13678   6.793   5.327   6.306
  128OSM     O313679   6.741   5.167   6.191
  128OSM    HO313680   6.699   5.199   6.111
  128OSM    C4S13681   6.674   5.186   6.417
  128OSM    H4S13682   6.619   5.092   6.403
  128OSM    C5S13683   6.714   5.225   6.539
  128OSM    H5S13684   6.770   5.319   6.550
  128OSM    C6S13685   6.688   5.153   6.669
  128OSM    H6S13686   6.785   5.130   6.718
  128OSM    H6T13687   6.638   5.056   6.652
  128OSM    C7S13688   6.603   5.238   6.765
  128OSM    H7S13689   6.498   5.233   6.730
  128OSM    H7T13690   6.634   5.344   6.765
  128OSM    C8S13691   6.611   5.186   6.910
  128OSM    H8S13692   6.698   5.232   6.962
  128OSM    H8T13693   6.629   5.077   6.906
  128OSM    C9S13694   6.482   5.211   6.990
  128OSM    H9S13695   6.477   5.138   7.074
  128OSM    H9T13696   6.396   5.188   6.923
  128OSM   C10S13697   6.467   5.354   7.043
  128OSM   H10S13698   6.358   5.375   7.047
  128OSM   H10T13699   6.511   5.427   6.971
  128OSM   C11S13700   6.520   5.381   7.185
  128OSM   H11S13701   6.486   5.482   7.216
  128OSM   H11T13702   6.631   5.382   7.186
  128OSM   C12S13703   6.472   5.280   7.291
  128OSM   H12S13704   6.522   5.181   7.275
  128OSM   H12T13705   6.363   5.264   7.278
  128OSM   C13S13706   6.497   5.327   7.434
  128OSM   H13S13707   6.447   5.425   7.445
  128OSM   H13T13708   6.606   5.343   7.453
  128OSM   C14S13709   6.442   5.225   7.535
  128OSM   H14S13710   6.511   5.139   7.540
  128OSM   H14T13711   6.344   5.189   7.497
  128OSM   C15S13712   6.418   5.280   7.677
  128OSM   H15S13713   6.515   5.302   7.726
  128OSM   H15T13714   6.366   5.201   7.736
  128OSM   C16S13715   6.330   5.405   7.675
  128OSM   H16S13716   6.247   5.388   7.603
  128OSM   H16T13717   6.387   5.492   7.637
  128OSM   C17S13718   6.267   5.440   7.810
  128OSM   H17S13719   6.338   5.410   7.889
  128OSM   H17T13720   6.175   5.379   7.822
  128OSM   C18S13721   6.235   5.589   7.825
  128OSM   H18S13722   6.177   5.626   7.738
  128OSM   H18T13723   6.329   5.649   7.830
  128OSM   H18U13724   6.178   5.608   7.918
  128OSM    C1F13725   6.443   5.525   6.359
  128OSM     OF13726   6.363   5.530   6.266
  128OSM    C2F13727   6.429   5.609   6.483
  128OSM    H2F13728   6.495   5.698   6.472
  128OSM    H2G13729   6.466   5.549   6.569
  128OSM    C3F13730   6.285   5.656   6.513
  128OSM    H3F13731   6.220   5.567   6.527
  128OSM    H3G13732   6.245   5.712   6.426
  128OSM    C4F13733   6.276   5.744   6.638
  128OSM    H4F13734   6.169   5.772   6.654
  128OSM    H4G13735   6.333   5.838   6.622
  128OSM    C5F13736   6.328   5.675   6.765
  128OSM    H5F13737   6.437   5.659   6.759
  128OSM    H5G13738   6.279   5.576   6.774
  128OSM    C6F13739   6.297   5.756   6.892
  128OSM    H6F13740   6.187   5.773   6.895
  128OSM    H6G13741   6.347   5.856   6.888
  128OSM    C7F13742   6.338   5.681   7.019
  128OSM    H7F13743   6.449   5.682   7.030
  128OSM    H7G13744   6.306   5.575   7.006
  128OSM    C8F13745   6.270   5.732   7.148
  128OSM    H8F13746   6.296   5.661   7.229
  128OSM    H8G13747   6.161   5.725   7.132
  128OSM    C9F13748   6.304   5.873   7.186
  128OSM    H9F13749   6.295   5.947   7.105
  128OSM   C10F13750   6.346   5.913   7.307
  128OSM   H10F13751   6.365   6.020   7.325
  128OSM   C11F13752   6.369   5.827   7.428
  128OSM   H11F13753   6.422   5.734   7.398
  128OSM   H11G13754   6.273   5.797   7.476
  128OSM   C12F13755   6.454   5.908   7.527
  128OSM   H12F13756   6.394   5.991   7.570
  128OSM   H12G13757   6.540   5.954   7.474
  128OSM   C13F13758   6.514   5.825   7.642
  128OSM   H13F13759   6.433   5.797   7.712
  128OSM   H13G13760   6.585   5.893   7.695
  128OSM   C14F13761   6.593   5.701   7.598
  128OSM   H14F13762   6.665   5.730   7.519
  128OSM   H14G13763   6.524   5.625   7.556
  128OSM   C15F13764   6.677   5.639   7.710
  128OSM   H15F13765   6.748   5.717   7.747
  128OSM   H15G13766   6.736   5.555   7.668
  128OSM   C16F13767   6.593   5.589   7.827
  128OSM   H16F13768   6.524   5.511   7.789
  128OSM   H16G13769   6.532   5.672   7.869
  128OSM   C17F13770   6.672   5.525   7.941
  128OSM   H17F13771   6.744   5.599   7.982
  128OSM   H17G13772   6.730   5.439   7.901
  128OSM   C18F13773   6.581   5.478   8.052
  128OSM   H18F13774   6.526   5.563   8.098
  128OSM   H18G13775   6.641   5.426   8.130
  128OSM   H18H13776   6.507   5.406   8.011
  129OSM      N13777   3.947   0.139   5.728
  129OSM    C1513778   3.836   0.042   5.705
  129OSM   H15A13779   3.741   0.092   5.713
  129OSM   H15B13780   3.841  -0.035   5.781
  129OSM   H15C13781   3.844  -0.006   5.609
  129OSM    C1413782   4.078   0.068   5.710
  129OSM   H14A13783   4.093   0.033   5.609
  129OSM   H14B13784   4.082  -0.017   5.776
  129OSM   H14C13785   4.161   0.130   5.741
  129OSM    C1313786   3.936   0.249   5.627
  129OSM   H13A13787   3.947   0.210   5.527
  129OSM   H13B13788   4.011   0.325   5.643
  129OSM   H13C13789   3.837   0.294   5.633
  129OSM    C1213790   3.937   0.199   5.868
  129OSM   H12A13791   3.863   0.277   5.867
  129OSM   H12B13792   4.033   0.243   5.892
  129OSM    C1113793   3.904   0.106   5.989
  129OSM   H11A13794   3.801   0.066   5.978
  129OSM   H11B13795   3.903   0.167   6.083
  129OSM      P13796   4.149   0.020   6.033
  129OSM    O1313797   4.215  -0.100   5.979
  129OSM    O1413798   4.189   0.152   5.978
  129OSM    O1113799   4.158   0.027   6.190
  129OSM    O1213800   3.995  -0.002   6.003
  129OSM    C1S13801   4.117  -0.080   6.274
  129OSM    H1S13802   4.177  -0.172   6.252
  129OSM    H1T13803   4.010  -0.103   6.259
  129OSM     NF13804   4.101  -0.158   6.506
  129OSM    HNF13805   4.005  -0.163   6.533
  129OSM    C2S13806   4.140  -0.044   6.424
  129OSM    H2S13807   4.249  -0.024   6.437
  129OSM    C3S13808   4.064   0.086   6.462
  129OSM    H3S13809   3.955   0.068   6.448
  129OSM     O313810   4.096   0.201   6.384
  129OSM    HO313811   4.138   0.164   6.306
  129OSM    C4S13812   4.087   0.112   6.610
  129OSM    H4S13813   4.001   0.085   6.673
  129OSM    C5S13814   4.199   0.163   6.667
  129OSM    H5S13815   4.283   0.190   6.602
  129OSM    C6S13816   4.220   0.186   6.814
  129OSM    H6S13817   4.236   0.295   6.832
  129OSM    H6T13818   4.314   0.135   6.845
  129OSM    C7S13819   4.108   0.138   6.909
  129OSM    H7S13820   4.088   0.030   6.892
  129OSM    H7T13821   4.016   0.195   6.887
  129OSM    C8S13822   4.144   0.158   7.057
  129OSM    H8S13823   4.181   0.261   7.072
  129OSM    H8T13824   4.226   0.088   7.085
  129OSM    C9S13825   4.024   0.135   7.150
  129OSM    H9S13826   3.983   0.033   7.134
  129OSM    H9T13827   3.945   0.208   7.122
  129OSM   C10S13828   4.058   0.154   7.298
  129OSM   H10S13829   4.128   0.240   7.308
  129OSM   H10T13830   4.111   0.064   7.336
  129OSM   C11S13831   3.934   0.183   7.385
  129OSM   H11S13832   3.886   0.276   7.348
  129OSM   H11T13833   3.966   0.201   7.490
  129OSM   C12S13834   3.831   0.069   7.382
  129OSM   H12S13835   3.875  -0.025   7.422
  129OSM   H12T13836   3.804   0.050   7.276
  129OSM   C13S13837   3.701   0.102   7.457
  129OSM   H13S13838   3.615   0.064   7.397
  129OSM   H13T13839   3.688   0.212   7.465
  129OSM   C14S13840   3.691   0.037   7.596
  129OSM   H14S13841   3.699  -0.073   7.586
  129OSM   H14T13842   3.590   0.060   7.637
  129OSM   C15S13843   3.793   0.088   7.697
  129OSM   H15S13844   3.788   0.199   7.693
  129OSM   H15T13845   3.896   0.058   7.668
  129OSM   C16S13846   3.761   0.038   7.838
  129OSM   H16S13847   3.777  -0.072   7.843
  129OSM   H16T13848   3.653   0.056   7.859
  129OSM   C17S13849   3.842   0.106   7.949
  129OSM   H17S13850   3.948   0.074   7.941
  129OSM   H17T13851   3.806   0.068   8.047
  129OSM   C18S13852   3.834   0.259   7.946
  129OSM   H18S13853   3.728   0.292   7.951
  129OSM   H18T13854   3.880   0.300   7.854
  129OSM   H18U13855   3.889   0.304   8.032
  129OSM    C1F13856   4.184  -0.259   6.529
  129OSM     OF13857   4.304  -0.249   6.509
  129OSM    C2F13858   4.122  -0.386   6.577
  129OSM    H2F13859   4.132  -0.462   6.497
  129OSM    H2G13860   4.014  -0.368   6.596
  129OSM    C3F13861   4.186  -0.438   6.708
  129OSM    H3F13862   4.296  -0.451   6.695
  129OSM    H3G13863   4.142  -0.539   6.725
  129OSM    C4F13864   4.158  -0.353   6.832
  129OSM    H4F13865   4.058  -0.306   6.821
  129OSM    H4G13866   4.233  -0.270   6.839
  129OSM    C5F13867   4.158  -0.437   6.961
  129OSM    H5F13868   4.259  -0.480   6.978
  129OSM    H5G13869   4.087  -0.521   6.946
  129OSM    C6F13870   4.113  -0.358   7.084
  129OSM    H6F13871   4.026  -0.296   7.053
  129OSM    H6G13872   4.193  -0.288   7.117
  129OSM    C7F13873   4.066  -0.448   7.200
  129OSM    H7F13874   4.009  -0.533   7.158
  129OSM    H7G13875   3.995  -0.389   7.263
  129OSM    C8F13876   4.176  -0.504   7.291
  129OSM    H8F13877   4.251  -0.558   7.229
  129OSM    H8G13878   4.129  -0.580   7.357
  129OSM    C9F13879   4.241  -0.396   7.373
  129OSM    H9F13880   4.328  -0.349   7.326
  129OSM   C10F13881   4.201  -0.348   7.491
  129OSM   H10F13882   4.261  -0.269   7.539
  129OSM   C11F13883   4.080  -0.393   7.569
  129OSM   H11F13884   4.110  -0.467   7.647
  129OSM   H11G13885   4.006  -0.443   7.504
  129OSM   C12F13886   4.010  -0.274   7.638
  129OSM   H12F13887   3.924  -0.316   7.695
  129OSM   H12G13888   3.969  -0.205   7.562
  129OSM   C13F13889   4.096  -0.195   7.738
  129OSM   H13F13890   4.028  -0.130   7.798
  129OSM   H13G13891   4.166  -0.129   7.683
  129OSM   C14F13892   4.177  -0.284   7.834
  129OSM   H14F13893   4.252  -0.340   7.774
  129OSM   H14G13894   4.111  -0.358   7.882
  129OSM   C15F13895   4.253  -0.204   7.940
  129OSM   H15F13896   4.289  -0.108   7.899
  129OSM   H15G13897   4.344  -0.262   7.968
  129OSM   C16F13898   4.172  -0.180   8.068
  129OSM   H16F13899   4.121  -0.274   8.097
  129OSM   H16G13900   4.092  -0.105   8.048
  129OSM   C17F13901   4.260  -0.135   8.185
  129OSM   H17F13902   4.310  -0.039   8.158
  129OSM   H17G13903   4.340  -0.210   8.200
  129OSM   C18F13904   4.182  -0.118   8.315
  129OSM   H18F13905   4.096  -0.048   8.300
  129OSM   H18G13906   4.247  -0.077   8.395
  129OSM   H18H13907   4.141  -0.216   8.348
  130OSM      N13908   0.288   2.289   5.736
  130OSM    C1513909   0.405   2.382   5.728
  130OSM   H15A13910   0.452   2.382   5.631
  130OSM   H15B13911   0.478   2.362   5.805
  130OSM   H15C13912   0.373   2.484   5.746
  130OSM    C1413913   0.189   2.331   5.632
  130OSM   H14A13914   0.231   2.327   5.533
  130OSM   H14B13915   0.158   2.432   5.653
  130OSM   H14C13916   0.100   2.269   5.636
  130OSM    C1313917   0.335   2.149   5.712
  130OSM   H13A13918   0.381   2.138   5.615
  130OSM   H13B13919   0.254   2.079   5.718
  130OSM   H13C13920   0.409   2.121   5.786
  130OSM    C1213921   0.223   2.297   5.874
  130OSM   H12A13922   0.301   2.320   5.945
  130OSM   H12B13923   0.185   2.199   5.900
  130OSM    C1113924   0.109   2.400   5.901
  130OSM   H11A13925   0.079   2.394   6.007
  130OSM   H11B13926   0.020   2.372   5.840
  130OSM      P13927   0.260   2.608   5.950
  130OSM    O1313928   0.358   2.645   5.845
  130OSM    O1413929   0.200   2.716   6.029
  130OSM    O1113930   0.321   2.491   6.043
  130OSM    O1213931   0.146   2.533   5.868
  130OSM    C1S13932   0.416   2.521   6.146
  130OSM    H1S13933   0.419   2.630   6.171
  130OSM    H1T13934   0.518   2.494   6.113
  130OSM     NF13935   0.483   2.496   6.379
  130OSM    HNF13936   0.577   2.506   6.348
  130OSM    C2S13937   0.385   2.450   6.282
  130OSM    H2S13938   0.283   2.482   6.311
  130OSM    C3S13939   0.383   2.295   6.276
  130OSM    H3S13940   0.487   2.257   6.259
  130OSM     O313941   0.308   2.246   6.165
  130OSM    HO313942   0.281   2.328   6.124
  130OSM    C4S13943   0.327   2.237   6.405
  130OSM    H4S13944   0.219   2.250   6.416
  130OSM    C5S13945   0.397   2.176   6.503
  130OSM    H5S13946   0.506   2.164   6.491
  130OSM    C6S13947   0.343   2.119   6.632
  130OSM    H6S13948   0.406   2.031   6.658
  130OSM    H6T13949   0.239   2.082   6.620
  130OSM    C7S13950   0.344   2.211   6.757
  130OSM    H7S13951   0.270   2.293   6.743
  130OSM    H7T13952   0.444   2.259   6.764
  130OSM    C8S13953   0.317   2.139   6.890
  130OSM    H8S13954   0.379   2.047   6.893
  130OSM    H8T13955   0.210   2.109   6.894
  130OSM    C9S13956   0.352   2.221   7.015
  130OSM    H9S13957   0.305   2.321   7.007
  130OSM    H9T13958   0.463   2.232   7.017
  130OSM   C10S13959   0.317   2.160   7.151
  130OSM   H10S13960   0.370   2.063   7.161
  130OSM   H10T13961   0.208   2.141   7.159
  130OSM   C11S13962   0.364   2.248   7.268
  130OSM   H11S13963   0.315   2.348   7.262
  130OSM   H11T13964   0.474   2.264   7.260
  130OSM   C12S13965   0.333   2.186   7.405
  130OSM   H12S13966   0.372   2.082   7.407
  130OSM   H12T13967   0.223   2.181   7.417
  130OSM   C13S13968   0.395   2.263   7.522
  130OSM   H13S13969   0.373   2.372   7.513
  130OSM   H13T13970   0.506   2.252   7.518
  130OSM   C14S13971   0.344   2.212   7.657
  130OSM   H14S13972   0.410   2.245   7.739
  130OSM   H14T13973   0.351   2.101   7.657
  130OSM   C15S13974   0.199   2.255   7.686
  130OSM   H15S13975   0.133   2.172   7.655
  130OSM   H15T13976   0.174   2.343   7.624
  130OSM   C16S13977   0.171   2.290   7.834
  130OSM   H16S13978   0.261   2.267   7.895
  130OSM   H16T13979   0.089   2.225   7.872
  130OSM   C17S13980   0.130   2.437   7.853
  130OSM   H17S13981   0.033   2.454   7.803
  130OSM   H17T13982   0.206   2.501   7.803
  130OSM   C18S13983   0.119   2.478   8.001
  130OSM   H18S13984   0.042   2.417   8.053
  130OSM   H18T13985   0.092   2.585   8.009
  130OSM   H18U13986   0.217   2.464   8.052
  130OSM    C1F13987   0.443   2.555   6.490
  130OSM     OF13988   0.324   2.566   6.517
  130OSM    C2F13989   0.551   2.606   6.579
  130OSM    H2F13990   0.604   2.687   6.525
  130OSM    H2G13991   0.623   2.525   6.603
  130OSM    C3F13992   0.492   2.663   6.709
  130OSM    H3F13993   0.413   2.736   6.680
  130OSM    H3G13994   0.573   2.716   6.763
  130OSM    C4F13995   0.431   2.562   6.806
  130OSM    H4F13996   0.380   2.484   6.747
  130OSM    H4G13997   0.352   2.610   6.868
  130OSM    C5F13998   0.537   2.500   6.897
  130OSM    H5F13999   0.630   2.483   6.838
  130OSM    H5G14000   0.498   2.399   6.924
  130OSM    C6F14001   0.571   2.572   7.028
  130OSM    H6F14002   0.624   2.666   7.005
  130OSM    H6G14003   0.642   2.507   7.084
  130OSM    C7F14004   0.452   2.601   7.121
  130OSM    H7F14005   0.392   2.508   7.130
  130OSM    H7G14006   0.387   2.678   7.075
  130OSM    C8F14007   0.490   2.648   7.264
  130OSM    H8F14008   0.507   2.556   7.324
  130OSM    H8G14009   0.400   2.697   7.308
  130OSM    C9F14010   0.613   2.735   7.278
  130OSM    H9F14011   0.692   2.717   7.204
  130OSM   C10F14012   0.637   2.829   7.372
  130OSM   H10F14013   0.733   2.881   7.370
  130OSM   C11F14014   0.544   2.869   7.484
  130OSM   H11F14015   0.439   2.853   7.451
  130OSM   H11G14016   0.554   2.978   7.500
  130OSM   C12F14017   0.562   2.804   7.623
  130OSM   H12F14018   0.608   2.877   7.692
  130OSM   H12G14019   0.632   2.717   7.617
  130OSM   C13F14020   0.428   2.754   7.681
  130OSM   H13F14021   0.431   2.643   7.682
  130OSM   H13G14022   0.345   2.780   7.613
  130OSM   C14F14023   0.388   2.808   7.820
  130OSM   H14F14024   0.298   2.749   7.849
  130OSM   H14G14025   0.355   2.914   7.810
  130OSM   C15F14026   0.491   2.799   7.934
  130OSM   H15F14027   0.534   2.899   7.955
  130OSM   H15G14028   0.577   2.737   7.903
  130OSM   C16F14029   0.431   2.744   8.065
  130OSM   H16F14030   0.510   2.741   8.143
  130OSM   H16G14031   0.397   2.640   8.047
  130OSM   C17F14032   0.311   2.825   8.117
  130OSM   H17F14033   0.257   2.764   8.192
  130OSM   H17G14034   0.239   2.844   8.035
  130OSM   C18F14035   0.349   2.958   8.181
  130OSM   H18F14036   0.412   3.018   8.111
  130OSM   H18G14037   0.407   2.943   8.275
  130OSM   H18H14038   0.258   3.017   8.205
  131OSM      N14039   1.080   0.663   5.754
  131OSM    C1514040   0.989   0.588   5.661
  131OSM   H15A14041   1.041   0.507   5.613
  131OSM   H15B14042   0.954   0.653   5.583
  131OSM   H15C14043   0.903   0.548   5.712
  131OSM    C1414044   1.201   0.708   5.677
  131OSM   H14A14045   1.174   0.778   5.599
  131OSM   H14B14046   1.255   0.625   5.635
  131OSM   H14C14047   1.267   0.760   5.745
  131OSM    C1314048   1.011   0.787   5.802
  131OSM   H13A14049   0.927   0.763   5.866
  131OSM   H13B14050   0.977   0.846   5.719
  131OSM   H13C14051   1.082   0.846   5.858
  131OSM    C1214052   1.121   0.577   5.873
  131OSM   H12A14053   1.182   0.495   5.837
  131OSM   H12B14054   1.032   0.534   5.917
  131OSM    C1114055   1.201   0.643   5.989
  131OSM   H11A14056   1.217   0.568   6.069
  131OSM   H11B14057   1.138   0.723   6.034
  131OSM      P14058   1.374   0.838   5.971
  131OSM    O1314059   1.517   0.847   5.937
  131OSM    O1414060   1.283   0.923   5.892
  131OSM    O1114061   1.344   0.858   6.125
  131OSM    O1214062   1.328   0.689   5.944
  131OSM    C1S14063   1.438   0.831   6.229
  131OSM    H1S14064   1.533   0.886   6.212
  131OSM    H1T14065   1.462   0.722   6.234
  131OSM     NF14066   1.483   0.860   6.473
  131OSM    HNF14067   1.478   0.779   6.531
  131OSM    C2S14068   1.383   0.876   6.369
  131OSM    H2S14069   1.358   0.984   6.360
  131OSM    C3S14070   1.252   0.799   6.407
  131OSM    H3S14071   1.281   0.696   6.438
  131OSM     O314072   1.160   0.783   6.299
  131OSM    HO314073   1.212   0.811   6.223
  131OSM    C4S14074   1.188   0.868   6.526
  131OSM    H4S14075   1.212   0.822   6.623
  131OSM    C5S14076   1.107   0.976   6.522
  131OSM    H5S14077   1.082   1.015   6.422
  131OSM    C6S14078   1.040   1.050   6.635
  131OSM    H6S14079   0.933   1.069   6.609
  131OSM    H6T14080   1.084   1.152   6.642
  131OSM    C7S14081   1.039   0.989   6.777
  131OSM    H7S14082   1.019   0.880   6.775
  131OSM    H7T14083   0.957   1.038   6.834
  131OSM    C8S14084   1.170   1.020   6.849
  131OSM    H8S14085   1.192   1.126   6.826
  131OSM    H8T14086   1.252   0.957   6.809
  131OSM    C9S14087   1.166   1.014   7.002
  131OSM    H9S14088   1.139   0.912   7.038
  131OSM    H9T14089   1.089   1.085   7.039
  131OSM   C10S14090   1.305   1.055   7.055
  131OSM   H10S14091   1.362   1.098   6.970
  131OSM   H10T14092   1.360   0.963   7.083
  131OSM   C11S14093   1.305   1.161   7.166
  131OSM   H11S14094   1.214   1.224   7.156
  131OSM   H11T14095   1.392   1.229   7.151
  131OSM   C12S14096   1.313   1.104   7.308
  131OSM   H12S14097   1.234   1.027   7.322
  131OSM   H12T14098   1.291   1.188   7.377
  131OSM   C13S14099   1.451   1.048   7.347
  131OSM   H13S14100   1.465   1.062   7.456
  131OSM   H13T14101   1.530   1.108   7.297
  131OSM   C14S14102   1.469   0.899   7.315
  131OSM   H14S14103   1.491   0.888   7.207
  131OSM   H14T14104   1.374   0.844   7.336
  131OSM   C15S14105   1.584   0.828   7.389
  131OSM   H15S14106   1.679   0.879   7.363
  131OSM   H15T14107   1.589   0.724   7.348
  131OSM   C16S14108   1.568   0.817   7.541
  131OSM   H16S14109   1.461   0.799   7.567
  131OSM   H16T14110   1.598   0.913   7.589
  131OSM   C17S14111   1.647   0.700   7.601
  131OSM   H17S14112   1.756   0.714   7.581
  131OSM   H17T14113   1.618   0.607   7.548
  131OSM   C18S14114   1.625   0.681   7.751
  131OSM   H18S14115   1.516   0.678   7.772
  131OSM   H18T14116   1.670   0.764   7.808
  131OSM   H18U14117   1.670   0.586   7.786
  131OSM    C1F14118   1.585   0.944   6.486
  131OSM     OF14119   1.605   1.032   6.405
  131OSM    C2F14120   1.671   0.926   6.608
  131OSM    H2F14121   1.771   0.970   6.591
  131OSM    H2G14122   1.683   0.817   6.626
  131OSM    C3F14123   1.601   0.995   6.728
  131OSM    H3F14124   1.492   0.971   6.725
  131OSM    H3G14125   1.611   1.105   6.716
  131OSM    C4F14126   1.647   0.955   6.868
  131OSM    H4F14127   1.579   1.001   6.943
  131OSM    H4G14128   1.748   0.996   6.890
  131OSM    C5F14129   1.647   0.803   6.891
  131OSM    H5F14130   1.678   0.786   6.997
  131OSM    H5G14131   1.724   0.753   6.828
  131OSM    C6F14132   1.509   0.743   6.863
  131OSM    H6F14133   1.496   0.734   6.753
  131OSM    H6G14134   1.430   0.811   6.900
  131OSM    C7F14135   1.489   0.605   6.926
  131OSM    H7F14136   1.573   0.540   6.895
  131OSM    H7G14137   1.397   0.557   6.886
  131OSM    C8F14138   1.483   0.611   7.079
  131OSM    H8F14139   1.557   0.683   7.120
  131OSM    H8G14140   1.516   0.511   7.115
  131OSM    C9F14141   1.345   0.646   7.127
  131OSM    H9F14142   1.305   0.742   7.091
  131OSM   C10F14143   1.269   0.571   7.208
  131OSM   H10F14144   1.167   0.604   7.232
  131OSM   C11F14145   1.309   0.437   7.265
  131OSM   H11F14146   1.416   0.412   7.253
  131OSM   H11G14147   1.253   0.359   7.209
  131OSM   C12F14148   1.276   0.424   7.414
  131OSM   H12F14149   1.284   0.316   7.439
  131OSM   H12G14150   1.172   0.457   7.433
  131OSM   C13F14151   1.369   0.493   7.513
  131OSM   H13F14152   1.356   0.603   7.508
  131OSM   H13G14153   1.473   0.469   7.483
  131OSM   C14F14154   1.346   0.440   7.656
  131OSM   H14F14155   1.423   0.485   7.723
  131OSM   H14G14156   1.362   0.330   7.655
  131OSM   C15F14157   1.207   0.466   7.717
  131OSM   H15F14158   1.156   0.370   7.739
  131OSM   H15G14159   1.144   0.519   7.642
  131OSM   C16F14160   1.215   0.550   7.845
  131OSM   H16F14161   1.280   0.639   7.826
  131OSM   H16G14162   1.263   0.489   7.924
  131OSM   C17F14163   1.081   0.599   7.900
  131OSM   H17F14164   1.030   0.514   7.952
  131OSM   H17G14165   1.017   0.631   7.815
  131OSM   C18F14166   1.093   0.719   7.993
  131OSM   H18F14167   1.169   0.700   8.072
  131OSM   H18G14168   0.995   0.741   8.040
  131OSM   H18H14169   1.125   0.809   7.936
  132OSM      N14170   1.285   6.910   5.850
  132OSM    C1514171   1.173   6.831   5.912
  132OSM   H15A14172   1.107   6.893   5.972
  132OSM   H15B14173   1.213   6.753   5.975
  132OSM   H15C14174   1.114   6.783   5.836
  132OSM    C1414175   1.367   6.812   5.771
  132OSM   H14A14176   1.310   6.768   5.691
  132OSM   H14B14177   1.402   6.733   5.836
  132OSM   H14C14178   1.456   6.859   5.731
  132OSM    C1314179   1.227   7.011   5.760
  132OSM   H13A14180   1.177   6.963   5.677
  132OSM   H13B14181   1.304   7.075   5.720
  132OSM   H13C14182   1.153   7.072   5.811
  132OSM    C1214183   1.373   6.972   5.958
  132OSM   H12A14184   1.434   6.893   5.999
  132OSM   H12B14185   1.310   7.007   6.038
  132OSM    C1114186   1.472   7.086   5.921
  132OSM   H11A14187   1.527   7.117   6.013
  132OSM   H11B14188   1.413   7.175   5.889
  132OSM      P14189   1.684   6.950   5.849
  132OSM    O1314190   1.676   6.839   5.753
  132OSM    O1414191   1.810   7.028   5.852
  132OSM    O1114192   1.652   6.900   5.996
  132OSM    O1214193   1.564   7.050   5.817
  132OSM    C1S14194   1.675   6.763   6.030
  132OSM    H1S14195   1.782   6.735   6.012
  132OSM    H1T14196   1.615   6.695   5.966
  132OSM     NF14197   1.509   6.777   6.224
  132OSM    HNF14198   1.503   6.825   6.311
  132OSM    C2S14199   1.642   6.732   6.181
  132OSM    H2S14200   1.646   6.622   6.195
  132OSM    C3S14201   1.757   6.793   6.267
  132OSM    H3S14202   1.773   6.899   6.237
  132OSM     O314203   1.881   6.725   6.248
  132OSM    HO314204   1.867   6.662   6.177
  132OSM    C4S14205   1.727   6.787   6.415
  132OSM    H4S14206   1.702   6.687   6.454
  132OSM    C5S14207   1.732   6.893   6.498
  132OSM    H5S14208   1.762   6.991   6.456
  132OSM    C6S14209   1.704   6.896   6.646
  132OSM    H6S14210   1.634   6.980   6.668
  132OSM    H6T14211   1.799   6.920   6.699
  132OSM    C7S14212   1.645   6.770   6.711
  132OSM    H7S14213   1.709   6.681   6.691
  132OSM    H7T14214   1.545   6.749   6.668
  132OSM    C8S14215   1.630   6.787   6.864
  132OSM    H8S14216   1.551   6.717   6.900
  132OSM    H8T14217   1.596   6.890   6.886
  132OSM    C9S14218   1.759   6.755   6.939
  132OSM    H9S14219   1.846   6.794   6.882
  132OSM    H9T14220   1.768   6.644   6.943
  132OSM   C10S14221   1.768   6.808   7.082
  132OSM   H10S14222   1.772   6.919   7.076
  132OSM   H10T14223   1.864   6.774   7.126
  132OSM   C11S14224   1.653   6.766   7.174
  132OSM   H11S14225   1.656   6.655   7.179
  132OSM   H11T14226   1.556   6.794   7.127
  132OSM   C12S14227   1.656   6.825   7.316
  132OSM   H12S14228   1.576   6.775   7.376
  132OSM   H12T14229   1.628   6.933   7.313
  132OSM   C13S14230   1.790   6.813   7.390
  132OSM   H13S14231   1.872   6.854   7.326
  132OSM   H13T14232   1.814   6.706   7.408
  132OSM   C14S14233   1.795   6.889   7.524
  132OSM   H14S14234   1.810   6.997   7.503
  132OSM   H14T14235   1.885   6.854   7.580
  132OSM   C15S14236   1.670   6.872   7.612
  132OSM   H15S14237   1.635   6.767   7.605
  132OSM   H15T14238   1.590   6.937   7.571
  132OSM   C16S14239   1.693   6.906   7.760
  132OSM   H16S14240   1.768   6.835   7.800
  132OSM   H16T14241   1.599   6.890   7.817
  132OSM   C17S14242   1.743   7.049   7.785
  132OSM   H17S14243   1.662   7.108   7.833
  132OSM   H17T14244   1.765   7.099   7.689
  132OSM   C18S14245   1.869   7.054   7.873
  132OSM   H18S14246   1.949   6.990   7.829
  132OSM   H18T14247   1.846   7.016   7.975
  132OSM   H18U14248   1.908   7.157   7.881
  132OSM    C1F14249   1.397   6.740   6.163
  132OSM     OF14250   1.400   6.687   6.053
  132OSM    C2F14251   1.264   6.763   6.228
  132OSM    H2F14252   1.192   6.692   6.182
  132OSM    H2G14253   1.229   6.866   6.202
  132OSM    C3F14254   1.259   6.744   6.380
  132OSM    H3F14255   1.345   6.687   6.421
  132OSM    H3G14256   1.169   6.682   6.401
  132OSM    C4F14257   1.238   6.877   6.455
  132OSM    H4F14258   1.184   6.851   6.549
  132OSM    H4G14259   1.169   6.943   6.398
  132OSM    C5F14260   1.369   6.949   6.487
  132OSM    H5F14261   1.428   6.965   6.394
  132OSM    H5G14262   1.428   6.882   6.554
  132OSM    C6F14263   1.354   7.085   6.557
  132OSM    H6F14264   1.345   7.162   6.478
  132OSM    H6G14265   1.447   7.106   6.613
  132OSM    C7F14266   1.233   7.100   6.652
  132OSM    H7F14267   1.141   7.090   6.590
  132OSM    H7G14268   1.230   7.203   6.693
  132OSM    C8F14269   1.223   6.995   6.764
  132OSM    H8F14270   1.270   6.900   6.731
  132OSM    H8G14271   1.115   6.972   6.779
  132OSM    C9F14272   1.283   7.037   6.894
  132OSM    H9F14273   1.296   7.146   6.906
  132OSM   C10F14274   1.306   6.956   6.998
  132OSM   H10F14275   1.350   6.998   7.090
  132OSM   C11F14276   1.272   6.809   7.004
  132OSM   H11F14277   1.363   6.747   6.989
  132OSM   H11G14278   1.199   6.781   6.926
  132OSM   C12F14279   1.212   6.776   7.142
  132OSM   H12F14280   1.129   6.845   7.166
  132OSM   H12G14281   1.291   6.791   7.219
  132OSM   C13F14282   1.157   6.633   7.151
  132OSM   H13F14283   1.200   6.574   7.067
  132OSM   H13G14284   1.047   6.636   7.139
  132OSM   C14F14285   1.193   6.564   7.282
  132OSM   H14F14286   1.297   6.597   7.302
  132OSM   H14G14287   1.192   6.453   7.269
  132OSM   C15F14288   1.107   6.599   7.404
  132OSM   H15F14289   1.002   6.568   7.386
  132OSM   H15G14290   1.108   6.710   7.416
  132OSM   C16F14291   1.158   6.534   7.535
  132OSM   H16F14292   1.124   6.429   7.540
  132OSM   H16G14293   1.114   6.588   7.621
  132OSM   C17F14294   1.311   6.536   7.545
  132OSM   H17F14295   1.348   6.637   7.515
  132OSM   H17G14296   1.348   6.463   7.470
  132OSM   C18F14297   1.374   6.498   7.678
  132OSM   H18F14298   1.308   6.522   7.764
  132OSM   H18G14299   1.471   6.549   7.691
  132OSM   H18H14300   1.393   6.388   7.680
  133SAPE     N14301   2.742   3.874  10.151
  133SAPE   HN114302   2.693   3.855  10.061
  133SAPE   HN214303   2.672   3.902  10.223
  133SAPE   HN314304   2.808   3.953  10.135
  133SAPE   C1214305   2.817   3.749  10.187
  133SAPE  H12A14306   2.745   3.682  10.239
  133SAPE  H12B14307   2.900   3.776  10.255
  133SAPE   C1114308   2.867   3.681  10.059
  133SAPE  H11A14309   2.913   3.582  10.083
  133SAPE  H11B14310   2.950   3.741  10.015
  133SAPE     P14311   2.670   3.543   9.954
  133SAPE   O1314312   2.740   3.433   9.886
  133SAPE   O1414313   2.619   3.514  10.091
  133SAPE   O1214314   2.762   3.671   9.964
  133SAPE   O1114315   2.550   3.594   9.866
  133SAPE    C114316   2.436   3.660   9.922
  133SAPE    HA14317   2.350   3.590   9.911
  133SAPE    HB14318   2.445   3.684  10.030
  133SAPE    C214319   2.395   3.790   9.846
  133SAPE    HS14320   2.285   3.803   9.857
  133SAPE   O2114321   2.430   3.779   9.706
  133SAPE   C2114322   2.359   3.687   9.642
  133SAPE   O2214323   2.257   3.634   9.684
  133SAPE   C2214324   2.426   3.650   9.511
  133SAPE   H2R14325   2.536   3.653   9.526
  133SAPE   H2S14326   2.397   3.545   9.489
  133SAPE    C314327   2.458   3.919   9.909
  133SAPE    HX14328   2.418   3.926  10.012
  133SAPE    HY14329   2.415   4.005   9.853
  133SAPE   O3114330   2.603   3.919   9.915
  133SAPE   C3114331   2.664   3.997   9.824
  133SAPE   O3214332   2.611   4.077   9.750
  133SAPE   C3214333   2.812   3.966   9.820
  133SAPE   H2X14334   2.847   3.925   9.917
  133SAPE   H2Y14335   2.868   4.059   9.797
  133SAPE   C2314336   2.382   3.737   9.391
  133SAPE   H3R14337   2.271   3.744   9.386
  133SAPE   H3S14338   2.413   3.684   9.298
  133SAPE   C2414339   2.441   3.880   9.386
  133SAPE   H4R14340   2.385   3.941   9.459
  133SAPE   H4S14341   2.419   3.922   9.286
  133SAPE   C2514342   2.588   3.893   9.418
  133SAPE   H5R14343   2.614   3.858   9.519
  133SAPE   C2614344   2.687   3.943   9.341
  133SAPE   H6R14345   2.789   3.942   9.382
  133SAPE   C2714346   2.678   4.000   9.202
  133SAPE   H7R14347   2.588   3.960   9.149
  133SAPE   H7S14348   2.765   3.965   9.143
  133SAPE   C2814349   2.674   4.151   9.205
  133SAPE   H8R14350   2.671   4.197   9.305
  133SAPE   C2914351   2.672   4.230   9.097
  133SAPE   H9R14352   2.669   4.339   9.112
  133SAPE  C21014353   2.674   4.182   8.953
  133SAPE  H10R14354   2.614   4.088   8.944
  133SAPE  H10S14355   2.778   4.155   8.926
  133SAPE  C21114356   2.620   4.284   8.855
  133SAPE  H11R14357   2.577   4.375   8.898
  133SAPE  C21214358   2.617   4.267   8.721
  133SAPE  H12R14359   2.573   4.346   8.659
  133SAPE  C21314360   2.667   4.146   8.645
  133SAPE  H13R14361   2.756   4.105   8.696
  133SAPE  H13S14362   2.703   4.180   8.546
  133SAPE  C21414363   2.564   4.036   8.634
  133SAPE  H14R14364   2.508   4.016   8.726
  133SAPE  C21514365   2.538   3.960   8.525
  133SAPE  H15R14366   2.461   3.882   8.532
  133SAPE  C21614367   2.607   3.971   8.391
  133SAPE  H16R14368   2.690   3.897   8.387
  133SAPE  H16S14369   2.651   4.072   8.377
  133SAPE  C21714370   2.515   3.944   8.270
  133SAPE  H17R14371   2.434   4.021   8.265
  133SAPE  H17S14372   2.463   3.847   8.283
  133SAPE  C21814373   2.589   3.942   8.134
  133SAPE  H18R14374   2.515   3.959   8.053
  133SAPE  H18S14375   2.630   3.840   8.121
  133SAPE  C21914376   2.707   4.040   8.117
  133SAPE  H19R14377   2.762   4.008   8.025
  133SAPE  H19S14378   2.780   4.028   8.200
  133SAPE  C22014379   2.672   4.188   8.100
  133SAPE  H20R14380   2.756   4.243   8.052
  133SAPE  H20S14381   2.654   4.235   8.199
  133SAPE  H20T14382   2.581   4.200   8.037
  133SAPE   C3314383   2.828   3.863   9.709
  133SAPE   H3X14384   2.806   3.912   9.612
  133SAPE   H3Y14385   2.753   3.782   9.726
  133SAPE   C3414386   2.963   3.794   9.697
  133SAPE   H4X14387   2.974   3.719   9.778
  133SAPE   H4Y14388   3.046   3.868   9.709
  133SAPE   C3514389   2.975   3.726   9.560
  133SAPE   H5X14390   3.068   3.666   9.560
  133SAPE   H5Y14391   2.986   3.806   9.484
  133SAPE   C3614392   2.853   3.639   9.521
  133SAPE   H6X14393   2.757   3.685   9.553
  133SAPE   H6Y14394   2.858   3.541   9.574
  133SAPE   C3714395   2.837   3.623   9.370
  133SAPE   H7X14396   2.932   3.591   9.322
  133SAPE   H7Y14397   2.817   3.723   9.326
  133SAPE   C3814398   2.724   3.528   9.329
  133SAPE   H8X14399   2.643   3.527   9.405
  133SAPE   H8Y14400   2.764   3.424   9.326
  133SAPE   C3914401   2.665   3.568   9.192
  133SAPE   H9X14402   2.745   3.612   9.129
  133SAPE   H9Y14403   2.591   3.649   9.208
  133SAPE  C31014404   2.603   3.450   9.116
  133SAPE  H10X14405   2.582   3.367   9.186
  133SAPE  H10Y14406   2.676   3.414   9.040
  133SAPE  C31114407   2.476   3.486   9.041
  133SAPE  H11X14408   2.493   3.575   8.976
  133SAPE  H11Y14409   2.399   3.513   9.116
  133SAPE  C31214410   2.423   3.369   8.956
  133SAPE  H12X14411   2.319   3.393   8.926
  133SAPE  H12Y14412   2.419   3.279   9.021
  133SAPE  C31314413   2.504   3.337   8.830
  133SAPE  H13X14414   2.451   3.253   8.779
  133SAPE  H13Y14415   2.605   3.301   8.857
  133SAPE  C31414416   2.517   3.452   8.729
  133SAPE  H14X14417   2.607   3.513   8.752
  133SAPE  H14Y14418   2.428   3.519   8.738
  133SAPE  C31514419   2.523   3.401   8.584
  133SAPE  H15X14420   2.431   3.342   8.563
  133SAPE  H15Y14421   2.609   3.331   8.572
  133SAPE  C31614422   2.536   3.511   8.478
  133SAPE  H16X14423   2.638   3.554   8.481
  133SAPE  H16Y14424   2.465   3.593   8.500
  133SAPE  C31714425   2.507   3.456   8.337
  133SAPE  H17X14426   2.397   3.441   8.328
  133SAPE  H17Y14427   2.554   3.357   8.326
  133SAPE  C31814428   2.556   3.547   8.223
  133SAPE  H18X14429   2.532   3.653   8.245
  133SAPE  H18Y14430   2.506   3.519   8.128
  133SAPE  H18Z14431   2.665   3.537   8.211
  134SAPE     N14432   5.372   2.992  10.269
  134SAPE   HN114433   5.350   2.939  10.182
  134SAPE   HN214434   5.315   2.955  10.347
  134SAPE   HN314435   5.341   3.090  10.249
  134SAPE   C1214436   5.520   2.989  10.298
  134SAPE  H12A14437   5.545   2.888  10.336
  134SAPE  H12B14438   5.541   3.064  10.377
  134SAPE   C1114439   5.602   3.020  10.171
  134SAPE  H11A14440   5.588   2.939  10.097
  134SAPE  H11B14441   5.710   3.017  10.199
  134SAPE     P14442   5.505   3.168   9.978
  134SAPE   O1314443   5.590   3.098   9.880
  134SAPE   O1414444   5.365   3.121   9.996
  134SAPE   O1214445   5.571   3.151  10.122
  134SAPE   O1114446   5.512   3.325   9.961
  134SAPE    C114447   5.397   3.409   9.963
  134SAPE    HA14448   5.301   3.353   9.974
  134SAPE    HB14449   5.404   3.479  10.049
  134SAPE    C214450   5.382   3.493   9.833
  134SAPE    HS14451   5.292   3.556   9.847
  134SAPE   O2114452   5.360   3.402   9.723
  134SAPE   C2114453   5.334   3.465   9.609
  134SAPE   O2214454   5.299   3.581   9.600
  134SAPE   C2214455   5.361   3.369   9.494
  134SAPE   H2R14456   5.422   3.285   9.532
  134SAPE   H2S14457   5.263   3.329   9.462
  134SAPE    C314458   5.504   3.589   9.808
  134SAPE    HX14459   5.558   3.601   9.904
  134SAPE    HY14460   5.461   3.688   9.781
  134SAPE   O3114461   5.588   3.547   9.699
  134SAPE   C3114462   5.717   3.537   9.718
  134SAPE   O3214463   5.778   3.565   9.820
  134SAPE   C3214464   5.782   3.489   9.588
  134SAPE   H2X14465   5.891   3.504   9.595
  134SAPE   H2Y14466   5.742   3.554   9.507
  134SAPE   C2314467   5.435   3.434   9.374
  134SAPE   H3R14468   5.463   3.353   9.304
  134SAPE   H3S14469   5.529   3.481   9.411
  134SAPE   C2414470   5.355   3.541   9.297
  134SAPE   H4R14471   5.418   3.572   9.210
  134SAPE   H4S14472   5.346   3.631   9.361
  134SAPE   C2514473   5.218   3.499   9.250
  134SAPE   H5R14474   5.136   3.537   9.312
  134SAPE   C2614475   5.189   3.419   9.146
  134SAPE   H6R14476   5.084   3.398   9.123
  134SAPE   C2714477   5.288   3.353   9.052
  134SAPE   H7R14478   5.280   3.243   9.061
  134SAPE   H7S14479   5.392   3.378   9.081
  134SAPE   C2814480   5.264   3.394   8.909
  134SAPE   H8R14481   5.205   3.324   8.847
  134SAPE   C2914482   5.310   3.508   8.854
  134SAPE   H9R14483   5.287   3.529   8.749
  134SAPE  C21014484   5.390   3.610   8.930
  134SAPE  H10R14485   5.486   3.564   8.963
  134SAPE  H10S14486   5.337   3.639   9.023
  134SAPE  C21114487   5.419   3.736   8.853
  134SAPE  H11R14488   5.358   3.823   8.880
  134SAPE  C21214489   5.515   3.751   8.760
  134SAPE  H12R14490   5.522   3.848   8.708
  134SAPE  C21314491   5.611   3.644   8.717
  134SAPE  H13R14492   5.567   3.543   8.731
  134SAPE  H13S14493   5.698   3.647   8.787
  134SAPE  C21414494   5.664   3.659   8.577
  134SAPE  H14R14495   5.754   3.722   8.568
  134SAPE  C21514496   5.612   3.604   8.467
  134SAPE  H15R14497   5.658   3.626   8.370
  134SAPE  C21614498   5.490   3.516   8.462
  134SAPE  H16R14499   5.489   3.443   8.546
  134SAPE  H16S14500   5.494   3.455   8.369
  134SAPE  C21714501   5.358   3.595   8.465
  134SAPE  H17R14502   5.369   3.693   8.413
  134SAPE  H17S14503   5.333   3.619   8.571
  134SAPE  C21814504   5.241   3.523   8.398
  134SAPE  H18R14505   5.146   3.572   8.427
  134SAPE  H18S14506   5.236   3.418   8.434
  134SAPE  C21914507   5.253   3.526   8.245
  134SAPE  H19R14508   5.342   3.466   8.216
  134SAPE  H19S14509   5.274   3.631   8.214
  134SAPE  C22014510   5.132   3.473   8.169
  134SAPE  H20R14511   5.041   3.532   8.194
  134SAPE  H20S14512   5.114   3.366   8.194
  134SAPE  H20T14513   5.150   3.480   8.059
  134SAPE   C3314514   5.748   3.342   9.556
  134SAPE   H3X14515   5.642   3.321   9.582
  134SAPE   H3Y14516   5.811   3.274   9.618
  134SAPE   C3414517   5.766   3.307   9.407
  134SAPE   H4X14518   5.872   3.324   9.377
  134SAPE   H4Y14519   5.704   3.374   9.344
  134SAPE   C3514520   5.730   3.162   9.377
  134SAPE   H5X14521   5.624   3.143   9.406
  134SAPE   H5Y14522   5.794   3.095   9.438
  134SAPE   C3614523   5.749   3.126   9.229
  134SAPE   H6X14524   5.850   3.158   9.196
  134SAPE   H6Y14525   5.675   3.183   9.168
  134SAPE   C3714526   5.734   2.976   9.204
  134SAPE   H7X14527   5.631   2.944   9.232
  134SAPE   H7Y14528   5.805   2.922   9.270
  134SAPE   C3814529   5.762   2.934   9.059
  134SAPE   H8X14530   5.760   2.823   9.054
  134SAPE   H8Y14531   5.863   2.968   9.029
  134SAPE   C3914532   5.658   2.986   8.959
  134SAPE   H9X14533   5.661   3.097   8.957
  134SAPE   H9Y14534   5.557   2.955   8.992
  134SAPE  C31014535   5.682   2.933   8.816
  134SAPE  H10X14536   5.697   2.823   8.822
  134SAPE  H10Y14537   5.775   2.978   8.775
  134SAPE  C31114538   5.564   2.961   8.722
  134SAPE  H11X14539   5.473   2.916   8.766
  134SAPE  H11Y14540   5.583   2.910   8.625
  134SAPE  C31214541   5.539   3.110   8.696
  134SAPE  H12X14542   5.622   3.151   8.634
  134SAPE  H12Y14543   5.539   3.166   8.792
  134SAPE  C31314544   5.404   3.136   8.627
  134SAPE  H13X14545   5.392   3.245   8.613
  134SAPE  H13Y14546   5.322   3.101   8.693
  134SAPE  C31414547   5.392   3.066   8.491
  134SAPE  H14X14548   5.400   2.956   8.503
  134SAPE  H14Y14549   5.475   3.101   8.427
  134SAPE  C31514550   5.257   3.098   8.425
  134SAPE  H15X14551   5.249   3.208   8.414
  134SAPE  H15Y14552   5.176   3.065   8.493
  134SAPE  C31614553   5.237   3.033   8.288
  134SAPE  H16X14554   5.145   3.077   8.242
  134SAPE  H16Y14555   5.221   2.924   8.301
  134SAPE  C31714556   5.351   3.055   8.188
  134SAPE  H17X14557   5.323   3.006   8.093
  134SAPE  H17Y14558   5.442   3.005   8.227
  134SAPE  C31814559   5.382   3.202   8.161
  134SAPE  H18X14560   5.405   3.256   8.255
  134SAPE  H18Y14561   5.296   3.251   8.111
  134SAPE  H18Z14562   5.471   3.212   8.094
  135SAPE     N14563   4.959   2.400   9.934
  135SAPE   HN114564   4.860   2.390   9.966
  135SAPE   HN214565   4.961   2.397   9.830
  135SAPE   HN314566   5.017   2.321   9.969
  135SAPE   C1214567   5.018   2.529   9.983
  135SAPE  H12A14568   4.982   2.546  10.086
  135SAPE  H12B14569   4.980   2.611   9.917
  135SAPE   C1114570   5.172   2.524   9.982
  135SAPE  H11A14571   5.210   2.623  10.013
  135SAPE  H11B14572   5.208   2.508   9.878
  135SAPE     P14573   5.271   2.284  10.027
  135SAPE   O1314574   5.347   2.218  10.135
  135SAPE   O1414575   5.151   2.213   9.974
  135SAPE   O1214576   5.220   2.426  10.074
  135SAPE   O1114577   5.367   2.319   9.907
  135SAPE    C114578   5.348   2.265   9.777
  135SAPE    HA14579   5.401   2.167   9.771
  135SAPE    HB14580   5.241   2.250   9.752
  135SAPE    C214581   5.407   2.358   9.667
  135SAPE    HS14582   5.513   2.379   9.692
  135SAPE   O2114583   5.327   2.477   9.667
  135SAPE   C2114584   5.386   2.585   9.617
  135SAPE   O2214585   5.501   2.594   9.580
  135SAPE   C2214586   5.283   2.698   9.616
  135SAPE   H2R14587   5.273   2.733   9.721
  135SAPE   H2S14588   5.325   2.782   9.556
  135SAPE    C314589   5.398   2.288   9.529
  135SAPE    HX14590   5.291   2.286   9.499
  135SAPE    HY14591   5.434   2.184   9.542
  135SAPE   O3114592   5.478   2.354   9.429
  135SAPE   C3114593   5.468   2.295   9.310
  135SAPE   O3214594   5.399   2.197   9.287
  135SAPE   C3214595   5.563   2.362   9.212
  135SAPE   H2X14596   5.582   2.289   9.130
  135SAPE   H2Y14597   5.659   2.382   9.265
  135SAPE   C2314598   5.145   2.655   9.562
  135SAPE   H3R14599   5.069   2.685   9.637
  135SAPE   H3S14600   5.135   2.545   9.550
  135SAPE   C2414601   5.107   2.724   9.430
  135SAPE   H4R14602   5.110   2.833   9.453
  135SAPE   H4S14603   5.001   2.700   9.407
  135SAPE   C2514604   5.195   2.694   9.312
  135SAPE   H5R14605   5.270   2.771   9.289
  135SAPE   C2614606   5.190   2.583   9.235
  135SAPE   H6R14607   5.257   2.579   9.147
  135SAPE   C2714608   5.098   2.464   9.249
  135SAPE   H7R14609   5.032   2.475   9.337
  135SAPE   H7S14610   5.160   2.374   9.269
  135SAPE   C2814611   5.013   2.441   9.127
  135SAPE   H8R14612   4.908   2.469   9.139
  135SAPE   C2914613   5.053   2.395   9.006
  135SAPE   H9R14614   4.977   2.384   8.927
  135SAPE  C21014615   5.194   2.358   8.966
  135SAPE  H10R14616   5.250   2.324   9.055
  135SAPE  H10S14617   5.245   2.451   8.932
  135SAPE  C21114618   5.210   2.255   8.856
  135SAPE  H11R14619   5.264   2.164   8.887
  135SAPE  C21214620   5.168   2.264   8.729
  135SAPE  H12R14621   5.192   2.181   8.660
  135SAPE  C21314622   5.094   2.379   8.665
  135SAPE  H13R14623   5.163   2.430   8.594
  135SAPE  H13S14624   5.067   2.456   8.740
  135SAPE  C21414625   4.969   2.332   8.594
  135SAPE  H14R14626   4.917   2.246   8.638
  135SAPE  C21514627   4.915   2.391   8.485
  135SAPE  H15R14628   4.823   2.349   8.441
  135SAPE  C21614629   4.972   2.512   8.417
  135SAPE  H16R14630   5.017   2.580   8.492
  135SAPE  H16S14631   4.891   2.570   8.368
  135SAPE  C21714632   5.081   2.482   8.314
  135SAPE  H17R14633   5.035   2.432   8.226
  135SAPE  H17S14634   5.158   2.414   8.357
  135SAPE  C21814635   5.152   2.611   8.268
  135SAPE  H18R14636   5.202   2.660   8.354
  135SAPE  H18S14637   5.075   2.681   8.228
  135SAPE  C21914638   5.255   2.583   8.158
  135SAPE  H19R14639   5.205   2.521   8.081
  135SAPE  H19S14640   5.339   2.523   8.200
  135SAPE  C22014641   5.309   2.710   8.092
  135SAPE  H20R14642   5.377   2.684   8.009
  135SAPE  H20S14643   5.365   2.771   8.167
  135SAPE  H20T14644   5.226   2.771   8.052
  135SAPE   C3314645   5.508   2.492   9.152
  135SAPE   H3X14646   5.473   2.559   9.233
  135SAPE   H3Y14647   5.422   2.468   9.086
  135SAPE   C3414648   5.612   2.568   9.069
  135SAPE   H4X14649   5.686   2.612   9.139
  135SAPE   H4Y14650   5.562   2.653   9.016
  135SAPE   C3514651   5.687   2.483   8.966
  135SAPE   H5X14652   5.747   2.405   9.018
  135SAPE   H5Y14653   5.758   2.549   8.912
  135SAPE   C3614654   5.602   2.414   8.861
  135SAPE   H6X14655   5.538   2.490   8.811
  135SAPE   H6Y14656   5.535   2.338   8.908
  135SAPE   C3714657   5.692   2.345   8.758
  135SAPE   H7X14658   5.761   2.275   8.810
  135SAPE   H7Y14659   5.756   2.421   8.709
  135SAPE   C3814660   5.614   2.269   8.651
  135SAPE   H8X14661   5.548   2.193   8.698
  135SAPE   H8Y14662   5.688   2.215   8.588
  135SAPE   C3914663   5.532   2.365   8.564
  135SAPE   H9X14664   5.600   2.444   8.527
  135SAPE   H9Y14665   5.453   2.414   8.626
  135SAPE  C31014666   5.464   2.299   8.444
  135SAPE  H10X14667   5.418   2.378   8.382
  135SAPE  H10Y14668   5.382   2.232   8.479
  135SAPE  C31114669   5.560   2.216   8.358
  135SAPE  H11X14670   5.587   2.124   8.414
  135SAPE  H11Y14671   5.654   2.273   8.339
  135SAPE  C31214672   5.497   2.178   8.225
  135SAPE  H12X14673   5.514   2.258   8.150
  135SAPE  H12Y14674   5.387   2.170   8.240
  135SAPE  C31314675   5.546   2.042   8.172
  135SAPE  H13X14676   5.500   2.023   8.073
  135SAPE  H13Y14677   5.511   1.963   8.242
  135SAPE  C31414678   5.698   2.029   8.159
  135SAPE  H14X14679   5.718   1.930   8.114
  135SAPE  H14Y14680   5.746   2.031   8.260
  135SAPE  C31514681   5.763   2.136   8.071
  135SAPE  H15X14682   5.831   2.199   8.132
  135SAPE  H15Y14683   5.685   2.202   8.027
  135SAPE  C31614684   5.840   2.072   7.955
  135SAPE  H16X14685   5.766   2.018   7.893
  135SAPE  H16Y14686   5.912   1.998   7.995
  135SAPE  C31714687   5.913   2.174   7.868
  135SAPE  H17X14688   5.842   2.256   7.844
  135SAPE  H17Y14689   5.941   2.125   7.772
  135SAPE  C31814690   6.038   2.232   7.934
  135SAPE  H18X14691   6.012   2.298   8.019
  135SAPE  H18Y14692   6.099   2.289   7.860
  135SAPE  H18Z14693   6.100   2.149   7.975
  136SAPE     N14694   1.826   3.028   9.879
  136SAPE   HN114695   1.731   3.044   9.839
  136SAPE   HN214696   1.856   3.115   9.927
  136SAPE   HN314697   1.893   3.008   9.802
  136SAPE   C1214698   1.827   2.913   9.977
  136SAPE  H12A14699   1.914   2.926  10.044
  136SAPE  H12B14700   1.840   2.820   9.918
  136SAPE   C1114701   1.697   2.907  10.059
  136SAPE  H11A14702   1.608   2.899   9.993
  136SAPE  H11B14703   1.686   3.003  10.115
  136SAPE     P14704   1.663   2.652  10.122
  136SAPE   O1314705   1.772   2.564  10.170
  136SAPE   O1414706   1.527   2.624  10.172
  136SAPE   O1214707   1.703   2.801  10.154
  136SAPE   O1114708   1.663   2.647   9.964
  136SAPE    C114709   1.638   2.521   9.899
  136SAPE    HA14710   1.718   2.447   9.924
  136SAPE    HB14711   1.540   2.480   9.933
  136SAPE    C214712   1.631   2.536   9.744
  136SAPE    HS14713   1.732   2.557   9.705
  136SAPE   O2114714   1.536   2.639   9.711
  136SAPE   C2114715   1.588   2.761   9.710
  136SAPE   O2214716   1.707   2.789   9.710
  136SAPE   C2214717   1.477   2.864   9.710
  136SAPE   H2R14718   1.380   2.816   9.736
  136SAPE   H2S14719   1.501   2.938   9.790
  136SAPE    C314720   1.584   2.402   9.680
  136SAPE    HX14721   1.485   2.380   9.725
  136SAPE    HY14722   1.652   2.320   9.711
  136SAPE   O3114723   1.566   2.408   9.537
  136SAPE   C3114724   1.678   2.391   9.467
  136SAPE   O3214725   1.789   2.372   9.515
  136SAPE   C3214726   1.642   2.387   9.318
  136SAPE   H2X14727   1.559   2.458   9.300
  136SAPE   H2Y14728   1.606   2.284   9.297
  136SAPE   C2314729   1.469   2.937   9.575
  136SAPE   H3R14730   1.569   2.964   9.535
  136SAPE   H3S14731   1.415   3.033   9.593
  136SAPE   C2414732   1.387   2.858   9.471
  136SAPE   H4R14733   1.351   2.935   9.400
  136SAPE   H4S14734   1.298   2.817   9.523
  136SAPE   C2514735   1.456   2.746   9.398
  136SAPE   H5R14736   1.494   2.665   9.462
  136SAPE   C2614737   1.472   2.736   9.265
  136SAPE   H6R14738   1.527   2.650   9.225
  136SAPE   C2714739   1.428   2.833   9.158
  136SAPE   H7R14740   1.317   2.830   9.149
  136SAPE   H7S14741   1.461   2.794   9.059
  136SAPE   C2814742   1.473   2.977   9.171
  136SAPE   H8R14743   1.392   3.051   9.181
  136SAPE   C2914744   1.600   3.020   9.170
  136SAPE   H9R14745   1.621   3.128   9.182
  136SAPE  C21014746   1.722   2.932   9.156
  136SAPE  H10R14747   1.696   2.825   9.142
  136SAPE  H10S14748   1.784   2.937   9.248
  136SAPE  C21114749   1.802   2.980   9.038
  136SAPE  H11R14750   1.888   3.043   9.065
  136SAPE  C21214751   1.784   2.950   8.909
  136SAPE  H12R14752   1.852   2.995   8.835
  136SAPE  C21314753   1.680   2.858   8.850
  136SAPE  H13R14754   1.602   2.833   8.925
  136SAPE  H13S14755   1.729   2.761   8.828
  136SAPE  C21414756   1.615   2.911   8.725
  136SAPE  H14R14757   1.513   2.950   8.738
  136SAPE  C21514758   1.671   2.911   8.603
  136SAPE  H15R14759   1.613   2.949   8.517
  136SAPE  C21614760   1.808   2.859   8.571
  136SAPE  H16R14761   1.879   2.881   8.654
  136SAPE  H16S14762   1.850   2.911   8.483
  136SAPE  C21714763   1.813   2.707   8.547
  136SAPE  H17R14764   1.752   2.651   8.621
  136SAPE  H17S14765   1.917   2.671   8.563
  136SAPE  C21814766   1.774   2.670   8.404
  136SAPE  H18R14767   1.821   2.742   8.333
  136SAPE  H18S14768   1.664   2.678   8.392
  136SAPE  C21914769   1.820   2.529   8.365
  136SAPE  H19R14770   1.777   2.455   8.436
  136SAPE  H19S14771   1.931   2.523   8.372
  136SAPE  C22014772   1.776   2.495   8.223
  136SAPE  H20R14773   1.822   2.565   8.150
  136SAPE  H20S14774   1.666   2.507   8.215
  136SAPE  H20T14775   1.803   2.391   8.195
  136SAPE   C3314776   1.761   2.419   9.223
  136SAPE   H3X14777   1.848   2.355   9.251
  136SAPE   H3Y14778   1.791   2.525   9.235
  136SAPE   C3414779   1.731   2.392   9.074
  136SAPE   H4X14780   1.712   2.283   9.059
  136SAPE   H4Y14781   1.821   2.418   9.016
  136SAPE   C3514782   1.612   2.471   9.017
  136SAPE   H5X14783   1.621   2.578   9.046
  136SAPE   H5Y14784   1.517   2.431   9.060
  136SAPE   C3614785   1.605   2.464   8.864
  136SAPE   H6X14786   1.616   2.359   8.830
  136SAPE   H6Y14787   1.690   2.522   8.823
  136SAPE   C3714788   1.474   2.520   8.806
  136SAPE   H7X14789   1.443   2.610   8.864
  136SAPE   H7Y14790   1.394   2.443   8.817
  136SAPE   C3814791   1.488   2.560   8.659
  136SAPE   H8X14792   1.541   2.482   8.601
  136SAPE   H8Y14793   1.550   2.652   8.654
  136SAPE   C3914794   1.354   2.590   8.591
  136SAPE   H9X14795   1.303   2.667   8.654
  136SAPE   H9Y14796   1.289   2.500   8.589
  136SAPE  C31014797   1.370   2.647   8.449
  136SAPE  H10X14798   1.461   2.710   8.445
  136SAPE  H10Y14799   1.283   2.713   8.429
  136SAPE  C31114800   1.374   2.540   8.339
  136SAPE  H11X14801   1.278   2.483   8.342
  136SAPE  H11Y14802   1.457   2.469   8.359
  136SAPE  C31214803   1.390   2.602   8.199
  136SAPE  H12X14804   1.494   2.640   8.189
  136SAPE  H12Y14805   1.323   2.689   8.190
  136SAPE  C31314806   1.360   2.505   8.083
  136SAPE  H13X14807   1.392   2.554   7.989
  136SAPE  H13Y14808   1.250   2.488   8.076
  136SAPE  C31414809   1.429   2.369   8.094
  136SAPE  H14X14810   1.369   2.299   8.157
  136SAPE  H14Y14811   1.527   2.381   8.146
  136SAPE  C31514812   1.460   2.303   7.959
  136SAPE  H15X14813   1.524   2.214   7.978
  136SAPE  H15Y14814   1.521   2.374   7.900
  136SAPE  C31614815   1.337   2.262   7.877
  136SAPE  H16X14816   1.357   2.283   7.770
  136SAPE  H16Y14817   1.250   2.325   7.906
  136SAPE  C31714818   1.299   2.114   7.885
  136SAPE  H17X14819   1.207   2.100   7.824
  136SAPE  H17Y14820   1.275   2.086   7.990
  136SAPE  C31814821   1.406   2.019   7.833
  136SAPE  H18X14822   1.367   1.915   7.832
  136SAPE  H18Y14823   1.497   2.021   7.897
  136SAPE  H18Z14824   1.436   2.048   7.730
  137SAPE     N14825   5.815   5.077  10.068
  137SAPE   HN114826   5.879   4.995  10.063
  137SAPE   HN214827   5.793   5.101  10.167
  137SAPE   HN314828   5.724   5.057  10.022
  137SAPE   C1214829   5.882   5.196  10.002
  137SAPE  H12A14830   5.935   5.159   9.911
  137SAPE  H12B14831   5.957   5.235  10.074
  137SAPE   C1114832   5.782   5.308   9.964
  137SAPE  H11A14833   5.732   5.283   9.868
  137SAPE  H11B14834   5.840   5.400   9.946
  137SAPE     P14835   5.587   5.451  10.063
  137SAPE   O1314836   5.573   5.499  10.202
  137SAPE   O1414837   5.635   5.547   9.962
  137SAPE   O1214838   5.686   5.326  10.068
  137SAPE   O1114839   5.451   5.385  10.019
  137SAPE    C114840   5.400   5.388   9.885
  137SAPE    HA14841   5.303   5.441   9.886
  137SAPE    HB14842   5.466   5.441   9.813
  137SAPE    C214843   5.376   5.244   9.833
  137SAPE    HS14844   5.350   5.182   9.922
  137SAPE   O2114845   5.492   5.195   9.766
  137SAPE   C2114846   5.558   5.096   9.820
  137SAPE   O2214847   5.554   5.059   9.937
  137SAPE   C2214848   5.642   5.026   9.715
  137SAPE   H2R14849   5.715   5.099   9.674
  137SAPE   H2S14850   5.698   4.945   9.767
  137SAPE    C314851   5.255   5.230   9.735
  137SAPE    HX14852   5.163   5.227   9.798
  137SAPE    HY14853   5.263   5.128   9.691
  137SAPE   O3114854   5.246   5.324   9.624
  137SAPE   C3114855   5.142   5.410   9.631
  137SAPE   O3214856   5.082   5.432   9.735
  137SAPE   C3214857   5.108   5.475   9.495
  137SAPE   H2X14858   5.202   5.491   9.438
  137SAPE   H2Y14859   5.082   5.577   9.531
  137SAPE   C2314860   5.558   4.962   9.602
  137SAPE   H3R14861   5.471   4.910   9.647
  137SAPE   H3S14862   5.619   4.884   9.551
  137SAPE   C2414863   5.507   5.061   9.496
  137SAPE   H4R14864   5.444   5.137   9.547
  137SAPE   H4S14865   5.442   5.007   9.424
  137SAPE   C2514866   5.617   5.128   9.420
  137SAPE   H5R14867   5.676   5.060   9.356
  137SAPE   C2614868   5.649   5.258   9.421
  137SAPE   H6R14869   5.742   5.288   9.371
  137SAPE   C2714870   5.582   5.369   9.499
  137SAPE   H7R14871   5.605   5.357   9.606
  137SAPE   H7S14872   5.471   5.361   9.490
  137SAPE   C2814873   5.626   5.508   9.457
  137SAPE   H8R14874   5.682   5.563   9.534
  137SAPE   C2914875   5.609   5.568   9.337
  137SAPE   H9R14876   5.652   5.668   9.323
  137SAPE  C21014877   5.543   5.511   9.215
  137SAPE  H10R14878   5.482   5.422   9.244
  137SAPE  H10S14879   5.620   5.473   9.145
  137SAPE  C21114880   5.453   5.611   9.147
  137SAPE  H11R14881   5.404   5.683   9.214
  137SAPE  C21214882   5.426   5.617   9.015
  137SAPE  H12R14883   5.354   5.693   8.981
  137SAPE  C21314884   5.478   5.527   8.905
  137SAPE  H13R14885   5.408   5.441   8.893
  137SAPE  H13S14886   5.573   5.479   8.935
  137SAPE  C21414887   5.494   5.594   8.771
  137SAPE  H14R14888   5.597   5.618   8.741
  137SAPE  C21514889   5.395   5.631   8.686
  137SAPE  H15R14890   5.422   5.675   8.589
  137SAPE  C21614891   5.249   5.611   8.711
  137SAPE  H16R14892   5.187   5.694   8.669
  137SAPE  H16S14893   5.227   5.612   8.820
  137SAPE  C21714894   5.199   5.477   8.656
  137SAPE  H17R14895   5.097   5.465   8.698
  137SAPE  H17S14896   5.263   5.395   8.694
  137SAPE  C21814897   5.185   5.464   8.505
  137SAPE  H18R14898   5.284   5.468   8.455
  137SAPE  H18S14899   5.123   5.548   8.468
  137SAPE  C21914900   5.115   5.332   8.471
  137SAPE  H19R14901   5.029   5.321   8.541
  137SAPE  H19S14902   5.184   5.246   8.488
  137SAPE  C22014903   5.054   5.327   8.333
  137SAPE  H20R14904   4.990   5.416   8.318
  137SAPE  H20S14905   4.991   5.236   8.319
  137SAPE  H20T14906   5.132   5.331   8.253
  137SAPE   C3314907   4.984   5.421   9.411
  137SAPE   H3X14908   4.905   5.498   9.426
  137SAPE   H3Y14909   4.938   5.333   9.461
  137SAPE   C3414910   4.991   5.398   9.255
  137SAPE   H4X14911   5.084   5.440   9.209
  137SAPE   H4Y14912   4.921   5.477   9.221
  137SAPE   C3514913   4.925   5.271   9.184
  137SAPE   H5X14914   4.869   5.317   9.100
  137SAPE   H5Y14915   4.845   5.246   9.258
  137SAPE   C3614916   4.971   5.133   9.110
  137SAPE   H6X14917   4.944   5.142   9.003
  137SAPE   H6Y14918   4.884   5.072   9.143
  137SAPE   C3714919   5.083   5.018   9.121
  137SAPE   H7X14920   5.025   4.935   9.075
  137SAPE   H7Y14921   5.098   4.976   9.223
  137SAPE   C3814922   5.217   5.000   9.038
  137SAPE   H8X14923   5.241   5.086   8.972
  137SAPE   H8Y14924   5.199   4.919   8.964
  137SAPE   C3914925   5.355   4.976   9.106
  137SAPE   H9X14926   5.346   4.889   9.174
  137SAPE   H9Y14927   5.386   5.062   9.168
  137SAPE  C31014928   5.474   4.954   9.009
  137SAPE  H10X14929   5.441   4.891   8.924
  137SAPE  H10Y14930   5.555   4.900   9.063
  137SAPE  C31114931   5.535   5.084   8.953
  137SAPE  H11X14932   5.592   5.139   9.031
  137SAPE  H11Y14933   5.452   5.149   8.918
  137SAPE  C31214934   5.620   5.063   8.828
  137SAPE  H12X14935   5.566   4.990   8.764
  137SAPE  H12Y14936   5.719   5.018   8.854
  137SAPE  C31314937   5.640   5.193   8.749
  137SAPE  H13X14938   5.687   5.269   8.815
  137SAPE  H13Y14939   5.540   5.233   8.720
  137SAPE  C31414940   5.725   5.175   8.623
  137SAPE  H14X14941   5.826   5.141   8.652
  137SAPE  H14Y14942   5.736   5.273   8.572
  137SAPE  C31514943   5.663   5.075   8.524
  137SAPE  H15X14944   5.566   5.117   8.490
  137SAPE  H15Y14945   5.641   4.978   8.575
  137SAPE  C31614946   5.752   5.042   8.404
  137SAPE  H16X14947   5.825   4.965   8.435
  137SAPE  H16Y14948   5.808   5.132   8.372
  137SAPE  C31714949   5.669   4.991   8.286
  137SAPE  H17X14950   5.651   5.076   8.218
  137SAPE  H17Y14951   5.571   4.958   8.328
  137SAPE  C31814952   5.725   4.875   8.205
  137SAPE  H18X14953   5.648   4.838   8.133
  137SAPE  H18Y14954   5.755   4.791   8.271
  137SAPE  H18Z14955   5.813   4.909   8.145
  138SAPE     N14956   2.987   6.533  10.169
  138SAPE   HN114957   2.901   6.587  10.191
  138SAPE   HN214958   3.008   6.550  10.068
  138SAPE   HN314959   2.967   6.431  10.177
  138SAPE   C1214960   3.109   6.576  10.248
  138SAPE  H12A14961   3.123   6.503  10.331
  138SAPE  H12B14962   3.088   6.676  10.291
  138SAPE   C1114963   3.237   6.583  10.161
  138SAPE  H11A14964   3.258   6.485  10.113
  138SAPE  H11B14965   3.322   6.603  10.229
  138SAPE     P14966   3.184   6.666   9.918
  138SAPE   O1314967   3.069   6.572   9.925
  138SAPE   O1414968   3.162   6.794   9.851
  138SAPE   O1214969   3.230   6.691  10.067
  138SAPE   O1114970   3.308   6.590   9.853
  138SAPE    C114971   3.279   6.546   9.718
  138SAPE    HA14972   3.177   6.503   9.709
  138SAPE    HB14973   3.286   6.630   9.647
  138SAPE    C214974   3.373   6.433   9.669
  138SAPE    HS14975   3.406   6.372   9.755
  138SAPE   O2114976   3.486   6.495   9.604
  138SAPE   C2114977   3.571   6.409   9.553
  138SAPE   O2214978   3.574   6.290   9.571
  138SAPE   C2214979   3.663   6.477   9.457
  138SAPE   H2R14980   3.673   6.583   9.491
  138SAPE   H2S14981   3.761   6.427   9.464
  138SAPE    C314982   3.292   6.343   9.572
  138SAPE    HX14983   3.217   6.289   9.634
  138SAPE    HY14984   3.355   6.264   9.526
  138SAPE   O3114985   3.223   6.424   9.475
  138SAPE   C3114986   3.220   6.384   9.349
  138SAPE   O3214987   3.277   6.287   9.303
  138SAPE   C3214988   3.125   6.471   9.268
  138SAPE   H2X14989   3.061   6.403   9.208
  138SAPE   H2Y14990   3.190   6.529   9.199
  138SAPE   C2314991   3.610   6.468   9.311
  138SAPE   H3R14992   3.511   6.419   9.306
  138SAPE   H3S14993   3.680   6.405   9.253
  138SAPE   C2414994   3.599   6.605   9.243
  138SAPE   H4R14995   3.566   6.587   9.138
  138SAPE   H4S14996   3.700   6.650   9.235
  138SAPE   C2514997   3.505   6.700   9.315
  138SAPE   H5R14998   3.525   6.714   9.422
  138SAPE   C2614999   3.402   6.767   9.260
  138SAPE   H6R15000   3.341   6.831   9.325
  138SAPE   C2715001   3.357   6.764   9.117
  138SAPE   H7R15002   3.263   6.822   9.108
  138SAPE   H7S15003   3.331   6.659   9.089
  138SAPE   C2815004   3.453   6.823   9.018
  138SAPE   H8R15005   3.483   6.927   9.037
  138SAPE   C2915006   3.503   6.760   8.911
  138SAPE   H9R15007   3.566   6.818   8.842
  138SAPE  C21015008   3.476   6.618   8.865
  138SAPE  H10R15009   3.482   6.548   8.951
  138SAPE  H10S15010   3.556   6.586   8.796
  138SAPE  C21115011   3.342   6.602   8.800
  138SAPE  H11R15012   3.272   6.535   8.852
  138SAPE  C21215013   3.302   6.662   8.686
  138SAPE  H12R15014   3.200   6.644   8.649
  138SAPE  C21315015   3.384   6.756   8.601
  138SAPE  H13R15016   3.394   6.711   8.500
  138SAPE  H13S15017   3.489   6.765   8.638
  138SAPE  C21415018   3.324   6.893   8.589
  138SAPE  H14R15019   3.353   6.965   8.667
  138SAPE  C21515020   3.235   6.928   8.495
  138SAPE  H15R15021   3.200   7.032   8.490
  138SAPE  C21615022   3.182   6.838   8.387
  138SAPE  H16R15023   3.073   6.853   8.373
  138SAPE  H16S15024   3.191   6.731   8.417
  138SAPE  C21715025   3.257   6.862   8.255
  138SAPE  H17R15026   3.366   6.853   8.274
  138SAPE  H17S15027   3.243   6.968   8.223
  138SAPE  C21815028   3.223   6.764   8.142
  138SAPE  H18R15029   3.260   6.664   8.173
  138SAPE  H18S15030   3.278   6.792   8.049
  138SAPE  C21915031   3.074   6.743   8.110
  138SAPE  H19R15032   3.036   6.827   8.048
  138SAPE  H19S15033   3.015   6.740   8.204
  138SAPE  C22015034   3.049   6.612   8.035
  138SAPE  H20R15035   2.942   6.582   8.042
  138SAPE  H20S15036   3.110   6.530   8.077
  138SAPE  H20T15037   3.074   6.625   7.927
  138SAPE   C3315038   3.035   6.565   9.353
  138SAPE   H3X15039   3.098   6.635   9.413
  138SAPE   H3Y15040   2.974   6.506   9.424
  138SAPE   C3415041   2.939   6.647   9.267
  138SAPE   H4X15042   2.866   6.701   9.331
  138SAPE   H4Y15043   2.881   6.578   9.202
  138SAPE   C3515044   3.015   6.748   9.182
  138SAPE   H5X15045   3.097   6.695   9.128
  138SAPE   H5Y15046   3.063   6.823   9.248
  138SAPE   C3615047   2.934   6.820   9.074
  138SAPE   H6X15048   3.008   6.882   9.018
  138SAPE   H6Y15049   2.858   6.887   9.120
  138SAPE   C3715050   2.869   6.729   8.969
  138SAPE   H7X15051   2.830   6.793   8.887
  138SAPE   H7Y15052   2.783   6.674   9.013
  138SAPE   C3815053   2.968   6.628   8.908
  138SAPE   H8X15054   2.979   6.542   8.978
  138SAPE   H8Y15055   3.068   6.675   8.897
  138SAPE   C3915056   2.922   6.578   8.770
  138SAPE   H9X15057   2.942   6.658   8.695
  138SAPE   H9Y15058   2.813   6.560   8.773
  138SAPE  C31015059   2.992   6.448   8.729
  138SAPE  H10X15060   2.959   6.368   8.799
  138SAPE  H10Y15061   3.102   6.457   8.740
  138SAPE  C31115062   2.957   6.406   8.585
  138SAPE  H11X15063   2.849   6.421   8.569
  138SAPE  H11Y15064   2.977   6.297   8.579
  138SAPE  C31215065   3.038   6.475   8.474
  138SAPE  H12X15066   3.043   6.585   8.493
  138SAPE  H12Y15067   2.986   6.460   8.377
  138SAPE  C31315068   3.179   6.415   8.463
  138SAPE  H13X15069   3.166   6.305   8.452
  138SAPE  H13Y15070   3.231   6.435   8.559
  138SAPE  C31415071   3.271   6.465   8.351
  138SAPE  H14X15072   3.289   6.574   8.365
  138SAPE  H14Y15073   3.223   6.450   8.252
  138SAPE  C31515074   3.410   6.400   8.354
  138SAPE  H15X15075   3.419   6.326   8.271
  138SAPE  H15Y15076   3.421   6.346   8.450
  138SAPE  C31615077   3.529   6.496   8.350
  138SAPE  H16X15078   3.622   6.438   8.368
  138SAPE  H16Y15079   3.520   6.565   8.437
  138SAPE  C31715080   3.541   6.578   8.221
  138SAPE  H17X15081   3.442   6.583   8.173
  138SAPE  H17Y15082   3.608   6.526   8.149
  138SAPE  C31815083   3.593   6.719   8.245
  138SAPE  H18X15084   3.583   6.781   8.153
  138SAPE  H18Y15085   3.700   6.716   8.274
  138SAPE  H18Z15086   3.538   6.768   8.328
  139SAPE     N15087   2.182   6.590   9.928
  139SAPE   HN115088   2.149   6.508   9.984
  139SAPE   HN215089   2.112   6.611   9.854
  139SAPE   HN315090   2.269   6.559   9.880
  139SAPE   C1215091   2.212   6.708  10.016
  139SAPE  H12A15092   2.116   6.743  10.059
  139SAPE  H12B15093   2.254   6.789   9.951
  139SAPE   C1115094   2.312   6.673  10.127
  139SAPE  H11A15095   2.273   6.589  10.190
  139SAPE  H11B15096   2.319   6.761  10.194
  139SAPE     P15097   2.493   6.502  10.034
  139SAPE   O1315098   2.640   6.498  10.046
  139SAPE   O1415099   2.414   6.403  10.110
  139SAPE   O1215100   2.443   6.646  10.077
  139SAPE   O1115101   2.442   6.502   9.883
  139SAPE    C115102   2.532   6.539   9.777
  139SAPE    HA15103   2.591   6.630   9.805
  139SAPE    HB15104   2.604   6.457   9.757
  139SAPE    C215105   2.459   6.572   9.643
  139SAPE    HS15106   2.375   6.642   9.666
  139SAPE   O2115107   2.412   6.452   9.580
  139SAPE   C2115108   2.292   6.411   9.608
  139SAPE   O2215109   2.214   6.464   9.687
  139SAPE   C2215110   2.258   6.288   9.524
  139SAPE   H2R15111   2.351   6.246   9.480
  139SAPE   H2S15112   2.215   6.213   9.593
  139SAPE    C315113   2.552   6.644   9.541
  139SAPE    HX15114   2.636   6.575   9.520
  139SAPE    HY15115   2.595   6.736   9.587
  139SAPE   O3115116   2.484   6.674   9.416
  139SAPE   C3115117   2.402   6.778   9.421
  139SAPE   O3215118   2.387   6.851   9.517
  139SAPE   C3215119   2.322   6.790   9.290
  139SAPE   H2X15120   2.291   6.896   9.280
  139SAPE   H2Y15121   2.231   6.728   9.303
  139SAPE   C2315122   2.156   6.321   9.413
  139SAPE   H3R15123   2.073   6.382   9.455
  139SAPE   H3S15124   2.111   6.227   9.375
  139SAPE   C2415125   2.220   6.393   9.292
  139SAPE   H4R15126   2.285   6.321   9.238
  139SAPE   H4S15127   2.287   6.474   9.329
  139SAPE   C2515128   2.115   6.453   9.203
  139SAPE   H5R15129   2.062   6.540   9.245
  139SAPE   C2615130   2.080   6.411   9.080
  139SAPE   H6R15131   2.001   6.467   9.027
  139SAPE   C2715132   2.139   6.294   9.006
  139SAPE   H7R15133   2.122   6.201   9.064
  139SAPE   H7S15134   2.249   6.306   8.999
  139SAPE   C2815135   2.077   6.278   8.869
  139SAPE   H8R15136   1.972   6.245   8.868
  139SAPE   C2915137   2.137   6.291   8.750
  139SAPE   H9R15138   2.077   6.275   8.659
  139SAPE  C21015139   2.282   6.324   8.724
  139SAPE  H10R15140   2.328   6.379   8.809
  139SAPE  H10S15141   2.289   6.393   8.637
  139SAPE  C21115142   2.358   6.197   8.697
  139SAPE  H11R15143   2.416   6.158   8.781
  139SAPE  C21215144   2.356   6.129   8.581
  139SAPE  H12R15145   2.414   6.037   8.573
  139SAPE  C21315146   2.277   6.169   8.457
  139SAPE  H13R15147   2.344   6.231   8.394
  139SAPE  H13S15148   2.191   6.234   8.482
  139SAPE  C21415149   2.230   6.052   8.374
  139SAPE  H14R15150   2.270   5.953   8.402
  139SAPE  C21515151   2.145   6.059   8.271
  139SAPE  H15R15152   2.118   5.967   8.217
  139SAPE  C21615153   2.078   6.184   8.217
  139SAPE  H16R15154   2.063   6.259   8.297
  139SAPE  H16S15155   1.977   6.157   8.181
  139SAPE  C21715156   2.153   6.252   8.100
  139SAPE  H17R15157   2.077   6.312   8.046
  139SAPE  H17S15158   2.193   6.178   8.028
  139SAPE  C21815159   2.266   6.346   8.146
  139SAPE  H18R15160   2.358   6.286   8.162
  139SAPE  H18S15161   2.237   6.390   8.244
  139SAPE  C21915162   2.294   6.463   8.051
  139SAPE  H19R15163   2.329   6.424   7.953
  139SAPE  H19S15164   2.377   6.522   8.095
  139SAPE  C22015165   2.174   6.556   8.029
  139SAPE  H20R15166   2.102   6.511   7.958
  139SAPE  H20S15167   2.207   6.654   7.988
  139SAPE  H20T15168   2.122   6.576   8.125
  139SAPE   C3315169   2.397   6.745   9.162
  139SAPE   H3X15170   2.434   6.641   9.174
  139SAPE   H3Y15171   2.484   6.811   9.144
  139SAPE   C3415172   2.305   6.749   9.039
  139SAPE   H4X15173   2.264   6.851   9.025
  139SAPE   H4Y15174   2.219   6.681   9.056
  139SAPE   C3515175   2.374   6.706   8.908
  139SAPE   H5X15176   2.425   6.608   8.923
  139SAPE   H5Y15177   2.451   6.781   8.882
  139SAPE   C3615178   2.274   6.692   8.792
  139SAPE   H6X15179   2.209   6.782   8.793
  139SAPE   H6Y15180   2.209   6.604   8.810
  139SAPE   C3715181   2.340   6.683   8.653
  139SAPE   H7X15182   2.407   6.594   8.650
  139SAPE   H7Y15183   2.402   6.773   8.638
  139SAPE   C3815184   2.235   6.672   8.541
  139SAPE   H8X15185   2.166   6.758   8.549
  139SAPE   H8Y15186   2.175   6.580   8.555
  139SAPE   C3915187   2.293   6.674   8.398
  139SAPE   H9X15188   2.210   6.660   8.326
  139SAPE   H9Y15189   2.363   6.588   8.385
  139SAPE  C31015190   2.365   6.805   8.366
  139SAPE  H10X15191   2.458   6.811   8.426
  139SAPE  H10Y15192   2.300   6.891   8.395
  139SAPE  C31115193   2.401   6.821   8.217
  139SAPE  H11X15194   2.308   6.834   8.158
  139SAPE  H11Y15195   2.451   6.729   8.181
  139SAPE  C31215196   2.494   6.940   8.195
  139SAPE  H12X15197   2.591   6.917   8.244
  139SAPE  H12Y15198   2.454   7.031   8.245
  139SAPE  C31315199   2.519   6.972   8.047
  139SAPE  H13X15200   2.437   7.036   8.008
  139SAPE  H13Y15201   2.518   6.878   7.989
  139SAPE  C31415202   2.655   7.042   8.027
  139SAPE  H14X15203   2.736   6.972   8.058
  139SAPE  H14Y15204   2.658   7.129   8.095
  139SAPE  C31515205   2.680   7.092   7.884
  139SAPE  H15X15206   2.769   7.159   7.886
  139SAPE  H15Y15207   2.593   7.152   7.853
  139SAPE  C31615208   2.704   6.982   7.779
  139SAPE  H16X15209   2.631   6.900   7.795
  139SAPE  H16Y15210   2.684   7.024   7.679
  139SAPE  C31715211   2.846   6.923   7.780
  139SAPE  H17X15212   2.866   6.878   7.879
  139SAPE  H17Y15213   2.920   7.005   7.766
  139SAPE  C31815214   2.868   6.817   7.672
  139SAPE  H18X15215   2.870   6.863   7.571
  139SAPE  H18Y15216   2.787   6.741   7.674
  139SAPE  H18Z15217   2.965   6.764   7.688
  140SAPE     N15218   5.380   1.172  10.006
  140SAPE   HN115219   5.456   1.239   9.986
  140SAPE   HN215220   5.311   1.216  10.070
  140SAPE   HN315221   5.417   1.089  10.057
  140SAPE   C1215222   5.304   1.123   9.884
  140SAPE  H12A15223   5.352   1.166   9.794
  140SAPE  H12B15224   5.200   1.161   9.893
  140SAPE   C1115225   5.301   0.968   9.875
  140SAPE  H11A15226   5.403   0.929   9.851
  140SAPE  H11B15227   5.237   0.941   9.789
  140SAPE     P15228   5.338   0.843  10.102
  140SAPE   O1315229   5.443   0.944  10.129
  140SAPE   O1415230   5.255   0.795  10.214
  140SAPE   O1215231   5.245   0.910   9.993
  140SAPE   O1115232   5.398   0.720  10.024
  140SAPE    C115233   5.532   0.678  10.048
  140SAPE    HA15234   5.596   0.756  10.096
  140SAPE    HB15235   5.533   0.589  10.115
  140SAPE    C215236   5.604   0.640   9.916
  140SAPE    HS15237   5.710   0.618   9.941
  140SAPE   O2115238   5.592   0.745   9.820
  140SAPE   C2115239   5.702   0.813   9.804
  140SAPE   O2215240   5.781   0.843   9.893
  140SAPE   C2215241   5.715   0.847   9.657
  140SAPE   H2R15242   5.644   0.787   9.598
  140SAPE   H2S15243   5.684   0.953   9.646
  140SAPE    C315244   5.547   0.510   9.852
  140SAPE    HX15245   5.540   0.433   9.932
  140SAPE    HY15246   5.624   0.474   9.780
  140SAPE   O3115247   5.418   0.529   9.788
  140SAPE   C3115248   5.428   0.579   9.663
  140SAPE   O3215249   5.528   0.574   9.594
  140SAPE   C3215250   5.296   0.642   9.622
  140SAPE   H2X15251   5.261   0.708   9.705
  140SAPE   H2Y15252   5.224   0.558   9.610
  140SAPE   C2315253   5.859   0.823   9.606
  140SAPE   H3R15254   5.934   0.843   9.685
  140SAPE   H3S15255   5.877   0.896   9.525
  140SAPE   C2415256   5.883   0.683   9.546
  140SAPE   H4R15257   5.866   0.606   9.624
  140SAPE   H4S15258   5.990   0.675   9.517
  140SAPE   C2515259   5.796   0.656   9.426
  140SAPE   H5R15260   5.717   0.581   9.441
  140SAPE   C2615261   5.806   0.715   9.305
  140SAPE   H6R15262   5.732   0.687   9.228
  140SAPE   C2715263   5.903   0.820   9.258
  140SAPE   H7R15264   5.963   0.862   9.341
  140SAPE   H7S15265   5.844   0.904   9.216
  140SAPE   C2815266   5.998   0.768   9.153
  140SAPE   H8R15267   6.098   0.743   9.189
  140SAPE   C2915268   5.969   0.748   9.023
  140SAPE   H9R15269   6.049   0.710   8.958
  140SAPE  C21015270   5.836   0.773   8.955
  140SAPE  H10R15271   5.837   0.872   8.906
  140SAPE  H10S15272   5.752   0.777   9.029
  140SAPE  C21115273   5.805   0.669   8.851
  140SAPE  H11R15274   5.891   0.609   8.818
  140SAPE  C21215275   5.691   0.656   8.782
  140SAPE  H12R15276   5.681   0.575   8.709
  140SAPE  C21315277   5.571   0.745   8.796
  140SAPE  H13R15278   5.546   0.772   8.691
  140SAPE  H13S15279   5.602   0.840   8.845
  140SAPE  C21415280   5.445   0.700   8.865
  140SAPE  H14R15281   5.443   0.718   8.974
  140SAPE  C21515282   5.339   0.641   8.807
  140SAPE  H15R15283   5.252   0.618   8.869
  140SAPE  C21615284   5.326   0.607   8.660
  140SAPE  H16R15285   5.289   0.503   8.650
  140SAPE  H16S15286   5.425   0.610   8.610
  140SAPE  C21715287   5.231   0.699   8.581
  140SAPE  H17R15288   5.266   0.804   8.590
  140SAPE  H17S15289   5.127   0.695   8.621
  140SAPE  C21815290   5.229   0.661   8.432
  140SAPE  H18R15291   5.140   0.599   8.408
  140SAPE  H18S15292   5.319   0.599   8.410
  140SAPE  C21915293   5.236   0.783   8.339
  140SAPE  H19R15294   5.328   0.840   8.365
  140SAPE  H19S15295   5.149   0.849   8.357
  140SAPE  C22015296   5.244   0.745   8.190
  140SAPE  H20R15297   5.331   0.679   8.171
  140SAPE  H20S15298   5.254   0.836   8.127
  140SAPE  H20T15299   5.152   0.690   8.159
  140SAPE   C3315300   5.302   0.720   9.489
  140SAPE   H3X15301   5.198   0.752   9.468
  140SAPE   H3Y15302   5.334   0.655   9.405
  140SAPE   C3415303   5.386   0.849   9.489
  140SAPE   H4X15304   5.480   0.831   9.433
  140SAPE   H4Y15305   5.413   0.874   9.594
  140SAPE   C3515306   5.312   0.971   9.429
  140SAPE   H5X15307   5.377   1.061   9.435
  140SAPE   H5Y15308   5.223   0.990   9.493
  140SAPE   C3615309   5.261   0.955   9.284
  140SAPE   H6X15310   5.177   1.027   9.272
  140SAPE   H6Y15311   5.220   0.854   9.266
  140SAPE   C3715312   5.364   0.990   9.174
  140SAPE   H7X15313   5.442   0.911   9.170
  140SAPE   H7Y15314   5.414   1.085   9.201
  140SAPE   C3815315   5.297   1.007   9.036
  140SAPE   H8X15316   5.210   1.075   9.047
  140SAPE   H8Y15317   5.258   0.908   9.002
  140SAPE   C3915318   5.389   1.065   8.926
  140SAPE   H9X15319   5.475   0.996   8.913
  140SAPE   H9Y15320   5.430   1.163   8.960
  140SAPE  C31015321   5.315   1.085   8.792
  140SAPE  H10X15322   5.237   1.162   8.807
  140SAPE  H10Y15323   5.265   0.990   8.765
  140SAPE  C31115324   5.404   1.127   8.672
  140SAPE  H11X15325   5.463   1.217   8.698
  140SAPE  H11Y15326   5.337   1.153   8.587
  140SAPE  C31215327   5.495   1.012   8.627
  140SAPE  H12X15328   5.430   0.924   8.611
  140SAPE  H12Y15329   5.564   0.991   8.711
  140SAPE  C31315330   5.585   1.023   8.501
  140SAPE  H13X15331   5.619   0.919   8.481
  140SAPE  H13Y15332   5.677   1.081   8.524
  140SAPE  C31415333   5.520   1.080   8.374
  140SAPE  H14X15334   5.481   1.182   8.395
  140SAPE  H14Y15335   5.434   1.016   8.345
  140SAPE  C31515336   5.617   1.090   8.254
  140SAPE  H15X15337   5.690   1.171   8.274
  140SAPE  H15Y15338   5.559   1.120   8.164
  140SAPE  C31615339   5.698   0.963   8.221
  140SAPE  H16X15340   5.630   0.887   8.177
  140SAPE  H16Y15341   5.740   0.919   8.315
  140SAPE  C31715342   5.818   0.986   8.127
  140SAPE  H17X15343   5.844   0.889   8.080
  140SAPE  H17Y15344   5.906   1.017   8.188
  140SAPE  C31815345   5.799   1.092   8.020
  140SAPE  H18X15346   5.696   1.085   7.979
  140SAPE  H18Y15347   5.872   1.079   7.938
  140SAPE  H18Z15348   5.812   1.193   8.063
  141SAPE     N15349   6.877   2.347  10.182
  141SAPE   HN115350   6.817   2.284  10.240
  141SAPE   HN215351   6.824   2.376  10.098
  141SAPE   HN315352   6.964   2.301  10.148
  141SAPE   C1215353   6.903   2.481  10.244
  141SAPE  H12A15354   7.005   2.512  10.215
  141SAPE  H12B15355   6.896   2.473  10.355
  141SAPE   C1115356   6.801   2.579  10.184
  141SAPE  H11A15357   6.837   2.683  10.198
  141SAPE  H11B15358   6.704   2.567  10.237
  141SAPE     P15359   6.668   2.601   9.960
  141SAPE   O1315360   6.682   2.540   9.827
  141SAPE   O1415361   6.545   2.573  10.037
  141SAPE   O1215362   6.789   2.549  10.046
  141SAPE   O1115363   6.697   2.757   9.960
  141SAPE    C115364   6.769   2.821   9.854
  141SAPE    HA15365   6.829   2.905   9.895
  141SAPE    HB15366   6.840   2.751   9.804
  141SAPE    C215367   6.673   2.879   9.747
  141SAPE    HS15368   6.603   2.948   9.800
  141SAPE   O2115369   6.602   2.769   9.691
  141SAPE   C2115370   6.487   2.791   9.636
  141SAPE   O2215371   6.428   2.898   9.630
  141SAPE   C2215372   6.437   2.659   9.582
  141SAPE   H2R15373   6.505   2.577   9.614
  141SAPE   H2S15374   6.337   2.640   9.626
  141SAPE    C315375   6.742   2.959   9.632
  141SAPE    HX15376   6.803   3.041   9.676
  141SAPE    HY15377   6.661   3.008   9.573
  141SAPE   O3115378   6.818   2.875   9.542
  141SAPE   C3115379   6.943   2.850   9.578
  141SAPE   O3215380   7.002   2.900   9.672
  141SAPE   C3215381   7.005   2.747   9.483
  141SAPE   H2X15382   7.110   2.733   9.516
  141SAPE   H2Y15383   7.006   2.789   9.380
  141SAPE   C2315384   6.427   2.663   9.429
  141SAPE   H3R15385   6.353   2.739   9.398
  141SAPE   H3S15386   6.390   2.562   9.401
  141SAPE   C2415387   6.559   2.683   9.354
  141SAPE   H4R15388   6.628   2.600   9.380
  141SAPE   H4S15389   6.608   2.778   9.386
  141SAPE   C2515390   6.529   2.682   9.206
  141SAPE   H5R15391   6.451   2.610   9.177
  141SAPE   C2615392   6.585   2.758   9.110
  141SAPE   H6R15393   6.552   2.745   9.006
  141SAPE   C2715394   6.692   2.862   9.131
  141SAPE   H7R15395   6.674   2.920   9.224
  141SAPE   H7S15396   6.686   2.937   9.048
  141SAPE   C2815397   6.827   2.796   9.138
  141SAPE   H8R15398   6.851   2.752   9.236
  141SAPE   C2915399   6.915   2.781   9.036
  141SAPE   H9R15400   7.009   2.728   9.056
  141SAPE  C21015401   6.897   2.826   8.893
  141SAPE  H10R15402   6.805   2.780   8.851
  141SAPE  H10S15403   6.981   2.787   8.832
  141SAPE  C21115404   6.892   2.976   8.878
  141SAPE  H11R15405   6.944   3.034   8.957
  141SAPE  C21215406   6.829   3.043   8.781
  141SAPE  H12R15407   6.833   3.153   8.784
  141SAPE  C21315408   6.750   2.984   8.667
  141SAPE  H13R15409   6.651   2.952   8.703
  141SAPE  H13S15410   6.801   2.893   8.628
  141SAPE  C21415411   6.731   3.090   8.560
  141SAPE  H14R15412   6.682   3.182   8.595
  141SAPE  C21515413   6.768   3.083   8.431
  141SAPE  H15R15414   6.744   3.168   8.366
  141SAPE  C21615415   6.836   2.968   8.361
  141SAPE  H16R15416   6.865   2.887   8.431
  141SAPE  H16S15417   6.928   3.002   8.310
  141SAPE  C21715418   6.741   2.908   8.256
  141SAPE  H17R15419   6.642   2.886   8.302
  141SAPE  H17S15420   6.783   2.812   8.221
  141SAPE  C21815421   6.720   2.999   8.134
  141SAPE  H18R15422   6.813   2.999   8.073
  141SAPE  H18S15423   6.701   3.104   8.165
  141SAPE  C21915424   6.602   2.955   8.047
  141SAPE  H19R15425   6.603   3.016   7.954
  141SAPE  H19S15426   6.507   2.980   8.099
  141SAPE  C22015427   6.601   2.806   8.012
  141SAPE  H20R15428   6.588   2.743   8.103
  141SAPE  H20S15429   6.696   2.777   7.962
  141SAPE  H20T15430   6.516   2.783   7.943
  141SAPE   C3315431   6.932   2.610   9.485
  141SAPE   H3X15432   6.833   2.619   9.436
  141SAPE   H3Y15433   6.914   2.578   9.590
  141SAPE   C3415434   7.015   2.501   9.415
  141SAPE   H4X15435   7.114   2.495   9.466
  141SAPE   H4Y15436   7.034   2.532   9.310
  141SAPE   C3515437   6.952   2.361   9.417
  141SAPE   H5X15438   6.935   2.331   9.523
  141SAPE   H5Y15439   7.025   2.289   9.374
  141SAPE   C3615440   6.819   2.346   9.340
  141SAPE   H6X15441   6.739   2.399   9.396
  141SAPE   H6Y15442   6.792   2.238   9.339
  141SAPE   C3715443   6.821   2.398   9.195
  141SAPE   H7X15444   6.829   2.508   9.196
  141SAPE   H7Y15445   6.723   2.373   9.148
  141SAPE   C3815446   6.935   2.340   9.109
  141SAPE   H8X15447   6.926   2.230   9.106
  141SAPE   H8Y15448   7.032   2.365   9.156
  141SAPE   C3915449   6.937   2.396   8.966
  141SAPE   H9X15450   7.032   2.364   8.918
  141SAPE   H9Y15451   6.936   2.507   8.968
  141SAPE  C31015452   6.820   2.346   8.881
  141SAPE  H10X15453   6.724   2.389   8.916
  141SAPE  H10Y15454   6.813   2.236   8.894
  141SAPE  C31115455   6.837   2.374   8.731
  141SAPE  H11X15456   6.779   2.297   8.676
  141SAPE  H11Y15457   6.943   2.360   8.700
  141SAPE  C31215458   6.790   2.514   8.687
  141SAPE  H12X15459   6.872   2.587   8.705
  141SAPE  H12Y15460   6.703   2.545   8.747
  141SAPE  C31315461   6.750   2.516   8.538
  141SAPE  H13X15462   6.831   2.467   8.480
  141SAPE  H13Y15463   6.743   2.621   8.502
  141SAPE  C31415464   6.616   2.445   8.514
  141SAPE  H14X15465   6.532   2.515   8.535
  141SAPE  H14Y15466   6.606   2.361   8.585
  141SAPE  C31515467   6.601   2.387   8.372
  141SAPE  H15X15468   6.696   2.339   8.340
  141SAPE  H15Y15469   6.579   2.469   8.301
  141SAPE  C31615470   6.489   2.282   8.370
  141SAPE  H16X15471   6.407   2.315   8.437
  141SAPE  H16Y15472   6.529   2.187   8.412
  141SAPE  C31715473   6.431   2.255   8.231
  141SAPE  H17X15474   6.507   2.203   8.168
  141SAPE  H17Y15475   6.409   2.352   8.182
  141SAPE  C31815476   6.303   2.171   8.236
  141SAPE  H18X15477   6.322   2.073   8.284
  141SAPE  H18Y15478   6.264   2.153   8.133
  141SAPE  H18Z15479   6.225   2.224   8.294
  142SAPE     N15480   6.482   1.714  10.284
  142SAPE   HN115481   6.572   1.663  10.287
  142SAPE   HN215482   6.432   1.709  10.375
  142SAPE   HN315483   6.423   1.669  10.211
  142SAPE   C1215484   6.499   1.856  10.237
  142SAPE  H12A15485   6.590   1.899  10.285
  142SAPE  H12B15486   6.410   1.914  10.269
  142SAPE   C1115487   6.509   1.857  10.085
  142SAPE  H11A15488   6.608   1.816  10.055
  142SAPE  H11B15489   6.505   1.962  10.047
  142SAPE     P15490   6.420   1.669   9.921
  142SAPE   O1315491   6.541   1.593   9.959
  142SAPE   O1415492   6.295   1.591   9.916
  142SAPE   O1215493   6.400   1.783  10.031
  142SAPE   O1115494   6.444   1.750   9.788
  142SAPE    C115495   6.560   1.832   9.766
  142SAPE    HA15496   6.536   1.938   9.789
  142SAPE    HB15497   6.646   1.801   9.829
  142SAPE    C215498   6.606   1.824   9.618
  142SAPE    HS15499   6.707   1.870   9.612
  142SAPE   O2115500   6.508   1.889   9.536
  142SAPE   C2115501   6.549   1.993   9.467
  142SAPE   O2215502   6.664   2.032   9.457
  142SAPE   C2215503   6.429   2.066   9.407
  142SAPE   H2R15504   6.336   2.009   9.428
  142SAPE   H2S15505   6.423   2.163   9.460
  142SAPE    C315506   6.620   1.675   9.576
  142SAPE    HX15507   6.516   1.635   9.573
  142SAPE    HY15508   6.674   1.623   9.657
  142SAPE   O3115509   6.694   1.661   9.451
  142SAPE   C3115510   6.641   1.579   9.363
  142SAPE   O3215511   6.538   1.515   9.375
  142SAPE   C3215512   6.744   1.548   9.253
  142SAPE   H2X15513   6.707   1.456   9.203
  142SAPE   H2Y15514   6.840   1.525   9.302
  142SAPE   C2315515   6.445   2.092   9.255
  142SAPE   H3R15516   6.551   2.107   9.227
  142SAPE   H3S15517   6.393   2.188   9.232
  142SAPE   C2415518   6.376   1.986   9.168
  142SAPE   H4R15519   6.364   2.030   9.066
  142SAPE   H4S15520   6.274   1.968   9.207
  142SAPE   C2515521   6.458   1.860   9.157
  142SAPE   H5R15522   6.563   1.877   9.128
  142SAPE   C2615523   6.416   1.734   9.176
  142SAPE   H6R15524   6.485   1.651   9.157
  142SAPE   C2715525   6.278   1.685   9.213
  142SAPE   H7R15526   6.204   1.769   9.207
  142SAPE   H7S15527   6.283   1.657   9.320
  142SAPE   C2815528   6.223   1.568   9.135
  142SAPE   H8R15529   6.189   1.483   9.197
  142SAPE   C2915530   6.214   1.558   9.001
  142SAPE   H9R15531   6.166   1.469   8.956
  142SAPE  C21015532   6.259   1.665   8.905
  142SAPE  H10R15533   6.363   1.694   8.931
  142SAPE  H10S15534   6.196   1.755   8.923
  142SAPE  C21115535   6.265   1.632   8.759
  142SAPE  H11R15536   6.271   1.526   8.731
  142SAPE  C21215537   6.264   1.727   8.663
  142SAPE  H12R15538   6.269   1.696   8.558
  142SAPE  C21315539   6.256   1.876   8.687
  142SAPE  H13R15540   6.158   1.900   8.734
  142SAPE  H13S15541   6.253   1.927   8.588
  142SAPE  C21415542   6.367   1.936   8.770
  142SAPE  H14R15543   6.340   1.959   8.874
  142SAPE  C21515544   6.492   1.959   8.728
  142SAPE  H15R15545   6.567   2.002   8.796
  142SAPE  C21615546   6.539   1.926   8.589
  142SAPE  H16R15547   6.529   2.017   8.525
  142SAPE  H16S15548   6.475   1.848   8.543
  142SAPE  C21715549   6.683   1.876   8.577
  142SAPE  H17R15550   6.695   1.780   8.633
  142SAPE  H17S15551   6.754   1.950   8.619
  142SAPE  C21815552   6.715   1.853   8.429
  142SAPE  H18R15553   6.702   1.949   8.374
  142SAPE  H18S15554   6.643   1.780   8.386
  142SAPE  C21915555   6.857   1.802   8.405
  142SAPE  H19R15556   6.867   1.701   8.449
  142SAPE  H19S15557   6.928   1.868   8.460
  142SAPE  C22015558   6.893   1.800   8.257
  142SAPE  H20R15559   6.999   1.768   8.243
  142SAPE  H20S15560   6.882   1.901   8.212
  142SAPE  H20T15561   6.827   1.730   8.201
  142SAPE   C3315562   6.768   1.657   9.147
  142SAPE   H3X15563   6.805   1.749   9.197
  142SAPE   H3Y15564   6.676   1.683   9.091
  142SAPE   C3415565   6.872   1.610   9.044
  142SAPE   H4X15566   6.962   1.572   9.098
  142SAPE   H4Y15567   6.903   1.699   8.984
  142SAPE   C3515568   6.821   1.503   8.947
  142SAPE   H5X15569   6.744   1.439   8.994
  142SAPE   H5Y15570   6.906   1.436   8.919
  142SAPE   C3615571   6.767   1.564   8.817
  142SAPE   H6X15572   6.849   1.622   8.769
  142SAPE   H6Y15573   6.685   1.636   8.840
  142SAPE   C3715574   6.717   1.460   8.717
  142SAPE   H7X15575   6.786   1.373   8.713
  142SAPE   H7Y15576   6.718   1.507   8.616
  142SAPE   C3815577   6.574   1.413   8.747
  142SAPE   H8X15578   6.508   1.502   8.750
  142SAPE   H8Y15579   6.571   1.366   8.847
  142SAPE   C3915580   6.519   1.313   8.643
  142SAPE   H9X15581   6.413   1.291   8.667
  142SAPE   H9Y15582   6.576   1.218   8.652
  142SAPE  C31015583   6.525   1.360   8.497
  142SAPE  H10X15584   6.483   1.281   8.433
  142SAPE  H10Y15585   6.631   1.375   8.466
  142SAPE  C31115586   6.445   1.488   8.472
  142SAPE  H11X15587   6.481   1.571   8.537
  142SAPE  H11Y15588   6.340   1.466   8.500
  142SAPE  C31215589   6.451   1.534   8.326
  142SAPE  H12X15590   6.456   1.444   8.261
  142SAPE  H12Y15591   6.545   1.591   8.309
  142SAPE  C31315592   6.327   1.615   8.286
  142SAPE  H13X15593   6.250   1.604   8.365
  142SAPE  H13Y15594   6.282   1.570   8.194
  142SAPE  C31415595   6.352   1.765   8.263
  142SAPE  H14X15596   6.394   1.809   8.356
  142SAPE  H14Y15597   6.255   1.815   8.244
  142SAPE  C31515598   6.446   1.795   8.147
  142SAPE  H15X15599   6.543   1.743   8.162
  142SAPE  H15Y15600   6.469   1.904   8.144
  142SAPE  C31615601   6.388   1.753   8.011
  142SAPE  H16X15602   6.309   1.826   7.982
  142SAPE  H16Y15603   6.340   1.654   8.018
  142SAPE  C31715604   6.495   1.743   7.903
  142SAPE  H17X15605   6.575   1.676   7.940
  142SAPE  H17Y15606   6.541   1.843   7.886
  142SAPE  C31815607   6.440   1.687   7.771
  142SAPE  H18X15608   6.350   1.742   7.737
  142SAPE  H18Y15609   6.413   1.580   7.782
  142SAPE  H18Z15610   6.515   1.698   7.690
  143SAPE     N15611   1.174   1.460  10.223
  143SAPE   HN115612   1.083   1.461  10.173
  143SAPE   HN215613   1.191   1.549  10.275
  143SAPE   HN315614   1.247   1.446  10.151
  143SAPE   C1215615   1.175   1.339  10.313
  143SAPE  H12A15616   1.108   1.359  10.399
  143SAPE  H12B15617   1.279   1.325  10.349
  143SAPE   C1115618   1.127   1.213  10.237
  143SAPE  H11A15619   1.017   1.204  10.249
  143SAPE  H11B15620   1.171   1.123  10.285
  143SAPE     P15621   1.059   1.260   9.989
  143SAPE   O1315622   0.968   1.355  10.060
  143SAPE   O1415623   1.136   1.319   9.879
  143SAPE   O1215624   1.165   1.215  10.099
  143SAPE   O1115625   0.982   1.125   9.956
  143SAPE    C115626   1.038   0.993   9.962
  143SAPE    HA15627   1.148   0.997   9.974
  143SAPE    HB15628   0.998   0.942  10.053
  143SAPE    C215629   1.002   0.900   9.839
  143SAPE    HS15630   0.934   0.820   9.874
  143SAPE   O2115631   1.120   0.842   9.777
  143SAPE   C2115632   1.152   0.710   9.787
  143SAPE   O2215633   1.102   0.634   9.868
  143SAPE   C2215634   1.230   0.668   9.653
  143SAPE   H2R15635   1.154   0.631   9.581
  143SAPE   H2S15636   1.263   0.771   9.628
  143SAPE    C315637   0.920   0.983   9.733
  143SAPE    HX15638   0.819   1.000   9.777
  143SAPE    HY15639   0.906   0.918   9.643
  143SAPE   O3115640   0.976   1.113   9.701
  143SAPE   C3115641   0.972   1.155   9.577
  143SAPE   O3215642   0.936   1.088   9.482
  143SAPE   C3215643   1.012   1.303   9.564
  143SAPE   H2X15644   1.052   1.338   9.661
  143SAPE   H2Y15645   0.919   1.360   9.543
  143SAPE   C2315646   1.374   0.616   9.613
  143SAPE   H3R15647   1.376   0.507   9.629
  143SAPE   H3S15648   1.452   0.662   9.679
  143SAPE   C2415649   1.415   0.646   9.460
  143SAPE   H4R15650   1.325   0.628   9.397
  143SAPE   H4S15651   1.480   0.559   9.435
  143SAPE   C2515652   1.495   0.769   9.407
  143SAPE   H5R15653   1.589   0.775   9.464
  143SAPE   C2615654   1.480   0.872   9.316
  143SAPE   H6R15655   1.562   0.945   9.314
  143SAPE   C2715656   1.369   0.916   9.220
  143SAPE   H7R15657   1.310   0.997   9.268
  143SAPE   H7S15658   1.298   0.830   9.218
  143SAPE   C2815659   1.376   0.981   9.083
  143SAPE   H8R15660   1.472   0.967   9.030
  143SAPE   C2915661   1.280   1.044   9.009
  143SAPE   H9R15662   1.310   1.083   8.911
  143SAPE  C21015663   1.133   1.071   9.036
  143SAPE  H10R15664   1.102   1.165   8.985
  143SAPE  H10S15665   1.114   1.092   9.144
  143SAPE  C21115666   1.048   0.955   8.989
  143SAPE  H11R15667   1.019   0.883   9.066
  143SAPE  C21215668   1.007   0.929   8.864
  143SAPE  H12R15669   0.957   0.833   8.845
  143SAPE  C21315670   1.034   1.011   8.740
  143SAPE  H13R15671   1.107   0.959   8.674
  143SAPE  H13S15672   1.078   1.109   8.767
  143SAPE  C21415673   0.901   1.031   8.673
  143SAPE  H14R15674   0.823   1.072   8.739
  143SAPE  C21515675   0.867   1.008   8.545
  143SAPE  H15R15676   0.762   1.020   8.517
  143SAPE  C21615677   0.952   0.956   8.432
  143SAPE  H16R15678   1.032   1.029   8.407
  143SAPE  H16S15679   0.887   0.950   8.342
  143SAPE  C21715680   1.015   0.817   8.452
  143SAPE  H17R15681   0.955   0.756   8.523
  143SAPE  H17S15682   1.116   0.828   8.496
  143SAPE  C21815683   1.023   0.742   8.319
  143SAPE  H18R15684   1.090   0.798   8.251
  143SAPE  H18S15685   0.922   0.740   8.273
  143SAPE  C21915686   1.071   0.597   8.330
  143SAPE  H19R15687   1.062   0.550   8.230
  143SAPE  H19S15688   1.003   0.541   8.399
  143SAPE  C22015689   1.215   0.582   8.378
  143SAPE  H20R15690   1.284   0.631   8.305
  143SAPE  H20S15691   1.246   0.475   8.385
  143SAPE  H20T15692   1.229   0.629   8.478
  143SAPE   C3315693   1.110   1.333   9.447
  143SAPE   H3X15694   1.082   1.432   9.406
  143SAPE   H3Y15695   1.102   1.260   9.364
  143SAPE   C3415696   1.254   1.344   9.499
  143SAPE   H4X15697   1.301   1.246   9.522
  143SAPE   H4Y15698   1.245   1.396   9.596
  143SAPE   C3515699   1.350   1.422   9.409
  143SAPE   H5X15700   1.442   1.444   9.467
  143SAPE   H5Y15701   1.304   1.519   9.381
  143SAPE   C3615702   1.389   1.347   9.282
  143SAPE   H6X15703   1.297   1.324   9.223
  143SAPE   H6Y15704   1.437   1.250   9.308
  143SAPE   C3715705   1.484   1.432   9.197
  143SAPE   H7X15706   1.576   1.453   9.255
  143SAPE   H7Y15707   1.434   1.528   9.174
  143SAPE   C3815708   1.521   1.361   9.067
  143SAPE   H8X15709   1.429   1.324   9.017
  143SAPE   H8Y15710   1.582   1.272   9.093
  143SAPE   C3915711   1.601   1.451   8.972
  143SAPE   H9X15712   1.654   1.386   8.898
  143SAPE   H9Y15713   1.679   1.505   9.029
  143SAPE  C31015714   1.517   1.550   8.891
  143SAPE  H10X15715   1.585   1.608   8.826
  143SAPE  H10Y15716   1.467   1.621   8.961
  143SAPE  C31115717   1.410   1.483   8.803
  143SAPE  H11X15718   1.379   1.559   8.727
  143SAPE  H11Y15719   1.320   1.460   8.865
  143SAPE  C31215720   1.455   1.356   8.729
  143SAPE  H12X15721   1.451   1.269   8.798
  143SAPE  H12Y15722   1.560   1.370   8.698
  143SAPE  C31315723   1.373   1.326   8.603
  143SAPE  H13X15724   1.412   1.234   8.555
  143SAPE  H13Y15725   1.393   1.407   8.530
  143SAPE  C31415726   1.221   1.311   8.623
  143SAPE  H14X15727   1.189   1.357   8.719
  143SAPE  H14Y15728   1.200   1.202   8.630
  143SAPE  C31515729   1.135   1.371   8.511
  143SAPE  H15X15730   1.141   1.482   8.515
  143SAPE  H15Y15731   1.028   1.345   8.528
  143SAPE  C31615732   1.175   1.323   8.370
  143SAPE  H16X15733   1.119   1.230   8.348
  143SAPE  H16Y15734   1.283   1.297   8.367
  143SAPE  C31715735   1.152   1.426   8.260
  143SAPE  H17X15736   1.222   1.512   8.273
  143SAPE  H17Y15737   1.050   1.467   8.271
  143SAPE  C31815738   1.172   1.365   8.121
  143SAPE  H18X15739   1.280   1.354   8.097
  143SAPE  H18Y15740   1.124   1.426   8.041
  143SAPE  H18Z15741   1.125   1.264   8.116
  144SAPE     N15742   5.265   0.320   9.860
  144SAPE   HN115743   5.304   0.267   9.780
  144SAPE   HN215744   5.164   0.342   9.844
  144SAPE   HN315745   5.316   0.409   9.872
  144SAPE   C1215746   5.267   0.237   9.985
  144SAPE  H12A15747   5.372   0.229  10.022
  144SAPE  H12B15748   5.231   0.136   9.957
  144SAPE   C1115749   5.172   0.299  10.087
  144SAPE  H11A15750   5.213   0.397  10.122
  144SAPE  H11B15751   5.168   0.234  10.177
  144SAPE     P15752   4.932   0.209  10.044
  144SAPE   O1315753   4.996   0.080  10.015
  144SAPE   O1415754   4.867   0.229  10.175
  144SAPE   O1215755   5.044   0.321  10.027
  144SAPE   O1115756   4.830   0.245   9.929
  144SAPE    C115757   4.831   0.172   9.805
  144SAPE    HA15758   4.831   0.063   9.822
  144SAPE    HB15759   4.738   0.195   9.749
  144SAPE    C215760   4.954   0.208   9.716
  144SAPE    HS15761   5.041   0.155   9.760
  144SAPE   O2115762   4.982   0.349   9.719
  144SAPE   C2115763   4.885   0.439   9.710
  144SAPE   O2215764   4.766   0.422   9.692
  144SAPE   C2215765   4.950   0.577   9.720
  144SAPE   H2R15766   4.897   0.635   9.798
  144SAPE   H2S15767   5.056   0.566   9.752
  144SAPE    C315768   4.939   0.158   9.569
  144SAPE    HX15769   4.932   0.047   9.574
  144SAPE    HY15770   5.034   0.184   9.518
  144SAPE   O3115771   4.825   0.212   9.498
  144SAPE   C3115772   4.827   0.175   9.369
  144SAPE   O3215773   4.910   0.101   9.321
  144SAPE   C3215774   4.711   0.239   9.293
  144SAPE   H2X15775   4.687   0.337   9.340
  144SAPE   H2Y15776   4.623   0.172   9.301
  144SAPE   C2315777   4.943   0.652   9.585
  144SAPE   H3R15778   5.015   0.736   9.587
  144SAPE   H3S15779   4.841   0.696   9.577
  144SAPE   C2415780   4.966   0.561   9.462
  144SAPE   H4R15781   4.872   0.505   9.441
  144SAPE   H4S15782   5.043   0.485   9.488
  144SAPE   C2515783   5.007   0.636   9.339
  144SAPE   H5R15784   4.985   0.744   9.338
  144SAPE   C2615785   5.074   0.582   9.236
  144SAPE   H6R15786   5.102   0.645   9.150
  144SAPE   C2715787   5.115   0.438   9.231
  144SAPE   H7R15788   5.025   0.373   9.231
  144SAPE   H7S15789   5.171   0.411   9.324
  144SAPE   C2815790   5.201   0.403   9.114
  144SAPE   H8R15791   5.305   0.378   9.139
  144SAPE   C2915792   5.165   0.397   8.984
  144SAPE   H9R15793   5.242   0.371   8.911
  144SAPE  C21015794   5.029   0.425   8.927
  144SAPE  H10R15795   4.987   0.520   8.967
  144SAPE  H10S15796   4.960   0.345   8.960
  144SAPE  C21115797   5.038   0.432   8.777
  144SAPE  H11R15798   5.070   0.529   8.737
  144SAPE  C21215799   5.009   0.334   8.689
  144SAPE  H12R15800   5.024   0.353   8.582
  144SAPE  C21315801   4.960   0.195   8.721
  144SAPE  H13R15802   4.859   0.182   8.676
  144SAPE  H13S15803   4.944   0.183   8.830
  144SAPE  C21415804   5.049   0.082   8.675
  144SAPE  H14R15805   5.093   0.025   8.758
  144SAPE  C21515806   5.079   0.045   8.549
  144SAPE  H15R15807   5.146  -0.041   8.535
  144SAPE  C21615808   5.032   0.107   8.419
  144SAPE  H16R15809   5.080   0.051   8.336
  144SAPE  H16S15810   5.069   0.211   8.411
  144SAPE  C21715811   4.881   0.107   8.390
  144SAPE  H17R15812   4.830   0.179   8.457
  144SAPE  H17S15813   4.838   0.006   8.410
  144SAPE  C21815814   4.853   0.145   8.244
  144SAPE  H18R15815   4.891   0.064   8.177
  144SAPE  H18S15816   4.913   0.236   8.220
  144SAPE  C21915817   4.706   0.173   8.210
  144SAPE  H19R15818   4.702   0.214   8.107
  144SAPE  H19S15819   4.666   0.252   8.278
  144SAPE  C22015820   4.616   0.050   8.218
  144SAPE  H20R15821   4.660  -0.033   8.160
  144SAPE  H20S15822   4.515   0.072   8.175
  144SAPE  H20T15823   4.603   0.017   8.323
  144SAPE   C3315824   4.748   0.260   9.144
  144SAPE   H3X15825   4.772   0.162   9.097
  144SAPE   H3Y15826   4.838   0.324   9.137
  144SAPE   C3415827   4.637   0.327   9.062
  144SAPE   H4X15828   4.608   0.423   9.109
  144SAPE   H4Y15829   4.547   0.261   9.063
  144SAPE   C3515830   4.678   0.352   8.916
  144SAPE   H5X15831   4.715   0.256   8.873
  144SAPE   H5Y15832   4.761   0.425   8.912
  144SAPE   C3615833   4.564   0.403   8.828
  144SAPE   H6X15834   4.529   0.503   8.859
  144SAPE   H6Y15835   4.478   0.334   8.846
  144SAPE   C3715836   4.592   0.402   8.677
  144SAPE   H7X15837   4.496   0.423   8.624
  144SAPE   H7Y15838   4.625   0.300   8.648
  144SAPE   C3815839   4.694   0.505   8.631
  144SAPE   H8X15840   4.787   0.493   8.691
  144SAPE   H8Y15841   4.654   0.606   8.651
  144SAPE   C3915842   4.729   0.493   8.481
  144SAPE   H9X15843   4.645   0.537   8.423
  144SAPE   H9Y15844   4.736   0.386   8.453
  144SAPE  C31015845   4.860   0.562   8.444
  144SAPE  H10X15846   4.946   0.493   8.458
  144SAPE  H10Y15847   4.875   0.648   8.514
  144SAPE  C31115848   4.863   0.617   8.301
  144SAPE  H11X15849   4.949   0.687   8.289
  144SAPE  H11Y15850   4.769   0.675   8.286
  144SAPE  C31215851   4.869   0.511   8.190
  144SAPE  H12X15852   4.803   0.427   8.221
  144SAPE  H12Y15853   4.973   0.471   8.181
  144SAPE  C31315854   4.818   0.561   8.054
  144SAPE  H13X15855   4.715   0.598   8.069
  144SAPE  H13Y15856   4.813   0.475   7.983
  144SAPE  C31415857   4.903   0.673   7.991
  144SAPE  H14X15858   5.001   0.634   7.958
  144SAPE  H14Y15859   4.924   0.748   8.069
  144SAPE  C31515860   4.830   0.745   7.875
  144SAPE  H15X15861   4.852   0.854   7.883
  144SAPE  H15Y15862   4.720   0.733   7.888
  144SAPE  C31615863   4.868   0.703   7.732
  144SAPE  H16X15864   4.974   0.731   7.711
  144SAPE  H16Y15865   4.804   0.761   7.662
  144SAPE  C31715866   4.848   0.554   7.702
  144SAPE  H17X15867   4.824   0.543   7.594
  144SAPE  H17Y15868   4.761   0.516   7.759
  144SAPE  C31815869   4.972   0.469   7.730
  144SAPE  H18X15870   5.014   0.428   7.636
  144SAPE  H18Y15871   4.947   0.384   7.798
  144SAPE  H18Z15872   5.052   0.529   7.778
  145SAPE     N15873   1.639   0.575  10.279
  145SAPE   HN115874   1.727   0.623  10.253
  145SAPE   HN215875   1.565   0.641  10.246
  145SAPE   HN315876   1.631   0.564  10.382
  145SAPE   C1215877   1.613   0.446  10.204
  145SAPE  H12A15878   1.510   0.414  10.228
  145SAPE  H12B15879   1.684   0.369  10.242
  145SAPE   C1115880   1.627   0.461  10.050
  145SAPE  H11A15881   1.568   0.382  10.000
  145SAPE  H11B15882   1.733   0.445  10.023
  145SAPE     P15883   1.445   0.650  10.026
  145SAPE   O1315884   1.346   0.540  10.036
  145SAPE   O1415885   1.460   0.731  10.149
  145SAPE   O1215886   1.589   0.590  10.001
  145SAPE   O1115887   1.417   0.742   9.901
  145SAPE    C115888   1.416   0.884   9.910
  145SAPE    HA15889   1.310   0.919   9.912
  145SAPE    HB15890   1.465   0.923  10.001
  145SAPE    C215891   1.484   0.957   9.790
  145SAPE    HS15892   1.485   1.066   9.813
  145SAPE   O2115893   1.414   0.933   9.665
  145SAPE   C2115894   1.303   1.011   9.649
  145SAPE   O2215895   1.270   1.094   9.730
  145SAPE   C2215896   1.240   0.998   9.505
  145SAPE   H2R15897   1.180   1.090   9.486
  145SAPE   H2S15898   1.333   1.016   9.448
  145SAPE    C315899   1.636   0.915   9.785
  145SAPE    HX15900   1.681   0.953   9.879
  145SAPE    HY15901   1.680   0.974   9.702
  145SAPE   O3115902   1.664   0.773   9.777
  145SAPE   C3115903   1.747   0.736   9.680
  145SAPE   O3215904   1.790   0.808   9.592
  145SAPE   C3215905   1.792   0.591   9.698
  145SAPE   H2X15906   1.750   0.552   9.793
  145SAPE   H2Y15907   1.903   0.593   9.705
  145SAPE   C2315908   1.152   0.875   9.457
  145SAPE   H3R15909   1.082   0.846   9.538
  145SAPE   H3S15910   1.230   0.797   9.442
  145SAPE   C2415911   1.073   0.857   9.323
  145SAPE   H4R15912   1.121   0.916   9.243
  145SAPE   H4S15913   0.972   0.901   9.336
  145SAPE   C2515914   1.057   0.709   9.282
  145SAPE   H5R15915   0.988   0.659   9.351
  145SAPE   C2615916   1.115   0.628   9.188
  145SAPE   H6R15917   1.083   0.523   9.188
  145SAPE   C2715918   1.221   0.656   9.082
  145SAPE   H7R15919   1.318   0.653   9.136
  145SAPE   H7S15920   1.210   0.761   9.046
  145SAPE   C2815921   1.245   0.564   8.965
  145SAPE   H8R15922   1.232   0.457   8.988
  145SAPE   C2915923   1.281   0.600   8.839
  145SAPE   H9R15924   1.300   0.521   8.765
  145SAPE  C21015925   1.305   0.740   8.787
  145SAPE  H10R15926   1.230   0.806   8.834
  145SAPE  H10S15927   1.278   0.743   8.679
  145SAPE  C21115928   1.437   0.809   8.811
  145SAPE  H11R15929   1.489   0.780   8.904
  145SAPE  C21215930   1.492   0.903   8.732
  145SAPE  H12R15931   1.582   0.957   8.766
  145SAPE  C21315932   1.436   0.959   8.604
  145SAPE  H13R15933   1.498   1.047   8.575
  145SAPE  H13S15934   1.333   0.997   8.620
  145SAPE  C21415935   1.440   0.860   8.491
  145SAPE  H14R15936   1.488   0.764   8.513
  145SAPE  C21515937   1.386   0.880   8.370
  145SAPE  H15R15938   1.395   0.800   8.295
  145SAPE  C21615939   1.312   1.002   8.325
  145SAPE  H16R15940   1.297   1.075   8.407
  145SAPE  H16S15941   1.211   0.973   8.289
  145SAPE  C21715942   1.385   1.070   8.209
  145SAPE  H17R15943   1.481   1.114   8.242
  145SAPE  H17S15944   1.321   1.154   8.175
  145SAPE  C21815945   1.409   0.979   8.088
  145SAPE  H18R15946   1.326   0.905   8.080
  145SAPE  H18S15947   1.503   0.923   8.101
  145SAPE  C21915948   1.413   1.059   7.958
  145SAPE  H19R15949   1.478   1.148   7.971
  145SAPE  H19S15950   1.310   1.095   7.939
  145SAPE  C22015951   1.463   0.978   7.839
  145SAPE  H20R15952   1.457   1.037   7.745
  145SAPE  H20S15953   1.404   0.885   7.826
  145SAPE  H20T15954   1.570   0.950   7.854
  145SAPE   C3315955   1.750   0.500   9.580
  145SAPE   H3X15956   1.639   0.489   9.581
  145SAPE   H3Y15957   1.793   0.399   9.597
  145SAPE   C3415958   1.793   0.548   9.440
  145SAPE   H4X15959   1.904   0.558   9.433
  145SAPE   H4Y15960   1.749   0.648   9.418
  145SAPE   C3515961   1.742   0.452   9.333
  145SAPE   H5X15962   1.641   0.417   9.366
  145SAPE   H5Y15963   1.810   0.364   9.327
  145SAPE   C3615964   1.721   0.509   9.192
  145SAPE   H6X15965   1.820   0.524   9.143
  145SAPE   H6Y15966   1.670   0.608   9.197
  145SAPE   C3715967   1.634   0.412   9.111
  145SAPE   H7X15968   1.530   0.451   9.102
  145SAPE   H7Y15969   1.627   0.317   9.167
  145SAPE   C3815970   1.690   0.377   8.973
  145SAPE   H8X15971   1.655   0.275   8.946
  145SAPE   H8Y15972   1.801   0.374   8.975
  145SAPE   C3915973   1.640   0.469   8.862
  145SAPE   H9X15974   1.670   0.574   8.884
  145SAPE   H9Y15975   1.529   0.467   8.859
  145SAPE  C31015976   1.693   0.425   8.726
  145SAPE  H10X15977   1.655   0.323   8.703
  145SAPE  H10Y15978   1.804   0.420   8.730
  145SAPE  C31115979   1.652   0.522   8.615
  145SAPE  H11X15980   1.677   0.624   8.651
  145SAPE  H11Y15981   1.542   0.520   8.600
  145SAPE  C31215982   1.724   0.499   8.482
  145SAPE  H12X15983   1.664   0.431   8.417
  145SAPE  H12Y15984   1.823   0.450   8.500
  145SAPE  C31315985   1.750   0.634   8.415
  145SAPE  H13X15986   1.821   0.687   8.482
  145SAPE  H13Y15987   1.656   0.693   8.415
  145SAPE  C31415988   1.807   0.631   8.273
  145SAPE  H14X15989   1.906   0.580   8.272
  145SAPE  H14Y15990   1.823   0.736   8.240
  145SAPE  C31515991   1.714   0.564   8.171
  145SAPE  H15X15992   1.720   0.454   8.186
  145SAPE  H15Y15993   1.750   0.587   8.069
  145SAPE  C31615994   1.568   0.609   8.185
  145SAPE  H16X15995   1.564   0.720   8.193
  145SAPE  H16Y15996   1.526   0.566   8.279
  145SAPE  C31715997   1.478   0.564   8.070
  145SAPE  H17X15998   1.489   0.635   7.985
  145SAPE  H17Y15999   1.372   0.568   8.103
  145SAPE  C31816000   1.512   0.423   8.023
  145SAPE  H18X16001   1.613   0.420   7.975
  145SAPE  H18Y16002   1.439   0.387   7.948
  145SAPE  H18Z16003   1.512   0.353   8.109
  146SAPE     N16004   6.618   0.497  10.217
  146SAPE   HN116005   6.527   0.448  10.206
  146SAPE   HN216006   6.673   0.445  10.288
  146SAPE   HN316007   6.599   0.595  10.246
  146SAPE   C1216008   6.682   0.489  10.081
  146SAPE  H12A16009   6.777   0.546  10.082
  146SAPE  H12B16010   6.612   0.536  10.008
  146SAPE   C1116011   6.707   0.342  10.040
  146SAPE  H11A16012   6.798   0.306  10.094
  146SAPE  H11B16013   6.731   0.337   9.932
  146SAPE     P16014   6.450   0.275  10.029
  146SAPE   O1316015   6.381   0.144  10.024
  146SAPE   O1416016   6.399   0.376  10.125
  146SAPE   O1216017   6.601   0.252  10.071
  146SAPE   O1116018   6.467   0.343   9.888
  146SAPE    C116019   6.452   0.277   9.763
  146SAPE    HA16020   6.436   0.167   9.774
  146SAPE    HB16021   6.363   0.318   9.710
  146SAPE    C216022   6.576   0.300   9.673
  146SAPE    HS16023   6.662   0.261   9.732
  146SAPE   O2116024   6.587   0.443   9.646
  146SAPE   C2116025   6.704   0.497   9.679
  146SAPE   O2216026   6.809   0.435   9.693
  146SAPE   C2216027   6.688   0.644   9.725
  146SAPE   H2R16028   6.602   0.646   9.795
  146SAPE   H2S16029   6.778   0.662   9.786
  146SAPE    C316030   6.571   0.213   9.544
  146SAPE    HX16031   6.553   0.108   9.576
  146SAPE    HY16032   6.671   0.217   9.496
  146SAPE   O3116033   6.470   0.257   9.451
  146SAPE   C3116034   6.446   0.176   9.348
  146SAPE   O3216035   6.481   0.060   9.338
  146SAPE   C3216036   6.384   0.263   9.238
  146SAPE   H2X16037   6.469   0.313   9.188
  146SAPE   H2Y16038   6.321   0.339   9.289
  146SAPE   C2316039   6.673   0.765   9.625
  146SAPE   H3R16040   6.722   0.854   9.671
  146SAPE   H3S16041   6.563   0.785   9.625
  146SAPE   C2416042   6.712   0.748   9.475
  146SAPE   H4R16043   6.612   0.748   9.428
  146SAPE   H4S16044   6.749   0.643   9.477
  146SAPE   C2516045   6.802   0.832   9.384
  146SAPE   H5R16046   6.834   0.922   9.438
  146SAPE   C2616047   6.872   0.813   9.266
  146SAPE   H6R16048   6.922   0.905   9.231
  146SAPE   C2716049   6.902   0.704   9.160
  146SAPE   H7R16050   6.944   0.613   9.208
  146SAPE   H7S16051   6.989   0.737   9.100
  146SAPE   C2816052   6.791   0.663   9.067
  146SAPE   H8R16053   6.697   0.700   9.110
  146SAPE   C2916054   6.772   0.596   8.951
  146SAPE   H9R16055   6.666   0.589   8.920
  146SAPE  C21016056   6.861   0.526   8.852
  146SAPE  H10R16057   6.871   0.419   8.881
  146SAPE  H10S16058   6.964   0.568   8.855
  146SAPE  C21116059   6.806   0.535   8.710
  146SAPE  H11R16060   6.870   0.595   8.644
  146SAPE  C21216061   6.693   0.482   8.657
  146SAPE  H12R16062   6.676   0.500   8.549
  146SAPE  C21316063   6.583   0.398   8.718
  146SAPE  H13R16064   6.484   0.442   8.696
  146SAPE  H13S16065   6.594   0.394   8.828
  146SAPE  C21416066   6.586   0.258   8.664
  146SAPE  H14R16067   6.691   0.227   8.650
  146SAPE  C21516068   6.493   0.173   8.613
  146SAPE  H15R16069   6.528   0.072   8.586
  146SAPE  C21616070   6.345   0.181   8.588
  146SAPE  H16R16071   6.294   0.247   8.661
  146SAPE  H16S16072   6.300   0.080   8.602
  146SAPE  C21716073   6.317   0.226   8.443
  146SAPE  H17R16074   6.344   0.333   8.434
  146SAPE  H17S16075   6.208   0.217   8.422
  146SAPE  C21816076   6.391   0.146   8.333
  146SAPE  H18R16077   6.363   0.039   8.343
  146SAPE  H18S16078   6.501   0.154   8.347
  146SAPE  C21916079   6.358   0.194   8.191
  146SAPE  H19R16080   6.248   0.192   8.176
  146SAPE  H19S16081   6.403   0.122   8.119
  146SAPE  C22016082   6.411   0.334   8.158
  146SAPE  H20R16083   6.386   0.362   8.053
  146SAPE  H20S16084   6.522   0.338   8.169
  146SAPE  H20T16085   6.366   0.411   8.225
  146SAPE   C3316086   6.300   0.195   9.128
  146SAPE   H3X16087   6.225   0.128   9.175
  146SAPE   H3Y16088   6.364   0.132   9.062
  146SAPE   C3416089   6.225   0.301   9.045
  146SAPE   H4X16090   6.175   0.371   9.116
  146SAPE   H4Y16091   6.145   0.251   8.987
  146SAPE   C3516092   6.311   0.384   8.947
  146SAPE   H5X16093   6.317   0.329   8.851
  146SAPE   H5Y16094   6.415   0.394   8.984
  146SAPE   C3616095   6.253   0.526   8.925
  146SAPE   H6X16096   6.274   0.586   9.016
  146SAPE   H6Y16097   6.143   0.518   8.917
  146SAPE   C3716098   6.301   0.602   8.799
  146SAPE   H7X16099   6.412   0.603   8.794
  146SAPE   H7Y16100   6.268   0.708   8.808
  146SAPE   C3816101   6.241   0.547   8.670
  146SAPE   H8X16102   6.131   0.548   8.684
  146SAPE   H8Y16103   6.273   0.442   8.654
  146SAPE   C3916104   6.268   0.626   8.542
  146SAPE   H9X16105   6.245   0.733   8.564
  146SAPE   H9Y16106   6.197   0.591   8.465
  146SAPE  C31016107   6.408   0.622   8.481
  146SAPE  H10X16108   6.432   0.519   8.448
  146SAPE  H10Y16109   6.483   0.651   8.558
  146SAPE  C31116110   6.418   0.719   8.362
  146SAPE  H11X16111   6.429   0.822   8.401
  146SAPE  H11Y16112   6.323   0.715   8.304
  146SAPE  C31216113   6.531   0.690   8.262
  146SAPE  H12X16114   6.554   0.784   8.207
  146SAPE  H12Y16115   6.496   0.616   8.187
  146SAPE  C31316116   6.658   0.636   8.328
  146SAPE  H13X16117   6.646   0.527   8.345
  146SAPE  H13Y16118   6.672   0.686   8.426
  146SAPE  C31416119   6.784   0.661   8.247
  146SAPE  H14X16120   6.871   0.626   8.305
  146SAPE  H14Y16121   6.796   0.771   8.233
  146SAPE  C31516122   6.787   0.593   8.110
  146SAPE  H15X16123   6.835   0.666   8.041
  146SAPE  H15Y16124   6.685   0.574   8.070
  146SAPE  C31616125   6.871   0.464   8.106
  146SAPE  H16X16126   6.810   0.379   8.141
  146SAPE  H16Y16127   6.958   0.474   8.175
  146SAPE  C31716128   6.927   0.437   7.966
  146SAPE  H17X16129   6.994   0.522   7.938
  146SAPE  H17Y16130   6.843   0.434   7.893
  146SAPE  C31816131   7.008   0.308   7.955
  146SAPE  H18X16132   6.943   0.221   7.978
  146SAPE  H18Y16133   7.093   0.309   8.027
  146SAPE  H18Z16134   7.049   0.296   7.853
  147SAPE     N16135   3.551   3.965   5.916
  147SAPE   HN116136   3.578   3.969   5.815
  147SAPE   HN216137   3.599   3.881   5.955
  147SAPE   HN316138   3.448   3.951   5.923
  147SAPE   C1216139   3.592   4.089   5.991
  147SAPE  H12A16140   3.524   4.099   6.078
  147SAPE  H12B16141   3.576   4.175   5.922
  147SAPE   C1116142   3.739   4.082   6.035
  147SAPE  H11A16143   3.754   3.997   6.105
  147SAPE  H11B16144   3.762   4.175   6.092
  147SAPE     P16145   3.911   3.951   5.882
  147SAPE   O1316146   3.817   3.842   5.845
  147SAPE   O1416147   4.010   3.992   5.781
  147SAPE   O1216148   3.825   4.077   5.921
  147SAPE   O1116149   3.984   3.908   6.014
  147SAPE    C116150   4.068   4.002   6.080
  147SAPE    HA16151   4.167   4.008   6.030
  147SAPE    HB16152   4.023   4.104   6.083
  147SAPE    C216153   4.091   3.960   6.227
  147SAPE    HS16154   4.143   3.861   6.224
  147SAPE   O2116155   3.962   3.950   6.293
  147SAPE   C2116156   3.954   3.858   6.388
  147SAPE   O2216157   4.042   3.777   6.414
  147SAPE   C2216158   3.822   3.869   6.467
  147SAPE   H2R16159   3.764   3.776   6.449
  147SAPE   H2S16160   3.852   3.867   6.574
  147SAPE    C316161   4.186   4.064   6.293
  147SAPE    HX16162   4.155   4.166   6.261
  147SAPE    HY16163   4.287   4.049   6.250
  147SAPE   O3116164   4.194   4.051   6.435
  147SAPE   C3116165   4.102   4.121   6.500
  147SAPE   O3216166   4.014   4.188   6.451
  147SAPE   C3216167   4.128   4.109   6.648
  147SAPE   H2X16168   4.174   4.206   6.677
  147SAPE   H2Y16169   4.199   4.026   6.668
  147SAPE   C2316170   3.733   3.994   6.442
  147SAPE   H3R16171   3.655   3.968   6.367
  147SAPE   H3S16172   3.794   4.076   6.399
  147SAPE   C2416173   3.667   4.052   6.570
  147SAPE   H4R16174   3.610   4.142   6.540
  147SAPE   H4S16175   3.748   4.088   6.636
  147SAPE   C2516176   3.575   3.958   6.644
  147SAPE   H5R16177   3.482   3.933   6.591
  147SAPE   C2616178   3.594   3.901   6.764
  147SAPE   H6R16179   3.518   3.831   6.802
  147SAPE   C2716180   3.715   3.921   6.851
  147SAPE   H7R16181   3.748   4.027   6.845
  147SAPE   H7S16182   3.798   3.860   6.808
  147SAPE   C2816183   3.697   3.877   6.995
  147SAPE   H8R16184   3.670   3.771   7.007
  147SAPE   C2916185   3.710   3.953   7.105
  147SAPE   H9R16186   3.694   3.907   7.203
  147SAPE  C21016187   3.743   4.100   7.113
  147SAPE  H10R16188   3.743   4.147   7.012
  147SAPE  H10S16189   3.846   4.113   7.152
  147SAPE  C21116190   3.644   4.175   7.197
  147SAPE  H11R16191   3.565   4.223   7.136
  147SAPE  C21216192   3.635   4.186   7.331
  147SAPE  H12R16193   3.551   4.246   7.370
  147SAPE  C21316194   3.721   4.126   7.440
  147SAPE  H13R16195   3.675   4.031   7.473
  147SAPE  H13S16196   3.712   4.193   7.529
  147SAPE  C21416197   3.868   4.103   7.415
  147SAPE  H14R16198   3.895   3.999   7.394
  147SAPE  C21516199   3.965   4.197   7.415
  147SAPE  H15R16200   4.069   4.166   7.398
  147SAPE  C21616201   3.945   4.345   7.442
  147SAPE  H16R16202   3.838   4.372   7.429
  147SAPE  H16S16203   4.001   4.405   7.368
  147SAPE  C21716204   3.988   4.387   7.584
  147SAPE  H17R16205   3.940   4.318   7.657
  147SAPE  H17S16206   3.949   4.488   7.605
  147SAPE  C21816207   4.140   4.388   7.606
  147SAPE  H18R16208   4.185   4.476   7.557
  147SAPE  H18S16209   4.185   4.299   7.557
  147SAPE  C21916210   4.177   4.386   7.755
  147SAPE  H19R16211   4.111   4.313   7.807
  147SAPE  H19S16212   4.156   4.486   7.799
  147SAPE  C22016213   4.322   4.347   7.783
  147SAPE  H20R16214   4.392   4.413   7.727
  147SAPE  H20S16215   4.341   4.242   7.751
  147SAPE  H20T16216   4.345   4.355   7.891
  147SAPE   C3316217   3.999   4.093   6.730
  147SAPE   H3X16218   3.951   3.995   6.707
  147SAPE   H3Y16219   3.928   4.174   6.704
  147SAPE   C3416220   4.026   4.103   6.880
  147SAPE   H4X16221   3.930   4.093   6.935
  147SAPE   H4Y16222   4.064   4.205   6.900
  147SAPE   C3516223   4.124   3.999   6.937
  147SAPE   H5X16224   4.144   4.030   7.041
  147SAPE   H5Y16225   4.221   3.998   6.883
  147SAPE   C3616226   4.063   3.858   6.934
  147SAPE   H6X16227   4.055   3.821   6.830
  147SAPE   H6Y16228   3.960   3.866   6.975
  147SAPE   C3716229   4.136   3.755   7.021
  147SAPE   H7X16230   4.233   3.727   6.975
  147SAPE   H7Y16231   4.073   3.664   7.026
  147SAPE   C3816232   4.159   3.809   7.163
  147SAPE   H8X16233   4.072   3.870   7.194
  147SAPE   H8Y16234   4.249   3.874   7.163
  147SAPE   C3916235   4.177   3.698   7.265
  147SAPE   H9X16236   4.246   3.621   7.223
  147SAPE   H9Y16237   4.079   3.649   7.281
  147SAPE  C31016238   4.235   3.748   7.398
  147SAPE  H10X16239   4.342   3.773   7.383
  147SAPE  H10Y16240   4.231   3.664   7.471
  147SAPE  C31116241   4.165   3.870   7.460
  147SAPE  H11X16242   4.056   3.850   7.469
  147SAPE  H11Y16243   4.178   3.959   7.394
  147SAPE  C31216244   4.225   3.899   7.598
  147SAPE  H12X16245   4.334   3.917   7.585
  147SAPE  H12Y16246   4.215   3.805   7.657
  147SAPE  C31316247   4.166   4.015   7.680
  147SAPE  H13X16248   4.178   4.108   7.620
  147SAPE  H13Y16249   4.227   4.026   7.771
  147SAPE  C31416250   4.018   4.003   7.722
  147SAPE  H14X16251   3.975   3.905   7.690
  147SAPE  H14Y16252   3.961   4.082   7.669
  147SAPE  C31516253   3.992   4.023   7.873
  147SAPE  H15X16254   4.075   4.084   7.916
  147SAPE  H15Y16255   3.992   3.925   7.924
  147SAPE  C31616256   3.860   4.095   7.905
  147SAPE  H16X16257   3.867   4.200   7.870
  147SAPE  H16Y16258   3.848   4.098   8.016
  147SAPE  C31716259   3.735   4.030   7.843
  147SAPE  H17X16260   3.731   3.923   7.873
  147SAPE  H17Y16261   3.744   4.034   7.733
  147SAPE  C31816262   3.606   4.099   7.886
  147SAPE  H18X16263   3.520   4.065   7.823
  147SAPE  H18Y16264   3.616   4.209   7.876
  147SAPE  H18Z16265   3.581   4.078   7.992
  148SAPE     N16266   3.731   3.038   5.702
  148SAPE   HN116267   3.798   2.964   5.730
  148SAPE   HN216268   3.661   3.054   5.778
  148SAPE   HN316269   3.682   3.013   5.614
  148SAPE   C1216270   3.801   3.171   5.697
  148SAPE  H12A16271   3.740   3.240   5.635
  148SAPE  H12B16272   3.902   3.158   5.653
  148SAPE   C1116273   3.806   3.224   5.841
  148SAPE  H11A16274   3.843   3.329   5.838
  148SAPE  H11B16275   3.878   3.164   5.900
  148SAPE     P16276   3.646   3.284   6.037
  148SAPE   O1316277   3.713   3.417   6.034
  148SAPE   O1416278   3.500   3.278   6.059
  148SAPE   O1216279   3.674   3.214   5.896
  148SAPE   O1116280   3.720   3.182   6.132
  148SAPE    C116281   3.663   3.051   6.148
  148SAPE    HA16282   3.590   3.052   6.232
  148SAPE    HB16283   3.607   3.018   6.058
  148SAPE    C216284   3.768   2.937   6.173
  148SAPE    HS16285   3.724   2.843   6.136
  148SAPE   O2116286   3.798   2.928   6.314
  148SAPE   C2116287   3.705   2.860   6.381
  148SAPE   O2216288   3.607   2.810   6.330
  148SAPE   C2216289   3.749   2.843   6.526
  148SAPE   H2R16290   3.845   2.787   6.528
  148SAPE   H2S16291   3.766   2.944   6.569
  148SAPE    C316292   3.901   2.952   6.092
  148SAPE    HX16293   3.873   2.940   5.986
  148SAPE    HY16294   3.969   2.868   6.118
  148SAPE   O3116295   3.966   3.079   6.106
  148SAPE   C3116296   4.038   3.093   6.216
  148SAPE   O3216297   4.079   3.002   6.286
  148SAPE   C3216298   4.070   3.241   6.235
  148SAPE   H2X16299   3.996   3.301   6.178
  148SAPE   H2Y16300   4.171   3.259   6.192
  148SAPE   C2316301   3.642   2.769   6.609
  148SAPE   H3R16302   3.635   2.662   6.579
  148SAPE   H3S16303   3.543   2.814   6.587
  148SAPE   C2416304   3.665   2.781   6.761
  148SAPE   H4R16305   3.576   2.740   6.812
  148SAPE   H4S16306   3.672   2.889   6.788
  148SAPE   C2516307   3.788   2.707   6.806
  148SAPE   H5R16308   3.839   2.650   6.728
  148SAPE   C2616309   3.837   2.708   6.931
  148SAPE   H6R16310   3.926   2.648   6.954
  148SAPE   C2716311   3.779   2.784   7.047
  148SAPE   H7R16312   3.763   2.715   7.133
  148SAPE   H7S16313   3.678   2.824   7.024
  148SAPE   C2816314   3.872   2.898   7.080
  148SAPE   H8R16315   3.861   2.981   7.009
  148SAPE   C2916316   3.965   2.911   7.176
  148SAPE   H9R16317   4.019   3.007   7.177
  148SAPE  C21016318   4.012   2.820   7.288
  148SAPE  H10R16319   4.004   2.878   7.382
  148SAPE  H10S16320   4.122   2.805   7.274
  148SAPE  C21116321   3.952   2.684   7.312
  148SAPE  H11R16322   4.005   2.599   7.266
  148SAPE  C21216323   3.840   2.661   7.382
  148SAPE  H12R16324   3.803   2.558   7.392
  148SAPE  C21316325   3.757   2.769   7.446
  148SAPE  H13R16326   3.726   2.843   7.369
  148SAPE  H13S16327   3.820   2.826   7.519
  148SAPE  C21416328   3.634   2.712   7.512
  148SAPE  H14R16329   3.557   2.677   7.443
  148SAPE  C21516330   3.614   2.702   7.644
  148SAPE  H15R16331   3.521   2.653   7.679
  148SAPE  C21616332   3.707   2.744   7.754
  148SAPE  H16R16333   3.649   2.761   7.847
  148SAPE  H16S16334   3.759   2.839   7.730
  148SAPE  C21716335   3.816   2.638   7.781
  148SAPE  H17R16336   3.884   2.633   7.694
  148SAPE  H17S16337   3.766   2.539   7.788
  148SAPE  C21816338   3.895   2.662   7.911
  148SAPE  H18R16339   3.890   2.570   7.972
  148SAPE  H18S16340   3.847   2.743   7.971
  148SAPE  C21916341   4.043   2.695   7.887
  148SAPE  H19R16342   4.053   2.805   7.871
  148SAPE  H19S16343   4.076   2.646   7.793
  148SAPE  C22016344   4.134   2.648   8.000
  148SAPE  H20R16345   4.135   2.537   8.004
  148SAPE  H20S16346   4.099   2.686   8.098
  148SAPE  H20T16347   4.239   2.682   7.983
  148SAPE   C3316348   4.067   3.281   6.383
  148SAPE   H3X16349   4.104   3.385   6.393
  148SAPE   H3Y16350   4.132   3.214   6.443
  148SAPE   C3416351   3.926   3.277   6.444
  148SAPE   H4X16352   3.891   3.171   6.448
  148SAPE   H4Y16353   3.855   3.332   6.378
  148SAPE   C3516354   3.924   3.339   6.584
  148SAPE   H5X16355   3.960   3.444   6.577
  148SAPE   H5Y16356   3.995   3.283   6.649
  148SAPE   C3616357   3.786   3.338   6.650
  148SAPE   H6X16358   3.714   3.394   6.588
  148SAPE   H6Y16359   3.794   3.390   6.748
  148SAPE   C3716360   3.733   3.196   6.672
  148SAPE   H7X16361   3.810   3.135   6.725
  148SAPE   H7Y16362   3.714   3.150   6.573
  148SAPE   C3816363   3.601   3.190   6.750
  148SAPE   H8X16364   3.571   3.083   6.761
  148SAPE   H8Y16365   3.524   3.240   6.689
  148SAPE   C3916366   3.603   3.255   6.888
  148SAPE   H9X16367   3.502   3.241   6.934
  148SAPE   H9Y16368   3.619   3.365   6.877
  148SAPE  C31016369   3.703   3.198   6.988
  148SAPE  H10X16370   3.805   3.190   6.943
  148SAPE  H10Y16371   3.669   3.096   7.016
  148SAPE  C31116372   3.711   3.288   7.112
  148SAPE  H11X16373   3.614   3.343   7.120
  148SAPE  H11Y16374   3.792   3.363   7.099
  148SAPE  C31216375   3.728   3.215   7.246
  148SAPE  H12X16376   3.748   3.292   7.323
  148SAPE  H12Y16377   3.814   3.146   7.242
  148SAPE  C31316378   3.602   3.139   7.290
  148SAPE  H13X16379   3.593   3.047   7.228
  148SAPE  H13Y16380   3.512   3.201   7.272
  148SAPE  C31416381   3.606   3.101   7.438
  148SAPE  H14X16382   3.706   3.058   7.461
  148SAPE  H14Y16383   3.531   3.021   7.457
  148SAPE  C31516384   3.576   3.219   7.532
  148SAPE  H15X16385   3.481   3.265   7.500
  148SAPE  H15Y16386   3.656   3.295   7.524
  148SAPE  C31616387   3.562   3.177   7.679
  148SAPE  H16X16388   3.483   3.098   7.687
  148SAPE  H16Y16389   3.528   3.264   7.740
  148SAPE  C31716390   3.692   3.123   7.740
  148SAPE  H17X16391   3.769   3.202   7.739
  148SAPE  H17Y16392   3.729   3.040   7.675
  148SAPE  C31816393   3.674   3.069   7.882
  148SAPE  H18X16394   3.586   3.002   7.887
  148SAPE  H18Y16395   3.658   3.153   7.954
  148SAPE  H18Z16396   3.763   3.011   7.912
  149SAPE     N16397   2.949   3.441   5.898
  149SAPE   HN116398   2.980   3.343   5.917
  149SAPE   HN216399   2.846   3.446   5.911
  149SAPE   HN316400   2.970   3.463   5.798
  149SAPE   C1216401   3.024   3.537   5.987
  149SAPE  H12A16402   3.132   3.510   5.977
  149SAPE  H12B16403   2.993   3.520   6.092
  149SAPE   C1116404   2.996   3.683   5.944
  149SAPE  H11A16405   2.893   3.709   5.977
  149SAPE  H11B16406   2.998   3.693   5.833
  149SAPE     P16407   3.241   3.770   5.968
  149SAPE   O1316408   3.259   3.682   5.850
  149SAPE   O1416409   3.298   3.906   5.953
  149SAPE   O1216410   3.087   3.776   6.002
  149SAPE   O1116411   3.300   3.699   6.095
  149SAPE    C116412   3.418   3.741   6.164
  149SAPE    HA16413   3.496   3.663   6.150
  149SAPE    HB16414   3.459   3.837   6.126
  149SAPE    C216415   3.401   3.763   6.318
  149SAPE    HS16416   3.504   3.769   6.358
  149SAPE   O2116417   3.325   3.657   6.380
  149SAPE   C2116418   3.348   3.648   6.511
  149SAPE   O2216419   3.446   3.692   6.567
  149SAPE   C2216420   3.229   3.586   6.582
  149SAPE   H2R16421   3.171   3.668   6.631
  149SAPE   H2S16422   3.163   3.539   6.506
  149SAPE    C316423   3.331   3.899   6.348
  149SAPE    HX16424   3.388   3.978   6.295
  149SAPE    HY16425   3.340   3.921   6.457
  149SAPE   O3116426   3.195   3.901   6.302
  149SAPE   C3116427   3.101   3.899   6.395
  149SAPE   O3216428   3.120   3.895   6.516
  149SAPE   C3216429   2.964   3.902   6.328
  149SAPE   H2X16430   2.967   3.837   6.238
  149SAPE   H2Y16431   2.947   4.007   6.295
  149SAPE   C2316432   3.270   3.481   6.688
  149SAPE   H3R16433   3.363   3.429   6.657
  149SAPE   H3S16434   3.190   3.405   6.689
  149SAPE   C2416435   3.284   3.538   6.831
  149SAPE   H4R16436   3.190   3.591   6.858
  149SAPE   H4S16437   3.367   3.611   6.834
  149SAPE   C2516438   3.309   3.422   6.923
  149SAPE   H5R16439   3.307   3.325   6.870
  149SAPE   C2616440   3.329   3.417   7.056
  149SAPE   H6R16441   3.351   3.318   7.098
  149SAPE   C2716442   3.333   3.527   7.158
  149SAPE   H7R16443   3.301   3.485   7.256
  149SAPE   H7S16444   3.256   3.604   7.135
  149SAPE   C2816445   3.472   3.585   7.173
  149SAPE   H8R16446   3.552   3.528   7.124
  149SAPE   C2916447   3.505   3.700   7.232
  149SAPE   H9R16448   3.612   3.726   7.239
  149SAPE  C21016449   3.412   3.799   7.296
  149SAPE  H10R16450   3.450   3.822   7.398
  149SAPE  H10S16451   3.313   3.751   7.313
  149SAPE  C21116452   3.396   3.929   7.222
  149SAPE  H11R16453   3.439   4.015   7.275
  149SAPE  C21216454   3.335   3.955   7.104
  149SAPE  H12R16455   3.339   4.058   7.066
  149SAPE  C21316456   3.264   3.861   7.010
  149SAPE  H13R16457   3.301   3.757   7.023
  149SAPE  H13S16458   3.298   3.887   6.907
  149SAPE  C21416459   3.112   3.864   7.008
  149SAPE  H14R16460   3.072   3.865   6.906
  149SAPE  C21516461   3.021   3.864   7.109
  149SAPE  H15R16462   2.915   3.866   7.080
  149SAPE  C21616463   3.041   3.858   7.258
  149SAPE  H16R16464   3.126   3.790   7.279
  149SAPE  H16S16465   2.952   3.812   7.305
  149SAPE  C21716466   3.067   3.989   7.334
  149SAPE  H17R16467   2.971   4.046   7.342
  149SAPE  H17S16468   3.139   4.050   7.275
  149SAPE  C21816469   3.128   3.969   7.473
  149SAPE  H18R16470   3.143   4.069   7.520
  149SAPE  H18S16471   3.228   3.922   7.462
  149SAPE  C21916472   3.044   3.882   7.568
  149SAPE  H19R16473   3.035   3.780   7.525
  149SAPE  H19S16474   2.942   3.925   7.574
  149SAPE  C22016475   3.105   3.873   7.708
  149SAPE  H20R16476   3.114   3.974   7.754
  149SAPE  H20S16477   3.207   3.829   7.702
  149SAPE  H20T16478   3.043   3.809   7.774
  149SAPE   C3316479   2.850   3.858   6.423
  149SAPE   H3X16480   2.753   3.870   6.369
  149SAPE   H3Y16481   2.848   3.923   6.513
  149SAPE   C3416482   2.863   3.712   6.467
  149SAPE   H4X16483   2.953   3.702   6.532
  149SAPE   H4Y16484   2.880   3.646   6.379
  149SAPE   C3516485   2.740   3.662   6.543
  149SAPE   H5X16486   2.674   3.611   6.471
  149SAPE   H5Y16487   2.682   3.748   6.583
  149SAPE   C3616488   2.769   3.566   6.659
  149SAPE   H6X16489   2.822   3.479   6.615
  149SAPE   H6Y16490   2.672   3.529   6.699
  149SAPE   C3716491   2.853   3.617   6.778
  149SAPE   H7X16492   2.798   3.695   6.835
  149SAPE   H7Y16493   2.949   3.660   6.744
  149SAPE   C3816494   2.881   3.497   6.870
  149SAPE   H8X16495   2.945   3.430   6.809
  149SAPE   H8Y16496   2.784   3.446   6.891
  149SAPE   C3916497   2.954   3.522   7.003
  149SAPE   H9X16498   2.997   3.624   7.001
  149SAPE   H9Y16499   3.039   3.451   7.011
  149SAPE  C31016500   2.866   3.502   7.127
  149SAPE  H10X16501   2.830   3.397   7.135
  149SAPE  H10Y16502   2.776   3.567   7.114
  149SAPE  C31116503   2.936   3.545   7.257
  149SAPE  H11X16504   2.865   3.600   7.322
  149SAPE  H11Y16505   3.018   3.614   7.227
  149SAPE  C31216506   3.004   3.435   7.339
  149SAPE  H12X16507   3.078   3.386   7.273
  149SAPE  H12Y16508   2.930   3.360   7.372
  149SAPE  C31316509   3.078   3.494   7.461
  149SAPE  H13X16510   3.004   3.540   7.530
  149SAPE  H13Y16511   3.147   3.574   7.427
  149SAPE  C31416512   3.160   3.389   7.540
  149SAPE  H14X16513   3.236   3.344   7.473
  149SAPE  H14Y16514   3.090   3.307   7.570
  149SAPE  C31516515   3.229   3.444   7.666
  149SAPE  H15X16516   3.263   3.357   7.726
  149SAPE  H15Y16517   3.156   3.501   7.727
  149SAPE  C31616518   3.352   3.532   7.636
  149SAPE  H16X16519   3.320   3.629   7.593
  149SAPE  H16Y16520   3.412   3.480   7.559
  149SAPE  C31716521   3.442   3.556   7.759
  149SAPE  H17X16522   3.540   3.594   7.723
  149SAPE  H17Y16523   3.461   3.458   7.808
  149SAPE  C31816524   3.386   3.653   7.862
  149SAPE  H18X16525   3.454   3.659   7.951
  149SAPE  H18Y16526   3.286   3.622   7.897
  149SAPE  H18Z16527   3.379   3.755   7.819
  150SAPE     N16528   2.443   4.397   5.804
  150SAPE   HN116529   2.494   4.484   5.830
  150SAPE   HN216530   2.401   4.405   5.710
  150SAPE   HN316531   2.364   4.380   5.870
  150SAPE   C1216532   2.527   4.274   5.807
  150SAPE  H12A16533   2.609   4.289   5.881
  150SAPE  H12B16534   2.571   4.260   5.706
  150SAPE   C1116535   2.437   4.155   5.846
  150SAPE  H11A16536   2.496   4.061   5.842
  150SAPE  H11B16537   2.357   4.144   5.770
  150SAPE     P16538   2.454   4.125   6.102
  150SAPE   O1316539   2.452   3.977   6.099
  150SAPE   O1416540   2.585   4.194   6.103
  150SAPE   O1216541   2.377   4.179   5.974
  150SAPE   O1116542   2.365   4.180   6.220
  150SAPE    C116543   2.359   4.321   6.245
  150SAPE    HA16544   2.460   4.361   6.271
  150SAPE    HB16545   2.323   4.373   6.154
  150SAPE    C216546   2.260   4.355   6.360
  150SAPE    HS16547   2.221   4.457   6.338
  150SAPE   O2116548   2.336   4.364   6.482
  150SAPE   C2116549   2.274   4.373   6.598
  150SAPE   O2216550   2.154   4.366   6.618
  150SAPE   C2216551   2.374   4.422   6.703
  150SAPE   H2R16552   2.456   4.475   6.651
  150SAPE   H2S16553   2.321   4.497   6.766
  150SAPE    C316554   2.138   4.258   6.360
  150SAPE    HX16555   2.107   4.247   6.254
  150SAPE    HY16556   2.054   4.308   6.413
  150SAPE   O3116557   2.164   4.133   6.425
  150SAPE   C3116558   2.138   4.022   6.358
  150SAPE   O3216559   2.098   4.015   6.243
  150SAPE   C3216560   2.159   3.903   6.451
  150SAPE   H2X16561   2.260   3.913   6.496
  150SAPE   H2Y16562   2.157   3.813   6.387
  150SAPE   C2316563   2.430   4.311   6.795
  150SAPE   H3R16564   2.407   4.210   6.755
  150SAPE   H3S16565   2.380   4.318   6.894
  150SAPE   C2416566   2.582   4.324   6.814
  150SAPE   H4R16567   2.610   4.258   6.899
  150SAPE   H4S16568   2.607   4.428   6.845
  150SAPE   C2516569   2.654   4.288   6.686
  150SAPE   H5R16570   2.636   4.355   6.601
  150SAPE   C2616571   2.733   4.181   6.668
  150SAPE   H6R16572   2.778   4.164   6.569
  150SAPE   C2716573   2.765   4.077   6.772
  150SAPE   H7R16574   2.763   4.122   6.873
  150SAPE   H7S16575   2.870   4.043   6.756
  150SAPE   C2816576   2.679   3.955   6.763
  150SAPE   H8R16577   2.656   3.923   6.661
  150SAPE   C2916578   2.624   3.890   6.866
  150SAPE   H9R16579   2.570   3.796   6.844
  150SAPE  C21016580   2.636   3.925   7.012
  150SAPE  H10R16581   2.548   3.991   7.031
  150SAPE  H10S16582   2.726   3.988   7.031
  150SAPE  C21116583   2.635   3.811   7.110
  150SAPE  H11R16584   2.640   3.711   7.064
  150SAPE  C21216585   2.626   3.819   7.245
  150SAPE  H12R16586   2.626   3.725   7.301
  150SAPE  C21316587   2.615   3.942   7.333
  150SAPE  H13R16588   2.716   3.967   7.371
  150SAPE  H13S16589   2.557   3.913   7.423
  150SAPE  C21416590   2.547   4.064   7.274
  150SAPE  H14R16591   2.462   4.042   7.208
  150SAPE  C21516592   2.576   4.193   7.301
  150SAPE  H15R16593   2.517   4.272   7.252
  150SAPE  C21616594   2.681   4.239   7.398
  150SAPE  H16R16595   2.692   4.349   7.390
  150SAPE  H16S16596   2.779   4.192   7.374
  150SAPE  C21716597   2.642   4.206   7.543
  150SAPE  H17R16598   2.584   4.112   7.545
  150SAPE  H17S16599   2.575   4.286   7.583
  150SAPE  C21816600   2.762   4.187   7.636
  150SAPE  H18R16601   2.808   4.286   7.658
  150SAPE  H18S16602   2.838   4.124   7.585
  150SAPE  C21916603   2.722   4.117   7.767
  150SAPE  H19R16604   2.640   4.175   7.815
  150SAPE  H19S16605   2.810   4.121   7.836
  150SAPE  C22016606   2.678   3.971   7.752
  150SAPE  H20R16607   2.757   3.911   7.703
  150SAPE  H20S16608   2.585   3.963   7.692
  150SAPE  H20T16609   2.656   3.925   7.851
  150SAPE   C3316610   2.052   3.890   6.562
  150SAPE   H3X16611   2.046   3.782   6.588
  150SAPE   H3Y16612   1.950   3.919   6.527
  150SAPE   C3416613   2.087   3.964   6.693
  150SAPE   H4X16614   2.056   4.070   6.685
  150SAPE   H4Y16615   2.197   3.962   6.708
  150SAPE   C3516616   2.021   3.898   6.816
  150SAPE   H5X16617   2.057   3.794   6.825
  150SAPE   H5Y16618   1.911   3.893   6.798
  150SAPE   C3616619   2.046   3.972   6.949
  150SAPE   H6X16620   2.011   4.077   6.939
  150SAPE   H6Y16621   2.155   3.974   6.970
  150SAPE   C3716622   1.972   3.906   7.067
  150SAPE   H7X16623   1.995   3.798   7.073
  150SAPE   H7Y16624   1.862   3.911   7.048
  150SAPE   C3816625   1.997   3.975   7.201
  150SAPE   H8X16626   1.914   3.952   7.271
  150SAPE   H8Y16627   1.997   4.085   7.185
  150SAPE   C3916628   2.127   3.928   7.266
  150SAPE   H9X16629   2.209   3.932   7.191
  150SAPE   H9Y16630   2.114   3.822   7.298
  150SAPE  C31016631   2.172   4.010   7.386
  150SAPE  H10X16632   2.261   3.961   7.431
  150SAPE  H10Y16633   2.091   4.011   7.463
  150SAPE  C31116634   2.209   4.153   7.345
  150SAPE  H11X16635   2.116   4.209   7.321
  150SAPE  H11Y16636   2.271   4.150   7.253
  150SAPE  C31216637   2.287   4.224   7.455
  150SAPE  H12X16638   2.316   4.326   7.422
  150SAPE  H12Y16639   2.381   4.168   7.475
  150SAPE  C31316640   2.210   4.229   7.587
  150SAPE  H13X16641   2.207   4.124   7.623
  150SAPE  H13Y16642   2.105   4.261   7.571
  150SAPE  C31416643   2.278   4.321   7.689
  150SAPE  H14X16644   2.259   4.427   7.661
  150SAPE  H14Y16645   2.388   4.304   7.684
  150SAPE  C31516646   2.232   4.293   7.832
  150SAPE  H15X16647   2.125   4.322   7.841
  150SAPE  H15Y16648   2.290   4.357   7.901
  150SAPE  C31616649   2.250   4.145   7.870
  150SAPE  H16X16650   2.349   4.110   7.836
  150SAPE  H16Y16651   2.172   4.085   7.819
  150SAPE  C31716652   2.235   4.119   8.019
  150SAPE  H17X16653   2.324   4.161   8.072
  150SAPE  H17Y16654   2.236   4.009   8.037
  150SAPE  C31816655   2.108   4.180   8.077
  150SAPE  H18X16656   2.114   4.291   8.078
  150SAPE  H18Y16657   2.093   4.144   8.181
  150SAPE  H18Z16658   2.020   4.151   8.016
  151SAPE     N16659   4.775   2.185   5.764
  151SAPE   HN116660   4.860   2.166   5.706
  151SAPE   HN216661   4.697   2.210   5.700
  151SAPE   HN316662   4.803   2.261   5.829
  151SAPE   C1216663   4.748   2.062   5.846
  151SAPE  H12A16664   4.682   1.994   5.787
  151SAPE  H12B16665   4.695   2.094   5.938
  151SAPE   C1116666   4.880   1.990   5.881
  151SAPE  H11A16667   4.909   1.926   5.795
  151SAPE  H11B16668   4.864   1.922   5.968
  151SAPE     P16669   4.977   2.183   6.029
  151SAPE   O1316670   4.910   2.302   5.971
  151SAPE   O1416671   4.908   2.114   6.139
  151SAPE   O1216672   4.986   2.082   5.906
  151SAPE   O1116673   5.128   2.211   6.061
  151SAPE    C116674   5.234   2.120   6.025
  151SAPE    HA16675   5.206   2.047   5.946
  151SAPE    HB16676   5.318   2.179   5.983
  151SAPE    C216677   5.290   2.043   6.148
  151SAPE    HS16678   5.369   1.973   6.114
  151SAPE   O2116679   5.188   1.970   6.220
  151SAPE   C2116680   5.131   1.868   6.160
  151SAPE   O2216681   5.150   1.830   6.046
  151SAPE   C2216682   5.059   1.784   6.267
  151SAPE   H2R16683   5.078   1.677   6.242
  151SAPE   H2S16684   5.106   1.807   6.364
  151SAPE    C316685   5.355   2.143   6.247
  151SAPE    HX16686   5.281   2.222   6.270
  151SAPE    HY16687   5.440   2.193   6.195
  151SAPE   O3116688   5.406   2.074   6.364
  151SAPE   C3116689   5.333   2.086   6.475
  151SAPE   O3216690   5.233   2.154   6.489
  151SAPE   C3216691   5.394   1.995   6.581
  151SAPE   H2X16692   5.502   1.987   6.560
  151SAPE   H2Y16693   5.346   1.895   6.572
  151SAPE   C2316694   4.906   1.806   6.279
  151SAPE   H3R16695   4.851   1.757   6.195
  151SAPE   H3S16696   4.885   1.915   6.272
  151SAPE   C2416697   4.854   1.752   6.415
  151SAPE   H4R16698   4.935   1.768   6.489
  151SAPE   H4S16699   4.839   1.643   6.407
  151SAPE   C2516700   4.731   1.820   6.470
  151SAPE   H5R16701   4.638   1.762   6.466
  151SAPE   C2616702   4.731   1.943   6.524
  151SAPE   H6R16703   4.638   1.982   6.566
  151SAPE   C2716704   4.853   2.032   6.536
  151SAPE   H7R16705   4.908   2.037   6.440
  151SAPE   H7S16706   4.925   1.987   6.608
  151SAPE   C2816707   4.819   2.173   6.575
  151SAPE   H8R16708   4.784   2.236   6.492
  151SAPE   C2916709   4.831   2.229   6.697
  151SAPE   H9R16710   4.796   2.332   6.711
  151SAPE  C21016711   4.879   2.165   6.824
  151SAPE  H10R16712   4.910   2.060   6.805
  151SAPE  H10S16713   4.793   2.159   6.893
  151SAPE  C21116714   4.996   2.238   6.887
  151SAPE  H11R16715   5.077   2.261   6.817
  151SAPE  C21216716   5.011   2.271   7.017
  151SAPE  H12R16717   5.104   2.321   7.048
  151SAPE  C21316718   4.914   2.241   7.129
  151SAPE  H13R16719   4.933   2.139   7.168
  151SAPE  H13S16720   4.810   2.236   7.091
  151SAPE  C21416721   4.919   2.336   7.246
  151SAPE  H14R16722   4.865   2.430   7.232
  151SAPE  C21516723   4.979   2.315   7.365
  151SAPE  H15R16724   4.969   2.394   7.441
  151SAPE  C21616725   5.056   2.194   7.411
  151SAPE  H16R16726   5.038   2.105   7.346
  151SAPE  H16S16727   5.021   2.166   7.512
  151SAPE  C21716728   5.208   2.217   7.416
  151SAPE  H17R16729   5.225   2.318   7.458
  151SAPE  H17S16730   5.252   2.215   7.314
  151SAPE  C21816731   5.283   2.120   7.509
  151SAPE  H18R16732   5.303   2.024   7.458
  151SAPE  H18S16733   5.216   2.099   7.595
  151SAPE  C21916734   5.412   2.181   7.565
  151SAPE  H19R16735   5.393   2.286   7.596
  151SAPE  H19S16736   5.489   2.184   7.485
  151SAPE  C22016737   5.466   2.104   7.686
  151SAPE  H20R16738   5.481   1.997   7.660
  151SAPE  H20S16739   5.562   2.147   7.722
  151SAPE  H20T16740   5.394   2.107   7.771
  151SAPE   C3316741   5.375   2.046   6.725
  151SAPE   H3X16742   5.275   2.012   6.761
  151SAPE   H3Y16743   5.374   2.157   6.730
  151SAPE   C3416744   5.490   2.002   6.818
  151SAPE   H4X16745   5.586   2.038   6.777
  151SAPE   H4Y16746   5.495   1.891   6.819
  151SAPE   C3516747   5.476   2.053   6.963
  151SAPE   H5X16748   5.507   2.160   6.965
  151SAPE   H5Y16749   5.545   1.997   7.028
  151SAPE   C3616750   5.333   2.045   7.018
  151SAPE   H6X16751   5.271   2.120   6.965
  151SAPE   H6Y16752   5.331   2.072   7.126
  151SAPE   C3716753   5.268   1.907   7.000
  151SAPE   H7X16754   5.295   1.841   7.085
  151SAPE   H7Y16755   5.310   1.856   6.910
  151SAPE   C3816756   5.117   1.911   6.974
  151SAPE   H8X16757   5.092   1.826   6.908
  151SAPE   H8Y16758   5.093   2.003   6.916
  151SAPE   C3916759   5.026   1.901   7.098
  151SAPE   H9X16760   5.054   1.981   7.170
  151SAPE   H9Y16761   5.045   1.804   7.149
  151SAPE  C31016762   4.877   1.905   7.061
  151SAPE  H10X16763   4.860   1.833   6.978
  151SAPE  H10Y16764   4.855   2.005   7.017
  151SAPE  C31116765   4.771   1.882   7.171
  151SAPE  H11X16766   4.686   1.831   7.122
  151SAPE  H11Y16767   4.733   1.981   7.205
  151SAPE  C31216768   4.809   1.800   7.295
  151SAPE  H12X16769   4.860   1.706   7.266
  151SAPE  H12Y16770   4.714   1.773   7.346
  151SAPE  C31316771   4.894   1.878   7.397
  151SAPE  H13X16772   4.864   1.985   7.395
  151SAPE  H13Y16773   5.001   1.873   7.367
  151SAPE  C31416774   4.880   1.828   7.542
  151SAPE  H14X16775   4.867   1.717   7.541
  151SAPE  H14Y16776   4.787   1.872   7.585
  151SAPE  C31516777   5.001   1.863   7.630
  151SAPE  H15X16778   4.966   1.883   7.734
  151SAPE  H15Y16779   5.049   1.955   7.592
  151SAPE  C31616780   5.102   1.748   7.634
  151SAPE  H16X16781   5.133   1.725   7.529
  151SAPE  H16Y16782   5.052   1.657   7.674
  151SAPE  C31716783   5.228   1.776   7.717
  151SAPE  H17X16784   5.198   1.812   7.818
  151SAPE  H17Y16785   5.287   1.856   7.668
  151SAPE  C31816786   5.315   1.651   7.733
  151SAPE  H18X16787   5.258   1.570   7.785
  151SAPE  H18Y16788   5.406   1.673   7.793
  151SAPE  H18Z16789   5.348   1.611   7.635
  152SAPE     N16790   2.092   4.639   6.015
  152SAPE   HN116791   2.049   4.551   6.052
  152SAPE   HN216792   2.174   4.611   5.958
  152SAPE   HN316793   2.117   4.705   6.091
  152SAPE   C1216794   1.992   4.706   5.925
  152SAPE  H12A16795   2.002   4.664   5.823
  152SAPE  H12B16796   2.018   4.814   5.922
  152SAPE   C1116797   1.850   4.682   5.976
  152SAPE  H11A16798   1.836   4.714   6.081
  152SAPE  H11B16799   1.827   4.573   5.973
  152SAPE     P16800   1.737   4.903   5.893
  152SAPE   O1316801   1.842   4.968   5.811
  152SAPE   O1416802   1.597   4.930   5.857
  152SAPE   O1216803   1.759   4.747   5.888
  152SAPE   O1116804   1.764   4.938   6.045
  152SAPE    C116805   1.850   5.047   6.078
  152SAPE    HA16806   1.951   5.034   6.032
  152SAPE    HB16807   1.809   5.143   6.041
  152SAPE    C216808   1.871   5.061   6.232
  152SAPE    HS16809   1.958   5.127   6.250
  152SAPE   O2116810   1.892   4.936   6.298
  152SAPE   C2116811   1.990   4.860   6.261
  152SAPE   O2216812   2.073   4.878   6.173
  152SAPE   C2216813   1.992   4.734   6.346
  152SAPE   H2R16814   1.934   4.655   6.295
  152SAPE   H2S16815   2.099   4.702   6.351
  152SAPE    C316816   1.746   5.127   6.299
  152SAPE    HX16817   1.661   5.056   6.295
  152SAPE    HY16818   1.716   5.215   6.238
  152SAPE   O3116819   1.778   5.173   6.432
  152SAPE   C3116820   1.742   5.093   6.532
  152SAPE   O3216821   1.678   4.990   6.523
  152SAPE   C3216822   1.803   5.148   6.662
  152SAPE   H2X16823   1.764   5.250   6.680
  152SAPE   H2Y16824   1.913   5.154   6.646
  152SAPE   C2316825   1.937   4.755   6.489
  152SAPE   H3R16826   1.826   4.747   6.487
  152SAPE   H3S16827   1.960   4.857   6.527
  152SAPE   C2416828   1.995   4.653   6.587
  152SAPE   H4R16829   1.983   4.550   6.547
  152SAPE   H4S16830   1.936   4.657   6.681
  152SAPE   C2516831   2.141   4.683   6.612
  152SAPE   H5R16832   2.212   4.642   6.539
  152SAPE   C2616833   2.187   4.755   6.716
  152SAPE   H6R16834   2.296   4.762   6.731
  152SAPE   C2716835   2.104   4.816   6.825
  152SAPE   H7R16836   2.003   4.842   6.787
  152SAPE   H7S16837   2.150   4.910   6.861
  152SAPE   C2816838   2.091   4.715   6.935
  152SAPE   H8R16839   2.099   4.609   6.904
  152SAPE   C2916840   2.068   4.738   7.065
  152SAPE   H9R16841   2.068   4.650   7.131
  152SAPE  C21016842   2.048   4.866   7.141
  152SAPE  H10R16843   2.045   4.955   7.074
  152SAPE  H10S16844   2.135   4.881   7.209
  152SAPE  C21116845   1.925   4.852   7.225
  152SAPE  H11R16846   1.845   4.789   7.182
  152SAPE  C21216847   1.900   4.910   7.344
  152SAPE  H12R16848   1.802   4.889   7.390
  152SAPE  C21316849   1.987   5.004   7.425
  152SAPE  H13R16850   1.919   5.058   7.496
  152SAPE  H13S16851   2.023   5.083   7.356
  152SAPE  C21416852   2.107   4.960   7.506
  152SAPE  H14R16853   2.201   5.002   7.466
  152SAPE  C21516854   2.117   4.882   7.615
  152SAPE  H15R16855   2.219   4.865   7.654
  152SAPE  C21616856   2.013   4.808   7.697
  152SAPE  H16R16857   2.043   4.812   7.804
  152SAPE  H16S16858   2.019   4.701   7.668
  152SAPE  C21716859   1.865   4.848   7.691
  152SAPE  H17R16860   1.832   4.860   7.585
  152SAPE  H17S16861   1.850   4.946   7.741
  152SAPE  C21816862   1.772   4.741   7.750
  152SAPE  H18R16863   1.792   4.730   7.859
  152SAPE  H18S16864   1.797   4.644   7.701
  152SAPE  C21916865   1.623   4.768   7.727
  152SAPE  H19R16866   1.575   4.674   7.693
  152SAPE  H19S16867   1.611   4.842   7.645
  152SAPE  C22016868   1.550   4.816   7.853
  152SAPE  H20R16869   1.447   4.848   7.828
  152SAPE  H20S16870   1.605   4.901   7.897
  152SAPE  H20T16871   1.545   4.736   7.930
  152SAPE   C3316872   1.774   5.056   6.783
  152SAPE   H3X16873   1.774   4.950   6.749
  152SAPE   H3Y16874   1.673   5.077   6.825
  152SAPE   C3416875   1.881   5.063   6.892
  152SAPE   H4X16876   1.981   5.070   6.844
  152SAPE   H4Y16877   1.878   4.966   6.948
  152SAPE   C3516878   1.867   5.176   6.995
  152SAPE   H5X16879   1.843   5.272   6.944
  152SAPE   H5Y16880   1.965   5.186   7.047
  152SAPE   C3616881   1.763   5.153   7.101
  152SAPE   H6X16882   1.765   5.046   7.131
  152SAPE   H6Y16883   1.665   5.175   7.055
  152SAPE   C3716884   1.782   5.238   7.226
  152SAPE   H7X16885   1.766   5.346   7.204
  152SAPE   H7Y16886   1.885   5.226   7.264
  152SAPE   C3816887   1.686   5.190   7.333
  152SAPE   H8X16888   1.692   5.079   7.341
  152SAPE   H8Y16889   1.582   5.214   7.301
  152SAPE   C3916890   1.710   5.249   7.470
  152SAPE   H9X16891   1.687   5.358   7.466
  152SAPE   H9Y16892   1.817   5.238   7.499
  152SAPE  C31016893   1.622   5.182   7.575
  152SAPE  H10X16894   1.639   5.073   7.575
  152SAPE  H10Y16895   1.515   5.200   7.551
  152SAPE  C31116896   1.655   5.239   7.712
  152SAPE  H11X16897   1.653   5.350   7.708
  152SAPE  H11Y16898   1.758   5.206   7.738
  152SAPE  C31216899   1.556   5.196   7.818
  152SAPE  H12X16900   1.555   5.085   7.824
  152SAPE  H12Y16901   1.453   5.227   7.789
  152SAPE  C31316902   1.589   5.255   7.955
  152SAPE  H13X16903   1.524   5.202   8.028
  152SAPE  H13Y16904   1.563   5.363   7.956
  152SAPE  C31416905   1.736   5.240   8.000
  152SAPE  H14X16906   1.748   5.288   8.099
  152SAPE  H14Y16907   1.804   5.294   7.931
  152SAPE  C31516908   1.777   5.093   8.010
  152SAPE  H15X16909   1.784   5.048   7.909
  152SAPE  H15Y16910   1.694   5.042   8.063
  152SAPE  C31616911   1.908   5.069   8.087
  152SAPE  H16X16912   1.913   4.961   8.114
  152SAPE  H16Y16913   1.907   5.126   8.182
  152SAPE  C31716914   2.033   5.103   8.005
  152SAPE  H17X16915   2.030   5.211   7.980
  152SAPE  H17Y16916   2.029   5.046   7.910
  152SAPE  C31816917   2.163   5.070   8.078
  152SAPE  H18X16918   2.169   4.961   8.099
  152SAPE  H18Y16919   2.169   5.125   8.174
  152SAPE  H18Z16920   2.251   5.098   8.015
  153SAPE     N16921   5.444   5.054   5.837
  153SAPE   HN116922   5.421   5.151   5.807
  153SAPE   HN216923   5.402   4.987   5.769
  153SAPE   HN316924   5.408   5.040   5.933
  153SAPE   C1216925   5.594   5.037   5.838
  153SAPE  H12A16926   5.632   5.068   5.738
  153SAPE  H12B16927   5.617   4.929   5.854
  153SAPE   C1116928   5.655   5.125   5.947
  153SAPE  H11A16929   5.765   5.126   5.933
  153SAPE  H11B16930   5.634   5.080   6.047
  153SAPE     P16931   5.667   5.372   6.022
  153SAPE   O1316932   5.792   5.410   5.952
  153SAPE   O1416933   5.568   5.479   6.045
  153SAPE   O1216934   5.598   5.256   5.938
  153SAPE   O1116935   5.699   5.296   6.157
  153SAPE    C116936   5.652   5.343   6.284
  153SAPE    HA16937   5.647   5.454   6.287
  153SAPE    HB16938   5.550   5.304   6.305
  153SAPE    C216939   5.749   5.297   6.396
  153SAPE    HS16940   5.841   5.258   6.347
  153SAPE   O2116941   5.686   5.203   6.486
  153SAPE   C2116942   5.739   5.082   6.489
  153SAPE   O2216943   5.811   5.034   6.404
  153SAPE   C2216944   5.697   5.010   6.617
  153SAPE   H2R16945   5.676   5.088   6.694
  153SAPE   H2S16946   5.602   4.955   6.596
  153SAPE    C316947   5.794   5.418   6.483
  153SAPE    HX16948   5.825   5.501   6.416
  153SAPE    HY16949   5.885   5.385   6.539
  153SAPE   O3116950   5.685   5.459   6.569
  153SAPE   C3116951   5.715   5.472   6.698
  153SAPE   O3216952   5.827   5.475   6.744
  153SAPE   C3216953   5.585   5.480   6.777
  153SAPE   H2X16954   5.531   5.383   6.766
  153SAPE   H2Y16955   5.523   5.560   6.730
  153SAPE   C2316956   5.804   4.911   6.672
  153SAPE   H3R16957   5.904   4.958   6.661
  153SAPE   H3S16958   5.805   4.819   6.610
  153SAPE   C2416959   5.779   4.876   6.820
  153SAPE   H4R16960   5.690   4.811   6.820
  153SAPE   H4S16961   5.752   4.971   6.872
  153SAPE   C2516962   5.893   4.808   6.895
  153SAPE   H5R16963   5.958   4.749   6.829
  153SAPE   C2616964   5.925   4.813   7.027
  153SAPE   H6R16965   6.018   4.762   7.057
  153SAPE   C2716966   5.860   4.885   7.145
  153SAPE   H7R16967   5.773   4.946   7.113
  153SAPE   H7S16968   5.935   4.958   7.183
  153SAPE   C2816969   5.822   4.801   7.264
  153SAPE   H8R16970   5.860   4.697   7.262
  153SAPE   C2916971   5.747   4.838   7.371
  153SAPE   H9R16972   5.731   4.764   7.451
  153SAPE  C21016973   5.681   4.970   7.401
  153SAPE  H10R16974   5.725   5.051   7.339
  153SAPE  H10S16975   5.701   4.998   7.506
  153SAPE  C21116976   5.533   4.962   7.376
  153SAPE  H11R16977   5.506   4.940   7.272
  153SAPE  C21216978   5.432   4.978   7.464
  153SAPE  H12R16979   5.329   4.973   7.425
  153SAPE  C21316980   5.442   5.010   7.611
  153SAPE  H13R16981   5.355   5.074   7.640
  153SAPE  H13S16982   5.531   5.074   7.627
  153SAPE  C21416983   5.449   4.892   7.705
  153SAPE  H14R16984   5.434   4.793   7.660
  153SAPE  C21516985   5.477   4.900   7.837
  153SAPE  H15R16986   5.481   4.808   7.897
  153SAPE  C21616987   5.506   5.028   7.912
  153SAPE  H16R16988   5.556   5.099   7.842
  153SAPE  H16S16989   5.582   5.009   7.991
  153SAPE  C21716990   5.386   5.103   7.972
  153SAPE  H17R16991   5.291   5.074   7.921
  153SAPE  H17S16992   5.399   5.211   7.953
  153SAPE  C21816993   5.372   5.087   8.124
  153SAPE  H18R16994   5.457   5.028   8.164
  153SAPE  H18S16995   5.282   5.025   8.143
  153SAPE  C21916996   5.359   5.219   8.203
  153SAPE  H19R16997   5.304   5.196   8.297
  153SAPE  H19S16998   5.298   5.289   8.143
  153SAPE  C22016999   5.486   5.296   8.242
  153SAPE  H20R17000   5.550   5.237   8.311
  153SAPE  H20S17001   5.459   5.390   8.294
  153SAPE  H20T17002   5.545   5.323   8.152
  153SAPE   C3317003   5.605   5.513   6.927
  153SAPE   H3X17004   5.506   5.540   6.971
  153SAPE   H3Y17005   5.669   5.603   6.938
  153SAPE   C3417006   5.663   5.398   7.010
  153SAPE   H4X17007   5.768   5.383   6.976
  153SAPE   H4Y17008   5.606   5.305   6.989
  153SAPE   C3517009   5.665   5.423   7.162
  153SAPE   H5X17010   5.731   5.510   7.184
  153SAPE   H5Y17011   5.711   5.334   7.211
  153SAPE   C3617012   5.526   5.446   7.223
  153SAPE   H6X17013   5.460   5.361   7.198
  153SAPE   H6Y17014   5.482   5.538   7.177
  153SAPE   C3717015   5.524   5.468   7.375
  153SAPE   H7X17016   5.419   5.487   7.406
  153SAPE   H7Y17017   5.582   5.560   7.400
  153SAPE   C3817018   5.579   5.351   7.459
  153SAPE   H8X17019   5.689   5.349   7.447
  153SAPE   H8Y17020   5.539   5.255   7.420
  153SAPE   C3917021   5.542   5.365   7.608
  153SAPE   H9X17022   5.445   5.315   7.628
  153SAPE   H9Y17023   5.528   5.473   7.629
  153SAPE  C31017024   5.651   5.314   7.704
  153SAPE  H10X17025   5.746   5.358   7.667
  153SAPE  H10Y17026   5.662   5.203   7.699
  153SAPE  C31117027   5.629   5.362   7.848
  153SAPE  H11X17028   5.523   5.343   7.875
  153SAPE  H11Y17029   5.637   5.472   7.844
  153SAPE  C31217030   5.720   5.306   7.961
  153SAPE  H12X17031   5.666   5.223   8.012
  153SAPE  H12Y17032   5.731   5.387   8.037
  153SAPE  C31317033   5.860   5.251   7.929
  153SAPE  H13X17034   5.916   5.314   7.856
  153SAPE  H13Y17035   5.846   5.151   7.882
  153SAPE  C31417036   5.950   5.235   8.053
  153SAPE  H14X17037   6.025   5.156   8.030
  153SAPE  H14Y17038   5.889   5.200   8.139
  153SAPE  C31517039   6.029   5.363   8.092
  153SAPE  H15X17040   5.960   5.438   8.136
  153SAPE  H15Y17041   6.071   5.405   7.998
  153SAPE  C31617042   6.146   5.339   8.189
  153SAPE  H16X17043   6.192   5.243   8.159
  153SAPE  H16Y17044   6.107   5.329   8.292
  153SAPE  C31717045   6.258   5.444   8.188
  153SAPE  H17X17046   6.293   5.459   8.083
  153SAPE  H17Y17047   6.344   5.402   8.245
  153SAPE  C31817048   6.222   5.579   8.247
  153SAPE  H18X17049   6.144   5.628   8.186
  153SAPE  H18Y17050   6.311   5.645   8.251
  153SAPE  H18Z17051   6.184   5.565   8.350
  154SAPE     N17052   1.092   5.316   5.722
  154SAPE   HN117053   1.109   5.248   5.798
  154SAPE   HN217054   0.993   5.303   5.692
  154SAPE   HN317055   1.153   5.289   5.642
  154SAPE   C1217056   1.119   5.455   5.772
  154SAPE  H12A17057   1.066   5.527   5.707
  154SAPE  H12B17058   1.228   5.472   5.762
  154SAPE   C1117059   1.075   5.467   5.919
  154SAPE  H11A17060   0.964   5.464   5.924
  154SAPE  H11B17061   1.104   5.566   5.961
  154SAPE     P17062   1.280   5.356   6.040
  154SAPE   O1317063   1.324   5.218   6.010
  154SAPE   O1417064   1.348   5.469   5.972
  154SAPE   O1217065   1.128   5.361   5.998
  154SAPE   O1117066   1.280   5.384   6.195
  154SAPE    C117067   1.173   5.454   6.258
  154SAPE    HA17068   1.188   5.564   6.249
  154SAPE    HB17069   1.074   5.427   6.216
  154SAPE    C217070   1.166   5.415   6.408
  154SAPE    HS17071   1.262   5.445   6.454
  154SAPE   O2117072   1.143   5.274   6.412
  154SAPE   C2117073   1.217   5.209   6.499
  154SAPE   O2217074   1.284   5.257   6.588
  154SAPE   C2217075   1.210   5.061   6.462
  154SAPE   H2R17076   1.104   5.029   6.464
  154SAPE   H2S17077   1.247   5.053   6.357
  154SAPE    C317078   1.051   5.492   6.478
  154SAPE    HX17079   0.961   5.488   6.413
  154SAPE    HY17080   1.081   5.599   6.483
  154SAPE   O3117081   1.026   5.446   6.612
  154SAPE   C3117082   0.923   5.363   6.625
  154SAPE   O3217083   0.854   5.320   6.535
  154SAPE   C3217084   0.900   5.330   6.773
  154SAPE   H2X17085   0.936   5.226   6.790
  154SAPE   H2Y17086   0.790   5.332   6.789
  154SAPE   C2317087   1.297   4.972   6.553
  154SAPE   H3R17088   1.387   5.023   6.591
  154SAPE   H3S17089   1.333   4.888   6.490
  154SAPE   C2417090   1.216   4.908   6.667
  154SAPE   H4R17091   1.277   4.821   6.700
  154SAPE   H4S17092   1.121   4.868   6.625
  154SAPE   C2517093   1.182   4.996   6.784
  154SAPE   H5R17094   1.131   5.091   6.761
  154SAPE   C2617095   1.215   4.968   6.912
  154SAPE   H6R17096   1.187   5.040   6.990
  154SAPE   C2717097   1.291   4.846   6.960
  154SAPE   H7R17098   1.266   4.756   6.901
  154SAPE   H7S17099   1.260   4.822   7.064
  154SAPE   C2817100   1.440   4.861   6.954
  154SAPE   H8R17101   1.493   4.798   6.881
  154SAPE   C2917102   1.508   4.949   7.028
  154SAPE   H9R17103   1.618   4.954   7.017
  154SAPE  C21017104   1.443   5.043   7.127
  154SAPE  H10R17105   1.506   5.046   7.219
  154SAPE  H10S17106   1.347   5.000   7.161
  154SAPE  C21117107   1.414   5.182   7.074
  154SAPE  H11R17108   1.441   5.199   6.969
  154SAPE  C21217109   1.358   5.283   7.143
  154SAPE  H12R17110   1.342   5.379   7.093
  154SAPE  C21317111   1.313   5.278   7.287
  154SAPE  H13R17112   1.337   5.179   7.333
  154SAPE  H13S17113   1.203   5.285   7.291
  154SAPE  C21417114   1.378   5.385   7.372
  154SAPE  H14R17115   1.488   5.383   7.372
  154SAPE  C21517116   1.318   5.480   7.445
  154SAPE  H15R17117   1.380   5.549   7.503
  154SAPE  C21617118   1.170   5.503   7.458
  154SAPE  H16R17119   1.114   5.455   7.375
  154SAPE  H16S17120   1.149   5.612   7.448
  154SAPE  C21717121   1.109   5.451   7.590
  154SAPE  H17R17122   1.116   5.340   7.592
  154SAPE  H17S17123   1.001   5.476   7.589
  154SAPE  C21817124   1.170   5.506   7.721
  154SAPE  H18R17125   1.263   5.451   7.744
  154SAPE  H18S17126   1.098   5.485   7.803
  154SAPE  C21917127   1.202   5.657   7.721
  154SAPE  H19R17128   1.144   5.709   7.642
  154SAPE  H19S17129   1.310   5.667   7.694
  154SAPE  C22017130   1.177   5.728   7.854
  154SAPE  H20R17131   1.228   5.676   7.938
  154SAPE  H20S17132   1.068   5.733   7.877
  154SAPE  H20T17133   1.214   5.833   7.849
  154SAPE   C3317134   0.968   5.428   6.870
  154SAPE   H3X17135   0.943   5.532   6.842
  154SAPE   H3Y17136   1.079   5.418   6.861
  154SAPE   C3417137   0.928   5.407   7.017
  154SAPE   H4X17138   0.818   5.419   7.029
  154SAPE   H4Y17139   0.977   5.487   7.077
  154SAPE   C3517140   0.971   5.271   7.074
  154SAPE   H5X17141   1.008   5.288   7.177
  154SAPE   H5Y17142   1.056   5.232   7.014
  154SAPE   C3617143   0.858   5.167   7.081
  154SAPE   H6X17144   0.805   5.163   6.983
  154SAPE   H6Y17145   0.784   5.201   7.157
  154SAPE   C3717146   0.906   5.026   7.117
  154SAPE   H7X17147   0.960   4.984   7.029
  154SAPE   H7Y17148   0.818   4.960   7.136
  154SAPE   C3817149   1.000   5.023   7.238
  154SAPE   H8X17150   0.949   5.066   7.327
  154SAPE   H8Y17151   1.088   5.086   7.215
  154SAPE   C3917152   1.053   4.882   7.271
  154SAPE   H9X17153   1.072   4.832   7.173
  154SAPE   H9Y17154   0.977   4.822   7.324
  154SAPE  C31017155   1.186   4.885   7.348
  154SAPE  H10X17156   1.240   4.980   7.328
  154SAPE  H10Y17157   1.251   4.803   7.311
  154SAPE  C31117158   1.174   4.871   7.500
  154SAPE  H11X17159   1.276   4.859   7.543
  154SAPE  H11Y17160   1.116   4.780   7.525
  154SAPE  C31217161   1.109   4.993   7.566
  154SAPE  H12X17162   1.004   5.000   7.531
  154SAPE  H12Y17163   1.162   5.086   7.536
  154SAPE  C31317164   1.110   4.980   7.718
  154SAPE  H13X17165   1.212   4.998   7.758
  154SAPE  H13Y17166   1.083   4.875   7.742
  154SAPE  C31417167   1.008   5.071   7.786
  154SAPE  H14X17168   0.913   5.067   7.729
  154SAPE  H14Y17169   1.044   5.176   7.786
  154SAPE  C31517170   0.979   5.024   7.929
  154SAPE  H15X17171   1.068   5.041   7.993
  154SAPE  H15Y17172   0.959   4.915   7.927
  154SAPE  C31617173   0.858   5.096   7.988
  154SAPE  H16X17174   0.767   5.072   7.928
  154SAPE  H16Y17175   0.877   5.205   7.979
  154SAPE  C31717176   0.832   5.061   8.136
  154SAPE  H17X17177   0.743   5.118   8.171
  154SAPE  H17Y17178   0.919   5.097   8.195
  154SAPE  C31817179   0.810   4.913   8.164
  154SAPE  H18X17180   0.788   4.897   8.272
  154SAPE  H18Y17181   0.901   4.855   8.138
  154SAPE  H18Z17182   0.725   4.874   8.104
  155SAPE     N17183   3.117   6.543   6.104
  155SAPE   HN117184   3.159   6.506   6.016
  155SAPE   HN217185   3.194   6.560   6.173
  155SAPE   HN317186   3.058   6.463   6.134
  155SAPE   C1217187   3.036   6.664   6.068
  155SAPE  H12A17188   3.106   6.749   6.058
  155SAPE  H12B17189   2.964   6.683   6.151
  155SAPE   C1117190   2.963   6.640   5.935
  155SAPE  H11A17191   2.906   6.732   5.909
  155SAPE  H11B17192   2.887   6.560   5.946
  155SAPE     P17193   3.077   6.473   5.766
  155SAPE   O1317194   2.958   6.446   5.683
  155SAPE   O1417195   3.210   6.471   5.703
  155SAPE   O1217196   3.058   6.615   5.832
  155SAPE   O1117197   3.081   6.385   5.895
  155SAPE    C117198   3.001   6.268   5.909
  155SAPE    HA17199   2.896   6.285   5.875
  155SAPE    HB17200   3.043   6.185   5.850
  155SAPE    C217201   2.995   6.224   6.058
  155SAPE    HS17202   2.933   6.132   6.063
  155SAPE   O2117203   2.941   6.332   6.139
  155SAPE   C2117204   2.808   6.331   6.142
  155SAPE   O2217205   2.735   6.259   6.077
  155SAPE   C2217206   2.761   6.440   6.240
  155SAPE   H2R17207   2.838   6.520   6.244
  155SAPE   H2S17208   2.668   6.483   6.200
  155SAPE    C317209   3.135   6.180   6.113
  155SAPE    HX17210   3.194   6.141   6.027
  155SAPE    HY17211   3.120   6.092   6.178
  155SAPE   O3117212   3.208   6.287   6.178
  155SAPE   C3117213   3.181   6.293   6.310
  155SAPE   O3217214   3.089   6.235   6.363
  155SAPE   C3217215   3.265   6.408   6.370
  155SAPE   H2X17216   3.212   6.503   6.353
  155SAPE   H2Y17217   3.361   6.408   6.314
  155SAPE   C2317218   2.737   6.384   6.382
  155SAPE   H3R17219   2.822   6.321   6.414
  155SAPE   H3S17220   2.647   6.318   6.379
  155SAPE   C2417221   2.712   6.495   6.486
  155SAPE   H4R17222   2.658   6.450   6.572
  155SAPE   H4S17223   2.644   6.571   6.443
  155SAPE   C2517224   2.842   6.557   6.532
  155SAPE   H5R17225   2.921   6.559   6.455
  155SAPE   C2617226   2.871   6.603   6.654
  155SAPE   H6R17227   2.972   6.640   6.674
  155SAPE   C2717228   2.782   6.608   6.775
  155SAPE   H7R17229   2.676   6.607   6.742
  155SAPE   H7S17230   2.800   6.708   6.820
  155SAPE   C2817231   2.797   6.500   6.880
  155SAPE   H8R17232   2.781   6.398   6.843
  155SAPE   C2917233   2.827   6.517   7.012
  155SAPE   H9R17234   2.836   6.427   7.074
  155SAPE  C21017235   2.853   6.648   7.082
  155SAPE  H10R17236   2.796   6.727   7.028
  155SAPE  H10S17237   2.959   6.672   7.061
  155SAPE  C21117238   2.831   6.678   7.229
  155SAPE  H11R17239   2.839   6.786   7.248
  155SAPE  C21217240   2.801   6.605   7.339
  155SAPE  H12R17241   2.792   6.661   7.433
  155SAPE  C21317242   2.775   6.457   7.360
  155SAPE  H13R17243   2.839   6.419   7.442
  155SAPE  H13S17244   2.801   6.397   7.270
  155SAPE  C21417245   2.629   6.445   7.392
  155SAPE  H14R17246   2.563   6.497   7.320
  155SAPE  C21517247   2.566   6.380   7.491
  155SAPE  H15R17248   2.456   6.387   7.495
  155SAPE  C21617249   2.622   6.298   7.603
  155SAPE  H16R17250   2.733   6.290   7.598
  155SAPE  H16S17251   2.582   6.194   7.596
  155SAPE  C21717252   2.580   6.359   7.737
  155SAPE  H17R17253   2.590   6.281   7.815
  155SAPE  H17S17254   2.472   6.386   7.737
  155SAPE  C21817255   2.664   6.481   7.775
  155SAPE  H18R17256   2.629   6.568   7.717
  155SAPE  H18S17257   2.770   6.464   7.748
  155SAPE  C21917258   2.657   6.512   7.925
  155SAPE  H19R17259   2.722   6.442   7.982
  155SAPE  H19S17260   2.553   6.495   7.960
  155SAPE  C22017261   2.697   6.655   7.958
  155SAPE  H20R17262   2.799   6.676   7.919
  155SAPE  H20S17263   2.695   6.674   8.067
  155SAPE  H20T17264   2.627   6.724   7.908
  155SAPE   C3317265   3.301   6.397   6.520
  155SAPE   H3X17266   3.385   6.468   6.537
  155SAPE   H3Y17267   3.341   6.296   6.542
  155SAPE   C3417268   3.191   6.441   6.618
  155SAPE   H4X17269   3.148   6.537   6.583
  155SAPE   H4Y17270   3.238   6.459   6.717
  155SAPE   C3517271   3.075   6.342   6.641
  155SAPE   H5X17272   3.014   6.333   6.549
  155SAPE   H5Y17273   3.003   6.384   6.715
  155SAPE   C3617274   3.120   6.202   6.685
  155SAPE   H6X17275   3.226   6.185   6.657
  155SAPE   H6Y17276   3.065   6.126   6.626
  155SAPE   C3717277   3.100   6.171   6.834
  155SAPE   H7X17278   3.172   6.093   6.866
  155SAPE   H7Y17279   3.000   6.123   6.841
  155SAPE   C3817280   3.093   6.290   6.931
  155SAPE   H8X17281   2.995   6.339   6.911
  155SAPE   H8Y17282   3.172   6.363   6.904
  155SAPE   C3917283   3.094   6.256   7.081
  155SAPE   H9X17284   3.085   6.146   7.094
  155SAPE   H9Y17285   3.005   6.301   7.129
  155SAPE  C31017286   3.219   6.307   7.155
  155SAPE  H10X17287   3.309   6.256   7.113
  155SAPE  H10Y17288   3.213   6.276   7.261
  155SAPE  C31117289   3.242   6.459   7.145
  155SAPE  H11X17290   3.226   6.496   7.041
  155SAPE  H11Y17291   3.347   6.480   7.171
  155SAPE  C31217292   3.154   6.541   7.240
  155SAPE  H12X17293   3.047   6.513   7.224
  155SAPE  H12Y17294   3.166   6.648   7.216
  155SAPE  C31317295   3.192   6.516   7.385
  155SAPE  H13X17296   3.303   6.514   7.392
  155SAPE  H13Y17297   3.155   6.416   7.415
  155SAPE  C31417298   3.142   6.622   7.484
  155SAPE  H14X17299   3.032   6.610   7.495
  155SAPE  H14Y17300   3.161   6.724   7.443
  155SAPE  C31517301   3.209   6.608   7.621
  155SAPE  H15X17302   3.160   6.674   7.695
  155SAPE  H15Y17303   3.315   6.640   7.611
  155SAPE  C31617304   3.206   6.462   7.670
  155SAPE  H16X17305   3.268   6.399   7.603
  155SAPE  H16Y17306   3.100   6.428   7.661
  155SAPE  C31717307   3.253   6.436   7.813
  155SAPE  H17X17308   3.294   6.334   7.816
  155SAPE  H17Y17309   3.164   6.435   7.880
  155SAPE  C31817310   3.356   6.536   7.865
  155SAPE  H18X17311   3.315   6.639   7.866
  155SAPE  H18Y17312   3.447   6.534   7.802
  155SAPE  H18Z17313   3.384   6.511   7.970
  156SAPE     N17314   1.261   5.772   5.915
  156SAPE   HN117315   1.239   5.854   5.975
  156SAPE   HN217316   1.177   5.764   5.854
  156SAPE   HN317317   1.276   5.686   5.971
  156SAPE   C1217318   1.381   5.805   5.831
  156SAPE  H12A17319   1.350   5.797   5.725
  156SAPE  H12B17320   1.460   5.731   5.853
  156SAPE   C1117321   1.428   5.949   5.859
  156SAPE  H11A17322   1.520   5.966   5.799
  156SAPE  H11B17323   1.460   5.959   5.966
  156SAPE     P17324   1.238   6.116   5.927
  156SAPE   O1317325   1.168   6.227   5.859
  156SAPE   O1417326   1.158   6.009   5.991
  156SAPE   O1217327   1.329   6.044   5.820
  156SAPE   O1117328   1.347   6.172   6.026
  156SAPE    C117329   1.442   6.266   5.975
  156SAPE    HA17330   1.514   6.216   5.905
  156SAPE    HB17331   1.392   6.345   5.916
  156SAPE    C217332   1.518   6.343   6.088
  156SAPE    HS17333   1.585   6.417   6.039
  156SAPE   O2117334   1.594   6.261   6.177
  156SAPE   C2117335   1.677   6.172   6.131
  156SAPE   O2217336   1.699   6.142   6.015
  156SAPE   C2217337   1.747   6.105   6.249
  156SAPE   H2R17338   1.854   6.135   6.244
  156SAPE   H2S17339   1.704   6.145   6.343
  156SAPE    C317340   1.414   6.419   6.174
  156SAPE    HX17341   1.343   6.467   6.104
  156SAPE    HY17342   1.471   6.499   6.227
  156SAPE   O3117343   1.336   6.338   6.264
  156SAPE   C3117344   1.354   6.362   6.393
  156SAPE   O3217345   1.444   6.428   6.442
  156SAPE   C3217346   1.238   6.300   6.470
  156SAPE   H2X17347   1.269   6.196   6.497
  156SAPE   H2Y17348   1.150   6.293   6.403
  156SAPE   C2317349   1.733   5.951   6.244
  156SAPE   H3R17350   1.834   5.907   6.227
  156SAPE   H3S17351   1.670   5.920   6.158
  156SAPE   C2417352   1.670   5.892   6.371
  156SAPE   H4R17353   1.658   5.783   6.358
  156SAPE   H4S17354   1.569   5.936   6.386
  156SAPE   C2517355   1.760   5.921   6.487
  156SAPE   H5R17356   1.857   5.963   6.457
  156SAPE   C2617357   1.736   5.908   6.618
  156SAPE   H6R17358   1.818   5.936   6.687
  156SAPE   C2717359   1.613   5.861   6.691
  156SAPE   H7R17360   1.606   5.751   6.683
  156SAPE   H7S17361   1.522   5.901   6.642
  156SAPE   C2817362   1.616   5.902   6.837
  156SAPE   H8R17363   1.611   5.818   6.909
  156SAPE   C2917364   1.623   6.028   6.885
  156SAPE   H9R17365   1.625   6.046   6.993
  156SAPE  C21017366   1.629   6.151   6.796
  156SAPE  H10R17367   1.560   6.134   6.710
  156SAPE  H10S17368   1.730   6.152   6.751
  156SAPE  C21117369   1.605   6.293   6.842
  156SAPE  H11R17370   1.625   6.364   6.760
  156SAPE  C21217371   1.563   6.347   6.958
  156SAPE  H12R17372   1.556   6.456   6.959
  156SAPE  C21317373   1.524   6.281   7.088
  156SAPE  H13R17374   1.602   6.213   7.130
  156SAPE  H13S17375   1.438   6.213   7.069
  156SAPE  C21417376   1.478   6.388   7.185
  156SAPE  H14R17377   1.377   6.420   7.157
  156SAPE  C21517378   1.532   6.452   7.292
  156SAPE  H15R17379   1.471   6.535   7.331
  156SAPE  C21617380   1.660   6.455   7.372
  156SAPE  H16R17381   1.671   6.562   7.400
  156SAPE  H16S17382   1.753   6.433   7.316
  156SAPE  C21717383   1.660   6.383   7.509
  156SAPE  H17R17384   1.697   6.278   7.495
  156SAPE  H17S17385   1.557   6.373   7.547
  156SAPE  C21817386   1.746   6.460   7.611
  156SAPE  H18R17387   1.695   6.556   7.634
  156SAPE  H18S17388   1.843   6.485   7.564
  156SAPE  C21917389   1.775   6.388   7.744
  156SAPE  H19R17390   1.831   6.458   7.810
  156SAPE  H19S17391   1.842   6.302   7.725
  156SAPE  C22017392   1.651   6.338   7.820
  156SAPE  H20R17393   1.681   6.287   7.914
  156SAPE  H20S17394   1.594   6.266   7.758
  156SAPE  H20T17395   1.585   6.423   7.846
  156SAPE   C3317396   1.202   6.386   6.593
  156SAPE   H3X17397   1.165   6.484   6.556
  156SAPE   H3Y17398   1.292   6.405   6.656
  156SAPE   C3417399   1.092   6.325   6.681
  156SAPE   H4X17400   1.022   6.266   6.618
  156SAPE   H4Y17401   1.033   6.408   6.725
  156SAPE   C3517402   1.145   6.238   6.797
  156SAPE   H5X17403   1.060   6.207   6.861
  156SAPE   H5Y17404   1.213   6.301   6.859
  156SAPE   C3617405   1.221   6.114   6.750
  156SAPE   H6X17406   1.308   6.149   6.690
  156SAPE   H6Y17407   1.157   6.050   6.686
  156SAPE   C3717408   1.284   6.031   6.863
  156SAPE   H7X17409   1.326   6.102   6.938
  156SAPE   H7Y17410   1.368   5.974   6.818
  156SAPE   C3817411   1.192   5.928   6.929
  156SAPE   H8X17412   1.163   5.852   6.854
  156SAPE   H8Y17413   1.099   5.980   6.961
  156SAPE   C3917414   1.258   5.858   7.050
  156SAPE   H9X17415   1.340   5.793   7.013
  156SAPE   H9Y17416   1.181   5.792   7.096
  156SAPE  C31017417   1.315   5.951   7.159
  156SAPE  H10X17418   1.411   5.995   7.125
  156SAPE  H10Y17419   1.338   5.888   7.248
  156SAPE  C31117420   1.220   6.064   7.201
  156SAPE  H11X17421   1.119   6.036   7.164
  156SAPE  H11Y17422   1.247   6.160   7.152
  156SAPE  C31217423   1.207   6.083   7.352
  156SAPE  H12X17424   1.188   5.983   7.396
  156SAPE  H12Y17425   1.120   6.147   7.375
  156SAPE  C31317426   1.331   6.147   7.416
  156SAPE  H13X17427   1.336   6.253   7.383
  156SAPE  H13Y17428   1.423   6.097   7.379
  156SAPE  C31417429   1.328   6.144   7.570
  156SAPE  H14X17430   1.241   6.204   7.604
  156SAPE  H14Y17431   1.420   6.193   7.608
  156SAPE  C31517432   1.319   6.003   7.632
  156SAPE  H15X17433   1.230   5.951   7.593
  156SAPE  H15Y17434   1.302   6.013   7.742
  156SAPE  C31617435   1.444   5.918   7.606
  156SAPE  H16X17436   1.492   5.949   7.511
  156SAPE  H16Y17437   1.414   5.812   7.593
  156SAPE  C31717438   1.549   5.926   7.718
  156SAPE  H17X17439   1.576   6.033   7.735
  156SAPE  H17Y17440   1.639   5.874   7.681
  156SAPE  C31817441   1.508   5.863   7.852
  156SAPE  H18X17442   1.424   5.919   7.898
  156SAPE  H18Y17443   1.593   5.864   7.923
  156SAPE  H18Z17444   1.477   5.757   7.837
  157SAPE     N17445   5.471   1.038   5.863
  157SAPE   HN117446   5.463   1.012   5.963
  157SAPE   HN217447   5.572   1.042   5.838
  157SAPE   HN317448   5.431   1.133   5.848
  157SAPE   C1217449   5.404   0.926   5.788
  157SAPE  H12A17450   5.379   0.963   5.686
  157SAPE  H12B17451   5.310   0.903   5.841
  157SAPE   C1117452   5.495   0.800   5.781
  157SAPE  H11A17453   5.571   0.818   5.702
  157SAPE  H11B17454   5.434   0.713   5.747
  157SAPE     P17455   5.480   0.748   6.037
  157SAPE   O1317456   5.449   0.885   6.084
  157SAPE   O1417457   5.367   0.659   6.009
  157SAPE   O1217458   5.564   0.768   5.903
  157SAPE   O1117459   5.583   0.682   6.136
  157SAPE    C117460   5.687   0.594   6.091
  157SAPE    HA17461   5.643   0.505   6.043
  157SAPE    HB17462   5.752   0.645   6.016
  157SAPE    C217463   5.781   0.548   6.207
  157SAPE    HS17464   5.841   0.461   6.171
  157SAPE   O2117465   5.711   0.511   6.326
  157SAPE   C2117466   5.600   0.444   6.312
  157SAPE   O2217467   5.574   0.361   6.227
  157SAPE   C2217468   5.506   0.495   6.420
  157SAPE   H2R17469   5.468   0.407   6.477
  157SAPE   H2S17470   5.562   0.557   6.493
  157SAPE    C317471   5.879   0.660   6.253
  157SAPE    HX17472   5.952   0.682   6.172
  157SAPE    HY17473   5.938   0.618   6.337
  157SAPE   O3117474   5.811   0.778   6.300
  157SAPE   C3117475   5.787   0.875   6.214
  157SAPE   O3217476   5.832   0.883   6.100
  157SAPE   C3217477   5.692   0.977   6.280
  157SAPE   H2X17478   5.592   0.929   6.284
  157SAPE   H2Y17479   5.686   1.066   6.213
  157SAPE   C2317480   5.387   0.570   6.358
  157SAPE   H3R17481   5.357   0.521   6.264
  157SAPE   H3S17482   5.416   0.674   6.332
  157SAPE   C2417483   5.268   0.573   6.454
  157SAPE   H4R17484   5.294   0.639   6.539
  157SAPE   H4S17485   5.250   0.472   6.496
  157SAPE   C2517486   5.144   0.619   6.383
  157SAPE   H5R17487   5.126   0.576   6.283
  157SAPE   C2617488   5.059   0.710   6.432
  157SAPE   H6R17489   4.971   0.739   6.374
  157SAPE   C2717490   5.074   0.778   6.565
  157SAPE   H7R17491   5.003   0.863   6.562
  157SAPE   H7S17492   5.175   0.824   6.567
  157SAPE   C2817493   5.049   0.706   6.695
  157SAPE   H8R17494   4.945   0.676   6.713
  157SAPE   C2917495   5.136   0.686   6.797
  157SAPE   H9R17496   5.097   0.636   6.887
  157SAPE  C21017497   5.279   0.732   6.806
  157SAPE  H10R17498   5.290   0.791   6.899
  157SAPE  H10S17499   5.303   0.803   6.723
  157SAPE  C21117500   5.384   0.625   6.805
  157SAPE  H11R17501   5.424   0.600   6.706
  157SAPE  C21217502   5.435   0.562   6.913
  157SAPE  H12R17503   5.521   0.496   6.896
  157SAPE  C21317504   5.400   0.583   7.058
  157SAPE  H13R17505   5.437   0.684   7.088
  157SAPE  H13S17506   5.460   0.511   7.117
  157SAPE  C21417507   5.256   0.568   7.100
  157SAPE  H14R17508   5.188   0.527   7.024
  157SAPE  C21517509   5.211   0.591   7.224
  157SAPE  H15R17510   5.104   0.577   7.247
  157SAPE  C21617511   5.299   0.634   7.339
  157SAPE  H16R17512   5.308   0.744   7.343
  157SAPE  H16S17513   5.401   0.593   7.323
  157SAPE  C21717514   5.252   0.582   7.476
  157SAPE  H17R17515   5.195   0.487   7.466
  157SAPE  H17S17516   5.185   0.657   7.522
  157SAPE  C21817517   5.372   0.555   7.568
  157SAPE  H18R17518   5.439   0.643   7.570
  157SAPE  H18S17519   5.430   0.469   7.527
  157SAPE  C21917520   5.331   0.523   7.712
  157SAPE  H19R17521   5.258   0.440   7.713
  157SAPE  H19S17522   5.281   0.613   7.755
  157SAPE  C22017523   5.451   0.485   7.799
  157SAPE  H20R17524   5.537   0.552   7.779
  157SAPE  H20S17525   5.484   0.381   7.777
  157SAPE  H20T17526   5.424   0.493   7.906
  157SAPE   C3317527   5.736   1.017   6.422
  157SAPE   H3X17528   5.831   1.074   6.418
  157SAPE   H3Y17529   5.755   0.924   6.481
  157SAPE   C3417530   5.634   1.101   6.501
  157SAPE   H4X17531   5.535   1.050   6.506
  157SAPE   H4Y17532   5.617   1.197   6.447
  157SAPE   C3517533   5.685   1.131   6.643
  157SAPE   H5X17534   5.620   1.209   6.689
  157SAPE   H5Y17535   5.787   1.173   6.636
  157SAPE   C3617536   5.688   1.009   6.737
  157SAPE   H6X17537   5.752   0.929   6.692
  157SAPE   H6Y17538   5.587   0.965   6.750
  157SAPE   C3717539   5.745   1.044   6.874
  157SAPE   H7X17540   5.669   1.097   6.935
  157SAPE   H7Y17541   5.830   1.114   6.857
  157SAPE   C3817542   5.800   0.925   6.953
  157SAPE   H8X17543   5.880   0.966   7.019
  157SAPE   H8Y17544   5.848   0.852   6.885
  157SAPE   C3917545   5.701   0.854   7.046
  157SAPE   H9X17546   5.625   0.799   6.988
  157SAPE   H9Y17547   5.649   0.932   7.106
  157SAPE  C31017548   5.776   0.759   7.142
  157SAPE  H10X17549   5.855   0.817   7.194
  157SAPE  H10Y17550   5.826   0.680   7.083
  157SAPE  C31117551   5.690   0.693   7.251
  157SAPE  H11X17552   5.757   0.635   7.318
  157SAPE  H11Y17553   5.621   0.621   7.204
  157SAPE  C31217554   5.610   0.793   7.335
  157SAPE  H12X17555   5.550   0.737   7.410
  157SAPE  H12Y17556   5.538   0.848   7.271
  157SAPE  C31317557   5.697   0.894   7.412
  157SAPE  H13X17558   5.627   0.968   7.458
  157SAPE  H13Y17559   5.761   0.952   7.343
  157SAPE  C31417560   5.783   0.827   7.520
  157SAPE  H14X17561   5.880   0.797   7.475
  157SAPE  H14Y17562   5.733   0.734   7.554
  157SAPE  C31517563   5.807   0.916   7.643
  157SAPE  H15X17564   5.844   1.014   7.607
  157SAPE  H15Y17565   5.885   0.872   7.708
  157SAPE  C31617566   5.679   0.936   7.726
  157SAPE  H16X17567   5.593   0.950   7.658
  157SAPE  H16Y17568   5.690   1.030   7.784
  157SAPE  C31717569   5.646   0.821   7.822
  157SAPE  H17X17570   5.729   0.808   7.895
  157SAPE  H17Y17571   5.639   0.728   7.762
  157SAPE  C31817572   5.514   0.843   7.897
  157SAPE  H18X17573   5.430   0.854   7.826
  157SAPE  H18Y17574   5.519   0.935   7.959
  157SAPE  H18Z17575   5.492   0.757   7.964
  158SAPE     N17576   0.635   6.178   5.815
  158SAPE   HN117577   0.552   6.220   5.769
  158SAPE   HN217578   0.624   6.172   5.918
  158SAPE   HN317579   0.717   6.237   5.788
  158SAPE   C1217580   0.644   6.037   5.765
  158SAPE  H12A17581   0.746   5.999   5.786
  158SAPE  H12B17582   0.625   6.038   5.655
  158SAPE   C1117583   0.538   5.954   5.838
  158SAPE  H11A17584   0.522   5.859   5.782
  158SAPE  H11B17585   0.440   6.005   5.838
  158SAPE     P17586   0.644   5.792   6.009
  158SAPE   O1317587   0.538   5.691   5.987
  158SAPE   O1417588   0.769   5.781   5.931
  158SAPE   O1217589   0.581   5.934   5.974
  158SAPE   O1117590   0.675   5.807   6.162
  158SAPE    C117591   0.806   5.832   6.213
  158SAPE    HA17592   0.855   5.736   6.237
  158SAPE    HB17593   0.871   5.886   6.141
  158SAPE    C217594   0.797   5.918   6.343
  158SAPE    HS17595   0.897   5.923   6.390
  158SAPE   O2117596   0.699   5.864   6.433
  158SAPE   C2117597   0.738   5.751   6.490
  158SAPE   O2217598   0.852   5.709   6.491
  158SAPE   C2217599   0.618   5.681   6.553
  158SAPE   H2R17600   0.532   5.752   6.559
  158SAPE   H2S17601   0.590   5.598   6.485
  158SAPE    C317602   0.755   6.063   6.311
  158SAPE    HX17603   0.653   6.060   6.267
  158SAPE    HY17604   0.825   6.104   6.234
  158SAPE   O3117605   0.765   6.141   6.431
  158SAPE   C3117606   0.657   6.203   6.474
  158SAPE   O3217607   0.557   6.227   6.409
  158SAPE   C3217608   0.681   6.242   6.620
  158SAPE   H2X17609   0.604   6.318   6.649
  158SAPE   H2Y17610   0.780   6.291   6.624
  158SAPE   C2317611   0.650   5.625   6.693
  158SAPE   H3R17612   0.737   5.557   6.688
  158SAPE   H3S17613   0.562   5.565   6.726
  158SAPE   C2417614   0.676   5.736   6.796
  158SAPE   H4R17615   0.595   5.812   6.788
  158SAPE   H4S17616   0.771   5.788   6.771
  158SAPE   C2517617   0.685   5.678   6.935
  158SAPE   H5R17618   0.784   5.639   6.963
  158SAPE   C2617619   0.586   5.674   7.025
  158SAPE   H6R17620   0.607   5.630   7.124
  158SAPE   C2717621   0.446   5.727   7.004
  158SAPE   H7R17622   0.385   5.650   6.953
  158SAPE   H7S17623   0.446   5.816   6.938
  158SAPE   C2817624   0.383   5.760   7.136
  158SAPE   H8R17625   0.364   5.674   7.202
  158SAPE   C2917626   0.348   5.883   7.180
  158SAPE   H9R17627   0.308   5.891   7.282
  158SAPE  C21017628   0.364   6.016   7.110
  158SAPE  H10R17629   0.299   6.019   7.020
  158SAPE  H10S17630   0.468   6.026   7.073
  158SAPE  C21117631   0.329   6.133   7.200
  158SAPE  H11R17632   0.237   6.187   7.173
  158SAPE  C21217633   0.399   6.173   7.308
  158SAPE  H12R17634   0.364   6.259   7.367
  158SAPE  C21317635   0.526   6.108   7.358
  158SAPE  H13R17636   0.599   6.187   7.388
  158SAPE  H13S17637   0.574   6.057   7.271
  158SAPE  C21417638   0.509   6.003   7.465
  158SAPE  H14R17639   0.454   5.914   7.432
  158SAPE  C21517640   0.555   6.005   7.591
  158SAPE  H15R17641   0.534   5.918   7.655
  158SAPE  C21617642   0.635   6.114   7.658
  158SAPE  H16R17643   0.649   6.202   7.593
  158SAPE  H16S17644   0.736   6.076   7.685
  158SAPE  C21717645   0.563   6.159   7.787
  158SAPE  H17R17646   0.561   6.076   7.861
  158SAPE  H17S17647   0.458   6.184   7.761
  158SAPE  C21817648   0.625   6.283   7.851
  158SAPE  H18R17649   0.559   6.315   7.935
  158SAPE  H18S17650   0.625   6.365   7.776
  158SAPE  C21917651   0.768   6.264   7.905
  158SAPE  H19R17652   0.785   6.157   7.928
  158SAPE  H19S17653   0.776   6.320   8.000
  158SAPE  C22017654   0.876   6.316   7.809
  158SAPE  H20R17655   0.872   6.263   7.712
  158SAPE  H20S17656   0.977   6.301   7.853
  158SAPE  H20T17657   0.862   6.425   7.790
  158SAPE   C3317658   0.677   6.122   6.718
  158SAPE   H3X17659   0.682   6.025   6.665
  158SAPE   H3Y17660   0.580   6.125   6.773
  158SAPE   C3417661   0.793   6.125   6.819
  158SAPE   H4X17662   0.825   6.231   6.833
  158SAPE   H4Y17663   0.881   6.071   6.778
  158SAPE   C3517664   0.758   6.070   6.958
  158SAPE   H5X17665   0.755   5.959   6.950
  158SAPE   H5Y17666   0.657   6.105   6.989
  158SAPE   C3617667   0.858   6.115   7.065
  158SAPE   H6X17668   0.838   6.221   7.095
  158SAPE   H6Y17669   0.960   6.114   7.021
  158SAPE   C3717670   0.862   6.029   7.191
  158SAPE   H7X17671   0.940   6.068   7.259
  158SAPE   H7Y17672   0.766   6.040   7.247
  158SAPE   C3817673   0.886   5.881   7.162
  158SAPE   H8X17674   0.958   5.869   7.078
  158SAPE   H8Y17675   0.790   5.836   7.130
  158SAPE   C3917676   0.937   5.803   7.283
  158SAPE   H9X17677   1.042   5.832   7.306
  158SAPE   H9Y17678   0.937   5.695   7.258
  158SAPE  C31017679   0.849   5.829   7.405
  158SAPE  H10X17680   0.744   5.841   7.373
  158SAPE  H10Y17681   0.881   5.923   7.454
  158SAPE  C31117682   0.857   5.713   7.503
  158SAPE  H11X17683   0.963   5.700   7.531
  158SAPE  H11Y17684   0.823   5.619   7.455
  158SAPE  C31217685   0.775   5.739   7.629
  158SAPE  H12X17686   0.666   5.731   7.608
  158SAPE  H12Y17687   0.796   5.842   7.666
  158SAPE  C31317688   0.817   5.639   7.736
  158SAPE  H13X17689   0.926   5.649   7.750
  158SAPE  H13Y17690   0.799   5.536   7.699
  158SAPE  C31417691   0.749   5.654   7.872
  158SAPE  H14X17692   0.817   5.604   7.944
  158SAPE  H14Y17693   0.652   5.600   7.870
  158SAPE  C31517694   0.723   5.795   7.927
  158SAPE  H15X17695   0.642   5.843   7.869
  158SAPE  H15Y17696   0.814   5.859   7.919
  158SAPE  C31617697   0.683   5.778   8.074
  158SAPE  H16X17698   0.772   5.752   8.134
  158SAPE  H16Y17699   0.613   5.692   8.079
  158SAPE  C31717700   0.609   5.895   8.139
  158SAPE  H17X17701   0.525   5.926   8.074
  158SAPE  H17Y17702   0.678   5.982   8.150
  158SAPE  C31817703   0.555   5.852   8.276
  158SAPE  H18X17704   0.506   5.936   8.330
  158SAPE  H18Y17705   0.637   5.813   8.340
  158SAPE  H18Z17706   0.480   5.771   8.263
  159SAPE     N17707   0.913   1.391   5.964
  159SAPE   HN117708   1.006   1.438   5.956
  159SAPE   HN217709   0.843   1.456   6.006
  159SAPE   HN317710   0.921   1.308   6.025
  159SAPE   C1217711   0.859   1.346   5.831
  159SAPE  H12A17712   0.885   1.238   5.821
  159SAPE  H12B17713   0.909   1.403   5.751
  159SAPE   C1117714   0.706   1.366   5.828
  159SAPE  H11A17715   0.662   1.304   5.747
  159SAPE  H11B17716   0.685   1.472   5.801
  159SAPE     P17717   0.617   1.192   6.003
  159SAPE   O1317718   0.543   1.195   6.130
  159SAPE   O1417719   0.554   1.118   5.891
  159SAPE   O1217720   0.644   1.341   5.955
  159SAPE   O1117721   0.765   1.142   6.026
  159SAPE    C117722   0.793   1.002   6.033
  159SAPE    HA17723   0.704   0.942   6.064
  159SAPE    HB17724   0.821   0.966   5.931
  159SAPE    C217725   0.911   0.968   6.130
  159SAPE    HS17726   0.937   0.861   6.117
  159SAPE   O2117727   0.874   0.993   6.267
  159SAPE   C2117728   0.789   0.904   6.318
  159SAPE   O2217729   0.744   0.806   6.260
  159SAPE   C2217730   0.764   0.939   6.464
  159SAPE   H2R17731   0.848   0.895   6.522
  159SAPE   H2S17732   0.766   1.050   6.473
  159SAPE    C317733   1.040   1.050   6.095
  159SAPE    HX17734   1.061   1.037   5.987
  159SAPE    HY17735   1.125   1.002   6.149
  159SAPE   O3117736   1.025   1.191   6.124
  159SAPE   C3117737   1.090   1.233   6.232
  159SAPE   O3217738   1.182   1.176   6.287
  159SAPE   C3217739   1.027   1.363   6.279
  159SAPE   H2X17740   1.032   1.438   6.197
  159SAPE   H2Y17741   1.086   1.402   6.364
  159SAPE   C2317742   0.633   0.886   6.526
  159SAPE   H3R17743   0.638   0.776   6.532
  159SAPE   H3S17744   0.548   0.914   6.460
  159SAPE   C2417745   0.606   0.943   6.667
  159SAPE   H4R17746   0.497   0.932   6.688
  159SAPE   H4S17747   0.628   1.052   6.665
  159SAPE   C2517748   0.690   0.878   6.773
  159SAPE   H5R17749   0.798   0.878   6.751
  159SAPE   C2617750   0.648   0.820   6.887
  159SAPE   H6R17751   0.725   0.779   6.954
  159SAPE   C2717752   0.507   0.805   6.938
  159SAPE   H7R17753   0.485   0.698   6.954
  159SAPE   H7S17754   0.432   0.839   6.863
  159SAPE   C2817755   0.486   0.883   7.065
  159SAPE   H8R17756   0.447   0.985   7.051
  159SAPE   C2917757   0.508   0.840   7.191
  159SAPE   H9R17758   0.486   0.908   7.275
  159SAPE  C21017759   0.558   0.704   7.234
  159SAPE  H10R17760   0.493   0.625   7.190
  159SAPE  H10S17761   0.545   0.692   7.343
  159SAPE  C21117762   0.702   0.678   7.197
  159SAPE  H11R17763   0.720   0.614   7.109
  159SAPE  C21217764   0.807   0.729   7.263
  159SAPE  H12R17765   0.909   0.706   7.229
  159SAPE  C21317766   0.795   0.817   7.384
  159SAPE  H13R17767   0.693   0.859   7.397
  159SAPE  H13S17768   0.862   0.906   7.372
  159SAPE  C21417769   0.829   0.737   7.505
  159SAPE  H14R17770   0.744   0.694   7.560
  159SAPE  C21517771   0.954   0.713   7.546
  159SAPE  H15R17772   0.971   0.645   7.631
  159SAPE  C21617773   1.079   0.763   7.479
  159SAPE  H16R17774   1.060   0.845   7.407
  159SAPE  H16S17775   1.124   0.679   7.422
  159SAPE  C21717776   1.184   0.810   7.580
  159SAPE  H17R17777   1.274   0.840   7.521
  159SAPE  H17S17778   1.214   0.725   7.644
  159SAPE  C21817779   1.146   0.928   7.670
  159SAPE  H18R17780   1.200   0.917   7.767
  159SAPE  H18S17781   1.037   0.928   7.694
  159SAPE  C21917782   1.189   1.061   7.608
  159SAPE  H19R17783   1.127   1.080   7.518
  159SAPE  H19S17784   1.294   1.049   7.574
  159SAPE  C22017785   1.185   1.182   7.701
  159SAPE  H20R17786   1.100   1.176   7.773
  159SAPE  H20S17787   1.177   1.275   7.641
  159SAPE  H20T17788   1.280   1.190   7.759
  159SAPE   C3317789   0.882   1.338   6.325
  159SAPE   H3X17790   0.884   1.283   6.422
  159SAPE   H3Y17791   0.828   1.273   6.253
  159SAPE   C3417792   0.800   1.466   6.341
  159SAPE   H4X17793   0.810   1.528   6.249
  159SAPE   H4Y17794   0.838   1.525   6.427
  159SAPE   C3517795   0.651   1.435   6.361
  159SAPE   H5X17796   0.613   1.376   6.275
  159SAPE   H5Y17797   0.593   1.530   6.363
  159SAPE   C3617798   0.622   1.356   6.489
  159SAPE   H6X17799   0.669   1.410   6.574
  159SAPE   H6Y17800   0.668   1.255   6.483
  159SAPE   C3717801   0.472   1.340   6.515
  159SAPE   H7X17802   0.424   1.291   6.427
  159SAPE   H7Y17803   0.430   1.442   6.524
  159SAPE   C3817804   0.436   1.261   6.642
  159SAPE   H8X17805   0.445   1.153   6.621
  159SAPE   H8Y17806   0.330   1.281   6.667
  159SAPE   C3917807   0.524   1.298   6.762
  159SAPE   H9X17808   0.521   1.409   6.774
  159SAPE   H9Y17809   0.630   1.269   6.744
  159SAPE  C31017810   0.479   1.234   6.894
  159SAPE  H10X17811   0.508   1.127   6.896
  159SAPE  H10Y17812   0.368   1.240   6.899
  159SAPE  C31117813   0.533   1.309   7.016
  159SAPE  H11X17814   0.482   1.273   7.108
  159SAPE  H11Y17815   0.503   1.416   7.003
  159SAPE  C31217816   0.686   1.309   7.032
  159SAPE  H12X17817   0.713   1.388   7.105
  159SAPE  H12Y17818   0.734   1.337   6.936
  159SAPE  C31317819   0.743   1.175   7.080
  159SAPE  H13X17820   0.852   1.186   7.095
  159SAPE  H13Y17821   0.726   1.098   7.002
  159SAPE  C31417822   0.679   1.126   7.211
  159SAPE  H14X17823   0.730   1.032   7.240
  159SAPE  H14Y17824   0.572   1.103   7.194
  159SAPE  C31517825   0.684   1.226   7.327
  159SAPE  H15X17826   0.623   1.316   7.305
  159SAPE  H15Y17827   0.789   1.260   7.340
  159SAPE  C31617828   0.633   1.161   7.457
  159SAPE  H16X17829   0.619   1.052   7.442
  159SAPE  H16Y17830   0.533   1.204   7.481
  159SAPE  C31717831   0.727   1.182   7.575
  159SAPE  H17X17832   0.679   1.140   7.665
  159SAPE  H17Y17833   0.741   1.292   7.587
  159SAPE  C31817834   0.865   1.119   7.564
  159SAPE  H18X17835   0.858   1.009   7.563
  159SAPE  H18Y17836   0.925   1.149   7.652
  159SAPE  H18Z17837   0.918   1.153   7.472
  160SAPE     N17838   1.171   0.069   5.718
  160SAPE   HN117839   1.260   0.064   5.665
  160SAPE   HN217840   1.113  -0.013   5.692
  160SAPE   HN317841   1.114   0.150   5.686
  160SAPE   C1217842   1.192   0.076   5.867
  160SAPE  H12A17843   1.294   0.116   5.886
  160SAPE  H12B17844   1.186  -0.028   5.906
  160SAPE   C1117845   1.085   0.165   5.932
  160SAPE  H11A17846   1.102   0.271   5.904
  160SAPE  H11B17847   1.098   0.158   6.042
  160SAPE     P17848   0.830   0.130   5.984
  160SAPE   O1317849   0.863   0.213   6.100
  160SAPE   O1417850   0.715   0.167   5.898
  160SAPE   O1217851   0.956   0.125   5.888
  160SAPE   O1117852   0.821  -0.023   6.020
  160SAPE    C117853   0.706  -0.084   6.080
  160SAPE    HA17854   0.631  -0.009   6.113
  160SAPE    HB17855   0.656  -0.148   6.005
  160SAPE    C217856   0.743  -0.173   6.203
  160SAPE    HS17857   0.658  -0.242   6.222
  160SAPE   O2117858   0.766  -0.090   6.316
  160SAPE   C2117859   0.663  -0.050   6.385
  160SAPE   O2217860   0.547  -0.082   6.366
  160SAPE   C2217861   0.719   0.038   6.495
  160SAPE   H2R17862   0.791  -0.020   6.556
  160SAPE   H2S17863   0.775   0.118   6.443
  160SAPE    C317864   0.871  -0.262   6.186
  160SAPE    HX17865   0.858  -0.325   6.096
  160SAPE    HY17866   0.877  -0.332   6.272
  160SAPE   O3117867   0.991  -0.181   6.173
  160SAPE   C3117868   1.034  -0.133   6.292
  160SAPE   O3217869   1.018  -0.188   6.399
  160SAPE   C3217870   1.100   0.003   6.269
  160SAPE   H2X17871   1.020   0.072   6.237
  160SAPE   H2Y17872   1.174  -0.009   6.187
  160SAPE   C2317873   0.612   0.102   6.584
  160SAPE   H3R17874   0.582   0.034   6.667
  160SAPE   H3S17875   0.522   0.123   6.523
  160SAPE   C2417876   0.668   0.234   6.639
  160SAPE   H4R17877   0.724   0.287   6.559
  160SAPE   H4S17878   0.741   0.212   6.720
  160SAPE   C2517879   0.554   0.321   6.681
  160SAPE   H5R17880   0.483   0.345   6.601
  160SAPE   C2617881   0.535   0.368   6.804
  160SAPE   H6R17882   0.445   0.429   6.823
  160SAPE   C2717883   0.626   0.341   6.920
  160SAPE   H7R17884   0.726   0.387   6.903
  160SAPE   H7S17885   0.644   0.232   6.932
  160SAPE   C2817886   0.561   0.402   7.040
  160SAPE   H8R17887   0.540   0.509   7.029
  160SAPE   C2917888   0.528   0.342   7.155
  160SAPE   H9R17889   0.483   0.404   7.233
  160SAPE  C21017890   0.547   0.199   7.196
  160SAPE  H10R17891   0.485   0.185   7.286
  160SAPE  H10S17892   0.652   0.190   7.231
  160SAPE  C21117893   0.514   0.078   7.112
  160SAPE  H11R17894   0.463   0.094   7.017
  160SAPE  C21217895   0.547  -0.046   7.154
  160SAPE  H12R17896   0.520  -0.132   7.091
  160SAPE  C21317897   0.619  -0.079   7.283
  160SAPE  H13R17898   0.712  -0.019   7.290
  160SAPE  H13S17899   0.654  -0.184   7.277
  160SAPE  C21417900   0.541  -0.064   7.412
  160SAPE  H14R17901   0.470  -0.146   7.428
  160SAPE  C21517902   0.550   0.032   7.507
  160SAPE  H15R17903   0.486   0.024   7.595
  160SAPE  C21617904   0.642   0.152   7.511
  160SAPE  H16R17905   0.709   0.156   7.422
  160SAPE  H16S17906   0.710   0.140   7.598
  160SAPE  C21717907   0.572   0.289   7.530
  160SAPE  H17R17908   0.496   0.277   7.610
  160SAPE  H17S17909   0.520   0.319   7.436
  160SAPE  C21817910   0.661   0.406   7.573
  160SAPE  H18R17911   0.606   0.501   7.556
  160SAPE  H18S17912   0.754   0.409   7.512
  160SAPE  C21917913   0.694   0.393   7.722
  160SAPE  H19R17914   0.751   0.299   7.731
  160SAPE  H19S17915   0.599   0.384   7.779
  160SAPE  C22017916   0.778   0.504   7.782
  160SAPE  H20R17917   0.879   0.499   7.736
  160SAPE  H20S17918   0.789   0.489   7.892
  160SAPE  H20T17919   0.733   0.604   7.765
  160SAPE   C3317920   1.170   0.065   6.393
  160SAPE   H3X17921   1.230   0.152   6.358
  160SAPE   H3Y17922   1.242  -0.007   6.438
  160SAPE   C3417923   1.075   0.116   6.502
  160SAPE   H4X17924   1.023   0.028   6.548
  160SAPE   H4Y17925   0.998   0.182   6.458
  160SAPE   C3517926   1.152   0.193   6.611
  160SAPE   H5X17927   1.183   0.291   6.568
  160SAPE   H5Y17928   1.244   0.137   6.636
  160SAPE   C3617929   1.072   0.219   6.740
  160SAPE   H6X17930   0.973   0.259   6.714
  160SAPE   H6Y17931   1.125   0.295   6.801
  160SAPE   C3717932   1.055   0.093   6.827
  160SAPE   H7X17933   1.154   0.057   6.864
  160SAPE   H7Y17934   1.013   0.012   6.763
  160SAPE   C3817935   0.958   0.114   6.943
  160SAPE   H8X17936   0.921   0.014   6.976
  160SAPE   H8Y17937   0.870   0.169   6.906
  160SAPE   C3917938   1.015   0.186   7.066
  160SAPE   H9X17939   1.054   0.286   7.037
  160SAPE   H9Y17940   1.099   0.127   7.109
  160SAPE  C31017941   0.903   0.202   7.170
  160SAPE  H10X17942   0.867   0.101   7.199
  160SAPE  H10Y17943   0.819   0.252   7.117
  160SAPE  C31117944   0.934   0.285   7.295
  160SAPE  H11X17945   0.841   0.297   7.354
  160SAPE  H11Y17946   0.965   0.387   7.263
  160SAPE  C31217947   1.043   0.228   7.386
  160SAPE  H12X17948   1.057   0.294   7.474
  160SAPE  H12Y17949   1.136   0.226   7.324
  160SAPE  C31317950   1.027   0.085   7.437
  160SAPE  H13X17951   1.127   0.038   7.431
  160SAPE  H13Y17952   0.960   0.027   7.370
  160SAPE  C31417953   0.981   0.072   7.583
  160SAPE  H14X17954   0.912   0.155   7.610
  160SAPE  H14Y17955   1.069   0.078   7.650
  160SAPE  C31517956   0.912  -0.063   7.597
  160SAPE  H15X17957   0.962  -0.133   7.526
  160SAPE  H15Y17958   0.806  -0.056   7.564
  160SAPE  C31617959   0.920  -0.131   7.733
  160SAPE  H16X17960   0.882  -0.067   7.815
  160SAPE  H16Y17961   1.026  -0.155   7.756
  160SAPE  C31717962   0.839  -0.260   7.725
  160SAPE  H17X17963   0.865  -0.312   7.630
  160SAPE  H17Y17964   0.731  -0.235   7.720
  160SAPE  C31817965   0.868  -0.354   7.840
  160SAPE  H18X17966   0.842  -0.305   7.936
  160SAPE  H18Y17967   0.975  -0.380   7.842
  160SAPE  H18Z17968   0.810  -0.448   7.831
  161SOPE     N17969   3.833   1.989  10.240
  161SOPE   HN117970   3.904   1.933  10.292
  161SOPE   HN217971   3.795   1.928  10.165
  161SOPE   HN317972   3.876   2.073  10.197
  161SOPE   C1217973   3.719   2.030  10.329
  161SOPE  H12A17974   3.761   2.080  10.419
  161SOPE  H12B17975   3.663   1.939  10.358
  161SOPE   C1117976   3.627   2.128  10.254
  161SOPE  H11A17977   3.536   2.144  10.316
  161SOPE  H11B17978   3.591   2.084  10.158
  161SOPE     P17979   3.776   2.293  10.112
  161SOPE   O1317980   3.905   2.221  10.123
  161SOPE   O1417981   3.779   2.440  10.106
  161SOPE   O1217982   3.692   2.253  10.238
  161SOPE   O1117983   3.691   2.231   9.996
  161SOPE    C117984   3.745   2.157   9.886
  161SOPE    HA17985   3.695   2.058   9.883
  161SOPE    HB17986   3.854   2.139   9.893
  161SOPE    C217987   3.715   2.228   9.752
  161SOPE    HS17988   3.719   2.151   9.671
  161SOPE   O2117989   3.807   2.336   9.730
  161SOPE   C2117990   3.897   2.314   9.635
  161SOPE   O2217991   3.930   2.206   9.591
  161SOPE   C2217992   3.949   2.449   9.586
  161SOPE   H2R17993   4.031   2.430   9.513
  161SOPE   H2S17994   3.992   2.502   9.674
  161SOPE    C317995   3.571   2.287   9.748
  161SOPE    HX17996   3.564   2.360   9.831
  161SOPE    HY17997   3.498   2.206   9.766
  161SOPE   O3117998   3.549   2.350   9.619
  161SOPE   C3117999   3.449   2.438   9.618
  161SOPE   O3218000   3.369   2.454   9.708
  161SOPE   C3218001   3.455   2.515   9.487
  161SOPE   H2X18002   3.475   2.443   9.405
  161SOPE   H2Y18003   3.543   2.583   9.496
  161SOPE   C2318004   3.838   2.533   9.520
  161SOPE   H3R18005   3.877   2.635   9.498
  161SOPE   H3S18006   3.753   2.545   9.590
  161SOPE   C2418007   3.785   2.474   9.388
  161SOPE   H4R18008   3.747   2.371   9.404
  161SOPE   H4S18009   3.700   2.536   9.353
  161SOPE   C2518010   3.889   2.474   9.275
  161SOPE   H5R18011   3.927   2.578   9.261
  161SOPE   H5S18012   3.976   2.409   9.302
  161SOPE   C2618013   3.831   2.425   9.143
  161SOPE   H6R18014   3.815   2.315   9.150
  161SOPE   H6S18015   3.731   2.471   9.125
  161SOPE   C2718016   3.923   2.459   9.025
  161SOPE   H7R18017   3.920   2.568   9.008
  161SOPE   H7S18018   4.027   2.433   9.052
  161SOPE   C2818019   3.885   2.388   8.894
  161SOPE   H8R18020   3.781   2.416   8.867
  161SOPE   H8S18021   3.950   2.427   8.812
  161SOPE   C2918022   3.903   2.239   8.904
  161SOPE   H9118023   4.007   2.203   8.902
  161SOPE  C21018024   3.803   2.149   8.914
  161SOPE  H10118025   3.829   2.042   8.919
  161SOPE  C21118026   3.656   2.182   8.917
  161SOPE  H11R18027   3.637   2.284   8.957
  161SOPE  H11S18028   3.601   2.111   8.984
  161SOPE  C21218029   3.598   2.172   8.775
  161SOPE  H12R18030   3.657   2.235   8.705
  161SOPE  H12S18031   3.494   2.213   8.774
  161SOPE  C21318032   3.594   2.027   8.726
  161SOPE  H13R18033   3.526   1.969   8.791
  161SOPE  H13S18034   3.696   1.983   8.734
  161SOPE  C21418035   3.551   2.012   8.581
  161SOPE  H14R18036   3.453   2.062   8.566
  161SOPE  H14S18037   3.536   1.904   8.560
  161SOPE  C21518038   3.653   2.068   8.480
  161SOPE  H15R18039   3.756   2.054   8.517
  161SOPE  H15S18040   3.635   2.177   8.469
  161SOPE  C21618041   3.637   1.996   8.346
  161SOPE  H16R18042   3.531   1.963   8.337
  161SOPE  H16S18043   3.699   1.904   8.347
  161SOPE  C21718044   3.670   2.079   8.223
  161SOPE  H17R18045   3.779   2.095   8.215
  161SOPE  H17S18046   3.621   2.179   8.232
  161SOPE  C21818047   3.617   2.009   8.097
  161SOPE  H18R18048   3.510   1.982   8.111
  161SOPE  H18S18049   3.675   1.917   8.075
  161SOPE  H18T18050   3.622   2.077   8.009
  161SOPE   C3318051   3.332   2.604   9.455
  161SOPE   H3X18052   3.370   2.702   9.420
  161SOPE   H3Y18053   3.274   2.625   9.547
  161SOPE   C3418054   3.239   2.548   9.346
  161SOPE   H4X18055   3.162   2.625   9.325
  161SOPE   H4Y18056   3.186   2.458   9.385
  161SOPE   C3518057   3.304   2.513   9.211
  161SOPE   H5X18058   3.223   2.496   9.138
  161SOPE   H5Y18059   3.362   2.419   9.219
  161SOPE   C3618060   3.396   2.623   9.158
  161SOPE   H6X18061   3.484   2.633   9.225
  161SOPE   H6Y18062   3.341   2.720   9.159
  161SOPE   C3718063   3.446   2.596   9.016
  161SOPE   H7X18064   3.358   2.591   8.948
  161SOPE   H7Y18065   3.498   2.498   9.011
  161SOPE   C3818066   3.540   2.708   8.970
  161SOPE   H8X18067   3.636   2.701   9.026
  161SOPE   H8Y18068   3.493   2.805   8.997
  161SOPE   C3918069   3.566   2.707   8.820
  161SOPE   H9X18070   3.469   2.699   8.767
  161SOPE   H9Y18071   3.622   2.615   8.791
  161SOPE  C31018072   3.635   2.836   8.772
  161SOPE  H10X18073   3.594   2.922   8.829
  161SOPE  H10Y18074   3.608   2.854   8.666
  161SOPE  C31118075   3.788   2.834   8.785
  161SOPE  H11X18076   3.815   2.838   8.892
  161SOPE  H11Y18077   3.829   2.926   8.737
  161SOPE  C31218078   3.856   2.711   8.721
  161SOPE  H12X18079   3.831   2.623   8.784
  161SOPE  H12Y18080   3.966   2.723   8.726
  161SOPE  C31318081   3.812   2.682   8.577
  161SOPE  H13X18082   3.868   2.748   8.507
  161SOPE  H13Y18083   3.704   2.704   8.564
  161SOPE  C31418084   3.829   2.534   8.537
  161SOPE  H14X18085   3.781   2.520   8.438
  161SOPE  H14Y18086   3.775   2.471   8.610
  161SOPE  C31518087   3.974   2.488   8.526
  161SOPE  H15X18088   4.027   2.506   8.622
  161SOPE  H15Y18089   4.025   2.551   8.449
  161SOPE  C31618090   3.983   2.340   8.488
  161SOPE  H16X18091   3.884   2.307   8.449
  161SOPE  H16Y18092   4.004   2.279   8.579
  161SOPE  C31718093   4.088   2.309   8.379
  161SOPE  H17X18094   4.090   2.199   8.364
  161SOPE  H17Y18095   4.188   2.340   8.416
  161SOPE  C31818096   4.059   2.376   8.245
  161SOPE  H18X18097   4.127   2.338   8.166
  161SOPE  H18Y18098   4.073   2.486   8.252
  161SOPE  H18Z18099   3.954   2.357   8.213
  162SOPE     N18100   3.509   1.218  10.174
  162SOPE   HN118101   3.470   1.218  10.077
  162SOPE   HN218102   3.549   1.125  10.199
  162SOPE   HN318103   3.433   1.234  10.242
  162SOPE   C1218104   3.614   1.323  10.192
  162SOPE  H12A18105   3.671   1.331  10.097
  162SOPE  H12B18106   3.682   1.290  10.274
  162SOPE   C1118107   3.548   1.457  10.229
  162SOPE  H11A18108   3.627   1.535  10.233
  162SOPE  H11B18109   3.502   1.448  10.329
  162SOPE     P18110   3.371   1.625  10.139
  162SOPE   O1318111   3.450   1.725  10.065
  162SOPE   O1418112   3.343   1.657  10.281
  162SOPE   O1218113   3.450   1.488  10.131
  162SOPE   O1118114   3.235   1.594  10.065
  162SOPE    C118115   3.209   1.473   9.992
  162SOPE    HA18116   3.111   1.432  10.024
  162SOPE    HB18117   3.283   1.393  10.010
  162SOPE    C218118   3.201   1.498   9.839
  162SOPE    HS18119   3.182   1.401   9.788
  162SOPE   O2118120   3.320   1.560   9.788
  162SOPE   C2118121   3.425   1.483   9.777
  162SOPE   O2218122   3.431   1.364   9.805
  162SOPE   C2218123   3.542   1.564   9.720
  162SOPE   H2R18124   3.629   1.497   9.709
  162SOPE   H2S18125   3.566   1.641   9.797
  162SOPE    C318126   3.082   1.591   9.804
  162SOPE    HX18127   3.101   1.692   9.846
  162SOPE    HY18128   2.991   1.552   9.855
  162SOPE   O3118129   3.059   1.589   9.662
  162SOPE   C3118130   3.089   1.699   9.594
  162SOPE   O3218131   3.139   1.800   9.639
  162SOPE   C3218132   3.056   1.673   9.447
  162SOPE   H2X18133   2.949   1.645   9.441
  162SOPE   H2Y18134   3.119   1.589   9.412
  162SOPE   C2318135   3.508   1.635   9.587
  162SOPE   H3R18136   3.587   1.711   9.566
  162SOPE   H3S18137   3.413   1.691   9.597
  162SOPE   C2418138   3.499   1.542   9.464
  162SOPE   H4R18139   3.422   1.464   9.479
  162SOPE   H4S18140   3.466   1.605   9.379
  162SOPE   C2518141   3.633   1.479   9.422
  162SOPE   H5R18142   3.712   1.557   9.427
  162SOPE   H5S18143   3.660   1.397   9.492
  162SOPE   C2618144   3.629   1.424   9.278
  162SOPE   H6R18145   3.548   1.349   9.267
  162SOPE   H6S18146   3.606   1.509   9.210
  162SOPE   C2718147   3.763   1.362   9.233
  162SOPE   H7R18148   3.842   1.422   9.284
  162SOPE   H7S18149   3.772   1.257   9.269
  162SOPE   C2818150   3.794   1.373   9.082
  162SOPE   H8R18151   3.764   1.474   9.048
  162SOPE   H8S18152   3.905   1.374   9.075
  162SOPE   C2918153   3.749   1.268   8.982
  162SOPE   H9118154   3.833   1.208   8.943
  162SOPE  C21018155   3.627   1.239   8.932
  162SOPE  H10118156   3.620   1.158   8.858
  162SOPE  C21118157   3.494   1.303   8.961
  162SOPE  H11R18158   3.500   1.367   9.051
  162SOPE  H11S18159   3.419   1.224   8.983
  162SOPE  C21218160   3.437   1.390   8.846
  162SOPE  H12R18161   3.499   1.481   8.834
  162SOPE  H12S18162   3.335   1.424   8.876
  162SOPE  C21318163   3.428   1.325   8.708
  162SOPE  H13R18164   3.369   1.231   8.714
  162SOPE  H13S18165   3.530   1.299   8.672
  162SOPE  C21418166   3.363   1.420   8.607
  162SOPE  H14R18167   3.420   1.516   8.603
  162SOPE  H14S18168   3.260   1.445   8.642
  162SOPE  C21518169   3.354   1.361   8.466
  162SOPE  H15R18170   3.309   1.260   8.473
  162SOPE  H15S18171   3.457   1.350   8.425
  162SOPE  C21618172   3.271   1.448   8.370
  162SOPE  H16R18173   3.312   1.552   8.372
  162SOPE  H16S18174   3.167   1.454   8.409
  162SOPE  C21718175   3.271   1.398   8.225
  162SOPE  H17R18176   3.376   1.406   8.190
  162SOPE  H17S18177   3.211   1.467   8.162
  162SOPE  C21818178   3.226   1.254   8.201
  162SOPE  H18R18179   3.260   1.185   8.281
  162SOPE  H18S18180   3.267   1.216   8.105
  162SOPE  H18T18181   3.115   1.248   8.194
  162SOPE   C3318182   3.077   1.796   9.357
  162SOPE   H3X18183   3.182   1.830   9.368
  162SOPE   H3Y18184   3.010   1.878   9.393
  162SOPE   C3418185   3.047   1.772   9.209
  162SOPE   H4X18186   3.049   1.870   9.157
  162SOPE   H4Y18187   2.943   1.732   9.198
  162SOPE   C3518188   3.146   1.678   9.138
  162SOPE   H5X18189   3.121   1.678   9.030
  162SOPE   H5Y18190   3.135   1.574   9.176
  162SOPE   C3618191   3.291   1.722   9.157
  162SOPE   H6X18192   3.326   1.697   9.260
  162SOPE   H6Y18193   3.296   1.832   9.147
  162SOPE   C3718194   3.387   1.666   9.052
  162SOPE   H7X18195   3.339   1.671   8.952
  162SOPE   H7Y18196   3.408   1.559   9.075
  162SOPE   C3818197   3.518   1.747   9.048
  162SOPE   H8X18198   3.566   1.744   9.148
  162SOPE   H8Y18199   3.496   1.853   9.024
  162SOPE   C3918200   3.613   1.691   8.942
  162SOPE   H9X18201   3.564   1.698   8.843
  162SOPE   H9Y18202   3.627   1.582   8.963
  162SOPE  C31018203   3.750   1.761   8.940
  162SOPE  H10X18204   3.786   1.774   9.044
  162SOPE  H10Y18205   3.733   1.862   8.897
  162SOPE  C31118206   3.859   1.688   8.859
  162SOPE  H11X18207   3.901   1.607   8.922
  162SOPE  H11Y18208   3.942   1.760   8.839
  162SOPE  C31218209   3.816   1.625   8.725
  162SOPE  H12X18210   3.743   1.543   8.746
  162SOPE  H12Y18211   3.904   1.578   8.677
  162SOPE  C31318212   3.753   1.724   8.626
  162SOPE  H13X18213   3.823   1.806   8.603
  162SOPE  H13Y18214   3.665   1.769   8.677
  162SOPE  C31418215   3.701   1.659   8.497
  162SOPE  H14X18216   3.614   1.719   8.462
  162SOPE  H14Y18217   3.664   1.556   8.517
  162SOPE  C31518218   3.803   1.657   8.383
  162SOPE  H15X18219   3.876   1.575   8.399
  162SOPE  H15Y18220   3.861   1.753   8.384
  162SOPE  C31618221   3.736   1.644   8.245
  162SOPE  H16X18222   3.815   1.643   8.167
  162SOPE  H16Y18223   3.672   1.732   8.225
  162SOPE  C31718224   3.648   1.519   8.233
  162SOPE  H17X18225   3.560   1.529   8.300
  162SOPE  H17Y18226   3.707   1.432   8.270
  162SOPE  C31818227   3.602   1.490   8.091
  162SOPE  H18X18228   3.554   1.390   8.086
  162SOPE  H18Y18229   3.689   1.487   8.022
  162SOPE  H18Z18230   3.530   1.567   8.055
  163SOPE     N18231   4.944   1.775  10.348
  163SOPE   HN118232   4.908   1.732  10.435
  163SOPE   HN218233   4.994   1.863  10.370
  163SOPE   HN318234   4.862   1.792  10.286
  163SOPE   C1218235   5.035   1.679  10.277
  163SOPE  H12A18236   5.114   1.646  10.347
  163SOPE  H12B18237   5.081   1.734  10.192
  163SOPE   C1118238   4.952   1.561  10.226
  163SOPE  H11A18239   4.926   1.496  10.312
  163SOPE  H11B18240   5.014   1.502  10.156
  163SOPE     P18241   4.776   1.553  10.031
  163SOPE   O1318242   4.635   1.598  10.019
  163SOPE   O1418243   4.806   1.409  10.025
  163SOPE   O1218244   4.830   1.609  10.167
  163SOPE   O1118245   4.864   1.636   9.928
  163SOPE    C118246   4.869   1.779   9.945
  163SOPE    HA18247   4.938   1.807  10.028
  163SOPE    HB18248   4.769   1.821   9.970
  163SOPE    C218249   4.916   1.855   9.816
  163SOPE    HS18250   4.882   1.960   9.824
  163SOPE   O2118251   4.864   1.794   9.697
  163SOPE   C2118252   4.733   1.781   9.697
  163SOPE   O2218253   4.653   1.856   9.751
  163SOPE   C2218254   4.699   1.651   9.626
  163SOPE   H2R18255   4.594   1.624   9.651
  163SOPE   H2S18256   4.765   1.573   9.668
  163SOPE    C318257   5.070   1.857   9.801
  163SOPE    HX18258   5.117   1.899   9.893
  163SOPE    HY18259   5.090   1.928   9.718
  163SOPE   O3118260   5.122   1.728   9.763
  163SOPE   C3118261   5.153   1.646   9.863
  163SOPE   O3218262   5.178   1.681   9.976
  163SOPE   C3218263   5.162   1.500   9.813
  163SOPE   H2X18264   5.104   1.441   9.887
  163SOPE   H2Y18265   5.269   1.469   9.819
  163SOPE   C2318266   4.721   1.658   9.473
  163SOPE   H3R18267   4.818   1.706   9.449
  163SOPE   H3S18268   4.640   1.720   9.427
  163SOPE   C2418269   4.720   1.518   9.413
  163SOPE   H4R18270   4.811   1.464   9.446
  163SOPE   H4S18271   4.632   1.462   9.453
  163SOPE   C2518272   4.710   1.517   9.260
  163SOPE   H5R18273   4.623   1.580   9.231
  163SOPE   H5S18274   4.800   1.565   9.215
  163SOPE   C2618275   4.693   1.375   9.204
  163SOPE   H6R18276   4.615   1.322   9.263
  163SOPE   H6S18277   4.657   1.380   9.099
  163SOPE   C2718278   4.824   1.296   9.206
  163SOPE   H7R18279   4.881   1.321   9.298
  163SOPE   H7S18280   4.802   1.187   9.212
  163SOPE   C2818281   4.911   1.329   9.083
  163SOPE   H8R18282   4.876   1.427   9.046
  163SOPE   H8S18283   5.016   1.342   9.118
  163SOPE   C2918284   4.910   1.227   8.972
  163SOPE   H9118285   4.968   1.136   8.995
  163SOPE  C21018286   4.849   1.235   8.852
  163SOPE  H10118287   4.864   1.151   8.783
  163SOPE  C21118288   4.765   1.345   8.793
  163SOPE  H11R18289   4.813   1.444   8.806
  163SOPE  H11S18290   4.665   1.349   8.843
  163SOPE  C21218291   4.743   1.320   8.642
  163SOPE  H12R18292   4.676   1.232   8.630
  163SOPE  H12S18293   4.839   1.296   8.592
  163SOPE  C21318294   4.678   1.437   8.567
  163SOPE  H13R18295   4.743   1.527   8.573
  163SOPE  H13S18296   4.583   1.461   8.619
  163SOPE  C21418297   4.646   1.405   8.419
  163SOPE  H14R18298   4.566   1.476   8.388
  163SOPE  H14S18299   4.605   1.302   8.409
  163SOPE  C21518300   4.763   1.427   8.322
  163SOPE  H15R18301   4.839   1.346   8.335
  163SOPE  H15S18302   4.812   1.524   8.347
  163SOPE  C21618303   4.721   1.433   8.174
  163SOPE  H16R18304   4.797   1.489   8.116
  163SOPE  H16S18305   4.625   1.488   8.164
  163SOPE  C21718306   4.708   1.293   8.111
  163SOPE  H17R18307   4.645   1.233   8.179
  163SOPE  H17S18308   4.809   1.247   8.109
  163SOPE  C21818309   4.649   1.290   7.970
  163SOPE  H18R18310   4.650   1.187   7.930
  163SOPE  H18S18311   4.707   1.355   7.901
  163SOPE  H18T18312   4.544   1.326   7.970
  163SOPE   C3318313   5.104   1.473   9.672
  163SOPE   H3X18314   5.005   1.523   9.662
  163SOPE   H3Y18315   5.085   1.364   9.663
  163SOPE   C3418316   5.196   1.514   9.556
  163SOPE   H4X18317   5.230   1.423   9.501
  163SOPE   H4Y18318   5.287   1.563   9.598
  163SOPE   C3518319   5.131   1.611   9.456
  163SOPE   H5X18320   5.097   1.702   9.511
  163SOPE   H5Y18321   5.040   1.563   9.414
  163SOPE   C3618322   5.225   1.651   9.342
  163SOPE   H6X18323   5.242   1.562   9.278
  163SOPE   H6Y18324   5.324   1.682   9.384
  163SOPE   C3718325   5.174   1.765   9.252
  163SOPE   H7X18326   5.245   1.775   9.166
  163SOPE   H7Y18327   5.177   1.862   9.307
  163SOPE   C3818328   5.032   1.743   9.198
  163SOPE   H8X18329   4.960   1.786   9.271
  163SOPE   H8Y18330   5.011   1.634   9.194
  163SOPE   C3918331   5.005   1.805   9.059
  163SOPE   H9X18332   5.033   1.913   9.062
  163SOPE   H9Y18333   4.896   1.800   9.039
  163SOPE  C31018334   5.077   1.738   8.940
  163SOPE  H10X18335   5.187   1.747   8.955
  163SOPE  H10Y18336   5.052   1.792   8.846
  163SOPE  C31118337   5.038   1.590   8.924
  163SOPE  H11X18338   4.930   1.584   8.903
  163SOPE  H11Y18339   5.057   1.543   9.022
  163SOPE  C31218340   5.117   1.501   8.825
  163SOPE  H12X18341   5.103   1.397   8.860
  163SOPE  H12Y18342   5.226   1.522   8.833
  163SOPE  C31318343   5.075   1.503   8.678
  163SOPE  H13X18344   5.117   1.593   8.629
  163SOPE  H13Y18345   4.964   1.508   8.669
  163SOPE  C31418346   5.125   1.377   8.606
  163SOPE  H14X18347   5.083   1.287   8.656
  163SOPE  H14Y18348   5.236   1.372   8.617
  163SOPE  C31518349   5.090   1.369   8.456
  163SOPE  H15X18350   5.040   1.464   8.425
  163SOPE  H15Y18351   5.018   1.286   8.442
  163SOPE  C31618352   5.212   1.343   8.366
  163SOPE  H16X18353   5.269   1.259   8.410
  163SOPE  H16Y18354   5.278   1.433   8.367
  163SOPE  C31718355   5.176   1.306   8.222
  163SOPE  H17X18356   5.109   1.217   8.224
  163SOPE  H17Y18357   5.269   1.274   8.170
  163SOPE  C31818358   5.110   1.417   8.140
  163SOPE  H18X18359   5.084   1.381   8.039
  163SOPE  H18Y18360   5.180   1.503   8.129
  163SOPE  H18Z18361   5.018   1.453   8.190
  164SOPE     N18362   6.073   4.547  10.314
  164SOPE   HN118363   6.010   4.565  10.395
  164SOPE   HN218364   6.162   4.504  10.344
  164SOPE   HN318365   6.096   4.637  10.267
  164SOPE   C1218366   6.003   4.461  10.213
  164SOPE  H12A18367   5.893   4.472  10.228
  164SOPE  H12B18368   6.033   4.355  10.227
  164SOPE   C1118369   6.034   4.513  10.073
  164SOPE  H11A18370   5.976   4.455   9.998
  164SOPE  H11B18371   6.141   4.494  10.051
  164SOPE     P18372   6.104   4.760  10.035
  164SOPE   O1318373   6.190   4.758  10.156
  164SOPE   O1418374   6.030   4.885  10.001
  164SOPE   O1218375   5.995   4.651  10.067
  164SOPE   O1118376   6.172   4.687   9.914
  164SOPE    C118377   6.278   4.731   9.829
  164SOPE    HA18378   6.372   4.679   9.855
  164SOPE    HB18379   6.298   4.840   9.842
  164SOPE    C218380   6.245   4.701   9.679
  164SOPE    HS18381   6.319   4.754   9.616
  164SOPE   O2118382   6.112   4.743   9.646
  164SOPE   C2118383   6.092   4.872   9.652
  164SOPE   O2218384   6.176   4.958   9.671
  164SOPE   C2218385   5.945   4.902   9.626
  164SOPE   H2R18386   5.916   4.975   9.705
  164SOPE   H2S18387   5.885   4.809   9.638
  164SOPE    C318388   6.255   4.549   9.644
  164SOPE    HX18389   6.199   4.495   9.723
  164SOPE    HY18390   6.361   4.515   9.649
  164SOPE   O3118391   6.194   4.519   9.516
  164SOPE   C3118392   6.267   4.552   9.410
  164SOPE   O3218393   6.388   4.570   9.410
  164SOPE   C3218394   6.176   4.572   9.289
  164SOPE   H2X18395   6.239   4.599   9.201
  164SOPE   H2Y18396   6.114   4.661   9.314
  164SOPE   C2318397   5.927   4.965   9.487
  164SOPE   H3R18398   6.018   5.021   9.457
  164SOPE   H3S18399   5.846   5.041   9.494
  164SOPE   C2418400   5.889   4.862   9.379
  164SOPE   H4R18401   5.954   4.772   9.390
  164SOPE   H4S18402   5.784   4.828   9.397
  164SOPE   C2518403   5.902   4.917   9.236
  164SOPE   H5R18404   5.851   4.847   9.166
  164SOPE   H5S18405   5.850   5.015   9.229
  164SOPE   C2618406   6.048   4.932   9.191
  164SOPE   H6R18407   6.103   5.000   9.260
  164SOPE   H6S18408   6.097   4.832   9.198
  164SOPE   C2718409   6.062   4.983   9.048
  164SOPE   H7R18410   6.009   4.913   8.979
  164SOPE   H7S18411   6.010   5.081   9.039
  164SOPE   C2818412   6.209   5.001   9.003
  164SOPE   H8R18413   6.208   5.042   8.900
  164SOPE   H8S18414   6.254   5.080   9.067
  164SOPE   C2918415   6.291   4.875   9.011
  164SOPE   H9118416   6.355   4.866   9.100
  164SOPE  C21018417   6.291   4.776   8.920
  164SOPE  H10118418   6.355   4.688   8.934
  164SOPE  C21118419   6.206   4.779   8.796
  164SOPE  H11R18420   6.236   4.866   8.733
  164SOPE  H11S18421   6.100   4.797   8.824
  164SOPE  C21218422   6.208   4.655   8.705
  164SOPE  H12R18423   6.170   4.566   8.760
  164SOPE  H12S18424   6.312   4.632   8.671
  164SOPE  C21318425   6.120   4.684   8.583
  164SOPE  H13R18426   6.174   4.755   8.517
  164SOPE  H13S18427   6.029   4.738   8.618
  164SOPE  C21418428   6.071   4.563   8.501
  164SOPE  H14R18429   6.027   4.490   8.571
  164SOPE  H14S18430   6.156   4.510   8.451
  164SOPE  C21518431   5.967   4.607   8.397
  164SOPE  H15R18432   5.951   4.716   8.410
  164SOPE  H15S18433   5.868   4.560   8.419
  164SOPE  C21618434   6.003   4.581   8.249
  164SOPE  H16R18435   6.106   4.616   8.229
  164SOPE  H16S18436   5.935   4.642   8.186
  164SOPE  C21718437   5.988   4.435   8.207
  164SOPE  H17R18438   5.883   4.403   8.224
  164SOPE  H17S18439   6.053   4.371   8.271
  164SOPE  C21818440   6.023   4.412   8.059
  164SOPE  H18R18441   6.130   4.433   8.041
  164SOPE  H18S18442   5.963   4.480   7.995
  164SOPE  H18T18443   6.002   4.307   8.030
  164SOPE   C3318444   6.082   4.454   9.255
  164SOPE   H3X18445   6.067   4.391   9.345
  164SOPE   H3Y18446   6.129   4.391   9.177
  164SOPE   C3418447   5.942   4.498   9.210
  164SOPE   H4X18448   5.897   4.563   9.287
  164SOPE   H4Y18449   5.878   4.407   9.202
  164SOPE   C3518450   5.937   4.570   9.074
  164SOPE   H5X18451   5.989   4.506   9.000
  164SOPE   H5Y18452   5.992   4.666   9.079
  164SOPE   C3618453   5.792   4.594   9.030
  164SOPE   H6X18454   5.740   4.657   9.105
  164SOPE   H6Y18455   5.740   4.496   9.029
  164SOPE   C3718456   5.777   4.660   8.891
  164SOPE   H7X18457   5.807   4.767   8.899
  164SOPE   H7Y18458   5.670   4.658   8.861
  164SOPE   C3818459   5.861   4.595   8.780
  164SOPE   H8X18460   5.967   4.614   8.807
  164SOPE   H8Y18461   5.843   4.647   8.684
  164SOPE   C3918462   5.843   4.443   8.764
  164SOPE   H9X18463   5.785   4.402   8.849
  164SOPE   H9Y18464   5.944   4.396   8.767
  164SOPE  C31018465   5.775   4.399   8.634
  164SOPE  H10X18466   5.741   4.294   8.648
  164SOPE  H10Y18467   5.847   4.396   8.549
  164SOPE  C31118468   5.653   4.482   8.595
  164SOPE  H11X18469   5.685   4.579   8.551
  164SOPE  H11Y18470   5.599   4.505   8.689
  164SOPE  C31218471   5.563   4.408   8.496
  164SOPE  H12X18472   5.477   4.474   8.472
  164SOPE  H12Y18473   5.522   4.315   8.542
  164SOPE  C31318474   5.639   4.371   8.368
  164SOPE  H13X18475   5.707   4.286   8.389
  164SOPE  H13Y18476   5.704   4.457   8.340
  164SOPE  C31418477   5.549   4.338   8.249
  164SOPE  H14X18478   5.443   4.329   8.281
  164SOPE  H14Y18479   5.580   4.239   8.209
  164SOPE  C31518480   5.562   4.440   8.135
  164SOPE  H15X18481   5.496   4.409   8.051
  164SOPE  H15Y18482   5.667   4.435   8.098
  164SOPE  C31618483   5.531   4.586   8.171
  164SOPE  H16X18484   5.549   4.649   8.081
  164SOPE  H16Y18485   5.600   4.621   8.250
  164SOPE  C31718486   5.387   4.610   8.218
  164SOPE  H17X18487   5.366   4.544   8.304
  164SOPE  H17Y18488   5.317   4.582   8.136
  164SOPE  C31818489   5.361   4.754   8.259
  164SOPE  H18X18490   5.380   4.822   8.173
  164SOPE  H18Y18491   5.428   4.784   8.342
  164SOPE  H18Z18492   5.256   4.768   8.293
  165SOPE     N18493   4.944   6.006  10.140
  165SOPE   HN118494   4.894   6.056  10.064
  165SOPE   HN218495   5.022   5.953  10.097
  165SOPE   HN318496   4.876   5.942  10.186
  165SOPE   C1218497   5.003   6.099  10.244
  165SOPE  H12A18498   5.058   6.035  10.315
  165SOPE  H12B18499   4.919   6.148  10.298
  165SOPE   C1118500   5.098   6.205  10.183
  165SOPE  H11A18501   5.168   6.241  10.262
  165SOPE  H11B18502   5.035   6.292  10.153
  165SOPE     P18503   5.281   6.049  10.076
  165SOPE   O1318504   5.219   5.931  10.141
  165SOPE   O1418505   5.398   6.111  10.141
  165SOPE   O1218506   5.169   6.161  10.067
  165SOPE   O1118507   5.309   6.018   9.924
  165SOPE    C118508   5.321   6.121   9.825
  165SOPE    HA18509   5.389   6.085   9.745
  165SOPE    HB18510   5.368   6.212   9.867
  165SOPE    C218511   5.186   6.159   9.759
  165SOPE    HS18512   5.114   6.186   9.839
  165SOPE   O2118513   5.136   6.050   9.680
  165SOPE   C2118514   5.061   5.960   9.741
  165SOPE   O2218515   5.016   5.969   9.854
  165SOPE   C2218516   5.036   5.845   9.645
  165SOPE   H2R18517   5.001   5.756   9.702
  165SOPE   H2S18518   5.134   5.819   9.598
  165SOPE    C318519   5.201   6.284   9.668
  165SOPE    HX18520   5.249   6.364   9.729
  165SOPE    HY18521   5.099   6.321   9.644
  165SOPE   O3118522   5.282   6.259   9.551
  165SOPE   C3118523   5.214   6.240   9.438
  165SOPE   O3218524   5.093   6.253   9.426
  165SOPE   C3218525   5.309   6.205   9.323
  165SOPE   H2X18526   5.394   6.145   9.363
  165SOPE   H2Y18527   5.348   6.300   9.282
  165SOPE   C2318528   4.934   5.879   9.534
  165SOPE   H3R18529   4.931   5.988   9.512
  165SOPE   H3S18530   4.833   5.847   9.570
  165SOPE   C2418531   4.963   5.805   9.404
  165SOPE   H4R18532   5.056   5.843   9.355
  165SOPE   H4S18533   4.982   5.700   9.432
  165SOPE   C2518534   4.846   5.792   9.307
  165SOPE   H5R18535   4.868   5.703   9.244
  165SOPE   H5S18536   4.752   5.771   9.363
  165SOPE   C2618537   4.824   5.909   9.211
  165SOPE   H6R18538   4.740   5.883   9.144
  165SOPE   H6S18539   4.796   5.999   9.270
  165SOPE   C2718540   4.950   5.940   9.128
  165SOPE   H7R18541   5.023   5.982   9.200
  165SOPE   H7S18542   4.993   5.846   9.088
  165SOPE   C2818543   4.931   6.042   9.015
  165SOPE   H8R18544   4.879   6.132   9.055
  165SOPE   H8S18545   5.031   6.077   8.982
  165SOPE   C2918546   4.855   5.981   8.900
  165SOPE   H9118547   4.771   5.917   8.930
  165SOPE  C21018548   4.881   5.998   8.770
  165SOPE  H10118549   4.819   5.941   8.698
  165SOPE  C21118550   4.989   6.080   8.706
  165SOPE  H11R18551   5.067   6.113   8.778
  165SOPE  H11S18552   4.946   6.171   8.659
  165SOPE  C21218553   5.054   5.994   8.597
  165SOPE  H12R18554   4.978   5.960   8.523
  165SOPE  H12S18555   5.098   5.904   8.645
  165SOPE  C21318556   5.165   6.067   8.520
  165SOPE  H13R18557   5.248   6.086   8.592
  165SOPE  H13S18558   5.127   6.166   8.486
  165SOPE  C21418559   5.215   5.988   8.399
  165SOPE  H14R18560   5.296   6.045   8.347
  165SOPE  H14S18561   5.131   5.978   8.327
  165SOPE  C21518562   5.269   5.850   8.435
  165SOPE  H15R18563   5.193   5.795   8.495
  165SOPE  H15S18564   5.361   5.861   8.497
  165SOPE  C21618565   5.303   5.761   8.316
  165SOPE  H16R18566   5.351   5.668   8.356
  165SOPE  H16S18567   5.377   5.811   8.251
  165SOPE  C21718568   5.178   5.721   8.240
  165SOPE  H17R18569   5.138   5.807   8.182
  165SOPE  H17S18570   5.100   5.695   8.315
  165SOPE  C21818571   5.199   5.601   8.149
  165SOPE  H18R18572   5.106   5.540   8.145
  165SOPE  H18S18573   5.280   5.535   8.186
  165SOPE  H18T18574   5.223   5.634   8.045
  165SOPE   C3318575   5.235   6.125   9.214
  165SOPE   H3X18576   5.139   6.175   9.191
  165SOPE   H3Y18577   5.213   6.024   9.253
  165SOPE   C3418578   5.308   6.110   9.079
  165SOPE   H4X18579   5.344   6.208   9.042
  165SOPE   H4Y18580   5.235   6.072   9.005
  165SOPE   C3518581   5.422   6.008   9.082
  165SOPE   H5X18582   5.396   5.927   9.153
  165SOPE   H5Y18583   5.513   6.058   9.121
  165SOPE   C3618584   5.450   5.943   8.946
  165SOPE   H6X18585   5.356   5.895   8.911
  165SOPE   H6Y18586   5.526   5.864   8.959
  165SOPE   C3718587   5.500   6.038   8.836
  165SOPE   H7X18588   5.606   6.065   8.858
  165SOPE   H7Y18589   5.439   6.130   8.833
  165SOPE   C3818590   5.494   5.969   8.699
  165SOPE   H8X18591   5.387   5.948   8.679
  165SOPE   H8Y18592   5.546   5.872   8.706
  165SOPE   C3918593   5.556   6.047   8.581
  165SOPE   H9X18594   5.529   5.996   8.486
  165SOPE   H9Y18595   5.666   6.039   8.591
  165SOPE  C31018596   5.517   6.195   8.570
  165SOPE  H10X18597   5.560   6.247   8.658
  165SOPE  H10Y18598   5.407   6.209   8.575
  165SOPE  C31118599   5.571   6.263   8.443
  165SOPE  H11X18600   5.669   6.217   8.416
  165SOPE  H11Y18601   5.590   6.369   8.469
  165SOPE  C31218602   5.478   6.260   8.320
  165SOPE  H12X18603   5.477   6.362   8.276
  165SOPE  H12Y18604   5.374   6.238   8.352
  165SOPE  C31318605   5.523   6.169   8.205
  165SOPE  H13X18606   5.538   6.065   8.242
  165SOPE  H13Y18607   5.620   6.207   8.168
  165SOPE  C31418608   5.425   6.168   8.086
  165SOPE  H14X18609   5.390   6.272   8.068
  165SOPE  H14Y18610   5.336   6.108   8.113
  165SOPE  C31518611   5.486   6.118   7.954
  165SOPE  H15X18612   5.557   6.195   7.917
  165SOPE  H15Y18613   5.406   6.108   7.878
  165SOPE  C31618614   5.562   5.985   7.964
  165SOPE  H16X18615   5.649   5.999   8.032
  165SOPE  H16Y18616   5.604   5.959   7.864
  165SOPE  C31718617   5.477   5.868   8.014
  165SOPE  H17X18618   5.385   5.905   8.063
  165SOPE  H17Y18619   5.536   5.815   8.093
  165SOPE  C31818620   5.438   5.766   7.907
  165SOPE  H18X18621   5.526   5.740   7.844
  165SOPE  H18Y18622   5.359   5.807   7.841
  165SOPE  H18Z18623   5.402   5.672   7.954
  166SOPE     N18624   7.347   6.079  10.273
  166SOPE   HN118625   7.259   6.130  10.255
  166SOPE   HN218626   7.377   6.041  10.181
  166SOPE   HN318627   7.330   6.003  10.342
  166SOPE   C1218628   7.450   6.178  10.321
  166SOPE  H12A18629   7.550   6.134  10.301
  166SOPE  H12B18630   7.438   6.192  10.430
  166SOPE   C1118631   7.435   6.313  10.247
  166SOPE  H11A18632   7.525   6.376  10.263
  166SOPE  H11B18633   7.350   6.368  10.293
  166SOPE     P18634   7.522   6.243  10.013
  166SOPE   O1318635   7.539   6.100  10.049
  166SOPE   O1418636   7.639   6.332  10.030
  166SOPE   O1218637   7.406   6.297  10.107
  166SOPE   O1118638   7.455   6.258   9.870
  166SOPE    C118639   7.339   6.177   9.845
  166SOPE    HA18640   7.258   6.198   9.918
  166SOPE    HB18641   7.365   6.070   9.854
  166SOPE    C218642   7.278   6.198   9.702
  166SOPE    HS18643   7.204   6.117   9.686
  166SOPE   O2118644   7.377   6.197   9.599
  166SOPE   C2118645   7.435   6.081   9.579
  166SOPE   O2218646   7.415   5.978   9.641
  166SOPE   C2218647   7.527   6.092   9.458
  166SOPE   H2R18648   7.464   6.110   9.368
  166SOPE   H2S18649   7.579   5.995   9.446
  166SOPE    C318650   7.202   6.333   9.691
  166SOPE    HX18651   7.278   6.414   9.692
  166SOPE    HY18652   7.137   6.345   9.781
  166SOPE   O3118653   7.121   6.336   9.571
  166SOPE   C3118654   7.071   6.455   9.541
  166SOPE   O3218655   7.082   6.555   9.610
  166SOPE   C3218656   6.996   6.449   9.408
  166SOPE   H2X18657   6.964   6.552   9.382
  166SOPE   H2Y18658   6.905   6.387   9.423
  166SOPE   C2318659   7.630   6.206   9.475
  166SOPE   H3R18660   7.685   6.192   9.571
  166SOPE   H3S18661   7.579   6.304   9.481
  166SOPE   C2418662   7.731   6.209   9.361
  166SOPE   H4R18663   7.812   6.280   9.390
  166SOPE   H4S18664   7.778   6.109   9.350
  166SOPE   C2518665   7.670   6.254   9.227
  166SOPE   H5R18666   7.563   6.280   9.245
  166SOPE   H5S18667   7.720   6.347   9.193
  166SOPE   C2618668   7.675   6.149   9.116
  166SOPE   H6R18669   7.622   6.058   9.151
  166SOPE   H6S18670   7.621   6.187   9.027
  166SOPE   C2718671   7.819   6.114   9.073
  166SOPE   H7R18672   7.873   6.208   9.051
  166SOPE   H7S18673   7.872   6.063   9.157
  166SOPE   C2818674   7.823   6.024   8.948
  166SOPE   H8R18675   7.787   6.084   8.862
  166SOPE   H8S18676   7.929   5.998   8.929
  166SOPE   C2918677   7.744   5.897   8.966
  166SOPE   H9118678   7.744   5.856   9.068
  166SOPE  C21018679   7.677   5.832   8.870
  166SOPE  H10118680   7.623   5.740   8.896
  166SOPE  C21118681   7.664   5.871   8.724
  166SOPE  H11R18682   7.701   5.788   8.660
  166SOPE  H11S18683   7.724   5.961   8.698
  166SOPE  C21218684   7.517   5.897   8.689
  166SOPE  H12R18685   7.457   5.813   8.728
  166SOPE  H12S18686   7.504   5.897   8.578
  166SOPE  C21318687   7.462   6.029   8.745
  166SOPE  H13R18688   7.521   6.063   8.832
  166SOPE  H13S18689   7.358   6.012   8.780
  166SOPE  C21418690   7.457   6.139   8.638
  166SOPE  H14R18691   7.405   6.100   8.549
  166SOPE  H14S18692   7.560   6.167   8.608
  166SOPE  C21518693   7.382   6.263   8.688
  166SOPE  H15R18694   7.440   6.311   8.770
  166SOPE  H15S18695   7.284   6.232   8.730
  166SOPE  C21618696   7.358   6.361   8.575
  166SOPE  H16R18697   7.293   6.313   8.498
  166SOPE  H16S18698   7.454   6.387   8.525
  166SOPE  C21718699   7.291   6.490   8.623
  166SOPE  H17R18700   7.365   6.547   8.683
  166SOPE  H17S18701   7.205   6.466   8.688
  166SOPE  C21818702   7.245   6.572   8.505
  166SOPE  H18R18703   7.168   6.517   8.447
  166SOPE  H18S18704   7.333   6.594   8.440
  166SOPE  H18T18705   7.202   6.670   8.534
  166SOPE   C3318706   7.081   6.390   9.293
  166SOPE   H3X18707   7.018   6.381   9.202
  166SOPE   H3Y18708   7.116   6.288   9.319
  166SOPE   C3418709   7.203   6.476   9.262
  166SOPE   H4X18710   7.269   6.480   9.351
  166SOPE   H4Y18711   7.171   6.579   9.238
  166SOPE   C3518712   7.287   6.422   9.145
  166SOPE   H5X18713   7.230   6.434   9.051
  166SOPE   H5Y18714   7.309   6.314   9.159
  166SOPE   C3618715   7.418   6.500   9.138
  166SOPE   H6X18716   7.484   6.472   9.224
  166SOPE   H6Y18717   7.394   6.607   9.154
  166SOPE   C3718718   7.495   6.485   9.007
  166SOPE   H7X18719   7.427   6.505   8.920
  166SOPE   H7Y18720   7.532   6.381   8.997
  166SOPE   C3818721   7.613   6.583   9.002
  166SOPE   H8X18722   7.662   6.583   9.102
  166SOPE   H8Y18723   7.574   6.686   8.986
  166SOPE   C3918724   7.718   6.550   8.896
  166SOPE   H9X18725   7.766   6.454   8.920
  166SOPE   H9Y18726   7.796   6.629   8.899
  166SOPE  C31018727   7.663   6.539   8.754
  166SOPE  H10X18728   7.599   6.627   8.730
  166SOPE  H10Y18729   7.600   6.448   8.745
  166SOPE  C31118730   7.778   6.530   8.653
  166SOPE  H11X18731   7.848   6.450   8.685
  166SOPE  H11Y18732   7.834   6.626   8.655
  166SOPE  C31218733   7.730   6.500   8.511
  166SOPE  H12X18734   7.651   6.572   8.483
  166SOPE  H12Y18735   7.684   6.399   8.510
  166SOPE  C31318736   7.846   6.507   8.412
  166SOPE  H13X18737   7.936   6.544   8.467
  166SOPE  H13Y18738   7.825   6.581   8.331
  166SOPE  C31418739   7.880   6.372   8.349
  166SOPE  H14X18740   7.885   6.295   8.429
  166SOPE  H14Y18741   7.979   6.375   8.299
  166SOPE  C31518742   7.775   6.335   8.245
  166SOPE  H15X18743   7.782   6.404   8.158
  166SOPE  H15Y18744   7.675   6.347   8.290
  166SOPE  C31618745   7.788   6.192   8.197
  166SOPE  H16X18746   7.815   6.130   8.286
  166SOPE  H16Y18747   7.871   6.183   8.124
  166SOPE  C31718748   7.657   6.140   8.139
  166SOPE  H17X18749   7.582   6.133   8.220
  166SOPE  H17Y18750   7.677   6.037   8.103
  166SOPE  C31818751   7.599   6.225   8.025
  166SOPE  H18X18752   7.573   6.327   8.061
  166SOPE  H18Y18753   7.506   6.178   7.986
  166SOPE  H18Z18754   7.671   6.234   7.942
  167SOPE     N18755   4.932   3.685   5.953
  167SOPE   HN118756   4.831   3.702   5.938
  167SOPE   HN218757   4.975   3.697   5.859
  167SOPE   HN318758   4.948   3.586   5.982
  167SOPE   C1218759   4.996   3.785   6.047
  167SOPE  H12A18760   4.971   3.755   6.151
  167SOPE  H12B18761   4.951   3.884   6.026
  167SOPE   C1118762   5.149   3.793   6.028
  167SOPE  H11A18763   5.194   3.692   6.043
  167SOPE  H11B18764   5.190   3.857   6.108
  167SOPE     P18765   5.198   3.770   5.767
  167SOPE   O1318766   5.278   3.852   5.674
  167SOPE   O1418767   5.060   3.739   5.725
  167SOPE   O1218768   5.185   3.850   5.902
  167SOPE   O1118769   5.271   3.636   5.804
  167SOPE    C118770   5.401   3.630   5.861
  167SOPE    HA18771   5.421   3.718   5.927
  167SOPE    HB18772   5.477   3.629   5.780
  167SOPE    C218773   5.419   3.502   5.948
  167SOPE    HS18774   5.400   3.415   5.881
  167SOPE   O2118775   5.321   3.504   6.054
  167SOPE   C2118776   5.303   3.386   6.113
  167SOPE   O2218777   5.361   3.283   6.083
  167SOPE   C2218778   5.197   3.398   6.224
  167SOPE   H2R18779   5.186   3.297   6.268
  167SOPE   H2S18780   5.101   3.425   6.175
  167SOPE    C318781   5.566   3.492   6.000
  167SOPE    HX18782   5.629   3.464   5.914
  167SOPE    HY18783   5.576   3.409   6.074
  167SOPE   O3118784   5.614   3.619   6.052
  167SOPE   C3118785   5.579   3.645   6.178
  167SOPE   O3218786   5.515   3.572   6.251
  167SOPE   C3218787   5.643   3.775   6.222
  167SOPE   H2X18788   5.682   3.829   6.133
  167SOPE   H2Y18789   5.729   3.748   6.287
  167SOPE   C2318790   5.234   3.500   6.335
  167SOPE   H3R18791   5.247   3.601   6.290
  167SOPE   H3S18792   5.331   3.470   6.380
  167SOPE   C2418793   5.131   3.508   6.448
  167SOPE   H4R18794   5.031   3.535   6.407
  167SOPE   H4S18795   5.122   3.409   6.496
  167SOPE   C2518796   5.173   3.612   6.554
  167SOPE   H5R18797   5.277   3.590   6.585
  167SOPE   H5S18798   5.172   3.713   6.509
  167SOPE   C2618799   5.084   3.611   6.679
  167SOPE   H6R18800   4.979   3.635   6.652
  167SOPE   H6S18801   5.086   3.509   6.724
  167SOPE   C2718802   5.132   3.712   6.784
  167SOPE   H7R18803   5.241   3.700   6.798
  167SOPE   H7S18804   5.114   3.814   6.744
  167SOPE   C2818805   5.062   3.696   6.919
  167SOPE   H8R18806   4.952   3.702   6.904
  167SOPE   H8S18807   5.084   3.595   6.960
  167SOPE   C2918808   5.112   3.802   7.015
  167SOPE   H9118809   5.222   3.808   7.024
  167SOPE  C21018810   5.037   3.886   7.087
  167SOPE  H10118811   5.086   3.959   7.153
  167SOPE  C21118812   4.886   3.893   7.088
  167SOPE  H11R18813   4.841   3.858   6.993
  167SOPE  H11S18814   4.857   4.000   7.100
  167SOPE  C21218815   4.824   3.816   7.205
  167SOPE  H12R18816   4.846   3.708   7.196
  167SOPE  H12S18817   4.714   3.830   7.202
  167SOPE  C21318818   4.877   3.865   7.341
  167SOPE  H13R18819   4.871   3.976   7.347
  167SOPE  H13S18820   4.984   3.837   7.348
  167SOPE  C21418821   4.802   3.804   7.459
  167SOPE  H14R18822   4.738   3.720   7.425
  167SOPE  H14S18823   4.734   3.880   7.503
  167SOPE  C21518824   4.899   3.753   7.566
  167SOPE  H15R18825   4.991   3.815   7.564
  167SOPE  H15S18826   4.928   3.649   7.540
  167SOPE  C21618827   4.840   3.759   7.706
  167SOPE  H16R18828   4.729   3.751   7.701
  167SOPE  H16S18829   4.864   3.857   7.753
  167SOPE  C21718830   4.892   3.645   7.793
  167SOPE  H17R18831   5.003   3.645   7.794
  167SOPE  H17S18832   4.861   3.549   7.745
  167SOPE  C21818833   4.842   3.651   7.936
  167SOPE  H18R18834   4.891   3.572   7.997
  167SOPE  H18S18835   4.732   3.636   7.938
  167SOPE  H18T18836   4.865   3.749   7.982
  167SOPE   C3318837   5.546   3.866   6.299
  167SOPE   H3X18838   5.445   3.865   6.252
  167SOPE   H3Y18839   5.582   3.971   6.292
  167SOPE   C3418840   5.534   3.833   6.448
  167SOPE   H4X18841   5.632   3.851   6.498
  167SOPE   H4Y18842   5.508   3.726   6.462
  167SOPE   C3518843   5.426   3.919   6.514
  167SOPE   H5X18844   5.330   3.898   6.463
  167SOPE   H5Y18845   5.451   4.026   6.496
  167SOPE   C3618846   5.407   3.896   6.665
  167SOPE   H6X18847   5.429   3.791   6.691
  167SOPE   H6Y18848   5.300   3.916   6.688
  167SOPE   C3718849   5.489   3.993   6.752
  167SOPE   H7X18850   5.476   4.096   6.712
  167SOPE   H7Y18851   5.597   3.967   6.745
  167SOPE   C3818852   5.444   3.991   6.899
  167SOPE   H8X18853   5.467   3.892   6.942
  167SOPE   H8Y18854   5.334   4.006   6.904
  167SOPE   C3918855   5.512   4.100   6.982
  167SOPE   H9X18856   5.467   4.199   6.959
  167SOPE   H9Y18857   5.619   4.106   6.951
  167SOPE  C31018858   5.510   4.074   7.133
  167SOPE  H10X18859   5.563   4.157   7.183
  167SOPE  H10Y18860   5.566   3.980   7.152
  167SOPE  C31118861   5.371   4.060   7.197
  167SOPE  H11X18862   5.311   3.984   7.142
  167SOPE  H11Y18863   5.317   4.157   7.192
  167SOPE  C31218864   5.381   4.017   7.345
  167SOPE  H12X18865   5.450   4.086   7.398
  167SOPE  H12Y18866   5.425   3.916   7.349
  167SOPE  C31318867   5.246   4.018   7.417
  167SOPE  H13X18868   5.173   3.956   7.361
  167SOPE  H13Y18869   5.207   4.122   7.420
  167SOPE  C31418870   5.253   3.968   7.562
  167SOPE  H14X18871   5.151   3.979   7.606
  167SOPE  H14Y18872   5.321   4.033   7.621
  167SOPE  C31518873   5.296   3.821   7.573
  167SOPE  H15X18874   5.406   3.813   7.560
  167SOPE  H15Y18875   5.249   3.765   7.489
  167SOPE  C31618876   5.252   3.755   7.704
  167SOPE  H16X18877   5.270   3.646   7.698
  167SOPE  H16Y18878   5.142   3.771   7.713
  167SOPE  C31718879   5.317   3.811   7.830
  167SOPE  H17X18880   5.303   3.921   7.834
  167SOPE  H17Y18881   5.427   3.790   7.828
  167SOPE  C31818882   5.256   3.750   7.956
  167SOPE  H18X18883   5.147   3.770   7.958
  167SOPE  H18Y18884   5.301   3.794   8.048
  167SOPE  H18Z18885   5.272   3.640   7.957
  168SOPE     N18886   3.965   0.732   5.864
  168SOPE   HN118887   3.920   0.642   5.891
  168SOPE   HN218888   3.896   0.810   5.867
  168SOPE   HN318889   4.000   0.730   5.766
  168SOPE   C1218890   4.076   0.769   5.959
  168SOPE  H12A18891   4.148   0.684   5.964
  168SOPE  H12B18892   4.031   0.786   6.059
  168SOPE   C1118893   4.145   0.897   5.909
  168SOPE  H11A18894   4.216   0.868   5.829
  168SOPE  H11B18895   4.204   0.942   5.991
  168SOPE     P18896   4.096   1.115   5.777
  168SOPE   O1318897   3.978   1.176   5.710
  168SOPE   O1418898   4.200   1.068   5.684
  168SOPE   O1218899   4.046   0.989   5.860
  168SOPE   O1118900   4.155   1.209   5.889
  168SOPE    C118901   4.073   1.237   6.005
  168SOPE    HA18902   4.014   1.149   6.038
  168SOPE    HB18903   4.003   1.320   5.982
  168SOPE    C218904   4.158   1.278   6.129
  168SOPE    HS18905   4.204   1.376   6.104
  168SOPE   O2118906   4.258   1.179   6.155
  168SOPE   C2118907   4.359   1.224   6.229
  168SOPE   O2218908   4.378   1.340   6.260
  168SOPE   C2218909   4.450   1.107   6.267
  168SOPE   H2R18910   4.546   1.124   6.215
  168SOPE   H2S18911   4.407   1.012   6.229
  168SOPE    C318912   4.068   1.301   6.255
  168SOPE    HX18913   3.986   1.370   6.225
  168SOPE    HY18914   4.126   1.356   6.331
  168SOPE   O3118915   4.009   1.176   6.303
  168SOPE   C3118916   4.074   1.123   6.408
  168SOPE   O3218917   4.165   1.177   6.468
  168SOPE   C3218918   4.017   0.986   6.445
  168SOPE   H2X18919   4.083   0.910   6.398
  168SOPE   H2Y18920   3.914   0.976   6.403
  168SOPE   C2318921   4.473   1.099   6.420
  168SOPE   H3R18922   4.432   1.189   6.470
  168SOPE   H3S18923   4.583   1.101   6.439
  168SOPE   C2418924   4.418   0.972   6.485
  168SOPE   H4R18925   4.308   0.970   6.470
  168SOPE   H4S18926   4.461   0.883   6.433
  168SOPE   C2518927   4.448   0.961   6.635
  168SOPE   H5R18928   4.386   0.879   6.676
  168SOPE   H5S18929   4.554   0.935   6.652
  168SOPE   C2618930   4.416   1.090   6.713
  168SOPE   H6R18931   4.494   1.167   6.694
  168SOPE   H6S18932   4.320   1.131   6.676
  168SOPE   C2718933   4.402   1.066   6.864
  168SOPE   H7R18934   4.333   0.980   6.877
  168SOPE   H7S18935   4.499   1.037   6.909
  168SOPE   C2818936   4.340   1.186   6.938
  168SOPE   H8R18937   4.257   1.225   6.875
  168SOPE   H8S18938   4.292   1.146   7.030
  168SOPE   C2918939   4.437   1.298   6.972
  168SOPE   H9118940   4.483   1.347   6.885
  168SOPE  C21018941   4.469   1.338   7.096
  168SOPE  H10118942   4.542   1.420   7.109
  168SOPE  C21118943   4.414   1.278   7.224
  168SOPE  H11R18944   4.306   1.257   7.213
  168SOPE  H11S18945   4.424   1.349   7.309
  168SOPE  C21218946   4.487   1.146   7.258
  168SOPE  H12R18947   4.588   1.168   7.299
  168SOPE  H12S18948   4.501   1.087   7.165
  168SOPE  C21318949   4.410   1.055   7.355
  168SOPE  H13R18950   4.465   0.959   7.361
  168SOPE  H13S18951   4.309   1.033   7.313
  168SOPE  C21418952   4.394   1.111   7.497
  168SOPE  H14R18953   4.319   1.192   7.497
  168SOPE  H14S18954   4.491   1.154   7.530
  168SOPE  C21518955   4.354   1.000   7.595
  168SOPE  H15R18956   4.435   0.923   7.595
  168SOPE  H15S18957   4.263   0.949   7.557
  168SOPE  C21618958   4.333   1.048   7.739
  168SOPE  H16R18959   4.423   1.103   7.773
  168SOPE  H16S18960   4.323   0.958   7.804
  168SOPE  C21718961   4.208   1.135   7.760
  168SOPE  H17R18962   4.221   1.232   7.708
  168SOPE  H17S18963   4.199   1.156   7.869
  168SOPE  C21818964   4.079   1.069   7.711
  168SOPE  H18R18965   4.073   0.963   7.745
  168SOPE  H18S18966   4.076   1.067   7.600
  168SOPE  H18T18967   3.990   1.124   7.748
  168SOPE   C3318968   4.016   0.966   6.598
  168SOPE   H3X18969   3.937   1.030   6.644
  168SOPE   H3Y18970   4.112   1.000   6.642
  168SOPE   C3418971   3.993   0.821   6.644
  168SOPE   H4X18972   4.072   0.755   6.602
  168SOPE   H4Y18973   3.894   0.786   6.607
  168SOPE   C3518974   3.995   0.814   6.798
  168SOPE   H5X18975   3.922   0.889   6.833
  168SOPE   H5Y18976   4.095   0.846   6.836
  168SOPE   C3618977   3.957   0.678   6.859
  168SOPE   H6X18978   4.047   0.613   6.865
  168SOPE   H6Y18979   3.884   0.628   6.791
  168SOPE   C3718980   3.891   0.691   6.997
  168SOPE   H7X18981   3.864   0.590   7.037
  168SOPE   H7Y18982   3.796   0.746   6.983
  168SOPE   C3818983   3.974   0.767   7.102
  168SOPE   H8X18984   3.905   0.821   7.170
  168SOPE   H8Y18985   4.036   0.845   7.052
  168SOPE   C3918986   4.064   0.680   7.190
  168SOPE   H9X18987   4.145   0.744   7.230
  168SOPE   H9Y18988   4.111   0.599   7.129
  168SOPE  C31018989   3.986   0.620   7.308
  168SOPE  H10X18990   3.904   0.557   7.268
  168SOPE  H10Y18991   3.941   0.703   7.367
  168SOPE  C31118992   4.071   0.534   7.403
  168SOPE  H11X18993   4.115   0.450   7.345
  168SOPE  H11Y18994   4.004   0.491   7.480
  168SOPE  C31218995   4.184   0.612   7.471
  168SOPE  H12X18996   4.141   0.696   7.529
  168SOPE  H12Y18997   4.250   0.656   7.394
  168SOPE  C31318998   4.272   0.525   7.562
  168SOPE  H13X18999   4.355   0.587   7.601
  168SOPE  H13Y19000   4.317   0.443   7.501
  168SOPE  C31419001   4.198   0.462   7.681
  168SOPE  H14X19002   4.273   0.407   7.741
  168SOPE  H14Y19003   4.124   0.387   7.646
  168SOPE  C31519004   4.128   0.566   7.770
  168SOPE  H15X19005   4.021   0.570   7.740
  168SOPE  H15Y19006   4.171   0.667   7.753
  168SOPE  C31619007   4.138   0.534   7.920
  168SOPE  H16X19008   4.136   0.424   7.934
  168SOPE  H16Y19009   4.048   0.575   7.970
  168SOPE  C31719010   4.261   0.597   7.990
  168SOPE  H17X19011   4.253   0.578   8.099
  168SOPE  H17Y19012   4.251   0.706   7.973
  168SOPE  C31819013   4.401   0.558   7.942
  168SOPE  H18X19014   4.409   0.566   7.832
  168SOPE  H18Y19015   4.427   0.454   7.973
  168SOPE  H18Z19016   4.476   0.626   7.987
  169SOPE     N19017   1.054   2.986   5.595
  169SOPE   HN119018   1.140   3.017   5.546
  169SOPE   HN219019   1.070   2.892   5.637
  169SOPE   HN319020   0.977   2.974   5.527
  169SOPE   C1219021   1.013   3.078   5.708
  169SOPE  H12A19022   0.997   3.180   5.667
  169SOPE  H12B19023   1.096   3.080   5.782
  169SOPE   C1119024   0.883   3.030   5.773
  169SOPE  H11A19025   0.800   3.039   5.700
  169SOPE  H11B19026   0.861   3.099   5.858
  169SOPE     P19027   0.789   2.842   5.923
  169SOPE   O1319028   0.792   2.694   5.917
  169SOPE   O1419029   0.663   2.915   5.896
  169SOPE   O1219030   0.896   2.894   5.817
  169SOPE   O1119031   0.854   2.892   6.059
  169SOPE    C119032   0.997   2.888   6.068
  169SOPE    HA19033   1.042   2.975   6.015
  169SOPE    HB19034   1.038   2.796   6.019
  169SOPE    C219035   1.054   2.888   6.213
  169SOPE    HS19036   1.163   2.872   6.204
  169SOPE   O2119037   0.992   2.784   6.291
  169SOPE   C2119038   1.037   2.663   6.265
  169SOPE   O2219039   1.122   2.635   6.182
  169SOPE   C2219040   0.973   2.559   6.360
  169SOPE   H2R19041   1.056   2.497   6.401
  169SOPE   H2S19042   0.909   2.493   6.296
  169SOPE    C319043   1.038   3.026   6.284
  169SOPE    HX19044   1.024   3.103   6.205
  169SOPE    HY19045   1.137   3.049   6.329
  169SOPE   O3119046   0.928   3.036   6.379
  169SOPE   C3119047   0.964   3.064   6.504
  169SOPE   O3219048   1.075   3.050   6.550
  169SOPE   C3219049   0.846   3.120   6.584
  169SOPE   H2X19050   0.792   3.034   6.630
  169SOPE   H2Y19051   0.777   3.170   6.513
  169SOPE   C2319052   0.888   2.616   6.476
  169SOPE   H3R19053   0.839   2.531   6.529
  169SOPE   H3S19054   0.808   2.682   6.435
  169SOPE   C2419055   0.970   2.694   6.580
  169SOPE   H4R19056   1.054   2.633   6.618
  169SOPE   H4S19057   1.013   2.783   6.528
  169SOPE   C2519058   0.887   2.748   6.697
  169SOPE   H5R19059   0.936   2.841   6.735
  169SOPE   H5S19060   0.787   2.778   6.659
  169SOPE   C2619061   0.874   2.649   6.813
  169SOPE   H6R19062   0.769   2.654   6.851
  169SOPE   H6S19063   0.893   2.546   6.777
  169SOPE   C2719064   0.966   2.682   6.932
  169SOPE   H7R19065   1.070   2.693   6.896
  169SOPE   H7S19066   0.935   2.779   6.976
  169SOPE   C2819067   0.965   2.572   7.040
  169SOPE   H8R19068   0.858   2.548   7.061
  169SOPE   H8S19069   1.011   2.481   6.997
  169SOPE   C2919070   1.039   2.613   7.165
  169SOPE   H9119071   1.133   2.667   7.147
  169SOPE  C21019072   1.001   2.588   7.291
  169SOPE  H10119073   1.064   2.623   7.375
  169SOPE  C21119074   0.876   2.514   7.330
  169SOPE  H11R19075   0.898   2.405   7.331
  169SOPE  H11S19076   0.795   2.529   7.256
  169SOPE  C21219077   0.819   2.550   7.469
  169SOPE  H12R19078   0.708   2.550   7.460
  169SOPE  H12S19079   0.849   2.652   7.503
  169SOPE  C21319080   0.856   2.443   7.571
  169SOPE  H13R19081   0.963   2.447   7.599
  169SOPE  H13S19082   0.837   2.347   7.519
  169SOPE  C21419083   0.764   2.442   7.693
  169SOPE  H14R19084   0.760   2.338   7.732
  169SOPE  H14S19085   0.663   2.469   7.658
  169SOPE  C21519086   0.807   2.535   7.806
  169SOPE  H15R19087   0.778   2.639   7.779
  169SOPE  H15S19088   0.918   2.534   7.814
  169SOPE  C21619089   0.751   2.500   7.946
  169SOPE  H16R19090   0.733   2.595   8.000
  169SOPE  H16S19091   0.830   2.446   8.001
  169SOPE  C21719092   0.624   2.413   7.954
  169SOPE  H17R19093   0.588   2.418   8.059
  169SOPE  H17S19094   0.649   2.306   7.933
  169SOPE  C21819095   0.502   2.452   7.870
  169SOPE  H18R19096   0.409   2.415   7.918
  169SOPE  H18S19097   0.508   2.412   7.767
  169SOPE  H18T19098   0.495   2.562   7.862
  169SOPE   C3319099   0.897   3.218   6.693
  169SOPE   H3X19100   0.984   3.276   6.654
  169SOPE   H3Y19101   0.933   3.158   6.778
  169SOPE   C3419102   0.795   3.323   6.743
  169SOPE   H4X19103   0.805   3.416   6.682
  169SOPE   H4Y19104   0.820   3.350   6.847
  169SOPE   C3519105   0.650   3.276   6.735
  169SOPE   H5X19106   0.647   3.167   6.758
  169SOPE   H5Y19107   0.616   3.288   6.630
  169SOPE   C3619108   0.551   3.349   6.828
  169SOPE   H6X19109   0.454   3.353   6.775
  169SOPE   H6Y19110   0.586   3.454   6.844
  169SOPE   C3719111   0.527   3.282   6.964
  169SOPE   H7X19112   0.563   3.352   7.042
  169SOPE   H7Y19113   0.590   3.191   6.973
  169SOPE   C3819114   0.379   3.246   6.995
  169SOPE   H8X19115   0.312   3.317   6.942
  169SOPE   H8Y19116   0.349   3.147   6.954
  169SOPE   C3919117   0.347   3.248   7.144
  169SOPE   H9X19118   0.238   3.268   7.158
  169SOPE   H9Y19119   0.404   3.333   7.187
  169SOPE  C31019120   0.384   3.123   7.225
  169SOPE  H10X19121   0.491   3.100   7.210
  169SOPE  H10Y19122   0.325   3.037   7.188
  169SOPE  C31119123   0.360   3.145   7.374
  169SOPE  H11X19124   0.354   3.048   7.427
  169SOPE  H11Y19125   0.261   3.195   7.388
  169SOPE  C31219126   0.470   3.231   7.437
  169SOPE  H12X19127   0.482   3.322   7.376
  169SOPE  H12Y19128   0.567   3.178   7.435
  169SOPE  C31319129   0.435   3.278   7.578
  169SOPE  H13X19130   0.326   3.297   7.584
  169SOPE  H13Y19131   0.487   3.375   7.593
  169SOPE  C31419132   0.476   3.189   7.694
  169SOPE  H14X19133   0.560   3.122   7.664
  169SOPE  H14Y19134   0.391   3.122   7.721
  169SOPE  C31519135   0.519   3.275   7.814
  169SOPE  H15X19136   0.444   3.356   7.831
  169SOPE  H15Y19137   0.614   3.327   7.788
  169SOPE  C31619138   0.536   3.195   7.942
  169SOPE  H16X19139   0.541   3.088   7.911
  169SOPE  H16Y19140   0.448   3.208   8.009
  169SOPE  C31719141   0.664   3.227   8.019
  169SOPE  H17X19142   0.659   3.328   8.065
  169SOPE  H17Y19143   0.745   3.230   7.943
  169SOPE  C31819144   0.698   3.122   8.124
  169SOPE  H18X19145   0.629   3.128   8.211
  169SOPE  H18Y19146   0.803   3.134   8.160
  169SOPE  H18Z19147   0.690   3.020   8.079
  170SOPE     N19148   2.241   6.370   5.555
  170SOPE   HN119149   2.146   6.379   5.595
  170SOPE   HN219150   2.252   6.437   5.477
  170SOPE   HN319151   2.251   6.271   5.525
  170SOPE   C1219152   2.324   6.399   5.677
  170SOPE  H12A19153   2.404   6.471   5.652
  170SOPE  H12B19154   2.368   6.303   5.711
  170SOPE   C1119155   2.228   6.453   5.785
  170SOPE  H11A19156   2.213   6.562   5.767
  170SOPE  H11B19157   2.275   6.444   5.885
  170SOPE     P19158   2.035   6.293   5.882
  170SOPE   O1319159   2.028   6.159   5.816
  170SOPE   O1419160   1.909   6.354   5.927
  170SOPE   O1219161   2.101   6.389   5.775
  170SOPE   O1119162   2.140   6.291   5.999
  170SOPE    C119163   2.236   6.185   6.005
  170SOPE    HA19164   2.299   6.182   5.913
  170SOPE    HB19165   2.185   6.087   6.013
  170SOPE    C219166   2.331   6.197   6.128
  170SOPE    HS19167   2.385   6.100   6.138
  170SOPE   O2119168   2.259   6.228   6.247
  170SOPE   C2119169   2.185   6.132   6.296
  170SOPE   O2219170   2.170   6.020   6.249
  170SOPE   C2219171   2.128   6.178   6.429
  170SOPE   H2R19172   2.026   6.220   6.410
  170SOPE   H2S19173   2.192   6.258   6.472
  170SOPE    C319174   2.441   6.307   6.111
  170SOPE    HX19175   2.489   6.291   6.012
  170SOPE    HY19176   2.519   6.285   6.187
  170SOPE   O3119177   2.394   6.443   6.119
  170SOPE   C3119178   2.385   6.490   6.245
  170SOPE   O3219179   2.425   6.433   6.345
  170SOPE   C3219180   2.328   6.632   6.243
  170SOPE   H2X19181   2.246   6.636   6.168
  170SOPE   H2Y19182   2.409   6.700   6.211
  170SOPE   C2319183   2.121   6.059   6.526
  170SOPE   H3R19184   2.223   6.024   6.552
  170SOPE   H3S19185   2.071   5.976   6.473
  170SOPE   C2419186   2.040   6.087   6.653
  170SOPE   H4R19187   1.950   6.147   6.629
  170SOPE   H4S19188   2.006   5.989   6.692
  170SOPE   C2519189   2.117   6.150   6.769
  170SOPE   H5R19190   2.149   6.254   6.745
  170SOPE   H5S19191   2.045   6.152   6.854
  170SOPE   C2619192   2.234   6.067   6.821
  170SOPE   H6R19193   2.197   5.963   6.830
  170SOPE   H6S19194   2.318   6.071   6.749
  170SOPE   C2719195   2.284   6.109   6.959
  170SOPE   H7R19196   2.198   6.122   7.029
  170SOPE   H7S19197   2.344   6.023   6.997
  170SOPE   C2819198   2.371   6.237   6.959
  170SOPE   H8R19199   2.421   6.245   6.860
  170SOPE   H8S19200   2.305   6.326   6.968
  170SOPE   C2919201   2.476   6.233   7.067
  170SOPE   H9119202   2.579   6.223   7.031
  170SOPE  C21019203   2.453   6.238   7.199
  170SOPE  H10119204   2.538   6.226   7.267
  170SOPE  C21119205   2.319   6.250   7.267
  170SOPE  H11R19206   2.243   6.290   7.196
  170SOPE  H11S19207   2.322   6.323   7.351
  170SOPE  C21219208   2.269   6.115   7.320
  170SOPE  H12R19209   2.270   6.043   7.235
  170SOPE  H12S19210   2.162   6.123   7.349
  170SOPE  C21319211   2.346   6.053   7.438
  170SOPE  H13R19212   2.455   6.063   7.422
  170SOPE  H13S19213   2.319   5.945   7.431
  170SOPE  C21419214   2.309   6.094   7.582
  170SOPE  H14R19215   2.199   6.089   7.595
  170SOPE  H14S19216   2.342   6.198   7.604
  170SOPE  C21519217   2.369   5.993   7.681
  170SOPE  H15R19218   2.480   6.001   7.682
  170SOPE  H15S19219   2.343   5.893   7.640
  170SOPE  C21619220   2.314   5.990   7.824
  170SOPE  H16R19221   2.204   6.011   7.822
  170SOPE  H16S19222   2.362   6.069   7.885
  170SOPE  C21719223   2.337   5.851   7.885
  170SOPE  H17R19224   2.445   5.829   7.879
  170SOPE  H17S19225   2.285   5.775   7.822
  170SOPE  C21819226   2.291   5.834   8.030
  170SOPE  H18R19227   2.330   5.739   8.073
  170SOPE  H18S19228   2.180   5.831   8.036
  170SOPE  H18T19229   2.327   5.919   8.092
  170SOPE   C3319230   2.274   6.674   6.381
  170SOPE   H3X19231   2.256   6.784   6.381
  170SOPE   H3Y19232   2.348   6.653   6.461
  170SOPE   C3419233   2.140   6.605   6.413
  170SOPE   H4X19234   2.118   6.531   6.334
  170SOPE   H4Y19235   2.059   6.681   6.411
  170SOPE   C3519236   2.137   6.534   6.549
  170SOPE   H5X19237   2.231   6.475   6.563
  170SOPE   H5Y19238   2.053   6.461   6.544
  170SOPE   C3619239   2.115   6.631   6.666
  170SOPE   H6X19240   2.026   6.693   6.646
  170SOPE   H6Y19241   2.204   6.698   6.669
  170SOPE   C3719242   2.097   6.562   6.802
  170SOPE   H7X19243   2.096   6.637   6.883
  170SOPE   H7Y19244   2.185   6.495   6.819
  170SOPE   C3819245   1.968   6.479   6.809
  170SOPE   H8X19246   1.962   6.418   6.717
  170SOPE   H8Y19247   1.878   6.544   6.808
  170SOPE   C3919248   1.965   6.377   6.924
  170SOPE   H9X19249   2.068   6.340   6.945
  170SOPE   H9Y19250   1.904   6.294   6.884
  170SOPE  C31019251   1.900   6.415   7.056
  170SOPE  H10X19252   1.804   6.468   7.034
  170SOPE  H10Y19253   1.963   6.483   7.116
  170SOPE  C31119254   1.862   6.287   7.132
  170SOPE  H11X19255   1.849   6.200   7.063
  170SOPE  H11Y19256   1.762   6.306   7.175
  170SOPE  C31219257   1.951   6.249   7.249
  170SOPE  H12X19258   1.972   6.341   7.308
  170SOPE  H12Y19259   2.047   6.211   7.207
  170SOPE  C31319260   1.886   6.144   7.341
  170SOPE  H13X19261   1.909   6.042   7.304
  170SOPE  H13Y19262   1.776   6.156   7.337
  170SOPE  C31419263   1.930   6.158   7.488
  170SOPE  H14X19264   1.914   6.263   7.521
  170SOPE  H14Y19265   2.039   6.141   7.494
  170SOPE  C31519266   1.862   6.062   7.586
  170SOPE  H15X19267   1.845   5.963   7.538
  170SOPE  H15Y19268   1.763   6.103   7.615
  170SOPE  C31619269   1.948   6.040   7.712
  170SOPE  H16X19270   2.011   6.130   7.731
  170SOPE  H16Y19271   2.017   5.955   7.694
  170SOPE  C31719272   1.867   6.014   7.840
  170SOPE  H17X19273   1.787   5.940   7.817
  170SOPE  H17Y19274   1.817   6.108   7.870
  170SOPE  C31819275   1.949   5.959   7.956
  170SOPE  H18X19276   1.886   5.950   8.047
  170SOPE  H18Y19277   2.035   6.025   7.978
  170SOPE  H18Z19278   1.988   5.858   7.930
  171SOPE     N19279   6.933   4.955   5.639
  171SOPE   HN119280   6.904   5.052   5.616
  171SOPE   HN219281   7.032   4.962   5.670
  171SOPE   HN319282   6.930   4.893   5.556
  171SOPE   C1219283   6.853   4.901   5.754
  171SOPE  H12A19284   6.877   4.793   5.763
  171SOPE  H12B19285   6.745   4.913   5.731
  171SOPE   C1119286   6.891   4.975   5.883
  171SOPE  H11A19287   6.849   4.922   5.971
  171SOPE  H11B19288   6.842   5.075   5.882
  171SOPE     P19289   7.129   4.881   5.947
  171SOPE   O1319290   7.266   4.921   5.904
  171SOPE   O1419291   7.080   4.752   5.896
  171SOPE   O1219292   7.033   4.994   5.894
  171SOPE   O1119293   7.117   4.889   6.104
  171SOPE    C119294   7.047   4.992   6.173
  171SOPE    HA19295   6.946   4.955   6.203
  171SOPE    HB19296   7.032   5.083   6.111
  171SOPE    C219297   7.124   5.035   6.300
  171SOPE    HS19298   7.227   5.062   6.267
  171SOPE   O2119299   7.123   4.925   6.393
  171SOPE   C2119300   7.234   4.913   6.463
  171SOPE   O2219301   7.340   4.969   6.442
  171SOPE   C2219302   7.209   4.820   6.582
  171SOPE   H2R19303   7.297   4.830   6.649
  171SOPE   H2S19304   7.204   4.716   6.544
  171SOPE    C319305   7.058   5.159   6.365
  171SOPE    HX19306   6.949   5.138   6.366
  171SOPE    HY19307   7.077   5.247   6.301
  171SOPE   O3119308   7.104   5.179   6.501
  171SOPE   C3119309   7.054   5.286   6.559
  171SOPE   O3219310   6.991   5.375   6.504
  171SOPE   C3219311   7.085   5.280   6.708
  171SOPE   H2X19312   7.188   5.320   6.720
  171SOPE   H2Y19313   7.086   5.173   6.739
  171SOPE   C2319314   7.080   4.857   6.659
  171SOPE   H3R19315   6.992   4.834   6.595
  171SOPE   H3S19316   7.078   4.966   6.680
  171SOPE   C2419317   7.069   4.781   6.791
  171SOPE   H4R19318   7.077   4.672   6.770
  171SOPE   H4S19319   7.155   4.808   6.856
  171SOPE   C2519320   6.937   4.807   6.865
  171SOPE   H5R19321   6.935   4.911   6.904
  171SOPE   H5S19322   6.855   4.798   6.790
  171SOPE   C2619323   6.912   4.707   6.978
  171SOPE   H6R19324   6.808   4.717   7.015
  171SOPE   H6S19325   6.922   4.604   6.936
  171SOPE   C2719326   7.007   4.722   7.097
  171SOPE   H7R19327   7.110   4.745   7.060
  171SOPE   H7S19328   6.975   4.807   7.160
  171SOPE   C2819329   7.018   4.593   7.182
  171SOPE   H8R19330   7.058   4.512   7.118
  171SOPE   H8S19331   7.094   4.611   7.261
  171SOPE   C2919332   6.886   4.550   7.242
  171SOPE   H9119333   6.828   4.478   7.182
  171SOPE  C21019334   6.836   4.595   7.358
  171SOPE  H10119335   6.738   4.559   7.393
  171SOPE  C21119336   6.904   4.696   7.446
  171SOPE  H11R19337   6.893   4.795   7.399
  171SOPE  H11S19338   7.014   4.676   7.454
  171SOPE  C21219339   6.847   4.700   7.589
  171SOPE  H12R19340   6.737   4.716   7.585
  171SOPE  H12S19341   6.890   4.789   7.641
  171SOPE  C21319342   6.879   4.575   7.672
  171SOPE  H13R19343   6.989   4.563   7.675
  171SOPE  H13S19344   6.836   4.486   7.622
  171SOPE  C21419345   6.826   4.582   7.816
  171SOPE  H14R19346   6.856   4.487   7.867
  171SOPE  H14S19347   6.715   4.587   7.816
  171SOPE  C21519348   6.882   4.700   7.897
  171SOPE  H15R19349   6.813   4.787   7.887
  171SOPE  H15S19350   6.980   4.730   7.853
  171SOPE  C21619351   6.906   4.669   8.045
  171SOPE  H16R19352   6.970   4.748   8.089
  171SOPE  H16S19353   6.962   4.573   8.052
  171SOPE  C21719354   6.778   4.660   8.128
  171SOPE  H17R19355   6.700   4.606   8.070
  171SOPE  H17S19356   6.740   4.762   8.146
  171SOPE  C21819357   6.799   4.588   8.262
  171SOPE  H18R19358   6.722   4.618   8.335
  171SOPE  H18S19359   6.899   4.612   8.304
  171SOPE  H18T19360   6.793   4.478   8.247
  171SOPE   C3319361   6.986   5.359   6.796
  171SOPE   H3X19362   6.887   5.307   6.798
  171SOPE   H3Y19363   6.970   5.460   6.754
  171SOPE   C3419364   7.034   5.376   6.941
  171SOPE   H4X19365   6.955   5.428   7.000
  171SOPE   H4Y19366   7.120   5.446   6.939
  171SOPE   C3519367   7.080   5.248   7.014
  171SOPE   H5X19368   7.148   5.279   7.096
  171SOPE   H5Y19369   7.139   5.183   6.947
  171SOPE   C3619370   6.968   5.167   7.082
  171SOPE   H6X19371   7.016   5.081   7.133
  171SOPE   H6Y19372   6.898   5.126   7.006
  171SOPE   C3719373   6.891   5.250   7.185
  171SOPE   H7X19374   6.811   5.305   7.132
  171SOPE   H7Y19375   6.959   5.326   7.230
  171SOPE   C3819376   6.833   5.166   7.300
  171SOPE   H8X19377   6.822   5.060   7.267
  171SOPE   H8Y19378   6.732   5.203   7.326
  171SOPE   C3919379   6.920   5.175   7.426
  171SOPE   H9X19380   6.912   5.278   7.469
  171SOPE   H9Y19381   7.026   5.160   7.395
  171SOPE  C31019382   6.884   5.073   7.533
  171SOPE  H10X19383   6.868   4.975   7.483
  171SOPE  H10Y19384   6.788   5.100   7.583
  171SOPE  C31119385   6.996   5.058   7.637
  171SOPE  H11X19386   7.094   5.054   7.585
  171SOPE  H11Y19387   6.986   4.962   7.692
  171SOPE  C31219388   6.995   5.172   7.739
  171SOPE  H12X19389   6.915   5.244   7.712
  171SOPE  H12Y19390   7.094   5.223   7.730
  171SOPE  C31319391   6.975   5.130   7.884
  171SOPE  H13X19392   6.981   5.219   7.950
  171SOPE  H13Y19393   7.060   5.064   7.912
  171SOPE  C31419394   6.844   5.053   7.911
  171SOPE  H14X19395   6.867   4.982   7.993
  171SOPE  H14Y19396   6.815   4.992   7.823
  171SOPE  C31519397   6.723   5.137   7.956
  171SOPE  H15X19398   6.653   5.148   7.871
  171SOPE  H15Y19399   6.756   5.239   7.986
  171SOPE  C31619400   6.655   5.069   8.076
  171SOPE  H16X19401   6.728   5.062   8.160
  171SOPE  H16Y19402   6.631   4.965   8.046
  171SOPE  C31719403   6.528   5.136   8.130
  171SOPE  H17X19404   6.555   5.238   8.166
  171SOPE  H17Y19405   6.493   5.080   8.219
  171SOPE  C31819406   6.412   5.145   8.031
  171SOPE  H18X19407   6.443   5.111   7.929
  171SOPE  H18Y19408   6.373   5.248   8.023
  171SOPE  H18Z19409   6.328   5.081   8.066
  172SOPE     N19410   1.773   0.375   5.698
  172SOPE   HN119411   1.830   0.413   5.619
  172SOPE   HN219412   1.692   0.439   5.715
  172SOPE   HN319413   1.830   0.375   5.785
  172SOPE   C1219414   1.728   0.233   5.674
  172SOPE  H12A19415   1.810   0.179   5.622
  172SOPE  H12B19416   1.640   0.237   5.606
  172SOPE   C1119417   1.694   0.162   5.806
  172SOPE  H11A19418   1.624   0.079   5.782
  172SOPE  H11B19419   1.640   0.229   5.877
  172SOPE     P19420   1.914   0.186   5.951
  172SOPE   O1319421   1.887   0.329   5.927
  172SOPE   O1419422   2.049   0.138   5.913
  172SOPE   O1219423   1.809   0.103   5.867
  172SOPE   O1119424   1.885   0.147   6.101
  172SOPE    C119425   1.786   0.052   6.139
  172SOPE    HA19426   1.813  -0.049   6.102
  172SOPE    HB19427   1.686   0.080   6.099
  172SOPE    C219428   1.775   0.047   6.294
  172SOPE    HS19429   1.736   0.146   6.325
  172SOPE   O2119430   1.905   0.016   6.348
  172SOPE   C2119431   1.947   0.101   6.441
  172SOPE   O2219432   1.890   0.202   6.476
  172SOPE   C2219433   2.076   0.045   6.501
  172SOPE   H2R19434   2.145   0.021   6.417
  172SOPE   H2S19435   2.047  -0.050   6.551
  172SOPE    C319436   1.674  -0.061   6.343
  172SOPE    HX19437   1.706  -0.157   6.297
  172SOPE    HY19438   1.573  -0.038   6.303
  172SOPE   O3119439   1.676  -0.076   6.487
  172SOPE   C3119440   1.601   0.013   6.552
  172SOPE   O3219441   1.532   0.098   6.500
  172SOPE   C3219442   1.609  -0.017   6.702
  172SOPE   H2X19443   1.709   0.009   6.740
  172SOPE   H2Y19444   1.596  -0.126   6.715
  172SOPE   C2319445   2.150   0.135   6.604
  172SOPE   H3R19446   2.102   0.236   6.611
  172SOPE   H3S19447   2.253   0.153   6.566
  172SOPE   C2419448   2.161   0.074   6.744
  172SOPE   H4R19449   2.219  -0.020   6.735
  172SOPE   H4S19450   2.219   0.142   6.809
  172SOPE   C2519451   2.028   0.041   6.815
  172SOPE   H5R19452   1.959  -0.015   6.747
  172SOPE   H5S19453   2.052  -0.028   6.898
  172SOPE   C2619454   1.954   0.161   6.876
  172SOPE   H6R19455   1.882   0.122   6.950
  172SOPE   H6S19456   2.026   0.226   6.932
  172SOPE   C2719457   1.874   0.245   6.776
  172SOPE   H7R19458   1.941   0.308   6.714
  172SOPE   H7S19459   1.823   0.175   6.706
  172SOPE   C2819460   1.764   0.331   6.840
  172SOPE   H8R19461   1.695   0.364   6.759
  172SOPE   H8S19462   1.704   0.268   6.908
  172SOPE   C2919463   1.822   0.453   6.907
  172SOPE   H9119464   1.868   0.525   6.838
  172SOPE  C21019465   1.824   0.479   7.039
  172SOPE  H10119466   1.873   0.572   7.073
  172SOPE  C21119467   1.768   0.393   7.150
  172SOPE  H11R19468   1.692   0.321   7.114
  172SOPE  H11S19469   1.718   0.458   7.225
  172SOPE  C21219470   1.882   0.316   7.218
  172SOPE  H12R19471   1.967   0.384   7.238
  172SOPE  H12S19472   1.919   0.236   7.150
  172SOPE  C21319473   1.842   0.252   7.352
  172SOPE  H13R19474   1.809   0.331   7.423
  172SOPE  H13S19475   1.933   0.202   7.392
  172SOPE  C21419476   1.731   0.148   7.345
  172SOPE  H14R19477   1.738   0.100   7.245
  172SOPE  H14S19478   1.631   0.198   7.349
  172SOPE  C21519479   1.744   0.041   7.455
  172SOPE  H15R19480   1.841  -0.012   7.440
  172SOPE  H15S19481   1.663  -0.034   7.445
  172SOPE  C21619482   1.747   0.096   7.597
  172SOPE  H16R19483   1.827   0.173   7.605
  172SOPE  H16S19484   1.774   0.014   7.667
  172SOPE  C21719485   1.613   0.157   7.641
  172SOPE  H17R19486   1.557   0.082   7.701
  172SOPE  H17S19487   1.551   0.180   7.552
  172SOPE  C21819488   1.634   0.284   7.721
  172SOPE  H18R19489   1.541   0.308   7.778
  172SOPE  H18S19490   1.658   0.369   7.654
  172SOPE  H18T19491   1.717   0.273   7.794
  172SOPE   C3319492   1.499   0.057   6.782
  172SOPE   H3X19493   1.404   0.049   6.725
  172SOPE   H3Y19494   1.521   0.165   6.795
  172SOPE   C3419495   1.471  -0.011   6.917
  172SOPE   H4X19496   1.483  -0.120   6.901
  172SOPE   H4Y19497   1.366   0.008   6.948
  172SOPE   C3519498   1.563   0.029   7.032
  172SOPE   H5X19499   1.524   0.122   7.079
  172SOPE   H5Y19500   1.665   0.051   6.994
  172SOPE   C3619501   1.568  -0.085   7.134
  172SOPE   H6X19502   1.472  -0.140   7.131
  172SOPE   H6Y19503   1.578  -0.044   7.238
  172SOPE   C3719504   1.684  -0.182   7.108
  172SOPE   H7X19505   1.684  -0.212   7.001
  172SOPE   H7Y19506   1.664  -0.273   7.168
  172SOPE   C3819507   1.821  -0.127   7.149
  172SOPE   H8X19508   1.816  -0.101   7.256
  172SOPE   H8Y19509   1.843  -0.035   7.091
  172SOPE   C3919510   1.938  -0.223   7.134
  172SOPE   H9X19511   1.944  -0.258   7.029
  172SOPE   H9Y19512   1.922  -0.313   7.198
  172SOPE  C31019513   2.071  -0.157   7.172
  172SOPE  H10X19514   2.087  -0.062   7.117
  172SOPE  H10Y19515   2.152  -0.228   7.142
  172SOPE  C31119516   2.095  -0.137   7.322
  172SOPE  H11X19517   2.049  -0.221   7.378
  172SOPE  H11Y19518   2.046  -0.042   7.356
  172SOPE  C31219519   2.245  -0.135   7.353
  172SOPE  H12X19520   2.292  -0.044   7.309
  172SOPE  H12Y19521   2.292  -0.223   7.305
  172SOPE  C31319522   2.276  -0.143   7.503
  172SOPE  H13X19523   2.385  -0.160   7.517
  172SOPE  H13Y19524   2.222  -0.231   7.544
  172SOPE  C31419525   2.234  -0.019   7.582
  172SOPE  H14X19526   2.128   0.005   7.561
  172SOPE  H14Y19527   2.296   0.066   7.546
  172SOPE  C31519528   2.252  -0.040   7.733
  172SOPE  H15X19529   2.359  -0.059   7.754
  172SOPE  H15Y19530   2.195  -0.130   7.764
  172SOPE  C31619531   2.205   0.080   7.816
  172SOPE  H16X19532   2.218   0.057   7.923
  172SOPE  H16Y19533   2.097   0.099   7.797
  172SOPE  C31719534   2.285   0.206   7.782
  172SOPE  H17X19535   2.264   0.236   7.677
  172SOPE  H17Y19536   2.392   0.178   7.786
  172SOPE  C31819537   2.261   0.325   7.875
  172SOPE  H18X19538   2.284   0.297   7.980
  172SOPE  H18Y19539   2.156   0.359   7.871
  172SOPE  H18Z19540   2.327   0.409   7.846
  173SAPI   C1219541   2.788   5.318  10.336
  173SAPI    H219542   2.717   5.391  10.292
  173SAPI    O219543   2.906   5.318  10.257
  173SAPI   HO219544   2.890   5.248  10.193
  173SAPI   C1319545   2.818   5.357  10.479
  173SAPI    H319546   2.722   5.359  10.535
  173SAPI    O319547   2.870   5.491  10.484
  173SAPI   HO319548   2.874   5.522  10.393
  173SAPI   C1419549   2.907   5.253  10.546
  173SAPI    H419550   3.004   5.247  10.491
  173SAPI    O419551   2.937   5.291  10.681
  173SAPI   HO419552   3.030   5.316  10.685
  173SAPI   C1519553   2.841   5.115  10.539
  173SAPI    H519554   2.746   5.120  10.596
  173SAPI    O519555   2.921   5.013  10.600
  173SAPI   HO519556   2.887   4.930  10.563
  173SAPI   C1619557   2.810   5.076  10.396
  173SAPI    H619558   2.905   5.065  10.339
  173SAPI    O619559   2.742   4.950  10.393
  173SAPI   HO619560   2.670   4.957  10.329
  173SAPI   C1119561   2.723   5.181  10.331
  173SAPI    H119562   2.628   5.188  10.389
  173SAPI     P19563   2.549   5.113  10.140
  173SAPI   O1319564   2.468   5.236  10.141
  173SAPI   O1419565   2.504   4.997  10.221
  173SAPI   O1219566   2.700   5.151  10.193
  173SAPI   O1119567   2.582   5.069   9.993
  173SAPI    C119568   2.648   4.946   9.963
  173SAPI    HA19569   2.731   4.926  10.034
  173SAPI    HB19570   2.575   4.862   9.972
  173SAPI    C219571   2.707   4.946   9.818
  173SAPI    HS19572   2.779   4.861   9.811
  173SAPI   O2119573   2.772   5.069   9.786
  173SAPI   C2119574   2.842   5.129   9.879
  173SAPI   O2219575   2.921   5.076   9.955
  173SAPI   C2219576   2.819   5.281   9.873
  173SAPI   H2R19577   2.756   5.304   9.962
  173SAPI   H2S19578   2.917   5.332   9.887
  173SAPI    C319579   2.598   4.924   9.708
  173SAPI    HX19580   2.538   4.833   9.730
  173SAPI    HY19581   2.652   4.906   9.613
  173SAPI   O3119582   2.518   5.043   9.691
  173SAPI   C3119583   2.409   5.049   9.768
  173SAPI   O3219584   2.355   4.953   9.819
  173SAPI   C3219585   2.379   5.197   9.799
  173SAPI   H2X19586   2.476   5.250   9.808
  173SAPI   H2Y19587   2.332   5.198   9.899
  173SAPI   C2319588   2.745   5.334   9.747
  173SAPI   H3R19589   2.701   5.432   9.775
  173SAPI   H3S19590   2.659   5.269   9.721
  173SAPI   C2419591   2.832   5.355   9.622
  173SAPI   H4R19592   2.921   5.415   9.652
  173SAPI   H4S19593   2.772   5.419   9.554
  173SAPI   C2519594   2.874   5.228   9.553
  173SAPI   H5R19595   2.934   5.159   9.614
  173SAPI   C2619596   2.837   5.187   9.430
  173SAPI   H6R19597   2.870   5.087   9.396
  173SAPI   C2719598   2.746   5.256   9.333
  173SAPI   H7R19599   2.696   5.345   9.378
  173SAPI   H7S19600   2.663   5.185   9.314
  173SAPI   C2819601   2.805   5.296   9.200
  173SAPI   H8R19602   2.846   5.398   9.195
  173SAPI   C2919603   2.807   5.220   9.089
  173SAPI   H9R19604   2.851   5.261   8.997
  173SAPI  C21019605   2.751   5.079   9.077
  173SAPI  H10R19606   2.641   5.085   9.068
  173SAPI  H10S19607   2.770   5.023   9.171
  173SAPI  C21119608   2.804   5.000   8.960
  173SAPI  H11R19609   2.873   4.918   8.986
  173SAPI  C21219610   2.776   5.021   8.830
  173SAPI  H12R19611   2.823   4.956   8.755
  173SAPI  C21319612   2.686   5.129   8.775
  173SAPI  H13R19613   2.628   5.179   8.856
  173SAPI  H13S19614   2.609   5.082   8.710
  173SAPI  C21419615   2.761   5.233   8.697
  173SAPI  H14R19616   2.774   5.330   8.748
  173SAPI  C21519617   2.813   5.217   8.574
  173SAPI  H15R19618   2.866   5.302   8.528
  173SAPI  C21619619   2.807   5.092   8.490
  173SAPI  H16R19620   2.762   5.116   8.391
  173SAPI  H16S19621   2.742   5.015   8.536
  173SAPI  C21719622   2.946   5.030   8.469
  173SAPI  H17R19623   2.935   4.942   8.401
  173SAPI  H17S19624   2.985   4.992   8.566
  173SAPI  C21819625   3.050   5.125   8.408
  173SAPI  H18R19626   3.145   5.070   8.389
  173SAPI  H18S19627   3.072   5.204   8.483
  173SAPI  C21919628   3.002   5.191   8.278
  173SAPI  H19R19629   2.911   5.250   8.302
  173SAPI  H19S19630   2.972   5.111   8.207
  173SAPI  C22019631   3.103   5.284   8.211
  173SAPI  H20R19632   3.198   5.230   8.189
  173SAPI  H20S19633   3.124   5.370   8.277
  173SAPI  H20T19634   3.062   5.325   8.116
  173SAPI   C3319635   2.286   5.271   9.700
  173SAPI   H3X19636   2.293   5.380   9.719
  173SAPI   H3Y19637   2.182   5.241   9.725
  173SAPI   C3419638   2.305   5.245   9.550
  173SAPI   H4X19639   2.224   5.302   9.500
  173SAPI   H4Y19640   2.289   5.136   9.530
  173SAPI   C3519641   2.433   5.289   9.478
  173SAPI   H5X19642   2.517   5.223   9.507
  173SAPI   H5Y19643   2.457   5.393   9.510
  173SAPI   C3619644   2.413   5.287   9.324
  173SAPI   H6X19645   2.499   5.336   9.274
  173SAPI   H6Y19646   2.324   5.349   9.299
  173SAPI   C3719647   2.392   5.147   9.263
  173SAPI   H7X19648   2.302   5.100   9.308
  173SAPI   H7Y19649   2.478   5.082   9.289
  173SAPI   C3819650   2.376   5.149   9.110
  173SAPI   H8X19651   2.465   5.197   9.064
  173SAPI   H8Y19652   2.288   5.213   9.082
  173SAPI   C3919653   2.356   5.008   9.050
  173SAPI   H9X19654   2.263   4.964   9.091
  173SAPI   H9Y19655   2.440   4.944   9.083
  173SAPI  C31019656   2.350   5.005   8.896
  173SAPI  H10X19657   2.441   5.056   8.858
  173SAPI  H10Y19658   2.262   5.062   8.859
  173SAPI  C31119659   2.348   4.862   8.839
  173SAPI  H11X19660   2.248   4.816   8.854
  173SAPI  H11Y19661   2.420   4.801   8.898
  173SAPI  C31219662   2.390   4.852   8.691
  173SAPI  H12X19663   2.401   4.744   8.665
  173SAPI  H12Y19664   2.489   4.899   8.679
  173SAPI  C31319665   2.290   4.915   8.592
  173SAPI  H13X19666   2.274   5.022   8.619
  173SAPI  H13Y19667   2.193   4.863   8.602
  173SAPI  C31419668   2.336   4.907   8.445
  173SAPI  H14X19669   2.256   4.953   8.382
  173SAPI  H14Y19670   2.347   4.801   8.414
  173SAPI  C31519671   2.468   4.982   8.418
  173SAPI  H15X19672   2.553   4.923   8.459
  173SAPI  H15Y19673   2.464   5.078   8.475
  173SAPI  C31619674   2.492   5.015   8.270
  173SAPI  H16X19675   2.569   5.095   8.265
  173SAPI  H16Y19676   2.399   5.055   8.225
  173SAPI  C31719677   2.544   4.897   8.187
  173SAPI  H17X19678   2.473   4.811   8.196
  173SAPI  H17Y19679   2.641   4.865   8.228
  173SAPI  C31819680   2.561   4.933   8.039
  173SAPI  H18X19681   2.463   4.952   7.992
  173SAPI  H18Y19682   2.612   4.850   7.984
  173SAPI  H18Z19683   2.623   5.025   8.029
  174SAPI   C1219684   4.306   6.209  10.415
  174SAPI    H219685   4.280   6.294  10.348
  174SAPI    O219686   4.445   6.217  10.444
  174SAPI   HO219687   4.484   6.183  10.364
  174SAPI   C1319688   4.221   6.219  10.541
  174SAPI    H319689   4.115   6.216  10.509
  174SAPI    O319690   4.241   6.341  10.613
  174SAPI   HO319691   4.223   6.416  10.555
  174SAPI   C1419692   4.247   6.099  10.631
  174SAPI    H419693   4.354   6.100  10.661
  174SAPI    O419694   4.170   6.111  10.751
  174SAPI   HO419695   4.132   6.199  10.747
  174SAPI   C1519696   4.220   5.968  10.557
  174SAPI    H519697   4.113   5.968  10.526
  174SAPI    O519698   4.240   5.852  10.638
  174SAPI   HO519699   4.241   5.780  10.575
  174SAPI   C1619700   4.305   5.960  10.430
  174SAPI    H619701   4.412   5.960  10.460
  174SAPI    O619702   4.280   5.836  10.364
  174SAPI   HO619703   4.255   5.854  10.273
  174SAPI   C1119704   4.278   6.079  10.340
  174SAPI    H119705   4.170   6.081  10.315
  174SAPI     P19706   4.295   6.027  10.078
  174SAPI   O1319707   4.206   6.130  10.023
  174SAPI   O1419708   4.241   5.892  10.107
  174SAPI   O1219709   4.360   6.081  10.221
  174SAPI   O1119710   4.425   6.011   9.989
  174SAPI    C119711   4.527   5.922  10.035
  174SAPI    HA19712   4.597   5.979  10.100
  174SAPI    HB19713   4.487   5.838  10.096
  174SAPI    C219714   4.609   5.857   9.919
  174SAPI    HS19715   4.702   5.816   9.963
  174SAPI   O2119716   4.642   5.953   9.819
  174SAPI   C2119717   4.709   6.060   9.850
  174SAPI   O2219718   4.759   6.089   9.958
  174SAPI   C2219719   4.726   6.147   9.725
  174SAPI   H2R19720   4.684   6.247   9.749
  174SAPI   H2S19721   4.835   6.157   9.704
  174SAPI    C319722   4.535   5.734   9.852
  174SAPI    HX19723   4.513   5.664   9.935
  174SAPI    HY19724   4.609   5.682   9.788
  174SAPI   O3119725   4.410   5.759   9.781
  174SAPI   C3119726   4.429   5.777   9.650
  174SAPI   O3219727   4.536   5.804   9.598
  174SAPI   C3219728   4.305   5.751   9.561
  174SAPI   H2X19729   4.327   5.653   9.513
  174SAPI   H2Y19730   4.314   5.827   9.480
  174SAPI   C2319731   4.652   6.090   9.602
  174SAPI   H3R19732   4.547   6.076   9.634
  174SAPI   H3S19733   4.691   5.990   9.574
  174SAPI   C2419734   4.659   6.182   9.481
  174SAPI   H4R19735   4.759   6.184   9.434
  174SAPI   H4S19736   4.637   6.281   9.526
  174SAPI   C2519737   4.549   6.140   9.386
  174SAPI   H5R19738   4.462   6.105   9.444
  174SAPI   C2619739   4.538   6.137   9.251
  174SAPI   H6R19740   4.446   6.095   9.209
  174SAPI   C2719741   4.632   6.176   9.141
  174SAPI   H7R19742   4.665   6.084   9.089
  174SAPI   H7S19743   4.724   6.223   9.182
  174SAPI   C2819744   4.564   6.268   9.042
  174SAPI   H8R19745   4.544   6.370   9.079
  174SAPI   C2919746   4.520   6.240   8.919
  174SAPI   H9R19747   4.477   6.322   8.859
  174SAPI  C21019748   4.530   6.107   8.850
  174SAPI  H10R19749   4.527   6.024   8.923
  174SAPI  H10S19750   4.630   6.103   8.801
  174SAPI  C21119751   4.420   6.092   8.749
  174SAPI  H11R19752   4.319   6.119   8.784
  174SAPI  C21219753   4.436   6.047   8.624
  174SAPI  H12R19754   4.349   6.039   8.557
  174SAPI  C21319755   4.567   6.003   8.564
  174SAPI  H13R19756   4.543   5.924   8.490
  174SAPI  H13S19757   4.627   5.952   8.642
  174SAPI  C21419758   4.658   6.104   8.498
  174SAPI  H14R19759   4.741   6.141   8.560
  174SAPI  C21519760   4.642   6.151   8.374
  174SAPI  H15R19761   4.714   6.223   8.332
  174SAPI  C21619762   4.529   6.109   8.284
  174SAPI  H16R19763   4.490   6.197   8.228
  174SAPI  H16S19764   4.443   6.071   8.343
  174SAPI  C21719765   4.562   6.000   8.183
  174SAPI  H17R19766   4.589   5.907   8.238
  174SAPI  H17S19767   4.649   6.029   8.120
  174SAPI  C21819768   4.441   5.972   8.094
  174SAPI  H18R19769   4.416   6.063   8.036
  174SAPI  H18S19770   4.354   5.948   8.160
  174SAPI  C21919771   4.463   5.854   7.999
  174SAPI  H19R19772   4.473   5.762   8.060
  174SAPI  H19S19773   4.557   5.871   7.944
  174SAPI  C22019774   4.350   5.835   7.899
  174SAPI  H20R19775   4.254   5.816   7.951
  174SAPI  H20S19776   4.372   5.750   7.831
  174SAPI  H20T19777   4.340   5.927   7.837
  174SAPI   C3319778   4.157   5.752   9.612
  174SAPI   H3X19779   4.142   5.838   9.681
  174SAPI   H3Y19780   4.135   5.661   9.672
  174SAPI   C3419781   4.061   5.762   9.490
  174SAPI   H4X19782   4.075   5.673   9.424
  174SAPI   H4Y19783   4.097   5.849   9.433
  174SAPI   C3519784   3.910   5.786   9.510
  174SAPI   H5X19785   3.896   5.854   9.596
  174SAPI   H5Y19786   3.865   5.689   9.540
  174SAPI   C3619787   3.836   5.834   9.380
  174SAPI   H6X19788   3.732   5.794   9.381
  174SAPI   H6Y19789   3.887   5.784   9.295
  174SAPI   C3719790   3.825   5.988   9.349
  174SAPI   H7X19791   3.909   6.039   9.400
  174SAPI   H7Y19792   3.731   6.030   9.390
  174SAPI   C3819793   3.840   6.021   9.198
  174SAPI   H8X19794   3.770   5.960   9.137
  174SAPI   H8Y19795   3.941   5.977   9.180
  174SAPI   C3919796   3.846   6.167   9.141
  174SAPI   H9X19797   3.920   6.227   9.198
  174SAPI   H9Y19798   3.746   6.215   9.152
  174SAPI  C31019799   3.886   6.162   8.991
  174SAPI  H10X19800   3.814   6.097   8.938
  174SAPI  H10Y19801   3.986   6.113   8.988
  174SAPI  C31119802   3.915   6.285   8.901
  174SAPI  H11X19803   4.000   6.342   8.945
  174SAPI  H11Y19804   3.828   6.352   8.893
  174SAPI  C31219805   3.956   6.232   8.760
  174SAPI  H12X19806   3.867   6.219   8.696
  174SAPI  H12Y19807   3.999   6.130   8.775
  174SAPI  C31319808   4.066   6.310   8.684
  174SAPI  H13X19809   4.141   6.343   8.759
  174SAPI  H13Y19810   4.024   6.401   8.636
  174SAPI  C31419811   4.143   6.224   8.580
  174SAPI  H14X19812   4.151   6.119   8.617
  174SAPI  H14Y19813   4.246   6.265   8.573
  174SAPI  C31519814   4.088   6.222   8.437
  174SAPI  H15X19815   4.081   6.328   8.404
  174SAPI  H15Y19816   3.987   6.177   8.435
  174SAPI  C31619817   4.180   6.152   8.335
  174SAPI  H16X19818   4.200   6.049   8.372
  174SAPI  H16Y19819   4.276   6.207   8.331
  174SAPI  C31719820   4.123   6.141   8.192
  174SAPI  H17X19821   4.014   6.122   8.198
  174SAPI  H17Y19822   4.168   6.053   8.142
  174SAPI  C31819823   4.153   6.260   8.102
  174SAPI  H18X19824   4.122   6.356   8.150
  174SAPI  H18Y19825   4.099   6.251   8.005
  174SAPI  H18Z19826   4.262   6.265   8.080
  175SAPI   C1219827   1.349   3.377   5.724
  175SAPI    H219828   1.382   3.471   5.774
  175SAPI    O219829   1.248   3.318   5.805
  175SAPI   HO219830   1.281   3.321   5.895
  175SAPI   C1319831   1.297   3.420   5.587
  175SAPI    H319832   1.382   3.464   5.530
  175SAPI    O319833   1.197   3.522   5.598
  175SAPI   HO319834   1.216   3.575   5.676
  175SAPI   C1419835   1.247   3.297   5.513
  175SAPI    H419836   1.162   3.255   5.571
  175SAPI    O419837   1.197   3.331   5.383
  175SAPI   HO419838   1.153   3.254   5.347
  175SAPI   C1519839   1.357   3.193   5.501
  175SAPI    H519840   1.438   3.236   5.438
  175SAPI    O519841   1.306   3.076   5.436
  175SAPI   HO519842   1.381   3.036   5.391
  175SAPI   C1619843   1.416   3.156   5.637
  175SAPI    H619844   1.340   3.105   5.699
  175SAPI    O619845   1.526   3.067   5.619
  175SAPI   HO619846   1.575   3.077   5.702
  175SAPI   C1119847   1.467   3.281   5.707
  175SAPI    H119848   1.542   3.328   5.641
  175SAPI     P19849   1.600   3.368   5.920
  175SAPI   O1319850   1.497   3.431   6.003
  175SAPI   O1419851   1.672   3.456   5.824
  175SAPI   O1219852   1.529   3.245   5.833
  175SAPI   O1119853   1.709   3.298   6.010
  175SAPI    C119854   1.718   3.159   6.040
  175SAPI    HA19855   1.731   3.099   5.947
  175SAPI    HB19856   1.809   3.144   6.102
  175SAPI    C219857   1.599   3.101   6.123
  175SAPI    HS19858   1.516   3.085   6.051
  175SAPI   O2119859   1.564   3.192   6.228
  175SAPI   C2119860   1.434   3.199   6.256
  175SAPI   O2219861   1.345   3.143   6.194
  175SAPI   C2219862   1.415   3.282   6.383
  175SAPI   H2R19863   1.437   3.213   6.468
  175SAPI   H2S19864   1.490   3.364   6.385
  175SAPI    C319865   1.637   2.963   6.183
  175SAPI    HX19866   1.718   2.979   6.258
  175SAPI    HY19867   1.682   2.900   6.103
  175SAPI   O3119868   1.521   2.894   6.235
  175SAPI   C3119869   1.521   2.866   6.365
  175SAPI   O3219870   1.608   2.896   6.445
  175SAPI   C3219871   1.392   2.792   6.398
  175SAPI   H2X19872   1.417   2.684   6.412
  175SAPI   H2Y19873   1.325   2.799   6.310
  175SAPI   C2319874   1.273   3.339   6.401
  175SAPI   H3R19875   1.198   3.269   6.359
  175SAPI   H3S19876   1.263   3.435   6.345
  175SAPI   C2419877   1.233   3.360   6.548
  175SAPI   H4R19878   1.229   3.260   6.596
  175SAPI   H4S19879   1.129   3.400   6.549
  175SAPI   C2519880   1.322   3.456   6.624
  175SAPI   H5R19881   1.337   3.553   6.574
  175SAPI   C2619882   1.376   3.435   6.745
  175SAPI   H6R19883   1.440   3.513   6.789
  175SAPI   C2719884   1.359   3.310   6.828
  175SAPI   H7R19885   1.428   3.232   6.789
  175SAPI   H7S19886   1.257   3.268   6.813
  175SAPI   C2819887   1.382   3.330   6.975
  175SAPI   H8R19888   1.291   3.345   7.035
  175SAPI   C2919889   1.502   3.329   7.037
  175SAPI   H9R19890   1.506   3.343   7.146
  175SAPI  C21019891   1.635   3.308   6.968
  175SAPI  H10R19892   1.647   3.384   6.889
  175SAPI  H10S19893   1.632   3.211   6.914
  175SAPI  C21119894   1.755   3.311   7.059
  175SAPI  H11R19895   1.817   3.402   7.053
  175SAPI  C21219896   1.791   3.213   7.145
  175SAPI  H12R19897   1.881   3.226   7.206
  175SAPI  C21319898   1.715   3.084   7.162
  175SAPI  H13R19899   1.726   3.023   7.070
  175SAPI  H13S19900   1.606   3.105   7.169
  175SAPI  C21419901   1.758   3.002   7.281
  175SAPI  H14R19902   1.832   2.923   7.259
  175SAPI  C21519903   1.710   3.013   7.406
  175SAPI  H15R19904   1.747   2.944   7.484
  175SAPI  C21619905   1.605   3.111   7.451
  175SAPI  H16R19906   1.506   3.061   7.457
  175SAPI  H16S19907   1.594   3.196   7.380
  175SAPI  C21719908   1.643   3.169   7.589
  175SAPI  H17R19909   1.746   3.210   7.584
  175SAPI  H17S19910   1.643   3.087   7.665
  175SAPI  C21819911   1.550   3.281   7.636
  175SAPI  H18R19912   1.449   3.241   7.658
  175SAPI  H18S19913   1.540   3.356   7.555
  175SAPI  C21919914   1.605   3.351   7.762
  175SAPI  H19R19915   1.706   3.393   7.737
  175SAPI  H19S19916   1.620   3.275   7.841
  175SAPI  C22019917   1.515   3.463   7.814
  175SAPI  H20R19918   1.416   3.423   7.842
  175SAPI  H20S19919   1.501   3.541   7.736
  175SAPI  H20T19920   1.561   3.510   7.904
  175SAPI   C3319921   1.320   2.851   6.521
  175SAPI   H3X19922   1.211   2.835   6.507
  175SAPI   H3Y19923   1.335   2.960   6.529
  175SAPI   C3419924   1.361   2.781   6.651
  175SAPI   H4X19925   1.467   2.804   6.675
  175SAPI   H4Y19926   1.353   2.671   6.635
  175SAPI   C3519927   1.271   2.818   6.771
  175SAPI   H5X19928   1.298   2.750   6.854
  175SAPI   H5Y19929   1.166   2.798   6.742
  175SAPI   C3619930   1.281   2.964   6.817
  175SAPI   H6X19931   1.234   3.030   6.741
  175SAPI   H6Y19932   1.389   2.992   6.823
  175SAPI   C3719933   1.217   2.989   6.955
  175SAPI   H7X19934   1.110   2.959   6.953
  175SAPI   H7Y19935   1.222   3.098   6.977
  175SAPI   C3819936   1.292   2.913   7.065
  175SAPI   H8X19937   1.399   2.920   7.036
  175SAPI   H8Y19938   1.263   2.806   7.063
  175SAPI   C3919939   1.280   2.969   7.208
  175SAPI   H9X19940   1.318   3.073   7.209
  175SAPI   H9Y19941   1.347   2.909   7.273
  175SAPI  C31019942   1.138   2.966   7.265
  175SAPI  H10X19943   1.097   2.863   7.265
  175SAPI  H10Y19944   1.073   3.028   7.199
  175SAPI  C31119945   1.130   3.024   7.407
  175SAPI  H11X19946   1.023   3.041   7.432
  175SAPI  H11Y19947   1.181   3.123   7.407
  175SAPI  C31219948   1.190   2.935   7.518
  175SAPI  H12X19949   1.269   2.869   7.475
  175SAPI  H12Y19950   1.110   2.869   7.557
  175SAPI  C31319951   1.252   3.017   7.632
  175SAPI  H13X19952   1.187   3.104   7.655
  175SAPI  H13Y19953   1.349   3.058   7.597
  175SAPI  C31419954   1.276   2.934   7.760
  175SAPI  H14X19955   1.320   2.838   7.726
  175SAPI  H14Y19956   1.179   2.910   7.808
  175SAPI  C31519957   1.373   2.996   7.862
  175SAPI  H15X19958   1.467   3.027   7.811
  175SAPI  H15Y19959   1.398   2.918   7.937
  175SAPI  C31619960   1.313   3.116   7.937
  175SAPI  H16X19961   1.217   3.083   7.982
  175SAPI  H16Y19962   1.294   3.198   7.865
  175SAPI  C31719963   1.399   3.170   8.052
  175SAPI  H17X19964   1.499   3.199   8.014
  175SAPI  H17Y19965   1.413   3.090   8.128
  175SAPI  C31819966   1.333   3.291   8.119
  175SAPI  H18X19967   1.391   3.324   8.209
  175SAPI  H18Y19968   1.229   3.266   8.151
  175SAPI  H18Z19969   1.327   3.377   8.048
  176SAPI   C1219970   1.317   1.519   5.546
  176SAPI    H219971   1.356   1.422   5.585
  176SAPI    O219972   1.429   1.603   5.520
  176SAPI   HO219973   1.449   1.643   5.605
  176SAPI   C1319974   1.237   1.493   5.420
  176SAPI    H319975   1.156   1.421   5.445
  176SAPI    O319976   1.319   1.431   5.321
  176SAPI   HO319977   1.406   1.471   5.331
  176SAPI   C1419978   1.173   1.621   5.368
  176SAPI    H419979   1.253   1.693   5.341
  176SAPI    O419980   1.098   1.592   5.249
  176SAPI   HO419981   1.139   1.515   5.211
  176SAPI   C1519982   1.086   1.684   5.476
  176SAPI    H519983   1.004   1.612   5.500
  176SAPI    O519984   1.025   1.807   5.435
  176SAPI   HO519985   1.024   1.859   5.516
  176SAPI   C1619986   1.166   1.709   5.602
  176SAPI    H619987   1.246   1.784   5.581
  176SAPI    O619988   1.082   1.763   5.704
  176SAPI   HO619989   1.122   1.737   5.787
  176SAPI   C1119990   1.228   1.581   5.652
  176SAPI    H119991   1.144   1.511   5.669
  176SAPI     P19992   1.284   1.505   5.901
  176SAPI   O1319993   1.322   1.370   5.857
  176SAPI   O1419994   1.145   1.522   5.950
  176SAPI   O1219995   1.304   1.606   5.772
  176SAPI   O1119996   1.388   1.564   6.005
  176SAPI    C119997   1.528   1.559   5.974
  176SAPI    HA19998   1.557   1.454   5.953
  176SAPI    HB19999   1.552   1.620   5.885
  176SAPI    C220000   1.616   1.610   6.093
  176SAPI    HS20001   1.722   1.586   6.071
  176SAPI   O2120002   1.578   1.551   6.217
  176SAPI   C2120003   1.586   1.422   6.230
  176SAPI   O2220004   1.639   1.345   6.152
  176SAPI   C2220005   1.523   1.389   6.364
  176SAPI   H2R20006   1.532   1.280   6.380
  176SAPI   H2S20007   1.580   1.444   6.442
  176SAPI    C320008   1.607   1.763   6.116
  176SAPI    HX20009   1.502   1.789   6.141
  176SAPI    HY20010   1.632   1.814   6.020
  176SAPI   O3120011   1.701   1.804   6.218
  176SAPI   C3120012   1.658   1.803   6.344
  176SAPI   O3220013   1.545   1.781   6.382
  176SAPI   C3220014   1.779   1.834   6.434
  176SAPI   H2X20015   1.823   1.928   6.394
  176SAPI   H2Y20016   1.853   1.752   6.421
  176SAPI   C2320017   1.377   1.440   6.374
  176SAPI   H3R20018   1.315   1.381   6.302
  176SAPI   H3S20019   1.371   1.546   6.343
  176SAPI   C2420020   1.321   1.430   6.517
  176SAPI   H4R20021   1.214   1.461   6.518
  176SAPI   H4S20022   1.376   1.505   6.578
  176SAPI   C2520023   1.336   1.289   6.566
  176SAPI   H5R20024   1.317   1.214   6.488
  176SAPI   C2620025   1.373   1.242   6.687
  176SAPI   H6R20026   1.373   1.133   6.696
  176SAPI   C2720027   1.410   1.310   6.817
  176SAPI   H7R20028   1.495   1.254   6.861
  176SAPI   H7S20029   1.325   1.294   6.887
  176SAPI   C2820030   1.448   1.454   6.817
  176SAPI   H8R20031   1.515   1.485   6.735
  176SAPI   C2920032   1.411   1.546   6.907
  176SAPI   H9R20033   1.440   1.650   6.885
  176SAPI  C21020034   1.323   1.532   7.029
  176SAPI  H10R20035   1.265   1.437   7.026
  176SAPI  H10S20036   1.246   1.612   7.027
  176SAPI  C21120037   1.401   1.538   7.158
  176SAPI  H11R20038   1.510   1.528   7.148
  176SAPI  C21220039   1.349   1.556   7.280
  176SAPI  H12R20040   1.417   1.562   7.366
  176SAPI  C21320041   1.202   1.574   7.313
  176SAPI  H13R20042   1.139   1.555   7.224
  176SAPI  H13S20043   1.185   1.680   7.340
  176SAPI  C21420044   1.156   1.482   7.424
  176SAPI  H14R20045   1.185   1.377   7.410
  176SAPI  C21520046   1.085   1.514   7.533
  176SAPI  H15R20047   1.057   1.434   7.604
  176SAPI  C21620048   1.033   1.650   7.573
  176SAPI  H16R20049   0.923   1.646   7.590
  176SAPI  H16S20050   1.049   1.725   7.492
  176SAPI  C21720051   1.101   1.703   7.701
  176SAPI  H17R20052   1.072   1.810   7.711
  176SAPI  H17S20053   1.211   1.700   7.689
  176SAPI  C21820054   1.059   1.631   7.831
  176SAPI  H18R20055   1.084   1.523   7.821
  176SAPI  H18S20056   0.949   1.639   7.842
  176SAPI  C21920057   1.126   1.685   7.959
  176SAPI  H19R20058   1.236   1.667   7.952
  176SAPI  H19S20059   1.089   1.626   8.045
  176SAPI  C22020060   1.102   1.832   7.991
  176SAPI  H20R20061   1.152   1.861   8.085
  176SAPI  H20S20062   0.993   1.851   8.003
  176SAPI  H20T20063   1.140   1.896   7.909
  176SAPI   C3320064   1.751   1.853   6.586
  176SAPI   H3X20065   1.764   1.756   6.639
  176SAPI   H3Y20066   1.646   1.884   6.601
  176SAPI   C3420067   1.842   1.962   6.646
  176SAPI   H4X20068   1.843   2.048   6.576
  176SAPI   H4Y20069   1.946   1.922   6.650
  176SAPI   C3520070   1.803   2.019   6.784
  176SAPI   H5X20071   1.875   2.100   6.809
  176SAPI   H5Y20072   1.820   1.936   6.857
  176SAPI   C3620073   1.660   2.077   6.791
  176SAPI   H6X20074   1.585   1.995   6.793
  176SAPI   H6Y20075   1.651   2.124   6.691
  176SAPI   C3720076   1.624   2.195   6.888
  176SAPI   H7X20077   1.582   2.271   6.818
  176SAPI   H7Y20078   1.722   2.231   6.926
  176SAPI   C3820079   1.511   2.191   7.002
  176SAPI   H8X20080   1.577   2.107   7.032
  176SAPI   H8Y20081   1.523   2.302   6.996
  176SAPI   C3920082   1.508   2.218   7.162
  176SAPI   H9X20083   1.530   2.325   7.183
  176SAPI   H9Y20084   1.586   2.164   7.218
  176SAPI  C31020085   1.377   2.184   7.236
  176SAPI  H10X20086   1.293   2.193   7.164
  176SAPI  H10Y20087   1.361   2.261   7.315
  176SAPI  C31120088   1.369   2.046   7.307
  176SAPI  H11X20089   1.383   1.964   7.233
  176SAPI  H11Y20090   1.266   2.034   7.346
  176SAPI  C31220091   1.465   2.017   7.424
  176SAPI  H12X20092   1.424   2.063   7.516
  176SAPI  H12Y20093   1.564   2.064   7.406
  176SAPI  C31320094   1.486   1.865   7.444
  176SAPI  H13X20095   1.563   1.829   7.373
  176SAPI  H13Y20096   1.391   1.812   7.419
  176SAPI  C31420097   1.524   1.825   7.588
  176SAPI  H14X20098   1.431   1.827   7.648
  176SAPI  H14Y20099   1.595   1.900   7.629
  176SAPI  C31520100   1.587   1.685   7.602
  176SAPI  H15X20101   1.685   1.685   7.550
  176SAPI  H15Y20102   1.523   1.609   7.552
  176SAPI  C31620103   1.609   1.644   7.749
  176SAPI  H16X20104   1.648   1.732   7.805
  176SAPI  H16Y20105   1.688   1.565   7.754
  176SAPI  C31720106   1.484   1.590   7.819
  176SAPI  H17X20107   1.400   1.661   7.802
  176SAPI  H17Y20108   1.503   1.586   7.928
  176SAPI  C31820109   1.441   1.450   7.773
  176SAPI  H18X20110   1.419   1.449   7.664
  176SAPI  H18Y20111   1.349   1.418   7.826
  176SAPI  H18Z20112   1.521   1.376   7.793
  177SLPC     N20113   4.878   5.215   9.937
  177SLPC   C1320114   4.773   5.316   9.969
  177SLPC  H13A20115   4.752   5.320  10.075
  177SLPC  H13B20116   4.804   5.413   9.932
  177SLPC  H13C20117   4.684   5.290   9.914
  177SLPC   C1420118   4.828   5.081   9.983
  177SLPC  H14A20119   4.890   5.000   9.947
  177SLPC  H14B20120   4.824   5.077  10.091
  177SLPC  H14C20121   4.728   5.067   9.946
  177SLPC   C1520122   5.003   5.251  10.011
  177SLPC  H15A20123   4.982   5.260  10.116
  177SLPC  H15B20124   5.080   5.177   9.998
  177SLPC  H15C20125   5.040   5.347   9.977
  177SLPC   C1220126   4.896   5.218   9.787
  177SLPC  H12A20127   4.981   5.158   9.759
  177SLPC  H12B20128   4.918   5.320   9.757
  177SLPC   C1120129   4.776   5.174   9.702
  177SLPC  H11A20130   4.742   5.072   9.730
  177SLPC  H11B20131   4.813   5.167   9.597
  177SLPC     P20132   4.662   5.391   9.617
  177SLPC   O1320133   4.531   5.456   9.633
  177SLPC   O1420134   4.783   5.470   9.648
  177SLPC   O1220135   4.666   5.265   9.714
  177SLPC   O1120136   4.674   5.320   9.474
  177SLPC    C120137   4.572   5.223   9.443
  177SLPC    HA20138   4.551   5.156   9.529
  177SLPC    HB20139   4.477   5.276   9.420
  177SLPC    C220140   4.601   5.128   9.322
  177SLPC    HS20141   4.524   5.048   9.325
  177SLPC   O2120142   4.734   5.071   9.328
  177SLPC   C2120143   4.766   4.987   9.426
  177SLPC   O2220144   4.693   4.951   9.516
  177SLPC   C2220145   4.907   4.925   9.404
  177SLPC   H2R20146   4.896   4.821   9.441
  177SLPC   H2S20147   4.921   4.916   9.294
  177SLPC    C320148   4.578   5.199   9.184
  177SLPC    HX20149   4.468   5.203   9.167
  177SLPC    HY20150   4.619   5.131   9.106
  177SLPC   O3120151   4.642   5.328   9.170
  177SLPC   C3120152   4.563   5.435   9.165
  177SLPC   O3220153   4.442   5.433   9.164
  177SLPC   C3220154   4.647   5.562   9.160
  177SLPC   H2X20155   4.716   5.555   9.247
  177SLPC   H2Y20156   4.579   5.648   9.176
  177SLPC   C2320157   5.032   4.986   9.477
  177SLPC   H3R20158   5.117   4.915   9.468
  177SLPC   H3S20159   5.008   4.993   9.585
  177SLPC   C2420160   5.079   5.125   9.427
  177SLPC   H4R20161   5.081   5.191   9.516
  177SLPC   H4S20162   4.991   5.156   9.367
  177SLPC   C2520163   5.215   5.145   9.350
  177SLPC   H5R20164   5.253   5.047   9.316
  177SLPC   H5S20165   5.281   5.168   9.436
  177SLPC   C2620166   5.254   5.267   9.253
  177SLPC   H6R20167   5.363   5.259   9.267
  177SLPC   H6S20168   5.234   5.363   9.305
  177SLPC   C2720169   5.259   5.297   9.093
  177SLPC   H7R20170   5.343   5.239   9.049
  177SLPC   H7S20171   5.305   5.397   9.103
  177SLPC   C2820172   5.152   5.337   8.977
  177SLPC   H8R20173   5.204   5.422   8.928
  177SLPC   H8S20174   5.062   5.387   9.017
  177SLPC   C2920175   5.115   5.247   8.858
  177SLPC   H9R20176   5.201   5.190   8.820
  177SLPC  C21020177   5.003   5.236   8.781
  177SLPC  H10R20178   5.003   5.158   8.702
  177SLPC  C21120179   4.873   5.313   8.785
  177SLPC  H11R20180   4.888   5.398   8.855
  177SLPC  H11S20181   4.862   5.361   8.685
  177SLPC  C21220182   4.741   5.246   8.818
  177SLPC  H12R20183   4.718   5.250   8.925
  177SLPC  C21320184   4.650   5.188   8.735
  177SLPC  H13R20185   4.558   5.149   8.781
  177SLPC  C21420186   4.653   5.172   8.585
  177SLPC  H14R20187   4.675   5.065   8.563
  177SLPC  H14S20188   4.736   5.230   8.538
  177SLPC  C21520189   4.521   5.204   8.510
  177SLPC  H15R20190   4.434   5.163   8.565
  177SLPC  H15S20191   4.524   5.154   8.411
  177SLPC  C21620192   4.499   5.354   8.486
  177SLPC  H16R20193   4.589   5.394   8.433
  177SLPC  H16S20194   4.491   5.404   8.585
  177SLPC  C21720195   4.378   5.391   8.400
  177SLPC  H17R20196   4.352   5.497   8.420
  177SLPC  H17S20197   4.290   5.329   8.428
  177SLPC  C21820198   4.406   5.379   8.250
  177SLPC  H18R20199   4.429   5.273   8.223
  177SLPC  H18S20200   4.493   5.441   8.221
  177SLPC  H18T20201   4.319   5.413   8.190
  177SLPC   C3320202   4.727   5.580   9.029
  177SLPC   H3X20203   4.784   5.487   9.007
  177SLPC   H3Y20204   4.801   5.661   9.043
  177SLPC   C3420205   4.641   5.617   8.908
  177SLPC   H4X20206   4.582   5.709   8.932
  177SLPC   H4Y20207   4.568   5.536   8.887
  177SLPC   C3520208   4.724   5.644   8.781
  177SLPC   H5X20209   4.784   5.554   8.756
  177SLPC   H5Y20210   4.795   5.727   8.799
  177SLPC   C3620211   4.635   5.677   8.661
  177SLPC   H6X20212   4.569   5.761   8.688
  177SLPC   H6Y20213   4.568   5.590   8.642
  177SLPC   C3720214   4.711   5.708   8.531
  177SLPC   H7X20215   4.780   5.795   8.544
  177SLPC   H7Y20216   4.633   5.739   8.458
  177SLPC   C3820217   4.790   5.589   8.475
  177SLPC   H8X20218   4.739   5.497   8.510
  177SLPC   H8Y20219   4.890   5.586   8.522
  177SLPC   C3920220   4.805   5.580   8.321
  177SLPC   H9X20221   4.785   5.474   8.293
  177SLPC   H9Y20222   4.910   5.603   8.296
  177SLPC  C31020223   4.718   5.670   8.231
  177SLPC  H10X20224   4.755   5.774   8.243
  177SLPC  H10Y20225   4.612   5.666   8.265
  177SLPC  C31120226   4.720   5.632   8.082
  177SLPC  H11X20227   4.675   5.716   8.025
  177SLPC  H11Y20228   4.654   5.543   8.068
  177SLPC  C31220229   4.856   5.603   8.017
  177SLPC  H12X20230   4.936   5.663   8.067
  177SLPC  H12Y20231   4.852   5.636   7.911
  177SLPC  C31320232   4.886   5.453   8.019
  177SLPC  H13X20233   4.795   5.397   7.989
  177SLPC  H13Y20234   4.910   5.425   8.123
  177SLPC  C31420235   5.000   5.406   7.928
  177SLPC  H14X20236   5.085   5.477   7.933
  177SLPC  H14Y20237   4.965   5.409   7.822
  177SLPC  C31520238   5.052   5.265   7.964
  177SLPC  H15X20239   5.127   5.282   8.044
  177SLPC  H15Y20240   5.106   5.221   7.877
  177SLPC  C31620241   4.949   5.165   8.020
  177SLPC  H16X20242   4.890   5.120   7.938
  177SLPC  H16Y20243   4.878   5.216   8.088
  177SLPC  C31720244   5.015   5.057   8.107
  177SLPC  H17X20245   5.090   5.106   8.173
  177SLPC  H17Y20246   5.071   4.986   8.043
  177SLPC  C31820247   4.916   4.981   8.197
  177SLPC  H18X20248   4.868   5.051   8.268
  177SLPC  H18Y20249   4.970   4.904   8.256
  177SLPC  H18Z20250   4.838   4.932   8.136
  178SLPC     N20251   2.056   2.141   9.795
  178SLPC   C1320252   2.019   2.073   9.923
  178SLPC  H13A20253   2.062   1.974   9.926
  178SLPC  H13B20254   2.057   2.127  10.009
  178SLPC  H13C20255   1.912   2.064   9.935
  178SLPC   C1420256   1.986   2.273   9.785
  178SLPC  H14A20257   1.879   2.260   9.794
  178SLPC  H14B20258   2.018   2.340   9.864
  178SLPC  H14C20259   2.005   2.320   9.690
  178SLPC   C1520260   2.013   2.053   9.682
  178SLPC  H15A20261   2.040   2.097   9.587
  178SLPC  H15B20262   2.068   1.961   9.687
  178SLPC  H15C20263   1.907   2.030   9.684
  178SLPC   C1220264   2.207   2.158   9.788
  178SLPC  H12A20265   2.238   2.239   9.852
  178SLPC  H12B20266   2.234   2.184   9.687
  178SLPC   C1120267   2.295   2.034   9.822
  178SLPC  H11A20268   2.277   2.002   9.927
  178SLPC  H11B20269   2.402   2.064   9.817
  178SLPC     P20270   2.324   1.926   9.587
  178SLPC   O1320271   2.253   1.821   9.512
  178SLPC   O1420272   2.311   2.065   9.536
  178SLPC   O1220273   2.267   1.925   9.735
  178SLPC   O1120274   2.476   1.886   9.608
  178SLPC    C120275   2.584   1.977   9.582
  178SLPC    HA20276   2.556   2.082   9.602
  178SLPC    HB20277   2.667   1.953   9.650
  178SLPC    C220278   2.638   1.963   9.436
  178SLPC    HS20279   2.725   2.030   9.424
  178SLPC   O2120280   2.536   1.994   9.339
  178SLPC   C2120281   2.512   2.123   9.327
  178SLPC   O2220282   2.571   2.212   9.384
  178SLPC   C2220283   2.406   2.143   9.219
  178SLPC   H2R20284   2.375   2.044   9.179
  178SLPC   H2S20285   2.319   2.191   9.267
  178SLPC    C320286   2.688   1.820   9.405
  178SLPC    HX20287   2.610   1.749   9.441
  178SLPC    HY20288   2.781   1.804   9.463
  178SLPC   O3120289   2.718   1.807   9.264
  178SLPC   C3120290   2.643   1.722   9.195
  178SLPC   O3220291   2.576   1.632   9.242
  178SLPC   C3220292   2.662   1.751   9.046
  178SLPC   H2X20293   2.728   1.672   9.004
  178SLPC   H2Y20294   2.715   1.848   9.036
  178SLPC   C2320295   2.465   2.232   9.108
  178SLPC   H3R20296   2.554   2.184   9.063
  178SLPC   H3S20297   2.498   2.327   9.154
  178SLPC   C2420298   2.365   2.265   8.997
  178SLPC   H4R20299   2.410   2.348   8.938
  178SLPC   H4S20300   2.270   2.302   9.041
  178SLPC   C2520301   2.338   2.146   8.904
  178SLPC   H5R20302   2.292   2.063   8.962
  178SLPC   H5S20303   2.435   2.109   8.865
  178SLPC   C2620304   2.246   2.179   8.784
  178SLPC   H6R20305   2.142   2.190   8.821
  178SLPC   H6S20306   2.248   2.093   8.713
  178SLPC   C2720307   2.283   2.307   8.707
  178SLPC   H7R20308   2.273   2.391   8.779
  178SLPC   H7S20309   2.210   2.325   8.626
  178SLPC   C2820310   2.427   2.310   8.650
  178SLPC   H8R20311   2.498   2.281   8.730
  178SLPC   H8S20312   2.451   2.416   8.625
  178SLPC   C2920313   2.443   2.227   8.526
  178SLPC   H9R20314   2.401   2.273   8.435
  178SLPC  C21020315   2.500   2.105   8.515
  178SLPC  H10R20316   2.507   2.060   8.415
  178SLPC  C21120317   2.561   2.022   8.625
  178SLPC  H11R20318   2.486   1.948   8.658
  178SLPC  H11S20319   2.584   2.084   8.715
  178SLPC  C21220320   2.688   1.951   8.584
  178SLPC  H12R20321   2.780   2.002   8.614
  178SLPC  C21320322   2.698   1.838   8.512
  178SLPC  H13R20323   2.798   1.798   8.489
  178SLPC  C21420324   2.584   1.758   8.455
  178SLPC  H14R20325   2.488   1.813   8.461
  178SLPC  H14S20326   2.571   1.664   8.512
  178SLPC  C21520327   2.610   1.723   8.307
  178SLPC  H15R20328   2.520   1.670   8.270
  178SLPC  H15S20329   2.696   1.652   8.301
  178SLPC  C21620330   2.640   1.843   8.216
  178SLPC  H16R20331   2.740   1.885   8.241
  178SLPC  H16S20332   2.565   1.922   8.235
  178SLPC  C21720333   2.637   1.808   8.067
  178SLPC  H17R20334   2.714   1.731   8.045
  178SLPC  H17S20335   2.664   1.900   8.010
  178SLPC  C21820336   2.501   1.759   8.017
  178SLPC  H18R20337   2.420   1.825   8.055
  178SLPC  H18S20338   2.480   1.655   8.052
  178SLPC  H18T20339   2.497   1.760   7.906
  178SLPC   C3320340   2.530   1.759   8.966
  178SLPC   H3X20341   2.551   1.813   8.871
  178SLPC   H3Y20342   2.454   1.819   9.021
  178SLPC   C3420343   2.473   1.622   8.928
  178SLPC   H4X20344   2.429   1.574   9.018
  178SLPC   H4Y20345   2.556   1.557   8.893
  178SLPC   C3520346   2.369   1.627   8.815
  178SLPC   H5X20347   2.340   1.524   8.788
  178SLPC   H5Y20348   2.416   1.673   8.726
  178SLPC   C3620349   2.242   1.705   8.852
  178SLPC   H6X20350   2.268   1.810   8.878
  178SLPC   H6Y20351   2.198   1.659   8.943
  178SLPC   C3720352   2.136   1.707   8.741
  178SLPC   H7X20353   2.044   1.755   8.781
  178SLPC   H7Y20354   2.110   1.602   8.714
  178SLPC   C3820355   2.180   1.783   8.615
  178SLPC   H8X20356   2.267   1.732   8.569
  178SLPC   H8Y20357   2.214   1.885   8.646
  178SLPC   C3920358   2.069   1.796   8.510
  178SLPC   H9X20359   1.981   1.847   8.555
  178SLPC   H9Y20360   2.036   1.693   8.482
  178SLPC  C31020361   2.111   1.870   8.382
  178SLPC  H10X20362   2.029   1.862   8.307
  178SLPC  H10Y20363   2.200   1.819   8.340
  178SLPC  C31120364   2.142   2.019   8.405
  178SLPC  H11X20365   2.228   2.027   8.476
  178SLPC  H11Y20366   2.055   2.068   8.453
  178SLPC  C31220367   2.179   2.098   8.277
  178SLPC  H12X20368   2.205   2.202   8.306
  178SLPC  H12Y20369   2.090   2.103   8.210
  178SLPC  C31320370   2.296   2.035   8.200
  178SLPC  H13X20371   2.261   1.940   8.155
  178SLPC  H13Y20372   2.375   2.007   8.274
  178SLPC  C31420373   2.361   2.122   8.090
  178SLPC  H14X20374   2.285   2.150   8.014
  178SLPC  H14Y20375   2.437   2.060   8.040
  178SLPC  C31520376   2.431   2.249   8.140
  178SLPC  H15X20377   2.358   2.331   8.155
  178SLPC  H15Y20378   2.476   2.227   8.239
  178SLPC  C31620379   2.548   2.297   8.050
  178SLPC  H16X20380   2.628   2.221   8.056
  178SLPC  H16Y20381   2.587   2.392   8.091
  178SLPC  C31720382   2.518   2.325   7.902
  178SLPC  H17X20383   2.434   2.261   7.866
  178SLPC  H17Y20384   2.607   2.296   7.843
  178SLPC  C31820385   2.491   2.473   7.874
  178SLPC  H18X20386   2.400   2.508   7.928
  178SLPC  H18Y20387   2.476   2.490   7.765
  178SLPC  H18Z20388   2.577   2.536   7.907
  179SLPC     N20389   2.926   5.707   9.579
  179SLPC   C1320390   2.776   5.697   9.588
  179SLPC  H13A20391   2.743   5.599   9.620
  179SLPC  H13B20392   2.741   5.768   9.662
  179SLPC  H13C20393   2.728   5.722   9.494
  179SLPC   C1420394   2.955   5.851   9.548
  179SLPC  H14A20395   2.906   5.885   9.458
  179SLPC  H14B20396   2.917   5.912   9.629
  179SLPC  H14C20397   3.061   5.872   9.542
  179SLPC   C1520398   2.978   5.621   9.468
  179SLPC  H15A20399   2.936   5.652   9.373
  179SLPC  H15B20400   3.086   5.630   9.459
  179SLPC  H15C20401   2.952   5.518   9.482
  179SLPC   C1220402   2.988   5.671   9.713
  179SLPC  H12A20403   3.092   5.702   9.712
  179SLPC  H12B20404   2.983   5.565   9.728
  179SLPC   C1120405   2.928   5.736   9.839
  179SLPC  H11A20406   2.981   5.699   9.929
  179SLPC  H11B20407   2.822   5.705   9.850
  179SLPC     P20408   2.834   5.971   9.894
  179SLPC   O1320409   2.711   5.948   9.816
  179SLPC   O1420410   2.829   5.944  10.039
  179SLPC   O1220411   2.946   5.877   9.832
  179SLPC   O1120412   2.895   6.115   9.867
  179SLPC    C120413   2.973   6.148   9.752
  179SLPC    HA20414   3.044   6.228   9.782
  179SLPC    HB20415   3.033   6.064   9.714
  179SLPC    C220416   2.883   6.205   9.640
  179SLPC    HS20417   2.834   6.294   9.686
  179SLPC   O2120418   2.789   6.106   9.598
  179SLPC   C2120419   2.677   6.160   9.553
  179SLPC   O2220420   2.649   6.278   9.554
  179SLPC   C2220421   2.594   6.052   9.487
  179SLPC   H2R20422   2.644   5.954   9.499
  179SLPC   H2S20423   2.495   6.049   9.537
  179SLPC    C320424   2.960   6.252   9.514
  179SLPC    HX20425   3.025   6.334   9.550
  179SLPC    HY20426   2.888   6.298   9.443
  179SLPC   O3120427   3.040   6.146   9.454
  179SLPC   C3120428   3.010   6.111   9.329
  179SLPC   O3220429   2.919   6.156   9.262
  179SLPC   C3220430   3.107   6.001   9.282
  179SLPC   H2X20431   3.167   5.969   9.369
  179SLPC   H2Y20432   3.175   6.049   9.209
  179SLPC   C2320433   2.579   6.087   9.338
  179SLPC   H3R20434   2.677   6.112   9.291
  179SLPC   H3S20435   2.515   6.177   9.328
  179SLPC   C2420436   2.516   5.972   9.263
  179SLPC   H4R20437   2.449   6.013   9.184
  179SLPC   H4S20438   2.454   5.914   9.335
  179SLPC   C2520439   2.614   5.875   9.197
  179SLPC   H5R20440   2.560   5.781   9.175
  179SLPC   H5S20441   2.698   5.851   9.266
  179SLPC   C2620442   2.666   5.930   9.064
  179SLPC   H6R20443   2.742   6.009   9.084
  179SLPC   H6S20444   2.583   5.977   9.008
  179SLPC   C2720445   2.725   5.819   8.979
  179SLPC   H7R20446   2.647   5.743   8.957
  179SLPC   H7S20447   2.802   5.767   9.040
  179SLPC   C2820448   2.789   5.872   8.850
  179SLPC   H8R20449   2.873   5.804   8.824
  179SLPC   H8S20450   2.835   5.971   8.869
  179SLPC   C2920451   2.689   5.880   8.738
  179SLPC   H9R20452   2.640   5.977   8.723
  179SLPC  C21020453   2.659   5.776   8.658
  179SLPC  H10R20454   2.588   5.789   8.575
  179SLPC  C21120455   2.721   5.640   8.672
  179SLPC  H11R20456   2.691   5.597   8.770
  179SLPC  H11S20457   2.832   5.648   8.677
  179SLPC  C21220458   2.689   5.538   8.566
  179SLPC  H12R20459   2.629   5.453   8.602
  179SLPC  C21320460   2.720   5.542   8.435
  179SLPC  H13R20461   2.691   5.456   8.372
  179SLPC  C21420462   2.793   5.650   8.361
  179SLPC  H14R20463   2.811   5.740   8.424
  179SLPC  H14S20464   2.726   5.682   8.278
  179SLPC  C21520465   2.927   5.609   8.298
  179SLPC  H15R20466   2.917   5.509   8.249
  179SLPC  H15S20467   3.005   5.600   8.377
  179SLPC  C21620468   2.969   5.709   8.190
  179SLPC  H16R20469   2.988   5.809   8.236
  179SLPC  H16S20470   2.885   5.720   8.119
  179SLPC  C21720471   3.091   5.668   8.107
  179SLPC  H17R20472   3.108   5.745   8.029
  179SLPC  H17S20473   3.067   5.573   8.055
  179SLPC  C21820474   3.218   5.650   8.190
  179SLPC  H18R20475   3.229   5.734   8.261
  179SLPC  H18S20476   3.308   5.646   8.125
  179SLPC  H18T20477   3.212   5.555   8.248
  179SLPC   C3320478   3.040   5.876   9.217
  179SLPC   H3X20479   2.930   5.880   9.231
  179SLPC   H3Y20480   3.078   5.786   9.268
  179SLPC   C3420481   3.068   5.857   9.067
  179SLPC   H4X20482   3.042   5.949   9.009
  179SLPC   H4Y20483   3.001   5.776   9.032
  179SLPC   C3520484   3.209   5.809   9.031
  179SLPC   H5X20485   3.246   5.739   9.108
  179SLPC   H5Y20486   3.279   5.896   9.030
  179SLPC   C3620487   3.213   5.738   8.894
  179SLPC   H6X20488   3.110   5.718   8.859
  179SLPC   H6Y20489   3.264   5.639   8.905
  179SLPC   C3720490   3.287   5.821   8.789
  179SLPC   H7X20491   3.393   5.831   8.819
  179SLPC   H7Y20492   3.243   5.922   8.791
  179SLPC   C3820493   3.283   5.764   8.645
  179SLPC   H8X20494   3.334   5.666   8.648
  179SLPC   H8Y20495   3.348   5.821   8.575
  179SLPC   C3920496   3.145   5.751   8.579
  179SLPC   H9X20497   3.101   5.656   8.618
  179SLPC   H9Y20498   3.157   5.738   8.470
  179SLPC  C31020499   3.041   5.861   8.607
  179SLPC  H10X20500   3.047   5.901   8.710
  179SLPC  H10Y20501   2.943   5.808   8.599
  179SLPC  C31120502   3.029   5.977   8.506
  179SLPC  H11X20503   3.050   5.940   8.404
  179SLPC  H11Y20504   3.103   6.057   8.530
  179SLPC  C31220505   2.887   6.035   8.510
  179SLPC  H12X20506   2.870   6.086   8.607
  179SLPC  H12Y20507   2.817   5.949   8.505
  179SLPC  C31320508   2.849   6.128   8.394
  179SLPC  H13X20509   2.877   6.081   8.297
  179SLPC  H13Y20510   2.906   6.223   8.400
  179SLPC  C31420511   2.699   6.160   8.396
  179SLPC  H14X20512   2.678   6.250   8.334
  179SLPC  H14Y20513   2.670   6.184   8.500
  179SLPC  C31520514   2.610   6.044   8.346
  179SLPC  H15X20515   2.506   6.068   8.376
  179SLPC  H15Y20516   2.636   5.948   8.395
  179SLPC  C31620517   2.605   6.028   8.194
  179SLPC  H16X20518   2.600   6.127   8.144
  179SLPC  H16Y20519   2.510   5.975   8.171
  179SLPC  C31720520   2.718   5.942   8.138
  179SLPC  H17X20521   2.752   5.874   8.219
  179SLPC  H17Y20522   2.806   6.006   8.114
  179SLPC  C31820523   2.676   5.860   8.016
  179SLPC  H18X20524   2.631   5.927   7.939
  179SLPC  H18Y20525   2.602   5.783   8.045
  179SLPC  H18Z20526   2.764   5.810   7.970
  180SLPC     N20527   5.478   1.867   9.687
  180SLPC   C1320528   5.564   1.831   9.570
  180SLPC  H13A20529   5.512   1.770   9.498
  180SLPC  H13B20530   5.603   1.917   9.519
  180SLPC  H13C20531   5.649   1.773   9.604
  180SLPC   C1420532   5.443   1.742   9.761
  180SLPC  H14A20533   5.383   1.675   9.701
  180SLPC  H14B20534   5.534   1.693   9.789
  180SLPC  H14C20535   5.390   1.764   9.853
  180SLPC   C1520536   5.352   1.928   9.636
  180SLPC  H15A20537   5.294   1.855   9.582
  180SLPC  H15B20538   5.291   1.964   9.717
  180SLPC  H15C20539   5.372   2.009   9.567
  180SLPC   C1220540   5.556   1.958   9.781
  180SLPC  H12A20541   5.496   1.978   9.869
  180SLPC  H12B20542   5.575   2.053   9.733
  180SLPC   C1120543   5.693   1.907   9.834
  180SLPC  H11A20544   5.737   1.985   9.899
  180SLPC  H11B20545   5.762   1.896   9.748
  180SLPC     P20546   5.772   1.664   9.882
  180SLPC   O1320547   5.910   1.711   9.895
  180SLPC   O1420548   5.724   1.550   9.964
  180SLPC   O1220549   5.677   1.787   9.912
  180SLPC   O1120550   5.730   1.639   9.731
  180SLPC    C120551   5.707   1.504   9.690
  180SLPC    HA20552   5.794   1.440   9.718
  180SLPC    HB20553   5.618   1.460   9.740
  180SLPC    C220554   5.691   1.492   9.536
  180SLPC    HS20555   5.722   1.391   9.503
  180SLPC   O2120556   5.768   1.593   9.468
  180SLPC   C2120557   5.901   1.570   9.476
  180SLPC   O2220558   5.953   1.480   9.539
  180SLPC   C2220559   5.977   1.654   9.374
  180SLPC   H2R20560   6.082   1.619   9.381
  180SLPC   H2S20561   5.938   1.630   9.272
  180SLPC    C320562   5.542   1.499   9.493
  180SLPC    HX20563   5.496   1.589   9.539
  180SLPC    HY20564   5.490   1.411   9.537
  180SLPC   O3120565   5.528   1.509   9.349
  180SLPC   C3120566   5.482   1.401   9.285
  180SLPC   O3220567   5.449   1.297   9.339
  180SLPC   C3220568   5.470   1.428   9.134
  180SLPC   H2X20569   5.363   1.417   9.109
  180SLPC   H2Y20570   5.526   1.348   9.081
  180SLPC   C2320571   5.975   1.807   9.396
  180SLPC   H3R20572   6.041   1.853   9.320
  180SLPC   H3S20573   6.016   1.833   9.496
  180SLPC   C2420574   5.834   1.865   9.378
  180SLPC   H4R20575   5.795   1.887   9.480
  180SLPC   H4S20576   5.769   1.788   9.331
  180SLPC   C2520577   5.827   1.989   9.291
  180SLPC   H5R20578   5.885   1.973   9.198
  180SLPC   H5S20579   5.875   2.074   9.345
  180SLPC   C2620580   5.682   2.025   9.256
  180SLPC   H6R20581   5.681   2.132   9.225
  180SLPC   H6S20582   5.619   2.015   9.346
  180SLPC   C2720583   5.622   1.942   9.141
  180SLPC   H7R20584   5.515   1.921   9.164
  180SLPC   H7S20585   5.674   1.844   9.133
  180SLPC   C2820586   5.625   2.014   9.004
  180SLPC   H8R20587   5.559   2.102   9.008
  180SLPC   H8S20588   5.581   1.946   8.928
  180SLPC   C2920589   5.765   2.057   8.967
  180SLPC   H9R20590   5.808   2.136   9.030
  180SLPC  C21020591   5.840   2.009   8.866
  180SLPC  H10R20592   5.942   2.049   8.851
  180SLPC  C21120593   5.800   1.902   8.768
  180SLPC  H11R20594   5.873   1.902   8.684
  180SLPC  H11S20595   5.704   1.930   8.721
  180SLPC  C21220596   5.787   1.766   8.831
  180SLPC  H12R20597   5.721   1.760   8.919
  180SLPC  C21320598   5.847   1.653   8.789
  180SLPC  H13R20599   5.833   1.560   8.847
  180SLPC  C21420600   5.938   1.644   8.672
  180SLPC  H14R20601   5.997   1.550   8.678
  180SLPC  H14S20602   6.011   1.728   8.680
  180SLPC  C21520603   5.880   1.656   8.530
  180SLPC  H15R20604   5.826   1.753   8.518
  180SLPC  H15S20605   5.806   1.575   8.512
  180SLPC  C21620606   5.995   1.647   8.429
  180SLPC  H16R20607   6.058   1.560   8.457
  180SLPC  H16S20608   6.059   1.738   8.439
  180SLPC  C21720609   5.954   1.631   8.283
  180SLPC  H17R20610   5.894   1.538   8.272
  180SLPC  H17S20611   6.046   1.617   8.221
  180SLPC  C21820612   5.877   1.751   8.228
  180SLPC  H18R20613   5.935   1.844   8.241
  180SLPC  H18S20614   5.780   1.762   8.283
  180SLPC  H18T20615   5.855   1.737   8.120
  180SLPC   C3320616   5.520   1.568   9.089
  180SLPC   H3X20617   5.631   1.568   9.079
  180SLPC   H3Y20618   5.494   1.645   9.165
  180SLPC   C3420619   5.455   1.618   8.958
  180SLPC   H4X20620   5.483   1.724   8.946
  180SLPC   H4Y20621   5.345   1.614   8.971
  180SLPC   C3520622   5.497   1.539   8.833
  180SLPC   H5X20623   5.458   1.436   8.839
  180SLPC   H5Y20624   5.608   1.533   8.834
  180SLPC   C3620625   5.456   1.598   8.696
  180SLPC   H6X20626   5.354   1.563   8.667
  180SLPC   H6Y20627   5.525   1.554   8.620
  180SLPC   C3720628   5.462   1.751   8.683
  180SLPC   H7X20629   5.491   1.776   8.579
  180SLPC   H7Y20630   5.541   1.791   8.749
  180SLPC   C3820631   5.329   1.821   8.715
  180SLPC   H8X20632   5.344   1.890   8.801
  180SLPC   H8Y20633   5.254   1.745   8.745
  180SLPC   C3920634   5.271   1.900   8.597
  180SLPC   H9X20635   5.349   1.970   8.559
  180SLPC   H9Y20636   5.184   1.961   8.630
  180SLPC  C31020637   5.225   1.808   8.483
  180SLPC  H10X20638   5.129   1.757   8.510
  180SLPC  H10Y20639   5.301   1.728   8.470
  180SLPC  C31120640   5.205   1.881   8.351
  180SLPC  H11X20641   5.286   1.955   8.338
  180SLPC  H11Y20642   5.108   1.936   8.353
  180SLPC  C31220643   5.209   1.786   8.231
  180SLPC  H12X20644   5.186   1.843   8.139
  180SLPC  H12Y20645   5.130   1.708   8.241
  180SLPC  C31320646   5.346   1.720   8.216
  180SLPC  H13X20647   5.341   1.617   8.258
  180SLPC  H13Y20648   5.420   1.775   8.278
  180SLPC  C31420649   5.399   1.717   8.073
  180SLPC  H14X20650   5.403   1.821   8.033
  180SLPC  H14Y20651   5.329   1.659   8.009
  180SLPC  C31520652   5.538   1.655   8.067
  180SLPC  H15X20653   5.601   1.698   8.148
  180SLPC  H15Y20654   5.587   1.680   7.970
  180SLPC  C31620655   5.534   1.503   8.080
  180SLPC  H16X20656   5.495   1.462   7.984
  180SLPC  H16Y20657   5.462   1.473   8.159
  180SLPC  C31720658   5.670   1.440   8.113
  180SLPC  H17X20659   5.654   1.330   8.125
  180SLPC  H17Y20660   5.701   1.479   8.212
  180SLPC  C31820661   5.781   1.464   8.010
  180SLPC  H18X20662   5.877   1.421   8.046
  180SLPC  H18Y20663   5.796   1.572   7.991
  180SLPC  H18Z20664   5.755   1.415   7.914
  181SLPC     N20665   6.343   5.424   9.927
  181SLPC   C1320666   6.200   5.427   9.885
  181SLPC  H13A20667   6.198   5.418   9.777
  181SLPC  H13B20668   6.148   5.340   9.924
  181SLPC  H13C20669   6.150   5.517   9.916
  181SLPC   C1420670   6.354   5.427  10.076
  181SLPC  H14A20671   6.307   5.515  10.117
  181SLPC  H14B20672   6.310   5.339  10.119
  181SLPC  H14C20673   6.458   5.427  10.105
  181SLPC   C1520674   6.414   5.543   9.869
  181SLPC  H15A20675   6.421   5.532   9.762
  181SLPC  H15B20676   6.364   5.636   9.892
  181SLPC  H15C20677   6.517   5.549   9.902
  181SLPC   C1220678   6.409   5.298   9.869
  181SLPC  H12A20679   6.398   5.216   9.939
  181SLPC  H12B20680   6.515   5.317   9.859
  181SLPC   C1120681   6.359   5.248   9.731
  181SLPC  H11A20682   6.262   5.196   9.744
  181SLPC  H11B20683   6.429   5.171   9.692
  181SLPC     P20684   6.452   5.397   9.537
  181SLPC   O1320685   6.558   5.464   9.615
  181SLPC   O1420686   6.487   5.282   9.453
  181SLPC   O1220687   6.340   5.355   9.640
  181SLPC   O1120688   6.376   5.505   9.450
  181SLPC    C120689   6.276   5.591   9.503
  181SLPC    HA20690   6.303   5.630   9.603
  181SLPC    HB20691   6.268   5.679   9.435
  181SLPC    C220692   6.135   5.524   9.508
  181SLPC    HS20693   6.143   5.438   9.578
  181SLPC   O2120694   6.101   5.478   9.375
  181SLPC   C2120695   6.020   5.373   9.376
  181SLPC   O2220696   5.962   5.330   9.474
  181SLPC   C2220697   6.018   5.305   9.239
  181SLPC   H2R20698   6.116   5.322   9.189
  181SLPC   H2S20699   6.009   5.197   9.260
  181SLPC    C320700   6.029   5.621   9.567
  181SLPC    HX20701   6.051   5.632   9.675
  181SLPC    HY20702   5.927   5.577   9.559
  181SLPC   O3120703   6.040   5.751   9.505
  181SLPC   C3120704   5.979   5.758   9.388
  181SLPC   O3220705   5.885   5.691   9.351
  181SLPC   C3220706   6.049   5.864   9.304
  181SLPC   H2X20707   6.157   5.860   9.330
  181SLPC   H2Y20708   6.007   5.963   9.331
  181SLPC   C2320709   5.901   5.348   9.147
  181SLPC   H3R20710   5.805   5.351   9.203
  181SLPC   H3S20711   5.888   5.273   9.066
  181SLPC   C2420712   5.923   5.486   9.084
  181SLPC   H4R20713   5.971   5.550   9.162
  181SLPC   H4S20714   5.826   5.533   9.059
  181SLPC   C2520715   6.013   5.480   8.960
  181SLPC   H5R20716   6.095   5.408   8.979
  181SLPC   H5S20717   6.059   5.580   8.945
  181SLPC   C2620718   5.939   5.438   8.832
  181SLPC   H6R20719   5.889   5.340   8.850
  181SLPC   H6S20720   6.012   5.422   8.751
  181SLPC   C2720721   5.835   5.540   8.783
  181SLPC   H7R20722   5.754   5.544   8.858
  181SLPC   H7S20723   5.792   5.503   8.687
  181SLPC   C2820724   5.886   5.685   8.763
  181SLPC   H8R20725   5.901   5.731   8.863
  181SLPC   H8S20726   5.806   5.744   8.713
  181SLPC   C2920727   6.014   5.689   8.685
  181SLPC   H9R20728   6.105   5.697   8.746
  181SLPC  C21020729   6.027   5.681   8.551
  181SLPC  H10R20730   6.130   5.684   8.511
  181SLPC  C21120731   5.918   5.666   8.448
  181SLPC  H11R20732   5.818   5.687   8.492
  181SLPC  H11S20733   5.915   5.561   8.412
  181SLPC  C21220734   5.945   5.760   8.334
  181SLPC  H12R20735   6.019   5.838   8.354
  181SLPC  C21320736   5.888   5.761   8.212
  181SLPC  H13R20737   5.923   5.835   8.139
  181SLPC  C21420738   5.783   5.667   8.159
  181SLPC  H14R20739   5.685   5.691   8.204
  181SLPC  H14S20740   5.805   5.562   8.185
  181SLPC  C21520741   5.771   5.682   8.006
  181SLPC  H15R20742   5.736   5.784   7.980
  181SLPC  H15S20743   5.693   5.611   7.974
  181SLPC  C21620744   5.901   5.657   7.926
  181SLPC  H16R20745   5.965   5.588   7.986
  181SLPC  H16S20746   5.959   5.751   7.917
  181SLPC  C21720747   5.880   5.593   7.788
  181SLPC  H17R20748   5.843   5.490   7.809
  181SLPC  H17S20749   5.977   5.580   7.736
  181SLPC  C21820750   5.780   5.658   7.692
  181SLPC  H18R20751   5.833   5.730   7.626
  181SLPC  H18S20752   5.700   5.712   7.746
  181SLPC  H18T20753   5.734   5.582   7.626
  181SLPC   C3320754   6.031   5.839   9.152
  181SLPC   H3X20755   5.924   5.846   9.126
  181SLPC   H3Y20756   6.060   5.735   9.129
  181SLPC   C3420757   6.114   5.936   9.066
  181SLPC   H4X20758   6.085   6.041   9.089
  181SLPC   H4Y20759   6.092   5.916   8.959
  181SLPC   C3520760   6.266   5.927   9.087
  181SLPC   H5X20761   6.290   5.944   9.195
  181SLPC   H5Y20762   6.318   6.006   9.030
  181SLPC   C3620763   6.320   5.791   9.046
  181SLPC   H6X20764   6.331   5.790   8.935
  181SLPC   H6Y20765   6.246   5.712   9.069
  181SLPC   C3720766   6.449   5.748   9.117
  181SLPC   H7X20767   6.464   5.812   9.206
  181SLPC   H7Y20768   6.537   5.762   9.050
  181SLPC   C3820769   6.445   5.602   9.165
  181SLPC   H8X20770   6.347   5.582   9.212
  181SLPC   H8Y20771   6.522   5.588   9.244
  181SLPC   C3920772   6.471   5.496   9.055
  181SLPC   H9X20773   6.454   5.396   9.099
  181SLPC   H9Y20774   6.578   5.503   9.024
  181SLPC  C31020775   6.382   5.515   8.932
  181SLPC  H10X20776   6.410   5.610   8.882
  181SLPC  H10Y20777   6.276   5.522   8.965
  181SLPC  C31120778   6.395   5.407   8.825
  181SLPC  H11X20779   6.360   5.309   8.865
  181SLPC  H11Y20780   6.502   5.398   8.797
  181SLPC  C31220781   6.318   5.445   8.698
  181SLPC  H12X20782   6.363   5.536   8.655
  181SLPC  H12Y20783   6.213   5.470   8.724
  181SLPC  C31320784   6.321   5.332   8.596
  181SLPC  H13X20785   6.401   5.261   8.627
  181SLPC  H13Y20786   6.348   5.371   8.495
  181SLPC  C31420787   6.189   5.254   8.587
  181SLPC  H14X20788   6.122   5.305   8.514
  181SLPC  H14Y20789   6.138   5.254   8.685
  181SLPC  C31520790   6.215   5.109   8.547
  181SLPC  H15X20791   6.243   5.053   8.639
  181SLPC  H15Y20792   6.301   5.103   8.478
  181SLPC  C31620793   6.093   5.044   8.482
  181SLPC  H16X20794   6.000   5.089   8.523
  181SLPC  H16Y20795   6.090   4.936   8.509
  181SLPC  C31720796   6.095   5.055   8.329
  181SLPC  H17X20797   6.196   5.089   8.297
  181SLPC  H17Y20798   6.022   5.133   8.300
  181SLPC  C31820799   6.065   4.927   8.254
  181SLPC  H18X20800   6.144   4.851   8.274
  181SLPC  H18Y20801   6.058   4.945   8.145
  181SLPC  H18Z20802   5.969   4.884   8.290
  182SLPC     N20803   6.820   1.213   9.562
  182SLPC   C1320804   6.949   1.166   9.503
  182SLPC  H13A20805   7.025   1.242   9.507
  182SLPC  H13B20806   6.981   1.081   9.560
  182SLPC  H13C20807   6.936   1.134   9.400
  182SLPC   C1420808   6.719   1.105   9.549
  182SLPC  H14A20809   6.697   1.079   9.447
  182SLPC  H14B20810   6.756   1.018   9.601
  182SLPC  H14C20811   6.628   1.130   9.601
  182SLPC   C1520812   6.769   1.332   9.490
  182SLPC  H15A20813   6.670   1.360   9.525
  182SLPC  H15B20814   6.834   1.417   9.501
  182SLPC  H15C20815   6.758   1.310   9.385
  182SLPC   C1220816   6.839   1.238   9.710
  182SLPC  H12A20817   6.757   1.298   9.747
  182SLPC  H12B20818   6.929   1.295   9.726
  182SLPC   C1120819   6.844   1.110   9.800
  182SLPC  H11A20820   6.740   1.085   9.830
  182SLPC  H11B20821   6.896   1.139   9.893
  182SLPC     P20822   6.998   0.899   9.814
  182SLPC   O1320823   7.091   0.990   9.880
  182SLPC   O1420824   6.923   0.809   9.904
  182SLPC   O1220825   6.901   0.995   9.734
  182SLPC   O1120826   7.076   0.820   9.701
  182SLPC    C120827   7.032   0.693   9.650
  182SLPC    HA20828   7.052   0.612   9.724
  182SLPC    HB20829   6.923   0.695   9.629
  182SLPC    C220830   7.100   0.657   9.514
  182SLPC    HS20831   7.206   0.636   9.539
  182SLPC   O2120832   7.091   0.778   9.436
  182SLPC   C2120833   7.197   0.822   9.373
  182SLPC   O2220834   7.294   0.757   9.340
  182SLPC   C2220835   7.178   0.974   9.354
  182SLPC   H2R20836   7.079   0.992   9.307
  182SLPC   H2S20837   7.179   1.018   9.455
  182SLPC    C320838   7.044   0.525   9.442
  182SLPC    HX20839   7.068   0.441   9.511
  182SLPC    HY20840   7.107   0.514   9.351
  182SLPC   O3120841   6.902   0.517   9.407
  182SLPC   C3120842   6.866   0.410   9.331
  182SLPC   O3220843   6.944   0.321   9.302
  182SLPC   C3220844   6.718   0.409   9.274
  182SLPC   H2X20845   6.673   0.313   9.307
  182SLPC   H2Y20846   6.732   0.402   9.164
  182SLPC   C2320847   7.286   1.042   9.267
  182SLPC   H3R20848   7.289   0.998   9.165
  182SLPC   H3S20849   7.384   1.018   9.314
  182SLPC   C2420850   7.274   1.196   9.260
  182SLPC   H4R20851   7.366   1.234   9.210
  182SLPC   H4S20852   7.275   1.234   9.364
  182SLPC   C2520853   7.151   1.255   9.187
  182SLPC   H5R20854   7.130   1.352   9.235
  182SLPC   H5S20855   7.062   1.190   9.199
  182SLPC   C2620856   7.174   1.288   9.037
  182SLPC   H6R20857   7.274   1.334   9.026
  182SLPC   H6S20858   7.099   1.363   9.004
  182SLPC   C2720859   7.165   1.167   8.943
  182SLPC   H7R20860   7.229   1.088   8.987
  182SLPC   H7S20861   7.211   1.194   8.845
  182SLPC   C2820862   7.024   1.113   8.916
  182SLPC   H8R20863   6.996   1.134   8.810
  182SLPC   H8S20864   6.950   1.167   8.979
  182SLPC   C2920865   7.018   0.965   8.946
  182SLPC   H9R20866   7.010   0.943   9.053
  182SLPC  C21020867   7.033   0.862   8.861
  182SLPC  H10R20868   7.028   0.761   8.902
  182SLPC  C21120869   7.059   0.866   8.712
  182SLPC  H11R20870   7.095   0.966   8.680
  182SLPC  H11S20871   6.963   0.847   8.659
  182SLPC  C21220872   7.161   0.760   8.678
  182SLPC  H12R20873   7.239   0.744   8.753
  182SLPC  C21320874   7.167   0.685   8.567
  182SLPC  H13R20875   7.250   0.614   8.556
  182SLPC  C21420876   7.072   0.689   8.451
  182SLPC  H14R20877   6.987   0.758   8.469
  182SLPC  H14S20878   7.029   0.587   8.437
  182SLPC  C21520879   7.140   0.731   8.320
  182SLPC  H15R20880   7.193   0.828   8.333
  182SLPC  H15S20881   7.059   0.748   8.246
  182SLPC  C21620882   7.234   0.625   8.264
  182SLPC  H16R20883   7.178   0.529   8.259
  182SLPC  H16S20884   7.318   0.609   8.335
  182SLPC  C21720885   7.291   0.652   8.124
  182SLPC  H17R20886   7.207   0.644   8.053
  182SLPC  H17S20887   7.359   0.566   8.104
  182SLPC  C21820888   7.369   0.781   8.097
  182SLPC  H18R20889   7.359   0.852   8.182
  182SLPC  H18S20890   7.333   0.832   8.005
  182SLPC  H18T20891   7.477   0.761   8.083
  182SLPC   C3320892   6.617   0.527   9.301
  182SLPC   H3X20893   6.686   0.613   9.289
  182SLPC   H3Y20894   6.577   0.523   9.404
  182SLPC   C3420895   6.505   0.569   9.200
  182SLPC   H4X20896   6.408   0.521   9.228
  182SLPC   H4Y20897   6.534   0.530   9.101
  182SLPC   C3520898   6.476   0.723   9.187
  182SLPC   H5X20899   6.559   0.782   9.232
  182SLPC   H5Y20900   6.385   0.748   9.246
  182SLPC   C3620901   6.460   0.773   9.041
  182SLPC   H6X20902   6.355   0.808   9.025
  182SLPC   H6Y20903   6.475   0.684   8.977
  182SLPC   C3720904   6.556   0.881   8.985
  182SLPC   H7X20905   6.663   0.863   9.009
  182SLPC   H7Y20906   6.537   0.979   9.033
  182SLPC   C3820907   6.548   0.887   8.831
  182SLPC   H8X20908   6.453   0.935   8.801
  182SLPC   H8Y20909   6.546   0.782   8.793
  182SLPC   C3920910   6.664   0.956   8.757
  182SLPC   H9X20911   6.759   0.905   8.779
  182SLPC   H9Y20912   6.673   1.062   8.791
  182SLPC  C31020913   6.637   0.952   8.605
  182SLPC  H10X20914   6.537   0.997   8.588
  182SLPC  H10Y20915   6.631   0.846   8.573
  182SLPC  C31120916   6.738   1.025   8.515
  182SLPC  H11X20917   6.833   0.968   8.510
  182SLPC  H11Y20918   6.761   1.124   8.560
  182SLPC  C31220919   6.681   1.048   8.374
  182SLPC  H12X20920   6.584   1.101   8.384
  182SLPC  H12Y20921   6.659   0.950   8.326
  182SLPC  C31320922   6.772   1.130   8.282
  182SLPC  H13X20923   6.845   1.063   8.232
  182SLPC  H13Y20924   6.829   1.202   8.344
  182SLPC  C31420925   6.696   1.211   8.174
  182SLPC  H14X20926   6.626   1.280   8.227
  182SLPC  H14Y20927   6.634   1.143   8.111
  182SLPC  C31520928   6.789   1.296   8.086
  182SLPC  H15X20929   6.888   1.297   8.137
  182SLPC  H15Y20930   6.754   1.401   8.080
  182SLPC  C31620931   6.811   1.242   7.944
  182SLPC  H16X20932   6.739   1.286   7.872
  182SLPC  H16Y20933   6.788   1.133   7.947
  182SLPC  C31720934   6.957   1.255   7.894
  182SLPC  H17X20935   6.971   1.176   7.817
  182SLPC  H17Y20936   7.024   1.231   7.980
  182SLPC  C31820937   7.007   1.387   7.836
  182SLPC  H18X20938   6.992   1.471   7.907
  182SLPC  H18Y20939   6.960   1.411   7.739
  182SLPC  H18Z20940   7.115   1.378   7.814
  183SLPC     N20941   0.068   1.134   9.783
  183SLPC   C1320942   0.159   1.079   9.890
  183SLPC  H13A20943   0.126   0.983   9.926
  183SLPC  H13B20944   0.258   1.067   9.849
  183SLPC  H13C20945   0.170   1.147   9.973
  183SLPC   C1420946  -0.056   1.190   9.844
  183SLPC  H14A20947  -0.119   1.235   9.769
  183SLPC  H14B20948  -0.114   1.111   9.890
  183SLPC  H14C20949  -0.035   1.265   9.919
  183SLPC   C1520950   0.033   1.022   9.689
  183SLPC  H15A20951   0.122   0.982   9.642
  183SLPC  H15B20952  -0.014   0.939   9.740
  183SLPC  H15C20953  -0.034   1.054   9.611
  183SLPC   C1220954   0.139   1.247   9.712
  183SLPC  H12A20955   0.160   1.325   9.783
  183SLPC  H12B20956   0.072   1.290   9.639
  183SLPC   C1120957   0.272   1.212   9.646
  183SLPC  H11A20958   0.301   1.290   9.573
  183SLPC  H11B20959   0.259   1.119   9.587
  183SLPC     P20960   0.503   1.275   9.750
  183SLPC   O1320961   0.467   1.408   9.806
  183SLPC   O1420962   0.603   1.198   9.826
  183SLPC   O1220963   0.370   1.190   9.747
  183SLPC   O1120964   0.538   1.284   9.595
  183SLPC    C120965   0.660   1.220   9.551
  183SLPC    HA20966   0.744   1.277   9.596
  183SLPC    HB20967   0.668   1.115   9.587
  183SLPC    C220968   0.685   1.219   9.394
  183SLPC    HS20969   0.790   1.248   9.375
  183SLPC   O2120970   0.595   1.310   9.329
  183SLPC   C2120971   0.633   1.436   9.347
  183SLPC   O2220972   0.729   1.475   9.411
  183SLPC   C2220973   0.543   1.527   9.267
  183SLPC   H2R20974   0.438   1.490   9.272
  183SLPC   H2S20975   0.548   1.627   9.316
  183SLPC    C320976   0.673   1.075   9.333
  183SLPC    HX20977   0.582   1.028   9.376
  183SLPC    HY20978   0.758   1.013   9.368
  183SLPC   O3120979   0.665   1.072   9.188
  183SLPC   C3120980   0.660   0.946   9.143
  183SLPC   O3220981   0.671   0.846   9.212
  183SLPC   C3220982   0.622   0.945   8.994
  183SLPC   H2X20983   0.648   1.044   8.949
  183SLPC   H2Y20984   0.512   0.935   8.995
  183SLPC   C2320985   0.592   1.539   9.121
  183SLPC   H3R20986   0.702   1.544   9.116
  183SLPC   H3S20987   0.554   1.637   9.084
  183SLPC   C2420988   0.537   1.431   9.026
  183SLPC   H4R20989   0.480   1.481   8.945
  183SLPC   H4S20990   0.466   1.364   9.079
  183SLPC   C2520991   0.647   1.346   8.960
  183SLPC   H5R20992   0.662   1.255   9.022
  183SLPC   H5S20993   0.743   1.401   8.958
  183SLPC   C2620994   0.612   1.306   8.815
  183SLPC   H6R20995   0.504   1.281   8.809
  183SLPC   H6S20996   0.669   1.215   8.788
  183SLPC   C2720997   0.646   1.416   8.713
  183SLPC   H7R20998   0.756   1.429   8.710
  183SLPC   H7S20999   0.603   1.512   8.750
  183SLPC   C2821000   0.592   1.394   8.571
  183SLPC   H8R21001   0.615   1.485   8.511
  183SLPC   H8S21002   0.481   1.387   8.576
  183SLPC   C2921003   0.648   1.270   8.505
  183SLPC   H9R21004   0.631   1.178   8.563
  183SLPC  C21021005   0.712   1.261   8.387
  183SLPC  H10R21006   0.746   1.163   8.352
  183SLPC  C21121007   0.741   1.375   8.292
  183SLPC  H11R21008   0.803   1.447   8.348
  183SLPC  H11S21009   0.646   1.428   8.267
  183SLPC  C21221010   0.813   1.339   8.164
  183SLPC  H12R21011   0.921   1.356   8.168
  183SLPC  C21321012   0.763   1.289   8.049
  183SLPC  H13R21013   0.831   1.272   7.965
  183SLPC  C21421014   0.619   1.257   8.023
  183SLPC  H14R21015   0.567   1.250   8.121
  183SLPC  H14S21016   0.609   1.158   7.974
  183SLPC  C21521017   0.543   1.362   7.941
  183SLPC  H15R21018   0.568   1.464   7.976
  183SLPC  H15S21019   0.433   1.348   7.955
  183SLPC  C21621020   0.576   1.343   7.793
  183SLPC  H16R21021   0.523   1.252   7.758
  183SLPC  H16S21022   0.686   1.325   7.788
  183SLPC  C21721023   0.545   1.459   7.700
  183SLPC  H17R21024   0.438   1.486   7.713
  183SLPC  H17S21025   0.557   1.425   7.595
  183SLPC  C21821026   0.636   1.580   7.722
  183SLPC  H18R21027   0.742   1.552   7.706
  183SLPC  H18S21028   0.626   1.619   7.826
  183SLPC  H18T21029   0.611   1.662   7.651
  183SLPC   C3321030   0.682   0.830   8.910
  183SLPC   H3X21031   0.744   0.763   8.974
  183SLPC   H3Y21032   0.750   0.874   8.834
  183SLPC   C3421033   0.578   0.745   8.834
  183SLPC   H4X21034   0.476   0.773   8.868
  183SLPC   H4Y21035   0.592   0.638   8.861
  183SLPC   C3521036   0.586   0.756   8.681
  183SLPC   H5X21037   0.615   0.859   8.651
  183SLPC   H5Y21038   0.484   0.735   8.641
  183SLPC   C3621039   0.680   0.653   8.616
  183SLPC   H6X21040   0.642   0.550   8.636
  183SLPC   H6Y21041   0.780   0.661   8.664
  183SLPC   C3721042   0.697   0.670   8.464
  183SLPC   H7X21043   0.767   0.592   8.427
  183SLPC   H7Y21044   0.744   0.769   8.446
  183SLPC   C3821045   0.568   0.665   8.381
  183SLPC   H8X21046   0.500   0.745   8.417
  183SLPC   H8Y21047   0.517   0.568   8.395
  183SLPC   C3921048   0.596   0.689   8.231
  183SLPC   H9X21049   0.622   0.591   8.185
  183SLPC   H9Y21050   0.685   0.755   8.219
  183SLPC  C31021051   0.478   0.753   8.155
  183SLPC  H10X21052   0.384   0.733   8.210
  183SLPC  H10Y21053   0.469   0.703   8.057
  183SLPC  C31121054   0.493   0.905   8.127
  183SLPC  H11X21055   0.400   0.943   8.079
  183SLPC  H11Y21056   0.575   0.915   8.052
  183SLPC  C31221057   0.530   0.994   8.247
  183SLPC  H12X21058   0.606   1.069   8.215
  183SLPC  H12Y21059   0.580   0.932   8.325
  183SLPC  C31321060   0.411   1.067   8.313
  183SLPC  H13X21061   0.435   1.073   8.422
  183SLPC  H13Y21062   0.320   1.005   8.299
  183SLPC  C31421063   0.379   1.210   8.266
  183SLPC  H14X21064   0.357   1.208   8.157
  183SLPC  H14Y21065   0.467   1.275   8.284
  183SLPC  C31521066   0.263   1.283   8.338
  183SLPC  H15X21067   0.284   1.290   8.447
  183SLPC  H15Y21068   0.171   1.222   8.325
  183SLPC  C31621069   0.239   1.424   8.281
  183SLPC  H16X21070   0.135   1.455   8.304
  183SLPC  H16Y21071   0.250   1.419   8.171
  183SLPC  C31721072   0.336   1.531   8.334
  183SLPC  H17X21073   0.440   1.492   8.328
  183SLPC  H17Y21074   0.314   1.551   8.441
  183SLPC  C31821075   0.328   1.662   8.254
  183SLPC  H18X21076   0.358   1.643   8.148
  183SLPC  H18Y21077   0.397   1.738   8.296
  183SLPC  H18Z21078   0.225   1.702   8.255
  184SLPC     N21079   0.579   7.264   9.914
  184SLPC   C1321080   0.644   7.130   9.910
  184SLPC  H13A21081   0.590   7.069   9.838
  184SLPC  H13B21082   0.745   7.138   9.872
  184SLPC  H13C21083   0.643   7.082  10.007
  184SLPC   C1421084   0.656   7.355  10.005
  184SLPC  H14A21085   0.665   7.311  10.103
  184SLPC  H14B21086   0.755   7.374   9.967
  184SLPC  H14C21087   0.604   7.448  10.018
  184SLPC   C1521088   0.440   7.247   9.967
  184SLPC  H15A21089   0.392   7.343   9.981
  184SLPC  H15B21090   0.383   7.188   9.897
  184SLPC  H15C21091   0.441   7.196  10.062
  184SLPC   C1221092   0.575   7.319   9.772
  184SLPC  H12A21093   0.674   7.312   9.730
  184SLPC  H12B21094   0.548   7.424   9.775
  184SLPC   C1121095   0.483   7.248   9.672
  184SLPC  H11A21096   0.487   7.305   9.577
  184SLPC  H11B21097   0.377   7.250   9.707
  184SLPC     P21098   0.508   7.040   9.518
  184SLPC   O1321099   0.518   7.141   9.410
  184SLPC   O1421100   0.604   6.928   9.518
  184SLPC   O1221101   0.524   7.113   9.657
  184SLPC   O1121102   0.359   6.986   9.529
  184SLPC    C121103   0.334   6.883   9.625
  184SLPC    HA21104   0.365   6.786   9.582
  184SLPC    HB21105   0.392   6.897   9.719
  184SLPC    C221106   0.184   6.873   9.667
  184SLPC    HS21107   0.167   6.772   9.709
  184SLPC   O2121108   0.096   6.897   9.554
  184SLPC   C2121109   0.105   6.801   9.462
  184SLPC   O2221110   0.156   6.692   9.478
  184SLPC   C2221111   0.025   6.840   9.337
  184SLPC   H2R21112  -0.036   6.750   9.311
  184SLPC   H2S21113  -0.044   6.924   9.361
  184SLPC    C321114   0.149   6.974   9.781
  184SLPC    HX21115   0.209   6.945   9.870
  184SLPC    HY21116   0.042   6.957   9.804
  184SLPC   O3121117   0.177   7.112   9.749
  184SLPC   C3121118   0.088   7.202   9.787
  184SLPC   O3221119  -0.008   7.182   9.859
  184SLPC   C3221120   0.119   7.336   9.722
  184SLPC   H2X21121   0.214   7.376   9.764
  184SLPC   H2Y21122   0.037   7.407   9.746
  184SLPC   C2321123   0.114   6.877   9.216
  184SLPC   H3R21124   0.201   6.809   9.208
  184SLPC   H3S21125   0.154   6.979   9.232
  184SLPC   C2421126   0.036   6.870   9.084
  184SLPC   H4R21127  -0.071   6.896   9.104
  184SLPC   H4S21128   0.035   6.767   9.043
  184SLPC   C2521129   0.089   6.966   8.976
  184SLPC   H5R21130   0.178   7.016   9.018
  184SLPC   H5S21131   0.013   7.045   8.957
  184SLPC   C2621132   0.127   6.903   8.841
  184SLPC   H6R21133   0.221   6.844   8.851
  184SLPC   H6S21134   0.149   6.986   8.772
  184SLPC   C2721135   0.019   6.815   8.777
  184SLPC   H7R21136   0.018   6.715   8.825
  184SLPC   H7S21137   0.044   6.802   8.670
  184SLPC   C2821138  -0.120   6.880   8.793
  184SLPC   H8R21139  -0.103   6.989   8.781
  184SLPC   H8S21140  -0.155   6.863   8.896
  184SLPC   C2921141  -0.224   6.834   8.696
  184SLPC   H9R21142  -0.265   6.733   8.714
  184SLPC  C21021143  -0.267   6.905   8.591
  184SLPC  H10R21144  -0.343   6.861   8.525
  184SLPC  C21121145  -0.219   7.042   8.550
  184SLPC  H11R21146  -0.241   7.115   8.631
  184SLPC  H11S21147  -0.285   7.074   8.466
  184SLPC  C21221148  -0.075   7.065   8.509
  184SLPC  H12R21149  -0.011   7.112   8.585
  184SLPC  C21321150  -0.021   7.029   8.392
  184SLPC  H13R21151   0.085   7.048   8.372
  184SLPC  C21421152  -0.097   6.960   8.282
  184SLPC  H14R21153  -0.100   7.020   8.189
  184SLPC  H14S21154  -0.203   6.943   8.311
  184SLPC  C21521155  -0.037   6.822   8.253
  184SLPC  H15R21156   0.015   6.779   8.341
  184SLPC  H15S21157   0.039   6.834   8.173
  184SLPC  C21621158  -0.146   6.724   8.209
  184SLPC  H16R21159  -0.214   6.782   8.142
  184SLPC  H16S21160  -0.208   6.689   8.294
  184SLPC  C21721161  -0.093   6.608   8.126
  184SLPC  H17R21162  -0.013   6.650   8.062
  184SLPC  H17S21163  -0.175   6.578   8.057
  184SLPC  C21821164  -0.035   6.486   8.198
  184SLPC  H18R21165   0.052   6.514   8.261
  184SLPC  H18S21166   0.001   6.411   8.123
  184SLPC  H18T21167  -0.111   6.436   8.261
  184SLPC   C3321168   0.129   7.317   9.570
  184SLPC   H3X21169   0.033   7.275   9.534
  184SLPC   H3Y21170   0.207   7.242   9.544
  184SLPC   C3421171   0.159   7.443   9.490
  184SLPC   H4X21172   0.267   7.467   9.497
  184SLPC   H4Y21173   0.102   7.531   9.529
  184SLPC   C3521174   0.119   7.416   9.346
  184SLPC   H5X21175   0.013   7.445   9.331
  184SLPC   H5Y21176   0.131   7.306   9.329
  184SLPC   C3621177   0.205   7.480   9.239
  184SLPC   H6X21178   0.311   7.469   9.272
  184SLPC   H6Y21179   0.183   7.589   9.236
  184SLPC   C3721180   0.184   7.419   9.099
  184SLPC   H7X21181   0.229   7.488   9.025
  184SLPC   H7Y21182   0.075   7.419   9.077
  184SLPC   C3821183   0.239   7.276   9.071
  184SLPC   H8X21184   0.271   7.274   8.965
  184SLPC   H8Y21185   0.153   7.207   9.082
  184SLPC   C3921186   0.351   7.217   9.161
  184SLPC   H9X21187   0.303   7.163   9.245
  184SLPC   H9Y21188   0.409   7.299   9.208
  184SLPC  C31021189   0.458   7.123   9.098
  184SLPC  H10X21190   0.499   7.058   9.179
  184SLPC  H10Y21191   0.544   7.185   9.066
  184SLPC  C31121192   0.423   7.035   8.977
  184SLPC  H11X21193   0.349   7.088   8.915
  184SLPC  H11Y21194   0.377   6.940   9.013
  184SLPC  C31221195   0.545   7.002   8.889
  184SLPC  H12X21196   0.619   6.946   8.949
  184SLPC  H12Y21197   0.593   7.096   8.856
  184SLPC  C31321198   0.510   6.919   8.763
  184SLPC  H13X21199   0.456   6.828   8.797
  184SLPC  H13Y21200   0.604   6.886   8.714
  184SLPC  C31421201   0.424   6.995   8.661
  184SLPC  H14X21202   0.487   7.065   8.602
  184SLPC  H14Y21203   0.349   7.057   8.715
  184SLPC  C31521204   0.345   6.900   8.569
  184SLPC  H15X21205   0.257   6.954   8.528
  184SLPC  H15Y21206   0.305   6.817   8.631
  184SLPC  C31621207   0.428   6.841   8.455
  184SLPC  H16X21208   0.363   6.768   8.401
  184SLPC  H16Y21209   0.515   6.785   8.496
  184SLPC  C31721210   0.478   6.943   8.352
  184SLPC  H17X21211   0.526   6.887   8.269
  184SLPC  H17Y21212   0.556   7.007   8.398
  184SLPC  C31821213   0.365   7.031   8.297
  184SLPC  H18X21214   0.323   7.096   8.377
  184SLPC  H18Y21215   0.284   6.968   8.255
  184SLPC  H18Z21216   0.403   7.098   8.217
  185SLPC     N21217   3.726   2.509   6.098
  185SLPC   C1321218   3.849   2.574   6.153
  185SLPC  H13A21219   3.861   2.674   6.114
  185SLPC  H13B21220   3.839   2.583   6.260
  185SLPC  H13C21221   3.938   2.517   6.132
  185SLPC   C1421222   3.730   2.499   5.949
  185SLPC  H14A21223   3.727   2.597   5.903
  185SLPC  H14B21224   3.819   2.448   5.913
  185SLPC  H14C21225   3.643   2.448   5.911
  185SLPC   C1521226   3.607   2.592   6.138
  185SLPC  H15A21227   3.603   2.690   6.092
  185SLPC  H15B21228   3.516   2.538   6.119
  185SLPC  H15C21229   3.606   2.606   6.245
  185SLPC   C1221230   3.708   2.372   6.163
  185SLPC  H12A21231   3.716   2.387   6.270
  185SLPC  H12B21232   3.788   2.305   6.134
  185SLPC   C1121233   3.571   2.302   6.146
  185SLPC  H11A21234   3.580   2.194   6.171
  185SLPC  H11B21235   3.539   2.307   6.040
  185SLPC     P21236   3.487   2.375   6.386
  185SLPC   O1321237   3.603   2.465   6.410
  185SLPC   O1421238   3.357   2.410   6.444
  185SLPC   O1221239   3.470   2.361   6.228
  185SLPC   O1121240   3.530   2.230   6.430
  185SLPC    C121241   3.440   2.122   6.408
  185SLPC    HA21242   3.353   2.135   6.476
  185SLPC    HB21243   3.403   2.121   6.303
  185SLPC    C221244   3.503   1.981   6.434
  185SLPC    HS21245   3.430   1.903   6.402
  185SLPC   O2121246   3.534   1.967   6.574
  185SLPC   C2121247   3.424   1.941   6.647
  185SLPC   O2221248   3.313   1.921   6.601
  185SLPC   C2221249   3.457   1.943   6.796
  185SLPC   H2R21250   3.535   1.866   6.816
  185SLPC   H2S21251   3.496   2.044   6.821
  185SLPC    C321252   3.629   1.955   6.344
  185SLPC    HX21253   3.591   1.923   6.244
  185SLPC    HY21254   3.686   1.870   6.387
  185SLPC   O3121255   3.707   2.075   6.327
  185SLPC   C3121256   3.832   2.075   6.363
  185SLPC   O3221257   3.915   1.991   6.333
  185SLPC   C3221258   3.861   2.198   6.447
  185SLPC   H2X21259   3.779   2.272   6.434
  185SLPC   H2Y21260   3.957   2.243   6.412
  185SLPC   C2321261   3.332   1.914   6.883
  185SLPC   H3R21262   3.306   1.806   6.875
  185SLPC   H3S21263   3.245   1.971   6.844
  185SLPC   C2421264   3.348   1.953   7.031
  185SLPC   H4R21265   3.254   1.922   7.082
  185SLPC   H4S21266   3.355   2.063   7.040
  185SLPC   C2521267   3.468   1.886   7.101
  185SLPC   H5R21268   3.559   1.949   7.090
  185SLPC   H5S21269   3.487   1.791   7.047
  185SLPC   C2621270   3.440   1.857   7.249
  185SLPC   H6R21271   3.337   1.816   7.254
  185SLPC   H6S21272   3.439   1.953   7.306
  185SLPC   C2721273   3.530   1.755   7.322
  185SLPC   H7R21274   3.559   1.678   7.247
  185SLPC   H7S21275   3.469   1.704   7.399
  185SLPC   C2821276   3.660   1.803   7.387
  185SLPC   H8R21277   3.725   1.851   7.311
  185SLPC   H8S21278   3.716   1.713   7.422
  185SLPC   C2921279   3.628   1.893   7.503
  185SLPC   H9R21280   3.528   1.938   7.499
  185SLPC  C21021281   3.707   1.922   7.606
  185SLPC  H10R21282   3.666   1.987   7.685
  185SLPC  C21121283   3.847   1.873   7.630
  185SLPC  H11R21284   3.878   1.799   7.554
  185SLPC  H11S21285   3.849   1.819   7.727
  185SLPC  C21221286   3.947   1.986   7.631
  185SLPC  H12R21287   4.016   1.986   7.546
  185SLPC  C21321288   3.959   2.085   7.722
  185SLPC  H13R21289   4.036   2.162   7.707
  185SLPC  C21421290   3.874   2.105   7.845
  185SLPC  H14R21291   3.936   2.146   7.927
  185SLPC  H14S21292   3.833   2.008   7.882
  185SLPC  C21521293   3.755   2.200   7.820
  185SLPC  H15R21294   3.662   2.140   7.815
  185SLPC  H15S21295   3.764   2.253   7.723
  185SLPC  C21621296   3.740   2.306   7.930
  185SLPC  H16R21297   3.818   2.383   7.912
  185SLPC  H16S21298   3.763   2.261   8.029
  185SLPC  C21721299   3.600   2.370   7.937
  185SLPC  H17R21300   3.610   2.471   7.984
  185SLPC  H17S21301   3.538   2.309   8.006
  185SLPC  C21821302   3.525   2.383   7.804
  185SLPC  H18R21303   3.590   2.428   7.726
  185SLPC  H18S21304   3.435   2.447   7.816
  185SLPC  H18T21305   3.492   2.283   7.768
  185SLPC   C3321306   3.871   2.160   6.596
  185SLPC   H3X21307   3.957   2.091   6.608
  185SLPC   H3Y21308   3.779   2.105   6.627
  185SLPC   C3421309   3.891   2.280   6.689
  185SLPC   H4X21310   3.967   2.347   6.643
  185SLPC   H4Y21311   3.933   2.244   6.785
  185SLPC   C3521312   3.764   2.361   6.719
  185SLPC   H5X21313   3.712   2.393   6.626
  185SLPC   H5Y21314   3.798   2.452   6.773
  185SLPC   C3621315   3.666   2.290   6.814
  185SLPC   H6X21316   3.729   2.245   6.893
  185SLPC   H6Y21317   3.614   2.209   6.759
  185SLPC   C3721318   3.564   2.380   6.888
  185SLPC   H7X21319   3.469   2.385   6.829
  185SLPC   H7Y21320   3.604   2.483   6.895
  185SLPC   C3821321   3.538   2.327   7.031
  185SLPC   H8X21322   3.635   2.331   7.085
  185SLPC   H8Y21323   3.505   2.221   7.024
  185SLPC   C3921324   3.437   2.406   7.116
  185SLPC   H9X21325   3.336   2.396   7.071
  185SLPC   H9Y21326   3.465   2.513   7.112
  185SLPC  C31021327   3.434   2.362   7.265
  185SLPC  H10X21328   3.363   2.429   7.319
  185SLPC  H10Y21329   3.535   2.377   7.309
  185SLPC  C31121330   3.391   2.216   7.291
  185SLPC  H11X21331   3.469   2.149   7.248
  185SLPC  H11Y21332   3.298   2.197   7.233
  185SLPC  C31221333   3.365   2.180   7.440
  185SLPC  H12X21334   3.349   2.276   7.494
  185SLPC  H12Y21335   3.457   2.134   7.483
  185SLPC  C31321336   3.240   2.092   7.466
  185SLPC  H13X21337   3.188   2.076   7.369
  185SLPC  H13Y21338   3.171   2.150   7.531
  185SLPC  C31421339   3.258   1.953   7.532
  185SLPC  H14X21340   3.321   1.889   7.467
  185SLPC  H14Y21341   3.158   1.904   7.534
  185SLPC  C31521342   3.316   1.948   7.674
  185SLPC  H15X21343   3.244   1.991   7.746
  185SLPC  H15Y21344   3.409   2.010   7.678
  185SLPC  C31621345   3.351   1.803   7.713
  185SLPC  H16X21346   3.415   1.760   7.633
  185SLPC  H16Y21347   3.258   1.742   7.716
  185SLPC  C31721348   3.426   1.788   7.846
  185SLPC  H17X21349   3.513   1.856   7.847
  185SLPC  H17Y21350   3.466   1.684   7.851
  185SLPC  C31821351   3.338   1.812   7.970
  185SLPC  H18X21352   3.303   1.917   7.972
  185SLPC  H18Y21353   3.396   1.792   8.062
  185SLPC  H18Z21354   3.250   1.745   7.968
  186SLPC     N21355   3.538   5.110   6.334
  186SLPC   C1321356   3.579   5.126   6.190
  186SLPC  H13A21357   3.503   5.181   6.138
  186SLPC  H13B21358   3.672   5.180   6.180
  186SLPC  H13C21359   3.588   5.031   6.139
  186SLPC   C1421360   3.631   5.015   6.403
  186SLPC  H14A21361   3.732   5.052   6.405
  186SLPC  H14B21362   3.599   4.998   6.505
  186SLPC  H14C21363   3.632   4.920   6.352
  186SLPC   C1521364   3.400   5.052   6.332
  186SLPC  H15A21365   3.396   4.958   6.278
  186SLPC  H15B21366   3.359   5.039   6.431
  186SLPC  H15C21367   3.335   5.120   6.279
  186SLPC   C1221368   3.535   5.247   6.403
  186SLPC  H12A21369   3.635   5.276   6.428
  186SLPC  H12B21370   3.479   5.237   6.495
  186SLPC   C1121371   3.470   5.366   6.327
  186SLPC  H11A21372   3.525   5.388   6.234
  186SLPC  H11B21373   3.478   5.456   6.391
  186SLPC     P21374   3.263   5.345   6.164
  186SLPC   O1321375   3.306   5.465   6.089
  186SLPC   O1421376   3.289   5.215   6.100
  186SLPC   O1221377   3.332   5.340   6.306
  186SLPC   O1121378   3.108   5.352   6.201
  186SLPC    C121379   3.059   5.274   6.312
  186SLPC    HA21380   2.982   5.204   6.275
  186SLPC    HB21381   3.137   5.212   6.361
  186SLPC    C221382   2.994   5.361   6.424
  186SLPC    HS21383   2.915   5.423   6.375
  186SLPC   O2121384   3.093   5.444   6.489
  186SLPC   C2121385   3.039   5.540   6.564
  186SLPC   O2221386   2.920   5.566   6.569
  186SLPC   C2221387   3.148   5.608   6.647
  186SLPC   H2R21388   3.233   5.539   6.660
  186SLPC   H2S21389   3.183   5.695   6.586
  186SLPC    C321390   2.928   5.266   6.528
  186SLPC    HX21391   2.846   5.210   6.477
  186SLPC    HY21392   2.881   5.326   6.608
  186SLPC   O3121393   3.028   5.173   6.575
  186SLPC   C3121394   3.022   5.141   6.703
  186SLPC   O3221395   2.932   5.166   6.779
  186SLPC   C3221396   3.148   5.062   6.740
  186SLPC   H2X21397   3.176   4.997   6.654
  186SLPC   H2Y21398   3.120   4.998   6.827
  186SLPC   C2321399   3.097   5.660   6.784
  186SLPC   H3R21400   2.986   5.661   6.789
  186SLPC   H3S21401   3.130   5.766   6.793
  186SLPC   C2421402   3.153   5.586   6.908
  186SLPC   H4R21403   3.128   5.642   7.001
  186SLPC   H4S21404   3.264   5.587   6.900
  186SLPC   C2521405   3.107   5.440   6.925
  186SLPC   H5R21406   3.175   5.390   6.997
  186SLPC   H5S21407   3.119   5.392   6.826
  186SLPC   C2621408   2.962   5.414   6.970
  186SLPC   H6R21409   2.947   5.304   6.971
  186SLPC   H6S21410   2.892   5.456   6.895
  186SLPC   C2721411   2.919   5.462   7.110
  186SLPC   H7R21412   2.817   5.422   7.132
  186SLPC   H7S21413   2.907   5.572   7.104
  186SLPC   C2821414   3.012   5.426   7.228
  186SLPC   H8R21415   2.976   5.482   7.317
  186SLPC   H8S21416   3.113   5.467   7.207
  186SLPC   C2921417   3.020   5.278   7.255
  186SLPC   H9R21418   3.064   5.219   7.173
  186SLPC  C21021419   2.980   5.212   7.366
  186SLPC  H10R21420   2.995   5.104   7.371
  186SLPC  C21121421   2.916   5.273   7.489
  186SLPC  H11R21422   2.861   5.366   7.463
  186SLPC  H11S21423   2.996   5.304   7.559
  186SLPC  C21221424   2.819   5.178   7.557
  186SLPC  H12R21425   2.733   5.149   7.494
  186SLPC  C21321426   2.827   5.127   7.682
  186SLPC  H13R21427   2.747   5.059   7.715
  186SLPC  C21421428   2.933   5.154   7.785
  186SLPC  H14R21429   2.991   5.246   7.761
  186SLPC  H14S21430   3.007   5.070   7.785
  186SLPC  C21521431   2.879   5.169   7.929
  186SLPC  H15R21432   2.966   5.182   7.996
  186SLPC  H15S21433   2.826   5.076   7.960
  186SLPC  C21621434   2.785   5.289   7.941
  186SLPC  H16R21435   2.695   5.269   7.879
  186SLPC  H16S21436   2.838   5.378   7.901
  186SLPC  C21721437   2.737   5.328   8.081
  186SLPC  H17R21438   2.826   5.349   8.144
  186SLPC  H17S21439   2.681   5.243   8.127
  186SLPC  C21821440   2.649   5.453   8.079
  186SLPC  H18R21441   2.611   5.479   8.180
  186SLPC  H18S21442   2.562   5.439   8.012
  186SLPC  H18T21443   2.708   5.540   8.041
  186SLPC   C3321444   3.266   5.152   6.778
  186SLPC   H3X21445   3.229   5.223   6.855
  186SLPC   H3Y21446   3.301   5.212   6.691
  186SLPC   C3421447   3.381   5.075   6.844
  186SLPC   H4X21448   3.472   5.078   6.779
  186SLPC   H4Y21449   3.353   4.969   6.858
  186SLPC   C3521450   3.412   5.137   6.980
  186SLPC   H5X21451   3.319   5.134   7.041
  186SLPC   H5Y21452   3.438   5.244   6.967
  186SLPC   C3621453   3.525   5.069   7.058
  186SLPC   H6X21454   3.618   5.073   6.997
  186SLPC   H6Y21455   3.501   4.962   7.077
  186SLPC   C3721456   3.550   5.141   7.192
  186SLPC   H7X21457   3.558   5.250   7.170
  186SLPC   H7Y21458   3.648   5.109   7.234
  186SLPC   C3821459   3.440   5.116   7.296
  186SLPC   H8X21460   3.453   5.014   7.338
  186SLPC   H8Y21461   3.340   5.119   7.248
  186SLPC   C3921462   3.438   5.218   7.411
  186SLPC   H9X21463   3.537   5.222   7.460
  186SLPC   H9Y21464   3.364   5.185   7.486
  186SLPC  C31021465   3.398   5.359   7.362
  186SLPC  H10X21466   3.303   5.353   7.306
  186SLPC  H10Y21467   3.476   5.397   7.293
  186SLPC  C31121468   3.383   5.462   7.475
  186SLPC  H11X21469   3.377   5.563   7.430
  186SLPC  H11Y21470   3.473   5.457   7.540
  186SLPC  C31221471   3.258   5.443   7.561
  186SLPC  H12X21472   3.262   5.344   7.611
  186SLPC  H12Y21473   3.167   5.442   7.496
  186SLPC  C31321474   3.245   5.555   7.665
  186SLPC  H13X21475   3.184   5.636   7.620
  186SLPC  H13Y21476   3.345   5.598   7.688
  186SLPC  C31421477   3.181   5.508   7.796
  186SLPC  H14X21478   3.105   5.430   7.775
  186SLPC  H14Y21479   3.128   5.595   7.840
  186SLPC  C31521480   3.281   5.460   7.902
  186SLPC  H15X21481   3.224   5.428   7.992
  186SLPC  H15Y21482   3.346   5.545   7.932
  186SLPC  C31621483   3.373   5.344   7.860
  186SLPC  H16X21484   3.448   5.382   7.788
  186SLPC  H16Y21485   3.313   5.265   7.811
  186SLPC  C31721486   3.444   5.283   7.982
  186SLPC  H17X21487   3.372   5.218   8.036
  186SLPC  H17Y21488   3.473   5.364   8.051
  186SLPC  C31821489   3.569   5.202   7.945
  186SLPC  H18X21490   3.651   5.271   7.915
  186SLPC  H18Y21491   3.549   5.134   7.860
  186SLPC  H18Z21492   3.604   5.142   8.032
  187SLPC     N21493   3.495   1.427   6.099
  187SLPC   C1321494   3.407   1.311   6.132
  187SLPC  H13A21495   3.384   1.316   6.237
  187SLPC  H13B21496   3.313   1.318   6.079
  187SLPC  H13C21497   3.456   1.217   6.111
  187SLPC   C1421498   3.526   1.434   5.953
  187SLPC  H14A21499   3.576   1.345   5.919
  187SLPC  H14B21500   3.438   1.450   5.893
  187SLPC  H14C21501   3.593   1.516   5.932
  187SLPC   C1521502   3.622   1.412   6.177
  187SLPC  H15A21503   3.600   1.410   6.283
  187SLPC  H15B21504   3.675   1.321   6.152
  187SLPC  H15C21505   3.688   1.496   6.161
  187SLPC   C1221506   3.425   1.555   6.145
  187SLPC  H12A21507   3.392   1.613   6.060
  187SLPC  H12B21508   3.497   1.617   6.197
  187SLPC   C1121509   3.306   1.541   6.244
  187SLPC  H11A21510   3.221   1.488   6.196
  187SLPC  H11B21511   3.269   1.643   6.267
  187SLPC     P21512   3.445   1.547   6.463
  187SLPC   O1321513   3.502   1.665   6.394
  187SLPC   O1421514   3.383   1.564   6.596
  187SLPC   O1221515   3.344   1.474   6.364
  187SLPC   O1121516   3.558   1.437   6.469
  187SLPC    C121517   3.688   1.471   6.519
  187SLPC    HA21518   3.753   1.506   6.436
  187SLPC    HB21519   3.685   1.551   6.596
  187SLPC    C221520   3.750   1.346   6.584
  187SLPC    HS21521   3.719   1.260   6.522
  187SLPC   O2121522   3.700   1.338   6.717
  187SLPC   C2121523   3.690   1.218   6.768
  187SLPC   O2221524   3.702   1.112   6.708
  187SLPC   C2221525   3.660   1.239   6.916
  187SLPC   H2R21526   3.744   1.296   6.962
  187SLPC   H2S21527   3.568   1.301   6.918
  187SLPC    C321528   3.906   1.348   6.587
  187SLPC    HX21529   3.942   1.384   6.488
  187SLPC    HY21530   3.940   1.243   6.599
  187SLPC   O3121531   3.959   1.435   6.689
  187SLPC   C3121532   4.002   1.376   6.799
  187SLPC   O3221533   3.994   1.257   6.826
  187SLPC   C3221534   4.064   1.482   6.890
  187SLPC   H2X21535   3.993   1.568   6.890
  187SLPC   H2Y21536   4.160   1.516   6.846
  187SLPC   C2321537   3.631   1.112   6.997
  187SLPC   H3R21538   3.562   1.054   6.932
  187SLPC   H3S21539   3.577   1.136   7.091
  187SLPC   C2421540   3.754   1.028   7.028
  187SLPC   H4R21541   3.805   1.011   6.931
  187SLPC   H4S21542   3.722   0.930   7.069
  187SLPC   C2521543   3.855   1.090   7.125
  187SLPC   H5R21544   3.869   1.198   7.104
  187SLPC   H5S21545   3.953   1.042   7.108
  187SLPC   C2621546   3.816   1.069   7.272
  187SLPC   H6R21547   3.766   0.971   7.284
  187SLPC   H6S21548   3.742   1.148   7.299
  187SLPC   C2721549   3.934   1.075   7.370
  187SLPC   H7R21550   3.999   0.987   7.354
  187SLPC   H7S21551   3.892   1.068   7.473
  187SLPC   C2821552   4.020   1.202   7.359
  187SLPC   H8R21553   4.079   1.196   7.265
  187SLPC   H8S21554   4.094   1.205   7.442
  187SLPC   C2921555   3.937   1.327   7.356
  187SLPC   H9R21556   3.909   1.360   7.255
  187SLPC  C21021557   3.890   1.398   7.460
  187SLPC  H10R21558   3.831   1.489   7.439
  187SLPC  C21121559   3.910   1.364   7.605
  187SLPC  H11R21560   4.019   1.368   7.628
  187SLPC  H11S21561   3.878   1.259   7.623
  187SLPC  C21221562   3.832   1.455   7.696
  187SLPC  H12R21563   3.739   1.497   7.653
  187SLPC  C21321564   3.865   1.486   7.822
  187SLPC  H13R21565   3.804   1.560   7.875
  187SLPC  C21421566   3.985   1.435   7.896
  187SLPC  H14R21567   4.061   1.517   7.903
  187SLPC  H14S21568   4.035   1.351   7.844
  187SLPC  C21521569   3.956   1.392   8.041
  187SLPC  H15R21570   3.898   1.469   8.096
  187SLPC  H15S21571   4.054   1.384   8.093
  187SLPC  C21621572   3.888   1.255   8.053
  187SLPC  H16R21573   3.916   1.194   7.964
  187SLPC  H16S21574   3.777   1.266   8.051
  187SLPC  C21721575   3.934   1.181   8.179
  187SLPC  H17R21576   4.045   1.171   8.171
  187SLPC  H17S21577   3.892   1.078   8.177
  187SLPC  C21821578   3.901   1.246   8.313
  187SLPC  H18R21579   3.948   1.189   8.396
  187SLPC  H18S21580   3.791   1.247   8.330
  187SLPC  H18T21581   3.939   1.351   8.316
  187SLPC   C3321582   4.087   1.430   7.034
  187SLPC   H3X21583   4.178   1.368   7.037
  187SLPC   H3Y21584   4.004   1.363   7.063
  187SLPC   C3421585   4.100   1.542   7.139
  187SLPC   H4X21586   4.194   1.598   7.117
  187SLPC   H4Y21587   4.112   1.496   7.239
  187SLPC   C3521588   3.984   1.643   7.142
  187SLPC   H5X21589   3.996   1.710   7.054
  187SLPC   H5Y21590   3.994   1.709   7.232
  187SLPC   C3621591   3.842   1.583   7.142
  187SLPC   H6X21592   3.806   1.581   7.247
  187SLPC   H6Y21593   3.843   1.479   7.103
  187SLPC   C3721594   3.742   1.658   7.053
  187SLPC   H7X21595   3.699   1.746   7.106
  187SLPC   H7Y21596   3.804   1.699   6.971
  187SLPC   C3821597   3.634   1.574   6.980
  187SLPC   H8X21598   3.688   1.494   6.925
  187SLPC   H8Y21599   3.591   1.639   6.900
  187SLPC   C3921600   3.515   1.517   7.059
  187SLPC   H9X21601   3.451   1.456   6.991
  187SLPC   H9Y21602   3.449   1.600   7.091
  187SLPC  C31021603   3.550   1.434   7.183
  187SLPC  H10X21604   3.634   1.483   7.237
  187SLPC  H10Y21605   3.587   1.333   7.156
  187SLPC  C31121606   3.437   1.426   7.287
  187SLPC  H11X21607   3.357   1.357   7.252
  187SLPC  H11Y21608   3.391   1.526   7.299
  187SLPC  C31221609   3.493   1.380   7.422
  187SLPC  H12X21610   3.426   1.413   7.504
  187SLPC  H12Y21611   3.592   1.426   7.441
  187SLPC  C31321612   3.504   1.228   7.423
  187SLPC  H13X21613   3.550   1.193   7.328
  187SLPC  H13Y21614   3.400   1.189   7.421
  187SLPC  C31421615   3.580   1.168   7.542
  187SLPC  H14X21616   3.543   1.215   7.636
  187SLPC  H14Y21617   3.688   1.191   7.533
  187SLPC  C31521618   3.560   1.016   7.548
  187SLPC  H15X21619   3.594   0.972   7.452
  187SLPC  H15Y21620   3.451   0.996   7.556
  187SLPC  C31621621   3.631   0.947   7.664
  187SLPC  H16X21622   3.741   0.954   7.651
  187SLPC  H16Y21623   3.603   0.839   7.659
  187SLPC  C31721624   3.592   0.995   7.804
  187SLPC  H17X21625   3.634   1.097   7.820
  187SLPC  H17Y21626   3.640   0.928   7.878
  187SLPC  C31821627   3.441   0.998   7.829
  187SLPC  H18X21628   3.394   1.077   7.767
  187SLPC  H18Y21629   3.418   1.020   7.935
  187SLPC  H18Z21630   3.395   0.901   7.801
  188SLPC     N21631   5.813   3.374   6.447
  188SLPC   C1321632   5.744   3.409   6.320
  188SLPC  H13A21633   5.753   3.324   6.253
  188SLPC  H13B21634   5.638   3.426   6.334
  188SLPC  H13C21635   5.789   3.494   6.272
  188SLPC   C1421636   5.784   3.477   6.551
  188SLPC  H14A21637   5.815   3.574   6.516
  188SLPC  H14B21638   5.678   3.481   6.573
  188SLPC  H14C21639   5.839   3.456   6.642
  188SLPC   C1521640   5.959   3.377   6.414
  188SLPC  H15A21641   6.024   3.352   6.497
  188SLPC  H15B21642   5.982   3.304   6.338
  188SLPC  H15C21643   5.993   3.473   6.377
  188SLPC   C1221644   5.770   3.235   6.489
  188SLPC  H12A21645   5.662   3.232   6.496
  188SLPC  H12B21646   5.811   3.213   6.586
  188SLPC   C1121647   5.810   3.119   6.394
  188SLPC  H11A21648   5.769   3.025   6.439
  188SLPC  H11B21649   5.921   3.110   6.394
  188SLPC     P21650   5.806   3.033   6.150
  188SLPC   O1321651   5.695   3.009   6.056
  188SLPC   O1421652   5.934   3.082   6.092
  188SLPC   O1221653   5.759   3.136   6.262
  188SLPC   O1121654   5.834   2.906   6.239
  188SLPC    C121655   5.790   2.774   6.205
  188SLPC    HA21656   5.706   2.774   6.133
  188SLPC    HB21657   5.874   2.719   6.158
  188SLPC    C221658   5.745   2.690   6.330
  188SLPC    HS21659   5.708   2.593   6.291
  188SLPC   O2121660   5.641   2.758   6.404
  188SLPC   C2121661   5.523   2.760   6.347
  188SLPC   O2221662   5.491   2.713   6.240
  188SLPC   C2221663   5.425   2.822   6.447
  188SLPC   H2R21664   5.322   2.806   6.408
  188SLPC   H2S21665   5.436   2.763   6.541
  188SLPC    C321666   5.862   2.658   6.428
  188SLPC    HX21667   5.953   2.633   6.370
  188SLPC    HY21668   5.832   2.564   6.480
  188SLPC   O3121669   5.885   2.758   6.531
  188SLPC   C3121670   5.980   2.846   6.507
  188SLPC   O3221671   6.051   2.850   6.408
  188SLPC   C3221672   5.990   2.941   6.628
  188SLPC   H2X21673   5.995   2.880   6.720
  188SLPC   H2Y21674   5.896   3.000   6.630
  188SLPC   C2321675   5.451   2.972   6.475
  188SLPC   H3R21676   5.377   3.032   6.418
  188SLPC   H3S21677   5.551   3.001   6.436
  188SLPC   C2421678   5.445   3.009   6.624
  188SLPC   H4R21679   5.345   2.981   6.664
  188SLPC   H4S21680   5.456   3.119   6.633
  188SLPC   C2521681   5.554   2.942   6.709
  188SLPC   H5R21682   5.653   2.956   6.661
  188SLPC   H5S21683   5.537   2.832   6.715
  188SLPC   C2621684   5.559   2.998   6.852
  188SLPC   H6R21685   5.458   2.995   6.897
  188SLPC   H6S21686   5.590   3.105   6.847
  188SLPC   C2721687   5.655   2.921   6.944
  188SLPC   H7R21688   5.751   2.905   6.891
  188SLPC   H7S21689   5.612   2.821   6.965
  188SLPC   C2821690   5.679   2.994   7.078
  188SLPC   H8R21691   5.582   3.003   7.130
  188SLPC   H8S21692   5.711   3.099   7.057
  188SLPC   C2921693   5.784   2.928   7.165
  188SLPC   H9R21694   5.889   2.953   7.143
  188SLPC  C21021695   5.755   2.842   7.263
  188SLPC  H10R21696   5.836   2.798   7.323
  188SLPC  C21121697   5.614   2.802   7.296
  188SLPC  H11R21698   5.561   2.777   7.201
  188SLPC  H11S21699   5.559   2.891   7.335
  188SLPC  C21221700   5.599   2.684   7.387
  188SLPC  H12R21701   5.635   2.588   7.347
  188SLPC  C21321702   5.543   2.686   7.509
  188SLPC  H13R21703   5.526   2.590   7.560
  188SLPC  C21421704   5.485   2.807   7.577
  188SLPC  H14R21705   5.377   2.817   7.552
  188SLPC  H14S21706   5.533   2.901   7.541
  188SLPC  C21521707   5.498   2.807   7.729
  188SLPC  H15R21708   5.607   2.814   7.754
  188SLPC  H15S21709   5.461   2.712   7.772
  188SLPC  C21621710   5.420   2.924   7.791
  188SLPC  H16R21711   5.342   2.883   7.858
  188SLPC  H16S21712   5.368   2.980   7.711
  188SLPC  C21721713   5.507   3.023   7.870
  188SLPC  H17R21714   5.439   3.100   7.911
  188SLPC  H17S21715   5.576   3.075   7.800
  188SLPC  C21821716   5.588   2.959   7.983
  188SLPC  H18R21717   5.522   2.899   8.049
  188SLPC  H18S21718   5.639   3.036   8.044
  188SLPC  H18T21719   5.665   2.890   7.943
  188SLPC   C3321720   6.113   3.036   6.621
  188SLPC   H3X21721   6.132   3.065   6.516
  188SLPC   H3Y21722   6.203   2.983   6.657
  188SLPC   C3421723   6.098   3.169   6.699
  188SLPC   H4X21724   6.016   3.230   6.655
  188SLPC   H4Y21725   6.192   3.225   6.681
  188SLPC   C3521726   6.082   3.157   6.851
  188SLPC   H5X21727   6.122   3.250   6.897
  188SLPC   H5Y21728   6.144   3.072   6.888
  188SLPC   C3621729   5.937   3.142   6.902
  188SLPC   H6X21730   5.941   3.123   7.011
  188SLPC   H6Y21731   5.893   3.052   6.854
  188SLPC   C3721732   5.845   3.263   6.876
  188SLPC   H7X21733   5.742   3.239   6.910
  188SLPC   H7Y21734   5.839   3.280   6.766
  188SLPC   C3821735   5.887   3.394   6.944
  188SLPC   H8X21736   5.813   3.472   6.916
  188SLPC   H8Y21737   5.986   3.424   6.904
  188SLPC   C3921738   5.897   3.391   7.098
  188SLPC   H9X21739   5.950   3.483   7.130
  188SLPC   H9Y21740   5.959   3.305   7.131
  188SLPC  C31021741   5.762   3.388   7.172
  188SLPC  H10X21742   5.713   3.290   7.157
  188SLPC  H10Y21743   5.695   3.467   7.132
  188SLPC  C31121744   5.783   3.413   7.323
  188SLPC  H11X21745   5.829   3.513   7.335
  188SLPC  H11Y21746   5.855   3.339   7.361
  188SLPC  C31221747   5.654   3.409   7.407
  188SLPC  H12X21748   5.583   3.485   7.370
  188SLPC  H12Y21749   5.681   3.437   7.512
  188SLPC  C31321750   5.584   3.273   7.411
  188SLPC  H13X21751   5.538   3.252   7.312
  188SLPC  H13Y21752   5.501   3.278   7.485
  188SLPC  C31421753   5.674   3.154   7.447
  188SLPC  H14X21754   5.743   3.132   7.363
  188SLPC  H14Y21755   5.608   3.065   7.458
  188SLPC  C31521756   5.757   3.168   7.576
  188SLPC  H15X21757   5.695   3.217   7.654
  188SLPC  H15Y21758   5.844   3.234   7.556
  188SLPC  C31621759   5.806   3.033   7.628
  188SLPC  H16X21760   5.841   2.970   7.543
  188SLPC  H16Y21761   5.721   2.979   7.674
  188SLPC  C31721762   5.919   3.045   7.731
  188SLPC  H17X21763   5.895   3.126   7.802
  188SLPC  H17Y21764   6.012   3.073   7.677
  188SLPC  C31821765   5.942   2.915   7.809
  188SLPC  H18X21766   6.030   2.925   7.876
  188SLPC  H18Y21767   5.960   2.830   7.740
  188SLPC  H18Z21768   5.854   2.891   7.872
  189SLPC     N21769   6.560   3.600   6.152
  189SLPC   C1321770   6.494   3.711   6.077
  189SLPC  H13A21771   6.470   3.681   5.975
  189SLPC  H13B21772   6.401   3.738   6.125
  189SLPC  H13C21773   6.556   3.799   6.071
  189SLPC   C1421774   6.585   3.647   6.292
  189SLPC  H14A21775   6.490   3.665   6.340
  189SLPC  H14B21776   6.630   3.567   6.350
  189SLPC  H14C21777   6.646   3.735   6.297
  189SLPC   C1521778   6.692   3.568   6.088
  189SLPC  H15A21779   6.757   3.654   6.089
  189SLPC  H15B21780   6.741   3.487   6.139
  189SLPC  H15C21781   6.678   3.542   5.984
  189SLPC   C1221782   6.472   3.476   6.158
  189SLPC  H12A21783   6.518   3.407   6.227
  189SLPC  H12B21784   6.468   3.430   6.061
  189SLPC   C1121785   6.326   3.493   6.208
  189SLPC  H11A21786   6.273   3.396   6.201
  189SLPC  H11B21787   6.272   3.563   6.141
  189SLPC     P21788   6.341   3.452   6.468
  189SLPC   O1321789   6.361   3.540   6.584
  189SLPC   O1421790   6.231   3.354   6.473
  189SLPC   O1221791   6.321   3.545   6.341
  189SLPC   O1121792   6.477   3.376   6.435
  189SLPC    C121793   6.478   3.232   6.436
  189SLPC    HA21794   6.433   3.192   6.529
  189SLPC    HB21795   6.418   3.194   6.351
  189SLPC    C221796   6.622   3.173   6.421
  189SLPC    HS21797   6.611   3.075   6.369
  189SLPC   O2121798   6.683   3.158   6.552
  189SLPC   C2121799   6.659   3.040   6.610
  189SLPC   O2221800   6.597   2.949   6.558
  189SLPC   C2221801   6.724   3.027   6.749
  189SLPC   H2R21802   6.726   3.128   6.795
  189SLPC   H2S21803   6.653   2.964   6.807
  189SLPC    C321804   6.713   3.259   6.326
  189SLPC    HX21805   6.660   3.264   6.228
  189SLPC    HY21806   6.809   3.207   6.306
  189SLPC   O3121807   6.737   3.394   6.371
  189SLPC   C3121808   6.829   3.404   6.466
  189SLPC   O3221809   6.906   3.315   6.501
  189SLPC   C3221810   6.826   3.547   6.519
  189SLPC   H2X21811   6.723   3.587   6.510
  189SLPC   H2Y21812   6.896   3.607   6.457
  189SLPC   C2321813   6.865   2.959   6.755
  189SLPC   H3R21814   6.943   3.038   6.744
  189SLPC   H3S21815   6.879   2.891   6.668
  189SLPC   C2421816   6.890   2.873   6.881
  189SLPC   H4R21817   6.858   2.771   6.854
  189SLPC   H4S21818   6.820   2.900   6.964
  189SLPC   C2521819   7.036   2.859   6.933
  189SLPC   H5R21820   7.098   2.841   6.842
  189SLPC   H5S21821   7.038   2.768   6.996
  189SLPC   C2621822   7.116   2.965   7.014
  189SLPC   H6R21823   7.099   3.069   6.978
  189SLPC   H6S21824   7.222   2.942   6.992
  189SLPC   C2721825   7.110   2.954   7.167
  189SLPC   H7R21826   7.193   2.890   7.203
  189SLPC   H7S21827   7.017   2.897   7.188
  189SLPC   C2821828   7.105   3.083   7.252
  189SLPC   H8R21829   7.105   3.052   7.359
  189SLPC   H8S21830   7.004   3.126   7.235
  189SLPC   C2921831   7.205   3.194   7.236
  189SLPC   H9R21832   7.292   3.172   7.172
  189SLPC  C21021833   7.192   3.316   7.292
  189SLPC  H10R21834   7.270   3.391   7.274
  189SLPC  C21121835   7.077   3.363   7.380
  189SLPC  H11R21836   7.111   3.355   7.486
  189SLPC  H11S21837   6.990   3.294   7.373
  189SLPC  C21221838   7.034   3.506   7.357
  189SLPC  H12R21839   7.117   3.576   7.337
  189SLPC  C21321840   6.909   3.556   7.361
  189SLPC  H13R21841   6.895   3.664   7.344
  189SLPC  C21421842   6.780   3.482   7.388
  189SLPC  H14R21843   6.789   3.373   7.366
  189SLPC  H14S21844   6.701   3.521   7.321
  189SLPC  C21521845   6.731   3.497   7.534
  189SLPC  H15R21846   6.625   3.465   7.538
  189SLPC  H15S21847   6.733   3.604   7.564
  189SLPC  C21621848   6.813   3.411   7.632
  189SLPC  H16R21849   6.918   3.446   7.633
  189SLPC  H16S21850   6.812   3.307   7.594
  189SLPC  C21721851   6.760   3.410   7.776
  189SLPC  H17R21852   6.651   3.391   7.776
  189SLPC  H17S21853   6.774   3.510   7.823
  189SLPC  C21821854   6.828   3.303   7.862
  189SLPC  H18R21855   6.928   3.338   7.895
  189SLPC  H18S21856   6.842   3.209   7.803
  189SLPC  H18T21857   6.766   3.279   7.950
  189SLPC   C3321858   6.868   3.553   6.667
  189SLPC   H3X21859   6.889   3.658   6.696
  189SLPC   H3Y21860   6.965   3.499   6.677
  189SLPC   C3421861   6.765   3.494   6.763
  189SLPC   H4X21862   6.811   3.492   6.864
  189SLPC   H4Y21863   6.741   3.390   6.732
  189SLPC   C3521864   6.634   3.570   6.775
  189SLPC   H5X21865   6.573   3.551   6.683
  189SLPC   H5Y21866   6.655   3.679   6.776
  189SLPC   C3621867   6.552   3.530   6.899
  189SLPC   H6X21868   6.464   3.598   6.904
  189SLPC   H6Y21869   6.612   3.545   6.992
  189SLPC   C3721870   6.502   3.385   6.893
  189SLPC   H7X21871   6.581   3.314   6.926
  189SLPC   H7Y21872   6.481   3.364   6.786
  189SLPC   C3821873   6.371   3.360   6.969
  189SLPC   H8X21874   6.331   3.263   6.933
  189SLPC   H8Y21875   6.298   3.439   6.940
  189SLPC   C3921876   6.379   3.353   7.122
  189SLPC   H9X21877   6.426   3.444   7.164
  189SLPC   H9Y21878   6.443   3.266   7.150
  189SLPC  C31021879   6.238   3.334   7.182
  189SLPC  H10X21880   6.187   3.257   7.120
  189SLPC  H10Y21881   6.181   3.429   7.172
  189SLPC  C31121882   6.233   3.285   7.327
  189SLPC  H11X21883   6.305   3.201   7.338
  189SLPC  H11Y21884   6.132   3.244   7.347
  189SLPC  C31221885   6.261   3.393   7.432
  189SLPC  H12X21886   6.189   3.477   7.419
  189SLPC  H12Y21887   6.363   3.435   7.415
  189SLPC  C31321888   6.250   3.342   7.577
  189SLPC  H13X21889   6.143   3.321   7.600
  189SLPC  H13Y21890   6.284   3.422   7.646
  189SLPC  C31421891   6.332   3.215   7.606
  189SLPC  H14X21892   6.293   3.131   7.544
  189SLPC  H14Y21893   6.319   3.185   7.713
  189SLPC  C31521894   6.480   3.236   7.578
  189SLPC  H15X21895   6.522   3.304   7.654
  189SLPC  H15Y21896   6.492   3.285   7.479
  189SLPC  C31621897   6.564   3.109   7.568
  189SLPC  H16X21898   6.662   3.142   7.527
  189SLPC  H16Y21899   6.516   3.040   7.496
  189SLPC  C31721900   6.594   3.035   7.698
  189SLPC  H17X21901   6.500   3.024   7.756
  189SLPC  H17Y21902   6.662   3.097   7.760
  189SLPC  C31821903   6.657   2.897   7.676
  189SLPC  H18X21904   6.627   2.825   7.754
  189SLPC  H18Y21905   6.768   2.905   7.678
  189SLPC  H18Z21906   6.626   2.854   7.578
  190SLPC     N21907   6.916   2.824   6.352
  190SLPC   C1321908   7.039   2.831   6.436
  190SLPC  H13A21909   7.052   2.742   6.496
  190SLPC  H13B21910   7.127   2.839   6.374
  190SLPC  H13C21911   7.038   2.917   6.502
  190SLPC   C1421912   6.893   2.963   6.302
  190SLPC  H14A21913   6.980   2.996   6.248
  190SLPC  H14B21914   6.811   2.968   6.232
  190SLPC  H14C21915   6.880   3.034   6.383
  190SLPC   C1521916   6.801   2.781   6.434
  190SLPC  H15A21917   6.814   2.680   6.470
  190SLPC  H15B21918   6.785   2.847   6.519
  190SLPC  H15C21919   6.709   2.784   6.377
  190SLPC   C1221920   6.928   2.724   6.236
  190SLPC  H12A21921   6.835   2.724   6.181
  190SLPC  H12B21922   6.938   2.624   6.275
  190SLPC   C1121923   7.040   2.744   6.131
  190SLPC  H11A21924   7.031   2.663   6.056
  190SLPC  H11B21925   7.138   2.729   6.180
  190SLPC     P21926   7.142   2.976   6.052
  190SLPC   O1321927   7.161   2.994   5.906
  190SLPC   O1421928   7.096   3.093   6.129
  190SLPC   O1221929   7.026   2.869   6.066
  190SLPC   O1121930   7.265   2.905   6.120
  190SLPC    C121931   7.314   2.940   6.250
  190SLPC    HA21932   7.389   3.021   6.239
  190SLPC    HB21933   7.234   2.979   6.317
  190SLPC    C221934   7.384   2.819   6.320
  190SLPC    HS21935   7.465   2.787   6.251
  190SLPC   O2121936   7.292   2.712   6.351
  190SLPC   C2121937   7.328   2.590   6.315
  190SLPC   O2221938   7.421   2.557   6.246
  190SLPC   C2221939   7.235   2.484   6.376
  190SLPC   H2R21940   7.179   2.439   6.292
  190SLPC   H2S21941   7.302   2.407   6.420
  190SLPC    C321942   7.451   2.864   6.454
  190SLPC    HX21943   7.520   2.948   6.427
  190SLPC    HY21944   7.514   2.780   6.488
  190SLPC   O3121945   7.357   2.898   6.559
  190SLPC   C3121946   7.349   3.026   6.597
  190SLPC   O3221947   7.393   3.121   6.536
  190SLPC   C3221948   7.280   3.033   6.735
  190SLPC   H2X21949   7.301   2.936   6.784
  190SLPC   H2Y21950   7.171   3.041   6.719
  190SLPC   C2321951   7.138   2.535   6.484
  190SLPC   H3R21952   7.047   2.574   6.435
  190SLPC   H3S21953   7.189   2.616   6.541
  190SLPC   C2421954   7.095   2.428   6.585
  190SLPC   H4R21955   7.185   2.372   6.617
  190SLPC   H4S21956   7.025   2.356   6.537
  190SLPC   C2521957   7.024   2.486   6.707
  190SLPC   H5R21958   6.990   2.401   6.771
  190SLPC   H5S21959   6.933   2.538   6.673
  190SLPC   C2621960   7.108   2.583   6.791
  190SLPC   H6R21961   7.048   2.601   6.883
  190SLPC   H6S21962   7.117   2.678   6.733
  190SLPC   C2721963   7.250   2.543   6.836
  190SLPC   H7R21964   7.319   2.545   6.749
  190SLPC   H7S21965   7.248   2.438   6.874
  190SLPC   C2821966   7.305   2.634   6.949
  190SLPC   H8R21967   7.221   2.655   7.018
  190SLPC   H8S21968   7.336   2.731   6.904
  190SLPC   C2921969   7.418   2.572   7.027
  190SLPC   H9R21970   7.479   2.500   6.971
  190SLPC  C21021971   7.452   2.599   7.155
  190SLPC  H10R21972   7.536   2.544   7.200
  190SLPC  C21121973   7.386   2.696   7.251
  190SLPC  H11R21974   7.395   2.658   7.355
  190SLPC  H11S21975   7.277   2.700   7.230
  190SLPC  C21221976   7.445   2.834   7.240
  190SLPC  H12R21977   7.500   2.855   7.147
  190SLPC  C21321978   7.433   2.934   7.329
  190SLPC  H13R21979   7.475   3.032   7.303
  190SLPC  C21421980   7.358   2.933   7.461
  190SLPC  H14R21981   7.398   2.855   7.529
  190SLPC  H14S21982   7.251   2.910   7.443
  190SLPC  C21521983   7.367   3.070   7.531
  190SLPC  H15R21984   7.363   3.153   7.457
  190SLPC  H15S21985   7.466   3.078   7.582
  190SLPC  C21621986   7.255   3.099   7.633
  190SLPC  H16R21987   7.159   3.111   7.580
  190SLPC  H16S21988   7.278   3.196   7.682
  190SLPC  C21721989   7.239   2.992   7.741
  190SLPC  H17R21990   7.340   2.963   7.778
  190SLPC  H17S21991   7.194   2.901   7.697
  190SLPC  C21821992   7.153   3.039   7.860
  190SLPC  H18R21993   7.168   2.974   7.948
  190SLPC  H18S21994   7.046   3.040   7.833
  190SLPC  H18T21995   7.182   3.143   7.889
  190SLPC   C3321996   7.332   3.145   6.830
  190SLPC   H3X21997   7.443   3.149   6.826
  190SLPC   H3Y21998   7.307   3.121   6.935
  190SLPC   C3421999   7.278   3.287   6.805
  190SLPC   H4X22000   7.316   3.318   6.706
  190SLPC   H4Y22001   7.322   3.357   6.880
  190SLPC   C3522002   7.124   3.306   6.804
  190SLPC   H5X22003   7.075   3.227   6.743
  190SLPC   H5Y22004   7.112   3.401   6.747
  190SLPC   C3622005   7.050   3.325   6.939
  190SLPC   H6X22006   7.036   3.433   6.960
  190SLPC   H6Y22007   7.117   3.285   7.019
  190SLPC   C3722008   6.915   3.251   6.946
  190SLPC   H7X22009   6.935   3.145   6.920
  190SLPC   H7Y22010   6.849   3.284   6.863
  190SLPC   C3822011   6.834   3.248   7.078
  190SLPC   H8X22012   6.750   3.320   7.073
  190SLPC   H8Y22013   6.899   3.280   7.162
  190SLPC   C3922014   6.781   3.104   7.101
  190SLPC   H9X22015   6.868   3.036   7.097
  190SLPC   H9Y22016   6.715   3.081   7.014
  190SLPC  C31022017   6.701   3.064   7.226
  190SLPC  H10X22018   6.618   2.997   7.194
  190SLPC  H10Y22019   6.655   3.155   7.269
  190SLPC  C31122020   6.780   2.988   7.337
  190SLPC  H11X22021   6.714   2.984   7.426
  190SLPC  H11Y22022   6.869   3.048   7.367
  190SLPC  C31222023   6.816   2.838   7.326
  190SLPC  H12X22024   6.846   2.809   7.224
  190SLPC  H12Y22025   6.726   2.778   7.351
  190SLPC  C31322026   6.927   2.807   7.430
  190SLPC  H13X22027   6.897   2.855   7.526
  190SLPC  H13Y22028   7.023   2.856   7.401
  190SLPC  C31422029   6.955   2.659   7.459
  190SLPC  H14X22030   7.003   2.613   7.371
  190SLPC  H14Y22031   6.858   2.609   7.478
  190SLPC  C31522032   7.042   2.635   7.585
  190SLPC  H15X22033   7.133   2.700   7.581
  190SLPC  H15Y22034   7.076   2.530   7.583
  190SLPC  C31622035   6.964   2.659   7.715
  190SLPC  H16X22036   6.864   2.613   7.704
  190SLPC  H16Y22037   6.949   2.768   7.730
  190SLPC  C31722038   7.028   2.599   7.841
  190SLPC  H17X22039   7.040   2.490   7.827
  190SLPC  H17Y22040   6.957   2.613   7.926
  190SLPC  C31822041   7.163   2.660   7.880
  190SLPC  H18X22042   7.202   2.612   7.973
  190SLPC  H18Y22043   7.151   2.769   7.900
  190SLPC  H18Z22044   7.238   2.647   7.799
  191SLPC     N22045   0.521   6.536   6.093
  191SLPC   C1322046   0.430   6.624   6.173
  191SLPC  H13A22047   0.377   6.693   6.110
  191SLPC  H13B22048   0.359   6.566   6.231
  191SLPC  H13C22049   0.490   6.681   6.242
  191SLPC   C1422050   0.617   6.626   6.020
  191SLPC  H14A22051   0.565   6.701   5.961
  191SLPC  H14B22052   0.678   6.677   6.093
  191SLPC  H14C22053   0.684   6.571   5.956
  191SLPC   C1522054   0.443   6.461   5.989
  191SLPC  H15A22055   0.509   6.411   5.920
  191SLPC  H15B22056   0.374   6.390   6.030
  191SLPC  H15C22057   0.386   6.530   5.929
  191SLPC   C1222058   0.602   6.446   6.187
  191SLPC  H12A22059   0.685   6.405   6.131
  191SLPC  H12B22060   0.543   6.363   6.223
  191SLPC   C1122061   0.665   6.514   6.311
  191SLPC  H11A22062   0.735   6.442   6.359
  191SLPC  H11B22063   0.586   6.536   6.386
  191SLPC     P22064   0.870   6.684   6.321
  191SLPC   O1322065   0.932   6.579   6.404
  191SLPC   O1422066   0.940   6.731   6.200
  191SLPC   O1222067   0.728   6.634   6.273
  191SLPC   O1122068   0.829   6.809   6.409
  191SLPC    C122069   0.689   6.836   6.427
  191SLPC    HA22070   0.640   6.857   6.330
  191SLPC    HB22071   0.640   6.749   6.475
  191SLPC    C222072   0.664   6.957   6.519
  191SLPC    HS22073   0.720   7.042   6.477
  191SLPC   O2122074   0.714   6.924   6.651
  191SLPC   C2122075   0.722   7.031   6.728
  191SLPC   O2222076   0.686   7.143   6.697
  191SLPC   C2222077   0.788   6.995   6.861
  191SLPC   H2R22078   0.760   6.892   6.890
  191SLPC   H2S22079   0.898   6.999   6.843
  191SLPC    C322080   0.511   6.990   6.519
  191SLPC    HX22081   0.487   7.035   6.420
  191SLPC    HY22082   0.485   7.066   6.596
  191SLPC   O3122083   0.432   6.871   6.530
  191SLPC   C3122084   0.424   6.822   6.654
  191SLPC   O3222085   0.449   6.881   6.756
  191SLPC   C3222086   0.392   6.674   6.639
  191SLPC   H2X22087   0.450   6.633   6.553
  191SLPC   H2Y22088   0.284   6.666   6.617
  191SLPC   C2322089   0.750   7.096   6.972
  191SLPC   H3R22090   0.658   7.060   7.023
  191SLPC   H3S22091   0.727   7.196   6.928
  191SLPC   C2422092   0.863   7.121   7.072
  191SLPC   H4R22093   0.837   7.210   7.134
  191SLPC   H4S22094   0.956   7.145   7.017
  191SLPC   C2522095   0.888   7.003   7.166
  191SLPC   H5R22096   0.935   6.921   7.107
  191SLPC   H5S22097   0.791   6.966   7.205
  191SLPC   C2622098   0.978   7.039   7.286
  191SLPC   H6R22099   1.006   6.944   7.337
  191SLPC   H6S22100   0.919   7.099   7.358
  191SLPC   C2722101   1.105   7.117   7.245
  191SLPC   H7R22102   1.084   7.226   7.243
  191SLPC   H7S22103   1.126   7.087   7.140
  191SLPC   C2822104   1.232   7.084   7.325
  191SLPC   H8R22105   1.319   7.119   7.265
  191SLPC   H8S22106   1.242   6.974   7.332
  191SLPC   C2922107   1.242   7.148   7.461
  191SLPC   H9R22108   1.279   7.252   7.460
  191SLPC  C21022109   1.217   7.089   7.579
  191SLPC  H10R22110   1.228   7.148   7.671
  191SLPC  C21122111   1.175   6.946   7.599
  191SLPC  H11R22112   1.139   6.900   7.504
  191SLPC  H11S22113   1.088   6.941   7.668
  191SLPC  C21222114   1.295   6.872   7.650
  191SLPC  H12R22115   1.385   6.885   7.588
  191SLPC  C21322116   1.303   6.791   7.757
  191SLPC  H13R22117   1.401   6.748   7.780
  191SLPC  C21422118   1.195   6.752   7.854
  191SLPC  H14R22119   1.169   6.644   7.845
  191SLPC  H14S22120   1.099   6.806   7.836
  191SLPC  C21522121   1.245   6.776   7.998
  191SLPC  H15R22122   1.329   6.707   8.018
  191SLPC  H15S22123   1.163   6.751   8.069
  191SLPC  C21622124   1.288   6.921   8.024
  191SLPC  H16R22125   1.384   6.942   7.972
  191SLPC  H16S22126   1.306   6.935   8.133
  191SLPC  C21722127   1.182   7.020   7.976
  191SLPC  H17R22128   1.084   6.993   8.019
  191SLPC  H17S22129   1.174   7.012   7.865
  191SLPC  C21822130   1.213   7.164   8.005
  191SLPC  H18R22131   1.142   7.230   7.951
  191SLPC  H18S22132   1.316   7.187   7.972
  191SLPC  H18T22133   1.203   7.184   8.114
  191SLPC   C3322134   0.427   6.595   6.765
  191SLPC   H3X22135   0.393   6.490   6.750
  191SLPC   H3Y22136   0.373   6.637   6.853
  191SLPC   C3422137   0.575   6.586   6.799
  191SLPC   H4X22138   0.616   6.687   6.823
  191SLPC   H4Y22139   0.632   6.546   6.713
  191SLPC   C3522140   0.591   6.494   6.920
  191SLPC   H5X22141   0.539   6.398   6.899
  191SLPC   H5Y22142   0.541   6.539   7.009
  191SLPC   C3622143   0.736   6.462   6.952
  191SLPC   H6X22144   0.784   6.421   6.860
  191SLPC   H6Y22145   0.738   6.385   7.032
  191SLPC   C3722146   0.821   6.581   6.996
  191SLPC   H7X22147   0.835   6.652   6.912
  191SLPC   H7Y22148   0.922   6.539   7.020
  191SLPC   C3822149   0.767   6.658   7.117
  191SLPC   H8X22150   0.678   6.717   7.085
  191SLPC   H8Y22151   0.844   6.731   7.149
  191SLPC   C3922152   0.729   6.572   7.239
  191SLPC   H9X22153   0.806   6.493   7.252
  191SLPC   H9Y22154   0.632   6.522   7.221
  191SLPC  C31022155   0.723   6.655   7.368
  191SLPC  H10X22156   0.825   6.694   7.389
  191SLPC  H10Y22157   0.695   6.589   7.453
  191SLPC  C31122158   0.628   6.776   7.362
  191SLPC  H11X22159   0.522   6.740   7.364
  191SLPC  H11Y22160   0.641   6.831   7.267
  191SLPC  C31222161   0.654   6.875   7.476
  191SLPC  H12X22162   0.586   6.962   7.469
  191SLPC  H12Y22163   0.757   6.915   7.464
  191SLPC  C31322164   0.644   6.813   7.616
  191SLPC  H13X22165   0.649   6.894   7.692
  191SLPC  H13Y22166   0.733   6.747   7.632
  191SLPC  C31422167   0.518   6.731   7.645
  191SLPC  H14X22168   0.494   6.664   7.560
  191SLPC  H14Y22169   0.431   6.799   7.658
  191SLPC  C31522170   0.534   6.642   7.769
  191SLPC  H15X22171   0.608   6.564   7.742
  191SLPC  H15Y22172   0.437   6.591   7.788
  191SLPC  C31622173   0.586   6.711   7.896
  191SLPC  H16X22174   0.692   6.739   7.878
  191SLPC  H16Y22175   0.585   6.637   7.979
  191SLPC  C31722176   0.508   6.836   7.939
  191SLPC  H17X22177   0.430   6.806   8.012
  191SLPC  H17Y22178   0.455   6.880   7.852
  191SLPC  C31822179   0.589   6.949   8.002
  191SLPC  H18X22180   0.626   7.016   7.922
  191SLPC  H18Y22181   0.675   6.911   8.062
  191SLPC  H18Z22182   0.525   7.011   8.068
  192SLPC     N22183   0.126   6.368   6.248
  192SLPC   C1322184   0.123   6.468   6.137
  192SLPC  H13A22185   0.213   6.526   6.127
  192SLPC  H13B22186   0.099   6.420   6.044
  192SLPC  H13C22187   0.042   6.538   6.153
  192SLPC   C1422188   0.141   6.437   6.380
  192SLPC  H14A22189   0.230   6.500   6.384
  192SLPC  H14B22190   0.056   6.500   6.398
  192SLPC  H14C22191   0.146   6.366   6.461
  192SLPC   C1522192   0.238   6.272   6.224
  192SLPC  H15A22193   0.244   6.197   6.302
  192SLPC  H15B22194   0.221   6.220   6.131
  192SLPC  H15C22195   0.334   6.322   6.220
  192SLPC   C1222196  -0.005   6.291   6.245
  192SLPC  H12A22197  -0.000   6.208   6.314
  192SLPC  H12B22198  -0.016   6.247   6.146
  192SLPC   C1122199  -0.137   6.367   6.272
  192SLPC  H11A22200  -0.130   6.422   6.368
  192SLPC  H11B22201  -0.215   6.289   6.287
  192SLPC     P22202  -0.201   6.601   6.163
  192SLPC   O1322203  -0.086   6.668   6.099
  192SLPC   O1422204  -0.334   6.628   6.107
  192SLPC   O1222205  -0.173   6.446   6.159
  192SLPC   O1122206  -0.199   6.631   6.318
  192SLPC    C122207  -0.108   6.728   6.368
  192SLPC    HA22208  -0.006   6.717   6.325
  192SLPC    HB22209  -0.147   6.829   6.342
  192SLPC    C222210  -0.094   6.721   6.522
  192SLPC    HS22211  -0.029   6.807   6.550
  192SLPC   O2122212  -0.033   6.595   6.558
  192SLPC   C2122213   0.016   6.600   6.681
  192SLPC   O2222214   0.055   6.701   6.737
  192SLPC   C2222215   0.022   6.459   6.739
  192SLPC   H2R22216  -0.082   6.429   6.767
  192SLPC   H2S22217   0.058   6.391   6.660
  192SLPC    C322218  -0.231   6.741   6.593
  192SLPC    HX22219  -0.304   6.778   6.518
  192SLPC    HY22220  -0.214   6.822   6.667
  192SLPC   O3122221  -0.279   6.620   6.657
  192SLPC   C3122222  -0.386   6.645   6.731
  192SLPC   O3222223  -0.443   6.752   6.738
  192SLPC   C3222224  -0.419   6.528   6.820
  192SLPC   H2X22225  -0.335   6.456   6.820
  192SLPC   H2Y22226  -0.512   6.479   6.783
  192SLPC   C2322227   0.117   6.451   6.861
  192SLPC   H3R22228   0.213   6.499   6.835
  192SLPC   H3S22229   0.139   6.345   6.882
  192SLPC   C2422230   0.067   6.521   6.988
  192SLPC   H4R22231   0.059   6.630   6.971
  192SLPC   H4S22232   0.143   6.507   7.068
  192SLPC   C2522233  -0.067   6.468   7.038
  192SLPC   H5R22234  -0.150   6.505   6.974
  192SLPC   H5S22235  -0.084   6.509   7.139
  192SLPC   C2622236  -0.070   6.316   7.046
  192SLPC   H6R22237   0.033   6.274   7.050
  192SLPC   H6S22238  -0.119   6.275   6.955
  192SLPC   C2722239  -0.141   6.271   7.172
  192SLPC   H7R22240  -0.181   6.168   7.158
  192SLPC   H7S22241  -0.229   6.338   7.185
  192SLPC   C2822242  -0.049   6.278   7.295
  192SLPC   H8R22243  -0.006   6.379   7.308
  192SLPC   H8S22244   0.034   6.206   7.282
  192SLPC   C2922245  -0.135   6.239   7.410
  192SLPC   H9R22246  -0.229   6.191   7.379
  192SLPC  C21022247  -0.117   6.260   7.541
  192SLPC  H10R22248  -0.195   6.222   7.609
  192SLPC  C21122249  -0.004   6.330   7.610
  192SLPC  H11R22250   0.073   6.366   7.538
  192SLPC  H11S22251   0.048   6.259   7.678
  192SLPC  C21222252  -0.060   6.446   7.689
  192SLPC  H12R22253  -0.037   6.544   7.646
  192SLPC  C21322254  -0.134   6.439   7.802
  192SLPC  H13R22255  -0.167   6.532   7.851
  192SLPC  C21422256  -0.176   6.315   7.873
  192SLPC  H14R22257  -0.084   6.262   7.908
  192SLPC  H14S22258  -0.229   6.249   7.801
  192SLPC  C21522259  -0.270   6.328   7.994
  192SLPC  H15R22260  -0.227   6.393   8.074
  192SLPC  H15S22261  -0.276   6.229   8.045
  192SLPC  C21622262  -0.411   6.378   7.964
  192SLPC  H16R22263  -0.460   6.309   7.892
  192SLPC  H16S22264  -0.408   6.479   7.920
  192SLPC  C21722265  -0.491   6.381   8.095
  192SLPC  H17R22266  -0.474   6.284   8.146
  192SLPC  H17S22267  -0.449   6.460   8.161
  192SLPC  C21822268  -0.641   6.402   8.079
  192SLPC  H18R22269  -0.692   6.400   8.178
  192SLPC  H18S22270  -0.682   6.319   8.017
  192SLPC  H18T22271  -0.663   6.498   8.029
  192SLPC   C3322272  -0.440   6.589   6.960
  192SLPC   H3X22273  -0.532   6.651   6.963
  192SLPC   H3Y22274  -0.355   6.656   6.982
  192SLPC   C3422275  -0.445   6.488   7.074
  192SLPC   H4X22276  -0.375   6.404   7.053
  192SLPC   H4Y22277  -0.547   6.445   7.083
  192SLPC   C3522278  -0.405   6.560   7.202
  192SLPC   H5X22279  -0.466   6.653   7.207
  192SLPC   H5Y22280  -0.298   6.592   7.197
  192SLPC   C3622281  -0.426   6.477   7.328
  192SLPC   H6X22282  -0.353   6.394   7.335
  192SLPC   H6Y22283  -0.527   6.431   7.324
  192SLPC   C3722284  -0.414   6.563   7.455
  192SLPC   H7X22285  -0.311   6.605   7.462
  192SLPC   H7Y22286  -0.426   6.494   7.541
  192SLPC   C3822287  -0.516   6.677   7.461
  192SLPC   H8X22288  -0.593   6.663   7.382
  192SLPC   H8Y22289  -0.465   6.773   7.437
  192SLPC   C3922290  -0.590   6.687   7.594
  192SLPC   H9X22291  -0.662   6.602   7.602
  192SLPC   H9Y22292  -0.650   6.780   7.597
  192SLPC  C31022293  -0.500   6.683   7.718
  192SLPC  H10X22294  -0.445   6.587   7.721
  192SLPC  H10Y22295  -0.566   6.683   7.808
  192SLPC  C31122296  -0.400   6.798   7.721
  192SLPC  H11X22297  -0.438   6.879   7.788
  192SLPC  H11Y22298  -0.387   6.843   7.621
  192SLPC  C31222299  -0.262   6.750   7.768
  192SLPC  H12X22300  -0.227   6.672   7.698
  192SLPC  H12Y22301  -0.273   6.707   7.870
  192SLPC  C31322302  -0.160   6.863   7.773
  192SLPC  H13X22303  -0.215   6.951   7.814
  192SLPC  H13Y22304  -0.128   6.891   7.670
  192SLPC  C31422305  -0.042   6.842   7.868
  192SLPC  H14X22306  -0.083   6.825   7.970
  192SLPC  H14Y22307   0.009   6.941   7.873
  192SLPC  C31522308   0.061   6.733   7.833
  192SLPC  H15X22309   0.093   6.737   7.727
  192SLPC  H15Y22310   0.013   6.634   7.851
  192SLPC  C31622311   0.188   6.737   7.920
  192SLPC  H16X22312   0.172   6.813   7.999
  192SLPC  H16Y22313   0.272   6.772   7.856
  192SLPC  C31722314   0.227   6.605   7.989
  192SLPC  H17X22315   0.304   6.550   7.931
  192SLPC  H17Y22316   0.139   6.536   7.990
  192SLPC  C31822317   0.275   6.624   8.133
  192SLPC  H18X22318   0.217   6.703   8.185
  192SLPC  H18Y22319   0.383   6.651   8.137
  192SLPC  H18Z22320   0.262   6.530   8.191
  193SOD    SOD22321   3.927   4.095  13.520
  194SOD    SOD22322   5.334   6.803   0.699
  195SOD    SOD22323   2.703   7.216  10.455
  196SOD    SOD22324   5.450   1.705  14.978
  197SOD    SOD22325   5.656   3.866   3.481
  198SOD    SOD22326   2.152   5.302  12.003
  199SOD    SOD22327   5.942   4.378   5.567
  200SOD    SOD22328   0.928   3.600   0.689
  201SOD    SOD22329   7.250   1.334   1.093
  202SOD    SOD22330   5.138   0.228   5.483
  203SOD    SOD22331   2.462   5.234  11.075
  204SOD    SOD22332   1.336   6.791   1.869
  205SOD    SOD22333   1.282   4.265   4.639
  206SOD    SOD22334   0.421   0.869   3.526
  207SOD    SOD22335   4.320   5.926   1.799
  208SOD    SOD22336   5.701   6.331  11.808
  209SOD    SOD22337   6.591   6.011   3.411
  210SOD    SOD22338   3.186   3.322   0.001
  211SOD    SOD22339   0.458   2.860   2.080
  212SOD    SOD22340   4.566   7.264   2.010
  213SOD    SOD22341   1.192   5.172   0.818
  214SOD    SOD22342   5.233   0.255  12.161
  215SOD    SOD22343   6.550   1.457   1.062
  216SOD    SOD22344   3.925   5.163   3.141
  217SOD    SOD22345   6.106   4.752  11.985
  218SOD    SOD22346   0.363   6.400  15.637
  219SOD    SOD22347   5.883   5.749  13.038
  220SOD    SOD22348   6.192   7.028   2.381
  221SOD    SOD22349   5.760   7.248   1.914
  222SOD    SOD22350   2.966   0.522  10.304
  223SOD    SOD22351   4.380   5.485   3.337
  224SOD    SOD22352   6.569   3.118  12.677
  225SOD    SOD22353   5.929   0.719   2.292
  226SOD    SOD22354   1.833   1.672   3.507
  227SOD    SOD22355   3.040   4.380   3.371
  228SOD    SOD22356   2.245   2.436  12.138
  229SOD    SOD22357   4.949   6.626  14.278
  230SOD    SOD22358   4.358   4.205   4.837
  231SOD    SOD22359   4.312   0.546  15.124
  232SOD    SOD22360   7.310   4.013   1.076
  233SOD    SOD22361   3.671   5.649   4.653
  234SOD    SOD22362   0.421   0.524  15.705
  235SOD    SOD22363   4.519   4.425   3.244
  236SOD    SOD22364   3.568   3.416   0.727
  237SOD    SOD22365   0.977   6.040  11.071
  238SOD    SOD22366   2.725   3.621   3.741
  239SOD    SOD22367   3.077   1.925  12.867
  240SOD    SOD22368   4.565   2.734  11.036
  241SOD    SOD22369   4.392   0.879   4.272
  242SOD    SOD22370   5.051   6.930  12.593
  243SOD    SOD22371   4.306   1.932   3.419
  244SOD    SOD22372   5.715   7.154  15.909
  245SOD    SOD22373   3.766   5.819  11.051
  246SOD    SOD22374   4.776   0.189   2.279
  247SOD    SOD22375   2.234   3.546   3.672
  248SOD    SOD22376   0.032   0.721   3.742
  249SOD    SOD22377   1.269   3.859  10.905
  250SOD    SOD22378   0.245   0.751   1.568
  251SOD    SOD22379   3.720   7.111  12.351
  252SOD    SOD22380   3.111   5.029  14.506
  253SOD    SOD22381   3.228   4.188  11.660
  254SOD    SOD22382   5.945   4.122  10.737
  255SOD    SOD22383   4.654   0.807  11.112
  256SOD    SOD22384   0.032   6.992   5.410
  257SOD    SOD22385   4.324   3.939  12.660
  258SOD    SOD22386   6.846   5.481   3.740
  259SOD    SOD22387   1.675   3.659  11.867
  260SOD    SOD22388   5.822   0.554  11.200
  261SOD    SOD22389   4.532   5.593  12.353
  262SOD    SOD22390   5.130   6.378  13.489
  263SOD    SOD22391   6.074   4.263  13.883
  264SOD    SOD22392   2.245   3.571  15.510
  265SOD    SOD22393   3.554   0.142  14.925
  266CLA    CLA22394   6.164   1.344   0.428
  267CLA    CLA22395   1.255   6.790   3.601
  268CLA    CLA22396   2.150   4.534  14.336
  269CLA    CLA22397   5.644   5.312   2.378
  270CLA    CLA22398   4.606   0.041  15.826
  271CLA    CLA22399   0.521   5.813   0.772
  272CLA    CLA22400   4.485   4.115  10.609
  273CLA    CLA22401   0.241   4.384   5.371
  274CLA    CLA22402   5.194   5.860   0.716
  275CLA    CLA22403   0.654   0.228   3.982
  276CLA    CLA22404   0.339   6.365   0.260
  277CLA    CLA22405   0.171   1.185   2.709
  278CLA    CLA22406   6.147   5.986  13.488
  279CLA    CLA22407   4.805   6.480   3.717
  280CLA    CLA22408   4.410   3.978  12.106
  281CLA    CLA22409   3.883   5.790  13.014
  282CLA    CLA22410   6.632   4.191  12.667
  283CLA    CLA22411   0.528   3.030   5.248
  284CLA    CLA22412   2.252   6.490  15.949
  285CLA    CLA22413   6.241   6.995   3.630
  286CLA    CLA22414   4.126   3.786  14.071
  287CLA    CLA22415   3.005   5.858  12.194
  288CLA    CLA22416   2.273   4.661  12.047
  289CLA    CLA22417   7.130   0.463   5.424
  290CLA    CLA22418   5.967   2.927   2.459
  291CLA    CLA22419   3.673   3.281   0.528
  292CLA    CLA22420   5.913   3.128  11.218
  293CLA    CLA22421   0.647   0.166  12.728
  294CLA    CLA22422   2.010   0.489  13.124
  295CLA    CLA22423   4.029   3.154   3.087
  296CLA    CLA22424   2.196   2.663  15.359
  297CLA    CLA22425   5.218   2.038   3.347
  298CLA    CLA22426   4.050   4.884   2.496
  299CLA    CLA22427   1.296   6.407   1.675
  300CLA    CLA22428   4.686   1.520   0.874
  301CLA    CLA22429   3.608   4.588   0.986
  302CLA    CLA22430   7.331   5.264   2.421
  303CLA    CLA22431   3.260   3.636   2.845
  304CLA    CLA22432   4.159   4.238   1.963
  305CLA    CLA22433   5.377   4.062   0.045
  306CLA    CLA22434   3.694   6.228  10.726
  307CLA    CLA22435   6.601   4.850  14.325
  308CLA    CLA22436   5.686   0.654   1.845
  309CLA    CLA22437   3.710   4.802  11.474
  310CLA    CLA22438   3.659   4.383   4.467
  311CLA    CLA22439   2.289   3.541   5.556
  312CLA    CLA22440   6.612   5.861   3.085
  313CLA    CLA22441   3.877   5.007  11.002
  314CLA    CLA22442   6.887   6.933  11.053
  315CLA    CLA22443   7.064   1.977  14.885
  316CLA    CLA22444   1.673   6.986  14.280
  317CLA    CLA22445   0.687   7.206  11.459
  318CLA    CLA22446   4.308   1.142  15.272
  319TIP3   OH222447   3.576   4.551   9.948
  319TIP3    H122448   3.507   4.489   9.970
  319TIP3    H222449   3.587   4.604  10.026
  320TIP3   OH222450   3.958   4.465  10.111
  320TIP3    H122451   3.928   4.551  10.139
  320TIP3    H222452   3.920   4.453  10.024
  321TIP3   OH222453   2.909   4.095  10.128
  321TIP3    H122454   3.002   4.093  10.151
  321TIP3    H222455   2.884   4.187  10.134
  322TIP3   OH222456   4.539   4.776  10.024
  322TIP3    H122457   4.616   4.768  10.080
  322TIP3    H222458   4.519   4.869  10.023
  323TIP3   OH222459   5.023   4.179  10.000
  323TIP3    H122460   5.040   4.269  10.025
  323TIP3    H222461   4.940   4.157  10.041
  324TIP3   OH222462   5.285   3.767  10.022
  324TIP3    H122463   5.364   3.803   9.982
  324TIP3    H222464   5.214   3.819   9.986
  325TIP3   OH222465   2.495   4.294  10.119
  325TIP3    H122466   2.561   4.358  10.092
  325TIP3    H222467   2.426   4.301  10.054
  326TIP3   OH222468   2.147   4.216  10.269
  326TIP3    H122469   2.154   4.307  10.242
  326TIP3    H222470   2.176   4.166  10.193
  327TIP3   OH222471   2.124   4.558  10.020
  327TIP3    H122472   2.039   4.586   9.984
  327TIP3    H222473   2.177   4.638  10.018
  328TIP3   OH222474   4.692   2.399  10.003
  328TIP3    H122475   4.617   2.348   9.972
  328TIP3    H222476   4.654   2.467  10.058
  329TIP3   OH222477   4.180   2.379  10.051
  329TIP3    H122478   4.239   2.319  10.004
  329TIP3    H222479   4.104   2.325  10.074
  330TIP3   OH222480   4.492   2.677   9.922
  330TIP3    H122481   4.584   2.701   9.919
  330TIP3    H222482   4.446   2.755   9.890
  331TIP3   OH222483   4.326   5.526  10.025
  331TIP3    H122484   4.289   5.611  10.001
  331TIP3    H222485   4.328   5.477   9.943
  332TIP3   OH222486   5.452   4.432  10.118
  332TIP3    H122487   5.491   4.367  10.059
  332TIP3    H222488   5.462   4.515  10.071
  333TIP3   OH222489   5.188   4.411  10.014
  333TIP3    H122490   5.253   4.427  10.083
  333TIP3    H222491   5.221   4.335   9.966
  334TIP3   OH222492   5.575   4.252   9.956
  334TIP3    H122493   5.668   4.239   9.973
  334TIP3    H222494   5.558   4.198   9.878
  335TIP3   OH222495   4.382   1.683   9.980
  335TIP3    H122496   4.334   1.606   9.950
  335TIP3    H222497   4.473   1.654   9.987
  336TIP3   OH222498   4.146   1.819  10.037
  336TIP3    H122499   4.236   1.805  10.008
  336TIP3    H222500   4.135   1.760  10.112
  337TIP3   OH222501   1.433   3.135   9.955
  337TIP3    H122502   1.471   3.219   9.980
  337TIP3    H222503   1.342   3.141   9.984
  338TIP3   OH222504   1.183   3.709  10.042
  338TIP3    H122505   1.164   3.761   9.964
  338TIP3    H222506   1.208   3.623  10.008
  339TIP3   OH222507   2.320   5.920   9.983
  339TIP3    H122508   2.352   5.973  10.056
  339TIP3    H222509   2.399   5.887   9.941
  340TIP3   OH222510   2.370   5.579   9.891
  340TIP3    H122511   2.355   5.501   9.945
  340TIP3    H222512   2.283   5.615   9.877
  341TIP3   OH222513   2.096   5.793  10.159
  341TIP3    H122514   2.170   5.802  10.099
  341TIP3    H222515   2.057   5.708  10.137
  342TIP3   OH222516   6.074   2.250  10.047
  342TIP3    H122517   6.123   2.256  10.129
  342TIP3    H222518   6.093   2.162  10.014
  343TIP3   OH222519   5.743   2.569  10.053
  343TIP3    H122520   5.798   2.516   9.995
  343TIP3    H222521   5.742   2.655  10.012
  344TIP3   OH222522   6.350   3.101  10.198
  344TIP3    H122523   6.286   3.170  10.214
  344TIP3    H222524   6.380   3.117  10.108
  345TIP3   OH222525   6.007   3.342  10.005
  345TIP3    H122526   6.079   3.310   9.951
  345TIP3    H222527   5.930   3.334   9.948
  346TIP3   OH222528   6.166   3.302  10.229
  346TIP3    H122529   6.106   3.324  10.158
  346TIP3    H222530   6.214   3.383  10.246
  347TIP3   OH222531   6.415   4.244  10.197
  347TIP3    H122532   6.409   4.303  10.122
  347TIP3    H222533   6.499   4.199  10.184
  348TIP3   OH222534   6.380   3.905   9.920
  348TIP3    H122535   6.301   3.935   9.875
  348TIP3    H222536   6.407   3.828   9.870
  349TIP3   OH222537   6.419   4.423   9.991
  349TIP3    H122538   6.408   4.518   9.985
  349TIP3    H222539   6.453   4.397   9.906
  350TIP3   OH222540   6.828   4.437   9.936
  350TIP3    H122541   6.769   4.364   9.920
  350TIP3    H222542   6.890   4.435   9.863
  351TIP3   OH222543   4.561   0.707  10.067
  351TIP3    H122544   4.653   0.725  10.088
  351TIP3    H222545   4.541   0.766   9.994
  352TIP3   OH222546   4.706   1.014  10.032
  352TIP3    H122547   4.694   1.108  10.045
  352TIP3    H222548   4.794   0.997  10.067
  353TIP3   OH222549   0.509   4.270  10.003
  353TIP3    H122550   0.584   4.232   9.957
  353TIP3    H222551   0.433   4.228   9.963
  354TIP3   OH222552   1.713   1.432  10.132
  354TIP3    H122553   1.740   1.496  10.067
  354TIP3    H222554   1.692   1.354  10.081
  355TIP3   OH222555   1.669   1.233   9.944
  355TIP3    H122556   1.600   1.264   9.885
  355TIP3    H222557   1.750   1.265   9.905
  356TIP3   OH222558   2.189   1.205   9.940
  356TIP3    H122559   2.245   1.249   9.877
  356TIP3    H222560   2.167   1.121   9.899
  357TIP3   OH222561   2.873   0.423  10.119
  357TIP3    H122562   2.839   0.466  10.041
  357TIP3    H222563   2.862   0.330  10.103
  358TIP3   OH222564   3.298   0.618   9.984
  358TIP3    H122565   3.343   0.544  10.025
  358TIP3    H222566   3.317   0.692  10.040
  359TIP3   OH222567   1.084   5.494  10.045
  359TIP3    H122568   1.002   5.496  10.095
  359TIP3    H222569   1.107   5.402  10.039
  360TIP3   OH222570   1.476   5.877   9.987
  360TIP3    H122571   1.556   5.825   9.987
  360TIP3    H222572   1.410   5.820   9.947
  361TIP3   OH222573   7.014   3.511  10.118
  361TIP3    H122574   7.066   3.591  10.109
  361TIP3    H222575   6.978   3.515  10.207
  362TIP3   OH222576   6.982   3.084  10.038
  362TIP3    H122577   6.997   3.152   9.972
  362TIP3    H222578   6.905   3.115  10.087
  363TIP3   OH222579   1.535   6.570  10.072
  363TIP3    H122580   1.570   6.516  10.001
  363TIP3    H222581   1.599   6.639  10.083
  364TIP3   OH222582   0.475   4.749  10.073
  364TIP3    H122583   0.524   4.822  10.036
  364TIP3    H222584   0.441   4.782  10.156
  365TIP3   OH222585   0.038   4.928  10.096
  365TIP3    H122586   0.070   4.896  10.011
  365TIP3    H222587  -0.043   4.879  10.110
  366TIP3   OH222588   2.461   0.079  10.000
  366TIP3    H122589   2.444   0.043  10.087
  366TIP3    H222590   2.376   0.078   9.956
  367TIP3   OH222591   2.832   7.186  10.030
  367TIP3    H122592   2.906   7.149   9.982
  367TIP3    H222593   2.760   7.185   9.967
  368TIP3   OH222594   2.853   0.156  10.073
  368TIP3    H122595   2.948   0.144  10.072
  368TIP3    H222596   2.819   0.083  10.022
  369TIP3   OH222597   2.779   7.316  10.266
  369TIP3    H122598   2.804   7.399  10.225
  369TIP3    H222599   2.797   7.250  10.199
  370TIP3   OH222600   6.161   6.725  10.176
  370TIP3    H122601   6.239   6.748  10.226
  370TIP3    H222602   6.177   6.762  10.089
  371TIP3   OH222603   0.487   0.433   9.984
  371TIP3    H122604   0.476   0.343  10.015
  371TIP3    H222605   0.578   0.436   9.953
  372TIP3   OH222606   0.994   0.363   9.994
  372TIP3    H122607   1.068   0.422   9.981
  372TIP3    H222608   1.025   0.277   9.965
  373TIP3   OH222609   0.863   0.663  10.043
  373TIP3    H122610   0.956   0.656  10.024
  373TIP3    H222611   0.822   0.598   9.986
  374TIP3   OH222612   4.199   4.763   5.886
  374TIP3    H122613   4.161   4.757   5.973
  374TIP3    H222614   4.241   4.679   5.872
  375TIP3   OH222615   4.034   4.466   5.973
  375TIP3    H122616   3.952   4.462   6.023
  375TIP3    H222617   4.100   4.438   6.036
  376TIP3   OH222618   3.751   4.862   5.966
  376TIP3    H122619   3.762   4.876   5.872
  376TIP3    H222620   3.690   4.788   5.972
  377TIP3   OH222621   4.162   2.837   5.936
  377TIP3    H122622   4.203   2.780   6.001
  377TIP3    H222623   4.216   2.917   5.937
  378TIP3   OH222624   2.442   3.724   6.015
  378TIP3    H122625   2.455   3.809   6.058
  378TIP3    H222626   2.386   3.742   5.940
  379TIP3   OH222627   5.041   3.201   6.008
  379TIP3    H122628   4.977   3.168   5.946
  379TIP3    H222629   5.099   3.126   6.025
  380TIP3   OH222630   2.846   4.976   5.922
  380TIP3    H122631   2.782   5.029   5.875
  380TIP3    H222632   2.796   4.939   5.996
  381TIP3   OH222633   2.680   5.141   5.781
  381TIP3    H122634   2.602   5.098   5.746
  381TIP3    H222635   2.647   5.219   5.826
  382TIP3   OH222636   2.807   5.238   6.079
  382TIP3    H122637   2.858   5.172   6.032
  382TIP3    H222638   2.873   5.296   6.118
  383TIP3   OH222639   1.439   4.155   6.014
  383TIP3    H122640   1.405   4.088   6.074
  383TIP3    H222641   1.531   4.165   6.038
  384TIP3   OH222642   1.925   4.302   5.889
  384TIP3    H122643   1.858   4.352   5.843
  384TIP3    H222644   1.905   4.210   5.869
  385TIP3   OH222645   4.831   5.986   6.002
  385TIP3    H122646   4.741   5.956   6.004
  385TIP3    H222647   4.882   5.913   6.038
  386TIP3   OH222648   5.252   5.713   5.971
  386TIP3    H122649   5.306   5.743   6.045
  386TIP3    H222650   5.313   5.709   5.897
  387TIP3   OH222651   2.470   1.371   6.105
  387TIP3    H122652   2.382   1.403   6.127
  387TIP3    H222653   2.455   1.307   6.036
  388TIP3   OH222654   2.865   1.322   5.887
  388TIP3    H122655   2.874   1.416   5.903
  388TIP3    H222656   2.821   1.288   5.965
  389TIP3   OH222657   2.422   1.179   5.918
  389TIP3    H122658   2.487   1.125   5.872
  389TIP3    H222659   2.355   1.116   5.946
  390TIP3   OH222660   2.144   5.687   5.886
  390TIP3    H122661   2.110   5.641   5.962
  390TIP3    H222662   2.118   5.778   5.898
  391TIP3   OH222663   4.708   1.418   5.962
  391TIP3    H122664   4.614   1.398   5.952
  391TIP3    H222665   4.724   1.486   5.897
  392TIP3   OH222666   4.685   0.954   6.022
  392TIP3    H122667   4.769   0.922   5.988
  392TIP3    H222668   4.705   1.040   6.059
  393TIP3   OH222669   4.129   6.605   5.882
  393TIP3    H122670   4.181   6.530   5.856
  393TIP3    H222671   4.193   6.669   5.914
  394TIP3   OH222672   6.423   2.545   5.837
  394TIP3    H122673   6.417   2.556   5.932
  394TIP3    H222674   6.509   2.581   5.814
  395TIP3   OH222675   6.192   3.035   6.064
  395TIP3    H122676   6.101   3.060   6.079
  395TIP3    H222677   6.202   2.952   6.111
  396TIP3   OH222678   5.949   6.007   5.876
  396TIP3    H122679   5.882   6.002   5.944
  396TIP3    H222680   6.031   6.010   5.924
  397TIP3   OH222681   5.581   6.083   5.824
  397TIP3    H122682   5.612   6.052   5.910
  397TIP3    H222683   5.652   6.138   5.792
  398TIP3   OH222684   5.677   5.719   6.020
  398TIP3    H122685   5.738   5.692   5.951
  398TIP3    H222686   5.628   5.640   6.041
  399TIP3   OH222687   3.462   6.821   6.046
  399TIP3    H122688   3.455   6.894   6.108
  399TIP3    H222689   3.555   6.799   6.047
  400TIP3   OH222690   3.731   6.491   5.934
  400TIP3    H122691   3.795   6.546   5.980
  400TIP3    H222692   3.689   6.550   5.872
  401TIP3   OH222693   6.355   1.911   5.875
  401TIP3    H122694   6.391   1.958   5.800
  401TIP3    H222695   6.430   1.862   5.911
  402TIP3   OH222696   6.244   1.482   6.019
  402TIP3    H122697   6.337   1.474   6.000
  402TIP3    H222698   6.235   1.570   6.057
  403TIP3   OH222699   6.103   1.941   5.965
  403TIP3    H122700   6.082   2.034   5.974
  403TIP3    H222701   6.193   1.940   5.931
  404TIP3   OH222702   5.129   6.809   6.054
  404TIP3    H122703   5.041   6.825   6.020
  404TIP3    H222704   5.136   6.714   6.059
  405TIP3   OH222705   5.082   6.372   5.823
  405TIP3    H122706   5.160   6.355   5.771
  405TIP3    H222707   5.112   6.425   5.897
  406TIP3   OH222708   0.908   2.276   6.014
  406TIP3    H122709   0.856   2.205   6.049
  406TIP3    H222710   0.845   2.347   5.998
  407TIP3   OH222711   0.579   2.178   5.966
  407TIP3    H122712   0.640   2.120   6.010
  407TIP3    H222713   0.522   2.211   6.036
  408TIP3   OH222714   0.768   1.941   5.811
  408TIP3    H122715   0.792   1.904   5.726
  408TIP3    H222716   0.760   2.035   5.795
  409TIP3   OH222717   4.739   0.632   5.859
  409TIP3    H122718   4.679   0.587   5.920
  409TIP3    H222719   4.682   0.691   5.810
  410TIP3   OH222720   4.937   0.451   5.901
  410TIP3    H122721   4.877   0.524   5.884
  410TIP3    H222722   4.896   0.402   5.972
  411TIP3   OH222723   0.453   5.322   5.932
  411TIP3    H122724   0.461   5.408   5.974
  411TIP3    H222725   0.414   5.266   5.999
  412TIP3   OH222726   2.058   6.966   5.941
  412TIP3    H122727   1.968   6.990   5.919
  412TIP3    H222728   2.112   7.022   5.886
  413TIP3   OH222729   2.564   6.894   5.853
  413TIP3    H122730   2.471   6.915   5.847
  413TIP3    H222731   2.567   6.808   5.894
  414TIP3   OH222732   2.270   7.084   5.807
  414TIP3    H122733   2.324   7.134   5.746
  414TIP3    H222734   2.312   7.096   5.892
  415TIP3   OH222735   2.167   7.309   6.076
  415TIP3    H122736   2.145   7.369   6.005
  415TIP3    H222737   2.088   7.307   6.131
  416TIP3   OH222738   5.718   0.653   6.740
  416TIP3    H122739   5.660   0.693   6.675
  416TIP3    H222740   5.697   0.698   6.822
  417TIP3   OH222741   5.819   1.374   6.369
  417TIP3    H122742   5.881   1.406   6.435
  417TIP3    H222743   5.796   1.286   6.398
  418TIP3   OH222744   6.330   0.808   5.981
  418TIP3    H122745   6.383   0.802   5.901
  418TIP3    H222746   6.379   0.759   6.046
  419TIP3   OH222747   6.151   0.938   5.770
  419TIP3    H122748   6.138   0.848   5.739
  419TIP3    H222749   6.202   0.929   5.850
  420TIP3   OH222750   5.550   0.789   6.563
  420TIP3    H122751   5.572   0.880   6.544
  420TIP3    H222752   5.529   0.751   6.477
  421TIP3   OH222753   6.027   0.749   5.954
  421TIP3    H122754   6.117   0.767   5.982
  421TIP3    H222755   5.973   0.803   6.012
  422TIP3   OH222756   5.665   6.864   6.023
  422TIP3    H122757   5.744   6.850   6.075
  422TIP3    H222758   5.697   6.904   5.942
  423TIP3   OH222759   7.150   1.937   6.069
  423TIP3    H122760   7.075   1.908   6.121
  423TIP3    H222761   7.190   1.855   6.037
  424TIP3   OH222762   0.210   2.029   6.025
  424TIP3    H122763   0.291   1.983   6.001
  424TIP3    H222764   0.238   2.097   6.086
  425TIP3   OH222765   0.290   1.561   5.955
  425TIP3    H122766   0.343   1.495   6.000
  425TIP3    H222767   0.270   1.626   6.023
  426TIP3   OH222768   5.839   0.086   5.949
  426TIP3    H122769   5.888   0.120   6.024
  426TIP3    H222770   5.875   0.131   5.874
  427TIP3   OH222771   6.891   7.168   5.920
  427TIP3    H122772   6.816   7.159   5.980
  427TIP3    H222773   6.954   7.103   5.952
  428TIP3   OH222774   6.484   6.980   5.938
  428TIP3    H122775   6.435   6.898   5.936
  428TIP3    H222776   6.417   7.048   5.948
  429TIP3   OH222777   1.196   1.035  10.651
  429TIP3    H122778   1.158   1.121  10.667
  429TIP3    H222779   1.138   0.995  10.587
  430TIP3   OH222780   1.080   0.942  11.055
  430TIP3    H122781   1.106   0.894  11.134
  430TIP3    H222782   1.032   0.879  11.003
  431TIP3   OH222783   0.299   0.872  11.178
  431TIP3    H122784   0.303   0.799  11.241
  431TIP3    H222785   0.389   0.887  11.152
  432TIP3   OH222786   1.477   1.245  10.885
  432TIP3    H122787   1.423   1.177  10.926
  432TIP3    H222788   1.484   1.313  10.951
  433TIP3   OH222789   0.434   1.376  11.003
  433TIP3    H122790   0.406   1.287  10.983
  433TIP3    H222791   0.530   1.370  11.011
  434TIP3   OH222792   0.137   0.741  10.558
  434TIP3    H122793   0.045   0.766  10.570
  434TIP3    H222794   0.146   0.726  10.464
  435TIP3   OH222795   0.141   0.925  10.821
  435TIP3    H122796   0.167   0.837  10.848
  435TIP3    H222797   0.165   0.930  10.729
  436TIP3   OH222798   1.185   1.731  10.898
  436TIP3    H122799   1.225   1.683  10.826
  436TIP3    H222800   1.156   1.664  10.960
  437TIP3   OH222801   0.913   1.200  11.055
  437TIP3    H122802   0.950   1.124  11.011
  437TIP3    H222803   0.981   1.230  11.115
  438TIP3   OH222804   1.835   0.342  11.152
  438TIP3    H122805   1.836   0.388  11.236
  438TIP3    H222806   1.852   0.411  11.088
  439TIP3   OH222807   1.231   0.622  11.057
  439TIP3    H122808   1.243   0.528  11.070
  439TIP3    H222809   1.207   0.630  10.965
  440TIP3   OH222810   0.608   0.426  10.814
  440TIP3    H122811   0.602   0.513  10.773
  440TIP3    H222812   0.564   0.368  10.752
  441TIP3   OH222813   1.356   0.447  10.648
  441TIP3    H122814   1.387   0.421  10.735
  441TIP3    H222815   1.434   0.478  10.602
  442TIP3   OH222816   0.219   0.671  10.904
  442TIP3    H122817   0.292   0.634  10.954
  442TIP3    H222818   0.232   0.640  10.815
  443TIP3   OH222819   0.694   0.827  10.867
  443TIP3    H122820   0.782   0.794  10.887
  443TIP3    H222821   0.657   0.763  10.806
  444TIP3   OH222822   1.818   0.487  11.387
  444TIP3    H122823   1.761   0.558  11.359
  444TIP3    H222824   1.771   0.446  11.460
  445TIP3   OH222825   0.409   0.342  11.230
  445TIP3    H122826   0.390   0.394  11.152
  445TIP3    H222827   0.339   0.362  11.291
  446TIP3   OH222828   1.041   1.266  10.641
  446TIP3    H122829   0.948   1.244  10.635
  446TIP3    H222830   1.044   1.361  10.627
  447TIP3   OH222831   0.694   1.115  11.204
  447TIP3    H122832   0.641   1.187  11.239
  447TIP3    H222833   0.761   1.159  11.151
  448TIP3   OH222834   1.455   0.403  10.897
  448TIP3    H122835   1.388   0.374  10.959
  448TIP3    H222836   1.508   0.466  10.947
  449TIP3   OH222837   0.415   0.502  11.004
  449TIP3    H122838   0.473   0.553  11.060
  449TIP3    H222839   0.473   0.464  10.937
  450TIP3   OH222840   0.539   1.317  11.319
  450TIP3    H122841   0.542   1.412  11.307
  450TIP3    H222842   0.447   1.298  11.335
  451TIP3   OH222843   0.087   1.223  10.397
  451TIP3    H122844   0.106   1.274  10.318
  451TIP3    H222845   0.140   1.265  10.465
  452TIP3   OH222846   1.492   1.456  11.079
  452TIP3    H122847   1.398   1.458  11.097
  452TIP3    H222848   1.513   1.545  11.050
  453TIP3   OH222849   1.574   0.265  11.254
  453TIP3    H122850   1.497   0.270  11.197
  453TIP3    H222851   1.648   0.285  11.196
  454TIP3   OH222852   0.833   0.103  10.992
  454TIP3    H122853   0.804   0.012  10.998
  454TIP3    H222854   0.762   0.154  11.033
  455TIP3   OH222855   1.314   1.612  10.688
  455TIP3    H122856   1.354   1.527  10.670
  455TIP3    H222857   1.386   1.674  10.681
  456TIP3   OH222858   1.428   1.369  10.639
  456TIP3    H122859   1.475   1.321  10.571
  456TIP3    H222860   1.444   1.320  10.719
  457TIP3   OH222861   1.617   1.222  11.431
  457TIP3    H122862   1.595   1.170  11.354
  457TIP3    H222863   1.630   1.310  11.398
  458TIP3   OH222864   1.052   0.939  10.438
  458TIP3    H122865   0.980   0.999  10.417
  458TIP3    H222866   1.106   0.937  10.358
  459TIP3   OH222867   1.166   0.630  10.231
  459TIP3    H122868   1.190   0.723  10.224
  459TIP3    H222869   1.204   0.589  10.153
  460TIP3   OH222870   1.757   0.907  11.265
  460TIP3    H122871   1.682   0.965  11.252
  460TIP3    H222872   1.818   0.930  11.195
  461TIP3   OH222873   1.423   0.990  10.505
  461TIP3    H122874   1.347   1.009  10.560
  461TIP3    H222875   1.482   0.942  10.563
  462TIP3   OH222876   1.375   0.772  11.456
  462TIP3    H122877   1.364   0.845  11.517
  462TIP3    H222878   1.310   0.788  11.387
  463TIP3   OH222879   0.564   1.029  10.726
  463TIP3    H122880   0.518   0.992  10.651
  463TIP3    H222881   0.611   0.955  10.765
  464TIP3   OH222882   0.713   1.381  10.969
  464TIP3    H122883   0.701   1.380  10.874
  464TIP3    H222884   0.785   1.320  10.984
  465TIP3   OH222885   0.554   0.910  11.087
  465TIP3    H122886   0.605   0.888  11.009
  465TIP3    H222887   0.603   0.981  11.128
  466TIP3   OH222888   1.233   1.474  11.159
  466TIP3    H122889   1.212   1.541  11.224
  466TIP3    H222890   1.187   1.396  11.189
  467TIP3   OH222891   0.697   1.342  11.545
  467TIP3    H122892   0.635   1.401  11.587
  467TIP3    H222893   0.653   1.313  11.466
  468TIP3   OH222894   1.286   0.882  10.281
  468TIP3    H122895   1.337   0.928  10.348
  468TIP3    H222896   1.351   0.841  10.225
  469TIP3   OH222897   0.410   0.947  11.491
  469TIP3    H122898   0.409   1.023  11.548
  469TIP3    H222899   0.322   0.945  11.452
  470TIP3   OH222900   1.063   1.544  10.588
  470TIP3    H122901   1.149   1.563  10.625
  470TIP3    H222902   1.029   1.630  10.562
  471TIP3   OH222903   0.503   1.535  11.609
  471TIP3    H122904   0.517   1.560  11.518
  471TIP3    H222905   0.408   1.537  11.620
  472TIP3   OH222906   1.754   0.048  10.209
  472TIP3    H122907   1.717  -0.026  10.258
  472TIP3    H222908   1.683   0.077  10.152
  473TIP3   OH222909   0.434   0.934  10.505
  473TIP3    H122910   0.418   1.000  10.438
  473TIP3    H222911   0.437   0.851  10.458
  474TIP3   OH222912   0.167   1.145  11.321
  474TIP3    H122913   0.142   1.123  11.232
  474TIP3    H222914   0.147   1.067  11.372
  475TIP3   OH222915   0.094   1.503  11.019
  475TIP3    H122916   0.125   1.413  11.005
  475TIP3    H222917   0.129   1.528  11.104
  476TIP3   OH222918   1.866   1.551  11.643
  476TIP3    H122919   1.858   1.457  11.626
  476TIP3    H222920   1.778   1.578  11.671
  477TIP3   OH222921   0.938   1.467  11.496
  477TIP3    H122922   0.930   1.551  11.542
  477TIP3    H222923   0.854   1.424  11.511
  478TIP3   OH222924   1.022   1.813  10.487
  478TIP3    H122925   0.964   1.816  10.411
  478TIP3    H222926   1.010   1.898  10.530
  479TIP3   OH222927   0.360   1.706  10.681
  479TIP3    H122928   0.393   1.679  10.767
  479TIP3    H222929   0.315   1.628  10.647
  480TIP3   OH222930   1.241   1.698  10.351
  480TIP3    H122931   1.197   1.739  10.425
  480TIP3    H222932   1.325   1.745  10.344
  481TIP3   OH222933   1.553   0.651  11.657
  481TIP3    H122934   1.489   0.682  11.593
  481TIP3    H222935   1.560   0.557  11.639
  482TIP3   OH222936   0.283   1.340  11.468
  482TIP3    H122937   0.325   1.283  11.532
  482TIP3    H222938   0.231   1.282  11.413
  483TIP3   OH222939   0.592   0.191  11.088
  483TIP3    H122940   0.544   0.147  11.018
  483TIP3    H222941   0.524   0.232  11.142
  484TIP3   OH222942   1.070   0.129  11.467
  484TIP3    H122943   1.041   0.104  11.554
  484TIP3    H222944   0.991   0.126  11.413
  485TIP3   OH222945   1.321   0.504  11.510
  485TIP3    H122946   1.248   0.487  11.570
  485TIP3    H222947   1.315   0.598  11.491
  486TIP3   OH222948   0.560   0.652  11.186
  486TIP3    H122949   0.493   0.652  11.255
  486TIP3    H222950   0.563   0.743  11.157
  487TIP3   OH222951   0.567   0.665  10.689
  487TIP3    H122952   0.474   0.644  10.680
  487TIP3    H222953   0.603   0.654  10.600
  488TIP3   OH222954   1.115   0.681  10.498
  488TIP3    H122955   1.087   0.772  10.491
  488TIP3    H222956   1.139   0.656  10.408
  489TIP3   OH222957   1.022   0.708  11.663
  489TIP3    H122958   0.963   0.641  11.697
  489TIP3    H222959   1.105   0.693  11.708
  490TIP3   OH222960   1.211   0.649  10.779
  490TIP3    H122961   1.165   0.701  10.714
  490TIP3    H222962   1.245   0.574  10.731
  491TIP3   OH222963   0.345   0.661  11.359
  491TIP3    H122964   0.354   0.704  11.444
  491TIP3    H222965   0.296   0.581  11.377
  492TIP3   OH222966   0.018   0.410  10.674
  492TIP3    H122967   0.054   0.415  10.763
  492TIP3    H222968   0.054   0.329  10.638
  493TIP3   OH222969   0.247   0.370  10.428
  493TIP3    H122970   0.337   0.378  10.396
  493TIP3    H222971   0.193   0.399  10.354
  494TIP3   OH222972   1.166   0.778  11.269
  494TIP3    H122973   1.195   0.725  11.195
  494TIP3    H222974   1.098   0.725  11.311
  495TIP3   OH222975   0.888   0.422  10.768
  495TIP3    H122976   0.796   0.416  10.794
  495TIP3    H222977   0.936   0.380  10.839
  496TIP3   OH222978   0.311   0.561  10.664
  496TIP3    H122979   0.249   0.615  10.616
  496TIP3    H222980   0.315   0.479  10.616
  497TIP3   OH222981   0.666   0.611  10.443
  497TIP3    H122982   0.754   0.573  10.444
  497TIP3    H222983   0.657   0.650  10.356
  498TIP3   OH222984   1.260   0.348  11.087
  498TIP3    H122985   1.227   0.347  11.177
  498TIP3    H222986   1.188   0.316  11.034
  499TIP3   OH222987   0.649   0.736  10.195
  499TIP3    H122988   0.584   0.735  10.125
  499TIP3    H222989   0.732   0.715  10.150
  500TIP3   OH222990   1.603   1.901  11.726
  500TIP3    H122991   1.626   1.927  11.637
  500TIP3    H222992   1.679   1.924  11.778
  501TIP3   OH222993   0.379   1.166  11.666
  501TIP3    H122994   0.443   1.157  11.736
  501TIP3    H222995   0.294   1.165  11.711
  502TIP3   OH222996   0.934   0.711  10.951
  502TIP3    H122997   0.970   0.644  10.891
  502TIP3    H222998   0.902   0.661  11.026
  503TIP3   OH222999   0.467   0.293  10.624
  503TIP3    H123000   0.412   0.215  10.630
  503TIP3    H223001   0.497   0.294  10.533
  504TIP3   OH223002   0.827   0.579  11.170
  504TIP3    H123003   0.739   0.614  11.184
  504TIP3    H223004   0.874   0.598  11.251
  505TIP3   OH223005   0.845   1.114  10.396
  505TIP3    H123006   0.773   1.083  10.341
  505TIP3    H223007   0.803   1.142  10.477
  506TIP3   OH223008   1.563   1.089  11.197
  506TIP3    H123009   1.620   1.146  11.146
  506TIP3    H223010   1.489   1.071  11.139
  507TIP3   OH223011   1.025   1.183  11.498
  507TIP3    H123012   1.041   1.142  11.583
  507TIP3    H223013   0.990   1.270  11.519
  508TIP3   OH223014   0.407   1.114  10.937
  508TIP3    H123015   0.451   1.094  10.854
  508TIP3    H223016   0.420   1.037  10.991
  509TIP3   OH223017   0.132   0.914  11.470
  509TIP3    H123018   0.144   0.886  11.560
  509TIP3    H223019   0.067   0.853  11.434
  510TIP3   OH223020   0.815   0.899  11.682
  510TIP3    H123021   0.748   0.862  11.625
  510TIP3    H223022   0.894   0.849  11.663
  511TIP3   OH223023   1.220   1.460  11.498
  511TIP3    H123024   1.128   1.458  11.474
  511TIP3    H223025   1.220   1.468  11.594
  512TIP3   OH223026   1.840   1.282  11.594
  512TIP3    H123027   1.747   1.264  11.578
  512TIP3    H223028   1.884   1.251  11.515
  513TIP3   OH223029   1.649   1.498  10.387
  513TIP3    H123030   1.609   1.416  10.415
  513TIP3    H223031   1.672   1.483  10.295
  514TIP3   OH223032   1.355   1.023  11.020
  514TIP3    H123033   1.260   1.012  11.018
  514TIP3    H223034   1.389   0.947  10.974
  515TIP3   OH223035   0.624   1.432  10.708
  515TIP3    H123036   0.643   1.518  10.672
  515TIP3    H223037   0.529   1.422  10.696
  516TIP3   OH223038   0.221   0.925  10.174
  516TIP3    H123039   0.285   0.978  10.222
  516TIP3    H223040   0.214   0.844  10.224
  517TIP3   OH223041   0.759   1.206  10.640
  517TIP3    H123042   0.717   1.290  10.659
  517TIP3    H223043   0.698   1.141  10.673
  518TIP3   OH223044   0.834   1.617  11.275
  518TIP3    H123045   0.893   1.689  11.253
  518TIP3    H223046   0.886   1.558  11.330
  519TIP3   OH223047   0.632   1.687  10.609
  519TIP3    H123048   0.541   1.716  10.615
  519TIP3    H223049   0.684   1.766  10.625
  520TIP3   OH223050   1.120   1.231  11.243
  520TIP3    H123051   1.088   1.211  11.331
  520TIP3    H223052   1.175   1.156  11.220
  521TIP3   OH223053   1.436   1.636  11.462
  521TIP3    H123054   1.354   1.587  11.458
  521TIP3    H223055   1.423   1.709  11.402
  522TIP3   OH223056   1.857   1.782  10.168
  522TIP3    H123057   1.878   1.873  10.190
  522TIP3    H223058   1.770   1.787  10.128
  523TIP3   OH223059   0.216   0.419  11.415
  523TIP3    H123060   0.121   0.425  11.419
  523TIP3    H223061   0.239   0.350  11.478
  524TIP3   OH223062   1.560   1.221  10.437
  524TIP3    H123063   1.501   1.147  10.449
  524TIP3    H223064   1.638   1.183  10.398
  525TIP3   OH223065   0.202   1.623  11.255
  525TIP3    H123066   0.208   1.545  11.311
  525TIP3    H223067   0.226   1.695  11.313
  526TIP3   OH223068   0.688   1.388  10.216
  526TIP3    H123069   0.758   1.347  10.165
  526TIP3    H223070   0.716   1.378  10.307
  527TIP3   OH223071   0.356   1.119  10.313
  527TIP3    H123072   0.273   1.166  10.320
  527TIP3    H223073   0.408   1.172  10.253
  528TIP3   OH223074   1.161   0.356  11.341
  528TIP3    H123075   1.224   0.395  11.402
  528TIP3    H223076   1.130   0.278  11.387
  529TIP3   OH223077   1.201   0.319  10.456
  529TIP3    H123078   1.167   0.373  10.384
  529TIP3    H223079   1.244   0.381  10.514
  530TIP3   OH223080   0.913   0.495  10.500
  530TIP3    H123081   0.981   0.561  10.495
  530TIP3    H223082   0.898   0.482  10.594
  531TIP3   OH223083   0.997   0.601  11.395
  531TIP3    H123084   0.997   0.624  11.487
  531TIP3    H223085   1.030   0.511  11.392
  532TIP3   OH223086   0.989   0.211  10.601
  532TIP3    H123087   0.967   0.291  10.648
  532TIP3    H223088   1.064   0.235  10.546
  533TIP3   OH223089   0.544   0.287  10.360
  533TIP3    H123090   0.529   0.375  10.326
  533TIP3    H223091   0.640   0.279  10.364
  534TIP3   OH223092   1.569   0.397  11.499
  534TIP3    H123093   1.478   0.425  11.508
  534TIP3    H223094   1.572   0.351  11.416
  535TIP3   OH223095   1.438   0.779  10.903
  535TIP3    H123096   1.353   0.741  10.877
  535TIP3    H223097   1.476   0.714  10.962
  536TIP3   OH223098   0.437   1.348  10.101
  536TIP3    H123099   0.523   1.356  10.143
  536TIP3    H223100   0.457   1.338  10.008
  537TIP3   OH223101   0.432   0.507  10.255
  537TIP3    H123102   0.369   0.578  10.266
  537TIP3    H223103   0.442   0.498  10.160
  538TIP3   OH223104   1.564   1.729  11.063
  538TIP3    H123105   1.545   1.803  11.005
  538TIP3    H223106   1.659   1.726  11.068
  539TIP3   OH223107   0.269   0.137  10.913
  539TIP3    H123108   0.300   0.149  10.824
  539TIP3    H223109   0.308   0.054  10.941
  540TIP3   OH223110   0.218   1.494  10.568
  540TIP3    H123111   0.126   1.477  10.588
  540TIP3    H223112   0.216   1.540  10.484
  541TIP3   OH223113   0.173   1.811  11.727
  541TIP3    H123114   0.226   1.801  11.806
  541TIP3    H223115   0.175   1.726  11.684
  542TIP3   OH223116   0.579   1.613  11.861
  542TIP3    H123117   0.654   1.559  11.883
  542TIP3    H223118   0.557   1.588  11.771
  543TIP3   OH223119   1.216   1.481  11.772
  543TIP3    H123120   1.206   1.397  11.817
  543TIP3    H223121   1.292   1.522  11.814
  544TIP3   OH223122   0.139   1.151  11.798
  544TIP3    H123123   0.129   1.057  11.786
  544TIP3    H223124   0.050   1.186  11.793
  545TIP3   OH223125   0.781   1.172  11.747
  545TIP3    H123126   0.760   1.216  11.665
  545TIP3    H223127   0.805   1.083  11.722
  546TIP3   OH223128   1.350   1.206  11.523
  546TIP3    H123129   1.439   1.225  11.494
  546TIP3    H223130   1.301   1.285  11.502
  547TIP3   OH223131   0.137   0.856  11.741
  547TIP3    H123132   0.128   0.762  11.727
  547TIP3    H223133   0.172   0.864  11.830
  548TIP3   OH223134   0.655   1.013  10.226
  548TIP3    H123135   0.654   0.917  10.229
  548TIP3    H223136   0.652   1.034  10.133
  549TIP3   OH223137   0.633   0.788  11.498
  549TIP3    H123138   0.555   0.844  11.493
  549TIP3    H223139   0.690   0.820  11.429
  550TIP3   OH223140   1.118   1.029  11.777
  550TIP3    H123141   1.194   0.992  11.732
  550TIP3    H223142   1.087   0.958  11.833
  551TIP3   OH223143   0.641   0.524  11.566
  551TIP3    H123144   0.649   0.469  11.488
  551TIP3    H223145   0.639   0.614  11.533
  552TIP3   OH223146   0.669   0.379  11.328
  552TIP3    H123147   0.716   0.419  11.255
  552TIP3    H223148   0.580   0.365  11.295
  553TIP3   OH223149   0.809   0.897  11.325
  553TIP3    H123150   0.903   0.917  11.329
  553TIP3    H223151   0.770   0.974  11.284
  554TIP3   OH223152   1.256   0.647  11.821
  554TIP3    H123153   1.271   0.553  11.826
  554TIP3    H223154   1.343   0.686  11.827
  555TIP3   OH223155   1.378   0.973  11.656
  555TIP3    H123156   1.353   1.055  11.614
  555TIP3    H223157   1.473   0.971  11.651
  556TIP3   OH223158   0.502   0.572  11.803
  556TIP3    H123159   0.412   0.542  11.792
  556TIP3    H223160   0.540   0.564  11.715
  557TIP3   OH223161   0.813   0.140  11.364
  557TIP3    H123162   0.758   0.215  11.343
  557TIP3    H223163   0.751   0.067  11.375
  558TIP3   OH223164   0.857   0.503  11.735
  558TIP3    H123165   0.829   0.449  11.809
  558TIP3    H223166   0.781   0.506  11.678
  559TIP3   OH223167   1.113   0.420  11.661
  559TIP3    H123168   1.022   0.428  11.689
  559TIP3    H223169   1.157   0.374  11.733
  560TIP3   OH223170   1.319   0.359  11.858
  560TIP3    H123171   1.322   0.265  11.840
  560TIP3    H223172   1.298   0.366  11.951
  561TIP3   OH223173   0.265   0.426  11.770
  561TIP3    H123174   0.266   0.351  11.710
  561TIP3    H223175   0.279   0.387  11.857
  562TIP3   OH223176   0.838   0.072  11.638
  562TIP3    H123177   0.790  -0.008  11.617
  562TIP3    H223178   0.828   0.128  11.561
  563TIP3   OH223179   0.886   0.231  11.858
  563TIP3    H123180   0.881   0.160  11.794
  563TIP3    H223181   0.795   0.255  11.874
  564TIP3   OH223182   0.173   1.344  10.171
  564TIP3    H123183   0.265   1.350  10.143
  564TIP3    H223184   0.126   1.397  10.107
  565TIP3   OH223185   0.044   1.865  10.583
  565TIP3    H123186  -0.046   1.832  10.592
  565TIP3    H223187   0.092   1.824  10.655
  566TIP3   OH223188   0.067   1.687  10.814
  566TIP3    H123189   0.068   1.598  10.850
  566TIP3    H223190   0.127   1.736  10.870
  567TIP3   OH223191   1.833   1.722  11.124
  567TIP3    H123192   1.838   1.724  11.219
  567TIP3    H223193   1.916   1.761  11.095
  568TIP3   OH223194   1.791   1.687  11.402
  568TIP3    H123195   1.735   1.617  11.368
  568TIP3    H223196   1.836   1.648  11.477
  569TIP3   OH223197   1.649   1.288  11.887
  569TIP3    H123198   1.563   1.295  11.928
  569TIP3    H223199   1.701   1.357  11.928
  570TIP3   OH223200   1.810   1.059  10.389
  570TIP3    H123201   1.873   1.130  10.393
  570TIP3    H223202   1.820   1.014  10.473
  571TIP3   OH223203   1.833   0.903  10.619
  571TIP3    H123204   1.742   0.888  10.647
  571TIP3    H223205   1.877   0.937  10.697
  572TIP3   OH223206   1.808   1.218  11.135
  572TIP3    H123207   1.857   1.151  11.087
  572TIP3    H223208   1.833   1.300  11.093
  573TIP3   OH223209   1.619   1.479  11.326
  573TIP3    H123210   1.549   1.527  11.369
  573TIP3    H223211   1.588   1.465  11.237
  574TIP3   OH223212   1.799   0.809  10.240
  574TIP3    H123213   1.767   0.839  10.155
  574TIP3    H223214   1.802   0.889  10.294
  575TIP3   OH223215   1.574   0.812  10.669
  575TIP3    H123216   1.536   0.737  10.625
  575TIP3    H223217   1.532   0.814  10.755
  576TIP3   OH223218   0.092   1.014  11.078
  576TIP3    H123219   0.102   1.010  10.983
  576TIP3    H223220   0.171   0.971  11.112
  577TIP3   OH223221   1.651   0.990  11.619
  577TIP3    H123222   1.715   0.921  11.600
  577TIP3    H223223   1.662   1.052  11.547
  578TIP3   OH223224   1.803   0.756  11.612
  578TIP3    H123225   1.714   0.723  11.627
  578TIP3    H223226   1.859   0.685  11.645
  579TIP3   OH223227   1.617   0.507  10.554
  579TIP3    H123228   1.620   0.412  10.538
  579TIP3    H223229   1.671   0.520  10.632
  580TIP3   OH223230   1.595   0.587  11.049
  580TIP3    H123231   1.689   0.594  11.030
  580TIP3    H223232   1.588   0.607  11.142
  581TIP3   OH223233   1.617   0.675  11.313
  581TIP3    H123234   1.536   0.699  11.358
  581TIP3    H223235   1.665   0.758  11.304
  582TIP3   OH223236   0.073   0.586  11.661
  582TIP3    H123237   0.139   0.533  11.704
  582TIP3    H223238   0.033   0.528  11.596
  583TIP3   OH223239   1.884   0.093  11.819
  583TIP3    H123240   1.866   0.004  11.787
  583TIP3    H223241   1.850   0.151  11.751
  584TIP3   OH223242   1.637   0.239  10.508
  584TIP3    H123243   1.647   0.187  10.587
  584TIP3    H223244   1.564   0.198  10.461
  585TIP3   OH223245   0.132   0.380  10.934
  585TIP3    H123246   0.167   0.291  10.941
  585TIP3    H223247   0.207   0.437  10.949
  586TIP3   OH223248   0.024   0.738  11.101
  586TIP3    H123249   0.095   0.713  11.043
  586TIP3    H223250   0.027   0.834  11.103
  587TIP3   OH223251   1.799   0.286  11.640
  587TIP3    H123252   1.716   0.317  11.676
  587TIP3    H223253   1.774   0.237  11.562
  588TIP3   OH223254   0.090   0.171  10.522
  588TIP3    H123255   0.001   0.193  10.495
  588TIP3    H223256   0.144   0.239  10.481
  589TIP3   OH223257   1.516   1.802  10.672
  589TIP3    H123258   1.561   1.778  10.592
  589TIP3    H223259   1.560   1.881  10.703
  590TIP3   OH223260   7.321   0.136  11.399
  590TIP3    H123261   7.366   0.061  11.360
  590TIP3    H223262   7.267   0.171  11.328
  591TIP3   OH223263   0.216   1.542  11.642
  591TIP3    H123264   0.226   1.474  11.575
  591TIP3    H223265   0.150   1.507  11.703
  592TIP3   OH223266   0.569   1.596  11.346
  592TIP3    H123267   0.541   1.684  11.320
  592TIP3    H223268   0.663   1.594  11.326
  593TIP3   OH223269   0.931   1.711  11.628
  593TIP3    H123270   0.944   1.679  11.718
  593TIP3    H223271   1.010   1.761  11.609
  594TIP3   OH223272   1.163   1.849  11.581
  594TIP3    H123273   1.219   1.799  11.522
  594TIP3    H223274   1.221   1.872  11.654
  595TIP3   OH223275   1.738   0.115  11.428
  595TIP3    H123276   1.668   0.148  11.371
  595TIP3    H223277   1.694   0.052  11.485
  596TIP3   OH223278   0.257   1.895  11.367
  596TIP3    H123279   0.174   1.935  11.340
  596TIP3    H223280   0.279   1.938  11.449
  597TIP3   OH223281   0.520   1.860  11.280
  597TIP3    H123282   0.428   1.872  11.303
  597TIP3    H223283   0.530   1.902  11.195
  598TIP3   OH223284   0.979   1.836  11.186
  598TIP3    H123285   0.932   1.867  11.109
  598TIP3    H223286   0.988   1.913  11.242
  599TIP3   OH223287   1.208   1.725  11.296
  599TIP3    H123288   1.130   1.758  11.251
  599TIP3    H223289   1.279   1.781  11.265
  600TIP3   OH223290   1.458   1.861  11.279
  600TIP3    H123291   1.468   1.952  11.253
  600TIP3    H223292   1.493   1.810  11.206
  601TIP3   OH223293   0.234   1.775  11.021
  601TIP3    H123294   0.212   1.732  11.103
  601TIP3    H223295   0.312   1.729  10.990
  602TIP3   OH223296   0.449   1.637  10.930
  602TIP3    H123297   0.434   1.546  10.955
  602TIP3    H223298   0.539   1.655  10.958
  603TIP3   OH223299   0.711   1.652  11.027
  603TIP3    H123300   0.719   1.563  10.992
  603TIP3    H223301   0.745   1.646  11.116
  604TIP3   OH223302   1.049   0.263  10.932
  604TIP3    H123303   0.982   0.201  10.959
  604TIP3    H223304   1.110   0.211  10.879
  605TIP3   OH223305   1.496   0.029  10.894
  605TIP3    H123306   1.573   0.068  10.854
  605TIP3    H223307   1.429   0.097  10.887
  606TIP3   OH223308   1.719   0.154  10.765
  606TIP3    H123309   1.800   0.104  10.775
  606TIP3    H223310   1.744   0.244  10.786
  607TIP3   OH223311   0.326   0.061  10.648
  607TIP3    H123312   0.243   0.065  10.599
  607TIP3    H223313   0.322  -0.023  10.693
  608TIP3   OH223314   0.154   0.201  10.150
  608TIP3    H123315   0.133   0.293  10.165
  608TIP3    H223316   0.079   0.152  10.184
  609TIP3   OH223317   0.769   0.093  10.718
  609TIP3    H123318   0.849   0.126  10.678
  609TIP3    H223319   0.785   0.098  10.812
  610TIP3   OH223320   1.258   0.156  10.782
  610TIP3    H123321   1.267   0.213  10.705
  610TIP3    H223322   1.265   0.067  10.747
  611TIP3   OH223323   1.413   0.152  10.374
  611TIP3    H123324   1.335   0.200  10.400
  611TIP3    H223325   1.384   0.092  10.306
  612TIP3   OH223326   0.150   1.700  10.384
  612TIP3    H123327   0.079   1.636  10.378
  612TIP3    H223328   0.121   1.761  10.452
  613TIP3   OH223329   0.428   0.200  10.115
  613TIP3    H123330   0.333   0.195  10.123
  613TIP3    H223331   0.460   0.211  10.204
  614TIP3   OH223332   0.816   0.253  10.385
  614TIP3    H123333   0.865   0.216  10.459
  614TIP3    H223334   0.847   0.343  10.378
  615TIP3   OH223335   1.054   1.757  10.156
  615TIP3    H123336   1.120   1.750  10.225
  615TIP3    H223337   1.105   1.775  10.077
  616TIP3   OH223338   1.667   1.767  10.445
  616TIP3    H123339   1.669   1.674  10.423
  616TIP3    H223340   1.613   1.807  10.376
  617TIP3   OH223341   0.271   0.211  11.593
  617TIP3    H123342   0.242   0.130  11.552
  617TIP3    H223343   0.347   0.185  11.646
  618TIP3   OH223344   0.472   0.149  11.769
  618TIP3    H123345   0.561   0.180  11.787
  618TIP3    H223346   0.482   0.055  11.754
  619TIP3   OH223347   1.339   0.089  11.815
  619TIP3    H123348   1.390   0.023  11.862
  619TIP3    H223349   1.262   0.041  11.782
  620TIP3   OH223350   1.604   1.628  11.684
  620TIP3    H123351   1.546   1.617  11.608
  620TIP3    H223352   1.596   1.720  11.707
  621TIP3   OH223353   3.089   1.029  10.666
  621TIP3    H123354   3.076   1.123  10.674
  621TIP3    H223355   3.021   1.001  10.604
  622TIP3   OH223356   2.966   0.945  11.054
  622TIP3    H123357   2.993   0.900  11.134
  622TIP3    H223358   2.916   0.879  11.005
  623TIP3   OH223359   2.175   0.879  11.180
  623TIP3    H123360   2.182   0.809  11.245
  623TIP3    H223361   2.266   0.902  11.159
  624TIP3   OH223362   3.349   1.251  10.883
  624TIP3    H123363   3.307   1.178  10.929
  624TIP3    H223364   3.365   1.317  10.950
  625TIP3   OH223365   2.318   1.353  10.984
  625TIP3    H123366   2.284   1.266  10.966
  625TIP3    H223367   2.413   1.340  10.992
  626TIP3   OH223368   1.959   0.658  10.618
  626TIP3    H123369   1.917   0.744  10.610
  626TIP3    H223370   1.897   0.605  10.669
  627TIP3   OH223371   2.027   0.942  10.824
  627TIP3    H123372   2.060   0.854  10.843
  627TIP3    H223373   2.103   0.999  10.836
  628TIP3   OH223374   3.079   1.720  10.925
  628TIP3    H123375   3.120   1.662  10.861
  628TIP3    H223376   3.030   1.662  10.982
  629TIP3   OH223377   2.811   1.193  11.054
  629TIP3    H123378   2.852   1.112  11.024
  629TIP3    H223379   2.873   1.230  11.117
  630TIP3   OH223380   3.731   0.311  11.168
  630TIP3    H123381   3.732   0.388  11.224
  630TIP3    H223382   3.775   0.339  11.088
  631TIP3   OH223383   3.121   0.614  11.069
  631TIP3    H123384   3.137   0.522  11.087
  631TIP3    H223385   3.099   0.616  10.975
  632TIP3   OH223386   2.485   0.432  10.802
  632TIP3    H123387   2.481   0.512  10.751
  632TIP3    H223388   2.435   0.368  10.750
  633TIP3   OH223389   3.219   0.446  10.647
  633TIP3    H123390   3.257   0.420  10.731
  633TIP3    H223391   3.294   0.476  10.595
  634TIP3   OH223392   2.109   0.685  10.896
  634TIP3    H123393   2.174   0.647  10.955
  634TIP3    H223394   2.131   0.648  10.810
  635TIP3   OH223395   2.581   0.816  10.860
  635TIP3    H123396   2.667   0.785  10.886
  635TIP3    H223397   2.550   0.751  10.797
  636TIP3   OH223398   3.713   0.501  11.375
  636TIP3    H123399   3.644   0.560  11.345
  636TIP3    H223400   3.695   0.489  11.468
  637TIP3   OH223401   2.305   0.357  11.239
  637TIP3    H123402   2.278   0.410  11.164
  637TIP3    H223403   2.233   0.367  11.302
  638TIP3   OH223404   3.037   1.292  10.594
  638TIP3    H123405   2.994   1.265  10.512
  638TIP3    H223406   3.000   1.377  10.614
  639TIP3   OH223407   2.582   1.119  11.193
  639TIP3    H123408   2.531   1.192  11.230
  639TIP3    H223409   2.652   1.161  11.144
  640TIP3   OH223410   3.325   0.424  10.896
  640TIP3    H123411   3.273   0.379  10.963
  640TIP3    H223412   3.389   0.475  10.946
  641TIP3   OH223413   2.305   0.510  11.003
  641TIP3    H123414   2.358   0.563  11.062
  641TIP3    H223415   2.369   0.472  10.942
  642TIP3   OH223416   2.433   1.320  11.310
  642TIP3    H123417   2.438   1.415  11.297
  642TIP3    H223418   2.342   1.305  11.337
  643TIP3   OH223419   1.998   1.280  10.397
  643TIP3    H123420   1.951   1.336  10.334
  643TIP3    H223421   2.026   1.340  10.466
  644TIP3   OH223422   3.380   1.456  11.077
  644TIP3    H123423   3.286   1.458  11.098
  644TIP3    H223424   3.400   1.546  11.050
  645TIP3   OH223425   3.464   0.264  11.256
  645TIP3    H123426   3.395   0.261  11.189
  645TIP3    H223427   3.545   0.277  11.206
  646TIP3   OH223428   2.684   0.131  10.945
  646TIP3    H123429   2.669   0.037  10.955
  646TIP3    H223430   2.609   0.172  10.989
  647TIP3   OH223431   3.206   1.583  10.723
  647TIP3    H123432   3.241   1.501  10.689
  647TIP3    H223433   3.279   1.645  10.716
  648TIP3   OH223434   3.304   1.338  10.627
  648TIP3    H123435   3.211   1.316  10.620
  648TIP3    H223436   3.330   1.304  10.713
  649TIP3   OH223437   3.499   1.220  11.433
  649TIP3    H123438   3.481   1.169  11.354
  649TIP3    H223439   3.511   1.310  11.401
  650TIP3   OH223440   2.949   0.975  10.429
  650TIP3    H123441   2.911   1.061  10.410
  650TIP3    H223442   3.013   0.961  10.359
  651TIP3   OH223443   2.985   0.707  10.160
  651TIP3    H123444   3.033   0.786  10.183
  651TIP3    H223445   2.978   0.709  10.065
  652TIP3   OH223446   3.655   0.914  11.268
  652TIP3    H123447   3.581   0.972  11.251
  652TIP3    H223448   3.714   0.927  11.194
  653TIP3   OH223449   3.298   0.955  10.506
  653TIP3    H123450   3.232   0.979  10.571
  653TIP3    H223451   3.363   0.905  10.555
  654TIP3   OH223452   3.259   0.768  11.457
  654TIP3    H123453   3.247   0.840  11.520
  654TIP3    H223454   3.195   0.785  11.388
  655TIP3   OH223455   2.474   1.029  10.720
  655TIP3    H123456   2.428   0.981  10.651
  655TIP3    H223457   2.521   0.962  10.769
  656TIP3   OH223458   2.600   1.364  10.958
  656TIP3    H123459   2.592   1.370  10.863
  656TIP3    H223460   2.678   1.310  10.972
  657TIP3   OH223461   2.437   0.918  11.077
  657TIP3    H123462   2.491   0.887  11.004
  657TIP3    H223463   2.489   0.987  11.118
  658TIP3   OH223464   3.122   1.468  11.163
  658TIP3    H123465   3.099   1.540  11.222
  658TIP3    H223466   3.075   1.392  11.197
  659TIP3   OH223467   2.585   1.339  11.541
  659TIP3    H123468   2.521   1.397  11.584
  659TIP3    H223469   2.542   1.313  11.460
  660TIP3   OH223470   3.170   0.892  10.271
  660TIP3    H123471   3.223   0.927  10.343
  660TIP3    H223472   3.220   0.912  10.192
  661TIP3   OH223473   2.243   0.922  11.509
  661TIP3    H123474   2.254   1.006  11.553
  661TIP3    H223475   2.152   0.923  11.479
  662TIP3   OH223476   2.952   1.550  10.613
  662TIP3    H123477   3.033   1.580  10.652
  662TIP3    H223478   2.916   1.626  10.568
  663TIP3   OH223479   2.386   1.517  11.613
  663TIP3    H123480   2.386   1.548  11.523
  663TIP3    H223481   2.294   1.504  11.635
  664TIP3   OH223482   1.956   1.178  11.370
  664TIP3    H123483   1.902   1.187  11.292
  664TIP3    H223484   1.965   1.083  11.381
  665TIP3   OH223485   1.914   1.464  11.051
  665TIP3    H123486   1.998   1.474  11.097
  665TIP3    H223487   1.864   1.542  11.075
  666TIP3   OH223488   3.748   1.546  11.642
  666TIP3    H123489   3.740   1.452  11.626
  666TIP3    H223490   3.661   1.572  11.672
  667TIP3   OH223491   2.822   1.470  11.497
  667TIP3    H123492   2.813   1.554  11.543
  667TIP3    H223493   2.738   1.426  11.511
  668TIP3   OH223494   2.913   1.800  10.484
  668TIP3    H123495   2.853   1.802  10.409
  668TIP3    H223496   2.887   1.876  10.537
  669TIP3   OH223497   2.243   1.705  10.662
  669TIP3    H123498   2.269   1.671  10.747
  669TIP3    H223499   2.193   1.634  10.622
  670TIP3   OH223500   3.203   1.792  10.473
  670TIP3    H123501   3.110   1.770  10.471
  670TIP3    H223502   3.242   1.736  10.406
  671TIP3   OH223503   3.434   0.650  11.656
  671TIP3    H123504   3.374   0.680  11.588
  671TIP3    H223505   3.446   0.556  11.638
  672TIP3   OH223506   2.182   1.325  11.426
  672TIP3    H123507   2.207   1.284  11.509
  672TIP3    H223508   2.103   1.278  11.400
  673TIP3   OH223509   2.440   0.194  11.060
  673TIP3    H123510   2.364   0.160  11.013
  673TIP3    H223511   2.402   0.241  11.135
  674TIP3   OH223512   2.899   0.140  11.455
  674TIP3    H123513   2.887   0.097  11.539
  674TIP3    H223514   2.810   0.147  11.419
  675TIP3   OH223515   3.201   0.496  11.502
  675TIP3    H123516   3.130   0.482  11.565
  675TIP3    H223517   3.200   0.590  11.485
  676TIP3   OH223518   3.289   0.905  10.025
  676TIP3    H123519   3.226   0.884   9.956
  676TIP3    H223520   3.356   0.957   9.982
  677TIP3   OH223521   2.440   0.664  11.189
  677TIP3    H123522   2.373   0.662  11.257
  677TIP3    H223523   2.441   0.755  11.160
  678TIP3   OH223524   2.458   0.666  10.654
  678TIP3    H123525   2.365   0.641  10.654
  678TIP3    H223526   2.483   0.667  10.562
  679TIP3   OH223527   2.973   0.732  10.556
  679TIP3    H123528   2.950   0.818  10.521
  679TIP3    H223529   3.052   0.706  10.507
  680TIP3   OH223530   2.907   0.709  11.660
  680TIP3    H123531   2.850   0.643  11.697
  680TIP3    H223532   2.992   0.696  11.704
  681TIP3   OH223533   3.070   0.633  10.800
  681TIP3    H123534   3.030   0.685  10.731
  681TIP3    H223535   3.112   0.560  10.754
  682TIP3   OH223536   2.224   0.666  11.359
  682TIP3    H123537   2.221   0.719  11.439
  682TIP3    H223538   2.179   0.585  11.382
  683TIP3   OH223539   2.467   0.354  10.097
  683TIP3    H123540   2.494   0.283  10.039
  683TIP3    H223541   2.469   0.432  10.042
  684TIP3   OH223542   1.851   0.425  10.743
  684TIP3    H123543   1.925   0.405  10.800
  684TIP3    H223544   1.878   0.393  10.657
  685TIP3   OH223545   3.051   0.782  11.268
  685TIP3    H123546   3.083   0.726  11.198
  685TIP3    H223547   2.983   0.730  11.311
  686TIP3   OH223548   2.766   0.394  10.749
  686TIP3    H123549   2.677   0.402  10.782
  686TIP3    H223550   2.818   0.369  10.826
  687TIP3   OH223551   2.207   0.556  10.661
  687TIP3    H123552   2.119   0.582  10.633
  687TIP3    H223553   2.203   0.460  10.667
  688TIP3   OH223554   3.145   0.340  11.094
  688TIP3    H123555   3.106   0.339  11.182
  688TIP3    H223556   3.076   0.306  11.037
  689TIP3   OH223557   3.489   1.897  11.729
  689TIP3    H123558   3.511   1.929  11.642
  689TIP3    H223559   3.563   1.921  11.784
  690TIP3   OH223560   2.251   1.164  11.657
  690TIP3    H123561   2.316   1.155  11.726
  690TIP3    H223562   2.168   1.173  11.703
  691TIP3   OH223563   2.823   0.714  10.954
  691TIP3    H123564   2.893   0.662  10.914
  691TIP3    H223565   2.791   0.659  11.025
  692TIP3   OH223566   2.327   0.282  10.619
  692TIP3    H123567   2.274   0.203  10.632
  692TIP3    H223568   2.410   0.249  10.584
  693TIP3   OH223569   2.707   0.583  11.172
  693TIP3    H123570   2.621   0.623  11.187
  693TIP3    H223571   2.757   0.603  11.251
  694TIP3   OH223572   3.457   1.090  11.195
  694TIP3    H123573   3.516   1.145  11.143
  694TIP3    H223574   3.383   1.071  11.136
  695TIP3   OH223575   2.903   1.181  11.505
  695TIP3    H123576   2.923   1.141  11.590
  695TIP3    H223577   2.870   1.268  11.526
  696TIP3   OH223578   3.170   0.636  10.386
  696TIP3    H123579   3.256   0.602  10.408
  696TIP3    H223580   3.187   0.717  10.339
  697TIP3   OH223581   2.268   1.074  10.906
  697TIP3    H123582   2.336   1.078  10.839
  697TIP3    H223583   2.307   1.020  10.975
  698TIP3   OH223584   2.874   1.237  10.376
  698TIP3    H123585   2.887   1.319  10.328
  698TIP3    H223586   2.793   1.251  10.426
  699TIP3   OH223587   1.969   0.906  11.447
  699TIP3    H123588   1.937   0.862  11.526
  699TIP3    H223589   1.901   0.889  11.381
  700TIP3   OH223590   2.698   0.899  11.682
  700TIP3    H123591   2.628   0.862  11.628
  700TIP3    H223592   2.775   0.847  11.661
  701TIP3   OH223593   3.104   1.456  11.502
  701TIP3    H123594   3.011   1.458  11.477
  701TIP3    H223595   3.103   1.466  11.597
  702TIP3   OH223596   3.724   1.275  11.594
  702TIP3    H123597   3.630   1.260  11.577
  702TIP3    H223598   3.767   1.244  11.514
  703TIP3   OH223599   3.247   1.023  11.018
  703TIP3    H123600   3.152   1.013  11.018
  703TIP3    H223601   3.279   0.945  10.972
  704TIP3   OH223602   2.531   1.414  10.694
  704TIP3    H123603   2.549   1.506  10.675
  704TIP3    H223604   2.438   1.404  10.676
  705TIP3   OH223605   2.648   1.202  10.563
  705TIP3    H123606   2.624   1.287  10.599
  705TIP3    H223607   2.600   1.138  10.617
  706TIP3   OH223608   2.715   1.611  11.271
  706TIP3    H123609   2.770   1.686  11.250
  706TIP3    H223610   2.769   1.557  11.328
  707TIP3   OH223611   2.523   1.680  10.646
  707TIP3    H123612   2.434   1.707  10.625
  707TIP3    H223613   2.572   1.762  10.653
  708TIP3   OH223614   3.005   1.230  11.253
  708TIP3    H123615   2.968   1.211  11.340
  708TIP3    H223616   3.070   1.160  11.240
  709TIP3   OH223617   3.317   1.636  11.462
  709TIP3    H123618   3.235   1.587  11.458
  709TIP3    H223619   3.304   1.709  11.401
  710TIP3   OH223620   3.706   1.780  10.104
  710TIP3    H123621   3.743   1.732  10.030
  710TIP3    H223622   3.611   1.770  10.093
  711TIP3   OH223623   2.096   0.420  11.413
  711TIP3    H123624   2.003   0.441  11.410
  711TIP3    H223625   2.103   0.349  11.477
  712TIP3   OH223626   3.344   1.203  10.390
  712TIP3    H123627   3.334   1.117  10.431
  712TIP3    H223628   3.334   1.266  10.462
  713TIP3   OH223629   2.110   1.593  11.260
  713TIP3    H123630   2.141   1.516  11.308
  713TIP3    H223631   2.126   1.666  11.320
  714TIP3   OH223632   2.204   1.112  10.292
  714TIP3    H123633   2.139   1.164  10.339
  714TIP3    H223634   2.183   1.124  10.199
  715TIP3   OH223635   3.023   0.357  11.340
  715TIP3    H123636   3.091   0.385  11.401
  715TIP3    H223637   2.983   0.280  11.382
  716TIP3   OH223638   3.068   0.357  10.432
  716TIP3    H123639   3.133   0.320  10.371
  716TIP3    H223640   3.120   0.384  10.507
  717TIP3   OH223641   2.917   1.467  10.226
  717TIP3    H123642   2.844   1.522  10.198
  717TIP3    H223643   2.995   1.520  10.209
  718TIP3   OH223644   2.814   0.517  10.501
  718TIP3    H123645   2.853   0.601  10.529
  718TIP3    H223646   2.792   0.473  10.583
  719TIP3   OH223647   2.880   0.606  11.392
  719TIP3    H123648   2.883   0.626  11.485
  719TIP3    H223649   2.914   0.516  11.385
  720TIP3   OH223650   2.939   0.206  10.623
  720TIP3    H123651   2.880   0.272  10.661
  720TIP3    H223652   2.972   0.246  10.543
  721TIP3   OH223653   3.454   0.398  11.505
  721TIP3    H123654   3.361   0.422  11.505
  721TIP3    H223655   3.468   0.358  11.420
  722TIP3   OH223656   3.323   0.775  10.900
  722TIP3    H123657   3.238   0.733  10.888
  722TIP3    H223658   3.372   0.715  10.957
  723TIP3   OH223659   3.453   1.729  11.062
  723TIP3    H123660   3.440   1.798  10.997
  723TIP3    H223661   3.548   1.725  11.074
  724TIP3   OH223662   2.148   0.111  11.009
  724TIP3    H123663   2.199   0.034  10.984
  724TIP3    H223664   2.111   0.090  11.094
  725TIP3   OH223665   2.061   1.505  10.568
  725TIP3    H123666   2.007   1.538  10.640
  725TIP3    H223667   2.041   1.562  10.494
  726TIP3   OH223668   2.026   1.783  11.738
  726TIP3    H123669   2.093   1.751  11.798
  726TIP3    H223670   1.986   1.704  11.703
  727TIP3   OH223671   2.461   1.609  11.860
  727TIP3    H123672   2.538   1.556  11.881
  727TIP3    H223673   2.437   1.583  11.772
  728TIP3   OH223674   3.096   1.482  11.776
  728TIP3    H123675   3.088   1.398  11.821
  728TIP3    H223676   3.173   1.523  11.815
  729TIP3   OH223677   2.005   1.180  11.791
  729TIP3    H123678   2.006   1.085  11.785
  729TIP3    H223679   1.935   1.208  11.732
  730TIP3   OH223680   2.666   1.173  11.746
  730TIP3    H123681   2.645   1.216  11.663
  730TIP3    H223682   2.690   1.084  11.721
  731TIP3   OH223683   3.232   1.202  11.518
  731TIP3    H123684   3.322   1.222  11.491
  731TIP3    H223685   3.184   1.283  11.502
  732TIP3   OH223686   2.075   0.914  11.773
  732TIP3    H123687   2.152   0.869  11.736
  732TIP3    H223688   2.082   0.899  11.867
  733TIP3   OH223689   2.498   0.800  11.506
  733TIP3    H123690   2.415   0.847  11.501
  733TIP3    H223691   2.551   0.836  11.435
  734TIP3   OH223692   3.003   1.032  11.776
  734TIP3    H123693   3.079   0.995  11.730
  734TIP3    H223694   2.973   0.960  11.832
  735TIP3   OH223695   2.535   0.536  11.567
  735TIP3    H123696   2.542   0.481  11.489
  735TIP3    H223697   2.522   0.624  11.534
  736TIP3   OH223698   2.563   0.383  11.333
  736TIP3    H123699   2.613   0.425  11.264
  736TIP3    H223700   2.474   0.379  11.299
  737TIP3   OH223701   2.678   0.902  11.330
  737TIP3    H123702   2.771   0.919  11.348
  737TIP3    H223703   2.649   0.980  11.283
  738TIP3   OH223704   3.143   0.648  11.816
  738TIP3    H123705   3.155   0.553  11.825
  738TIP3    H223706   3.232   0.683  11.812
  739TIP3   OH223707   3.263   0.971  11.655
  739TIP3    H123708   3.239   1.052  11.611
  739TIP3    H223709   3.359   0.969  11.649
  740TIP3   OH223710   2.399   0.580  11.805
  740TIP3    H123711   2.310   0.545  11.791
  740TIP3    H223712   2.440   0.574  11.719
  741TIP3   OH223713   2.617   0.122  11.411
  741TIP3    H123714   2.599   0.214  11.389
  741TIP3    H223715   2.534   0.078  11.399
  742TIP3   OH223716   2.744   0.507  11.742
  742TIP3    H123717   2.709   0.461  11.818
  742TIP3    H223718   2.670   0.513  11.681
  743TIP3   OH223719   2.995   0.419  11.660
  743TIP3    H123720   2.904   0.428  11.688
  743TIP3    H223721   3.040   0.378  11.734
  744TIP3   OH223722   3.197   0.366  11.860
  744TIP3    H123723   3.199   0.274  11.836
  744TIP3    H223724   3.175   0.367  11.953
  745TIP3   OH223725   2.174   0.432  11.759
  745TIP3    H123726   2.167   0.356  11.702
  745TIP3    H223727   2.184   0.395  11.847
  746TIP3   OH223728   2.725   0.001  11.637
  746TIP3    H123729   2.658  -0.023  11.701
  746TIP3    H223730   2.677   0.047  11.568
  747TIP3   OH223731   2.773   0.215  11.834
  747TIP3    H123732   2.764   0.133  11.786
  747TIP3    H223733   2.684   0.247  11.845
  748TIP3   OH223734   2.757   1.851  10.263
  748TIP3    H123735   2.743   1.768  10.217
  748TIP3    H223736   2.688   1.909  10.230
  749TIP3   OH223737   1.873   1.843  10.629
  749TIP3    H123738   1.822   1.818  10.553
  749TIP3    H223739   1.892   1.761  10.674
  750TIP3   OH223740   1.948   1.624  10.798
  750TIP3    H123741   1.909   1.551  10.847
  750TIP3    H223742   1.996   1.674  10.865
  751TIP3   OH223743   3.718   1.726  11.139
  751TIP3    H123744   3.712   1.724  11.234
  751TIP3    H223745   3.786   1.791  11.121
  752TIP3   OH223746   3.661   1.690  11.410
  752TIP3    H123747   3.608   1.617  11.377
  752TIP3    H223748   3.711   1.652  11.483
  753TIP3   OH223749   3.538   1.284  11.887
  753TIP3    H123750   3.452   1.294  11.927
  753TIP3    H223751   3.590   1.356  11.923
  754TIP3   OH223752   3.719   0.881  10.619
  754TIP3    H123753   3.630   0.854  10.644
  754TIP3    H223754   3.707   0.945  10.550
  755TIP3   OH223755   3.705   1.212  11.125
  755TIP3    H123756   3.754   1.152  11.070
  755TIP3    H223757   3.728   1.299  11.093
  756TIP3   OH223758   3.499   1.477  11.329
  756TIP3    H123759   3.428   1.525  11.370
  756TIP3    H223760   3.471   1.464  11.239
  757TIP3   OH223761   3.458   0.783  10.659
  757TIP3    H123762   3.440   0.692  10.635
  757TIP3    H223763   3.419   0.794  10.746
  758TIP3   OH223764   1.942   0.977  11.080
  758TIP3    H123765   1.955   0.971  10.985
  758TIP3    H223766   2.026   0.951  11.118
  759TIP3   OH223767   3.538   0.984  11.619
  759TIP3    H123768   3.602   0.916  11.600
  759TIP3    H223769   3.549   1.048  11.548
  760TIP3   OH223770   3.688   0.747  11.615
  760TIP3    H123771   3.598   0.720  11.630
  760TIP3    H223772   3.740   0.669  11.635
  761TIP3   OH223773   3.436   0.414  10.107
  761TIP3    H123774   3.377   0.400  10.180
  761TIP3    H223775   3.442   0.329  10.064
  762TIP3   OH223776   3.428   0.534  10.479
  762TIP3    H123777   3.447   0.441  10.476
  762TIP3    H223778   3.511   0.576  10.457
  763TIP3   OH223779   3.485   0.595  11.047
  763TIP3    H123780   3.577   0.609  11.026
  763TIP3    H223781   3.479   0.611  11.141
  764TIP3   OH223782   3.505   0.682  11.313
  764TIP3    H123783   3.424   0.710  11.356
  764TIP3    H223784   3.555   0.762  11.302
  765TIP3   OH223785   1.927   0.530  11.704
  765TIP3    H123786   2.017   0.503  11.722
  765TIP3    H223787   1.880   0.448  11.690
  766TIP3   OH223788   3.749   0.067  11.833
  766TIP3    H123789   3.754  -0.018  11.788
  766TIP3    H223790   3.729   0.130  11.763
  767TIP3   OH223791   3.491   0.265  10.488
  767TIP3    H123792   3.508   0.222  10.571
  767TIP3    H223793   3.430   0.207  10.443
  768TIP3   OH223794   2.082   0.361  10.892
  768TIP3    H123795   2.098   0.275  10.932
  768TIP3    H223796   2.146   0.419  10.933
  769TIP3   OH223797   1.874   0.620  11.043
  769TIP3    H123798   1.944   0.636  10.980
  769TIP3    H223799   1.882   0.692  11.106
  770TIP3   OH223800   3.659   0.248  11.645
  770TIP3    H123801   3.581   0.300  11.660
  770TIP3    H223802   3.641   0.199  11.564
  771TIP3   OH223803   1.892   0.343  10.486
  771TIP3    H123804   1.807   0.299  10.485
  771TIP3    H223805   1.948   0.289  10.429
  772TIP3   OH223806   3.420   1.752  10.709
  772TIP3    H123807   3.416   1.799  10.625
  772TIP3    H223808   3.424   1.820  10.775
  773TIP3   OH223809   1.949   0.093  11.244
  773TIP3    H123810   1.886   0.084  11.315
  773TIP3    H223811   1.922   0.173  11.198
  774TIP3   OH223812   2.129   1.490  11.718
  774TIP3    H123813   2.042   1.500  11.679
  774TIP3    H223814   2.112   1.449  11.803
  775TIP3   OH223815   2.452   1.597  11.349
  775TIP3    H123816   2.423   1.685  11.324
  775TIP3    H223817   2.545   1.596  11.328
  776TIP3   OH223818   2.813   1.713  11.632
  776TIP3    H123819   2.826   1.682  11.722
  776TIP3    H223820   2.892   1.763  11.612
  777TIP3   OH223821   3.048   1.850  11.587
  777TIP3    H123822   3.105   1.802  11.528
  777TIP3    H223823   3.104   1.876  11.659
  778TIP3   OH223824   3.596   0.089  11.423
  778TIP3    H123825   3.542   0.143  11.366
  778TIP3    H223826   3.573  -0.001  11.399
  779TIP3   OH223827   2.146   1.877  11.371
  779TIP3    H123828   2.071   1.926  11.337
  779TIP3    H223829   2.164   1.916  11.457
  780TIP3   OH223830   2.408   1.861  11.283
  780TIP3    H123831   2.315   1.870  11.306
  780TIP3    H223832   2.415   1.903  11.197
  781TIP3   OH223833   2.858   1.835  11.189
  781TIP3    H123834   2.806   1.866  11.115
  781TIP3    H223835   2.868   1.912  11.245
  782TIP3   OH223836   3.085   1.716  11.292
  782TIP3    H123837   3.007   1.754  11.251
  782TIP3    H223838   3.156   1.773  11.264
  783TIP3   OH223839   3.330   1.853  11.274
  783TIP3    H123840   3.350   1.945  11.256
  783TIP3    H223841   3.369   1.806  11.200
  784TIP3   OH223842   2.104   1.736  11.022
  784TIP3    H123843   2.107   1.691  11.107
  784TIP3    H223844   2.181   1.703  10.976
  785TIP3   OH223845   2.323   1.618  10.914
  785TIP3    H123846   2.314   1.526  10.937
  785TIP3    H223847   2.413   1.640  10.939
  786TIP3   OH223848   2.589   1.639  11.021
  786TIP3    H123849   2.597   1.551  10.986
  786TIP3    H223850   2.622   1.633  11.111
  787TIP3   OH223851   2.933   0.253  10.934
  787TIP3    H123852   2.853   0.203  10.950
  787TIP3    H223853   2.993   0.191  10.894
  788TIP3   OH223854   3.386   0.045  10.933
  788TIP3    H123855   3.450   0.078  10.870
  788TIP3    H223856   3.302   0.077  10.900
  789TIP3   OH223857   3.573   0.169  10.737
  789TIP3    H123858   3.637   0.104  10.767
  789TIP3    H223859   3.611   0.253  10.760
  790TIP3   OH223860   2.211   0.021  10.668
  790TIP3    H123861   2.120   0.028  10.696
  790TIP3    H223862   2.256  -0.018  10.743
  791TIP3   OH223863   2.010   0.190  10.300
  791TIP3    H123864   2.083   0.202  10.239
  791TIP3    H223865   1.939   0.155  10.245
  792TIP3   OH223866   2.591   0.150  10.677
  792TIP3    H123867   2.645   0.200  10.616
  792TIP3    H223868   2.639   0.154  10.760
  793TIP3   OH223869   3.143   0.116  10.801
  793TIP3    H123870   3.103   0.171  10.735
  793TIP3    H223871   3.153   0.031  10.759
  794TIP3   OH223872   2.021   1.675  10.361
  794TIP3    H123873   1.948   1.696  10.303
  794TIP3    H223874   2.098   1.713  10.318
  795TIP3   OH223875   2.208   0.264  10.124
  795TIP3    H123876   2.205   0.188  10.065
  795TIP3    H223877   2.299   0.292  10.121
  796TIP3   OH223878   2.672   0.279  10.441
  796TIP3    H123879   2.661   0.254  10.350
  796TIP3    H223880   2.717   0.363  10.438
  797TIP3   OH223881   3.541   1.720  10.452
  797TIP3    H123882   3.513   1.652  10.513
  797TIP3    H223883   3.474   1.721  10.384
  798TIP3   OH223884   2.133   0.208  11.607
  798TIP3    H123885   2.052   0.160  11.623
  798TIP3    H223886   2.199   0.161  11.659
  799TIP3   OH223887   2.296   0.080  11.803
  799TIP3    H123888   2.381   0.038  11.813
  799TIP3    H223889   2.234   0.006  11.799
  800TIP3   OH223890   3.211   0.103  11.793
  800TIP3    H123891   3.256   0.034  11.842
  800TIP3    H223892   3.141   0.058  11.746
  801TIP3   OH223893   3.485   1.625  11.684
  801TIP3    H123894   3.428   1.617  11.608
  801TIP3    H223895   3.483   1.718  11.707
  802TIP3   OH223896   4.926   1.016  10.688
  802TIP3    H123897   4.923   1.107  10.660
  802TIP3    H223898   4.875   0.968  10.623
  803TIP3   OH223899   4.806   0.960  11.009
  803TIP3    H123900   4.872   0.923  11.067
  803TIP3    H223901   4.844   0.955  10.921
  804TIP3   OH223902   4.071   0.893  11.201
  804TIP3    H123903   4.069   0.808  11.245
  804TIP3    H223904   4.122   0.949  11.259
  805TIP3   OH223905   5.249   1.272  10.860
  805TIP3    H123906   5.245   1.188  10.904
  805TIP3    H223907   5.263   1.336  10.930
  806TIP3   OH223908   4.220   1.354  10.995
  806TIP3    H123909   4.193   1.264  10.977
  806TIP3    H223910   4.315   1.351  10.998
  807TIP3   OH223911   3.832   0.630  10.556
  807TIP3    H123912   3.797   0.719  10.570
  807TIP3    H223913   3.778   0.575  10.612
  808TIP3   OH223914   3.930   0.922  10.815
  808TIP3    H123915   3.956   0.831  10.828
  808TIP3    H223916   3.865   0.920  10.745
  809TIP3   OH223917   4.969   1.724  10.933
  809TIP3    H123918   5.013   1.678  10.861
  809TIP3    H223919   4.948   1.655  10.996
  810TIP3   OH223920   4.685   1.204  11.067
  810TIP3    H123921   4.717   1.122  11.030
  810TIP3    H223922   4.754   1.232  11.127
  811TIP3   OH223923   5.539   0.338  11.141
  811TIP3    H123924   5.566   0.409  11.199
  811TIP3    H223925   5.594   0.350  11.063
  812TIP3   OH223926   5.022   0.594  11.064
  812TIP3    H123927   5.054   0.507  11.087
  812TIP3    H223928   4.992   0.587  10.974
  813TIP3   OH223929   4.337   0.426  10.799
  813TIP3    H123930   4.343   0.509  10.751
  813TIP3    H223931   4.294   0.366  10.738
  814TIP3   OH223932   5.119   0.433  10.684
  814TIP3    H123933   5.180   0.424  10.757
  814TIP3    H223934   5.174   0.458  10.610
  815TIP3   OH223935   3.989   0.658  10.865
  815TIP3    H123936   4.047   0.613  10.926
  815TIP3    H223937   4.011   0.620  10.779
  816TIP3   OH223938   4.472   0.824  10.812
  816TIP3    H123939   4.559   0.784  10.823
  816TIP3    H223940   4.423   0.760  10.761
  817TIP3   OH223941   5.632   0.525  11.337
  817TIP3    H123942   5.549   0.573  11.341
  817TIP3    H223943   5.650   0.500  11.427
  818TIP3   OH223944   4.176   0.335  11.235
  818TIP3    H123945   4.151   0.384  11.156
  818TIP3    H223946   4.104   0.351  11.296
  819TIP3   OH223947   4.925   1.249  10.537
  819TIP3    H123948   4.913   1.260  10.442
  819TIP3    H223949   5.000   1.304  10.558
  820TIP3   OH223950   4.453   1.126  11.203
  820TIP3    H123951   4.395   1.194  11.237
  820TIP3    H223952   4.518   1.174  11.151
  821TIP3   OH223953   5.277   0.412  10.899
  821TIP3    H123954   5.289   0.326  10.938
  821TIP3    H223955   5.323   0.472  10.958
  822TIP3   OH223956   4.163   0.490  11.004
  822TIP3    H123957   4.217   0.544  11.061
  822TIP3    H223958   4.224   0.457  10.938
  823TIP3   OH223959   4.308   1.327  11.320
  823TIP3    H123960   4.317   1.421  11.307
  823TIP3    H223961   4.215   1.314  11.342
  824TIP3   OH223962   3.931   1.293  10.353
  824TIP3    H123963   3.907   1.206  10.320
  824TIP3    H223964   4.013   1.314  10.309
  825TIP3   OH223965   5.259   1.456  11.072
  825TIP3    H123966   5.165   1.458  11.087
  825TIP3    H223967   5.281   1.546  11.048
  826TIP3   OH223968   5.311   0.238  11.266
  826TIP3    H123969   5.232   0.257  11.216
  826TIP3    H223970   5.383   0.259  11.207
  827TIP3   OH223971   4.590   0.118  10.970
  827TIP3    H123972   4.572   0.024  10.973
  827TIP3    H223973   4.515   0.159  11.013
  828TIP3   OH223974   5.089   1.612  10.713
  828TIP3    H123975   5.122   1.528  10.682
  828TIP3    H223976   5.151   1.676  10.678
  829TIP3   OH223977   5.167   1.367  10.615
  829TIP3    H123978   5.215   1.320  10.547
  829TIP3    H223979   5.198   1.330  10.698
  830TIP3   OH223980   5.366   1.246  11.430
  830TIP3    H123981   5.363   1.190  11.352
  830TIP3    H223982   5.380   1.334  11.395
  831TIP3   OH223983   4.809   0.938  10.438
  831TIP3    H123984   4.754   1.011  10.409
  831TIP3    H223985   4.882   0.937  10.377
  832TIP3   OH223986   5.538   0.906  11.269
  832TIP3    H123987   5.467   0.971  11.259
  832TIP3    H223988   5.596   0.923  11.195
  833TIP3   OH223989   5.167   0.993  10.533
  833TIP3    H123990   5.099   0.995  10.599
  833TIP3    H223991   5.232   0.930  10.566
  834TIP3   OH223992   5.143   0.768  11.446
  834TIP3    H123993   5.143   0.838  11.511
  834TIP3    H223994   5.087   0.800  11.376
  835TIP3   OH223995   4.326   1.026  10.688
  835TIP3    H123996   4.290   0.991  10.606
  835TIP3    H223997   4.379   0.954  10.723
  836TIP3   OH223998   4.495   1.381  10.955
  836TIP3    H123999   4.488   1.381  10.860
  836TIP3    H224000   4.567   1.321  10.974
  837TIP3   OH224001   4.426   0.874  11.081
  837TIP3    H124002   4.414   0.873  10.986
  837TIP3    H224003   4.404   0.963  11.107
  838TIP3   OH224004   4.994   1.463  11.142
  838TIP3    H124005   4.977   1.535  11.202
  838TIP3    H224006   4.950   1.388  11.182
  839TIP3   OH224007   4.470   1.335  11.543
  839TIP3    H124008   4.409   1.394  11.588
  839TIP3    H224009   4.425   1.311  11.462
  840TIP3   OH224010   5.041   0.919  10.298
  840TIP3    H124011   5.085   0.954  10.376
  840TIP3    H224012   5.111   0.877  10.248
  841TIP3   OH224013   4.141   0.947  11.485
  841TIP3    H124014   4.148   1.026  11.538
  841TIP3    H224015   4.047   0.934  11.475
  842TIP3   OH224016   4.855   1.651  10.574
  842TIP3    H124017   4.924   1.630  10.637
  842TIP3    H224018   4.779   1.602  10.605
  843TIP3   OH224019   4.273   1.514  11.614
  843TIP3    H124020   4.275   1.551  11.526
  843TIP3    H224021   4.180   1.507  11.635
  844TIP3   OH224022   4.207   0.962  10.434
  844TIP3    H124023   4.159   1.040  10.406
  844TIP3    H224024   4.140   0.893  10.439
  845TIP3   OH224025   5.506   1.495  10.091
  845TIP3    H124026   5.491   1.586  10.115
  845TIP3    H224027   5.591   1.496  10.046
  846TIP3   OH224028   3.837   1.169  11.369
  846TIP3    H124029   3.787   1.181  11.288
  846TIP3    H224030   3.846   1.074  11.378
  847TIP3   OH224031   3.804   1.469  11.063
  847TIP3    H124032   3.888   1.480  11.108
  847TIP3    H224033   3.756   1.549  11.083
  848TIP3   OH224034   5.613   1.512  11.632
  848TIP3    H124035   5.598   1.418  11.630
  848TIP3    H224036   5.530   1.549  11.661
  849TIP3   OH224037   4.705   1.469  11.492
  849TIP3    H124038   4.701   1.552  11.539
  849TIP3    H224039   4.621   1.426  11.512
  850TIP3   OH224040   4.142   1.704  10.670
  850TIP3    H124041   4.158   1.668  10.758
  850TIP3    H224042   4.092   1.636  10.625
  851TIP3   OH224043   5.329   0.620  11.664
  851TIP3    H124044   5.260   0.664  11.615
  851TIP3    H224045   5.340   0.536  11.620
  852TIP3   OH224046   4.053   1.332  11.425
  852TIP3    H124047   4.079   1.297  11.510
  852TIP3    H224048   3.977   1.280  11.399
  853TIP3   OH224049   4.348   0.174  11.090
  853TIP3    H124050   4.299   0.102  11.052
  853TIP3    H224051   4.284   0.221  11.144
  854TIP3   OH224052   4.768   0.112  11.418
  854TIP3    H124053   4.796   0.052  11.486
  854TIP3    H224054   4.675   0.125  11.433
  855TIP3   OH224055   5.088   0.498  11.493
  855TIP3    H124056   5.010   0.489  11.548
  855TIP3    H224057   5.089   0.590  11.468
  856TIP3   OH224058   4.306   0.640  11.185
  856TIP3    H124059   4.238   0.657  11.250
  856TIP3    H224060   4.333   0.727  11.155
  857TIP3   OH224061   4.324   0.662  10.653
  857TIP3    H124062   4.232   0.636  10.645
  857TIP3    H224063   4.355   0.669  10.562
  858TIP3   OH224064   4.854   0.687  10.539
  858TIP3    H124065   4.829   0.772  10.505
  858TIP3    H224066   4.926   0.658  10.483
  859TIP3   OH224067   4.787   0.714  11.672
  859TIP3    H124068   4.731   0.644  11.706
  859TIP3    H224069   4.872   0.700  11.715
  860TIP3   OH224070   4.961   0.632  10.791
  860TIP3    H124071   4.919   0.668  10.712
  860TIP3    H224072   5.008   0.555  10.760
  861TIP3   OH224073   4.093   0.665  11.359
  861TIP3    H124074   4.064   0.715  11.435
  861TIP3    H224075   4.055   0.578  11.371
  862TIP3   OH224076   3.742   0.415  10.724
  862TIP3    H124077   3.803   0.392  10.794
  862TIP3    H224078   3.775   0.369  10.647
  863TIP3   OH224079   4.878   0.772  11.211
  863TIP3    H124080   4.934   0.709  11.165
  863TIP3    H224081   4.843   0.722  11.285
  864TIP3   OH224082   4.618   0.453  10.796
  864TIP3    H124083   4.531   0.415  10.810
  864TIP3    H224084   4.678   0.388  10.831
  865TIP3   OH224085   4.080   0.545  10.627
  865TIP3    H124086   3.997   0.564  10.583
  865TIP3    H224087   4.100   0.454  10.603
  866TIP3   OH224088   4.412   0.656  10.393
  866TIP3    H124089   4.490   0.608  10.422
  866TIP3    H224090   4.389   0.617  10.309
  867TIP3   OH224091   5.067   0.323  11.130
  867TIP3    H124092   4.991   0.330  11.189
  867TIP3    H224093   5.035   0.275  11.055
  868TIP3   OH224094   4.304   0.644  10.120
  868TIP3    H124095   4.269   0.733  10.123
  868TIP3    H224096   4.396   0.655  10.096
  869TIP3   OH224097   5.373   1.895  11.727
  869TIP3    H124098   5.396   1.930  11.641
  869TIP3    H224099   5.448   1.915  11.783
  870TIP3   OH224100   4.133   1.168  11.657
  870TIP3    H124101   4.200   1.160  11.725
  870TIP3    H224102   4.051   1.178  11.705
  871TIP3   OH224103   4.706   0.688  10.908
  871TIP3    H124104   4.796   0.681  10.877
  871TIP3    H224105   4.664   0.606  10.883
  872TIP3   OH224106   4.199   0.285  10.596
  872TIP3    H124107   4.137   0.213  10.606
  872TIP3    H224108   4.272   0.247  10.547
  873TIP3   OH224109   4.584   0.610  11.203
  873TIP3    H124110   4.491   0.592  11.218
  873TIP3    H224111   4.627   0.587  11.285
  874TIP3   OH224112   4.630   1.143  10.340
  874TIP3    H124113   4.562   1.087  10.303
  874TIP3    H224114   4.597   1.168  10.426
  875TIP3   OH224115   5.356   1.100  11.198
  875TIP3    H124116   5.426   1.149  11.154
  875TIP3    H224117   5.294   1.079  11.128
  876TIP3   OH224118   4.757   1.147  11.493
  876TIP3    H124119   4.793   1.116  11.577
  876TIP3    H224120   4.728   1.237  11.512
  877TIP3   OH224121   5.072   0.617  10.382
  877TIP3    H124122   5.156   0.594  10.421
  877TIP3    H224123   5.092   0.683  10.317
  878TIP3   OH224124   4.178   1.089  10.915
  878TIP3    H124125   4.230   1.075  10.836
  878TIP3    H224126   4.098   1.038  10.900
  879TIP3   OH224127   4.869   1.253  10.235
  879TIP3    H124128   4.845   1.308  10.161
  879TIP3    H224129   4.785   1.221  10.268
  880TIP3   OH224130   3.866   0.892  11.453
  880TIP3    H124131   3.829   0.852  11.532
  880TIP3    H224132   3.800   0.876  11.385
  881TIP3   OH224133   4.579   0.901  11.678
  881TIP3    H124134   4.515   0.867  11.616
  881TIP3    H224135   4.657   0.848  11.664
  882TIP3   OH224136   4.983   1.444  11.498
  882TIP3    H124137   4.890   1.452  11.478
  882TIP3    H224138   4.989   1.461  11.592
  883TIP3   OH224139   5.582   1.229  11.594
  883TIP3    H124140   5.495   1.243  11.556
  883TIP3    H224141   5.641   1.222  11.519
  884TIP3   OH224142   5.398   1.516  10.349
  884TIP3    H124143   5.375   1.432  10.388
  884TIP3    H224144   5.432   1.493  10.263
  885TIP3   OH224145   5.187   1.027  10.986
  885TIP3    H124146   5.101   1.048  10.949
  885TIP3    H224147   5.206   0.939  10.954
  886TIP3   OH224148   4.414   1.439  10.691
  886TIP3    H124149   4.431   1.527  10.656
  886TIP3    H224150   4.319   1.428  10.685
  887TIP3   OH224151   4.506   1.205  10.574
  887TIP3    H124152   4.486   1.291  10.608
  887TIP3    H224153   4.444   1.146  10.618
  888TIP3   OH224154   4.602   1.615  11.272
  888TIP3    H124155   4.658   1.690  11.252
  888TIP3    H224156   4.654   1.560  11.330
  889TIP3   OH224157   4.414   1.702  10.600
  889TIP3    H124158   4.322   1.721  10.616
  889TIP3    H224159   4.459   1.782  10.627
  890TIP3   OH224160   4.895   1.221  11.261
  890TIP3    H124161   4.840   1.194  11.335
  890TIP3    H224162   4.983   1.194  11.285
  891TIP3   OH224163   5.173   1.270  10.161
  891TIP3    H124164   5.202   1.259  10.251
  891TIP3    H224165   5.077   1.264  10.166
  892TIP3   OH224166   5.191   1.644  11.460
  892TIP3    H124167   5.109   1.596  11.446
  892TIP3    H224168   5.188   1.715  11.396
  893TIP3   OH224169   5.577   1.767  10.155
  893TIP3    H124170   5.611   1.777  10.067
  893TIP3    H224171   5.625   1.832  10.207
  894TIP3   OH224172   3.978   0.417  11.407
  894TIP3    H124173   3.886   0.440  11.398
  894TIP3    H224174   3.980   0.349  11.474
  895TIP3   OH224175   5.277   1.215  10.411
  895TIP3    H124176   5.234   1.137  10.444
  895TIP3    H224177   5.371   1.194  10.412
  896TIP3   OH224178   3.996   1.592  11.264
  896TIP3    H124179   4.022   1.514  11.314
  896TIP3    H224180   4.015   1.665  11.323
  897TIP3   OH224181   4.440   1.360  10.242
  897TIP3    H124182   4.513   1.313  10.282
  897TIP3    H224183   4.455   1.451  10.267
  898TIP3   OH224184   4.885   0.351  11.339
  898TIP3    H124185   4.956   0.364  11.402
  898TIP3    H224186   4.844   0.269  11.366
  899TIP3   OH224187   4.973   0.310  10.398
  899TIP3    H124188   4.928   0.280  10.319
  899TIP3    H224189   4.988   0.403  10.383
  900TIP3   OH224190   4.623   0.528  10.523
  900TIP3    H124191   4.704   0.579  10.521
  900TIP3    H224192   4.617   0.496  10.613
  901TIP3   OH224193   4.775   0.606  11.406
  901TIP3    H124194   4.780   0.626  11.499
  901TIP3    H224195   4.807   0.516  11.399
  902TIP3   OH224196   4.779   0.238  10.585
  902TIP3    H124197   4.810   0.280  10.665
  902TIP3    H224198   4.851   0.249  10.523
  903TIP3   OH224199   4.494   1.607  10.351
  903TIP3    H124200   4.529   1.681  10.301
  903TIP3    H224201   4.467   1.645  10.434
  904TIP3   OH224202   5.329   0.378  11.509
  904TIP3    H124203   5.240   0.413  11.506
  904TIP3    H224204   5.339   0.332  11.426
  905TIP3   OH224205   5.215   0.766  10.889
  905TIP3    H124206   5.132   0.719  10.878
  905TIP3    H224207   5.267   0.709  10.945
  906TIP3   OH224208   4.166   1.320  10.223
  906TIP3    H124209   4.254   1.352  10.244
  906TIP3    H224210   4.179   1.257  10.152
  907TIP3   OH224211   5.341   1.720  11.051
  907TIP3    H124212   5.328   1.787  10.983
  907TIP3    H224213   5.436   1.718  11.065
  908TIP3   OH224214   4.025   0.103  10.893
  908TIP3    H124215   4.035   0.090  10.798
  908TIP3    H224216   4.087   0.042  10.932
  909TIP3   OH224217   4.000   1.522  10.515
  909TIP3    H124218   3.974   1.437  10.481
  909TIP3    H224219   3.980   1.583  10.443
  910TIP3   OH224220   3.921   1.796  11.730
  910TIP3    H124221   3.988   1.770  11.793
  910TIP3    H224222   3.888   1.713  11.696
  911TIP3   OH224223   4.343   1.607  11.863
  911TIP3    H124224   4.424   1.562  11.885
  911TIP3    H224225   4.322   1.578  11.774
  912TIP3   OH224226   4.986   1.482  11.770
  912TIP3    H124227   4.977   1.399  11.818
  912TIP3    H224228   5.061   1.525  11.811
  913TIP3   OH224229   3.889   1.175  11.792
  913TIP3    H124230   3.890   1.080  11.784
  913TIP3    H224231   3.820   1.204  11.733
  914TIP3   OH224232   4.322   1.150  10.066
  914TIP3    H124233   4.360   1.080  10.120
  914TIP3    H224234   4.375   1.227  10.086
  915TIP3   OH224235   4.551   1.172  11.750
  915TIP3    H124236   4.529   1.217  11.668
  915TIP3    H224237   4.574   1.083  11.723
  916TIP3   OH224238   5.102   1.192  11.482
  916TIP3    H124239   5.194   1.215  11.470
  916TIP3    H224240   5.057   1.277  11.489
  917TIP3   OH224241   3.968   0.907  11.774
  917TIP3    H124242   4.055   0.880  11.745
  917TIP3    H224243   3.970   0.898  11.870
  918TIP3   OH224244   4.427   0.966  10.259
  918TIP3    H124245   4.357   0.963  10.325
  918TIP3    H224246   4.464   0.878  10.259
  919TIP3   OH224247   4.400   0.814  11.477
  919TIP3    H124248   4.315   0.859  11.472
  919TIP3    H224249   4.452   0.853  11.406
  920TIP3   OH224250   4.884   1.032  11.765
  920TIP3    H124251   4.963   0.995  11.727
  920TIP3    H224252   4.853   0.965  11.826
  921TIP3   OH224253   4.418   0.548  11.556
  921TIP3    H124254   4.419   0.490  11.480
  921TIP3    H224255   4.410   0.636  11.519
  922TIP3   OH224256   4.429   0.377  11.332
  922TIP3    H124257   4.478   0.366  11.251
  922TIP3    H224258   4.337   0.368  11.305
  923TIP3   OH224259   4.614   0.937  11.315
  923TIP3    H124260   4.672   0.982  11.376
  923TIP3    H224261   4.556   1.006  11.282
  924TIP3   OH224262   5.021   0.663  11.824
  924TIP3    H124263   5.051   0.572  11.820
  924TIP3    H224264   5.099   0.712  11.850
  925TIP3   OH224265   5.164   0.973  11.638
  925TIP3    H124266   5.134   1.051  11.590
  925TIP3    H224267   5.259   0.979  11.636
  926TIP3   OH224268   4.277   0.569  11.795
  926TIP3    H124269   4.188   0.536  11.780
  926TIP3    H224270   4.317   0.571  11.708
  927TIP3   OH224271   4.491   0.128  11.445
  927TIP3    H124272   4.467   0.215  11.412
  927TIP3    H224273   4.428   0.069  11.405
  928TIP3   OH224274   4.623   0.503  11.735
  928TIP3    H124275   4.582   0.453  11.806
  928TIP3    H224276   4.552   0.516  11.672
  929TIP3   OH224277   4.872   0.428  11.641
  929TIP3    H124278   4.783   0.433  11.675
  929TIP3    H224279   4.925   0.400  11.716
  930TIP3   OH224280   5.060   0.376  11.837
  930TIP3    H124281   5.073   0.284  11.813
  930TIP3    H224282   5.050   0.374  11.932
  931TIP3   OH224283   4.041   0.427  11.760
  931TIP3    H124284   4.039   0.350  11.704
  931TIP3    H224285   4.054   0.393  11.848
  932TIP3   OH224286   4.590   7.324  11.653
  932TIP3    H124287   4.518   7.299  11.712
  932TIP3    H224288   4.547   7.376  11.584
  933TIP3   OH224289   4.657   0.205  11.844
  933TIP3    H124290   4.646   0.123  11.795
  933TIP3    H224291   4.569   0.240  11.852
  934TIP3   OH224292   4.595   1.808  10.184
  934TIP3    H124293   4.611   1.733  10.127
  934TIP3    H224294   4.538   1.866  10.133
  935TIP3   OH224295   3.759   1.827  10.596
  935TIP3    H124296   3.677   1.793  10.559
  935TIP3    H224297   3.776   1.772  10.672
  936TIP3   OH224298   3.819   1.684  10.821
  936TIP3    H124299   3.793   1.594  10.843
  936TIP3    H224300   3.875   1.711  10.894
  937TIP3   OH224301   5.609   1.718  11.127
  937TIP3    H124302   5.610   1.733  11.221
  937TIP3    H224303   5.687   1.764  11.094
  938TIP3   OH224304   5.546   1.702  11.409
  938TIP3    H124305   5.495   1.631  11.371
  938TIP3    H224306   5.596   1.661  11.479
  939TIP3   OH224307   5.418   1.279  11.893
  939TIP3    H124308   5.332   1.293  11.934
  939TIP3    H224309   5.473   1.349  11.927
  940TIP3   OH224310   5.540   1.156  10.428
  940TIP3    H124311   5.619   1.210  10.426
  940TIP3    H224312   5.568   1.075  10.470
  941TIP3   OH224313   5.598   0.921  10.579
  941TIP3    H124314   5.511   0.892  10.608
  941TIP3    H224315   5.646   0.935  10.660
  942TIP3   OH224316   5.599   1.207  11.119
  942TIP3    H124317   5.648   1.143  11.067
  942TIP3    H224318   5.628   1.292  11.086
  943TIP3   OH224319   5.381   1.496  11.321
  943TIP3    H124320   5.309   1.542  11.363
  943TIP3    H224321   5.351   1.481  11.231
  944TIP3   OH224322   5.343   0.800  10.643
  944TIP3    H124323   5.333   0.715  10.601
  944TIP3    H224324   5.305   0.789  10.730
  945TIP3   OH224325   3.841   0.957  11.070
  945TIP3    H124326   3.863   0.957  10.977
  945TIP3    H224327   3.925   0.942  11.114
  946TIP3   OH224328   5.444   0.976  11.635
  946TIP3    H124329   5.501   0.902  11.617
  946TIP3    H224330   5.497   1.053  11.614
  947TIP3   OH224331   5.576   0.732  11.607
  947TIP3    H124332   5.489   0.701  11.631
  947TIP3    H224333   5.632   0.655  11.615
  948TIP3   OH224334   5.323   0.549  10.487
  948TIP3    H124335   5.353   0.458  10.496
  948TIP3    H224336   5.368   0.582  10.410
  949TIP3   OH224337   5.395   0.615  11.049
  949TIP3    H124338   5.489   0.625  11.038
  949TIP3    H224339   5.381   0.624  11.143
  950TIP3   OH224340   5.395   0.676  11.322
  950TIP3    H124341   5.311   0.700  11.362
  950TIP3    H224342   5.442   0.759  11.313
  951TIP3   OH224343   3.792   0.496  11.663
  951TIP3    H124344   3.880   0.481  11.696
  951TIP3    H224345   3.749   0.411  11.672
  952TIP3   OH224346   5.580   0.043  11.850
  952TIP3    H124347   5.607  -0.025  11.788
  952TIP3    H224348   5.568   0.121  11.795
  953TIP3   OH224349   5.380   0.274  10.518
  953TIP3    H124350   5.404   0.234  10.601
  953TIP3    H224351   5.312   0.217  10.482
  954TIP3   OH224352   3.915   0.352  10.946
  954TIP3    H124353   3.948   0.262  10.935
  954TIP3    H224354   3.993   0.403  10.966
  955TIP3   OH224355   3.752   0.665  11.024
  955TIP3    H124356   3.820   0.641  10.961
  955TIP3    H224357   3.777   0.752  11.055
  956TIP3   OH224358   5.518   0.225  11.638
  956TIP3    H124359   5.450   0.285  11.608
  956TIP3    H224360   5.530   0.164  11.565
  957TIP3   OH224361   3.769   0.318  10.460
  957TIP3    H124362   3.676   0.296  10.464
  957TIP3    H224363   3.799   0.283  10.375
  958TIP3   OH224364   5.242   1.830  10.621
  958TIP3    H124365   5.321   1.810  10.570
  958TIP3    H224366   5.275   1.859  10.706
  959TIP3   OH224367   3.857   0.106  11.342
  959TIP3    H124368   3.770   0.092  11.380
  959TIP3    H224369   3.841   0.166  11.269
  960TIP3   OH224370   4.013   1.496  11.713
  960TIP3    H124371   3.924   1.503  11.677
  960TIP3    H224372   4.000   1.465  11.802
  961TIP3   OH224373   4.340   1.601  11.353
  961TIP3    H124374   4.311   1.689  11.328
  961TIP3    H224375   4.433   1.599  11.332
  962TIP3   OH224376   4.709   1.713  11.624
  962TIP3    H124377   4.720   1.683  11.714
  962TIP3    H224378   4.788   1.764  11.606
  963TIP3   OH224379   4.946   1.853  11.589
  963TIP3    H124380   5.013   1.802  11.544
  963TIP3    H224381   4.990   1.887  11.667
  964TIP3   OH224382   5.481   0.061  11.416
  964TIP3    H124383   5.413   0.105  11.364
  964TIP3    H224384   5.471  -0.032  11.393
  965TIP3   OH224385   4.036   1.874  11.371
  965TIP3    H124386   3.957   1.910  11.332
  965TIP3    H224387   4.047   1.923  11.453
  966TIP3   OH224388   4.296   1.863  11.281
  966TIP3    H124389   4.204   1.871  11.306
  966TIP3    H224390   4.300   1.904  11.194
  967TIP3   OH224391   4.743   1.838  11.190
  967TIP3    H124392   4.695   1.874  11.116
  967TIP3    H224393   4.755   1.912  11.249
  968TIP3   OH224394   4.967   1.703  11.274
  968TIP3    H124395   4.890   1.749  11.241
  968TIP3    H224396   5.040   1.762  11.256
  969TIP3   OH224397   5.209   1.839  11.260
  969TIP3    H124398   5.243   1.929  11.256
  969TIP3    H224399   5.251   1.794  11.187
  970TIP3   OH224400   3.999   1.747  11.031
  970TIP3    H124401   3.991   1.699  11.114
  970TIP3    H224402   4.075   1.707  10.988
  971TIP3   OH224403   4.214   1.618  10.924
  971TIP3    H124404   4.205   1.526  10.949
  971TIP3    H224405   4.302   1.641  10.955
  972TIP3   OH224406   4.479   1.649  11.023
  972TIP3    H124407   4.489   1.560  10.989
  972TIP3    H224408   4.511   1.643  11.113
  973TIP3   OH224409   4.803   0.270  10.887
  973TIP3    H124410   4.742   0.208  10.927
  973TIP3    H224411   4.882   0.218  10.869
  974TIP3   OH224412   5.283   0.134  10.952
  974TIP3    H124413   5.350   0.129  10.884
  974TIP3    H224414   5.200   0.128  10.904
  975TIP3   OH224415   5.484   0.162  10.756
  975TIP3    H124416   5.534   0.086  10.787
  975TIP3    H224417   5.547   0.234  10.758
  976TIP3   OH224418   4.040   0.054  10.616
  976TIP3    H124419   3.962   0.073  10.565
  976TIP3    H224420   4.055  -0.040  10.603
  977TIP3   OH224421   3.842   0.209  10.204
  977TIP3    H124422   3.888   0.180  10.125
  977TIP3    H224423   3.846   0.135  10.264
  978TIP3   OH224424   4.538   0.141  10.696
  978TIP3    H124425   4.622   0.159  10.653
  978TIP3    H224426   4.561   0.127  10.788
  979TIP3   OH224427   5.044   0.164  10.805
  979TIP3    H124428   5.065   0.233  10.743
  979TIP3    H224429   5.052   0.083  10.755
  980TIP3   OH224430   5.168   0.115  10.428
  980TIP3    H124431   5.095   0.176  10.421
  980TIP3    H224432   5.153   0.052  10.357
  981TIP3   OH224433   3.886   1.736  10.360
  981TIP3    H124434   3.815   1.706  10.304
  981TIP3    H224435   3.844   1.751  10.445
  982TIP3   OH224436   4.575   0.282  10.396
  982TIP3    H124437   4.649   0.240  10.441
  982TIP3    H224438   4.577   0.372  10.427
  983TIP3   OH224439   5.453   1.775  10.452
  983TIP3    H124440   5.445   1.688  10.412
  983TIP3    H224441   5.453   1.836  10.378
  984TIP3   OH224442   4.017   0.204  11.596
  984TIP3    H124443   3.972   0.144  11.536
  984TIP3    H224444   4.067   0.147  11.654
  985TIP3   OH224445   4.234   0.137  11.791
  985TIP3    H124446   4.302   0.183  11.741
  985TIP3    H224447   4.275   0.055  11.818
  986TIP3   OH224448   5.102   0.109  11.800
  986TIP3    H124449   5.147   0.043  11.853
  986TIP3    H224450   5.046   0.059  11.741
  987TIP3   OH224451   5.363   1.623  11.680
  987TIP3    H124452   5.304   1.619  11.605
  987TIP3    H224453   5.367   1.715  11.704
  988TIP3   OH224454   6.815   1.039  10.621
  988TIP3    H124455   6.806   1.133  10.606
  988TIP3    H224456   6.734   1.002  10.588
  989TIP3   OH224457   6.715   0.946  11.044
  989TIP3    H124458   6.743   0.903  11.125
  989TIP3    H224459   6.671   0.877  10.994
  990TIP3   OH224460   5.944   0.846  11.168
  990TIP3    H124461   5.963   0.820  11.259
  990TIP3    H224462   6.027   0.877  11.134
  991TIP3   OH224463   7.107   1.267  10.883
  991TIP3    H124464   7.074   1.183  10.916
  991TIP3    H224465   7.121   1.319  10.962
  992TIP3   OH224466   6.086   1.362  10.981
  992TIP3    H124467   6.056   1.275  10.953
  992TIP3    H224468   6.180   1.352  10.994
  993TIP3   OH224469   5.730   0.690  10.492
  993TIP3    H124470   5.699   0.779  10.507
  993TIP3    H224471   5.653   0.635  10.506
  994TIP3   OH224472   5.786   0.937  10.796
  994TIP3    H124473   5.823   0.850  10.803
  994TIP3    H224474   5.861   0.996  10.798
  995TIP3   OH224475   6.835   1.685  10.924
  995TIP3    H124476   6.871   1.631  10.854
  995TIP3    H224477   6.827   1.625  10.999
  996TIP3   OH224478   6.568   1.188  11.087
  996TIP3    H124479   6.605   1.112  11.042
  996TIP3    H224480   6.643   1.227  11.133
  997TIP3   OH224481   6.873   0.614  11.069
  997TIP3    H124482   6.902   0.524  11.087
  997TIP3    H224483   6.857   0.615  10.974
  998TIP3   OH224484   6.165   0.422  10.825
  998TIP3    H124485   6.258   0.441  10.812
  998TIP3    H224486   6.134   0.391  10.740
  999TIP3   OH224487   6.974   0.448  10.645
  999TIP3    H124488   7.009   0.398  10.718
  999TIP3    H224489   7.051   0.477  10.596
 1000TIP3   OH224490   5.875   0.680  10.861
 1000TIP3    H124491   5.951   0.659  10.916
 1000TIP3    H224492   5.896   0.641  10.776
 1001TIP3   OH224493   6.336   0.815  10.868
 1001TIP3    H124494   6.425   0.783  10.882
 1001TIP3    H224495   6.300   0.757  10.802
 1002TIP3   OH224496   6.109   0.338  11.221
 1002TIP3    H124497   6.079   0.403  11.157
 1002TIP3    H224498   6.037   0.331  11.283
 1003TIP3   OH224499   6.760   1.291  10.518
 1003TIP3    H124500   6.721   1.259  10.437
 1003TIP3    H224501   6.738   1.384  10.521
 1004TIP3   OH224502   6.347   1.100  11.222
 1004TIP3    H124503   6.299   1.177  11.252
 1004TIP3    H224504   6.423   1.136  11.176
 1005TIP3   OH224505   7.099   0.326  10.852
 1005TIP3    H124506   7.142   0.251  10.893
 1005TIP3    H224507   7.137   0.402  10.897
 1006TIP3   OH224508   6.049   0.542  11.040
 1006TIP3    H124509   6.117   0.592  11.085
 1006TIP3    H224510   6.094   0.503  10.965
 1007TIP3   OH224511   6.205   1.318  11.314
 1007TIP3    H124512   6.215   1.412  11.296
 1007TIP3    H224513   6.113   1.310  11.343
 1008TIP3   OH224514   5.760   1.327  10.401
 1008TIP3    H124515   5.747   1.401  10.342
 1008TIP3    H224516   5.805   1.364  10.477
 1009TIP3   OH224517   7.115   1.457  11.097
 1009TIP3    H124518   7.020   1.469  11.102
 1009TIP3    H224519   7.149   1.543  11.074
 1010TIP3   OH224520   7.158   0.228  11.200
 1010TIP3    H124521   7.088   0.290  11.182
 1010TIP3    H224522   7.172   0.182  11.118
 1011TIP3   OH224523   6.489   0.090  10.958
 1011TIP3    H124524   6.501  -0.005  10.960
 1011TIP3    H224525   6.409   0.105  11.009
 1012TIP3   OH224526   6.947   1.574  10.698
 1012TIP3    H124527   6.994   1.492  10.683
 1012TIP3    H224528   7.014   1.642  10.686
 1013TIP3   OH224529   7.145   1.392  10.639
 1013TIP3    H124530   7.133   1.326  10.571
 1013TIP3    H224531   7.140   1.343  10.721
 1014TIP3   OH224532   7.223   1.174  11.450
 1014TIP3    H124533   7.218   1.126  11.368
 1014TIP3    H224534   7.259   1.260  11.426
 1015TIP3   OH224535   6.628   0.935  10.388
 1015TIP3    H124536   6.556   0.909  10.331
 1015TIP3    H224537   6.652   1.023  10.360
 1016TIP3   OH224538   7.064   0.994  10.521
 1016TIP3    H124539   6.978   1.003  10.563
 1016TIP3    H224540   7.108   0.925  10.570
 1017TIP3   OH224541   6.998   0.761  11.451
 1017TIP3    H124542   6.983   0.830  11.516
 1017TIP3    H224543   6.936   0.780  11.381
 1018TIP3   OH224544   6.211   1.024  10.713
 1018TIP3    H124545   6.193   0.999  10.622
 1018TIP3    H224546   6.263   0.951  10.747
 1019TIP3   OH224547   6.371   1.359  10.983
 1019TIP3    H124548   6.375   1.325  10.893
 1019TIP3    H224549   6.441   1.312  11.029
 1020TIP3   OH224550   6.194   0.930  11.071
 1020TIP3    H124551   6.247   0.903  10.996
 1020TIP3    H224552   6.249   0.991  11.119
 1021TIP3   OH224553   6.845   1.502  11.136
 1021TIP3    H124554   6.844   1.558  11.213
 1021TIP3    H224555   6.820   1.416  11.169
 1022TIP3   OH224556   6.359   1.344  11.544
 1022TIP3    H124557   6.294   1.401  11.585
 1022TIP3    H224558   6.317   1.316  11.463
 1023TIP3   OH224559   6.013   0.937  11.518
 1023TIP3    H124560   6.024   1.024  11.556
 1023TIP3    H224561   5.920   0.934  11.493
 1024TIP3   OH224562   6.705   1.601  10.572
 1024TIP3    H124563   6.786   1.581  10.619
 1024TIP3    H224564   6.635   1.586  10.637
 1025TIP3   OH224565   6.151   1.519  11.605
 1025TIP3    H124566   6.162   1.551  11.516
 1025TIP3    H224567   6.057   1.517  11.619
 1026TIP3   OH224568   7.257   0.040  10.201
 1026TIP3    H124569   7.190  -0.023  10.228
 1026TIP3    H224570   7.275   0.018  10.110
 1027TIP3   OH224571   6.167   0.947  10.454
 1027TIP3    H124572   6.173   0.981  10.365
 1027TIP3    H224573   6.214   0.863  10.451
 1028TIP3   OH224574   5.727   1.181  11.369
 1028TIP3    H124575   5.682   1.189  11.284
 1028TIP3    H224576   5.739   1.087  11.381
 1029TIP3   OH224577   5.712   1.452  11.047
 1029TIP3    H124578   5.806   1.453  11.066
 1029TIP3    H224579   5.678   1.530  11.091
 1030TIP3   OH224580   6.594   1.475  11.488
 1030TIP3    H124581   6.589   1.558  11.536
 1030TIP3    H224582   6.512   1.430  11.509
 1031TIP3   OH224583   6.061   1.706  10.643
 1031TIP3    H124584   6.084   1.680  10.733
 1031TIP3    H224585   6.001   1.638  10.613
 1032TIP3   OH224586   6.861   1.835  10.539
 1032TIP3    H124587   6.798   1.762  10.539
 1032TIP3    H224588   6.930   1.807  10.479
 1033TIP3   OH224589   7.165   0.696  11.694
 1033TIP3    H124590   7.137   0.720  11.606
 1033TIP3    H224591   7.251   0.657  11.683
 1034TIP3   OH224592   5.953   1.329  11.427
 1034TIP3    H124593   5.977   1.291  11.512
 1034TIP3    H224594   5.872   1.285  11.403
 1035TIP3   OH224595   6.248   0.156  11.074
 1035TIP3    H124596   6.196   0.153  10.993
 1035TIP3    H224597   6.200   0.215  11.131
 1036TIP3   OH224598   6.709   0.108  11.451
 1036TIP3    H124599   6.719   0.013  11.458
 1036TIP3    H224600   6.615   0.123  11.450
 1037TIP3   OH224601   7.006   0.480  11.472
 1037TIP3    H124602   6.942   0.467  11.542
 1037TIP3    H224603   7.008   0.575  11.458
 1038TIP3   OH224604   6.239   0.680  11.184
 1038TIP3    H124605   6.233   0.703  11.276
 1038TIP3    H224606   6.236   0.765  11.139
 1039TIP3   OH224607   6.204   0.686  10.666
 1039TIP3    H124608   6.120   0.641  10.654
 1039TIP3    H224609   6.242   0.690  10.578
 1040TIP3   OH224610   6.737   0.733  10.543
 1040TIP3    H124611   6.701   0.808  10.496
 1040TIP3    H224612   6.815   0.709  10.494
 1041TIP3   OH224613   6.686   0.706  11.664
 1041TIP3    H124614   6.634   0.634  11.700
 1041TIP3    H224615   6.774   0.693  11.699
 1042TIP3   OH224616   6.833   0.641  10.793
 1042TIP3    H124617   6.798   0.696  10.722
 1042TIP3    H224618   6.872   0.566  10.748
 1043TIP3   OH224619   5.971   0.621  11.367
 1043TIP3    H124620   6.049   0.664  11.404
 1043TIP3    H224621   5.963   0.539  11.416
 1044TIP3   OH224622   5.684   0.354  10.716
 1044TIP3    H124623   5.765   0.404  10.725
 1044TIP3    H224624   5.685   0.322  10.626
 1045TIP3   OH224625   5.695   0.487  10.298
 1045TIP3    H124626   5.730   0.468  10.211
 1045TIP3    H224627   5.741   0.566  10.326
 1046TIP3   OH224628   6.788   0.784  11.261
 1046TIP3    H124629   6.827   0.729  11.193
 1046TIP3    H224630   6.731   0.725  11.310
 1047TIP3   OH224631   6.446   0.424  10.760
 1047TIP3    H124632   6.421   0.339  10.725
 1047TIP3    H224633   6.523   0.407  10.813
 1048TIP3   OH224634   5.941   0.563  10.627
 1048TIP3    H124635   5.888   0.600  10.557
 1048TIP3    H224636   5.982   0.486  10.588
 1049TIP3   OH224637   6.320   0.720  10.413
 1049TIP3    H124638   6.388   0.657  10.436
 1049TIP3    H224639   6.351   0.760  10.331
 1050TIP3   OH224640   6.914   0.343  11.112
 1050TIP3    H124641   6.852   0.343  11.185
 1050TIP3    H224642   6.878   0.281  11.049
 1051TIP3   OH224643   7.257   1.927  11.713
 1051TIP3    H124644   7.265   2.005  11.657
 1051TIP3    H224645   7.347   1.897  11.725
 1052TIP3   OH224646   6.012   1.176  11.662
 1052TIP3    H124647   6.082   1.167  11.727
 1052TIP3    H224648   5.932   1.187  11.714
 1053TIP3   OH224649   6.588   0.710  10.940
 1053TIP3    H124650   6.663   0.672  10.893
 1053TIP3    H224651   6.567   0.645  11.007
 1054TIP3   OH224652   6.076   0.333  10.567
 1054TIP3    H124653   6.060   0.240  10.586
 1054TIP3    H224654   6.119   0.333  10.482
 1055TIP3   OH224655   6.492   0.564  11.162
 1055TIP3    H124656   6.409   0.611  11.170
 1055TIP3    H224657   6.540   0.587  11.242
 1056TIP3   OH224658   7.190   1.064  11.202
 1056TIP3    H124659   7.273   1.053  11.156
 1056TIP3    H224660   7.123   1.049  11.135
 1057TIP3   OH224661   6.668   1.188  11.475
 1057TIP3    H124662   6.746   1.171  11.527
 1057TIP3    H224663   6.644   1.279  11.496
 1058TIP3   OH224664   6.944   0.632  10.394
 1058TIP3    H124665   7.033   0.624  10.429
 1058TIP3    H224666   6.918   0.542  10.374
 1059TIP3   OH224667   6.026   1.086  10.903
 1059TIP3    H124668   6.084   1.080  10.827
 1059TIP3    H224669   6.072   1.038  10.972
 1060TIP3   OH224670   6.645   1.199  10.281
 1060TIP3    H124671   6.678   1.252  10.207
 1060TIP3    H224672   6.557   1.174  10.255
 1061TIP3   OH224673   5.741   0.914  11.457
 1061TIP3    H124674   5.720   0.866  11.538
 1061TIP3    H224675   5.669   0.892  11.397
 1062TIP3   OH224676   6.493   0.905  11.675
 1062TIP3    H124677   6.467   0.916  11.583
 1062TIP3    H224678   6.570   0.849  11.672
 1063TIP3   OH224679   6.875   1.471  11.488
 1063TIP3    H124680   6.783   1.477  11.464
 1063TIP3    H224681   6.876   1.481  11.584
 1064TIP3   OH224682   7.290   1.517  10.400
 1064TIP3    H124683   7.233   1.481  10.468
 1064TIP3    H224684   7.259   1.478  10.319
 1065TIP3   OH224685   7.003   1.017  10.999
 1065TIP3    H124686   6.908   1.006  10.996
 1065TIP3    H224687   7.037   0.938  10.957
 1066TIP3   OH224688   6.275   1.460  10.604
 1066TIP3    H124689   6.305   1.547  10.580
 1066TIP3    H224690   6.207   1.439  10.539
 1067TIP3   OH224691   6.379   1.246  10.739
 1067TIP3    H124692   6.349   1.315  10.681
 1067TIP3    H224693   6.327   1.170  10.715
 1068TIP3   OH224694   6.489   1.613  11.264
 1068TIP3    H124695   6.546   1.688  11.245
 1068TIP3    H224696   6.541   1.558  11.323
 1069TIP3   OH224697   6.321   1.727  10.520
 1069TIP3    H124698   6.228   1.733  10.543
 1069TIP3    H224699   6.364   1.787  10.581
 1070TIP3   OH224700   6.794   1.247  11.234
 1070TIP3    H124701   6.754   1.217  11.316
 1070TIP3    H224702   6.871   1.192  11.224
 1071TIP3   OH224703   7.174   1.412  10.167
 1071TIP3    H124704   7.111   1.362  10.219
 1071TIP3    H224705   7.120   1.470  10.113
 1072TIP3   OH224706   7.104   1.633  11.443
 1072TIP3    H124707   7.021   1.584  11.443
 1072TIP3    H224708   7.089   1.704  11.381
 1073TIP3   OH224709   5.903   0.350  11.403
 1073TIP3    H124710   5.829   0.299  11.368
 1073TIP3    H224711   5.931   0.301  11.480
 1074TIP3   OH224712   7.154   1.230  10.417
 1074TIP3    H124713   7.121   1.147  10.451
 1074TIP3    H224714   7.249   1.217  10.411
 1075TIP3   OH224715   5.884   1.612  11.263
 1075TIP3    H124716   5.916   1.537  11.313
 1075TIP3    H224717   5.901   1.688  11.318
 1076TIP3   OH224718   6.349   1.384  10.220
 1076TIP3    H124719   6.369   1.291  10.217
 1076TIP3    H224720   6.340   1.410  10.128
 1077TIP3   OH224721   6.775   0.359  11.350
 1077TIP3    H124722   6.856   0.386  11.392
 1077TIP3    H224723   6.754   0.275  11.389
 1078TIP3   OH224724   6.851   0.363  10.412
 1078TIP3    H124725   6.905   0.288  10.385
 1078TIP3    H224726   6.889   0.390  10.496
 1079TIP3   OH224727   6.522   0.561  10.527
 1079TIP3    H124728   6.596   0.619  10.545
 1079TIP3    H224729   6.495   0.530  10.613
 1080TIP3   OH224730   6.636   0.601  11.399
 1080TIP3    H124731   6.653   0.627  11.490
 1080TIP3    H224732   6.677   0.515  11.390
 1081TIP3   OH224733   6.665   0.221  10.579
 1081TIP3    H124734   6.699   0.233  10.668
 1081TIP3    H224735   6.733   0.259  10.523
 1082TIP3   OH224736   6.199   0.323  10.322
 1082TIP3    H124737   6.190   0.347  10.230
 1082TIP3    H224738   6.294   0.315  10.335
 1083TIP3   OH224739   7.286   0.402  11.489
 1083TIP3    H124740   7.194   0.424  11.474
 1083TIP3    H224741   7.292   0.309  11.468
 1084TIP3   OH224742   7.081   0.763  10.886
 1084TIP3    H124743   6.995   0.727  10.867
 1084TIP3    H224744   7.128   0.692  10.931
 1085TIP3   OH224745   7.221   1.716  11.050
 1085TIP3    H124746   7.213   1.783  10.981
 1085TIP3    H224747   7.301   1.670  11.029
 1086TIP3   OH224748   5.897   0.131  10.917
 1086TIP3    H124749   5.922   0.137  10.824
 1086TIP3    H224750   5.950   0.060  10.952
 1087TIP3   OH224751   5.853   1.530  10.578
 1087TIP3    H124752   5.800   1.557  10.653
 1087TIP3    H224753   5.814   1.576  10.503
 1088TIP3   OH224754   5.826   1.804  11.735
 1088TIP3    H124755   5.887   1.793  11.808
 1088TIP3    H224756   5.825   1.719  11.691
 1089TIP3   OH224757   6.225   1.605  11.856
 1089TIP3    H124758   6.304   1.556  11.879
 1089TIP3    H224759   6.205   1.578  11.766
 1090TIP3   OH224760   6.857   1.488  11.760
 1090TIP3    H124761   6.845   1.404  11.803
 1090TIP3    H224762   6.932   1.527  11.804
 1091TIP3   OH224763   5.766   1.175  11.796
 1091TIP3    H124764   5.774   1.080  11.788
 1091TIP3    H224765   5.692   1.197  11.739
 1092TIP3   OH224766   6.438   1.178  11.751
 1092TIP3    H124767   6.428   1.222  11.667
 1092TIP3    H224768   6.483   1.096  11.730
 1093TIP3   OH224769   6.956   1.204  11.510
 1093TIP3    H124770   7.050   1.196  11.491
 1093TIP3    H224771   6.937   1.297  11.495
 1094TIP3   OH224772   5.838   0.909  11.761
 1094TIP3    H124773   5.923   0.893  11.720
 1094TIP3    H224774   5.853   0.895  11.855
 1095TIP3   OH224775   6.213   0.766  11.444
 1095TIP3    H124776   6.151   0.830  11.479
 1095TIP3    H224777   6.296   0.814  11.438
 1096TIP3   OH224778   6.762   1.021  11.802
 1096TIP3    H124779   6.828   0.991  11.740
 1096TIP3    H224780   6.743   0.945  11.857
 1097TIP3   OH224781   6.300   0.531  11.574
 1097TIP3    H124782   6.324   0.471  11.504
 1097TIP3    H224783   6.286   0.615  11.529
 1098TIP3   OH224784   6.351   0.390  11.337
 1098TIP3    H124785   6.409   0.426  11.270
 1098TIP3    H224786   6.270   0.371  11.291
 1099TIP3   OH224787   6.444   0.909  11.398
 1099TIP3    H124788   6.537   0.900  11.376
 1099TIP3    H224789   6.413   0.981  11.343
 1100TIP3   OH224790   6.922   0.645  11.821
 1100TIP3    H124791   6.934   0.551  11.834
 1100TIP3    H224792   7.005   0.674  11.783
 1101TIP3   OH224793   6.983   0.966  11.642
 1101TIP3    H124794   6.964   1.048  11.597
 1101TIP3    H224795   7.078   0.968  11.656
 1102TIP3   OH224796   6.139   0.580  11.795
 1102TIP3    H124797   6.061   0.529  11.773
 1102TIP3    H224798   6.195   0.573  11.717
 1103TIP3   OH224799   6.434   0.139  11.410
 1103TIP3    H124800   6.406   0.227  11.385
 1103TIP3    H224801   6.441   0.092  11.327
 1104TIP3   OH224802   6.534   0.488  11.738
 1104TIP3    H124803   6.508   0.457  11.825
 1104TIP3    H224804   6.453   0.492  11.688
 1105TIP3   OH224805   6.796   0.427  11.644
 1105TIP3    H124806   6.705   0.429  11.674
 1105TIP3    H224807   6.845   0.391  11.718
 1106TIP3   OH224808   6.957   0.356  11.858
 1106TIP3    H124809   6.956   0.263  11.837
 1106TIP3    H224810   6.933   0.360  11.951
 1107TIP3   OH224811   5.915   0.414  11.769
 1107TIP3    H124812   5.924   0.338  11.711
 1107TIP3    H224813   5.936   0.380  11.856
 1108TIP3   OH224814   6.416   0.047  11.666
 1108TIP3    H124815   6.465  -0.035  11.656
 1108TIP3    H224816   6.416   0.086  11.579
 1109TIP3   OH224817   6.460   0.165  11.917
 1109TIP3    H124818   6.460   0.115  11.835
 1109TIP3    H224819   6.401   0.238  11.900
 1110TIP3   OH224820   5.665   1.835  10.633
 1110TIP3    H124821   5.608   1.807  10.561
 1110TIP3    H224822   5.675   1.757  10.687
 1111TIP3   OH224823   5.723   1.624  10.808
 1111TIP3    H124824   5.691   1.549  10.860
 1111TIP3    H224825   5.774   1.675  10.871
 1112TIP3   OH224826   7.254   1.289  11.876
 1112TIP3    H124827   7.175   1.290  11.930
 1112TIP3    H224828   7.322   1.328  11.931
 1113TIP3   OH224829   7.262   1.425  11.338
 1113TIP3    H124830   7.219   1.501  11.379
 1113TIP3    H224831   7.223   1.420  11.250
 1114TIP3   OH224832   7.206   0.788  10.635
 1114TIP3    H124833   7.196   0.697  10.608
 1114TIP3    H224834   7.184   0.788  10.728
 1115TIP3   OH224835   5.714   0.947  11.061
 1115TIP3    H124836   5.729   0.955  10.966
 1115TIP3    H224837   5.800   0.927  11.097
 1116TIP3   OH224838   7.248   1.011  11.675
 1116TIP3    H124839   7.323   0.952  11.671
 1116TIP3    H224840   7.258   1.069  11.599
 1117TIP3   OH224841   7.191   0.547  10.500
 1117TIP3    H124842   7.253   0.492  10.548
 1117TIP3    H224843   7.229   0.557  10.413
 1118TIP3   OH224844   7.238   0.527  10.983
 1118TIP3    H124845   7.314   0.472  10.968
 1118TIP3    H224846   7.270   0.598  11.039
 1119TIP3   OH224847   7.279   0.746  11.374
 1119TIP3    H124848   7.183   0.751  11.371
 1119TIP3    H224849   7.304   0.727  11.284
 1120TIP3   OH224850   5.680   0.470  11.616
 1120TIP3    H124851   5.760   0.465  11.669
 1120TIP3    H224852   5.635   0.388  11.633
 1121TIP3   OH224853   7.158   0.224  10.510
 1121TIP3    H124854   7.149   0.204  10.603
 1121TIP3    H224855   7.099   0.163  10.466
 1122TIP3   OH224856   5.825   0.371  11.048
 1122TIP3    H124857   5.827   0.280  11.021
 1122TIP3    H224858   5.894   0.413  10.997
 1123TIP3   OH224859   5.679   0.668  11.051
 1123TIP3    H124860   5.729   0.660  10.970
 1123TIP3    H224861   5.669   0.762  11.065
 1124TIP3   OH224862   5.651   0.270  10.450
 1124TIP3    H124863   5.556   0.271  10.461
 1124TIP3    H224864   5.670   0.345  10.394
 1125TIP3   OH224865   7.163   1.746  10.690
 1125TIP3    H124866   7.235   1.693  10.725
 1125TIP3    H224867   7.151   1.816  10.755
 1126TIP3   OH224868   5.701   0.193  11.315
 1126TIP3    H124869   5.645   0.128  11.357
 1126TIP3    H224870   5.652   0.222  11.239
 1127TIP3   OH224871   5.881   1.524  11.697
 1127TIP3    H124872   5.791   1.511  11.668
 1127TIP3    H224873   5.883   1.491  11.786
 1128TIP3   OH224874   6.227   1.597  11.345
 1128TIP3    H124875   6.199   1.686  11.322
 1128TIP3    H224876   6.320   1.595  11.323
 1129TIP3   OH224877   6.586   1.716  11.627
 1129TIP3    H124878   6.596   1.685  11.716
 1129TIP3    H224879   6.666   1.766  11.609
 1130TIP3   OH224880   6.822   1.852  11.588
 1130TIP3    H124881   6.879   1.800  11.532
 1130TIP3    H224882   6.877   1.878  11.662
 1131TIP3   OH224883   5.922   1.872  11.376
 1131TIP3    H124884   5.845   1.911  11.337
 1131TIP3    H224885   5.938   1.924  11.455
 1132TIP3   OH224886   6.181   1.861  11.280
 1132TIP3    H124887   6.090   1.870  11.307
 1132TIP3    H224888   6.186   1.905  11.195
 1133TIP3   OH224889   6.628   1.842  11.191
 1133TIP3    H124890   6.580   1.875  11.116
 1133TIP3    H224891   6.636   1.916  11.251
 1134TIP3   OH224892   6.855   1.728  11.301
 1134TIP3    H124893   6.779   1.766  11.256
 1134TIP3    H224894   6.929   1.782  11.273
 1135TIP3   OH224895   7.098   1.854  11.252
 1135TIP3    H124896   7.104   1.945  11.223
 1135TIP3    H224897   7.141   1.803  11.183
 1136TIP3   OH224898   5.881   1.739  11.016
 1136TIP3    H124899   5.883   1.699  11.104
 1136TIP3    H224900   5.961   1.708  10.974
 1137TIP3   OH224901   6.106   1.628  10.910
 1137TIP3    H124902   6.092   1.535  10.927
 1137TIP3    H224903   6.194   1.645  10.942
 1138TIP3   OH224904   6.367   1.638  11.014
 1138TIP3    H124905   6.374   1.547  10.982
 1138TIP3    H224906   6.403   1.634  11.103
 1139TIP3   OH224907   6.661   0.284  10.871
 1139TIP3    H124908   6.602   0.221  10.912
 1139TIP3    H224909   6.745   0.238  10.864
 1140TIP3   OH224910   7.168   0.086  10.962
 1140TIP3    H124911   7.245   0.049  10.919
 1140TIP3    H224912   7.112   0.010  10.980
 1141TIP3   OH224913   5.990   0.069  10.653
 1141TIP3    H124914   5.934   0.073  10.576
 1141TIP3    H224915   5.985  -0.022  10.682
 1142TIP3   OH224916   6.423   0.156  10.698
 1142TIP3    H124917   6.506   0.155  10.649
 1142TIP3    H224918   6.446   0.122  10.784
 1143TIP3   OH224919   6.888   0.146  10.837
 1143TIP3    H124920   6.971   0.194  10.840
 1143TIP3    H224921   6.907   0.067  10.788
 1144TIP3   OH224922   6.959   0.061  10.402
 1144TIP3    H124923   6.873   0.041  10.364
 1144TIP3    H224924   7.018  -0.002  10.362
 1145TIP3   OH224925   5.747   1.649  10.356
 1145TIP3    H124926   5.690   1.641  10.279
 1145TIP3    H224927   5.778   1.739  10.353
 1146TIP3   OH224928   6.466   0.317  10.413
 1146TIP3    H124929   6.526   0.258  10.459
 1146TIP3    H224930   6.476   0.401  10.458
 1147TIP3   OH224931   5.953   0.183  11.623
 1147TIP3    H124932   5.910   0.097  11.620
 1147TIP3    H224933   6.035   0.167  11.669
 1148TIP3   OH224934   6.168   0.123  11.784
 1148TIP3    H124935   6.251   0.126  11.737
 1148TIP3    H224936   6.166   0.035  11.823
 1149TIP3   OH224937   6.008   1.846  10.101
 1149TIP3    H124938   6.100   1.820  10.100
 1149TIP3    H224939   5.969   1.801  10.026
 1150TIP3   OH224940   6.954   0.094  11.789
 1150TIP3    H124941   6.998   0.022  11.833
 1150TIP3    H224942   6.907   0.052  11.716
 1151TIP3   OH224943   7.226   1.640  11.694
 1151TIP3    H124944   7.192   1.625  11.606
 1151TIP3    H224945   7.236   1.735  11.700
 1152TIP3   OH224946   1.180   2.913  10.660
 1152TIP3    H124947   1.159   3.006  10.655
 1152TIP3    H224948   1.128   2.873  10.591
 1153TIP3   OH224949   1.084   2.836  11.062
 1153TIP3    H124950   1.114   2.782  11.135
 1153TIP3    H224951   1.036   2.775  11.006
 1154TIP3   OH224952   0.296   2.746  11.165
 1154TIP3    H124953   0.308   2.675  11.229
 1154TIP3    H224954   0.385   2.768  11.137
 1155TIP3   OH224955   1.476   3.128  10.887
 1155TIP3    H124956   1.427   3.055  10.926
 1155TIP3    H224957   1.483   3.192  10.958
 1156TIP3   OH224958   0.410   3.240  10.977
 1156TIP3    H124959   0.385   3.150  10.954
 1156TIP3    H224960   0.505   3.236  10.990
 1157TIP3   OH224961   0.152   2.838  10.836
 1157TIP3    H124962   0.183   2.747  10.842
 1157TIP3    H224963   0.232   2.891  10.844
 1158TIP3   OH224964   1.224   3.636  10.952
 1158TIP3    H124965   1.262   3.591  10.877
 1158TIP3    H224966   1.184   3.567  11.004
 1159TIP3   OH224967   0.905   3.092  11.052
 1159TIP3    H124968   0.947   3.019  11.005
 1159TIP3    H224969   0.973   3.124  11.111
 1160TIP3   OH224970   1.815   2.210  11.140
 1160TIP3    H124971   1.815   2.294  11.185
 1160TIP3    H224972   1.874   2.222  11.066
 1161TIP3   OH224973   1.238   2.482  11.070
 1161TIP3    H124974   1.261   2.390  11.080
 1161TIP3    H224975   1.217   2.491  10.977
 1162TIP3   OH224976   0.586   2.301  10.795
 1162TIP3    H124977   0.597   2.388  10.758
 1162TIP3    H224978   0.553   2.248  10.722
 1163TIP3   OH224979   1.347   2.338  10.657
 1163TIP3    H124980   1.395   2.307  10.734
 1163TIP3    H224981   1.415   2.369  10.597
 1164TIP3   OH224982   0.234   2.574  10.879
 1164TIP3    H124983   0.300   2.533  10.935
 1164TIP3    H224984   0.257   2.544  10.791
 1165TIP3   OH224985   0.696   2.705  10.860
 1165TIP3    H124986   0.785   2.675  10.881
 1165TIP3    H224987   0.662   2.639  10.800
 1166TIP3   OH224988   1.807   2.385  11.375
 1166TIP3    H124989   1.762   2.464  11.345
 1166TIP3    H224990   1.741   2.335  11.421
 1167TIP3   OH224991   0.433   2.231  11.226
 1167TIP3    H124992   0.407   2.286  11.152
 1167TIP3    H224993   0.366   2.248  11.293
 1168TIP3   OH224994   1.096   3.165  10.580
 1168TIP3    H124995   1.118   3.171  10.487
 1168TIP3    H224996   1.087   3.256  10.609
 1169TIP3   OH224997   0.688   3.005  11.200
 1169TIP3    H124998   0.636   3.076  11.237
 1169TIP3    H224999   0.757   3.048  11.150
 1170TIP3   OH225000   1.471   2.286  10.890
 1170TIP3    H125001   1.453   2.210  10.945
 1170TIP3    H225002   1.523   2.344  10.947
 1171TIP3   OH225003   0.419   2.393  10.997
 1171TIP3    H125004   0.479   2.446  11.050
 1171TIP3    H225005   0.476   2.353  10.931
 1172TIP3   OH225006   0.534   3.207  11.319
 1172TIP3    H125007   0.543   3.301  11.309
 1172TIP3    H225008   0.444   3.195  11.348
 1173TIP3   OH225009   1.495   3.331  11.086
 1173TIP3    H125010   1.400   3.338  11.099
 1173TIP3    H225011   1.522   3.416  11.052
 1174TIP3   OH225012   1.538   2.129  11.232
 1174TIP3    H125013   1.463   2.155  11.178
 1174TIP3    H225014   1.614   2.143  11.176
 1175TIP3   OH225015   0.799   1.915  10.975
 1175TIP3    H125016   0.772   1.824  10.976
 1175TIP3    H225017   0.720   1.964  11.001
 1176TIP3   OH225018   1.338   3.519  10.734
 1176TIP3    H125019   1.362   3.429  10.712
 1176TIP3    H225020   1.408   3.572  10.696
 1177TIP3   OH225021   1.423   3.275  10.656
 1177TIP3    H125022   1.449   3.226  10.578
 1177TIP3    H225023   1.443   3.215  10.729
 1178TIP3   OH225024   1.600   3.122  11.425
 1178TIP3    H125025   1.587   3.069  11.347
 1178TIP3    H225026   1.610   3.212  11.392
 1179TIP3   OH225027   1.063   2.821  10.423
 1179TIP3    H125028   0.994   2.885  10.405
 1179TIP3    H225029   1.124   2.829  10.350
 1180TIP3   OH225030   1.150   2.581  10.065
 1180TIP3    H125031   1.191   2.643  10.126
 1180TIP3    H225032   1.096   2.636  10.009
 1181TIP3   OH225033   1.763   2.805  11.267
 1181TIP3    H125034   1.693   2.867  11.250
 1181TIP3    H225035   1.821   2.812  11.191
 1182TIP3   OH225036   1.394   2.854  10.492
 1182TIP3    H125037   1.330   2.879  10.558
 1182TIP3    H225038   1.459   2.802  10.539
 1183TIP3   OH225039   1.372   2.648  11.456
 1183TIP3    H125040   1.361   2.721  11.517
 1183TIP3    H225041   1.308   2.665  11.386
 1184TIP3   OH225042   0.550   2.889  10.704
 1184TIP3    H125043   0.519   2.841  10.627
 1184TIP3    H225044   0.610   2.829  10.747
 1185TIP3   OH225045   0.695   3.258  10.955
 1185TIP3    H125046   0.698   3.268  10.860
 1185TIP3    H225047   0.772   3.204  10.976
 1186TIP3   OH225048   0.552   2.804  11.073
 1186TIP3    H125049   0.607   2.776  10.999
 1186TIP3    H225050   0.603   2.871  11.118
 1187TIP3   OH225051   1.234   3.358  11.155
 1187TIP3    H125052   1.207   3.424  11.219
 1187TIP3    H225053   1.188   3.278  11.183
 1188TIP3   OH225054   0.695   3.226  11.545
 1188TIP3    H125055   0.634   3.287  11.587
 1188TIP3    H225056   0.649   3.199  11.465
 1189TIP3   OH225057   1.304   2.732  10.257
 1189TIP3    H125058   1.335   2.785  10.331
 1189TIP3    H225059   1.384   2.702  10.214
 1190TIP3   OH225060   0.397   2.826  11.486
 1190TIP3    H125061   0.400   2.896  11.552
 1190TIP3    H225062   0.332   2.856  11.422
 1191TIP3   OH225063   1.080   3.441  10.635
 1191TIP3    H125064   1.165   3.473  10.667
 1191TIP3    H225065   1.051   3.509  10.574
 1192TIP3   OH225066   0.504   3.419  11.613
 1192TIP3    H125067   0.519   3.449  11.523
 1192TIP3    H225068   0.409   3.424  11.624
 1193TIP3   OH225069   0.474   2.763  10.462
 1193TIP3    H125070   0.528   2.811  10.399
 1193TIP3    H225071   0.505   2.672  10.455
 1194TIP3   OH225072   0.178   2.992  11.344
 1194TIP3    H125073   0.140   2.983  11.257
 1194TIP3    H225074   0.134   2.925  11.396
 1195TIP3   OH225075   0.130   3.360  10.975
 1195TIP3    H125076   0.215   3.316  10.976
 1195TIP3    H225077   0.094   3.343  11.062
 1196TIP3   OH225078   1.869   3.372  11.669
 1196TIP3    H125079   1.850   3.282  11.643
 1196TIP3    H225080   1.784   3.415  11.670
 1197TIP3   OH225081   0.938   3.346  11.497
 1197TIP3    H125082   0.930   3.432  11.539
 1197TIP3    H225083   0.852   3.305  11.511
 1198TIP3   OH225084   1.035   3.695  10.479
 1198TIP3    H125085   1.003   3.686  10.389
 1198TIP3    H225086   0.988   3.771  10.514
 1199TIP3   OH225087   0.362   3.604  10.679
 1199TIP3    H125088   0.386   3.572  10.767
 1199TIP3    H225089   0.303   3.537  10.645
 1200TIP3   OH225090   1.309   3.689  10.469
 1200TIP3    H125091   1.213   3.688  10.468
 1200TIP3    H225092   1.334   3.610  10.420
 1201TIP3   OH225093   1.561   2.520  11.635
 1201TIP3    H125094   1.501   2.563  11.575
 1201TIP3    H225095   1.560   2.428  11.609
 1202TIP3   OH225096   0.287   3.210  11.469
 1202TIP3    H125097   0.330   3.157  11.537
 1202TIP3    H225098   0.236   3.147  11.419
 1203TIP3   OH225099   0.546   2.029  11.063
 1203TIP3    H125100   0.473   2.025  11.001
 1203TIP3    H225101   0.523   2.101  11.122
 1204TIP3   OH225102   1.017   2.008  11.405
 1204TIP3    H125103   1.061   1.954  11.470
 1204TIP3    H225104   0.924   1.996  11.421
 1205TIP3   OH225105   1.325   2.372  11.498
 1205TIP3    H125106   1.261   2.364  11.569
 1205TIP3    H225107   1.324   2.465  11.475
 1206TIP3   OH225108   0.565   2.545  11.175
 1206TIP3    H125109   0.502   2.544  11.247
 1206TIP3    H225110   0.570   2.637  11.149
 1207TIP3   OH225111   0.564   2.547  10.676
 1207TIP3    H125112   0.473   2.530  10.652
 1207TIP3    H225113   0.612   2.540  10.594
 1208TIP3   OH225114   1.098   2.578  10.546
 1208TIP3    H125115   1.084   2.664  10.506
 1208TIP3    H225116   1.160   2.534  10.487
 1209TIP3   OH225117   1.002   2.595  11.649
 1209TIP3    H125118   0.958   2.520  11.688
 1209TIP3    H225119   1.086   2.600  11.695
 1210TIP3   OH225120   1.191   2.516  10.800
 1210TIP3    H125121   1.152   2.563  10.727
 1210TIP3    H225122   1.237   2.442  10.760
 1211TIP3   OH225123   0.356   2.549  11.354
 1211TIP3    H125124   0.362   2.603  11.433
 1211TIP3    H225125   0.319   2.466  11.384
 1212TIP3   OH225126   0.057   2.358  10.716
 1212TIP3    H125127   0.087   2.332  10.804
 1212TIP3    H225128   0.054   2.277  10.667
 1213TIP3   OH225129   1.169   2.659  11.263
 1213TIP3    H125130   1.201   2.600  11.194
 1213TIP3    H225131   1.096   2.611  11.302
 1214TIP3   OH225132   0.873   2.262  10.762
 1214TIP3    H125133   0.785   2.260  10.799
 1214TIP3    H225134   0.929   2.226  10.832
 1215TIP3   OH225135   0.308   2.443  10.632
 1215TIP3    H125136   0.218   2.414  10.646
 1215TIP3    H225137   0.355   2.365  10.602
 1216TIP3   OH225138   0.644   2.540  10.398
 1216TIP3    H125139   0.725   2.514  10.443
 1216TIP3    H225140   0.629   2.473  10.332
 1217TIP3   OH225141   1.261   2.204  11.109
 1217TIP3    H125142   1.204   2.221  11.185
 1217TIP3    H225143   1.202   2.166  11.044
 1218TIP3   OH225144   1.561   3.832  11.742
 1218TIP3    H125145   1.583   3.827  11.648
 1218TIP3    H225146   1.580   3.923  11.766
 1219TIP3   OH225147   0.383   3.040  11.669
 1219TIP3    H125148   0.447   3.037  11.739
 1219TIP3    H225149   0.298   3.041  11.714
 1220TIP3   OH225150   0.941   2.599  10.952
 1220TIP3    H125151   1.009   2.555  10.901
 1220TIP3    H225152   0.912   2.534  11.015
 1221TIP3   OH225153   0.443   2.209  10.563
 1221TIP3    H125154   0.419   2.124  10.598
 1221TIP3    H225155   0.474   2.191  10.474
 1222TIP3   OH225156   0.821   2.443  11.162
 1222TIP3    H125157   0.737   2.488  11.169
 1222TIP3    H225158   0.871   2.474  11.237
 1223TIP3   OH225159   0.848   2.993  10.373
 1223TIP3    H125160   0.781   2.942  10.327
 1223TIP3    H225161   0.801   3.038  10.443
 1224TIP3   OH225162   1.569   2.983  11.190
 1224TIP3    H125163   1.626   3.037  11.135
 1224TIP3    H225164   1.497   2.957  11.132
 1225TIP3   OH225165   1.025   3.069  11.493
 1225TIP3    H125166   1.045   3.034  11.580
 1225TIP3    H225167   0.992   3.157  11.510
 1226TIP3   OH225168   1.285   2.471  10.366
 1226TIP3    H125169   1.376   2.463  10.395
 1226TIP3    H225170   1.285   2.547  10.308
 1227TIP3   OH225171   0.389   2.969  10.909
 1227TIP3    H125172   0.442   2.955  10.831
 1227TIP3    H225173   0.431   2.916  10.976
 1228TIP3   OH225174   1.056   3.152  10.277
 1228TIP3    H125175   1.034   3.244  10.292
 1228TIP3    H225176   0.981   3.104  10.312
 1229TIP3   OH225177   0.094   2.775  11.493
 1229TIP3    H125178   0.136   2.737  11.570
 1229TIP3    H225179   0.049   2.702  11.451
 1230TIP3   OH225180   0.802   2.785  11.680
 1230TIP3    H125181   0.734   2.748  11.624
 1230TIP3    H225182   0.881   2.734  11.658
 1231TIP3   OH225183   1.220   3.342  11.505
 1231TIP3    H125184   1.128   3.343  11.480
 1231TIP3    H225185   1.220   3.351  11.600
 1232TIP3   OH225186   1.821   3.113  11.584
 1232TIP3    H125187   1.734   3.123  11.545
 1232TIP3    H225188   1.879   3.097  11.509
 1233TIP3   OH225189   1.662   3.424  10.279
 1233TIP3    H125190   1.623   3.341  10.305
 1233TIP3    H225191   1.670   3.418  10.184
 1234TIP3   OH225192   1.367   2.898  11.014
 1234TIP3    H125193   1.271   2.891  11.010
 1234TIP3    H225194   1.399   2.823  10.964
 1235TIP3   OH225195   0.631   3.336  10.693
 1235TIP3    H125196   0.669   3.411  10.647
 1235TIP3    H225197   0.542   3.363  10.714
 1236TIP3   OH225198   0.669   3.095  10.556
 1236TIP3    H125199   0.671   3.179  10.603
 1236TIP3    H225200   0.632   3.033  10.619
 1237TIP3   OH225201   0.836   3.499  11.270
 1237TIP3    H125202   0.890   3.575  11.250
 1237TIP3    H225203   0.892   3.443  11.324
 1238TIP3   OH225204   0.623   3.598  10.585
 1238TIP3    H125205   0.531   3.618  10.603
 1238TIP3    H225206   0.670   3.676  10.617
 1239TIP3   OH225207   1.115   3.116  11.235
 1239TIP3    H125208   1.088   3.094  11.324
 1239TIP3    H225209   1.158   3.036  11.203
 1240TIP3   OH225210   1.416   3.541  11.484
 1240TIP3    H125211   1.342   3.482  11.474
 1240TIP3    H225212   1.410   3.601  11.410
 1241TIP3   OH225213   0.252   2.298  11.438
 1241TIP3    H125214   0.180   2.341  11.485
 1241TIP3    H225215   0.262   2.213  11.483
 1242TIP3   OH225216   1.511   3.112  10.450
 1242TIP3    H125217   1.464   3.028  10.445
 1242TIP3    H225218   1.603   3.087  10.448
 1243TIP3   OH225219   0.213   3.517  11.266
 1243TIP3    H125220   0.206   3.442  11.325
 1243TIP3    H225221   0.233   3.591  11.323
 1244TIP3   OH225222   0.715   3.211  10.069
 1244TIP3    H125223   0.801   3.252  10.082
 1244TIP3    H225224   0.654   3.285  10.067
 1245TIP3   OH225225   1.117   2.257  11.346
 1245TIP3    H125226   1.195   2.265  11.399
 1245TIP3    H225227   1.082   2.170  11.368
 1246TIP3   OH225228   1.187   2.220  10.463
 1246TIP3    H125229   1.191   2.296  10.404
 1246TIP3    H225230   1.235   2.247  10.541
 1247TIP3   OH225231   0.982   3.409  10.310
 1247TIP3    H125232   0.892   3.421  10.341
 1247TIP3    H225233   1.006   3.494  10.271
 1248TIP3   OH225234   0.844   2.469  10.572
 1248TIP3    H125235   0.931   2.507  10.561
 1248TIP3    H225236   0.858   2.394  10.629
 1249TIP3   OH225237   0.981   2.498  11.382
 1249TIP3    H125238   0.983   2.521  11.475
 1249TIP3    H225239   1.020   2.411  11.378
 1250TIP3   OH225240   0.978   2.073  10.583
 1250TIP3    H125241   0.940   2.145  10.633
 1250TIP3    H225242   1.042   2.115  10.526
 1251TIP3   OH225243   0.728   3.487  10.357
 1251TIP3    H125244   0.714   3.538  10.277
 1251TIP3    H225245   0.690   3.540  10.427
 1252TIP3   OH225246   1.573   2.262  11.472
 1252TIP3    H125247   1.483   2.293  11.484
 1252TIP3    H225248   1.569   2.209  11.392
 1253TIP3   OH225249   1.437   2.649  10.890
 1253TIP3    H125250   1.353   2.608  10.869
 1253TIP3    H225251   1.482   2.586  10.946
 1254TIP3   OH225252   1.574   3.599  11.062
 1254TIP3    H125253   1.551   3.657  10.990
 1254TIP3    H225254   1.668   3.614  11.077
 1255TIP3   OH225255   0.294   2.028  10.937
 1255TIP3    H125256   0.303   2.012  10.843
 1255TIP3    H225257   0.266   1.944  10.973
 1256TIP3   OH225258   0.190   3.418  10.563
 1256TIP3    H125259   0.106   3.372  10.572
 1256TIP3    H225260   0.175   3.481  10.493
 1257TIP3   OH225261   0.171   3.697  11.721
 1257TIP3    H125262   0.228   3.688  11.797
 1257TIP3    H225263   0.174   3.612  11.678
 1258TIP3   OH225264   0.577   3.490  11.870
 1258TIP3    H125265   0.656   3.439  11.888
 1258TIP3    H225266   0.555   3.468  11.779
 1259TIP3   OH225267   1.229   3.369  11.779
 1259TIP3    H125268   1.219   3.285  11.824
 1259TIP3    H225269   1.303   3.411  11.823
 1260TIP3   OH225270   0.142   3.029  11.798
 1260TIP3    H125271   0.135   2.937  11.772
 1260TIP3    H225272   0.053   3.062  11.792
 1261TIP3   OH225273   0.781   3.058  11.747
 1261TIP3    H125274   0.759   3.104  11.665
 1261TIP3    H225275   0.802   2.969  11.719
 1262TIP3   OH225276   1.156   3.157  10.020
 1262TIP3    H125277   1.133   3.164  10.113
 1262TIP3    H225278   1.109   3.079   9.989
 1263TIP3   OH225279   1.348   3.087  11.535
 1263TIP3    H125280   1.435   3.104  11.498
 1263TIP3    H225281   1.296   3.164  11.509
 1264TIP3   OH225282   0.201   2.744  11.753
 1264TIP3    H125283   0.283   2.695  11.743
 1264TIP3    H225284   0.193   2.759  11.847
 1265TIP3   OH225285   0.653   2.818  10.261
 1265TIP3    H125286   0.677   2.729  10.286
 1265TIP3    H225287   0.648   2.815  10.165
 1266TIP3   OH225288   0.622   2.667  11.498
 1266TIP3    H125289   0.545   2.724  11.492
 1266TIP3    H225290   0.681   2.700  11.430
 1267TIP3   OH225291   1.125   2.920  11.784
 1267TIP3    H125292   1.198   2.878  11.738
 1267TIP3    H225293   1.091   2.851  11.841
 1268TIP3   OH225294   0.649   2.402  11.569
 1268TIP3    H125295   0.661   2.347  11.491
 1268TIP3    H225296   0.644   2.491  11.535
 1269TIP3   OH225297   0.686   2.252  11.332
 1269TIP3    H125298   0.741   2.294  11.266
 1269TIP3    H225299   0.600   2.248  11.292
 1270TIP3   OH225300   0.794   2.783  11.325
 1270TIP3    H125301   0.889   2.793  11.325
 1270TIP3    H225302   0.761   2.864  11.285
 1271TIP3   OH225303   1.239   2.568  11.805
 1271TIP3    H125304   1.224   2.477  11.779
 1271TIP3    H225305   1.334   2.578  11.805
 1272TIP3   OH225306   1.385   2.850  11.658
 1272TIP3    H125307   1.360   2.933  11.618
 1272TIP3    H225308   1.480   2.846  11.649
 1273TIP3   OH225309   0.485   2.456  11.791
 1273TIP3    H125310   0.402   2.408  11.783
 1273TIP3    H225311   0.530   2.440  11.708
 1274TIP3   OH225312   0.739   1.987  11.406
 1274TIP3    H125313   0.721   2.078  11.382
 1274TIP3    H225314   0.671   1.936  11.362
 1275TIP3   OH225315   0.871   2.369  11.736
 1275TIP3    H125316   0.831   2.342  11.819
 1275TIP3    H225317   0.798   2.371  11.675
 1276TIP3   OH225318   1.149   2.330  11.702
 1276TIP3    H125319   1.056   2.320  11.717
 1276TIP3    H225320   1.190   2.263  11.756
 1277TIP3   OH225321   1.314   2.179  11.864
 1277TIP3    H125322   1.308   2.085  11.848
 1277TIP3    H225323   1.288   2.190  11.955
 1278TIP3   OH225324   0.268   2.269  11.773
 1278TIP3    H125325   0.276   2.191  11.718
 1278TIP3    H225326   0.288   2.239  11.862
 1279TIP3   OH225327   0.730   1.900  11.666
 1279TIP3    H125328   0.785   1.822  11.660
 1279TIP3    H225329   0.728   1.934  11.576
 1280TIP3   OH225330   0.808   2.056  11.880
 1280TIP3    H125331   0.786   2.003  11.803
 1280TIP3    H225332   0.747   2.130  11.877
 1281TIP3   OH225333   0.009   3.727  10.582
 1281TIP3    H125334   0.055   3.684  10.511
 1281TIP3    H225335   0.036   3.679  10.661
 1282TIP3   OH225336   0.072   3.583  10.812
 1282TIP3    H125337   0.077   3.490  10.836
 1282TIP3    H225338   0.131   3.627  10.873
 1283TIP3   OH225339   1.834   3.668  11.128
 1283TIP3    H125340   1.857   3.747  11.177
 1283TIP3    H225341   1.908   3.654  11.069
 1284TIP3   OH225342   1.761   3.596  11.415
 1284TIP3    H125343   1.716   3.519  11.379
 1284TIP3    H225344   1.836   3.608  11.356
 1285TIP3   OH225345   1.648   3.180  11.889
 1285TIP3    H125346   1.566   3.192  11.938
 1285TIP3    H225347   1.704   3.252  11.918
 1286TIP3   OH225348   1.769   3.016  10.455
 1286TIP3    H125349   1.854   3.053  10.432
 1286TIP3    H225350   1.782   2.922  10.447
 1287TIP3   OH225351   1.818   2.757  10.588
 1287TIP3    H125352   1.726   2.732  10.599
 1287TIP3    H225353   1.831   2.828  10.651
 1288TIP3   OH225354   1.829   3.092  11.120
 1288TIP3    H125355   1.866   3.025  11.064
 1288TIP3    H225356   1.865   3.174  11.087
 1289TIP3   OH225357   1.604   3.382  11.335
 1289TIP3    H125358   1.527   3.425  11.372
 1289TIP3    H225359   1.580   3.363  11.244
 1290TIP3   OH225360   1.558   2.678  10.638
 1290TIP3    H125361   1.546   2.591  10.601
 1290TIP3    H225362   1.520   2.672  10.726
 1291TIP3   OH225363   0.075   2.884  11.094
 1291TIP3    H125364   0.084   2.894  10.999
 1291TIP3    H225365   0.156   2.841  11.121
 1292TIP3   OH225366   1.661   2.853  11.631
 1292TIP3    H125367   1.721   2.779  11.624
 1292TIP3    H225368   1.700   2.922  11.577
 1293TIP3   OH225369   1.815   2.623  11.632
 1293TIP3    H125370   1.729   2.582  11.628
 1293TIP3    H225371   1.872   2.555  11.669
 1294TIP3   OH225372   1.546   2.438  10.478
 1294TIP3    H125373   1.588   2.353  10.489
 1294TIP3    H225374   1.594   2.478  10.405
 1295TIP3   OH225375   1.599   2.473  11.052
 1295TIP3    H125376   1.691   2.491  11.030
 1295TIP3    H225377   1.591   2.498  11.143
 1296TIP3   OH225378   1.614   2.577  11.312
 1296TIP3    H125379   1.531   2.606  11.351
 1296TIP3    H225380   1.663   2.658  11.298
 1297TIP3   OH225381   0.066   2.399  11.631
 1297TIP3    H125382   0.127   2.366  11.697
 1297TIP3    H225383   0.005   2.327  11.617
 1298TIP3   OH225384   1.857   1.974  11.832
 1298TIP3    H125385   1.922   1.913  11.796
 1298TIP3    H225386   1.850   2.044  11.766
 1299TIP3   OH225387   1.631   2.178  10.522
 1299TIP3    H125388   1.647   2.136  10.607
 1299TIP3    H225389   1.556   2.131  10.486
 1300TIP3   OH225390   0.172   2.270  10.954
 1300TIP3    H125391   0.203   2.179  10.953
 1300TIP3    H225392   0.250   2.322  10.970
 1301TIP3   OH225393   0.008   2.609  11.071
 1301TIP3    H125394   0.081   2.593  11.012
 1301TIP3    H225395   0.010   2.703  11.086
 1302TIP3   OH225396   1.784   2.171  11.657
 1302TIP3    H125397   1.702   2.207  11.691
 1302TIP3    H225398   1.761   2.136  11.571
 1303TIP3   OH225399   1.793   2.201  10.100
 1303TIP3    H125400   1.830   2.125  10.146
 1303TIP3    H225401   1.816   2.276  10.155
 1304TIP3   OH225402   0.062   2.150  10.537
 1304TIP3    H125403   0.041   2.061  10.566
 1304TIP3    H225404   0.140   2.140  10.483
 1305TIP3   OH225405   1.554   3.679  10.645
 1305TIP3    H125406   1.531   3.686  10.553
 1305TIP3    H225407   1.650   3.687  10.646
 1306TIP3   OH225408   7.340   2.006  11.335
 1306TIP3    H125409   7.288   1.926  11.349
 1306TIP3    H225410   7.292   2.053  11.267
 1307TIP3   OH225411   0.220   3.420  11.640
 1307TIP3    H125412   0.228   3.350  11.576
 1307TIP3    H225413   0.153   3.391  11.701
 1308TIP3   OH225414   0.574   3.481  11.350
 1308TIP3    H125415   0.542   3.567  11.323
 1308TIP3    H225416   0.667   3.482  11.328
 1309TIP3   OH225417   0.929   3.590  11.623
 1309TIP3    H125418   0.942   3.562  11.714
 1309TIP3    H225419   1.007   3.642  11.603
 1310TIP3   OH225420   1.160   3.732  11.586
 1310TIP3    H125421   1.228   3.684  11.539
 1310TIP3    H225422   1.202   3.764  11.666
 1311TIP3   OH225423   1.694   1.941  11.460
 1311TIP3    H125424   1.616   1.949  11.405
 1311TIP3    H225425   1.726   1.853  11.442
 1312TIP3   OH225426   0.263   3.773  11.377
 1312TIP3    H125427   0.181   3.809  11.342
 1312TIP3    H225428   0.280   3.824  11.456
 1313TIP3   OH225429   0.520   3.742  11.280
 1313TIP3    H125430   0.429   3.754  11.308
 1313TIP3    H225431   0.526   3.788  11.196
 1314TIP3   OH225432   0.969   3.727  11.187
 1314TIP3    H125433   0.917   3.761  11.114
 1314TIP3    H225434   0.978   3.802  11.246
 1315TIP3   OH225435   1.187   3.595  11.291
 1315TIP3    H125436   1.113   3.641  11.252
 1315TIP3    H225437   1.263   3.648  11.267
 1316TIP3   OH225438   1.435   3.717  11.265
 1316TIP3    H125439   1.469   3.807  11.255
 1316TIP3    H225440   1.478   3.668  11.195
 1317TIP3   OH225441   0.233   3.651  11.027
 1317TIP3    H125442   0.215   3.609  11.110
 1317TIP3    H225443   0.308   3.603  10.991
 1318TIP3   OH225444   0.443   3.508  10.924
 1318TIP3    H125445   0.427   3.416  10.947
 1318TIP3    H225446   0.530   3.526  10.960
 1319TIP3   OH225447   0.703   3.529  11.027
 1319TIP3    H125448   0.711   3.440  10.991
 1319TIP3    H225449   0.742   3.523  11.114
 1320TIP3   OH225450   1.042   2.101  10.930
 1320TIP3    H125451   0.979   2.030  10.939
 1320TIP3    H225452   1.113   2.064  10.878
 1321TIP3   OH225453   1.505   1.986  10.955
 1321TIP3    H125454   1.570   2.003  10.886
 1321TIP3    H225455   1.422   1.985  10.908
 1322TIP3   OH225456   1.693   2.014  10.750
 1322TIP3    H125457   1.755   1.953  10.711
 1322TIP3    H225458   1.745   2.091  10.771
 1323TIP3   OH225459   0.317   1.974  10.670
 1323TIP3    H125460   0.277   1.982  10.583
 1323TIP3    H225461   0.344   1.882  10.675
 1324TIP3   OH225462   0.269   2.005  10.399
 1324TIP3    H125463   0.340   2.056  10.362
 1324TIP3    H225464   0.292   1.914  10.379
 1325TIP3   OH225465   0.755   1.924  10.684
 1325TIP3    H125466   0.821   1.972  10.635
 1325TIP3    H225467   0.786   1.927  10.775
 1326TIP3   OH225468   1.264   1.978  10.813
 1326TIP3    H125469   1.288   1.968  10.720
 1326TIP3    H225470   1.236   1.891  10.840
 1327TIP3   OH225471   1.408   2.041  10.454
 1327TIP3    H125472   1.322   2.076  10.433
 1327TIP3    H225473   1.425   1.976  10.386
 1328TIP3   OH225474   0.140   3.607  10.371
 1328TIP3    H125475   0.096   3.595  10.287
 1328TIP3    H225476   0.193   3.686  10.359
 1329TIP3   OH225477   0.965   3.671  10.214
 1329TIP3    H125478   1.032   3.697  10.151
 1329TIP3    H225479   0.884   3.668  10.163
 1330TIP3   OH225480   1.705   3.688  10.347
 1330TIP3    H125481   1.678   3.599  10.324
 1330TIP3    H225482   1.784   3.703  10.295
 1331TIP3   OH225483   0.291   2.035  11.615
 1331TIP3    H125484   0.235   1.965  11.648
 1331TIP3    H225485   0.375   2.022  11.659
 1332TIP3   OH225486   0.491   1.963  11.792
 1332TIP3    H125487   0.574   1.934  11.754
 1332TIP3    H225488   0.458   1.886  11.838
 1333TIP3   OH225489   1.333   1.910  11.799
 1333TIP3    H125490   1.324   1.861  11.881
 1333TIP3    H225491   1.426   1.902  11.777
 1334TIP3   OH225492   1.639   3.546  11.657
 1334TIP3    H125493   1.553   3.537  11.615
 1334TIP3    H225494   1.698   3.568  11.585
 1335TIP3   OH225495   3.017   2.894  10.705
 1335TIP3    H125496   3.074   2.967  10.730
 1335TIP3    H225497   2.928   2.931  10.708
 1336TIP3   OH225498   2.983   2.825  11.050
 1336TIP3    H125499   3.000   2.780  11.133
 1336TIP3    H225500   2.922   2.767  11.004
 1337TIP3   OH225501   2.183   2.761  11.172
 1337TIP3    H125502   2.196   2.687  11.230
 1337TIP3    H225503   2.270   2.781  11.138
 1338TIP3   OH225504   3.349   3.127  10.875
 1338TIP3    H125505   3.313   3.056  10.928
 1338TIP3    H225506   3.367   3.197  10.937
 1339TIP3   OH225507   2.310   3.258  11.007
 1339TIP3    H125508   2.285   3.168  10.985
 1339TIP3    H225509   2.406   3.256  11.006
 1340TIP3   OH225510   2.003   2.575  10.492
 1340TIP3    H125511   1.936   2.638  10.521
 1340TIP3    H225512   1.959   2.525  10.423
 1341TIP3   OH225513   2.056   2.813  10.811
 1341TIP3    H125514   2.066   2.719  10.821
 1341TIP3    H225515   2.079   2.830  10.720
 1342TIP3   OH225516   3.076   3.616  10.925
 1342TIP3    H125517   3.143   3.561  10.884
 1342TIP3    H225518   2.993   3.582  10.894
 1343TIP3   OH225519   2.791   3.089  11.053
 1343TIP3    H125520   2.830   3.020  10.999
 1343TIP3    H225521   2.859   3.112  11.116
 1344TIP3   OH225522   3.702   2.215  11.163
 1344TIP3    H125523   3.711   2.289  11.223
 1344TIP3    H225524   3.759   2.237  11.089
 1345TIP3   OH225525   3.121   2.500  11.070
 1345TIP3    H125526   3.125   2.404  11.072
 1345TIP3    H225527   3.097   2.521  10.979
 1346TIP3   OH225528   2.468   2.306  10.778
 1346TIP3    H125529   2.472   2.390  10.733
 1346TIP3    H225530   2.416   2.250  10.719
 1347TIP3   OH225531   3.232   2.387  10.668
 1347TIP3    H125532   3.281   2.338  10.735
 1347TIP3    H225533   3.296   2.404  10.599
 1348TIP3   OH225534   2.099   2.544  10.872
 1348TIP3    H125535   2.167   2.509  10.929
 1348TIP3    H225536   2.120   2.509  10.785
 1349TIP3   OH225537   2.562   2.699  10.842
 1349TIP3    H125538   2.651   2.674  10.866
 1349TIP3    H225539   2.536   2.638  10.774
 1350TIP3   OH225540   3.731   2.394  11.378
 1350TIP3    H125541   3.654   2.447  11.357
 1350TIP3    H225542   3.744   2.407  11.472
 1351TIP3   OH225543   2.310   2.230  11.221
 1351TIP3    H125544   2.294   2.284  11.144
 1351TIP3    H225545   2.235   2.246  11.279
 1352TIP3   OH225546   2.573   2.998  11.197
 1352TIP3    H125547   2.521   3.071  11.231
 1352TIP3    H225548   2.641   3.040  11.144
 1353TIP3   OH225549   3.340   2.267  10.899
 1353TIP3    H125550   3.266   2.249  10.957
 1353TIP3    H225551   3.393   2.331  10.947
 1354TIP3   OH225552   2.303   2.385  10.992
 1354TIP3    H125553   2.361   2.441  11.044
 1354TIP3    H225554   2.358   2.354  10.920
 1355TIP3   OH225555   2.432   3.206  11.314
 1355TIP3    H125556   2.440   3.300  11.299
 1355TIP3    H225557   2.340   3.194  11.336
 1356TIP3   OH225558   2.027   3.093  10.391
 1356TIP3    H125559   2.055   3.035  10.319
 1356TIP3    H225560   2.058   3.179  10.365
 1357TIP3   OH225561   3.392   3.327  11.070
 1357TIP3    H125562   3.303   3.327  11.103
 1357TIP3    H225563   3.408   3.418  11.043
 1358TIP3   OH225564   3.446   2.121  11.244
 1358TIP3    H125565   3.380   2.162  11.189
 1358TIP3    H225566   3.529   2.146  11.205
 1359TIP3   OH225567   2.677   1.910  10.983
 1359TIP3    H125568   2.648   1.819  10.977
 1359TIP3    H225569   2.599   1.959  11.007
 1360TIP3   OH225570   3.207   3.459  10.735
 1360TIP3    H125571   3.229   3.382  10.682
 1360TIP3    H225572   3.275   3.523  10.712
 1361TIP3   OH225573   3.281   3.203  10.618
 1361TIP3    H125574   3.364   3.223  10.575
 1361TIP3    H225575   3.305   3.174  10.706
 1362TIP3   OH225576   3.496   3.111  11.434
 1362TIP3    H125577   3.481   3.058  11.356
 1362TIP3    H225578   3.506   3.200  11.401
 1363TIP3   OH225579   3.656   2.790  11.264
 1363TIP3    H125580   3.583   2.851  11.250
 1363TIP3    H225581   3.717   2.808  11.192
 1364TIP3   OH225582   3.262   2.647  11.459
 1364TIP3    H125583   3.253   2.719  11.521
 1364TIP3    H225584   3.199   2.665  11.390
 1365TIP3   OH225585   2.421   2.909  10.711
 1365TIP3    H125586   2.363   2.877  10.642
 1365TIP3    H225587   2.464   2.830  10.744
 1366TIP3   OH225588   2.587   3.267  10.950
 1366TIP3    H125589   2.584   3.271  10.855
 1366TIP3    H225590   2.661   3.209  10.970
 1367TIP3   OH225591   2.448   2.779  11.085
 1367TIP3    H125592   2.484   2.766  10.997
 1367TIP3    H225593   2.487   2.860  11.115
 1368TIP3   OH225594   3.151   3.336  11.189
 1368TIP3    H125595   3.112   3.418  11.218
 1368TIP3    H225596   3.084   3.270  11.207
 1369TIP3   OH225597   2.586   3.219  11.544
 1369TIP3    H125598   2.525   3.281  11.583
 1369TIP3    H225599   2.546   3.193  11.461
 1370TIP3   OH225600   2.232   2.792  11.533
 1370TIP3    H125601   2.249   2.883  11.557
 1370TIP3    H225602   2.145   2.793  11.493
 1371TIP3   OH225603   2.925   3.480  10.738
 1371TIP3    H125604   3.016   3.453  10.729
 1371TIP3    H225605   2.910   3.541  10.666
 1372TIP3   OH225606   2.395   3.406  11.608
 1372TIP3    H125607   2.401   3.439  11.518
 1372TIP3    H225608   2.301   3.400  11.625
 1373TIP3   OH225609   2.224   2.832  10.516
 1373TIP3    H125610   2.206   2.903  10.454
 1373TIP3    H225611   2.176   2.757  10.481
 1374TIP3   OH225612   1.963   3.051  11.361
 1374TIP3    H125613   1.915   3.065  11.279
 1374TIP3    H225614   1.977   2.956  11.365
 1375TIP3   OH225615   1.993   3.316  11.056
 1375TIP3    H125616   2.082   3.293  11.028
 1375TIP3    H225617   2.005   3.374  11.131
 1376TIP3   OH225618   3.754   3.433  11.639
 1376TIP3    H125619   3.748   3.339  11.624
 1376TIP3    H225620   3.667   3.459  11.667
 1377TIP3   OH225621   2.824   3.350  11.499
 1377TIP3    H125622   2.815   3.436  11.538
 1377TIP3    H225623   2.739   3.308  11.512
 1378TIP3   OH225624   2.931   3.663  10.530
 1378TIP3    H125625   2.892   3.607  10.463
 1378TIP3    H225626   2.883   3.746  10.523
 1379TIP3   OH225627   2.271   3.603  10.674
 1379TIP3    H125628   2.291   3.575  10.764
 1379TIP3    H225629   2.221   3.530  10.638
 1380TIP3   OH225630   3.191   3.657  10.413
 1380TIP3    H125631   3.105   3.644  10.453
 1380TIP3    H225632   3.189   3.602  10.334
 1381TIP3   OH225633   3.443   2.522  11.644
 1381TIP3    H125634   3.381   2.561  11.583
 1381TIP3    H225635   3.449   2.430  11.618
 1382TIP3   OH225636   2.177   3.214  11.425
 1382TIP3    H125637   2.203   3.172  11.507
 1382TIP3    H225638   2.102   3.163  11.395
 1383TIP3   OH225639   2.426   2.025  11.061
 1383TIP3    H125640   2.355   2.012  10.999
 1383TIP3    H225641   2.398   2.098  11.115
 1384TIP3   OH225642   2.900   2.008  11.407
 1384TIP3    H125643   2.942   1.955  11.474
 1384TIP3    H225644   2.806   1.999  11.424
 1385TIP3   OH225645   3.195   2.374  11.482
 1385TIP3    H125646   3.142   2.367  11.562
 1385TIP3    H225647   3.204   2.468  11.467
 1386TIP3   OH225648   2.446   2.528  11.186
 1386TIP3    H125649   2.376   2.530  11.252
 1386TIP3    H225650   2.452   2.618  11.154
 1387TIP3   OH225651   2.449   2.546  10.641
 1387TIP3    H125652   2.355   2.530  10.638
 1387TIP3    H225653   2.478   2.538  10.550
 1388TIP3   OH225654   2.892   2.593  11.652
 1388TIP3    H125655   2.850   2.516  11.689
 1388TIP3    H225656   2.976   2.599  11.698
 1389TIP3   OH225657   3.071   2.561  10.807
 1389TIP3    H125658   3.043   2.633  10.750
 1389TIP3    H225659   3.110   2.497  10.747
 1390TIP3   OH225660   2.227   2.545  11.353
 1390TIP3    H125661   2.214   2.598  11.432
 1390TIP3    H225662   2.173   2.467  11.367
 1391TIP3   OH225663   1.869   2.218  10.761
 1391TIP3    H125664   1.940   2.240  10.822
 1391TIP3    H225665   1.910   2.222  10.674
 1392TIP3   OH225666   1.922   2.391  10.283
 1392TIP3    H125667   2.001   2.407  10.231
 1392TIP3    H225668   1.857   2.452  10.249
 1393TIP3   OH225669   3.057   2.665  11.273
 1393TIP3    H125670   3.087   2.609  11.201
 1393TIP3    H225671   2.981   2.619  11.309
 1394TIP3   OH225672   2.750   2.259  10.754
 1394TIP3    H125673   2.657   2.269  10.774
 1394TIP3    H225674   2.789   2.234  10.838
 1395TIP3   OH225675   2.194   2.445  10.635
 1395TIP3    H125676   2.127   2.479  10.576
 1395TIP3    H225677   2.211   2.356  10.604
 1396TIP3   OH225678   2.577   2.483  10.401
 1396TIP3    H125679   2.640   2.491  10.473
 1396TIP3    H225680   2.630   2.460  10.325
 1397TIP3   OH225681   3.122   2.222  11.076
 1397TIP3    H125682   3.080   2.230  11.161
 1397TIP3    H225683   3.057   2.177  11.021
 1398TIP3   OH225684   3.496   3.778  11.725
 1398TIP3    H125685   3.516   3.811  11.638
 1398TIP3    H225686   3.571   3.803  11.779
 1399TIP3   OH225687   2.240   3.048  11.657
 1399TIP3    H125688   2.307   3.043  11.726
 1399TIP3    H225689   2.158   3.062  11.705
 1400TIP3   OH225690   2.814   2.608  10.951
 1400TIP3    H125691   2.879   2.562  10.899
 1400TIP3    H225692   2.783   2.543  11.015
 1401TIP3   OH225693   2.300   2.190  10.579
 1401TIP3    H125694   2.247   2.112  10.595
 1401TIP3    H225695   2.337   2.176  10.492
 1402TIP3   OH225696   2.707   2.446  11.160
 1402TIP3    H125697   2.620   2.484  11.170
 1402TIP3    H225698   2.756   2.476  11.236
 1403TIP3   OH225699   3.460   2.971  11.199
 1403TIP3    H125700   3.519   3.029  11.149
 1403TIP3    H225701   3.388   2.953  11.140
 1404TIP3   OH225702   2.897   3.067  11.503
 1404TIP3    H125703   2.929   3.042  11.589
 1404TIP3    H225704   2.871   3.159  11.512
 1405TIP3   OH225705   3.221   2.595  10.296
 1405TIP3    H125706   3.299   2.542  10.314
 1405TIP3    H225707   3.225   2.611  10.201
 1406TIP3   OH225708   2.265   3.000  10.924
 1406TIP3    H125709   2.326   2.982  10.852
 1406TIP3    H225710   2.197   2.933  10.916
 1407TIP3   OH225711   1.966   2.775  11.453
 1407TIP3    H125712   1.930   2.725  11.526
 1407TIP3    H225713   1.900   2.770  11.385
 1408TIP3   OH225714   2.678   2.765  11.710
 1408TIP3    H125715   2.610   2.738  11.648
 1408TIP3    H225716   2.758   2.722  11.679
 1409TIP3   OH225717   3.104   3.337  11.509
 1409TIP3    H125718   3.013   3.344  11.482
 1409TIP3    H225719   3.104   3.352  11.603
 1410TIP3   OH225720   3.650   2.555  10.317
 1410TIP3    H125721   3.688   2.506  10.244
 1410TIP3    H225722   3.635   2.642  10.281
 1411TIP3   OH225723   3.722   3.160  11.595
 1411TIP3    H125724   3.629   3.152  11.573
 1411TIP3    H225725   3.767   3.130  11.516
 1412TIP3   OH225726   3.525   3.397  10.291
 1412TIP3    H125727   3.570   3.330  10.239
 1412TIP3    H225728   3.463   3.437  10.230
 1413TIP3   OH225729   3.257   2.899  11.017
 1413TIP3    H125730   3.162   2.885  11.022
 1413TIP3    H225731   3.290   2.823  10.969
 1414TIP3   OH225732   2.536   3.312  10.675
 1414TIP3    H125733   2.565   3.395  10.637
 1414TIP3    H225734   2.445   3.303  10.647
 1415TIP3   OH225735   2.664   3.056  10.686
 1415TIP3    H125736   2.639   3.147  10.670
 1415TIP3    H225737   2.582   3.009  10.696
 1416TIP3   OH225738   2.716   3.496  11.270
 1416TIP3    H125739   2.769   3.573  11.249
 1416TIP3    H225740   2.775   3.439  11.320
 1417TIP3   OH225741   2.521   3.575  10.552
 1417TIP3    H125742   2.433   3.596  10.582
 1417TIP3    H225743   2.575   3.646  10.586
 1418TIP3   OH225744   2.993   3.108  11.246
 1418TIP3    H125745   2.959   3.090  11.334
 1418TIP3    H225746   3.062   3.043  11.233
 1419TIP3   OH225747   3.317   3.525  11.458
 1419TIP3    H125748   3.235   3.477  11.448
 1419TIP3    H225749   3.309   3.598  11.396
 1420TIP3   OH225750   2.074   2.298  11.376
 1420TIP3    H125751   1.989   2.343  11.375
 1420TIP3    H225752   2.052   2.205  11.383
 1421TIP3   OH225753   2.097   3.481  11.272
 1421TIP3    H125754   2.133   3.407  11.322
 1421TIP3    H225755   2.122   3.558  11.324
 1422TIP3   OH225756   2.676   3.297  10.238
 1422TIP3    H125757   2.586   3.289  10.271
 1422TIP3    H225758   2.669   3.361  10.166
 1423TIP3   OH225759   3.003   2.250  11.326
 1423TIP3    H125760   3.077   2.269  11.383
 1423TIP3    H225761   2.970   2.166  11.357
 1424TIP3   OH225762   2.872   3.477  10.335
 1424TIP3    H125763   2.806   3.412  10.310
 1424TIP3    H225764   2.946   3.461  10.276
 1425TIP3   OH225765   2.796   2.464  10.563
 1425TIP3    H125766   2.836   2.427  10.485
 1425TIP3    H225767   2.792   2.390  10.624
 1426TIP3   OH225768   2.868   2.496  11.381
 1426TIP3    H125769   2.872   2.518  11.474
 1426TIP3    H225770   2.907   2.409  11.374
 1427TIP3   OH225771   2.870   2.062  10.603
 1427TIP3    H125772   2.826   2.133  10.651
 1427TIP3    H225773   2.943   2.105  10.558
 1428TIP3   OH225774   2.444   3.484  10.289
 1428TIP3    H125775   2.511   3.506  10.225
 1428TIP3    H225776   2.476   3.522  10.371
 1429TIP3   OH225777   2.436   2.241  10.309
 1429TIP3    H125778   2.463   2.323  10.351
 1429TIP3    H225779   2.499   2.228  10.239
 1430TIP3   OH225780   3.445   2.269  11.497
 1430TIP3    H125781   3.353   2.296  11.491
 1430TIP3    H225782   3.463   2.225  11.415
 1431TIP3   OH225783   3.332   2.655  10.890
 1431TIP3    H125784   3.245   2.620  10.870
 1431TIP3    H225785   3.372   2.588  10.947
 1432TIP3   OH225786   2.027   2.572  10.086
 1432TIP3    H125787   2.059   2.661  10.093
 1432TIP3    H225788   1.933   2.578  10.106
 1433TIP3   OH225789   3.449   3.601  11.061
 1433TIP3    H125790   3.427   3.672  11.002
 1433TIP3    H225791   3.544   3.605  11.069
 1434TIP3   OH225792   2.183   1.993  10.927
 1434TIP3    H125793   2.173   1.988  10.832
 1434TIP3    H225794   2.145   1.912  10.960
 1435TIP3   OH225795   2.122   3.394  10.581
 1435TIP3    H125796   2.063   3.322  10.606
 1435TIP3    H225797   2.068   3.451  10.526
 1436TIP3   OH225798   2.056   3.670  11.740
 1436TIP3    H125799   2.119   3.661  11.812
 1436TIP3    H225800   2.058   3.585  11.695
 1437TIP3   OH225801   2.463   3.489  11.860
 1437TIP3    H125802   2.545   3.444  11.880
 1437TIP3    H225803   2.443   3.466  11.769
 1438TIP3   OH225804   3.100   3.368  11.782
 1438TIP3    H125805   3.094   3.284  11.827
 1438TIP3    H225806   3.177   3.410  11.818
 1439TIP3   OH225807   1.994   3.058  11.794
 1439TIP3    H125808   2.000   2.963  11.792
 1439TIP3    H225809   1.924   3.080  11.732
 1440TIP3   OH225810   2.658   3.052  11.751
 1440TIP3    H125811   2.645   3.096  11.668
 1440TIP3    H225812   2.684   2.963  11.728
 1441TIP3   OH225813   3.229   3.085  11.518
 1441TIP3    H125814   3.319   3.105  11.491
 1441TIP3    H225815   3.182   3.167  11.504
 1442TIP3   OH225816   2.072   2.795  11.776
 1442TIP3    H125817   2.143   2.775  11.715
 1442TIP3    H225818   2.112   2.786  11.863
 1443TIP3   OH225819   2.493   2.671  11.519
 1443TIP3    H125820   2.408   2.715  11.513
 1443TIP3    H225821   2.547   2.714  11.453
 1444TIP3   OH225822   3.001   2.912  11.792
 1444TIP3    H125823   3.070   2.868  11.742
 1444TIP3    H225824   2.960   2.842  11.843
 1445TIP3   OH225825   2.553   2.405  11.561
 1445TIP3    H125826   2.556   2.352  11.482
 1445TIP3    H225827   2.539   2.494  11.530
 1446TIP3   OH225828   2.566   2.251  11.327
 1446TIP3    H125829   2.619   2.295  11.259
 1446TIP3    H225830   2.478   2.248  11.290
 1447TIP3   OH225831   2.670   2.800  11.360
 1447TIP3    H125832   2.763   2.823  11.367
 1447TIP3    H225833   2.634   2.866  11.301
 1448TIP3   OH225834   3.120   2.579  11.818
 1448TIP3    H125835   3.126   2.488  11.789
 1448TIP3    H225836   3.211   2.604  11.837
 1449TIP3   OH225837   3.264   2.853  11.654
 1449TIP3    H125838   3.236   2.934  11.611
 1449TIP3    H225839   3.360   2.854  11.648
 1450TIP3   OH225840   2.369   2.441  11.768
 1450TIP3    H125841   2.295   2.385  11.745
 1450TIP3    H225842   2.422   2.445  11.688
 1451TIP3   OH225843   2.621   1.991  11.412
 1451TIP3    H125844   2.603   2.081  11.385
 1451TIP3    H225845   2.555   1.939  11.367
 1452TIP3   OH225846   2.767   2.362  11.732
 1452TIP3    H125847   2.722   2.336  11.812
 1452TIP3    H225848   2.698   2.369  11.666
 1453TIP3   OH225849   3.048   2.334  11.706
 1453TIP3    H125850   2.954   2.322  11.721
 1453TIP3    H225851   3.090   2.268  11.762
 1454TIP3   OH225852   3.206   2.181  11.874
 1454TIP3    H125853   3.201   2.087  11.853
 1454TIP3    H225854   3.179   2.187  11.965
 1455TIP3   OH225855   2.174   2.248  11.742
 1455TIP3    H125856   2.169   2.175  11.680
 1455TIP3    H225857   2.187   2.207  11.827
 1456TIP3   OH225858   2.605   1.898  11.671
 1456TIP3    H125859   2.660   1.820  11.662
 1456TIP3    H225860   2.602   1.936  11.583
 1457TIP3   OH225861   2.687   2.050  11.885
 1457TIP3    H125862   2.665   1.997  11.808
 1457TIP3    H225863   2.631   2.128  11.877
 1458TIP3   OH225864   1.834   3.717  10.653
 1458TIP3    H125865   1.853   3.687  10.565
 1458TIP3    H225866   1.868   3.648  10.710
 1459TIP3   OH225867   1.926   3.529  10.834
 1459TIP3    H125868   1.905   3.443  10.869
 1459TIP3    H225869   1.996   3.562  10.890
 1460TIP3   OH225870   3.716   3.613  11.123
 1460TIP3    H125871   3.722   3.626  11.217
 1460TIP3    H225872   3.794   3.656  11.087
 1461TIP3   OH225873   3.662   3.585  11.404
 1461TIP3    H125874   3.610   3.514  11.368
 1461TIP3    H225875   3.716   3.545  11.472
 1462TIP3   OH225876   3.536   3.162  11.899
 1462TIP3    H125877   3.452   3.176  11.943
 1462TIP3    H225878   3.590   3.235  11.928
 1463TIP3   OH225879   3.691   2.989  10.390
 1463TIP3    H125880   3.748   3.065  10.376
 1463TIP3    H225881   3.735   2.939  10.459
 1464TIP3   OH225882   3.726   2.812  10.647
 1464TIP3    H125883   3.651   2.753  10.648
 1464TIP3    H225884   3.690   2.897  10.670
 1465TIP3   OH225885   3.707   3.094  11.128
 1465TIP3    H125886   3.758   3.039  11.068
 1465TIP3    H225887   3.726   3.183  11.101
 1466TIP3   OH225888   3.502   3.366  11.326
 1466TIP3    H125889   3.429   3.415  11.364
 1466TIP3    H225890   3.476   3.352  11.235
 1467TIP3   OH225891   3.623   2.801  10.197
 1467TIP3    H125892   3.564   2.831  10.127
 1467TIP3    H225893   3.637   2.879  10.251
 1468TIP3   OH225894   3.504   2.657  10.663
 1468TIP3    H125895   3.472   2.590  10.603
 1468TIP3    H225896   3.440   2.660  10.734
 1469TIP3   OH225897   1.944   2.828  11.061
 1469TIP3    H125898   1.967   2.833  10.968
 1469TIP3    H225899   2.028   2.812  11.105
 1470TIP3   OH225900   3.539   2.866  11.622
 1470TIP3    H125901   3.604   2.798  11.603
 1470TIP3    H225902   3.555   2.933  11.556
 1471TIP3   OH225903   3.693   2.630  11.616
 1471TIP3    H125904   3.605   2.596  11.628
 1471TIP3    H225905   3.751   2.559  11.643
 1472TIP3   OH225906   3.446   2.446  10.479
 1472TIP3    H125907   3.460   2.351  10.484
 1472TIP3    H225908   3.515   2.476  10.420
 1473TIP3   OH225909   3.477   2.462  11.049
 1473TIP3    H125910   3.568   2.480  11.025
 1473TIP3    H225911   3.471   2.485  11.141
 1474TIP3   OH225912   3.508   2.560  11.315
 1474TIP3    H125913   3.427   2.591  11.355
 1474TIP3    H225914   3.559   2.639  11.298
 1475TIP3   OH225915   1.946   2.397  11.736
 1475TIP3    H125916   2.031   2.353  11.725
 1475TIP3    H225917   1.882   2.333  11.706
 1476TIP3   OH225918   3.743   1.972  11.837
 1476TIP3    H125919   3.810   1.915  11.799
 1476TIP3    H225920   3.732   2.042  11.773
 1477TIP3   OH225921   3.436   2.175  10.554
 1477TIP3    H125922   3.499   2.134  10.613
 1477TIP3    H225923   3.350   2.149  10.589
 1478TIP3   OH225924   2.055   2.236  10.972
 1478TIP3    H125925   2.095   2.150  10.963
 1478TIP3    H225926   2.129   2.297  10.976
 1479TIP3   OH225927   1.866   2.549  11.033
 1479TIP3    H125928   1.934   2.524  10.972
 1479TIP3    H225929   1.882   2.642  11.052
 1480TIP3   OH225930   3.666   2.155  11.650
 1480TIP3    H125931   3.587   2.200  11.680
 1480TIP3    H225932   3.639   2.109  11.570
 1481TIP3   OH225933   1.906   2.196  10.477
 1481TIP3    H125934   1.811   2.185  10.485
 1481TIP3    H225935   1.917   2.265  10.412
 1482TIP3   OH225936   3.410   3.647  10.694
 1482TIP3    H125937   3.446   3.621  10.609
 1482TIP3    H225938   3.443   3.736  10.708
 1483TIP3   OH225939   1.927   2.043  11.329
 1483TIP3    H125940   1.850   2.010  11.374
 1483TIP3    H225941   1.892   2.093  11.255
 1484TIP3   OH225942   2.136   3.395  11.709
 1484TIP3    H125943   2.045   3.378  11.685
 1484TIP3    H225944   2.142   3.366  11.800
 1485TIP3   OH225945   2.454   3.484  11.347
 1485TIP3    H125946   2.425   3.572  11.321
 1485TIP3    H225947   2.547   3.482  11.325
 1486TIP3   OH225948   2.815   3.598  11.624
 1486TIP3    H125949   2.830   3.570  11.714
 1486TIP3    H225950   2.893   3.648  11.601
 1487TIP3   OH225951   3.049   3.735  11.574
 1487TIP3    H125952   3.105   3.690  11.511
 1487TIP3    H225953   3.107   3.755  11.647
 1488TIP3   OH225954   3.577   1.952  11.463
 1488TIP3    H125955   3.508   1.975  11.401
 1488TIP3    H225956   3.596   1.860  11.445
 1489TIP3   OH225957   2.140   3.754  11.372
 1489TIP3    H125958   2.063   3.795  11.333
 1489TIP3    H225959   2.158   3.805  11.451
 1490TIP3   OH225960   2.403   3.745  11.277
 1490TIP3    H125961   2.311   3.755  11.301
 1490TIP3    H225962   2.411   3.787  11.192
 1491TIP3   OH225963   2.852   3.720  11.188
 1491TIP3    H125964   2.810   3.755  11.108
 1491TIP3    H225965   2.867   3.798  11.242
 1492TIP3   OH225966   3.083   3.595  11.280
 1492TIP3    H125967   3.005   3.630  11.236
 1492TIP3    H225968   3.154   3.649  11.247
 1493TIP3   OH225969   3.332   3.736  11.270
 1493TIP3    H125970   3.345   3.828  11.246
 1493TIP3    H225971   3.370   3.687  11.197
 1494TIP3   OH225972   2.099   3.625  11.032
 1494TIP3    H125973   2.098   3.581  11.117
 1494TIP3    H225974   2.182   3.597  10.992
 1495TIP3   OH225975   2.329   3.522  10.934
 1495TIP3    H125976   2.319   3.429  10.954
 1495TIP3    H225977   2.419   3.542  10.959
 1496TIP3   OH225978   2.594   3.536  11.021
 1496TIP3    H125979   2.604   3.450  10.981
 1496TIP3    H225980   2.630   3.526  11.109
 1497TIP3   OH225981   2.924   2.088  10.928
 1497TIP3    H125982   2.856   2.022  10.940
 1497TIP3    H225983   2.988   2.046  10.871
 1498TIP3   OH225984   3.417   1.953  10.899
 1498TIP3    H125985   3.481   2.011  10.858
 1498TIP3    H225986   3.333   1.995  10.884
 1499TIP3   OH225987   3.617   2.047  10.720
 1499TIP3    H125988   3.673   1.976  10.689
 1499TIP3    H225989   3.675   2.122  10.730
 1500TIP3   OH225990   2.140   1.962  10.654
 1500TIP3    H125991   2.049   1.947  10.630
 1500TIP3    H225992   2.182   1.877  10.642
 1501TIP3   OH225993   1.963   2.034  10.248
 1501TIP3    H125994   2.056   2.048  10.230
 1501TIP3    H225995   1.952   2.063  10.339
 1502TIP3   OH225996   2.648   1.918  10.696
 1502TIP3    H125997   2.717   1.968  10.652
 1502TIP3    H225998   2.667   1.930  10.790
 1503TIP3   OH225999   3.140   1.954  10.798
 1503TIP3    H126000   3.144   1.920  10.708
 1503TIP3    H226001   3.122   1.877  10.851
 1504TIP3   OH226002   1.950   3.548  10.436
 1504TIP3    H126003   1.869   3.509  10.404
 1504TIP3    H226004   1.979   3.606  10.365
 1505TIP3   OH226005   2.229   2.093  10.188
 1505TIP3    H126006   2.283   2.030  10.140
 1505TIP3    H226007   2.291   2.152  10.230
 1506TIP3   OH226008   3.556   3.615  10.462
 1506TIP3    H126009   3.543   3.541  10.403
 1506TIP3    H226010   3.504   3.686  10.423
 1507TIP3   OH226011   2.170   1.992  11.627
 1507TIP3    H126012   2.110   1.923  11.657
 1507TIP3    H226013   2.249   1.979  11.680
 1508TIP3   OH226014   2.366   1.945  11.817
 1508TIP3    H126015   2.448   1.921  11.773
 1508TIP3    H226016   2.333   1.864  11.854
 1509TIP3   OH226017   3.220   1.913  11.802
 1509TIP3    H126018   3.210   1.864  11.884
 1509TIP3    H226019   3.312   1.904  11.779
 1510TIP3   OH226020   3.488   3.507  11.679
 1510TIP3    H126021   3.430   3.499  11.604
 1510TIP3    H226022   3.487   3.600  11.701
 1511TIP3   OH226023   4.930   2.927  10.592
 1511TIP3    H126024   4.917   3.021  10.577
 1511TIP3    H226025   4.869   2.906  10.663
 1512TIP3   OH226026   4.795   2.801  11.040
 1512TIP3    H126027   4.839   2.792  11.124
 1512TIP3    H226028   4.831   2.730  10.986
 1513TIP3   OH226029   4.072   2.766  11.210
 1513TIP3    H126030   4.069   2.679  11.251
 1513TIP3    H226031   4.107   2.823  11.278
 1514TIP3   OH226032   5.218   3.148  10.866
 1514TIP3    H126033   5.222   3.067  10.916
 1514TIP3    H226034   5.247   3.216  10.927
 1515TIP3   OH226035   4.209   3.224  10.990
 1515TIP3    H126036   4.184   3.134  10.969
 1515TIP3    H226037   4.305   3.222  10.995
 1516TIP3   OH226038   3.813   2.541  10.544
 1516TIP3    H126039   3.792   2.629  10.575
 1516TIP3    H226040   3.762   2.531  10.464
 1517TIP3   OH226041   3.949   2.815  10.818
 1517TIP3    H126042   3.964   2.722  10.833
 1517TIP3    H226043   3.886   2.819  10.746
 1518TIP3   OH226044   4.969   3.622  10.905
 1518TIP3    H126045   5.010   3.562  10.842
 1518TIP3    H226046   4.892   3.575  10.937
 1519TIP3   OH226047   4.701   3.070  11.069
 1519TIP3    H126048   4.739   2.991  11.032
 1519TIP3    H226049   4.767   3.102  11.131
 1520TIP3   OH226050   5.585   2.210  11.159
 1520TIP3    H126051   5.596   2.283  11.220
 1520TIP3    H226052   5.646   2.229  11.088
 1521TIP3   OH226053   4.993   2.503  11.065
 1521TIP3    H126054   5.009   2.410  11.085
 1521TIP3    H226055   4.979   2.504  10.970
 1522TIP3   OH226056   4.349   2.314  10.792
 1522TIP3    H126057   4.342   2.398  10.746
 1522TIP3    H226058   4.294   2.254  10.742
 1523TIP3   OH226059   5.151   2.344  10.672
 1523TIP3    H126060   5.193   2.304  10.748
 1523TIP3    H226061   5.223   2.374  10.617
 1524TIP3   OH226062   3.981   2.547  10.879
 1524TIP3    H126063   4.049   2.508  10.934
 1524TIP3    H226064   4.000   2.514  10.791
 1525TIP3   OH226065   4.493   2.669  10.822
 1525TIP3    H126066   4.564   2.606  10.816
 1525TIP3    H226067   4.422   2.631  10.771
 1526TIP3   OH226068   5.607   2.381  11.382
 1526TIP3    H126069   5.547   2.452  11.359
 1526TIP3    H226070   5.632   2.400  11.472
 1527TIP3   OH226071   4.205   2.224  11.218
 1527TIP3    H126072   4.185   2.284  11.146
 1527TIP3    H226073   4.130   2.233  11.277
 1528TIP3   OH226074   4.884   3.202  10.548
 1528TIP3    H126075   4.827   3.221  10.474
 1528TIP3    H226076   4.867   3.274  10.609
 1529TIP3   OH226077   4.475   3.022  11.230
 1529TIP3    H126078   4.418   3.091  11.262
 1529TIP3    H226079   4.540   3.067  11.176
 1530TIP3   OH226080   5.234   2.261  10.921
 1530TIP3    H126081   5.160   2.250  10.980
 1530TIP3    H226082   5.289   2.327  10.963
 1531TIP3   OH226083   4.184   2.396  11.003
 1531TIP3    H126084   4.238   2.460  11.050
 1531TIP3    H226085   4.242   2.362  10.934
 1532TIP3   OH226086   4.312   3.217  11.327
 1532TIP3    H126087   4.322   3.312  11.316
 1532TIP3    H226088   4.219   3.205  11.347
 1533TIP3   OH226089   3.887   3.186  10.361
 1533TIP3    H126090   3.913   3.211  10.273
 1533TIP3    H226091   3.903   3.264  10.414
 1534TIP3   OH226092   5.265   3.352  11.068
 1534TIP3    H126093   5.171   3.347  11.089
 1534TIP3    H226094   5.280   3.445  11.050
 1535TIP3   OH226095   5.341   2.090  11.237
 1535TIP3    H126096   5.274   2.147  11.202
 1535TIP3    H226097   5.423   2.123  11.200
 1536TIP3   OH226098   4.562   1.917  10.979
 1536TIP3    H126099   4.538   1.825  10.978
 1536TIP3    H226100   4.481   1.963  11.003
 1537TIP3   OH226101   5.103   3.488  10.687
 1537TIP3    H126102   5.131   3.399  10.664
 1537TIP3    H226103   5.184   3.533  10.712
 1538TIP3   OH226104   5.168   3.233  10.607
 1538TIP3    H126105   5.077   3.206  10.591
 1538TIP3    H226106   5.190   3.195  10.692
 1539TIP3   OH226107   5.372   3.125  11.447
 1539TIP3    H126108   5.378   3.069  11.370
 1539TIP3    H226109   5.391   3.213  11.415
 1540TIP3   OH226110   5.539   2.775  11.270
 1540TIP3    H126111   5.475   2.846  11.269
 1540TIP3    H226112   5.595   2.792  11.194
 1541TIP3   OH226113   5.197   2.872  10.459
 1541TIP3    H126114   5.126   2.905  10.514
 1541TIP3    H226115   5.246   2.813  10.516
 1542TIP3   OH226116   5.140   2.650  11.457
 1542TIP3    H126117   5.139   2.724  11.518
 1542TIP3    H226118   5.079   2.675  11.388
 1543TIP3   OH226119   4.353   2.902  10.706
 1543TIP3    H126120   4.307   2.885  10.624
 1543TIP3    H226121   4.396   2.819  10.727
 1544TIP3   OH226122   4.487   3.229  10.961
 1544TIP3    H126123   4.484   3.245  10.867
 1544TIP3    H226124   4.570   3.182  10.975
 1545TIP3   OH226125   4.356   2.830  11.077
 1545TIP3    H126126   4.284   2.864  11.022
 1545TIP3    H226127   4.379   2.904  11.133
 1546TIP3   OH226128   5.008   3.336  11.158
 1546TIP3    H126129   4.986   3.416  11.206
 1546TIP3    H226130   4.958   3.267  11.201
 1547TIP3   OH226131   4.471   3.222  11.552
 1547TIP3    H126132   4.417   3.284  11.600
 1547TIP3    H226133   4.422   3.204  11.472
 1548TIP3   OH226134   5.098   2.738  10.235
 1548TIP3    H126135   5.134   2.784  10.311
 1548TIP3    H226136   5.126   2.791  10.160
 1549TIP3   OH226137   4.139   2.816  11.489
 1549TIP3    H126138   4.149   2.895  11.540
 1549TIP3    H226139   4.044   2.804  11.481
 1550TIP3   OH226140   4.832   3.453  10.646
 1550TIP3    H126141   4.922   3.480  10.663
 1550TIP3    H226142   4.795   3.524  10.593
 1551TIP3   OH226143   4.293   3.414  11.634
 1551TIP3    H126144   4.296   3.451  11.545
 1551TIP3    H226145   4.200   3.401  11.651
 1552TIP3   OH226146   5.374   2.006  10.290
 1552TIP3    H126147   5.280   1.990  10.298
 1552TIP3    H226148   5.381   2.078  10.227
 1553TIP3   OH226149   4.224   2.853  10.470
 1553TIP3    H126150   4.196   2.928  10.417
 1553TIP3    H226151   4.203   2.777  10.417
 1554TIP3   OH226152   3.838   3.054  11.372
 1554TIP3    H126153   3.789   3.065  11.290
 1554TIP3    H226154   3.847   2.959  11.381
 1555TIP3   OH226155   3.800   3.350  11.068
 1555TIP3    H126156   3.882   3.367  11.113
 1555TIP3    H226157   3.748   3.430  11.082
 1556TIP3   OH226158   5.623   3.457  11.636
 1556TIP3    H126159   5.634   3.362  11.634
 1556TIP3    H226160   5.533   3.470  11.666
 1557TIP3   OH226161   4.704   3.356  11.496
 1557TIP3    H126162   4.699   3.440  11.541
 1557TIP3    H226163   4.621   3.313  11.515
 1558TIP3   OH226164   4.806   3.680  10.480
 1558TIP3    H126165   4.777   3.685  10.389
 1558TIP3    H226166   4.792   3.769  10.513
 1559TIP3   OH226167   4.135   3.586  10.660
 1559TIP3    H126168   4.149   3.547  10.746
 1559TIP3    H226169   4.082   3.522  10.613
 1560TIP3   OH226170   5.082   3.612  10.162
 1560TIP3    H126171   5.153   3.662  10.121
 1560TIP3    H226172   5.098   3.622  10.256
 1561TIP3   OH226173   5.075   3.634  10.446
 1561TIP3    H126174   4.981   3.651  10.447
 1561TIP3    H226175   5.092   3.582  10.524
 1562TIP3   OH226176   5.314   2.539  11.671
 1562TIP3    H126177   5.255   2.573  11.604
 1562TIP3    H226178   5.326   2.447  11.648
 1563TIP3   OH226179   4.056   3.216  11.425
 1563TIP3    H126180   4.074   3.190  11.515
 1563TIP3    H226181   3.979   3.164  11.400
 1564TIP3   OH226182   4.311   2.023  11.055
 1564TIP3    H126183   4.236   2.013  10.996
 1564TIP3    H226184   4.287   2.096  11.112
 1565TIP3   OH226185   4.792   2.006  11.408
 1565TIP3    H126186   4.839   1.957  11.475
 1565TIP3    H226187   4.699   1.994  11.430
 1566TIP3   OH226188   5.084   2.374  11.466
 1566TIP3    H126189   5.029   2.359  11.543
 1566TIP3    H226190   5.094   2.469  11.462
 1567TIP3   OH226191   5.188   2.923  10.040
 1567TIP3    H126192   5.112   2.925   9.982
 1567TIP3    H226193   5.249   2.986  10.002
 1568TIP3   OH226194   4.322   2.572  11.174
 1568TIP3    H126195   4.256   2.560  11.242
 1568TIP3    H226196   4.310   2.663  11.145
 1569TIP3   OH226197   4.309   2.552  10.663
 1569TIP3    H126198   4.215   2.537  10.650
 1569TIP3    H226199   4.346   2.550  10.575
 1570TIP3   OH226200   4.895   2.611  10.547
 1570TIP3    H126201   4.914   2.704  10.536
 1570TIP3    H226202   4.956   2.568  10.487
 1571TIP3   OH226203   4.790   2.587  11.653
 1571TIP3    H126204   4.742   2.514  11.693
 1571TIP3    H226205   4.875   2.587  11.697
 1572TIP3   OH226206   4.969   2.509  10.794
 1572TIP3    H126207   4.931   2.553  10.718
 1572TIP3    H226208   5.025   2.441  10.756
 1573TIP3   OH226209   4.119   2.533  11.357
 1573TIP3    H126210   4.109   2.577  11.441
 1573TIP3    H226211   4.076   2.448  11.368
 1574TIP3   OH226212   3.789   2.258  10.737
 1574TIP3    H126213   3.833   2.270  10.820
 1574TIP3    H226214   3.783   2.346  10.699
 1575TIP3   OH226215   4.926   2.676  11.261
 1575TIP3    H126216   4.961   2.618  11.193
 1575TIP3    H226217   4.863   2.623  11.309
 1576TIP3   OH226218   4.635   2.298  10.758
 1576TIP3    H126219   4.541   2.294  10.777
 1576TIP3    H226220   4.676   2.242  10.823
 1577TIP3   OH226221   4.055   2.448  10.636
 1577TIP3    H126222   3.977   2.471  10.586
 1577TIP3    H226223   4.073   2.357  10.613
 1578TIP3   OH226224   4.429   2.522  10.423
 1578TIP3    H126225   4.516   2.483  10.431
 1578TIP3    H226226   4.414   2.530  10.329
 1579TIP3   OH226227   5.010   2.226  11.081
 1579TIP3    H126228   4.961   2.228  11.163
 1579TIP3    H226229   4.957   2.171  11.023
 1580TIP3   OH226230   4.389   2.546  10.151
 1580TIP3    H126231   4.316   2.491  10.120
 1580TIP3    H226232   4.416   2.595  10.073
 1581TIP3   OH226233   5.377   3.783  11.727
 1581TIP3    H126234   5.401   3.810  11.638
 1581TIP3    H226235   5.454   3.804  11.780
 1582TIP3   OH226236   4.130   3.030  11.664
 1582TIP3    H126237   4.198   3.031  11.732
 1582TIP3    H226238   4.050   3.054  11.711
 1583TIP3   OH226239   4.695   2.537  10.962
 1583TIP3    H126240   4.756   2.481  10.913
 1583TIP3    H226241   4.664   2.481  11.034
 1584TIP3   OH226242   4.170   2.183  10.618
 1584TIP3    H126243   4.114   2.108  10.636
 1584TIP3    H226244   4.217   2.160  10.538
 1585TIP3   OH226245   4.568   2.448  11.190
 1585TIP3    H126246   4.485   2.494  11.200
 1585TIP3    H226247   4.621   2.479  11.263
 1586TIP3   OH226248   5.360   2.976  11.217
 1586TIP3    H126249   5.425   3.026  11.168
 1586TIP3    H226250   5.293   2.953  11.152
 1587TIP3   OH226251   4.766   3.053  11.511
 1587TIP3    H126252   4.798   3.019  11.595
 1587TIP3    H226253   4.742   3.143  11.529
 1588TIP3   OH226254   5.076   2.493  10.375
 1588TIP3    H126255   5.165   2.465  10.397
 1588TIP3    H226256   5.088   2.558  10.305
 1589TIP3   OH226257   4.175   2.955  10.909
 1589TIP3    H126258   4.233   2.951  10.833
 1589TIP3    H226259   4.092   2.918  10.878
 1590TIP3   OH226260   3.863   2.779  11.452
 1590TIP3    H126261   3.828   2.737  11.530
 1590TIP3    H226262   3.797   2.763  11.384
 1591TIP3   OH226263   4.579   2.770  11.674
 1591TIP3    H126264   4.515   2.735  11.611
 1591TIP3    H226265   4.658   2.718  11.658
 1592TIP3   OH226266   4.980   3.324  11.495
 1592TIP3    H126267   4.887   3.336  11.479
 1592TIP3    H226268   4.992   3.344  11.588
 1593TIP3   OH226269   5.527   2.490  10.268
 1593TIP3    H126270   5.495   2.410  10.227
 1593TIP3    H226271   5.581   2.532  10.201
 1594TIP3   OH226272   5.601   3.179  11.626
 1594TIP3    H126273   5.505   3.169  11.626
 1594TIP3    H226274   5.629   3.140  11.544
 1595TIP3   OH226275   5.381   3.445  10.368
 1595TIP3    H126276   5.330   3.395  10.432
 1595TIP3    H226277   5.382   3.390  10.290
 1596TIP3   OH226278   5.185   2.903  11.013
 1596TIP3    H126279   5.090   2.902  11.024
 1596TIP3    H226280   5.205   2.822  10.966
 1597TIP3   OH226281   4.435   3.299  10.696
 1597TIP3    H126282   4.451   3.392  10.679
 1597TIP3    H226283   4.346   3.284  10.667
 1598TIP3   OH226284   4.578   3.058  10.656
 1598TIP3    H126285   4.550   3.150  10.656
 1598TIP3    H226286   4.498   3.009  10.673
 1599TIP3   OH226287   4.602   3.493  11.267
 1599TIP3    H126288   4.654   3.570  11.246
 1599TIP3    H226289   4.656   3.443  11.328
 1600TIP3   OH226290   4.413   3.570  10.632
 1600TIP3    H126291   4.319   3.588  10.628
 1600TIP3    H226292   4.451   3.650  10.668
 1601TIP3   OH226293   4.896   3.089  11.270
 1601TIP3    H126294   4.841   3.075  11.346
 1601TIP3    H226295   4.985   3.072  11.300
 1602TIP3   OH226296   5.229   3.225  10.196
 1602TIP3    H126297   5.160   3.289  10.176
 1602TIP3    H226298   5.263   3.200  10.111
 1603TIP3   OH226299   5.192   3.539  11.459
 1603TIP3    H126300   5.109   3.501  11.431
 1603TIP3    H226301   5.202   3.617  11.404
 1604TIP3   OH226302   3.991   2.285  11.386
 1604TIP3    H126303   3.902   2.317  11.372
 1604TIP3    H226304   3.982   2.216  11.451
 1605TIP3   OH226305   3.991   3.488  11.258
 1605TIP3    H126306   4.026   3.417  11.312
 1605TIP3    H226307   4.008   3.567  11.309
 1606TIP3   OH226308   4.447   3.196  10.315
 1606TIP3    H126309   4.353   3.182  10.311
 1606TIP3    H226310   4.456   3.288  10.340
 1607TIP3   OH226311   4.125   3.060  10.307
 1607TIP3    H126312   4.046   3.082  10.356
 1607TIP3    H226313   4.119   3.111  10.227
 1608TIP3   OH226314   4.880   2.254  11.324
 1608TIP3    H126315   4.957   2.274  11.377
 1608TIP3    H226316   4.849   2.169  11.358
 1609TIP3   OH226317   4.990   2.217  10.489
 1609TIP3    H126318   4.984   2.282  10.419
 1609TIP3    H226319   5.041   2.260  10.557
 1610TIP3   OH226320   4.720   3.380  10.288
 1610TIP3    H126321   4.634   3.405  10.323
 1610TIP3    H226322   4.759   3.463  10.260
 1611TIP3   OH226323   4.681   2.425  10.512
 1611TIP3    H126324   4.750   2.490  10.524
 1611TIP3    H226325   4.666   2.390  10.600
 1612TIP3   OH226326   4.754   2.502  11.388
 1612TIP3    H126327   4.766   2.521  11.481
 1612TIP3    H226328   4.791   2.414  11.377
 1613TIP3   OH226329   4.747   2.101  10.581
 1613TIP3    H126330   4.716   2.174  10.634
 1613TIP3    H226331   4.832   2.131  10.546
 1614TIP3   OH226332   4.465   3.464  10.382
 1614TIP3    H126333   4.393   3.502  10.333
 1614TIP3    H226334   4.459   3.505  10.469
 1615TIP3   OH226335   5.344   2.303  11.522
 1615TIP3    H126336   5.253   2.308  11.492
 1615TIP3    H226337   5.397   2.314  11.443
 1616TIP3   OH226338   5.214   2.649  10.887
 1616TIP3    H126339   5.134   2.599  10.872
 1616TIP3    H226340   5.266   2.594  10.945
 1617TIP3   OH226341   5.336   3.630  11.067
 1617TIP3    H126342   5.317   3.691  10.996
 1617TIP3    H226343   5.432   3.631  11.075
 1618TIP3   OH226344   4.061   2.002  10.931
 1618TIP3    H126345   4.047   1.990  10.837
 1618TIP3    H226346   4.031   1.920  10.970
 1619TIP3   OH226347   3.944   3.415  10.536
 1619TIP3    H126348   3.881   3.450  10.598
 1619TIP3    H226349   3.926   3.463  10.454
 1620TIP3   OH226350   3.910   3.677  11.707
 1620TIP3    H126351   3.964   3.646  11.779
 1620TIP3    H226352   3.870   3.598  11.671
 1621TIP3   OH226353   4.309   3.571  11.875
 1621TIP3    H126354   4.392   3.593  11.919
 1621TIP3    H226355   4.335   3.514  11.803
 1622TIP3   OH226356   4.996   3.364  11.767
 1622TIP3    H126357   4.987   3.281  11.814
 1622TIP3    H226358   5.069   3.409  11.810
 1623TIP3   OH226359   3.883   3.052  11.794
 1623TIP3    H126360   3.876   2.957  11.784
 1623TIP3    H226361   3.817   3.088  11.735
 1624TIP3   OH226362   4.546   3.040  11.744
 1624TIP3    H126363   4.529   3.090  11.665
 1624TIP3    H226364   4.571   2.953  11.713
 1625TIP3   OH226365   5.103   3.077  11.473
 1625TIP3    H126366   5.196   3.098  11.465
 1625TIP3    H226367   5.059   3.162  11.482
 1626TIP3   OH226368   3.965   2.775  11.776
 1626TIP3    H126369   4.055   2.785  11.746
 1626TIP3    H226370   3.971   2.778  11.871
 1627TIP3   OH226371   4.397   2.682  11.474
 1627TIP3    H126372   4.314   2.730  11.477
 1627TIP3    H226373   4.440   2.714  11.394
 1628TIP3   OH226374   4.886   2.921  11.764
 1628TIP3    H126375   4.966   2.885  11.724
 1628TIP3    H226376   4.857   2.853  11.825
 1629TIP3   OH226377   4.422   2.421  11.572
 1629TIP3    H126378   4.427   2.359  11.499
 1629TIP3    H226379   4.415   2.506  11.530
 1630TIP3   OH226380   4.445   2.249  11.348
 1630TIP3    H126381   4.500   2.294  11.283
 1630TIP3    H226382   4.360   2.239  11.305
 1631TIP3   OH226383   4.587   2.776  11.271
 1631TIP3    H126384   4.663   2.777  11.330
 1631TIP3    H226385   4.555   2.867  11.274
 1632TIP3   OH226386   5.025   2.564  11.814
 1632TIP3    H126387   5.052   2.473  11.806
 1632TIP3    H226388   5.106   2.611  11.836
 1633TIP3   OH226389   5.156   2.865  11.640
 1633TIP3    H126390   5.126   2.939  11.587
 1633TIP3    H226391   5.251   2.869  11.635
 1634TIP3   OH226392   4.256   2.455  11.795
 1634TIP3    H126393   4.176   2.405  11.780
 1634TIP3    H226394   4.304   2.449  11.712
 1635TIP3   OH226395   4.512   1.986  11.412
 1635TIP3    H126396   4.490   2.078  11.394
 1635TIP3    H226397   4.444   1.936  11.366
 1636TIP3   OH226398   4.645   2.369  11.737
 1636TIP3    H126399   4.609   2.340  11.821
 1636TIP3    H226400   4.568   2.379  11.680
 1637TIP3   OH226401   4.917   2.311  11.670
 1637TIP3    H126402   4.826   2.312  11.700
 1637TIP3    H226403   4.963   2.262  11.737
 1638TIP3   OH226404   5.085   2.197  11.861
 1638TIP3    H126405   5.083   2.102  11.848
 1638TIP3    H226406   5.059   2.209  11.952
 1639TIP3   OH226407   4.047   2.266  11.761
 1639TIP3    H126408   4.050   2.186  11.708
 1639TIP3    H226409   4.060   2.235  11.851
 1640TIP3   OH226410   4.496   1.893  11.669
 1640TIP3    H126411   4.554   1.818  11.662
 1640TIP3    H226412   4.494   1.930  11.581
 1641TIP3   OH226413   4.579   2.052  11.879
 1641TIP3    H126414   4.554   1.999  11.803
 1641TIP3    H226415   4.519   2.126  11.877
 1642TIP3   OH226416   3.755   3.719  10.625
 1642TIP3    H126417   3.696   3.685  10.558
 1642TIP3    H226418   3.775   3.643  10.680
 1643TIP3   OH226419   3.831   3.511  10.794
 1643TIP3    H126420   3.797   3.436  10.842
 1643TIP3    H226421   3.881   3.560  10.859
 1644TIP3   OH226422   5.605   3.655  11.127
 1644TIP3    H126423   5.603   3.632  11.220
 1644TIP3    H226424   5.698   3.654  11.104
 1645TIP3   OH226425   5.560   3.576  11.394
 1645TIP3    H126426   5.504   3.504  11.362
 1645TIP3    H226427   5.600   3.541  11.474
 1646TIP3   OH226428   5.413   3.164  11.891
 1646TIP3    H126429   5.331   3.177  11.939
 1646TIP3    H226430   5.469   3.235  11.919
 1647TIP3   OH226431   5.584   2.779  10.568
 1647TIP3    H126432   5.498   2.763  10.608
 1647TIP3    H226433   5.642   2.797  10.642
 1648TIP3   OH226434   5.556   3.091  11.073
 1648TIP3    H126435   5.622   3.022  11.063
 1648TIP3    H226436   5.600   3.170  11.042
 1649TIP3   OH226437   5.380   3.375  11.325
 1649TIP3    H126438   5.305   3.421  11.364
 1649TIP3    H226439   5.353   3.357  11.235
 1650TIP3   OH226440   5.318   2.693  10.629
 1650TIP3    H126441   5.331   2.604  10.596
 1650TIP3    H226442   5.292   2.681  10.720
 1651TIP3   OH226443   3.846   2.833  11.072
 1651TIP3    H126444   3.871   2.839  10.980
 1651TIP3    H226445   3.928   2.817  11.118
 1652TIP3   OH226446   5.433   2.872  11.609
 1652TIP3    H126447   5.494   2.801  11.591
 1652TIP3    H226448   5.457   2.941  11.547
 1653TIP3   OH226449   5.571   2.626  11.613
 1653TIP3    H126450   5.483   2.600  11.640
 1653TIP3    H226451   5.627   2.554  11.641
 1654TIP3   OH226452   5.340   2.442  10.479
 1654TIP3    H126453   5.371   2.351  10.487
 1654TIP3    H226454   5.397   2.481  10.413
 1655TIP3   OH226455   5.362   2.474  11.052
 1655TIP3    H126456   5.454   2.489  11.028
 1655TIP3    H226457   5.358   2.493  11.146
 1656TIP3   OH226458   5.388   2.553  11.322
 1656TIP3    H126459   5.310   2.590  11.364
 1656TIP3    H226460   5.443   2.630  11.304
 1657TIP3   OH226461   3.820   2.386  11.653
 1657TIP3    H126462   3.903   2.361  11.694
 1657TIP3    H226463   3.765   2.307  11.661
 1658TIP3   OH226464   5.628   1.962  11.837
 1658TIP3    H126465   5.699   1.910  11.800
 1658TIP3    H226466   5.617   2.035  11.776
 1659TIP3   OH226467   5.423   2.182  10.496
 1659TIP3    H126468   5.440   2.128  10.573
 1659TIP3    H226469   5.413   2.120  10.424
 1660TIP3   OH226470   3.931   2.245  10.983
 1660TIP3    H126471   3.970   2.158  10.970
 1660TIP3    H226472   4.006   2.304  10.992
 1661TIP3   OH226473   3.743   2.545  11.029
 1661TIP3    H126474   3.818   2.531  10.971
 1661TIP3    H226475   3.754   2.634  11.061
 1662TIP3   OH226476   5.550   2.153  11.659
 1662TIP3    H126477   5.472   2.203  11.685
 1662TIP3    H226478   5.523   2.107  11.580
 1663TIP3   OH226479   5.333   3.625  10.726
 1663TIP3    H126480   5.369   3.656  10.643
 1663TIP3    H226481   5.321   3.704  10.778
 1664TIP3   OH226482   3.802   1.992  11.292
 1664TIP3    H126483   3.731   1.983  11.356
 1664TIP3    H226484   3.775   2.065  11.237
 1665TIP3   OH226485   4.026   3.376  11.711
 1665TIP3    H126486   3.937   3.386  11.678
 1665TIP3    H226487   4.021   3.402  11.803
 1666TIP3   OH226488   4.345   3.491  11.366
 1666TIP3    H126489   4.313   3.576  11.338
 1666TIP3    H226490   4.435   3.487  11.334
 1667TIP3   OH226491   4.705   3.599  11.629
 1667TIP3    H126492   4.719   3.566  11.718
 1667TIP3    H226493   4.784   3.650  11.611
 1668TIP3   OH226494   4.943   3.736  11.591
 1668TIP3    H126495   5.009   3.686  11.543
 1668TIP3    H226496   4.989   3.771  11.667
 1669TIP3   OH226497   5.463   1.966  11.464
 1669TIP3    H126498   5.408   1.999  11.394
 1669TIP3    H226499   5.480   1.875  11.440
 1670TIP3   OH226500   4.022   3.755  11.361
 1670TIP3    H126501   3.948   3.804  11.324
 1670TIP3    H226502   4.041   3.800  11.443
 1671TIP3   OH226503   4.291   3.747  11.284
 1671TIP3    H126504   4.197   3.756  11.301
 1671TIP3    H226505   4.304   3.787  11.198
 1672TIP3   OH226506   4.746   3.716  11.195
 1672TIP3    H126507   4.695   3.750  11.121
 1672TIP3    H226508   4.760   3.792  11.251
 1673TIP3   OH226509   4.980   3.590  11.270
 1673TIP3    H126510   4.896   3.628  11.243
 1673TIP3    H226511   5.045   3.652  11.237
 1674TIP3   OH226512   5.239   3.755  11.289
 1674TIP3    H126513   5.240   3.847  11.262
 1674TIP3    H226514   5.273   3.707  11.213
 1675TIP3   OH226515   3.986   3.623  11.014
 1675TIP3    H126516   3.987   3.583  11.101
 1675TIP3    H226517   4.062   3.586  10.969
 1676TIP3   OH226518   4.196   3.487  10.911
 1676TIP3    H126519   4.186   3.395  10.936
 1676TIP3    H226520   4.283   3.512  10.945
 1677TIP3   OH226521   4.443   3.495  11.033
 1677TIP3    H126522   4.465   3.405  11.008
 1677TIP3    H226523   4.497   3.511  11.110
 1678TIP3   OH226524   4.761   2.114  10.921
 1678TIP3    H126525   4.700   2.045  10.947
 1678TIP3    H226526   4.836   2.068  10.885
 1679TIP3   OH226527   5.295   1.934  10.878
 1679TIP3    H126528   5.369   1.979  10.836
 1679TIP3    H226529   5.233   2.004  10.900
 1680TIP3   OH226530   5.492   2.032  10.719
 1680TIP3    H126531   5.556   1.967  10.691
 1680TIP3    H226532   5.544   2.109  10.742
 1681TIP3   OH226533   4.020   1.949  10.658
 1681TIP3    H126534   3.931   1.924  10.635
 1681TIP3    H226535   4.070   1.867  10.655
 1682TIP3   OH226536   4.548   1.927  10.685
 1682TIP3    H126537   4.618   1.977  10.642
 1682TIP3    H226538   4.567   1.935  10.778
 1683TIP3   OH226539   4.989   1.983  10.846
 1683TIP3    H126540   5.028   1.969  10.760
 1683TIP3    H226541   4.983   1.896  10.885
 1684TIP3   OH226542   5.116   1.979  10.416
 1684TIP3    H126543   5.085   2.065  10.442
 1684TIP3    H226544   5.167   1.948  10.492
 1685TIP3   OH226545   3.931   3.501  10.268
 1685TIP3    H126546   3.937   3.426  10.208
 1685TIP3    H226547   4.009   3.554  10.248
 1686TIP3   OH226548   4.666   2.215  10.326
 1686TIP3    H126549   4.668   2.144  10.390
 1686TIP3    H226550   4.668   2.295  10.380
 1687TIP3   OH226551   4.804   3.638  10.198
 1687TIP3    H126552   4.895   3.633  10.169
 1687TIP3    H226553   4.754   3.641  10.117
 1688TIP3   OH226554   5.433   3.696  10.477
 1688TIP3    H126555   5.410   3.612  10.437
 1688TIP3    H226556   5.364   3.756  10.450
 1689TIP3   OH226557   4.049   2.017  11.620
 1689TIP3    H126558   3.992   1.947  11.651
 1689TIP3    H226559   4.131   2.004  11.668
 1690TIP3   OH226560   4.252   1.954  11.797
 1690TIP3    H126561   4.336   1.927  11.760
 1690TIP3    H226562   4.218   1.876  11.839
 1691TIP3   OH226563   5.107   1.925  11.808
 1691TIP3    H126564   5.097   1.876  11.890
 1691TIP3    H226565   5.199   1.912  11.784
 1692TIP3   OH226566   5.355   3.510  11.685
 1692TIP3    H126567   5.297   3.505  11.609
 1692TIP3    H226568   5.357   3.604  11.707
 1693TIP3   OH226569   6.848   2.921  10.628
 1693TIP3    H126570   6.832   3.015  10.634
 1693TIP3    H226571   6.788   2.891  10.560
 1694TIP3   OH226572   6.725   2.830  11.040
 1694TIP3    H126573   6.748   2.790  11.124
 1694TIP3    H226574   6.671   2.764  10.995
 1695TIP3   OH226575   5.938   2.820  11.165
 1695TIP3    H126576   6.000   2.773  11.220
 1695TIP3    H226577   5.946   2.911  11.191
 1696TIP3   OH226578   7.071   3.176  10.854
 1696TIP3    H126579   7.043   3.094  10.895
 1696TIP3    H226580   7.108   3.228  10.925
 1697TIP3   OH226581   6.086   3.269  10.991
 1697TIP3    H126582   6.040   3.209  11.050
 1697TIP3    H226583   6.177   3.238  10.992
 1698TIP3   OH226584   5.711   2.540  10.489
 1698TIP3    H126585   5.681   2.627  10.514
 1698TIP3    H226586   5.653   2.514  10.418
 1699TIP3   OH226587   5.755   2.790  10.786
 1699TIP3    H126588   5.785   2.701  10.805
 1699TIP3    H226589   5.832   2.845  10.799
 1700TIP3   OH226590   6.833   3.587  10.937
 1700TIP3    H126591   6.864   3.530  10.867
 1700TIP3    H226592   6.822   3.529  11.012
 1701TIP3   OH226593   6.577   3.084  11.047
 1701TIP3    H126594   6.614   3.002  11.014
 1701TIP3    H226595   6.645   3.119  11.104
 1702TIP3   OH226596   6.903   2.493  11.068
 1702TIP3    H126597   6.903   2.398  11.083
 1702TIP3    H226598   6.876   2.503  10.976
 1703TIP3   OH226599   6.227   2.304  10.782
 1703TIP3    H126600   6.229   2.391  10.741
 1703TIP3    H226601   6.175   2.251  10.722
 1704TIP3   OH226602   6.983   2.334  10.654
 1704TIP3    H126603   7.025   2.284  10.723
 1704TIP3    H226604   7.049   2.342  10.585
 1705TIP3   OH226605   5.853   2.540  10.868
 1705TIP3    H126606   5.926   2.515  10.924
 1705TIP3    H226607   5.880   2.513  10.780
 1706TIP3   OH226608   6.361   2.703  10.833
 1706TIP3    H126609   6.444   2.664  10.860
 1706TIP3    H226610   6.323   2.640  10.772
 1707TIP3   OH226611   6.090   2.226  11.216
 1707TIP3    H126612   6.071   2.285  11.143
 1707TIP3    H226613   6.021   2.244  11.280
 1708TIP3   OH226614   6.785   3.181  10.545
 1708TIP3    H126615   6.718   3.147  10.485
 1708TIP3    H226616   6.752   3.268  10.570
 1709TIP3   OH226617   6.360   2.999  11.196
 1709TIP3    H126618   6.310   3.071  11.234
 1709TIP3    H226619   6.428   3.042  11.145
 1710TIP3   OH226620   7.088   2.223  10.885
 1710TIP3    H126621   7.013   2.217  10.944
 1710TIP3    H226622   7.153   2.273  10.935
 1711TIP3   OH226623   6.062   2.390  10.993
 1711TIP3    H126624   6.118   2.448  11.044
 1711TIP3    H226625   6.119   2.357  10.923
 1712TIP3   OH226626   6.204   3.198  11.311
 1712TIP3    H126627   6.197   3.293  11.310
 1712TIP3    H226628   6.117   3.167  11.286
 1713TIP3   OH226629   5.806   3.203  10.350
 1713TIP3    H126630   5.760   3.228  10.270
 1713TIP3    H226631   5.807   3.283  10.403
 1714TIP3   OH226632   7.127   3.353  11.073
 1714TIP3    H126633   7.033   3.361  11.089
 1714TIP3    H226634   7.156   3.443  11.054
 1715TIP3   OH226635   7.140   2.130  11.182
 1715TIP3    H126636   7.049   2.151  11.161
 1715TIP3    H226637   7.190   2.205  11.149
 1716TIP3   OH226638   6.447   1.911  10.976
 1716TIP3    H126639   6.424   1.819  10.977
 1716TIP3    H226640   6.367   1.957  11.002
 1717TIP3   OH226641   6.941   3.436  10.738
 1717TIP3    H126642   6.990   3.356  10.755
 1717TIP3    H226643   7.005   3.495  10.697
 1718TIP3   OH226644   7.070   3.191  10.573
 1718TIP3    H126645   6.975   3.194  10.560
 1718TIP3    H226646   7.080   3.176  10.668
 1719TIP3   OH226647   7.225   3.077  11.446
 1719TIP3    H126648   7.212   3.025  11.367
 1719TIP3    H226649   7.256   3.162  11.414
 1720TIP3   OH226650   6.710   2.834  10.396
 1720TIP3    H126651   6.640   2.899  10.401
 1720TIP3    H226652   6.738   2.836  10.305
 1721TIP3   OH226653   7.025   2.738  10.532
 1721TIP3    H126654   6.978   2.806  10.580
 1721TIP3    H226655   7.097   2.713  10.590
 1722TIP3   OH226656   7.005   2.643  11.452
 1722TIP3    H126657   6.991   2.711  11.518
 1722TIP3    H226658   6.942   2.662  11.383
 1723TIP3   OH226659   6.215   2.914  10.731
 1723TIP3    H126660   6.175   2.880  10.651
 1723TIP3    H226661   6.271   2.843  10.763
 1724TIP3   OH226662   6.371   3.262  10.956
 1724TIP3    H126663   6.364   3.269  10.861
 1724TIP3    H226664   6.444   3.202  10.971
 1725TIP3   OH226665   6.243   2.781  11.073
 1725TIP3    H126666   6.285   2.770  10.987
 1725TIP3    H226667   6.283   2.861  11.109
 1726TIP3   OH226668   6.862   3.383  11.143
 1726TIP3    H126669   6.857   3.438  11.221
 1726TIP3    H226670   6.828   3.298  11.172
 1727TIP3   OH226671   6.353   3.221  11.543
 1727TIP3    H126672   6.294   3.284  11.584
 1727TIP3    H226673   6.309   3.194  11.463
 1728TIP3   OH226674   6.018   2.791  11.518
 1728TIP3    H126675   6.034   2.875  11.560
 1728TIP3    H226676   5.926   2.795  11.491
 1729TIP3   OH226677   6.701   3.441  10.596
 1729TIP3    H126678   6.777   3.447  10.654
 1729TIP3    H226679   6.689   3.529  10.561
 1730TIP3   OH226680   6.173   3.416  11.616
 1730TIP3    H126681   6.170   3.444  11.525
 1730TIP3    H226682   6.081   3.412  11.642
 1731TIP3   OH226683   6.110   2.817  10.496
 1731TIP3    H126684   6.074   2.893  10.451
 1731TIP3    H226685   6.130   2.754  10.427
 1732TIP3   OH226686   5.674   3.034  11.407
 1732TIP3    H126687   5.726   3.071  11.335
 1732TIP3    H226688   5.712   2.948  11.422
 1733TIP3   OH226689   5.733   3.305  11.004
 1733TIP3    H126690   5.802   3.240  11.019
 1733TIP3    H226691   5.733   3.358  11.084
 1734TIP3   OH226692   6.588   3.355  11.495
 1734TIP3    H126693   6.584   3.437  11.542
 1734TIP3    H226694   6.505   3.312  11.513
 1735TIP3   OH226695   6.694   3.690  10.469
 1735TIP3    H126696   6.679   3.704  10.376
 1735TIP3    H226697   6.664   3.771  10.510
 1736TIP3   OH226698   5.996   3.596  10.695
 1736TIP3    H126699   6.053   3.573  10.768
 1736TIP3    H226700   5.909   3.565  10.721
 1737TIP3   OH226701   6.947   3.576  10.391
 1737TIP3    H126702   6.861   3.610  10.414
 1737TIP3    H226703   7.003   3.598  10.466
 1738TIP3   OH226704   7.183   2.565  11.677
 1738TIP3    H126705   7.151   2.595  11.592
 1738TIP3    H226706   7.263   2.518  11.657
 1739TIP3   OH226707   5.922   3.219  11.516
 1739TIP3    H126708   5.972   3.148  11.558
 1739TIP3    H226709   5.910   3.190  11.426
 1740TIP3   OH226710   6.197   2.022  11.057
 1740TIP3    H126711   6.123   2.014  10.996
 1740TIP3    H226712   6.175   2.097  11.112
 1741TIP3   OH226713   6.674   2.010  11.410
 1741TIP3    H126714   6.719   1.958  11.476
 1741TIP3    H226715   6.581   2.000  11.430
 1742TIP3   OH226716   7.004   2.358  11.485
 1742TIP3    H126717   6.937   2.350  11.553
 1742TIP3    H226718   7.009   2.452  11.469
 1743TIP3   OH226719   7.086   2.816  10.048
 1743TIP3    H126720   7.035   2.832   9.969
 1743TIP3    H226721   7.086   2.899  10.094
 1744TIP3   OH226722   6.216   2.533  11.174
 1744TIP3    H126723   6.150   2.539  11.243
 1744TIP3    H226724   6.224   2.623  11.141
 1745TIP3   OH226725   6.218   2.543  10.654
 1745TIP3    H126726   6.123   2.554  10.645
 1745TIP3    H226727   6.250   2.532  10.565
 1746TIP3   OH226728   6.775   2.612  10.542
 1746TIP3    H126729   6.729   2.684  10.497
 1746TIP3    H226730   6.868   2.636  10.537
 1747TIP3   OH226731   6.676   2.592  11.652
 1747TIP3    H126732   6.629   2.519  11.692
 1747TIP3    H226733   6.764   2.587  11.690
 1748TIP3   OH226734   6.844   2.521  10.800
 1748TIP3    H126735   6.801   2.573  10.733
 1748TIP3    H226736   6.887   2.451  10.752
 1749TIP3   OH226737   6.016   2.551  11.356
 1749TIP3    H126738   6.000   2.615  11.425
 1749TIP3    H226739   5.964   2.474  11.381
 1750TIP3   OH226740   5.659   2.239  10.755
 1750TIP3    H126741   5.711   2.256  10.833
 1750TIP3    H226742   5.715   2.264  10.682
 1751TIP3   OH226743   5.814   2.345  10.249
 1751TIP3    H126744   5.876   2.316  10.181
 1751TIP3    H226745   5.798   2.437  10.228
 1752TIP3   OH226746   6.806   2.667  11.256
 1752TIP3    H126747   6.843   2.608  11.191
 1752TIP3    H226748   6.737   2.616  11.298
 1753TIP3   OH226749   6.514   2.293  10.765
 1753TIP3    H126750   6.419   2.294  10.777
 1753TIP3    H226751   6.548   2.260  10.847
 1754TIP3   OH226752   5.942   2.455  10.625
 1754TIP3    H126753   5.871   2.479  10.565
 1754TIP3    H226754   5.972   2.370  10.593
 1755TIP3   OH226755   6.314   2.485  10.404
 1755TIP3    H126756   6.407   2.478  10.424
 1755TIP3    H226757   6.311   2.514  10.312
 1756TIP3   OH226758   6.880   2.211  11.079
 1756TIP3    H126759   6.842   2.223  11.166
 1756TIP3    H226760   6.810   2.171  11.027
 1757TIP3   OH226761   6.309   2.537  10.139
 1757TIP3    H126762   6.252   2.545  10.062
 1757TIP3    H226763   6.397   2.551  10.105
 1758TIP3   OH226764   7.251   3.802  11.707
 1758TIP3    H126765   7.256   3.893  11.678
 1758TIP3    H226766   7.342   3.777  11.724
 1759TIP3   OH226767   6.028   3.017  11.682
 1759TIP3    H126768   6.095   3.018  11.750
 1759TIP3    H226769   5.946   3.036  11.728
 1760TIP3   OH226770   6.590   2.590  10.951
 1760TIP3    H126771   6.659   2.537  10.911
 1760TIP3    H226772   6.555   2.536  11.021
 1761TIP3   OH226773   6.061   2.199  10.578
 1761TIP3    H126774   6.012   2.119  10.594
 1761TIP3    H226775   6.095   2.190  10.489
 1762TIP3   OH226776   6.478   2.447  11.167
 1762TIP3    H126777   6.392   2.488  11.174
 1762TIP3    H226778   6.525   2.476  11.245
 1763TIP3   OH226779   6.538   3.040  10.394
 1763TIP3    H126780   6.473   3.056  10.325
 1763TIP3    H226781   6.490   3.053  10.476
 1764TIP3   OH226782   7.176   2.949  11.210
 1764TIP3    H126783   7.259   2.931  11.166
 1764TIP3    H226784   7.111   2.948  11.140
 1765TIP3   OH226785   6.656   3.068  11.472
 1765TIP3    H126786   6.708   3.043  11.548
 1765TIP3    H226787   6.627   3.157  11.490
 1766TIP3   OH226788   5.981   2.904  10.884
 1766TIP3    H126789   6.064   2.920  10.838
 1766TIP3    H226790   6.007   2.877  10.972
 1767TIP3   OH226791   5.749   2.771  11.457
 1767TIP3    H126792   5.707   2.727  11.531
 1767TIP3    H226793   5.690   2.757  11.383
 1768TIP3   OH226794   6.470   2.778  11.689
 1768TIP3    H126795   6.401   2.745  11.632
 1768TIP3    H226796   6.548   2.729  11.663
 1769TIP3   OH226797   6.871   3.347  11.492
 1769TIP3    H126798   6.778   3.353  11.470
 1769TIP3    H226799   6.874   3.359  11.587
 1770TIP3   OH226800   7.260   3.332  10.419
 1770TIP3    H126801   7.198   3.287  10.476
 1770TIP3    H226802   7.209   3.353  10.341
 1771TIP3   OH226803   6.994   2.926  10.995
 1771TIP3    H126804   6.900   2.909  11.002
 1771TIP3    H226805   7.027   2.853  10.943
 1772TIP3   OH226806   6.305   3.329  10.690
 1772TIP3    H126807   6.325   3.414  10.651
 1772TIP3    H226808   6.218   3.306  10.656
 1773TIP3   OH226809   6.411   3.081  10.630
 1773TIP3    H126810   6.386   3.171  10.652
 1773TIP3    H226811   6.343   3.027  10.669
 1774TIP3   OH226812   6.484   3.501  11.276
 1774TIP3    H126813   6.544   3.574  11.257
 1774TIP3    H226814   6.534   3.443  11.333
 1775TIP3   OH226815   6.265   3.590  10.573
 1775TIP3    H126816   6.176   3.606  10.602
 1775TIP3    H226817   6.315   3.664  10.608
 1776TIP3   OH226818   6.783   3.127  11.233
 1776TIP3    H126819   6.739   3.102  11.314
 1776TIP3    H226820   6.860   3.069  11.228
 1777TIP3   OH226821   7.109   3.514  11.439
 1777TIP3    H126822   7.022   3.474  11.437
 1777TIP3    H226823   7.101   3.592  11.383
 1778TIP3   OH226824   5.884   2.293  11.394
 1778TIP3    H126825   5.792   2.314  11.377
 1778TIP3    H226826   5.880   2.221  11.458
 1779TIP3   OH226827   7.164   2.982  10.411
 1779TIP3    H126828   7.092   2.923  10.436
 1779TIP3    H226829   7.145   3.063  10.458
 1780TIP3   OH226830   5.843   3.430  11.245
 1780TIP3    H126831   5.873   3.340  11.235
 1780TIP3    H226832   5.846   3.446  11.339
 1781TIP3   OH226833   6.025   3.034  10.348
 1781TIP3    H126834   5.944   3.084  10.353
 1781TIP3    H226835   6.087   3.092  10.305
 1782TIP3   OH226836   6.790   2.248  11.334
 1782TIP3    H126837   6.865   2.264  11.392
 1782TIP3    H226838   6.751   2.168  11.368
 1783TIP3   OH226839   6.577   3.426  10.250
 1783TIP3    H126840   6.485   3.447  10.262
 1783TIP3    H226841   6.615   3.433  10.338
 1784TIP3   OH226842   6.569   2.421  10.512
 1784TIP3    H126843   6.640   2.485  10.524
 1784TIP3    H226844   6.550   2.390  10.600
 1785TIP3   OH226845   6.643   2.488  11.387
 1785TIP3    H126846   6.650   2.517  11.478
 1785TIP3    H226847   6.686   2.403  11.385
 1786TIP3   OH226848   6.624   2.094  10.605
 1786TIP3    H126849   6.598   2.169  10.659
 1786TIP3    H226850   6.717   2.083  10.622
 1787TIP3   OH226851   6.319   3.532  10.300
 1787TIP3    H126852   6.340   3.615  10.258
 1787TIP3    H226853   6.306   3.554  10.392
 1788TIP3   OH226854   6.214   2.235  10.314
 1788TIP3    H126855   6.227   2.326  10.339
 1788TIP3    H226856   6.302   2.196  10.318
 1789TIP3   OH226857   7.238   2.201  11.538
 1789TIP3    H126858   7.159   2.250  11.516
 1789TIP3    H226859   7.263   2.159  11.456
 1790TIP3   OH226860   7.077   2.670  10.885
 1790TIP3    H126861   6.994   2.629  10.861
 1790TIP3    H226862   7.099   2.632  10.970
 1791TIP3   OH226863   7.224   3.616  11.041
 1791TIP3    H126864   7.198   3.678  10.973
 1791TIP3    H226865   7.314   3.592  11.019
 1792TIP3   OH226866   5.949   2.001  10.928
 1792TIP3    H126867   5.944   1.994  10.833
 1792TIP3    H226868   5.915   1.917  10.960
 1793TIP3   OH226869   5.819   3.426  10.520
 1793TIP3    H126870   5.774   3.415  10.604
 1793TIP3    H226871   5.910   3.447  10.544
 1794TIP3   OH226872   5.800   3.668  11.726
 1794TIP3    H126873   5.870   3.636  11.783
 1794TIP3    H226874   5.759   3.589  11.691
 1795TIP3   OH226875   6.237   3.501  11.869
 1795TIP3    H126876   6.318   3.455  11.890
 1795TIP3    H226877   6.218   3.476  11.778
 1796TIP3   OH226878   6.696   3.517  10.020
 1796TIP3    H126879   6.651   3.470  10.090
 1796TIP3    H226880   6.756   3.453   9.982
 1797TIP3   OH226881   6.860   3.365  11.767
 1797TIP3    H126882   6.854   3.282  11.814
 1797TIP3    H226883   6.933   3.411  11.807
 1798TIP3   OH226884   5.777   3.055  11.799
 1798TIP3    H126885   5.766   2.961  11.785
 1798TIP3    H226886   5.713   3.095  11.741
 1799TIP3   OH226887   6.433   3.054  11.748
 1799TIP3    H126888   6.414   3.098  11.665
 1799TIP3    H226889   6.464   2.967  11.722
 1800TIP3   OH226890   6.960   3.084  11.517
 1800TIP3    H126891   7.053   3.087  11.494
 1800TIP3    H226892   6.929   3.172  11.500
 1801TIP3   OH226893   5.837   2.780  11.770
 1801TIP3    H126894   5.921   2.769  11.725
 1801TIP3    H226895   5.859   2.777  11.863
 1802TIP3   OH226896   6.280   2.673  11.510
 1802TIP3    H126897   6.195   2.716  11.500
 1802TIP3    H226898   6.335   2.711  11.442
 1803TIP3   OH226899   6.769   2.915  11.801
 1803TIP3    H126900   6.836   2.880  11.741
 1803TIP3    H226901   6.741   2.839  11.852
 1804TIP3   OH226902   6.309   2.407  11.574
 1804TIP3    H126903   6.316   2.353  11.496
 1804TIP3    H226904   6.302   2.497  11.541
 1805TIP3   OH226905   6.339   2.255  11.334
 1805TIP3    H126906   6.393   2.302  11.271
 1805TIP3    H226907   6.252   2.251  11.293
 1806TIP3   OH226908   6.463   2.796  11.350
 1806TIP3    H126909   6.549   2.830  11.372
 1806TIP3    H226910   6.424   2.863  11.293
 1807TIP3   OH226911   6.921   2.546  11.798
 1807TIP3    H126912   6.914   2.452  11.787
 1807TIP3    H226913   7.009   2.568  11.769
 1808TIP3   OH226914   6.993   2.847  11.648
 1808TIP3    H126915   6.969   2.927  11.601
 1808TIP3    H226916   7.088   2.852  11.656
 1809TIP3   OH226917   6.144   2.457  11.797
 1809TIP3    H126918   6.064   2.406  11.781
 1809TIP3    H226919   6.192   2.453  11.715
 1810TIP3   OH226920   6.395   1.993  11.409
 1810TIP3    H126921   6.376   2.084  11.386
 1810TIP3    H226922   6.328   1.942  11.363
 1811TIP3   OH226923   6.534   2.371  11.736
 1811TIP3    H126924   6.498   2.342  11.820
 1811TIP3    H226925   6.457   2.376  11.678
 1812TIP3   OH226926   6.800   2.313  11.662
 1812TIP3    H126927   6.707   2.316  11.687
 1812TIP3    H226928   6.841   2.255  11.727
 1813TIP3   OH226929   6.951   2.190  11.854
 1813TIP3    H126930   6.954   2.095  11.843
 1813TIP3    H226931   6.931   2.204  11.947
 1814TIP3   OH226932   5.930   2.273  11.766
 1814TIP3    H126933   5.936   2.196  11.709
 1814TIP3    H226934   5.944   2.239  11.854
 1815TIP3   OH226935   6.379   1.900  11.667
 1815TIP3    H126936   6.436   1.824  11.660
 1815TIP3    H226937   6.378   1.937  11.578
 1816TIP3   OH226938   6.464   2.053  11.881
 1816TIP3    H126939   6.440   2.002  11.803
 1816TIP3    H226940   6.405   2.129  11.878
 1817TIP3   OH226941   6.408   3.773  10.182
 1817TIP3    H126942   6.503   3.766  10.189
 1817TIP3    H226943   6.393   3.823  10.102
 1818TIP3   OH226944   5.655   3.734  10.643
 1818TIP3    H126945   5.581   3.716  10.584
 1818TIP3    H226946   5.665   3.654  10.694
 1819TIP3   OH226947   5.753   3.515  10.809
 1819TIP3    H126948   5.722   3.430  10.842
 1819TIP3    H226949   5.780   3.562  10.888
 1820TIP3   OH226950   7.256   3.163  11.871
 1820TIP3    H126951   7.178   3.176  11.926
 1820TIP3    H226952   7.326   3.206  11.920
 1821TIP3   OH226953   7.264   3.316  11.317
 1821TIP3    H126954   7.223   3.388  11.364
 1821TIP3    H226955   7.222   3.316  11.231
 1822TIP3   OH226956   7.113   2.546   9.974
 1822TIP3    H126957   7.093   2.636  10.000
 1822TIP3    H226958   7.153   2.554   9.887
 1823TIP3   OH226959   7.236   2.583  10.667
 1823TIP3    H126960   7.303   2.523  10.701
 1823TIP3    H226961   7.199   2.623  10.745
 1824TIP3   OH226962   5.691   2.832  11.052
 1824TIP3    H126963   5.702   2.832  10.957
 1824TIP3    H226964   5.781   2.834  11.086
 1825TIP3   OH226965   7.257   2.906  11.657
 1825TIP3    H126966   7.321   2.850  11.614
 1825TIP3    H226967   7.248   2.982  11.599
 1826TIP3   OH226968   7.087   2.276  10.010
 1826TIP3    H126969   7.107   2.369   9.997
 1826TIP3    H226970   7.071   2.243   9.922
 1827TIP3   OH226971   7.203   2.373  10.475
 1827TIP3    H126972   7.271   2.310  10.498
 1827TIP3    H226973   7.218   2.447  10.534
 1828TIP3   OH226974   7.269   2.343  11.055
 1828TIP3    H126975   7.356   2.311  11.027
 1828TIP3    H226976   7.282   2.436  11.072
 1829TIP3   OH226977   7.275   2.599  11.357
 1829TIP3    H126978   7.181   2.617  11.362
 1829TIP3    H226979   7.293   2.592  11.264
 1830TIP3   OH226980   5.702   2.384  11.650
 1830TIP3    H126981   5.787   2.364  11.690
 1830TIP3    H226982   5.649   2.305  11.663
 1831TIP3   OH226983   5.815   2.239  10.988
 1831TIP3    H126984   5.859   2.155  10.974
 1831TIP3    H226985   5.886   2.303  10.991
 1832TIP3   OH226986   5.626   2.548  11.029
 1832TIP3    H126987   5.697   2.525  10.970
 1832TIP3    H226988   5.643   2.639  11.054
 1833TIP3   OH226989   5.717   2.166  10.435
 1833TIP3    H126990   5.626   2.192  10.451
 1833TIP3    H226991   5.751   2.234  10.377
 1834TIP3   OH226992   7.095   3.645  10.644
 1834TIP3    H126993   7.178   3.659  10.598
 1834TIP3    H226994   7.105   3.694  10.726
 1835TIP3   OH226995   5.693   1.995  11.297
 1835TIP3    H126996   5.624   1.993  11.363
 1835TIP3    H226997   5.666   2.064  11.237
 1836TIP3   OH226998   5.916   3.392  11.724
 1836TIP3    H126999   5.900   3.332  11.651
 1836TIP3    H227000   5.863   3.357  11.795
 1837TIP3   OH227001   6.218   3.477  11.346
 1837TIP3    H127002   6.189   3.565  11.323
 1837TIP3    H227003   6.311   3.477  11.325
 1838TIP3   OH227004   6.586   3.598  11.630
 1838TIP3    H127005   6.599   3.569  11.720
 1838TIP3    H227006   6.664   3.649  11.610
 1839TIP3   OH227007   6.819   3.738  11.588
 1839TIP3    H127008   6.877   3.690  11.529
 1839TIP3    H227009   6.875   3.763  11.662
 1840TIP3   OH227010   5.937   3.839  11.357
 1840TIP3    H127011   5.848   3.862  11.330
 1840TIP3    H227012   5.939   3.855  11.452
 1841TIP3   OH227013   6.182   3.745  11.281
 1841TIP3    H127014   6.094   3.772  11.309
 1841TIP3    H227015   6.195   3.789  11.197
 1842TIP3   OH227016   6.636   3.719  11.195
 1842TIP3    H127017   6.596   3.752  11.114
 1842TIP3    H227018   6.642   3.796  11.251
 1843TIP3   OH227019   6.864   3.612  11.307
 1843TIP3    H127020   6.787   3.647  11.263
 1843TIP3    H227021   6.936   3.667  11.276
 1844TIP3   OH227022   7.104   3.742  11.254
 1844TIP3    H127023   7.108   3.834  11.230
 1844TIP3    H227024   7.145   3.696  11.181
 1845TIP3   OH227025   5.880   3.610  11.043
 1845TIP3    H127026   5.869   3.554  11.120
 1845TIP3    H227027   5.965   3.584  11.007
 1846TIP3   OH227028   6.115   3.529  10.929
 1846TIP3    H127029   6.101   3.436  10.946
 1846TIP3    H227030   6.204   3.546  10.959
 1847TIP3   OH227031   6.375   3.534  11.023
 1847TIP3    H127032   6.381   3.445  10.989
 1847TIP3    H227033   6.406   3.526  11.114
 1848TIP3   OH227034   6.677   2.087  10.928
 1848TIP3    H127035   6.603   2.029  10.944
 1848TIP3    H227036   6.741   2.033  10.881
 1849TIP3   OH227037   7.131   1.940  10.880
 1849TIP3    H127038   7.152   2.033  10.885
 1849TIP3    H227039   7.037   1.937  10.866
 1850TIP3   OH227040   5.928   1.955  10.655
 1850TIP3    H127041   5.838   1.934  10.630
 1850TIP3    H227042   5.977   1.875  10.638
 1851TIP3   OH227043   5.774   1.919  10.291
 1851TIP3    H127044   5.853   1.926  10.238
 1851TIP3    H227045   5.768   2.002  10.337
 1852TIP3   OH227046   6.444   1.901  10.687
 1852TIP3    H127047   6.505   1.967  10.655
 1852TIP3    H227048   6.445   1.912  10.783
 1853TIP3   OH227049   6.862   1.925  10.801
 1853TIP3    H127050   6.866   1.900  10.708
 1853TIP3    H227051   6.847   1.843  10.848
 1854TIP3   OH227052   6.491   2.183  10.377
 1854TIP3    H127053   6.531   2.133  10.448
 1854TIP3    H227054   6.509   2.274  10.399
 1855TIP3   OH227055   6.687   3.732  10.194
 1855TIP3    H127056   6.769   3.779  10.178
 1855TIP3    H227057   6.689   3.660  10.131
 1856TIP3   OH227058   5.938   2.029  11.617
 1856TIP3    H127059   5.882   1.959  11.651
 1856TIP3    H227060   6.021   2.016  11.663
 1857TIP3   OH227061   6.138   1.961  11.796
 1857TIP3    H127062   6.222   1.936  11.757
 1857TIP3    H227063   6.108   1.882  11.841
 1858TIP3   OH227064   6.990   1.920  11.806
 1858TIP3    H127065   6.982   1.870  11.888
 1858TIP3    H227066   7.083   1.912  11.782
 1859TIP3   OH227067   7.227   3.521  11.692
 1859TIP3    H127068   7.194   3.504  11.604
 1859TIP3    H227069   7.235   3.616  11.697
 1860TIP3   OH227070   1.103   4.857  10.659
 1860TIP3    H127071   1.127   4.932  10.605
 1860TIP3    H227072   1.011   4.872  10.680
 1861TIP3   OH227073   1.095   4.714  11.064
 1861TIP3    H127074   1.119   4.657  11.137
 1861TIP3    H227075   1.037   4.659  11.011
 1862TIP3   OH227076   0.306   4.638  11.176
 1862TIP3    H127077   0.321   4.560  11.230
 1862TIP3    H227078   0.392   4.660  11.141
 1863TIP3   OH227079   1.458   5.017  10.889
 1863TIP3    H127080   1.422   4.941  10.936
 1863TIP3    H227081   1.476   5.081  10.957
 1864TIP3   OH227082   0.438   5.139  11.023
 1864TIP3    H127083   0.407   5.052  10.999
 1864TIP3    H227084   0.533   5.135  11.013
 1865TIP3   OH227085   0.102   4.494  10.578
 1865TIP3    H127086   0.016   4.532  10.596
 1865TIP3    H227087   0.092   4.452  10.492
 1866TIP3   OH227088   0.177   4.715  10.834
 1866TIP3    H127089   0.186   4.622  10.851
 1866TIP3    H227090   0.163   4.721  10.740
 1867TIP3   OH227091   1.182   5.502  10.937
 1867TIP3    H127092   1.225   5.458  10.863
 1867TIP3    H227093   1.155   5.430  10.994
 1868TIP3   OH227094   0.908   4.978  11.055
 1868TIP3    H127095   0.946   4.912  10.997
 1868TIP3    H227096   0.978   5.001  11.115
 1869TIP3   OH227097   1.813   4.091  11.158
 1869TIP3    H127098   1.821   4.169  11.213
 1869TIP3    H227099   1.877   4.104  11.088
 1870TIP3   OH227100   1.230   4.342  11.065
 1870TIP3    H127101   1.255   4.249  11.066
 1870TIP3    H227102   1.220   4.363  10.972
 1871TIP3   OH227103   0.567   4.190  10.789
 1871TIP3    H127104   0.572   4.278  10.753
 1871TIP3    H227105   0.514   4.141  10.726
 1872TIP3   OH227106   1.378   4.243  10.669
 1872TIP3    H127107   1.429   4.202  10.739
 1872TIP3    H227108   1.443   4.287  10.614
 1873TIP3   OH227109   0.202   4.446  10.904
 1873TIP3    H127110   0.276   4.411  10.953
 1873TIP3    H227111   0.216   4.414  10.815
 1874TIP3   OH227112   0.703   4.597  10.864
 1874TIP3    H127113   0.792   4.566  10.882
 1874TIP3    H227114   0.668   4.535  10.801
 1875TIP3   OH227115   1.834   4.269  11.375
 1875TIP3    H127116   1.775   4.341  11.350
 1875TIP3    H227117   1.857   4.288  11.466
 1876TIP3   OH227118   0.431   4.113  11.226
 1876TIP3    H127119   0.404   4.168  11.152
 1876TIP3    H227120   0.364   4.127  11.293
 1877TIP3   OH227121   1.155   5.070  10.494
 1877TIP3    H127122   1.154   5.080  10.399
 1877TIP3    H227123   1.123   5.153  10.527
 1878TIP3   OH227124   0.692   4.887  11.205
 1878TIP3    H127125   0.638   4.958  11.240
 1878TIP3    H227126   0.758   4.932  11.151
 1879TIP3   OH227127   1.518   4.145  10.886
 1879TIP3    H127128   1.596   4.093  10.865
 1879TIP3    H227129   1.550   4.216  10.943
 1880TIP3   OH227130   0.408   4.276  11.001
 1880TIP3    H127131   0.470   4.327  11.052
 1880TIP3    H227132   0.460   4.241  10.928
 1881TIP3   OH227133   0.539   5.085  11.327
 1881TIP3    H127134   0.541   5.178  11.305
 1881TIP3    H227135   0.447   5.067  11.348
 1882TIP3   OH227136   0.160   5.000  10.329
 1882TIP3    H127137   0.122   4.967  10.247
 1882TIP3    H227138   0.095   5.062  10.362
 1883TIP3   OH227139   1.484   5.224  11.087
 1883TIP3    H127140   1.389   5.230  11.099
 1883TIP3    H227141   1.509   5.310  11.053
 1884TIP3   OH227142   1.567   3.970  11.230
 1884TIP3    H127143   1.501   4.019  11.182
 1884TIP3    H227144   1.651   4.002  11.195
 1885TIP3   OH227145   0.785   3.797  10.977
 1885TIP3    H127146   0.758   3.705  10.980
 1885TIP3    H227147   0.707   3.845  11.006
 1886TIP3   OH227148   1.314   5.406  10.721
 1886TIP3    H127149   1.344   5.317  10.701
 1886TIP3    H227150   1.389   5.461  10.699
 1887TIP3   OH227151   1.386   5.153  10.658
 1887TIP3    H127152   1.328   5.099  10.605
 1887TIP3    H227153   1.417   5.095  10.727
 1888TIP3   OH227154   1.610   4.997  11.430
 1888TIP3    H127155   1.594   4.942  11.353
 1888TIP3    H227156   1.623   5.085  11.394
 1889TIP3   OH227157   1.764   4.676  11.295
 1889TIP3    H127158   1.694   4.736  11.270
 1889TIP3    H227159   1.828   4.683  11.224
 1890TIP3   OH227160   1.283   4.656  10.587
 1890TIP3    H127161   1.237   4.735  10.616
 1890TIP3    H227162   1.376   4.680  10.590
 1891TIP3   OH227163   1.371   4.528  11.458
 1891TIP3    H127164   1.361   4.604  11.515
 1891TIP3    H227165   1.310   4.543  11.386
 1892TIP3   OH227166   0.563   4.802  10.735
 1892TIP3    H127167   0.527   4.768  10.654
 1892TIP3    H227168   0.611   4.729  10.773
 1893TIP3   OH227169   0.709   5.151  10.956
 1893TIP3    H127170   0.707   5.152  10.861
 1893TIP3    H227171   0.782   5.092  10.978
 1894TIP3   OH227172   0.571   4.666  11.096
 1894TIP3    H127173   0.613   4.655  11.011
 1894TIP3    H227174   0.606   4.748  11.130
 1895TIP3   OH227175   1.220   5.248  11.158
 1895TIP3    H127176   1.209   5.307  11.233
 1895TIP3    H227177   1.180   5.166  11.186
 1896TIP3   OH227178   0.695   5.113  11.552
 1896TIP3    H127179   0.633   5.175  11.591
 1896TIP3    H227180   0.652   5.084  11.471
 1897TIP3   OH227181   0.396   4.700  11.487
 1897TIP3    H127182   0.395   4.772  11.550
 1897TIP3    H227183   0.342   4.730  11.415
 1898TIP3   OH227184   1.078   5.318  10.588
 1898TIP3    H127185   1.151   5.359  10.635
 1898TIP3    H227186   1.044   5.388  10.532
 1899TIP3   OH227187   0.501   5.307  11.610
 1899TIP3    H127188   0.515   5.332  11.519
 1899TIP3    H227189   0.406   5.310  11.621
 1900TIP3   OH227190   0.470   4.702  10.495
 1900TIP3    H127191   0.445   4.770  10.432
 1900TIP3    H227192   0.484   4.624  10.442
 1901TIP3   OH227193   0.174   4.886  11.342
 1901TIP3    H127194   0.147   4.871  11.251
 1901TIP3    H227195   0.134   4.815  11.391
 1902TIP3   OH227196   0.084   5.293  11.011
 1902TIP3    H127197   0.091   5.199  10.997
 1902TIP3    H227198   0.132   5.309  11.092
 1903TIP3   OH227199   1.867   5.329  11.643
 1903TIP3    H127200   1.859   5.238  11.615
 1903TIP3    H227201   1.779   5.353  11.672
 1904TIP3   OH227202   0.938   5.230  11.500
 1904TIP3    H127203   0.933   5.317  11.541
 1904TIP3    H227204   0.853   5.190  11.519
 1905TIP3   OH227205   0.994   5.525  10.417
 1905TIP3    H127206   0.957   5.497  10.333
 1905TIP3    H227207   0.937   5.596  10.446
 1906TIP3   OH227208   0.393   5.471  10.667
 1906TIP3    H127209   0.405   5.438  10.756
 1906TIP3    H227210   0.322   5.418  10.631
 1907TIP3   OH227211   1.267   5.574  10.445
 1907TIP3    H127212   1.174   5.558  10.428
 1907TIP3    H227213   1.308   5.489  10.430
 1908TIP3   OH227214   1.538   4.412  11.666
 1908TIP3    H127215   1.481   4.453  11.601
 1908TIP3    H227216   1.551   4.323  11.633
 1909TIP3   OH227217   0.286   5.097  11.471
 1909TIP3    H127218   0.329   5.043  11.537
 1909TIP3    H227219   0.234   5.036  11.420
 1910TIP3   OH227220   0.543   3.913  11.064
 1910TIP3    H127221   0.470   3.908  11.002
 1910TIP3    H227222   0.519   3.986  11.123
 1911TIP3   OH227223   1.016   3.892  11.408
 1911TIP3    H127224   1.058   3.838  11.475
 1911TIP3    H227225   0.922   3.883  11.426
 1912TIP3   OH227226   1.317   4.251  11.471
 1912TIP3    H127227   1.259   4.239  11.546
 1912TIP3    H227228   1.323   4.346  11.460
 1913TIP3   OH227229   1.028   4.050  10.091
 1913TIP3    H127230   0.987   4.058  10.177
 1913TIP3    H227231   0.979   4.111  10.035
 1914TIP3   OH227232   0.571   4.410  11.182
 1914TIP3    H127233   0.506   4.411  11.253
 1914TIP3    H227234   0.578   4.501  11.155
 1915TIP3   OH227235   0.573   4.440  10.683
 1915TIP3    H127236   0.478   4.434  10.678
 1915TIP3    H227237   0.602   4.445  10.592
 1916TIP3   OH227238   1.103   4.464  10.532
 1916TIP3    H127239   1.156   4.543  10.544
 1916TIP3    H227240   1.153   4.411  10.470
 1917TIP3   OH227241   1.016   4.476  11.652
 1917TIP3    H127242   0.966   4.404  11.691
 1917TIP3    H227243   1.100   4.473  11.697
 1918TIP3   OH227244   1.196   4.403  10.800
 1918TIP3    H127245   1.156   4.456  10.731
 1918TIP3    H227246   1.252   4.341  10.753
 1919TIP3   OH227247   0.358   4.428  11.356
 1919TIP3    H127248   0.356   4.488  11.430
 1919TIP3    H227249   0.315   4.349  11.389
 1920TIP3   OH227250   0.018   4.192  10.688
 1920TIP3    H127251   0.064   4.181  10.771
 1920TIP3    H227252   0.064   4.134  10.627
 1921TIP3   OH227253   0.096   4.355  10.336
 1921TIP3    H127254   0.163   4.400  10.284
 1921TIP3    H227255   0.013   4.379  10.296
 1922TIP3   OH227256   1.174   4.527  11.259
 1922TIP3    H127257   1.201   4.465  11.191
 1922TIP3    H227258   1.098   4.486  11.300
 1923TIP3   OH227259   0.842   4.185  10.768
 1923TIP3    H127260   0.747   4.175  10.776
 1923TIP3    H227261   0.870   4.217  10.854
 1924TIP3   OH227262   0.314   4.347  10.669
 1924TIP3    H127263   0.242   4.390  10.622
 1924TIP3    H227264   0.324   4.263  10.625
 1925TIP3   OH227265   0.641   4.426  10.421
 1925TIP3    H127266   0.723   4.377  10.421
 1925TIP3    H227267   0.620   4.438  10.328
 1926TIP3   OH227268   1.207   4.032  11.068
 1926TIP3    H127269   1.180   4.066  11.154
 1926TIP3    H227270   1.125   4.021  11.021
 1927TIP3   OH227271   0.568   4.488  10.163
 1927TIP3    H127272   0.547   4.414  10.106
 1927TIP3    H227273   0.531   4.564  10.119
 1928TIP3   OH227274   1.601   5.674  11.729
 1928TIP3    H127275   1.621   5.704  11.640
 1928TIP3    H227276   1.676   5.699  11.781
 1929TIP3   OH227277   0.378   4.920  11.668
 1929TIP3    H127278   0.443   4.916  11.739
 1929TIP3    H227279   0.294   4.927  11.713
 1930TIP3   OH227280   0.948   4.485  10.951
 1930TIP3    H127281   1.026   4.444  10.913
 1930TIP3    H227282   0.921   4.426  11.020
 1931TIP3   OH227283   0.402   4.087  10.590
 1931TIP3    H127284   0.353   4.010  10.619
 1931TIP3    H227285   0.420   4.070  10.498
 1932TIP3   OH227286   0.833   4.327  11.155
 1932TIP3    H127287   0.746   4.366  11.164
 1932TIP3    H227288   0.879   4.355  11.234
 1933TIP3   OH227289   1.571   4.850  11.202
 1933TIP3    H127290   1.635   4.899  11.151
 1933TIP3    H227291   1.500   4.832  11.141
 1934TIP3   OH227292   1.019   4.948  11.495
 1934TIP3    H127293   1.043   4.916  11.582
 1934TIP3    H227294   0.990   5.038  11.509
 1935TIP3   OH227295   1.267   4.324  10.366
 1935TIP3    H127296   1.355   4.341  10.399
 1935TIP3    H227297   1.264   4.368  10.281
 1936TIP3   OH227298   0.382   4.886  10.930
 1936TIP3    H127299   0.451   4.867  10.865
 1936TIP3    H227300   0.310   4.828  10.906
 1937TIP3   OH227301   0.091   4.666  11.485
 1937TIP3    H127302   0.132   4.626  11.561
 1937TIP3    H227303   0.043   4.594  11.444
 1938TIP3   OH227304   0.811   4.666  11.682
 1938TIP3    H127305   0.744   4.632  11.623
 1938TIP3    H227306   0.890   4.617  11.660
 1939TIP3   OH227307   1.221   5.227  11.499
 1939TIP3    H127308   1.128   5.229  11.476
 1939TIP3    H227309   1.222   5.239  11.594
 1940TIP3   OH227310   1.837   5.062  11.581
 1940TIP3    H127311   1.745   5.044  11.559
 1940TIP3    H227312   1.885   5.028  11.505
 1941TIP3   OH227313   1.367   4.785  11.022
 1941TIP3    H127314   1.272   4.774  11.023
 1941TIP3    H227315   1.399   4.710  10.972
 1942TIP3   OH227316   0.674   5.204  10.684
 1942TIP3    H127317   0.710   5.289  10.657
 1942TIP3    H227318   0.592   5.196  10.636
 1943TIP3   OH227319   0.803   4.945  10.685
 1943TIP3    H127320   0.777   5.036  10.670
 1943TIP3    H227321   0.721   4.898  10.700
 1944TIP3   OH227322   0.826   5.368  11.275
 1944TIP3    H127323   0.886   5.440  11.254
 1944TIP3    H227324   0.877   5.308  11.329
 1945TIP3   OH227325   0.649   5.509  10.570
 1945TIP3    H127326   0.560   5.497  10.601
 1945TIP3    H227327   0.645   5.491  10.476
 1946TIP3   OH227328   1.118   4.998  11.240
 1946TIP3    H127329   1.088   4.976  11.328
 1946TIP3    H227330   1.170   4.923  11.212
 1947TIP3   OH227331   1.440   5.410  11.466
 1947TIP3    H127332   1.356   5.365  11.459
 1947TIP3    H227333   1.433   5.485  11.407
 1948TIP3   OH227334   1.907   5.577  10.144
 1948TIP3    H127335   1.900   5.482  10.134
 1948TIP3    H227336   1.819   5.605  10.168
 1949TIP3   OH227337   0.243   4.171  11.428
 1949TIP3    H127338   0.156   4.204  11.450
 1949TIP3    H227339   0.253   4.092  11.482
 1950TIP3   OH227340   0.217   5.376  11.248
 1950TIP3    H127341   0.251   5.296  11.286
 1950TIP3    H227342   0.218   5.439  11.320
 1951TIP3   OH227343   0.410   4.893  10.299
 1951TIP3    H127344   0.322   4.925  10.317
 1951TIP3    H227345   0.456   4.969  10.263
 1952TIP3   OH227346   1.124   4.126  11.316
 1952TIP3    H127347   1.199   4.151  11.371
 1952TIP3    H227348   1.090   4.047  11.358
 1953TIP3   OH227349   1.196   4.095  10.522
 1953TIP3    H127350   1.188   4.141  10.438
 1953TIP3    H227351   1.255   4.149  10.573
 1954TIP3   OH227352   0.883   4.301  10.512
 1954TIP3    H127353   0.955   4.363  10.517
 1954TIP3    H227354   0.867   4.275  10.603
 1955TIP3   OH227355   0.984   4.372  11.384
 1955TIP3    H127356   0.990   4.399  11.476
 1955TIP3    H227357   1.023   4.285  11.382
 1956TIP3   OH227358   0.962   3.982  10.625
 1956TIP3    H127359   0.922   4.061  10.660
 1956TIP3    H227360   1.037   4.013  10.574
 1957TIP3   OH227361   1.578   4.181  11.513
 1957TIP3    H127362   1.487   4.187  11.485
 1957TIP3    H227363   1.628   4.203  11.434
 1958TIP3   OH227364   1.436   4.541  10.899
 1958TIP3    H127365   1.356   4.497  10.870
 1958TIP3    H227366   1.483   4.475  10.950
 1959TIP3   OH227367   0.537   5.097  10.159
 1959TIP3    H127368   0.583   5.174  10.191
 1959TIP3    H227369   0.499   5.125  10.076
 1960TIP3   OH227370   0.116   4.462  10.068
 1960TIP3    H127371   0.180   4.514  10.019
 1960TIP3    H227372   0.036   4.513  10.066
 1961TIP3   OH227373   1.569   5.491  11.064
 1961TIP3    H127374   1.551   5.565  11.006
 1961TIP3    H227375   1.664   5.486  11.068
 1962TIP3   OH227376   0.298   3.901  10.934
 1962TIP3    H127377   0.289   3.888  10.840
 1962TIP3    H227378   0.267   3.819  10.973
 1963TIP3   OH227379   0.183   5.339  10.550
 1963TIP3    H127380   0.150   5.252  10.526
 1963TIP3    H227381   0.146   5.398  10.484
 1964TIP3   OH227382   0.172   5.584  11.726
 1964TIP3    H127383   0.226   5.572  11.804
 1964TIP3    H227384   0.175   5.499  11.681
 1965TIP3   OH227385   0.577   5.380  11.863
 1965TIP3    H127386   0.656   5.329  11.883
 1965TIP3    H227387   0.556   5.357  11.772
 1966TIP3   OH227388   1.214   5.254  11.773
 1966TIP3    H127389   1.206   5.170  11.818
 1966TIP3    H227390   1.290   5.296  11.813
 1967TIP3   OH227391   1.475   5.351  10.059
 1967TIP3    H127392   1.417   5.287  10.100
 1967TIP3    H227393   1.557   5.304  10.046
 1968TIP3   OH227394   0.135   4.921  11.801
 1968TIP3    H127395   0.139   4.828  11.778
 1968TIP3    H227396   0.043   4.944  11.795
 1969TIP3   OH227397   0.779   4.941  11.750
 1969TIP3    H127398   0.758   4.987  11.669
 1969TIP3    H227399   0.804   4.853  11.722
 1970TIP3   OH227400   1.346   4.975  11.521
 1970TIP3    H127401   1.436   4.992  11.491
 1970TIP3    H227402   1.299   5.056  11.502
 1971TIP3   OH227403   0.187   4.644  11.753
 1971TIP3    H127404   0.266   4.591  11.737
 1971TIP3    H227405   0.181   4.649  11.848
 1972TIP3   OH227406   0.632   4.552  11.496
 1972TIP3    H127407   0.552   4.605  11.489
 1972TIP3    H227408   0.691   4.590  11.431
 1973TIP3   OH227409   1.116   4.803  11.776
 1973TIP3    H127410   1.188   4.763  11.728
 1973TIP3    H227411   1.083   4.734  11.833
 1974TIP3   OH227412   0.657   4.287  11.565
 1974TIP3    H127413   0.666   4.234  11.486
 1974TIP3    H227414   0.651   4.377  11.533
 1975TIP3   OH227415   0.687   4.136  11.327
 1975TIP3    H127416   0.739   4.182  11.261
 1975TIP3    H227417   0.598   4.135  11.290
 1976TIP3   OH227418   0.813   4.681  11.340
 1976TIP3    H127419   0.901   4.716  11.356
 1976TIP3    H227420   0.769   4.750  11.290
 1977TIP3   OH227421   1.249   4.452  11.814
 1977TIP3    H127422   1.276   4.363  11.792
 1977TIP3    H227423   1.331   4.497  11.836
 1978TIP3   OH227424   1.378   4.740  11.648
 1978TIP3    H127425   1.352   4.822  11.607
 1978TIP3    H227426   1.474   4.739  11.643
 1979TIP3   OH227427   0.492   4.339  11.789
 1979TIP3    H127428   0.406   4.297  11.780
 1979TIP3    H227429   0.534   4.325  11.704
 1980TIP3   OH227430   0.738   3.873  11.403
 1980TIP3    H127431   0.720   3.964  11.379
 1980TIP3    H227432   0.668   3.823  11.359
 1981TIP3   OH227433   0.876   4.253  11.734
 1981TIP3    H127434   0.835   4.228  11.817
 1981TIP3    H227435   0.803   4.258  11.672
 1982TIP3   OH227436   1.148   4.201  11.677
 1982TIP3    H127437   1.055   4.204  11.700
 1982TIP3    H227438   1.189   4.149  11.746
 1983TIP3   OH227439   1.307   4.078  11.872
 1983TIP3    H127440   1.286   3.986  11.859
 1983TIP3    H227441   1.279   4.097  11.962
 1984TIP3   OH227442   0.269   4.162  11.766
 1984TIP3    H127443   0.272   4.084  11.712
 1984TIP3    H227444   0.286   4.130  11.855
 1985TIP3   OH227445   0.736   3.785  11.661
 1985TIP3    H127446   0.789   3.706  11.652
 1985TIP3    H227447   0.731   3.820  11.572
 1986TIP3   OH227448   0.808   3.938  11.880
 1986TIP3    H127449   0.787   3.888  11.801
 1986TIP3    H227450   0.750   4.014  11.877
 1987TIP3   OH227451   0.050   5.660  10.589
 1987TIP3    H127452   0.042   5.600  10.515
 1987TIP3    H227453   0.049   5.603  10.666
 1988TIP3   OH227454   0.079   5.499  10.814
 1988TIP3    H127455   0.087   5.405  10.830
 1988TIP3    H227456   0.130   5.539  10.884
 1989TIP3   OH227457   1.839   5.493  11.126
 1989TIP3    H127458   1.839   5.515  11.219
 1989TIP3    H227459   1.913   5.541  11.090
 1990TIP3   OH227460   1.774   5.477  11.407
 1990TIP3    H127461   1.727   5.404  11.366
 1990TIP3    H227462   1.823   5.437  11.478
 1991TIP3   OH227463   1.640   5.053  11.882
 1991TIP3    H127464   1.553   5.061  11.922
 1991TIP3    H227465   1.687   5.131  11.912
 1992TIP3   OH227466   1.825   4.682  10.607
 1992TIP3    H127467   1.731   4.672  10.621
 1992TIP3    H227468   1.862   4.691  10.695
 1993TIP3   OH227469   1.814   4.968  11.131
 1993TIP3    H127470   1.862   4.913  11.068
 1993TIP3    H227471   1.838   5.057  11.107
 1994TIP3   OH227472   1.621   5.254  11.328
 1994TIP3    H127473   1.550   5.302  11.371
 1994TIP3    H227474   1.588   5.239  11.239
 1995TIP3   OH227475   1.910   4.665  10.242
 1995TIP3    H127476   1.882   4.638  10.155
 1995TIP3    H227477   1.979   4.729  10.227
 1996TIP3   OH227478   1.562   4.614  10.659
 1996TIP3    H127479   1.557   4.534  10.608
 1996TIP3    H227480   1.523   4.592  10.743
 1997TIP3   OH227481   0.084   4.765  11.091
 1997TIP3    H127482   0.099   4.776  10.997
 1997TIP3    H227483   0.164   4.724  11.123
 1998TIP3   OH227484   1.653   4.752  11.616
 1998TIP3    H127485   1.712   4.679  11.597
 1998TIP3    H227486   1.669   4.815  11.546
 1999TIP3   OH227487   1.791   4.512  11.606
 1999TIP3    H127488   1.706   4.475  11.632
 1999TIP3    H227489   1.855   4.446  11.632
 2000TIP3   OH227490   1.567   4.373  10.508
 2000TIP3    H127491   1.658   4.345  10.515
 2000TIP3    H227492   1.561   4.416  10.423
 2001TIP3   OH227493   1.596   4.359  11.051
 2001TIP3    H127494   1.687   4.380  11.031
 2001TIP3    H227495   1.587   4.379  11.144
 2002TIP3   OH227496   1.616   4.444  11.324
 2002TIP3    H127497   1.534   4.475  11.362
 2002TIP3    H227498   1.670   4.522  11.315
 2003TIP3   OH227499   0.061   4.301  11.641
 2003TIP3    H127500   0.128   4.260  11.695
 2003TIP3    H227501   0.007   4.228  11.609
 2004TIP3   OH227502   1.843   3.819  11.822
 2004TIP3    H127503   1.924   3.776  11.793
 2004TIP3    H227504   1.834   3.894  11.762
 2005TIP3   OH227505   0.163   4.141  10.936
 2005TIP3    H127506   0.201   4.053  10.940
 2005TIP3    H227507   0.237   4.199  10.951
 2006TIP3   OH227508  -0.009   4.497  11.077
 2006TIP3    H127509   0.061   4.474  11.016
 2006TIP3    H227510   0.000   4.591  11.091
 2007TIP3   OH227511   1.775   4.034  11.665
 2007TIP3    H127512   1.705   4.087  11.704
 2007TIP3    H227513   1.738   4.000  11.584
 2008TIP3   OH227514   0.104   4.086  10.439
 2008TIP3    H127515   0.014   4.052  10.444
 2008TIP3    H227516   0.095   4.174  10.403
 2009TIP3   OH227517   1.537   5.559  10.669
 2009TIP3    H127518   1.581   5.519  10.593
 2009TIP3    H227519   1.601   5.624  10.701
 2010TIP3   OH227520   7.355   3.877  11.319
 2010TIP3    H127521   7.292   3.808  11.336
 2010TIP3    H227522   7.311   3.934  11.256
 2011TIP3   OH227523   0.216   5.310  11.636
 2011TIP3    H127524   0.227   5.240  11.571
 2011TIP3    H227525   0.143   5.280  11.691
 2012TIP3   OH227526   0.561   5.365  11.346
 2012TIP3    H127527   0.533   5.451  11.317
 2012TIP3    H227528   0.654   5.361  11.325
 2013TIP3   OH227529   0.932   5.479  11.624
 2013TIP3    H127530   0.944   5.450  11.715
 2013TIP3    H227531   1.010   5.531  11.605
 2014TIP3   OH227532   1.161   5.625  11.583
 2014TIP3    H127533   1.218   5.578  11.521
 2014TIP3    H227534   1.220   5.652  11.653
 2015TIP3   OH227535   1.664   3.854  11.472
 2015TIP3    H127536   1.618   3.893  11.397
 2015TIP3    H227537   1.685   3.765  11.443
 2016TIP3   OH227538   0.258   5.677  11.369
 2016TIP3    H127539   0.174   5.713  11.341
 2016TIP3    H227540   0.276   5.721  11.452
 2017TIP3   OH227541   0.513   5.627  11.276
 2017TIP3    H127542   0.422   5.642  11.302
 2017TIP3    H227543   0.522   5.672  11.192
 2018TIP3   OH227544   0.977   5.585  11.199
 2018TIP3    H127545   0.926   5.618  11.126
 2018TIP3    H227546   0.986   5.660  11.258
 2019TIP3   OH227547   1.209   5.490  11.312
 2019TIP3    H127548   1.131   5.517  11.263
 2019TIP3    H227549   1.279   5.543  11.276
 2020TIP3   OH227550   1.451   5.624  11.273
 2020TIP3    H127551   1.475   5.714  11.254
 2020TIP3    H227552   1.488   5.573  11.201
 2021TIP3   OH227553   0.248   5.554  11.031
 2021TIP3    H127554   0.225   5.508  11.112
 2021TIP3    H227555   0.318   5.502  10.993
 2022TIP3   OH227556   0.444   5.397  10.929
 2022TIP3    H127557   0.429   5.307  10.959
 2022TIP3    H227558   0.533   5.417  10.957
 2023TIP3   OH227559   0.705   5.417  11.027
 2023TIP3    H127560   0.714   5.330  10.988
 2023TIP3    H227561   0.739   5.407  11.116
 2024TIP3   OH227562   1.032   3.916  10.890
 2024TIP3    H127563   0.951   3.873  10.919
 2024TIP3    H227564   1.019   3.931  10.796
 2025TIP3   OH227565   1.496   3.802  10.883
 2025TIP3    H127566   1.570   3.863  10.879
 2025TIP3    H227567   1.500   3.754  10.800
 2026TIP3   OH227568   1.724   3.936  10.810
 2026TIP3    H127569   1.760   3.862  10.761
 2026TIP3    H227570   1.774   4.012  10.781
 2027TIP3   OH227571   0.263   3.860  10.666
 2027TIP3    H127572   0.189   3.855  10.606
 2027TIP3    H227573   0.307   3.775  10.658
 2028TIP3   OH227574   0.241   3.860  10.352
 2028TIP3    H127575   0.291   3.882  10.273
 2028TIP3    H227576   0.193   3.940  10.373
 2029TIP3   OH227577   0.750   3.815  10.693
 2029TIP3    H127578   0.820   3.872  10.660
 2029TIP3    H227579   0.761   3.816  10.788
 2030TIP3   OH227580   1.269   3.873  10.675
 2030TIP3    H127581   1.247   3.946  10.618
 2030TIP3    H227582   1.294   3.803  10.615
 2031TIP3   OH227583   0.042   5.498  10.367
 2031TIP3    H127584   0.006   5.414  10.340
 2031TIP3    H227585   0.007   5.561  10.304
 2032TIP3   OH227586   0.360   4.039  10.157
 2032TIP3    H127587   0.349   4.038  10.062
 2032TIP3    H227588   0.453   4.060  10.170
 2033TIP3   OH227589   0.898   4.092  10.331
 2033TIP3    H127590   0.845   4.027  10.378
 2033TIP3    H227591   0.894   4.170  10.386
 2034TIP3   OH227592   1.694   5.480  10.454
 2034TIP3    H127593   1.728   5.397  10.421
 2034TIP3    H227594   1.686   5.535  10.376
 2035TIP3   OH227595   0.286   3.927  11.613
 2035TIP3    H127596   0.229   3.857  11.648
 2035TIP3    H227597   0.370   3.912  11.656
 2036TIP3   OH227598   0.496   3.854  11.776
 2036TIP3    H127599   0.579   3.824  11.740
 2036TIP3    H227600   0.460   3.778  11.820
 2037TIP3   OH227601   1.298   3.805  11.815
 2037TIP3    H127602   1.299   3.754  11.896
 2037TIP3    H227603   1.390   3.808  11.788
 2038TIP3   OH227604   1.606   5.401  11.690
 2038TIP3    H127605   1.550   5.390  11.613
 2038TIP3    H227606   1.599   5.494  11.711
 2039TIP3   OH227607   2.954   4.703  11.028
 2039TIP3    H127608   2.979   4.665  11.112
 2039TIP3    H227609   2.903   4.634  10.985
 2040TIP3   OH227610   2.197   4.642  11.167
 2040TIP3    H127611   2.196   4.572  11.233
 2040TIP3    H227612   2.290   4.657  11.149
 2041TIP3   OH227613   3.328   5.019  10.872
 2041TIP3    H127614   3.295   4.938  10.911
 2041TIP3    H227615   3.355   5.073  10.946
 2042TIP3   OH227616   2.312   5.106  10.961
 2042TIP3    H127617   2.268   5.022  10.973
 2042TIP3    H227618   2.349   5.101  10.873
 2043TIP3   OH227619   1.963   4.487  10.466
 2043TIP3    H127620   1.917   4.552  10.519
 2043TIP3    H227621   1.951   4.517  10.376
 2044TIP3   OH227622   2.006   4.678  10.821
 2044TIP3    H127623   2.036   4.588  10.830
 2044TIP3    H227624   2.068   4.718  10.760
 2045TIP3   OH227625   3.097   5.475  10.928
 2045TIP3    H127626   3.129   5.440  10.845
 2045TIP3    H227627   3.088   5.399  10.985
 2046TIP3   OH227628   2.828   4.946  11.081
 2046TIP3    H127629   2.863   4.867  11.040
 2046TIP3    H227630   2.901   4.982  11.131
 2047TIP3   OH227631   3.684   4.107  11.139
 2047TIP3    H127632   3.679   4.203  11.142
 2047TIP3    H227633   3.751   4.089  11.074
 2048TIP3   OH227634   3.098   4.368  11.078
 2048TIP3    H127635   3.107   4.273  11.088
 2048TIP3    H227636   3.082   4.381  10.984
 2049TIP3   OH227637   2.462   4.188  10.783
 2049TIP3    H127638   2.469   4.274  10.742
 2049TIP3    H227639   2.405   4.138  10.724
 2050TIP3   OH227640   3.239   4.213  10.681
 2050TIP3    H127641   3.283   4.171  10.754
 2050TIP3    H227642   3.310   4.241  10.623
 2051TIP3   OH227643   2.089   4.418  10.874
 2051TIP3    H127644   2.163   4.383  10.924
 2051TIP3    H227645   2.110   4.399  10.783
 2052TIP3   OH227646   2.572   4.585  10.851
 2052TIP3    H127647   2.660   4.551  10.867
 2052TIP3    H227648   2.537   4.529  10.782
 2053TIP3   OH227649   3.637   4.269  11.445
 2053TIP3    H127650   3.602   4.335  11.385
 2053TIP3    H227651   3.719   4.307  11.477
 2054TIP3   OH227652   2.316   4.107  11.213
 2054TIP3    H127653   2.294   4.162  11.137
 2054TIP3    H227654   2.245   4.123  11.275
 2055TIP3   OH227655   2.585   4.887  11.203
 2055TIP3    H127656   2.532   4.965  11.220
 2055TIP3    H227657   2.662   4.919  11.157
 2056TIP3   OH227658   3.347   4.138  10.930
 2056TIP3    H127659   3.419   4.077  10.919
 2056TIP3    H227660   3.388   4.217  10.966
 2057TIP3   OH227661   2.296   4.271  10.991
 2057TIP3    H127662   2.354   4.327  11.043
 2057TIP3    H227663   2.351   4.238  10.920
 2058TIP3   OH227664   2.426   5.111  11.284
 2058TIP3    H127665   2.436   5.199  11.322
 2058TIP3    H227666   2.338   5.084  11.310
 2059TIP3   OH227667   2.035   5.087  10.458
 2059TIP3    H127668   1.964   5.136  10.418
 2059TIP3    H227669   1.993   5.011  10.498
 2060TIP3   OH227670   3.385   5.224  11.073
 2060TIP3    H127671   3.290   5.226  11.086
 2060TIP3    H227672   3.408   5.313  11.048
 2061TIP3   OH227673   3.429   4.010  11.242
 2061TIP3    H127674   3.365   4.036  11.175
 2061TIP3    H227675   3.513   4.039  11.207
 2062TIP3   OH227676   2.679   3.800  10.966
 2062TIP3    H127677   2.654   3.708  10.968
 2062TIP3    H227678   2.599   3.847  10.992
 2063TIP3   OH227679   3.211   5.391  10.690
 2063TIP3    H127680   3.246   5.304  10.670
 2063TIP3    H227681   3.286   5.450  10.679
 2064TIP3   OH227682   3.323   5.152  10.632
 2064TIP3    H127683   3.363   5.093  10.568
 2064TIP3    H227684   3.323   5.102  10.714
 2065TIP3   OH227685   3.483   5.026  11.458
 2065TIP3    H127686   3.539   4.951  11.436
 2065TIP3    H227687   3.511   5.095  11.399
 2066TIP3   OH227688   2.959   4.533  10.101
 2066TIP3    H127689   3.036   4.573  10.142
 2066TIP3    H227690   2.992   4.491  10.022
 2067TIP3   OH227691   3.668   4.622  11.219
 2067TIP3    H127692   3.674   4.684  11.292
 2067TIP3    H227693   3.720   4.662  11.150
 2068TIP3   OH227694   3.214   4.694  10.512
 2068TIP3    H127695   3.210   4.784  10.545
 2068TIP3    H227696   3.293   4.658  10.552
 2069TIP3   OH227697   3.251   4.574  11.419
 2069TIP3    H127698   3.274   4.665  11.441
 2069TIP3    H227699   3.179   4.583  11.357
 2070TIP3   OH227700   2.399   4.788  10.763
 2070TIP3    H127701   2.369   4.765  10.675
 2070TIP3    H227702   2.472   4.729  10.780
 2071TIP3   OH227703   2.625   5.103  10.980
 2071TIP3    H127704   2.615   5.092  10.885
 2071TIP3    H227705   2.705   5.055  11.001
 2072TIP3   OH227706   2.458   4.668  11.090
 2072TIP3    H127707   2.497   4.652  11.003
 2072TIP3    H227708   2.503   4.746  11.122
 2073TIP3   OH227709   3.118   5.254  11.137
 2073TIP3    H127710   3.103   5.317  11.208
 2073TIP3    H227711   3.085   5.171  11.172
 2074TIP3   OH227712   2.587   5.099  11.545
 2074TIP3    H127713   2.524   5.160  11.583
 2074TIP3    H227714   2.543   5.065  11.466
 2075TIP3   OH227715   3.211   4.638  10.239
 2075TIP3    H127716   3.204   4.663  10.331
 2075TIP3    H227717   3.263   4.707  10.199
 2076TIP3   OH227718   2.274   4.709  11.498
 2076TIP3    H127719   2.278   4.794  11.543
 2076TIP3    H227720   2.183   4.700  11.471
 2077TIP3   OH227721   2.397   5.295  11.608
 2077TIP3    H127722   2.403   5.338  11.522
 2077TIP3    H227723   2.304   5.279  11.621
 2078TIP3   OH227724   2.307   4.704  10.520
 2078TIP3    H127725   2.295   4.778  10.461
 2078TIP3    H227726   2.319   4.629  10.461
 2079TIP3   OH227727   1.964   4.949  11.367
 2079TIP3    H127728   1.912   4.949  11.287
 2079TIP3    H227729   1.978   4.856  11.386
 2080TIP3   OH227730   1.914   5.222  11.091
 2080TIP3    H127731   2.003   5.247  11.118
 2080TIP3    H227732   1.866   5.304  11.087
 2081TIP3   OH227733   3.758   5.343  11.608
 2081TIP3    H127734   3.754   5.248  11.597
 2081TIP3    H227735   3.671   5.367  11.638
 2082TIP3   OH227736   2.824   5.234  11.500
 2082TIP3    H127737   2.819   5.316  11.548
 2082TIP3    H227738   2.742   5.189  11.519
 2083TIP3   OH227739   2.248   5.524  10.678
 2083TIP3    H127740   2.265   5.486  10.764
 2083TIP3    H227741   2.196   5.457  10.633
 2084TIP3   OH227742   3.221   5.449  10.166
 2084TIP3    H127743   3.239   5.361  10.200
 2084TIP3    H227744   3.187   5.498  10.241
 2085TIP3   OH227745   3.150   5.516  10.428
 2085TIP3    H127746   3.059   5.502  10.453
 2085TIP3    H227747   3.201   5.491  10.505
 2086TIP3   OH227748   3.403   4.390  11.619
 2086TIP3    H127749   3.366   4.467  11.576
 2086TIP3    H227750   3.426   4.331  11.547
 2087TIP3   OH227751   2.178   5.116  11.421
 2087TIP3    H127752   2.207   5.066  11.497
 2087TIP3    H227753   2.102   5.068  11.388
 2088TIP3   OH227754   2.425   3.903  11.053
 2088TIP3    H127755   2.351   3.893  10.992
 2088TIP3    H227756   2.401   3.978  11.107
 2089TIP3   OH227757   2.897   3.899  11.400
 2089TIP3    H127758   2.942   3.846  11.466
 2089TIP3    H227759   2.804   3.887  11.418
 2090TIP3   OH227760   3.157   4.311  11.482
 2090TIP3    H127761   3.107   4.268  11.414
 2090TIP3    H227762   3.175   4.399  11.447
 2091TIP3   OH227763   2.447   4.412  11.179
 2091TIP3    H127764   2.380   4.417  11.248
 2091TIP3    H227765   2.457   4.503  11.150
 2092TIP3   OH227766   2.441   4.430  10.658
 2092TIP3    H127767   2.346   4.435  10.646
 2092TIP3    H227768   2.475   4.416  10.570
 2093TIP3   OH227769   3.002   4.476  10.552
 2093TIP3    H127770   3.017   4.569  10.536
 2093TIP3    H227771   3.060   4.432  10.490
 2094TIP3   OH227772   2.904   4.465  11.651
 2094TIP3    H127773   2.852   4.396  11.692
 2094TIP3    H227774   2.990   4.457  11.693
 2095TIP3   OH227775   3.066   4.387  10.804
 2095TIP3    H127776   3.032   4.434  10.729
 2095TIP3    H227777   3.117   4.315  10.767
 2096TIP3   OH227778   2.234   4.435  11.354
 2096TIP3    H127779   2.243   4.475  11.440
 2096TIP3    H227780   2.191   4.351  11.371
 2097TIP3   OH227781   1.869   4.143  10.712
 2097TIP3    H127782   1.937   4.189  10.761
 2097TIP3    H227783   1.903   4.136  10.623
 2098TIP3   OH227784   3.028   4.557  11.256
 2098TIP3    H127785   3.060   4.495  11.191
 2098TIP3    H227786   2.956   4.511  11.300
 2099TIP3   OH227787   2.744   4.137  10.743
 2099TIP3    H127788   2.653   4.149  10.771
 2099TIP3    H227789   2.789   4.106  10.822
 2100TIP3   OH227790   2.162   4.361  10.620
 2100TIP3    H127791   2.100   4.396  10.557
 2100TIP3    H227792   2.183   4.274  10.587
 2101TIP3   OH227793   2.519   4.357  10.404
 2101TIP3    H127794   2.611   4.341  10.426
 2101TIP3    H227795   2.512   4.335  10.311
 2102TIP3   OH227796   3.112   4.093  11.078
 2102TIP3    H127797   3.039   4.053  11.030
 2102TIP3    H227798   3.185   4.092  11.015
 2103TIP3   OH227799   3.490   5.675  11.725
 2103TIP3    H127800   3.513   5.699  11.635
 2103TIP3    H227801   3.567   5.697  11.777
 2104TIP3   OH227802   2.237   4.955  11.641
 2104TIP3    H127803   2.300   4.943  11.712
 2104TIP3    H227804   2.151   4.952  11.684
 2105TIP3   OH227805   2.817   4.472  10.939
 2105TIP3    H127806   2.884   4.422  10.891
 2105TIP3    H227807   2.787   4.412  11.007
 2106TIP3   OH227808   2.274   4.087  10.601
 2106TIP3    H127809   2.223   4.009  10.621
 2106TIP3    H227810   2.285   4.086  10.506
 2107TIP3   OH227811   2.709   4.330  11.158
 2107TIP3    H127812   2.622   4.368  11.165
 2107TIP3    H227813   2.755   4.362  11.236
 2108TIP3   OH227814   3.357   4.847  11.222
 2108TIP3    H127815   3.440   4.890  11.200
 2108TIP3    H227816   3.320   4.821  11.137
 2109TIP3   OH227817   2.909   4.947  11.490
 2109TIP3    H127818   2.930   4.911  11.576
 2109TIP3    H227819   2.878   5.036  11.507
 2110TIP3   OH227820   3.188   4.375  10.372
 2110TIP3    H127821   3.276   4.360  10.406
 2110TIP3    H227822   3.198   4.450  10.313
 2111TIP3   OH227823   2.227   4.851  10.964
 2111TIP3    H127824   2.285   4.827  10.892
 2111TIP3    H227825   2.217   4.770  11.015
 2112TIP3   OH227826   1.995   4.688  11.479
 2112TIP3    H127827   2.000   4.646  11.564
 2112TIP3    H227828   1.916   4.652  11.439
 2113TIP3   OH227829   2.692   4.653  11.684
 2113TIP3    H127830   2.625   4.620  11.625
 2113TIP3    H227831   2.772   4.609  11.656
 2114TIP3   OH227832   3.105   5.227  11.499
 2114TIP3    H127833   3.013   5.227  11.476
 2114TIP3    H227834   3.107   5.236  11.594
 2115TIP3   OH227835   3.627   4.446  10.339
 2115TIP3    H127836   3.661   4.389  10.271
 2115TIP3    H227837   3.609   4.529  10.294
 2116TIP3   OH227838   3.722   5.071  11.634
 2116TIP3    H127839   3.633   5.072  11.668
 2116TIP3    H227840   3.722   5.003  11.567
 2117TIP3   OH227841   3.228   4.780  10.986
 2117TIP3    H127842   3.133   4.767  10.987
 2117TIP3    H227843   3.262   4.700  10.946
 2118TIP3   OH227844   2.458   5.187  10.737
 2118TIP3    H127845   2.493   5.270  10.705
 2118TIP3    H227846   2.449   5.133  10.658
 2119TIP3   OH227847   2.735   5.380  11.271
 2119TIP3    H127848   2.790   5.456  11.253
 2119TIP3    H227849   2.787   5.326  11.331
 2120TIP3   OH227850   2.519   5.453  10.689
 2120TIP3    H127851   2.441   5.490  10.647
 2120TIP3    H227852   2.582   5.525  10.691
 2121TIP3   OH227853   3.046   5.001  11.250
 2121TIP3    H127854   3.004   4.975  11.332
 2121TIP3    H227855   3.129   4.953  11.248
 2122TIP3   OH227856   3.318   5.407  11.467
 2122TIP3    H127857   3.240   5.352  11.463
 2122TIP3    H227858   3.302   5.476  11.403
 2123TIP3   OH227859   3.730   5.535  10.153
 2123TIP3    H127860   3.757   5.600  10.087
 2123TIP3    H227861   3.747   5.451  10.112
 2124TIP3   OH227862   2.109   4.185  11.389
 2124TIP3    H127863   2.019   4.207  11.366
 2124TIP3    H227864   2.102   4.131  11.468
 2125TIP3   OH227865   2.133   5.363  11.267
 2125TIP3    H127866   2.145   5.288  11.325
 2125TIP3    H227867   2.138   5.439  11.324
 2126TIP3   OH227868   2.284   4.910  10.345
 2126TIP3    H127869   2.224   4.985  10.335
 2126TIP3    H227870   2.361   4.935  10.294
 2127TIP3   OH227871   3.003   4.145  11.330
 2127TIP3    H127872   3.038   4.128  11.243
 2127TIP3    H227873   2.963   4.062  11.356
 2128TIP3   OH227874   3.060   4.133  10.478
 2128TIP3    H127875   3.086   4.204  10.419
 2128TIP3    H227876   3.118   4.143  10.553
 2129TIP3   OH227877   2.768   4.311  10.519
 2129TIP3    H127878   2.845   4.368  10.528
 2129TIP3    H227879   2.770   4.256  10.597
 2130TIP3   OH227880   2.859   4.382  11.386
 2130TIP3    H127881   2.871   4.409  11.477
 2130TIP3    H227882   2.899   4.295  11.381
 2131TIP3   OH227883   2.848   3.962  10.550
 2131TIP3    H127884   2.809   4.029  10.606
 2131TIP3    H227885   2.924   4.005  10.511
 2132TIP3   OH227886   3.412   4.126  11.503
 2132TIP3    H127887   3.391   4.085  11.419
 2132TIP3    H227888   3.498   4.166  11.489
 2133TIP3   OH227889   3.305   4.527  10.888
 2133TIP3    H127890   3.224   4.479  10.869
 2133TIP3    H227891   3.353   4.470  10.948
 2134TIP3   OH227892   3.456   5.498  11.060
 2134TIP3    H127893   3.423   5.568  11.005
 2134TIP3    H227894   3.551   5.500  11.049
 2135TIP3   OH227895   2.172   3.883  10.934
 2135TIP3    H127896   2.163   3.878  10.839
 2135TIP3    H227897   2.136   3.800  10.965
 2136TIP3   OH227898   2.093   5.319  10.592
 2136TIP3    H127899   2.054   5.370  10.521
 2136TIP3    H227900   2.095   5.230  10.559
 2137TIP3   OH227901   2.021   5.561  11.715
 2137TIP3    H127902   2.080   5.527  11.783
 2137TIP3    H227903   1.975   5.483  11.683
 2138TIP3   OH227904   2.442   5.456  11.847
 2138TIP3    H127905   2.524   5.448  11.895
 2138TIP3    H227906   2.449   5.391  11.777
 2139TIP3   OH227907   3.101   5.253  11.773
 2139TIP3    H127908   3.092   5.170  11.820
 2139TIP3    H227909   3.179   5.293  11.810
 2140TIP3   OH227910   2.003   4.986  11.790
 2140TIP3    H127911   1.989   4.902  11.833
 2140TIP3    H227912   1.929   4.995  11.730
 2141TIP3   OH227913   2.636   4.924  11.760
 2141TIP3    H127914   2.630   4.971  11.677
 2141TIP3    H227915   2.669   4.838  11.737
 2142TIP3   OH227916   3.226   4.963  11.526
 2142TIP3    H127917   3.315   4.979  11.496
 2142TIP3    H227918   3.179   5.045  11.506
 2143TIP3   OH227919   2.081   4.592  11.744
 2143TIP3    H127920   2.175   4.598  11.761
 2143TIP3    H227921   2.042   4.650  11.810
 2144TIP3   OH227922   2.507   4.554  11.491
 2144TIP3    H127923   2.430   4.611  11.489
 2144TIP3    H227924   2.568   4.595  11.430
 2145TIP3   OH227925   2.684   4.493  10.074
 2145TIP3    H127926   2.649   4.580  10.093
 2145TIP3    H227927   2.779   4.502  10.086
 2146TIP3   OH227928   2.985   4.814  11.774
 2146TIP3    H127929   3.067   4.782  11.736
 2146TIP3    H227930   2.956   4.743  11.831
 2147TIP3   OH227931   2.538   4.284  11.536
 2147TIP3    H127932   2.552   4.235  11.456
 2147TIP3    H227933   2.532   4.375  11.507
 2148TIP3   OH227934   2.574   4.128  11.307
 2148TIP3    H127935   2.626   4.176  11.243
 2148TIP3    H227936   2.486   4.127  11.270
 2149TIP3   OH227937   2.698   4.683  11.348
 2149TIP3    H127938   2.789   4.710  11.357
 2149TIP3    H227939   2.657   4.753  11.296
 2150TIP3   OH227940   3.164   4.486  11.787
 2150TIP3    H127941   3.248   4.459  11.824
 2150TIP3    H227942   3.184   4.565  11.736
 2151TIP3   OH227943   3.242   4.742  11.682
 2151TIP3    H127944   3.228   4.819  11.628
 2151TIP3    H227945   3.336   4.725  11.674
 2152TIP3   OH227946   2.370   4.308  11.754
 2152TIP3    H127947   2.287   4.265  11.736
 2152TIP3    H227948   2.417   4.303  11.670
 2153TIP3   OH227949   2.619   3.874  11.405
 2153TIP3    H127950   2.605   3.963  11.374
 2153TIP3    H227951   2.553   3.822  11.359
 2154TIP3   OH227952   2.742   4.253  11.719
 2154TIP3    H127953   2.693   4.230  11.799
 2154TIP3    H227954   2.675   4.261  11.652
 2155TIP3   OH227955   3.005   4.163  11.737
 2155TIP3    H127956   2.921   4.186  11.698
 2155TIP3    H227957   2.983   4.137  11.827
 2156TIP3   OH227958   3.249   4.057  11.860
 2156TIP3    H127959   3.224   3.965  11.846
 2156TIP3    H227960   3.209   4.080  11.945
 2157TIP3   OH227961   2.144   4.141  11.751
 2157TIP3    H127962   2.150   4.057  11.707
 2157TIP3    H227963   2.163   4.122  11.843
 2158TIP3   OH227964   2.610   3.784  11.663
 2158TIP3    H127965   2.668   3.709  11.654
 2158TIP3    H227966   2.607   3.822  11.575
 2159TIP3   OH227967   2.686   3.938  11.881
 2159TIP3    H127968   2.663   3.890  11.801
 2159TIP3    H227969   2.628   4.014  11.881
 2160TIP3   OH227970   2.723   5.781  10.213
 2160TIP3    H127971   2.771   5.843  10.158
 2160TIP3    H227972   2.678   5.724  10.150
 2161TIP3   OH227973   1.866   5.642  10.619
 2161TIP3    H127974   1.833   5.591  10.545
 2161TIP3    H227975   1.893   5.576  10.683
 2162TIP3   OH227976   1.948   5.461  10.803
 2162TIP3    H127977   1.974   5.385  10.751
 2162TIP3    H227978   1.999   5.454  10.883
 2163TIP3   OH227979   3.733   5.590  11.100
 2163TIP3    H127980   3.722   5.562  11.191
 2163TIP3    H227981   3.775   5.515  11.058
 2164TIP3   OH227982   3.692   5.474  11.361
 2164TIP3    H127983   3.632   5.406  11.330
 2164TIP3    H227984   3.739   5.434  11.434
 2165TIP3   OH227985   3.539   5.069  11.873
 2165TIP3    H127986   3.456   5.068  11.919
 2165TIP3    H227987   3.590   5.137  11.916
 2166TIP3   OH227988   3.771   4.821  10.348
 2166TIP3    H127989   3.798   4.911  10.368
 2166TIP3    H227990   3.732   4.789  10.430
 2167TIP3   OH227991   3.663   4.710  10.574
 2167TIP3    H127992   3.580   4.671  10.603
 2167TIP3    H227993   3.723   4.696  10.648
 2168TIP3   OH227994   3.576   4.994  11.119
 2168TIP3    H127995   3.663   4.985  11.079
 2168TIP3    H227996   3.542   5.076  11.085
 2169TIP3   OH227997   3.512   5.273  11.318
 2169TIP3    H127998   3.438   5.304  11.369
 2169TIP3    H227999   3.474   5.245  11.234
 2170TIP3   OH228000   3.591   4.682  10.192
 2170TIP3    H128001   3.520   4.745  10.185
 2170TIP3    H228002   3.661   4.730  10.238
 2171TIP3   OH228003   3.428   4.573  10.644
 2171TIP3    H128004   3.434   4.484  10.609
 2171TIP3    H228005   3.395   4.561  10.733
 2172TIP3   OH228006   1.943   4.702  11.085
 2172TIP3    H128007   1.956   4.710  10.991
 2172TIP3    H228008   2.032   4.690  11.120
 2173TIP3   OH228009   3.509   4.694  11.675
 2173TIP3    H128010   3.562   4.617  11.697
 2173TIP3    H228011   3.559   4.737  11.605
 2174TIP3   OH228012   3.643   4.464  11.739
 2174TIP3    H128013   3.570   4.424  11.691
 2174TIP3    H228014   3.720   4.414  11.713
 2175TIP3   OH228015   3.439   4.325  10.502
 2175TIP3    H128016   3.465   4.234  10.502
 2175TIP3    H228017   3.505   4.370  10.449
 2176TIP3   OH228018   3.461   4.355  11.049
 2176TIP3    H128019   3.554   4.366  11.032
 2176TIP3    H228020   3.450   4.382  11.140
 2177TIP3   OH228021   3.478   4.452  11.310
 2177TIP3    H128022   3.402   4.503  11.337
 2177TIP3    H228023   3.540   4.517  11.278
 2178TIP3   OH228024   1.922   4.267  11.641
 2178TIP3    H128025   2.006   4.252  11.685
 2178TIP3    H228026   1.873   4.187  11.656
 2179TIP3   OH228027   3.750   3.852  11.837
 2179TIP3    H128028   3.812   3.794  11.794
 2179TIP3    H228029   3.741   3.926  11.777
 2180TIP3   OH228030   3.491   4.059  10.521
 2180TIP3    H128031   3.516   4.002  10.594
 2180TIP3    H228032   3.460   3.998  10.453
 2181TIP3   OH228033   2.044   4.120  11.003
 2181TIP3    H128034   2.083   4.037  10.977
 2181TIP3    H228035   2.113   4.184  10.990
 2182TIP3   OH228036   1.858   4.437  11.035
 2182TIP3    H128037   1.930   4.411  10.976
 2182TIP3    H228038   1.877   4.527  11.058
 2183TIP3   OH228039   3.681   4.040  11.653
 2183TIP3    H128040   3.609   4.082  11.701
 2183TIP3    H228041   3.639   4.004  11.575
 2184TIP3   OH228042   1.980   4.103  10.460
 2184TIP3    H128043   1.963   4.023  10.410
 2184TIP3    H228044   2.030   4.158  10.400
 2185TIP3   OH228045   3.414   5.561  10.618
 2185TIP3    H128046   3.474   5.540  10.547
 2185TIP3    H228047   3.453   5.637  10.660
 2186TIP3   OH228048   1.902   3.875  11.301
 2186TIP3    H128049   1.841   3.886  11.373
 2186TIP3    H228050   1.886   3.950  11.244
 2187TIP3   OH228051   2.103   5.252  11.772
 2187TIP3    H128052   2.027   5.282  11.723
 2187TIP3    H228053   2.096   5.157  11.770
 2188TIP3   OH228054   2.470   5.372  11.332
 2188TIP3    H128055   2.439   5.461  11.313
 2188TIP3    H228056   2.565   5.377  11.321
 2189TIP3   OH228057   2.819   5.481  11.629
 2189TIP3    H128058   2.832   5.452  11.720
 2189TIP3    H228059   2.898   5.529  11.608
 2190TIP3   OH228060   3.049   5.620  11.578
 2190TIP3    H128061   3.108   5.570  11.522
 2190TIP3    H228062   3.103   5.645  11.653
 2191TIP3   OH228063   3.571   3.844  11.460
 2191TIP3    H128064   3.503   3.866  11.398
 2191TIP3    H228065   3.595   3.754  11.439
 2192TIP3   OH228066   2.146   5.635  11.377
 2192TIP3    H128067   2.068   5.675  11.337
 2192TIP3    H228068   2.160   5.686  11.457
 2193TIP3   OH228069   2.404   5.630  11.276
 2193TIP3    H128070   2.312   5.639  11.302
 2193TIP3    H228071   2.409   5.674  11.191
 2194TIP3   OH228072   2.862   5.608  11.185
 2194TIP3    H128073   2.813   5.644  11.112
 2194TIP3    H228074   2.876   5.681  11.245
 2195TIP3   OH228075   3.095   5.494  11.287
 2195TIP3    H128076   3.019   5.528  11.241
 2195TIP3    H228077   3.168   5.550  11.259
 2196TIP3   OH228078   3.347   5.629  11.278
 2196TIP3    H128079   3.350   5.719  11.247
 2196TIP3    H228080   3.384   5.578  11.206
 2197TIP3   OH228081   2.122   5.498  11.026
 2197TIP3    H128082   2.120   5.456  11.112
 2197TIP3    H228083   2.202   5.463  10.985
 2198TIP3   OH228084   2.346   5.391  10.910
 2198TIP3    H128085   2.342   5.311  10.857
 2198TIP3    H228086   2.431   5.430  10.888
 2199TIP3   OH228087   2.617   5.399  11.017
 2199TIP3    H128088   2.678   5.391  10.944
 2199TIP3    H228089   2.673   5.409  11.094
 2200TIP3   OH228090   2.903   3.979  10.929
 2200TIP3    H128091   2.834   3.912  10.936
 2200TIP3    H228092   2.972   3.936  10.879
 2201TIP3   OH228093   3.393   3.847  10.946
 2201TIP3    H128094   3.456   3.859  10.875
 2201TIP3    H228095   3.307   3.860  10.905
 2202TIP3   OH228096   3.572   3.890  10.741
 2202TIP3    H128097   3.636   3.832  10.699
 2202TIP3    H228098   3.621   3.969  10.762
 2203TIP3   OH228099   2.139   3.847  10.664
 2203TIP3    H128100   2.054   3.829  10.624
 2203TIP3    H228101   2.189   3.766  10.649
 2204TIP3   OH228102   2.658   3.788  10.665
 2204TIP3    H128103   2.717   3.852  10.625
 2204TIP3    H228104   2.668   3.803  10.759
 2205TIP3   OH228105   3.136   3.861  10.821
 2205TIP3    H128106   3.143   3.846  10.726
 2205TIP3    H228107   3.117   3.774  10.857
 2206TIP3   OH228108   3.404   3.834  10.388
 2206TIP3    H128109   3.433   3.862  10.301
 2206TIP3    H228110   3.324   3.783  10.371
 2207TIP3   OH228111   1.985   5.446  10.380
 2207TIP3    H128112   1.941   5.373  10.338
 2207TIP3    H228113   1.987   5.515  10.313
 2208TIP3   OH228114   3.581   5.502  10.393
 2208TIP3    H128115   3.566   5.408  10.391
 2208TIP3    H228116   3.629   5.521  10.313
 2209TIP3   OH228117   2.164   3.894  11.620
 2209TIP3    H128118   2.113   3.820  11.654
 2209TIP3    H228119   2.249   3.886  11.663
 2210TIP3   OH228120   2.371   3.840  11.793
 2210TIP3    H128121   2.455   3.818  11.752
 2210TIP3    H228122   2.344   3.761  11.839
 2211TIP3   OH228123   3.224   3.787  11.793
 2211TIP3    H128124   3.212   3.741  11.876
 2211TIP3    H228125   3.317   3.776  11.773
 2212TIP3   OH228126   3.497   5.402  11.680
 2212TIP3    H128127   3.436   5.389  11.607
 2212TIP3    H228128   3.485   5.493  11.705
 2213TIP3   OH228129   4.964   4.803  10.633
 2213TIP3    H128130   4.946   4.897  10.632
 2213TIP3    H228131   4.899   4.766  10.573
 2214TIP3   OH228132   4.869   4.712  11.065
 2214TIP3    H128133   4.895   4.655  11.137
 2214TIP3    H228134   4.818   4.654  11.006
 2215TIP3   OH228135   4.086   4.646  11.183
 2215TIP3    H128136   4.078   4.569  11.239
 2215TIP3    H228137   4.140   4.707  11.234
 2216TIP3   OH228138   5.250   5.024  10.883
 2216TIP3    H128139   5.200   4.953  10.922
 2216TIP3    H228140   5.258   5.089  10.952
 2217TIP3   OH228141   4.150   5.147  11.043
 2217TIP3    H128142   4.066   5.108  11.021
 2217TIP3    H228143   4.213   5.075  11.036
 2218TIP3   OH228144   3.857   4.479  10.511
 2218TIP3    H128145   3.858   4.549  10.576
 2218TIP3    H228146   3.771   4.485  10.471
 2219TIP3   OH228147   3.873   4.648  10.745
 2219TIP3    H128148   3.888   4.579  10.810
 2219TIP3    H228149   3.886   4.730  10.793
 2220TIP3   OH228150   4.964   5.502  10.885
 2220TIP3    H128151   5.010   5.460  10.812
 2220TIP3    H228152   4.901   5.436  10.915
 2221TIP3   OH228153   4.668   4.966  11.036
 2221TIP3    H128154   4.701   4.893  10.983
 2221TIP3    H228155   4.744   4.994  11.087
 2222TIP3   OH228156   5.576   4.134  11.143
 2222TIP3    H128157   5.580   4.176  11.230
 2222TIP3    H228158   5.580   4.207  11.082
 2223TIP3   OH228159   5.015   4.367  11.062
 2223TIP3    H128160   5.015   4.271  11.068
 2223TIP3    H228161   4.991   4.385  10.971
 2224TIP3   OH228162   4.346   4.196  10.881
 2224TIP3    H128163   4.342   4.279  10.833
 2224TIP3    H228164   4.373   4.132  10.816
 2225TIP3   OH228165   5.147   4.210  10.669
 2225TIP3    H128166   5.195   4.167  10.740
 2225TIP3    H228167   5.214   4.252  10.615
 2226TIP3   OH228168   3.947   4.409  10.884
 2226TIP3    H128169   4.016   4.384  10.945
 2226TIP3    H228170   3.981   4.388  10.798
 2227TIP3   OH228171   4.465   4.584  10.841
 2227TIP3    H128172   4.552   4.550  10.863
 2227TIP3    H228173   4.426   4.516  10.785
 2228TIP3   OH228174   5.581   4.262  11.388
 2228TIP3    H128175   5.530   4.339  11.363
 2228TIP3    H228176   5.520   4.209  11.440
 2229TIP3   OH228177   4.205   4.096  11.233
 2229TIP3    H128178   4.178   4.158  11.166
 2229TIP3    H228179   4.136   4.100  11.299
 2230TIP3   OH228180   4.896   5.061  10.570
 2230TIP3    H128181   4.893   5.064  10.474
 2230TIP3    H228182   4.866   5.147  10.597
 2231TIP3   OH228183   4.478   4.904  11.231
 2231TIP3    H128184   4.410   4.969  11.248
 2231TIP3    H228185   4.527   4.938  11.156
 2232TIP3   OH228186   5.260   4.126  10.920
 2232TIP3    H128187   5.175   4.116  10.963
 2232TIP3    H228188   5.295   4.208  10.955
 2233TIP3   OH228189   4.143   4.281  11.039
 2233TIP3    H128190   4.193   4.344  11.092
 2233TIP3    H228191   4.208   4.245  10.978
 2234TIP3   OH228192   4.308   5.101  11.321
 2234TIP3    H128193   4.313   5.195  11.301
 2234TIP3    H228194   4.218   5.089  11.353
 2235TIP3   OH228195   3.909   5.079  10.399
 2235TIP3    H128196   3.884   5.130  10.322
 2235TIP3    H228197   3.932   5.145  10.465
 2236TIP3   OH228198   5.273   5.232  11.083
 2236TIP3    H128199   5.181   5.232  11.109
 2236TIP3    H228200   5.290   5.321  11.051
 2237TIP3   OH228201   5.288   4.021  11.218
 2237TIP3    H128202   5.208   4.048  11.172
 2237TIP3    H228203   5.359   4.052  11.162
 2238TIP3   OH228204   4.584   3.823  10.995
 2238TIP3    H128205   4.567   3.796  10.905
 2238TIP3    H228206   4.498   3.853  11.027
 2239TIP3   OH228207   5.100   5.406  10.661
 2239TIP3    H128208   5.137   5.318  10.654
 2239TIP3    H228209   5.176   5.464  10.669
 2240TIP3   OH228210   5.225   5.166  10.643
 2240TIP3    H128211   5.247   5.110  10.568
 2240TIP3    H228212   5.234   5.109  10.719
 2241TIP3   OH228213   5.393   4.982  11.438
 2241TIP3    H128214   5.363   4.934  11.362
 2241TIP3    H228215   5.399   5.073  11.409
 2242TIP3   OH228216   4.796   4.718  10.425
 2242TIP3    H128217   4.738   4.794  10.417
 2242TIP3    H228218   4.805   4.685  10.336
 2243TIP3   OH228219   4.833   4.619  10.170
 2243TIP3    H128220   4.926   4.600  10.182
 2243TIP3    H228221   4.802   4.551  10.110
 2244TIP3   OH228222   5.527   4.683  11.258
 2244TIP3    H128223   5.454   4.743  11.246
 2244TIP3    H228224   5.587   4.702  11.186
 2245TIP3   OH228225   5.191   4.748  10.493
 2245TIP3    H128226   5.116   4.767  10.549
 2245TIP3    H228227   5.254   4.704  10.551
 2246TIP3   OH228228   5.155   4.529  11.453
 2246TIP3    H128229   5.142   4.600  11.516
 2246TIP3    H228230   5.090   4.544  11.385
 2247TIP3   OH228231   4.331   4.798  10.724
 2247TIP3    H128232   4.290   4.766  10.644
 2247TIP3    H228233   4.379   4.722  10.758
 2248TIP3   OH228234   4.498   5.170  10.949
 2248TIP3    H128235   4.466   5.158  10.860
 2248TIP3    H228236   4.551   5.092  10.966
 2249TIP3   OH228237   4.414   4.647  11.110
 2249TIP3    H128238   4.421   4.638  11.015
 2249TIP3    H228239   4.403   4.741  11.123
 2250TIP3   OH228240   5.022   5.236  11.184
 2250TIP3    H128241   4.987   5.283  11.260
 2250TIP3    H228242   4.973   5.153  11.183
 2251TIP3   OH228243   4.463   5.114  11.546
 2251TIP3    H128244   4.403   5.176  11.588
 2251TIP3    H228245   4.420   5.090  11.465
 2252TIP3   OH228246   5.110   4.640  10.254
 2252TIP3    H128247   5.135   4.679  10.338
 2252TIP3    H228248   5.129   4.708  10.189
 2253TIP3   OH228249   4.177   4.725  11.481
 2253TIP3    H128250   4.164   4.808  11.527
 2253TIP3    H228251   4.090   4.685  11.480
 2254TIP3   OH228252   4.837   5.334  10.609
 2254TIP3    H128253   4.928   5.359  10.624
 2254TIP3    H228254   4.800   5.405  10.556
 2255TIP3   OH228255   4.275   5.305  11.630
 2255TIP3    H128256   4.277   5.333  11.538
 2255TIP3    H228257   4.183   5.285  11.647
 2256TIP3   OH228258   4.218   4.714  10.479
 2256TIP3    H128259   4.182   4.784  10.426
 2256TIP3    H228260   4.145   4.653  10.491
 2257TIP3   OH228261   3.893   4.996  11.312
 2257TIP3    H128262   3.883   4.994  11.216
 2257TIP3    H228263   3.830   4.932  11.344
 2258TIP3   OH228264   3.787   5.302  11.054
 2258TIP3    H128265   3.792   5.212  11.021
 2258TIP3    H228266   3.844   5.302  11.131
 2259TIP3   OH228267   5.640   5.316  11.650
 2259TIP3    H128268   5.630   5.222  11.632
 2259TIP3    H228269   5.552   5.345  11.675
 2260TIP3   OH228270   4.704   5.236  11.499
 2260TIP3    H128271   4.698   5.317  11.550
 2260TIP3    H228272   4.619   5.194  11.512
 2261TIP3   OH228273   4.781   5.599  10.474
 2261TIP3    H128274   4.709   5.618  10.414
 2261TIP3    H228275   4.788   5.678  10.528
 2262TIP3   OH228276   4.146   5.501  10.692
 2262TIP3    H128277   4.170   5.452  10.770
 2262TIP3    H228278   4.086   5.444  10.644
 2263TIP3   OH228279   5.061   5.536  10.149
 2263TIP3    H128280   5.149   5.558  10.116
 2263TIP3    H228281   5.070   5.537  10.244
 2264TIP3   OH228282   5.052   5.564  10.421
 2264TIP3    H128283   4.959   5.575  10.437
 2264TIP3    H228284   5.083   5.510  10.494
 2265TIP3   OH228285   5.339   4.420  11.648
 2265TIP3    H128286   5.278   4.456  11.584
 2265TIP3    H228287   5.328   4.325  11.640
 2266TIP3   OH228288   4.069   5.127  11.461
 2266TIP3    H128289   4.090   5.069  11.534
 2266TIP3    H228290   4.002   5.080  11.411
 2267TIP3   OH228291   4.319   3.905  11.061
 2267TIP3    H128292   4.247   3.895  10.999
 2267TIP3    H228293   4.294   3.981  11.115
 2268TIP3   OH228294   4.793   3.894  11.409
 2268TIP3    H128295   4.834   3.842  11.478
 2268TIP3    H228296   4.699   3.886  11.425
 2269TIP3   OH228297   5.106   4.257  11.515
 2269TIP3    H128298   5.034   4.244  11.577
 2269TIP3    H228299   5.097   4.348  11.488
 2270TIP3   OH228300   4.794   4.076  10.120
 2270TIP3    H128301   4.735   4.085  10.195
 2270TIP3    H228302   4.818   3.983  10.119
 2271TIP3   OH228303   4.321   4.414  11.214
 2271TIP3    H128304   4.249   4.427  11.276
 2271TIP3    H228305   4.341   4.502  11.182
 2272TIP3   OH228306   4.338   4.391  10.688
 2272TIP3    H128307   4.245   4.388  10.665
 2272TIP3    H228308   4.376   4.316  10.642
 2273TIP3   OH228309   4.867   4.482  10.555
 2273TIP3    H128310   4.832   4.563  10.519
 2273TIP3    H228311   4.935   4.456  10.492
 2274TIP3   OH228312   4.796   4.490  11.654
 2274TIP3    H128313   4.739   4.421  11.686
 2274TIP3    H228314   4.877   4.479  11.703
 2275TIP3   OH228315   4.994   4.407  10.790
 2275TIP3    H128316   4.938   4.451  10.726
 2275TIP3    H228317   5.029   4.331  10.744
 2276TIP3   OH228318   4.083   4.417  11.358
 2276TIP3    H128319   4.027   4.472  11.413
 2276TIP3    H228320   4.055   4.328  11.377
 2277TIP3   OH228321   3.726   4.108  10.777
 2277TIP3    H128322   3.800   4.132  10.832
 2277TIP3    H228323   3.757   4.121  10.687
 2278TIP3   OH228324   3.921   4.285  10.325
 2278TIP3    H128325   3.938   4.330  10.242
 2278TIP3    H228326   3.902   4.354  10.387
 2279TIP3   OH228327   4.952   4.534  11.265
 2279TIP3    H128328   4.979   4.476  11.194
 2279TIP3    H228329   4.876   4.490  11.303
 2280TIP3   OH228330   4.656   4.195  10.863
 2280TIP3    H128331   4.618   4.176  10.777
 2280TIP3    H228332   4.580   4.202  10.921
 2281TIP3   OH228333   4.066   4.343  10.640
 2281TIP3    H128334   3.995   4.377  10.585
 2281TIP3    H228335   4.084   4.256  10.604
 2282TIP3   OH228336   4.467   4.316  10.311
 2282TIP3    H128337   4.436   4.322  10.401
 2282TIP3    H228338   4.431   4.395  10.269
 2283TIP3   OH228339   5.037   4.087  11.093
 2283TIP3    H128340   4.991   4.104  11.175
 2283TIP3    H228341   4.973   4.042  11.038
 2284TIP3   OH228342   4.354   4.514  10.142
 2284TIP3    H128343   4.260   4.528  10.129
 2284TIP3    H228344   4.396   4.562  10.070
 2285TIP3   OH228345   5.376   5.666  11.724
 2285TIP3    H128346   5.401   5.691  11.635
 2285TIP3    H228347   5.449   5.698  11.778
 2286TIP3   OH228348   4.132   4.938  11.664
 2286TIP3    H128349   4.195   4.930  11.735
 2286TIP3    H228350   4.047   4.935  11.707
 2287TIP3   OH228351   4.701   4.467  10.957
 2287TIP3    H128352   4.727   4.395  10.899
 2287TIP3    H228353   4.660   4.424  11.032
 2288TIP3   OH228354   4.165   4.097  10.566
 2288TIP3    H128355   4.126   4.013  10.585
 2288TIP3    H228356   4.260   4.081  10.568
 2289TIP3   OH228357   4.582   4.331  11.171
 2289TIP3    H128358   4.494   4.368  11.187
 2289TIP3    H228359   4.633   4.357  11.248
 2290TIP3   OH228360   4.612   4.934  10.356
 2290TIP3    H128361   4.555   4.862  10.329
 2290TIP3    H228362   4.585   4.954  10.446
 2291TIP3   OH228363   5.332   4.864  11.198
 2291TIP3    H128364   5.389   4.923  11.148
 2291TIP3    H228365   5.261   4.844  11.138
 2292TIP3   OH228366   4.820   4.974  11.470
 2292TIP3    H128367   4.754   4.908  11.489
 2292TIP3    H228368   4.775   5.058  11.485
 2293TIP3   OH228369   5.068   4.401  10.385
 2293TIP3    H128370   5.155   4.371  10.413
 2293TIP3    H228371   5.085   4.475  10.327
 2294TIP3   OH228372   4.252   4.893  10.977
 2294TIP3    H128373   4.280   4.869  10.889
 2294TIP3    H228374   4.161   4.865  10.982
 2295TIP3   OH228375   4.838   5.083  10.297
 2295TIP3    H128376   4.809   5.174  10.294
 2295TIP3    H228377   4.758   5.032  10.313
 2296TIP3   OH228378   3.934   4.591  11.509
 2296TIP3    H128379   3.933   4.595  11.605
 2296TIP3    H228380   3.862   4.649  11.482
 2297TIP3   OH228381   4.586   4.674  11.687
 2297TIP3    H128382   4.518   4.641  11.629
 2297TIP3    H228383   4.665   4.627  11.659
 2298TIP3   OH228384   4.984   5.264  11.506
 2298TIP3    H128385   4.892   5.250  11.484
 2298TIP3    H228386   4.987   5.258  11.602
 2299TIP3   OH228387   5.616   5.047  11.598
 2299TIP3    H128388   5.524   5.029  11.581
 2299TIP3    H228389   5.661   5.019  11.518
 2300TIP3   OH228390   5.469   5.222  10.351
 2300TIP3    H128391   5.401   5.158  10.374
 2300TIP3    H228392   5.444   5.253  10.264
 2301TIP3   OH228393   5.140   4.790  11.011
 2301TIP3    H128394   5.045   4.777  11.013
 2301TIP3    H228395   5.173   4.716  10.959
 2302TIP3   OH228396   4.387   5.205  10.693
 2302TIP3    H128397   4.407   5.294  10.662
 2302TIP3    H228398   4.292   5.196  10.679
 2303TIP3   OH228399   4.502   4.976  10.598
 2303TIP3    H128400   4.473   5.061  10.630
 2303TIP3    H228401   4.447   4.913  10.643
 2304TIP3   OH228402   4.598   5.390  11.281
 2304TIP3    H128403   4.658   5.460  11.258
 2304TIP3    H228404   4.651   5.328  11.332
 2305TIP3   OH228405   4.402   5.471  10.599
 2305TIP3    H128406   4.310   5.492  10.619
 2305TIP3    H228407   4.451   5.548  10.627
 2306TIP3   OH228408   4.895   4.986  11.203
 2306TIP3    H128409   4.872   4.973  11.295
 2306TIP3    H228410   4.911   4.898  11.169
 2307TIP3   OH228411   5.217   5.411  11.463
 2307TIP3    H128412   5.131   5.368  11.465
 2307TIP3    H228413   5.203   5.489  11.409
 2308TIP3   OH228414   3.996   4.131  11.412
 2308TIP3    H128415   3.910   4.115  11.372
 2308TIP3    H228416   4.004   4.062  11.478
 2309TIP3   OH228417   5.306   5.000  10.428
 2309TIP3    H128418   5.247   4.925  10.440
 2309TIP3    H228419   5.393   4.960  10.421
 2310TIP3   OH228420   4.013   5.309  11.228
 2310TIP3    H128421   4.062   5.253  11.167
 2310TIP3    H228422   4.019   5.264  11.312
 2311TIP3   OH228423   4.515   5.107   9.990
 2311TIP3    H128424   4.479   5.165   9.923
 2311TIP3    H228425   4.472   5.134  10.071
 2312TIP3   OH228426   4.410   5.145  10.245
 2312TIP3    H128427   4.461   5.081  10.294
 2312TIP3    H228428   4.432   5.229  10.285
 2313TIP3   OH228429   4.109   4.903  10.317
 2313TIP3    H128430   4.034   4.949  10.354
 2313TIP3    H228431   4.133   4.953  10.239
 2314TIP3   OH228432   4.912   4.134  11.339
 2314TIP3    H128433   4.979   4.144  11.406
 2314TIP3    H228434   4.867   4.052  11.362
 2315TIP3   OH228435   5.020   4.071  10.464
 2315TIP3    H128436   4.954   4.130  10.429
 2315TIP3    H228437   5.057   4.118  10.539
 2316TIP3   OH228438   4.750   5.343  10.279
 2316TIP3    H128439   4.661   5.351  10.312
 2316TIP3    H228440   4.777   5.433  10.261
 2317TIP3   OH228441   4.779   4.220  10.534
 2317TIP3    H128442   4.799   4.313  10.544
 2317TIP3    H228443   4.684   4.215  10.542
 2318TIP3   OH228444   4.758   4.377  11.382
 2318TIP3    H128445   4.763   4.402  11.475
 2318TIP3    H228446   4.799   4.290  11.379
 2319TIP3   OH228447   4.807   3.938  10.589
 2319TIP3    H128448   4.750   4.014  10.603
 2319TIP3    H228449   4.882   3.973  10.541
 2320TIP3   OH228450   4.489   5.388  10.352
 2320TIP3    H128451   4.462   5.464  10.300
 2320TIP3    H228452   4.460   5.408  10.441
 2321TIP3   OH228453   5.345   4.134  11.467
 2321TIP3    H128454   5.260   4.172  11.490
 2321TIP3    H228455   5.329   4.087  11.385
 2322TIP3   OH228456   5.216   4.544  10.887
 2322TIP3    H128457   5.133   4.508  10.858
 2322TIP3    H228458   5.250   4.479  10.948
 2323TIP3   OH228459   4.167   5.091  10.115
 2323TIP3    H128460   4.246   5.110  10.165
 2323TIP3    H228461   4.180   5.136  10.032
 2324TIP3   OH228462   5.337   5.513  11.065
 2324TIP3    H128463   5.322   5.582  11.001
 2324TIP3    H228464   5.432   5.503  11.068
 2325TIP3   OH228465   4.076   3.880  10.926
 2325TIP3    H128466   4.067   3.879  10.830
 2325TIP3    H228467   4.035   3.798  10.955
 2326TIP3   OH228468   3.965   5.325  10.561
 2326TIP3    H128469   3.903   5.338  10.633
 2326TIP3    H228470   3.937   5.386  10.493
 2327TIP3   OH228471   3.919   5.558  11.702
 2327TIP3    H128472   3.985   5.520  11.760
 2327TIP3    H228473   3.872   5.483  11.667
 2328TIP3   OH228474   4.359   5.371  11.885
 2328TIP3    H128475   4.432   5.310  11.890
 2328TIP3    H228476   4.326   5.362  11.796
 2329TIP3   OH228477   4.977   5.258  11.785
 2329TIP3    H128478   4.971   5.171  11.825
 2329TIP3    H228479   5.058   5.295  11.820
 2330TIP3   OH228480   3.889   4.924  11.795
 2330TIP3    H128481   3.871   4.832  11.776
 2330TIP3    H228482   3.828   4.973  11.740
 2331TIP3   OH228483   4.543   4.945  11.748
 2331TIP3    H128484   4.520   4.988  11.665
 2331TIP3    H228485   4.570   4.857  11.722
 2332TIP3   OH228486   5.086   4.936  11.537
 2332TIP3    H128487   5.138   5.004  11.493
 2332TIP3    H228488   4.996   4.956  11.514
 2333TIP3   OH228489   3.995   4.635  11.778
 2333TIP3    H128490   4.090   4.636  11.762
 2333TIP3    H228491   3.987   4.653  11.872
 2334TIP3   OH228492   4.444   4.726  10.315
 2334TIP3    H128493   4.370   4.724  10.375
 2334TIP3    H228494   4.424   4.658  10.250
 2335TIP3   OH228495   4.403   4.570  11.503
 2335TIP3    H128496   4.322   4.619  11.491
 2335TIP3    H228497   4.464   4.609  11.441
 2336TIP3   OH228498   4.897   4.795  11.822
 2336TIP3    H128499   4.934   4.756  11.743
 2336TIP3    H228500   4.863   4.720  11.871
 2337TIP3   OH228501   4.412   4.301  11.573
 2337TIP3    H128502   4.419   4.246  11.496
 2337TIP3    H228503   4.404   4.390  11.538
 2338TIP3   OH228504   4.454   4.138  11.340
 2338TIP3    H128505   4.504   4.183  11.273
 2338TIP3    H228506   4.366   4.129  11.303
 2339TIP3   OH228507   4.599   4.698  11.359
 2339TIP3    H128508   4.630   4.647  11.284
 2339TIP3    H228509   4.553   4.772  11.320
 2340TIP3   OH228510   5.018   4.431  11.819
 2340TIP3    H128511   5.008   4.338  11.799
 2340TIP3    H228512   5.112   4.447  11.813
 2341TIP3   OH228513   5.166   4.715  11.666
 2341TIP3    H128514   5.131   4.795  11.627
 2341TIP3    H228515   5.261   4.722  11.655
 2342TIP3   OH228516   4.263   4.332  11.812
 2342TIP3    H128517   4.184   4.280  11.797
 2342TIP3    H228518   4.310   4.329  11.728
 2343TIP3   OH228519   4.512   3.875  11.407
 2343TIP3    H128520   4.494   3.967  11.386
 2343TIP3    H228521   4.444   3.826  11.362
 2344TIP3   OH228522   4.641   4.279  11.727
 2344TIP3    H128523   4.608   4.260  11.815
 2344TIP3    H228524   4.564   4.277  11.671
 2345TIP3   OH228525   4.906   4.202  11.690
 2345TIP3    H128526   4.811   4.213  11.704
 2345TIP3    H228527   4.932   4.138  11.757
 2346TIP3   OH228528   5.104   4.082  11.865
 2346TIP3    H128529   5.092   3.989  11.846
 2346TIP3    H228530   5.075   4.091  11.956
 2347TIP3   OH228531   4.054   4.148  11.765
 2347TIP3    H128532   4.057   4.075  11.703
 2347TIP3    H228533   4.064   4.107  11.851
 2348TIP3   OH228534   4.501   3.788  11.665
 2348TIP3    H128535   4.559   3.712  11.658
 2348TIP3    H228536   4.499   3.824  11.576
 2349TIP3   OH228537   4.618   3.949  11.859
 2349TIP3    H128538   4.577   3.897  11.789
 2349TIP3    H228539   4.549   3.957  11.925
 2350TIP3   OH228540   4.588   5.671  10.279
 2350TIP3    H128541   4.645   5.645  10.207
 2350TIP3    H228542   4.502   5.685  10.238
 2351TIP3   OH228543   3.891   5.179  10.135
 2351TIP3    H128544   3.975   5.135  10.123
 2351TIP3    H228545   3.826   5.112  10.115
 2352TIP3   OH228546   3.741   5.616  10.629
 2352TIP3    H128547   3.756   5.582  10.541
 2352TIP3    H228548   3.777   5.548  10.687
 2353TIP3   OH228549   3.843   5.425  10.804
 2353TIP3    H128550   3.797   5.359  10.855
 2353TIP3    H228551   3.911   5.458  10.863
 2354TIP3   OH228552   5.608   5.488  11.122
 2354TIP3    H128553   5.618   5.484  11.217
 2354TIP3    H228554   5.691   5.522  11.090
 2355TIP3   OH228555   5.577   5.440  11.400
 2355TIP3    H128556   5.517   5.372  11.368
 2355TIP3    H228557   5.621   5.400  11.475
 2356TIP3   OH228558   5.428   5.054  11.896
 2356TIP3    H128559   5.342   5.063  11.939
 2356TIP3    H228560   5.479   5.127  11.930
 2357TIP3   OH228561   5.555   4.888  10.417
 2357TIP3    H128562   5.630   4.945  10.399
 2357TIP3    H228563   5.593   4.815  10.466
 2358TIP3   OH228564   5.624   4.663  10.585
 2358TIP3    H128565   5.533   4.644  10.609
 2358TIP3    H228566   5.665   4.690  10.667
 2359TIP3   OH228567   5.583   4.985  11.134
 2359TIP3    H128568   5.629   4.919  11.082
 2359TIP3    H228569   5.605   5.068  11.091
 2360TIP3   OH228570   5.393   5.241  11.334
 2360TIP3    H128571   5.324   5.295  11.373
 2360TIP3    H228572   5.365   5.229  11.243
 2361TIP3   OH228573   5.360   4.576  10.650
 2361TIP3    H128574   5.338   4.493  10.608
 2361TIP3    H228575   5.314   4.574  10.733
 2362TIP3   OH228576   3.857   4.701  11.040
 2362TIP3    H128577   3.857   4.795  11.022
 2362TIP3    H228578   3.940   4.684  11.082
 2363TIP3   OH228579   5.432   4.761  11.611
 2363TIP3    H128580   5.500   4.704  11.574
 2363TIP3    H228581   5.423   4.832  11.548
 2364TIP3   OH228582   5.599   4.515  11.623
 2364TIP3    H128583   5.507   4.488  11.631
 2364TIP3    H228584   5.648   4.440  11.657
 2365TIP3   OH228585   5.330   4.331  10.482
 2365TIP3    H128586   5.361   4.240  10.483
 2365TIP3    H228587   5.376   4.372  10.409
 2366TIP3   OH228588   5.368   4.354  11.042
 2366TIP3    H128589   5.458   4.376  11.018
 2366TIP3    H228590   5.360   4.378  11.134
 2367TIP3   OH228591   5.391   4.450  11.307
 2367TIP3    H128592   5.308   4.473  11.350
 2367TIP3    H228593   5.434   4.534  11.292
 2368TIP3   OH228594   3.830   4.277  11.665
 2368TIP3    H128595   3.917   4.251  11.693
 2368TIP3    H228596   3.782   4.195  11.655
 2369TIP3   OH228597   5.632   3.857  11.827
 2369TIP3    H128598   5.696   3.795  11.790
 2369TIP3    H228599   5.630   3.928  11.763
 2370TIP3   OH228600   5.404   4.067  10.512
 2370TIP3    H128601   5.435   4.030  10.595
 2370TIP3    H228602   5.342   4.002  10.478
 2371TIP3   OH228603   3.921   4.101  10.995
 2371TIP3    H128604   3.977   4.026  10.971
 2371TIP3    H228605   3.982   4.173  11.007
 2372TIP3   OH228606   3.733   4.385  11.071
 2372TIP3    H128607   3.799   4.395  11.002
 2372TIP3    H228608   3.732   4.469  11.115
 2373TIP3   OH228609   5.561   4.061  11.653
 2373TIP3    H128610   5.486   4.095  11.703
 2373TIP3    H228611   5.522   4.025  11.573
 2374TIP3   OH228612   3.793   4.108  10.506
 2374TIP3    H128613   3.714   4.081  10.460
 2374TIP3    H228614   3.846   4.150  10.439
 2375TIP3   OH228615   5.313   5.572  10.654
 2375TIP3    H128616   5.363   5.538  10.580
 2375TIP3    H228617   5.358   5.653  10.679
 2376TIP3   OH228618   3.800   3.912  11.305
 2376TIP3    H128619   3.726   3.894  11.363
 2376TIP3    H228620   3.765   3.972  11.239
 2377TIP3   OH228621   4.014   5.269  11.737
 2377TIP3    H128622   3.946   5.263  11.670
 2377TIP3    H228623   3.976   5.228  11.814
 2378TIP3   OH228624   4.336   5.379  11.364
 2378TIP3    H128625   4.304   5.464  11.333
 2378TIP3    H228626   4.429   5.378  11.339
 2379TIP3   OH228627   4.702   5.468  11.653
 2379TIP3    H128628   4.723   5.447  11.745
 2379TIP3    H228629   4.777   5.520  11.623
 2380TIP3   OH228630   4.923   5.611  11.573
 2380TIP3    H128631   4.967   5.573  11.497
 2380TIP3    H228632   4.994   5.633  11.634
 2381TIP3   OH228633   5.462   3.825  11.460
 2381TIP3    H128634   5.380   3.822  11.410
 2381TIP3    H228635   5.503   3.740  11.443
 2382TIP3   OH228636   4.031   5.685  11.335
 2382TIP3    H128637   3.953   5.737  11.314
 2382TIP3    H228638   3.997   5.608  11.381
 2383TIP3   OH228639   4.296   5.640  11.280
 2383TIP3    H128640   4.205   5.661  11.300
 2383TIP3    H228641   4.311   5.676  11.192
 2384TIP3   OH228642   4.752   5.605  11.199
 2384TIP3    H128643   4.700   5.633  11.123
 2384TIP3    H228644   4.757   5.683  11.255
 2385TIP3   OH228645   4.988   5.520  11.310
 2385TIP3    H128646   4.905   5.538  11.266
 2385TIP3    H228647   5.055   5.540  11.245
 2386TIP3   OH228648   5.263   5.648  11.291
 2386TIP3    H128649   5.258   5.739  11.261
 2386TIP3    H228650   5.286   5.598  11.213
 2387TIP3   OH228651   4.017   5.505  11.015
 2387TIP3    H128652   4.001   5.464  11.100
 2387TIP3    H228653   4.096   5.461  10.982
 2388TIP3   OH228654   4.234   5.378  10.921
 2388TIP3    H128655   4.215   5.291  10.955
 2388TIP3    H228656   4.323   5.397  10.952
 2389TIP3   OH228657   4.489   5.426  11.027
 2389TIP3    H128658   4.502   5.339  10.989
 2389TIP3    H228659   4.513   5.416  11.119
 2390TIP3   OH228660   4.813   3.991  10.965
 2390TIP3    H128661   4.743   3.926  10.975
 2390TIP3    H228662   4.771   4.066  10.924
 2391TIP3   OH228663   5.282   3.847  10.883
 2391TIP3    H128664   5.295   3.941  10.893
 2391TIP3    H228665   5.192   3.838  10.850
 2392TIP3   OH228666   5.528   3.966  10.743
 2392TIP3    H128667   5.570   3.885  10.714
 2392TIP3    H228668   5.500   3.947  10.832
 2393TIP3   OH228669   4.039   3.850  10.654
 2393TIP3    H128670   3.949   3.846  10.620
 2393TIP3    H228671   4.073   3.762  10.639
 2394TIP3   OH228672   4.509   3.816  10.722
 2394TIP3    H128673   4.583   3.845  10.669
 2394TIP3    H228674   4.446   3.888  10.716
 2395TIP3   OH228675   5.032   3.856  10.777
 2395TIP3    H128676   4.957   3.898  10.735
 2395TIP3    H228677   4.995   3.784  10.827
 2396TIP3   OH228678   5.215   3.871  10.434
 2396TIP3    H128679   5.151   3.942  10.431
 2396TIP3    H228680   5.162   3.791  10.437
 2397TIP3   OH228681   3.897   5.525  10.380
 2397TIP3    H128682   3.844   5.524  10.301
 2397TIP3    H228683   3.970   5.584  10.359
 2398TIP3   OH228684   4.603   4.078  10.317
 2398TIP3    H128685   4.584   4.052  10.407
 2398TIP3    H228686   4.564   4.164  10.307
 2399TIP3   OH228687   4.796   5.599  10.107
 2399TIP3    H128688   4.888   5.581  10.127
 2399TIP3    H228689   4.794   5.605  10.011
 2400TIP3   OH228690   5.477   5.486  10.449
 2400TIP3    H128691   5.472   5.391  10.442
 2400TIP3    H228692   5.502   5.515  10.361
 2401TIP3   OH228693   4.042   3.905  11.608
 2401TIP3    H128694   3.981   3.836  11.635
 2401TIP3    H228695   4.124   3.884  11.654
 2402TIP3   OH228696   4.246   3.825  11.776
 2402TIP3    H128697   4.333   3.836  11.738
 2402TIP3    H228698   4.248   3.739  11.818
 2403TIP3   OH228699   5.108   3.810  11.805
 2403TIP3    H128700   5.096   3.763  11.887
 2403TIP3    H228701   5.201   3.798  11.783
 2404TIP3   OH228702   5.377   5.394  11.688
 2404TIP3    H128703   5.323   5.385  11.610
 2404TIP3    H228704   5.373   5.487  11.709
 2405TIP3   OH228705   6.793   4.789  10.671
 2405TIP3    H128706   6.767   4.880  10.681
 2405TIP3    H228707   6.743   4.758  10.595
 2406TIP3   OH228708   6.712   4.720  11.046
 2406TIP3    H128709   6.742   4.675  11.125
 2406TIP3    H228710   6.670   4.652  10.994
 2407TIP3   OH228711   5.943   4.634  11.170
 2407TIP3    H128712   5.960   4.559  11.228
 2407TIP3    H228713   6.030   4.659  11.137
 2408TIP3   OH228714   7.107   5.028  10.874
 2408TIP3    H128715   7.066   4.951  10.914
 2408TIP3    H228716   7.119   5.089  10.947
 2409TIP3   OH228717   6.081   5.117  10.983
 2409TIP3    H128718   6.050   5.032  10.952
 2409TIP3    H228719   6.177   5.108  10.985
 2410TIP3   OH228720   5.810   4.490  10.469
 2410TIP3    H128721   5.745   4.552  10.501
 2410TIP3    H228722   5.763   4.435  10.407
 2411TIP3   OH228723   5.792   4.704  10.812
 2411TIP3    H128724   5.827   4.616  10.824
 2411TIP3    H228725   5.868   4.762  10.823
 2412TIP3   OH228726   6.843   5.450  10.917
 2412TIP3    H128727   6.865   5.393  10.843
 2412TIP3    H228728   6.837   5.390  10.992
 2413TIP3   OH228729   6.568   4.965  11.052
 2413TIP3    H128730   6.607   4.882  11.024
 2413TIP3    H228731   6.637   5.009  11.102
 2414TIP3   OH228732   6.877   4.375  11.055
 2414TIP3    H128733   6.889   4.282  11.072
 2414TIP3    H228734   6.859   4.381  10.961
 2415TIP3   OH228735   6.176   4.161  10.793
 2415TIP3    H128736   6.207   4.243  10.755
 2415TIP3    H228737   6.234   4.094  10.756
 2416TIP3   OH228738   6.971   4.205  10.653
 2416TIP3    H128739   7.014   4.158  10.725
 2416TIP3    H228740   7.043   4.227  10.593
 2417TIP3   OH228741   5.877   4.440  10.859
 2417TIP3    H128742   5.943   4.407  10.921
 2417TIP3    H228743   5.909   4.413  10.773
 2418TIP3   OH228744   6.347   4.588  10.873
 2418TIP3    H128745   6.437   4.562  10.893
 2418TIP3    H228746   6.315   4.521  10.813
 2419TIP3   OH228747   6.086   4.129  11.207
 2419TIP3    H128748   6.065   4.195  11.141
 2419TIP3    H228749   6.013   4.132  11.268
 2420TIP3   OH228750   6.676   5.038  10.603
 2420TIP3    H128751   6.705   5.025  10.513
 2420TIP3    H228752   6.674   5.133  10.614
 2421TIP3   OH228753   6.348   4.888  11.200
 2421TIP3    H128754   6.302   4.964  11.235
 2421TIP3    H228755   6.420   4.926  11.148
 2422TIP3   OH228756   7.075   4.109  10.888
 2422TIP3    H128757   7.010   4.097  10.957
 2422TIP3    H228758   7.149   4.152  10.932
 2423TIP3   OH228759   6.080   4.318  11.003
 2423TIP3    H128760   6.147   4.365  11.053
 2423TIP3    H228761   6.129   4.265  10.941
 2424TIP3   OH228762   6.207   5.096  11.317
 2424TIP3    H128763   6.221   5.190  11.305
 2424TIP3    H228764   6.112   5.087  11.327
 2425TIP3   OH228765   5.729   5.116  10.344
 2425TIP3    H128766   5.643   5.158  10.344
 2425TIP3    H228767   5.777   5.161  10.414
 2426TIP3   OH228768   7.117   5.220  11.088
 2426TIP3    H128769   7.023   5.234  11.096
 2426TIP3    H228770   7.153   5.307  11.066
 2427TIP3   OH228771   7.144   4.022  11.194
 2427TIP3    H128772   7.053   4.043  11.174
 2427TIP3    H228773   7.195   4.092  11.153
 2428TIP3   OH228774   6.455   3.801  10.976
 2428TIP3    H128775   6.433   3.708  10.980
 2428TIP3    H228776   6.376   3.845  11.007
 2429TIP3   OH228777   6.943   5.336  10.681
 2429TIP3    H128778   6.984   5.254  10.655
 2429TIP3    H228779   7.015   5.394  10.701
 2430TIP3   OH228780   7.102   5.127  10.609
 2430TIP3    H128781   7.112   5.060  10.541
 2430TIP3    H228782   7.113   5.079  10.692
 2431TIP3   OH228783   7.215   4.949  11.450
 2431TIP3    H128784   7.210   4.897  11.369
 2431TIP3    H228785   7.245   5.035  11.421
 2432TIP3   OH228786   6.674   4.734  10.412
 2432TIP3    H128787   6.582   4.735  10.386
 2432TIP3    H228788   6.705   4.822  10.391
 2433TIP3   OH228789   7.034   4.777  10.531
 2433TIP3    H128790   6.961   4.775  10.593
 2433TIP3    H228791   7.088   4.702  10.555
 2434TIP3   OH228792   7.000   4.532  11.450
 2434TIP3    H128793   6.984   4.601  11.515
 2434TIP3    H228794   6.938   4.551  11.379
 2435TIP3   OH228795   6.217   4.778  10.709
 2435TIP3    H128796   6.275   4.835  10.658
 2435TIP3    H228797   6.276   4.719  10.755
 2436TIP3   OH228798   6.360   5.135  10.953
 2436TIP3    H128799   6.357   5.142  10.858
 2436TIP3    H228800   6.437   5.080  10.970
 2437TIP3   OH228801   6.198   4.697  11.076
 2437TIP3    H128802   6.251   4.666  11.003
 2437TIP3    H228803   6.250   4.765  11.118
 2438TIP3   OH228804   6.851   5.273  11.134
 2438TIP3    H128805   6.849   5.331  11.211
 2438TIP3    H228806   6.819   5.189  11.167
 2439TIP3   OH228807   6.360   5.103  11.551
 2439TIP3    H128808   6.297   5.165  11.589
 2439TIP3    H228809   6.320   5.077  11.468
 2440TIP3   OH228810   6.004   4.680  11.504
 2440TIP3    H128811   6.027   4.773  11.501
 2440TIP3    H228812   5.916   4.676  11.468
 2441TIP3   OH228813   6.685   5.323  10.589
 2441TIP3    H128814   6.773   5.325  10.627
 2441TIP3    H228815   6.663   5.414  10.573
 2442TIP3   OH228816   6.159   5.283  11.610
 2442TIP3    H128817   6.166   5.319  11.522
 2442TIP3    H228818   6.065   5.271  11.625
 2443TIP3   OH228819   5.729   4.948  11.369
 2443TIP3    H128820   5.674   4.962  11.291
 2443TIP3    H228821   5.736   4.853  11.376
 2444TIP3   OH228822   5.687   5.229  11.046
 2444TIP3    H128823   5.776   5.238  11.082
 2444TIP3    H228824   5.642   5.309  11.073
 2445TIP3   OH228825   6.591   5.243  11.488
 2445TIP3    H128826   6.585   5.326  11.536
 2445TIP3    H228827   6.510   5.197  11.512
 2446TIP3   OH228828   6.674   5.582  10.487
 2446TIP3    H128829   6.660   5.579  10.393
 2446TIP3    H228830   6.644   5.669  10.513
 2447TIP3   OH228831   6.021   5.479  10.663
 2447TIP3    H128832   6.043   5.441  10.748
 2447TIP3    H228833   5.970   5.410  10.620
 2448TIP3   OH228834   6.937   5.549  10.126
 2448TIP3    H128835   6.979   5.567  10.042
 2448TIP3    H228836   7.009   5.542  10.188
 2449TIP3   OH228837   6.948   5.549  10.472
 2449TIP3    H128838   6.853   5.547  10.469
 2449TIP3    H228839   6.973   5.468  10.517
 2450TIP3   OH228840   7.177   4.455  11.683
 2450TIP3    H128841   7.149   4.486  11.596
 2450TIP3    H228842   7.259   4.408  11.666
 2451TIP3   OH228843   5.944   5.117  11.410
 2451TIP3    H128844   5.974   5.075  11.491
 2451TIP3    H228845   5.868   5.065  11.384
 2452TIP3   OH228846   6.208   3.915  11.064
 2452TIP3    H128847   6.130   3.893  11.014
 2452TIP3    H228848   6.181   3.991  11.116
 2453TIP3   OH228849   6.672   3.894  11.409
 2453TIP3    H128850   6.716   3.843  11.477
 2453TIP3    H228851   6.579   3.884  11.428
 2454TIP3   OH228852   7.003   4.251  11.483
 2454TIP3    H128853   6.938   4.241  11.552
 2454TIP3    H228854   7.007   4.345  11.468
 2455TIP3   OH228855   6.237   4.445  11.192
 2455TIP3    H128856   6.167   4.436  11.256
 2455TIP3    H228857   6.235   4.537  11.166
 2456TIP3   OH228858   6.256   4.400  10.692
 2456TIP3    H128859   6.181   4.418  10.635
 2456TIP3    H228860   6.331   4.401  10.633
 2457TIP3   OH228861   6.761   4.493  10.522
 2457TIP3    H128862   6.732   4.578  10.487
 2457TIP3    H228863   6.840   4.472  10.472
 2458TIP3   OH228864   6.681   4.476  11.655
 2458TIP3    H128865   6.633   4.402  11.693
 2458TIP3    H228866   6.769   4.470  11.693
 2459TIP3   OH228867   6.832   4.405  10.785
 2459TIP3    H128868   6.803   4.461  10.712
 2459TIP3    H228869   6.872   4.329  10.742
 2460TIP3   OH228870   6.009   4.427  11.348
 2460TIP3    H128871   6.008   4.473  11.432
 2460TIP3    H228872   5.959   4.346  11.364
 2461TIP3   OH228873   5.728   4.152  10.662
 2461TIP3    H128874   5.662   4.133  10.729
 2461TIP3    H228875   5.679   4.153  10.580
 2462TIP3   OH228876   5.722   4.295  10.271
 2462TIP3    H128877   5.773   4.257  10.200
 2462TIP3    H228878   5.639   4.319  10.231
 2463TIP3   OH228879   6.799   4.550  11.251
 2463TIP3    H128880   6.834   4.492  11.183
 2463TIP3    H228881   6.736   4.496  11.298
 2464TIP3   OH228882   6.534   4.155  10.761
 2464TIP3    H128883   6.476   4.199  10.824
 2464TIP3    H228884   6.595   4.105  10.815
 2465TIP3   OH228885   5.978   4.333  10.612
 2465TIP3    H128886   5.913   4.386  10.566
 2465TIP3    H228887   6.004   4.266  10.549
 2466TIP3   OH228888   6.302   4.408  10.388
 2466TIP3    H128889   6.380   4.415  10.443
 2466TIP3    H228890   6.330   4.355  10.313
 2467TIP3   OH228891   6.881   4.097  11.090
 2467TIP3    H128892   6.842   4.111  11.177
 2467TIP3    H228893   6.811   4.059  11.038
 2468TIP3   OH228894   7.250   5.693  11.700
 2468TIP3    H128895   7.251   5.782  11.664
 2468TIP3    H228896   7.341   5.673  11.718
 2469TIP3   OH228897   6.001   4.946  11.642
 2469TIP3    H128898   5.984   4.863  11.687
 2469TIP3    H228899   5.942   5.008  11.685
 2470TIP3   OH228900   6.591   4.478  10.944
 2470TIP3    H128901   6.664   4.440  10.894
 2470TIP3    H228902   6.575   4.414  11.014
 2471TIP3   OH228903   6.051   4.073  10.532
 2471TIP3    H128904   6.025   3.981  10.524
 2471TIP3    H228905   6.121   4.083  10.467
 2472TIP3   OH228906   6.484   4.325  11.167
 2472TIP3    H128907   6.403   4.376  11.177
 2472TIP3    H228908   6.536   4.348  11.244
 2473TIP3   OH228909   6.413   4.779  10.328
 2473TIP3    H128910   6.353   4.776  10.253
 2473TIP3    H228911   6.387   4.858  10.376
 2474TIP3   OH228912   7.182   4.823  11.209
 2474TIP3    H128913   7.265   4.810  11.164
 2474TIP3    H228914   7.116   4.819  11.140
 2475TIP3   OH228915   6.672   4.959  11.470
 2475TIP3    H128916   6.757   4.947  11.513
 2475TIP3    H228917   6.646   5.049  11.493
 2476TIP3   OH228918   6.988   4.459  10.355
 2476TIP3    H128919   7.044   4.393  10.395
 2476TIP3    H228920   7.045   4.505  10.293
 2477TIP3   OH228921   6.028   4.841  10.895
 2477TIP3    H128922   6.084   4.831  10.819
 2477TIP3    H228923   6.074   4.795  10.965
 2478TIP3   OH228924   6.715   4.996  10.334
 2478TIP3    H128925   6.660   5.073  10.324
 2478TIP3    H228926   6.734   4.968  10.245
 2479TIP3   OH228927   5.732   4.670  11.443
 2479TIP3    H128928   5.698   4.612  11.511
 2479TIP3    H228929   5.669   4.662  11.371
 2480TIP3   OH228930   6.465   4.648  11.701
 2480TIP3    H128931   6.401   4.619  11.635
 2480TIP3    H228932   6.547   4.608  11.674
 2481TIP3   OH228933   6.872   5.239  11.484
 2481TIP3    H128934   6.779   5.247  11.460
 2481TIP3    H228935   6.874   5.257  11.578
 2482TIP3   OH228936   7.303   5.220  10.348
 2482TIP3    H128937   7.237   5.178  10.404
 2482TIP3    H228938   7.294   5.176  10.263
 2483TIP3   OH228939   6.991   4.799  11.003
 2483TIP3    H128940   6.896   4.790  11.000
 2483TIP3    H228941   7.024   4.726  10.951
 2484TIP3   OH228942   6.299   5.193  10.688
 2484TIP3    H128943   6.324   5.283  10.669
 2484TIP3    H228944   6.208   5.185  10.657
 2485TIP3   OH228945   6.405   4.951  10.598
 2485TIP3    H128946   6.370   5.038  10.619
 2485TIP3    H228947   6.500   4.963  10.597
 2486TIP3   OH228948   6.488   5.387  11.264
 2486TIP3    H128949   6.545   5.462  11.243
 2486TIP3    H228950   6.542   5.332  11.321
 2487TIP3   OH228951   6.299   5.461  10.635
 2487TIP3    H128952   6.207   5.487  10.626
 2487TIP3    H228953   6.346   5.544  10.645
 2488TIP3   OH228954   6.781   5.020  11.223
 2488TIP3    H128955   6.742   4.991  11.305
 2488TIP3    H228956   6.857   4.962  11.211
 2489TIP3   OH228957   7.104   5.407  11.443
 2489TIP3    H128958   7.019   5.364  11.436
 2489TIP3    H228959   7.098   5.482  11.383
 2490TIP3   OH228960   5.859   4.191  11.385
 2490TIP3    H128961   5.768   4.222  11.386
 2490TIP3    H228962   5.855   4.105  11.425
 2491TIP3   OH228963   7.148   4.968  10.375
 2491TIP3    H128964   7.108   4.900  10.430
 2491TIP3    H228965   7.162   4.925  10.290
 2492TIP3   OH228966   5.881   5.370  11.265
 2492TIP3    H128967   5.912   5.292  11.312
 2492TIP3    H228968   5.899   5.443  11.325
 2493TIP3   OH228969   6.363   5.145  10.196
 2493TIP3    H128970   6.416   5.092  10.138
 2493TIP3    H228971   6.423   5.172  10.266
 2494TIP3   OH228972   6.785   4.136  11.342
 2494TIP3    H128973   6.859   4.151  11.400
 2494TIP3    H228974   6.746   4.054  11.373
 2495TIP3   OH228975   6.850   4.031  10.461
 2495TIP3    H128976   6.916   4.011  10.395
 2495TIP3    H228977   6.892   4.095  10.519
 2496TIP3   OH228978   6.575   5.235  10.349
 2496TIP3    H128979   6.608   5.275  10.430
 2496TIP3    H228980   6.613   5.288  10.279
 2497TIP3   OH228981   6.509   4.372  10.571
 2497TIP3    H128982   6.593   4.412  10.550
 2497TIP3    H228983   6.531   4.292  10.620
 2498TIP3   OH228984   6.642   4.372  11.391
 2498TIP3    H128985   6.654   4.401  11.481
 2498TIP3    H228986   6.687   4.288  11.387
 2499TIP3   OH228987   6.617   3.944  10.580
 2499TIP3    H128988   6.585   4.023  10.623
 2499TIP3    H228989   6.694   3.972  10.531
 2500TIP3   OH228990   6.242   4.076  10.339
 2500TIP3    H128991   6.303   4.137  10.298
 2500TIP3    H228992   6.234   4.004  10.276
 2501TIP3   OH228993   7.249   4.116  11.506
 2501TIP3    H128994   7.166   4.162  11.498
 2501TIP3    H228995   7.253   4.060  11.429
 2502TIP3   OH228996   7.069   4.553  10.885
 2502TIP3    H128997   6.987   4.505  10.869
 2502TIP3    H228998   7.112   4.505  10.955
 2503TIP3   OH228999   7.223   5.482  11.055
 2503TIP3    H129000   7.218   5.549  10.987
 2503TIP3    H229001   7.300   5.430  11.031
 2504TIP3   OH229002   5.960   3.860  10.957
 2504TIP3    H129003   5.941   3.846  10.864
 2504TIP3    H229004   5.926   3.781  11.000
 2505TIP3   OH229005   5.835   5.291  10.559
 2505TIP3    H129006   5.781   5.318  10.633
 2505TIP3    H229007   5.814   5.354  10.489
 2506TIP3   OH229008   5.793   5.556  11.738
 2506TIP3    H129009   5.860   5.526  11.799
 2506TIP3    H229010   5.753   5.475  11.705
 2507TIP3   OH229011   6.223   5.369  11.862
 2507TIP3    H129012   6.306   5.327  11.884
 2507TIP3    H229013   6.207   5.344  11.771
 2508TIP3   OH229014   6.647   5.313  10.092
 2508TIP3    H129015   6.615   5.223  10.078
 2508TIP3    H229016   6.717   5.324  10.028
 2509TIP3   OH229017   6.854   5.269  11.754
 2509TIP3    H129018   6.834   5.183  11.791
 2509TIP3    H229019   6.930   5.300  11.803
 2510TIP3   OH229020   5.771   4.965  11.811
 2510TIP3    H129021   5.774   4.870  11.801
 2510TIP3    H229022   5.706   4.994  11.747
 2511TIP3   OH229023   6.446   4.939  11.760
 2511TIP3    H129024   6.437   4.982  11.675
 2511TIP3    H229025   6.492   4.858  11.741
 2512TIP3   OH229026   6.951   4.975  11.515
 2512TIP3    H129027   7.043   4.966  11.492
 2512TIP3    H229028   6.932   5.068  11.499
 2513TIP3   OH229029   5.947   4.716  11.796
 2513TIP3    H129030   5.955   4.654  11.724
 2513TIP3    H229031   5.891   4.671  11.859
 2514TIP3   OH229032   6.266   4.553  11.509
 2514TIP3    H129033   6.184   4.603  11.502
 2514TIP3    H229034   6.324   4.594  11.445
 2515TIP3   OH229035   6.756   4.782  11.804
 2515TIP3    H129036   6.826   4.754  11.745
 2515TIP3    H229037   6.742   4.707  11.861
 2516TIP3   OH229038   6.309   4.287  11.570
 2516TIP3    H129039   6.319   4.232  11.492
 2516TIP3    H229040   6.301   4.376  11.536
 2517TIP3   OH229041   6.334   4.137  11.332
 2517TIP3    H129042   6.392   4.180  11.269
 2517TIP3    H229043   6.248   4.137  11.289
 2518TIP3   OH229044   6.446   4.683  11.354
 2518TIP3    H129045   6.539   4.698  11.366
 2518TIP3    H229046   6.416   4.756  11.301
 2519TIP3   OH229047   6.922   4.428  11.806
 2519TIP3    H129048   6.927   4.333  11.812
 2519TIP3    H229049   7.008   4.454  11.772
 2520TIP3   OH229050   6.986   4.736  11.647
 2520TIP3    H129051   6.962   4.817  11.603
 2520TIP3    H229052   7.082   4.740  11.656
 2521TIP3   OH229053   6.131   4.334  11.776
 2521TIP3    H129054   6.058   4.272  11.769
 2521TIP3    H229055   6.184   4.318  11.699
 2522TIP3   OH229056   6.393   3.876  11.414
 2522TIP3    H129057   6.372   3.965  11.388
 2522TIP3    H229058   6.328   3.822  11.369
 2523TIP3   OH229059   6.533   4.257  11.736
 2523TIP3    H129060   6.497   4.232  11.821
 2523TIP3    H229061   6.458   4.260  11.677
 2524TIP3   OH229062   6.795   4.193  11.652
 2524TIP3    H129063   6.705   4.198  11.684
 2524TIP3    H229064   6.841   4.140  11.718
 2525TIP3   OH229065   6.952   4.077  11.844
 2525TIP3    H129066   6.955   3.981  11.838
 2525TIP3    H229067   6.932   4.095  11.936
 2526TIP3   OH229068   5.940   4.134  11.772
 2526TIP3    H129069   5.936   4.057  11.714
 2526TIP3    H229070   5.957   4.097  11.859
 2527TIP3   OH229071   6.382   3.786  11.673
 2527TIP3    H129072   6.437   3.708  11.665
 2527TIP3    H229073   6.380   3.822  11.584
 2528TIP3   OH229074   6.459   3.946  11.885
 2528TIP3    H129075   6.439   3.892  11.808
 2528TIP3    H229076   6.401   4.022  11.877
 2529TIP3   OH229077   5.645   5.611  10.638
 2529TIP3    H129078   5.606   5.576  10.559
 2529TIP3    H229079   5.669   5.534  10.690
 2530TIP3   OH229080   5.723   5.394  10.799
 2530TIP3    H129081   5.684   5.319  10.844
 2530TIP3    H229082   5.773   5.439  10.867
 2531TIP3   OH229083   7.236   5.029  11.894
 2531TIP3    H129084   7.158   5.044  11.948
 2531TIP3    H229085   7.306   5.076  11.940
 2532TIP3   OH229086   7.251   5.194  11.336
 2532TIP3    H129087   7.214   5.272  11.376
 2532TIP3    H229088   7.216   5.193  11.247
 2533TIP3   OH229089   7.176   4.554  10.628
 2533TIP3    H129090   7.154   4.465  10.599
 2533TIP3    H229091   7.147   4.557  10.719
 2534TIP3   OH229092   5.713   4.741  11.071
 2534TIP3    H129093   5.725   4.737  10.976
 2534TIP3    H229094   5.798   4.714  11.106
 2535TIP3   OH229095   7.252   4.787  11.666
 2535TIP3    H129096   7.322   4.729  11.635
 2535TIP3    H229097   7.246   4.855  11.598
 2536TIP3   OH229098   7.174   4.282  10.484
 2536TIP3    H129099   7.242   4.251  10.544
 2536TIP3    H229100   7.191   4.235  10.402
 2537TIP3   OH229101   7.270   4.224  11.052
 2537TIP3    H129102   7.352   4.195  11.011
 2537TIP3    H229103   7.283   4.317  11.069
 2538TIP3   OH229104   7.269   4.486  11.358
 2538TIP3    H129105   7.176   4.506  11.364
 2538TIP3    H229106   7.287   4.480  11.264
 2539TIP3   OH229107   5.721   4.289  11.727
 2539TIP3    H129108   5.804   4.245  11.742
 2539TIP3    H229109   5.661   4.220  11.698
 2540TIP3   OH229110   7.206   3.959  10.513
 2540TIP3    H129111   7.247   3.875  10.533
 2540TIP3    H229112   7.152   3.941  10.436
 2541TIP3   OH229113   5.847   4.109  10.948
 2541TIP3    H129114   5.878   4.025  10.981
 2541TIP3    H229115   5.794   4.145  11.020
 2542TIP3   OH229116   5.649   4.390  11.023
 2542TIP3    H129117   5.713   4.398  10.953
 2542TIP3    H229118   5.666   4.464  11.081
 2543TIP3   OH229119   7.153   5.497  10.721
 2543TIP3    H129120   7.240   5.459  10.718
 2543TIP3    H229121   7.163   5.578  10.771
 2544TIP3   OH229122   5.683   3.934  11.313
 2544TIP3    H129123   5.607   3.899  11.361
 2544TIP3    H229124   5.644   3.983  11.241
 2545TIP3   OH229125   5.901   5.241  11.712
 2545TIP3    H129126   5.815   5.263  11.677
 2545TIP3    H229127   5.891   5.247  11.807
 2546TIP3   OH229128   6.230   5.372  11.354
 2546TIP3    H129129   6.198   5.458  11.328
 2546TIP3    H229130   6.322   5.372  11.329
 2547TIP3   OH229131   6.586   5.485  11.626
 2547TIP3    H129132   6.599   5.456  11.716
 2547TIP3    H229133   6.665   5.535  11.605
 2548TIP3   OH229134   6.820   5.624  11.585
 2548TIP3    H129135   6.878   5.577  11.526
 2548TIP3    H229136   6.875   5.649  11.659
 2549TIP3   OH229137   5.909   5.657  11.369
 2549TIP3    H129138   5.836   5.710  11.335
 2549TIP3    H229139   5.929   5.696  11.454
 2550TIP3   OH229140   6.172   5.631  11.284
 2550TIP3    H129141   6.080   5.644  11.305
 2550TIP3    H229142   6.184   5.673  11.199
 2551TIP3   OH229143   6.632   5.611  11.189
 2551TIP3    H129144   6.593   5.643  11.107
 2551TIP3    H229145   6.642   5.690  11.242
 2552TIP3   OH229146   6.858   5.499  11.301
 2552TIP3    H129147   6.782   5.537  11.256
 2552TIP3    H229148   6.932   5.552  11.272
 2553TIP3   OH229149   7.102   5.625  11.254
 2553TIP3    H129150   7.107   5.716  11.223
 2553TIP3    H229151   7.144   5.575  11.184
 2554TIP3   OH229152   5.876   5.500  11.023
 2554TIP3    H129153   5.881   5.460  11.110
 2554TIP3    H229154   5.953   5.468  10.977
 2555TIP3   OH229155   6.094   5.384  10.915
 2555TIP3    H129156   6.085   5.291  10.936
 2555TIP3    H229157   6.183   5.406  10.941
 2556TIP3   OH229158   6.357   5.411  11.018
 2556TIP3    H129159   6.367   5.322  10.983
 2556TIP3    H229160   6.397   5.407  11.105
 2557TIP3   OH229161   6.673   3.985  10.933
 2557TIP3    H129162   6.603   3.921  10.947
 2557TIP3    H229163   6.742   3.936  10.888
 2558TIP3   OH229164   7.147   3.816  10.863
 2558TIP3    H129165   7.200   3.890  10.834
 2558TIP3    H229166   7.058   3.849  10.868
 2559TIP3   OH229167   5.906   3.859  10.682
 2559TIP3    H129168   5.815   3.837  10.662
 2559TIP3    H229169   5.953   3.777  10.669
 2560TIP3   OH229170   6.394   3.807  10.690
 2560TIP3    H129171   6.464   3.848  10.639
 2560TIP3    H229172   6.427   3.805  10.780
 2561TIP3   OH229173   6.870   3.834  10.823
 2561TIP3    H129174   6.877   3.817  10.729
 2561TIP3    H229175   6.856   3.748  10.862
 2562TIP3   OH229176   5.779   5.472  10.370
 2562TIP3    H129177   5.705   5.469  10.309
 2562TIP3    H229178   5.818   5.558  10.356
 2563TIP3   OH229179   6.674   5.558  10.215
 2563TIP3    H129180   6.762   5.582  10.185
 2563TIP3    H229181   6.654   5.478  10.167
 2564TIP3   OH229182   5.934   3.891  11.631
 2564TIP3    H129183   5.880   3.816  11.654
 2564TIP3    H229184   6.016   3.878  11.679
 2565TIP3   OH229185   6.141   3.842  11.806
 2565TIP3    H129186   6.224   3.816  11.767
 2565TIP3    H229187   6.106   3.762  11.845
 2566TIP3   OH229188   6.987   3.802  11.808
 2566TIP3    H129189   6.982   3.759  11.894
 2566TIP3    H229190   7.079   3.795  11.784
 2567TIP3   OH229191   7.223   5.409  11.697
 2567TIP3    H129192   7.188   5.393  11.609
 2567TIP3    H229193   7.235   5.503  11.702
 2568TIP3   OH229194   1.174   6.603  10.675
 2568TIP3    H129195   1.157   6.696  10.685
 2568TIP3    H229196   1.131   6.579  10.593
 2569TIP3   OH229197   1.110   6.611  11.051
 2569TIP3    H129198   1.117   6.555  11.129
 2569TIP3    H229199   1.063   6.557  10.987
 2570TIP3   OH229200   0.293   6.540  11.171
 2570TIP3    H129201   0.304   6.457  11.217
 2570TIP3    H229202   0.379   6.583  11.178
 2571TIP3   OH229203   1.480   6.909  10.873
 2571TIP3    H129204   1.436   6.836  10.917
 2571TIP3    H229205   1.470   6.983  10.932
 2572TIP3   OH229206   0.379   6.974  10.967
 2572TIP3    H129207   0.363   6.884  10.942
 2572TIP3    H229208   0.470   6.975  10.997
 2573TIP3   OH229209   0.095   6.407  10.591
 2573TIP3    H129210   0.137   6.483  10.630
 2573TIP3    H229211   0.002   6.418  10.609
 2574TIP3   OH229212   0.169   6.586  10.796
 2574TIP3    H129213   0.188   6.502  10.838
 2574TIP3    H229214   0.245   6.641  10.817
 2575TIP3   OH229215   0.927   6.845  11.062
 2575TIP3    H129216   0.984   6.774  11.033
 2575TIP3    H229217   0.981   6.895  11.123
 2576TIP3   OH229218   1.821   5.983  11.156
 2576TIP3    H129219   1.832   6.058  11.215
 2576TIP3    H229220   1.879   6.003  11.082
 2577TIP3   OH229221   1.166   6.197  11.051
 2577TIP3    H129222   1.237   6.139  11.079
 2577TIP3    H229223   1.199   6.238  10.971
 2578TIP3   OH229224   0.592   6.109  10.795
 2578TIP3    H129225   0.593   6.186  10.739
 2578TIP3    H229226   0.547   6.042  10.743
 2579TIP3   OH229227   1.342   6.164  10.680
 2579TIP3    H129228   1.388   6.112  10.746
 2579TIP3    H229229   1.408   6.183  10.613
 2580TIP3   OH229230   0.222   6.337  10.902
 2580TIP3    H129231   0.293   6.302  10.954
 2580TIP3    H229232   0.237   6.301  10.814
 2581TIP3   OH229233   0.709   6.459  10.836
 2581TIP3    H129234   0.793   6.417  10.853
 2581TIP3    H229235   0.667   6.403  10.771
 2582TIP3   OH229236   1.846   6.160  11.376
 2582TIP3    H129237   1.767   6.211  11.356
 2582TIP3    H229238   1.862   6.175  11.469
 2583TIP3   OH229239   0.414   6.000  11.229
 2583TIP3    H129240   0.390   6.055  11.155
 2583TIP3    H229241   0.346   6.015  11.294
 2584TIP3   OH229242   1.091   6.865  10.607
 2584TIP3    H129243   1.019   6.860  10.545
 2584TIP3    H229244   1.099   6.958  10.629
 2585TIP3   OH229245   0.707   6.743  11.192
 2585TIP3    H129246   0.643   6.810  11.218
 2585TIP3    H229247   0.775   6.792  11.145
 2586TIP3   OH229248   1.497   6.050  10.875
 2586TIP3    H129249   1.568   5.990  10.852
 2586TIP3    H229250   1.536   6.112  10.937
 2587TIP3   OH229251   0.418   6.167  11.004
 2587TIP3    H129252   0.477   6.214  11.063
 2587TIP3    H229253   0.474   6.138  10.932
 2588TIP3   OH229254   0.522   6.926  11.276
 2588TIP3    H129255   0.534   7.016  11.245
 2588TIP3    H229256   0.440   6.928  11.324
 2589TIP3   OH229257   0.144   6.901  10.423
 2589TIP3    H129258   0.105   6.961  10.360
 2589TIP3    H229259   0.167   6.956  10.498
 2590TIP3   OH229260   1.454   7.133  11.046
 2590TIP3    H129261   1.363   7.139  11.077
 2590TIP3    H229262   1.467   7.214  10.996
 2591TIP3   OH229263   1.568   5.892  11.254
 2591TIP3    H129264   1.496   5.930  11.204
 2591TIP3    H229265   1.647   5.916  11.205
 2592TIP3   OH229266   0.795   5.687  11.014
 2592TIP3    H129267   0.765   5.598  10.993
 2592TIP3    H229268   0.714   5.737  11.024
 2593TIP3   OH229269   1.335   7.246  10.701
 2593TIP3    H129270   1.373   7.171  10.655
 2593TIP3    H229271   1.398   7.267  10.769
 2594TIP3   OH229272   1.466   7.025  10.615
 2594TIP3    H129273   1.472   6.962  10.543
 2594TIP3    H229274   1.474   6.972  10.694
 2595TIP3   OH229275   1.607   6.901  11.421
 2595TIP3    H129276   1.598   6.839  11.349
 2595TIP3    H229277   1.610   6.987  11.379
 2596TIP3   OH229278   1.078   6.568  10.423
 2596TIP3    H129279   1.016   6.637  10.401
 2596TIP3    H229280   1.150   6.579  10.360
 2597TIP3   OH229281   1.766   6.556  11.271
 2597TIP3    H129282   1.693   6.617  11.260
 2597TIP3    H229283   1.822   6.572  11.196
 2598TIP3   OH229284   1.404   6.608  10.505
 2598TIP3    H129285   1.333   6.617  10.568
 2598TIP3    H229286   1.474   6.564  10.553
 2599TIP3   OH229287   1.369   6.406  11.450
 2599TIP3    H129288   1.363   6.478  11.512
 2599TIP3    H229289   1.308   6.430  11.380
 2600TIP3   OH229290   0.572   6.660  10.696
 2600TIP3    H129291   0.537   6.616  10.618
 2600TIP3    H229292   0.629   6.594  10.737
 2601TIP3   OH229293   0.682   6.967  10.949
 2601TIP3    H129294   0.679   6.981  10.855
 2601TIP3    H229295   0.769   6.930  10.965
 2602TIP3   OH229296   0.574   6.548  11.059
 2602TIP3    H129297   0.625   6.527  10.982
 2602TIP3    H229298   0.624   6.617  11.104
 2603TIP3   OH229299   1.195   7.134  11.157
 2603TIP3    H129300   1.113   7.182  11.166
 2603TIP3    H229301   1.177   7.048  11.195
 2604TIP3   OH229302   0.659   6.902  11.524
 2604TIP3    H129303   0.670   6.997  11.518
 2604TIP3    H229304   0.614   6.878  11.443
 2605TIP3   OH229305   1.329   6.516  10.256
 2605TIP3    H129306   1.365   6.554  10.336
 2605TIP3    H229307   1.395   6.532  10.189
 2606TIP3   OH229308   0.418   6.600  11.502
 2606TIP3    H129309   0.410   6.683  11.548
 2606TIP3    H229310   0.328   6.580  11.475
 2607TIP3   OH229311   1.083   7.142  10.640
 2607TIP3    H129312   1.167   7.181  10.665
 2607TIP3    H229313   1.030   7.216  10.610
 2608TIP3   OH229314   0.480   7.224  11.704
 2608TIP3    H129315   0.529   7.205  11.625
 2608TIP3    H229316   0.394   7.185  11.689
 2609TIP3   OH229317   1.675   5.689  10.266
 2609TIP3    H129318   1.587   5.719  10.289
 2609TIP3    H229319   1.724   5.769  10.248
 2610TIP3   OH229320   0.475   6.544  10.451
 2610TIP3    H129321   0.438   6.630  10.430
 2610TIP3    H229322   0.441   6.486  10.383
 2611TIP3   OH229323   0.143   6.747  11.364
 2611TIP3    H129324   0.062   6.756  11.313
 2611TIP3    H229325   0.153   6.653  11.378
 2612TIP3   OH229326   0.140   7.117  11.026
 2612TIP3    H129327   0.210   7.057  10.999
 2612TIP3    H229328   0.164   7.143  11.115
 2613TIP3   OH229329   1.865   7.182  11.648
 2613TIP3    H129330   1.852   7.087  11.648
 2613TIP3    H229331   1.778   7.218  11.633
 2614TIP3   OH229332   0.959   7.066  11.543
 2614TIP3    H129333   0.953   7.104  11.631
 2614TIP3    H229334   0.884   7.101  11.496
 2615TIP3   OH229335   1.560   6.289  11.637
 2615TIP3    H129336   1.490   6.330  11.586
 2615TIP3    H229337   1.561   6.198  11.607
 2616TIP3   OH229338   0.299   6.956  11.435
 2616TIP3    H129339   0.323   6.934  11.525
 2616TIP3    H229340   0.240   6.886  11.408
 2617TIP3   OH229341   0.541   5.810  11.069
 2617TIP3    H129342   0.474   5.803  11.001
 2617TIP3    H229343   0.508   5.875  11.130
 2618TIP3   OH229344   1.006   5.771  11.401
 2618TIP3    H129345   1.052   5.726  11.473
 2618TIP3    H229346   0.914   5.761  11.422
 2619TIP3   OH229347   1.277   6.134  11.434
 2619TIP3    H129348   1.228   6.117  11.514
 2619TIP3    H229349   1.301   6.227  11.440
 2620TIP3   OH229350   0.582   6.303  11.184
 2620TIP3    H129351   0.517   6.307  11.253
 2620TIP3    H229352   0.582   6.390  11.145
 2621TIP3   OH229353   0.561   6.338  10.639
 2621TIP3    H129354   0.471   6.307  10.645
 2621TIP3    H229355   0.562   6.395  10.562
 2622TIP3   OH229356   1.022   6.366  11.672
 2622TIP3    H129357   0.970   6.294  11.707
 2622TIP3    H229358   1.108   6.357  11.712
 2623TIP3   OH229359   1.202   6.358  10.811
 2623TIP3    H129360   1.197   6.441  10.763
 2623TIP3    H229361   1.239   6.296  10.749
 2624TIP3   OH229362   0.349   6.314  11.339
 2624TIP3    H129363   0.305   6.375  11.398
 2624TIP3    H229364   0.318   6.228  11.367
 2625TIP3   OH229365   0.048   6.082  10.681
 2625TIP3    H129366   0.080   6.060  10.768
 2625TIP3    H229367   0.025   5.998  10.642
 2626TIP3   OH229368   1.154   6.407  11.247
 2626TIP3    H129369   1.168   6.330  11.191
 2626TIP3    H229370   1.086   6.380  11.308
 2627TIP3   OH229371   0.862   6.066  10.863
 2627TIP3    H129372   0.770   6.052  10.840
 2627TIP3    H229373   0.878   6.158  10.844
 2628TIP3   OH229374   0.309   6.234  10.655
 2628TIP3    H129375   0.228   6.269  10.618
 2628TIP3    H229376   0.309   6.141  10.630
 2629TIP3   OH229377   1.339   5.977  11.106
 2629TIP3    H129378   1.265   5.918  11.123
 2629TIP3    H229379   1.370   5.951  11.020
 2630TIP3   OH229380   0.520   6.467  10.088
 2630TIP3    H129381   0.439   6.423  10.065
 2630TIP3    H229382   0.578   6.452  10.013
 2631TIP3   OH229383   0.355   6.815  11.676
 2631TIP3    H129384   0.426   6.814  11.740
 2631TIP3    H229385   0.278   6.839  11.726
 2632TIP3   OH229386   0.943   6.329  10.902
 2632TIP3    H129387   1.029   6.339  10.860
 2632TIP3    H229388   0.964   6.314  10.995
 2633TIP3   OH229389   0.457   5.946  10.621
 2633TIP3    H129390   0.392   5.877  10.634
 2633TIP3    H229391   0.539   5.899  10.604
 2634TIP3   OH229392   0.840   6.192  11.186
 2634TIP3    H129393   0.758   6.241  11.180
 2634TIP3    H229394   0.882   6.225  11.266
 2635TIP3   OH229395   0.889   6.759  10.362
 2635TIP3    H129396   0.824   6.707  10.314
 2635TIP3    H229397   0.839   6.799  10.433
 2636TIP3   OH229398   1.579   6.743  11.199
 2636TIP3    H129399   1.640   6.797  11.148
 2636TIP3    H229400   1.506   6.727  11.139
 2637TIP3   OH229401   1.006   6.790  11.502
 2637TIP3    H129402   1.034   6.759  11.588
 2637TIP3    H229403   0.977   6.880  11.517
 2638TIP3   OH229404   1.325   6.249  10.361
 2638TIP3    H129405   1.412   6.234  10.397
 2638TIP3    H229406   1.330   6.334  10.319
 2639TIP3   OH229407   0.394   6.704  10.901
 2639TIP3    H129408   0.455   6.706  10.827
 2639TIP3    H229409   0.436   6.649  10.967
 2640TIP3   OH229410   0.163   6.484  11.467
 2640TIP3    H129411   0.144   6.487  11.561
 2640TIP3    H229412   0.084   6.446  11.428
 2641TIP3   OH229413   0.807   6.540  11.695
 2641TIP3    H129414   0.744   6.507  11.630
 2641TIP3    H229415   0.888   6.495  11.675
 2642TIP3   OH229416   1.236   7.085  11.504
 2642TIP3    H129417   1.143   7.082  11.484
 2642TIP3    H229418   1.240   7.103  11.598
 2643TIP3   OH229419   1.745   6.290  10.331
 2643TIP3    H129420   1.806   6.235  10.282
 2643TIP3    H229421   1.732   6.367  10.276
 2644TIP3   OH229422   1.819   6.890  11.591
 2644TIP3    H129423   1.733   6.907  11.553
 2644TIP3    H229424   1.878   6.880  11.516
 2645TIP3   OH229425   1.688   7.138  10.300
 2645TIP3    H129426   1.630   7.100  10.366
 2645TIP3    H229427   1.698   7.069  10.234
 2646TIP3   OH229428   1.379   6.684  11.015
 2646TIP3    H129429   1.285   6.673  11.022
 2646TIP3    H229430   1.410   6.605  10.972
 2647TIP3   OH229431   0.603   7.063  10.687
 2647TIP3    H129432   0.618   7.147  10.642
 2647TIP3    H229433   0.508   7.055  10.691
 2648TIP3   OH229434   0.737   6.848  10.573
 2648TIP3    H129435   0.704   6.934  10.601
 2648TIP3    H229436   0.681   6.785  10.617
 2649TIP3   OH229437   0.928   7.239  11.226
 2649TIP3    H129438   0.913   7.333  11.224
 2649TIP3    H229439   0.857   7.204  11.280
 2650TIP3   OH229440   0.587  -0.028  10.559
 2650TIP3    H129441   0.500   0.010  10.574
 2650TIP3    H229442   0.645   0.021  10.617
 2651TIP3   OH229443   1.129   6.879  11.262
 2651TIP3    H129444   1.086   6.850  11.342
 2651TIP3    H229445   1.208   6.825  11.256
 2652TIP3   OH229446   1.410   7.286  11.433
 2652TIP3    H129447   1.351   7.211  11.445
 2652TIP3    H229448   1.353   7.358  11.408
 2653TIP3   OH229449   0.241   6.069  11.438
 2653TIP3    H129450   0.173   6.116  11.486
 2653TIP3    H229451   0.251   5.986  11.486
 2654TIP3   OH229452   1.504   6.848  10.404
 2654TIP3    H129453   1.458   6.769  10.431
 2654TIP3    H229454   1.596   6.821  10.398
 2655TIP3   OH229455   0.206   7.175  11.296
 2655TIP3    H129456   0.246   7.104  11.347
 2655TIP3    H229457   0.113   7.170  11.317
 2656TIP3   OH229458   0.667   7.075  10.228
 2656TIP3    H129459   0.751   7.036  10.254
 2656TIP3    H229460   0.672   7.165  10.260
 2657TIP3   OH229461   0.373   6.772  10.350
 2657TIP3    H129462   0.292   6.813  10.382
 2657TIP3    H229463   0.404   6.831  10.281
 2658TIP3   OH229464   1.092   5.992  11.268
 2658TIP3    H129465   1.164   6.033  11.317
 2658TIP3    H229466   1.068   5.915  11.320
 2659TIP3   OH229467   1.166   6.029  10.509
 2659TIP3    H129468   1.208   6.048  10.425
 2659TIP3    H229469   1.223   6.071  10.574
 2660TIP3   OH229470   0.945   7.177  10.233
 2660TIP3    H129471   0.885   7.246  10.263
 2660TIP3    H229472   0.986   7.213  10.155
 2661TIP3   OH229473   0.983   6.262  11.415
 2661TIP3    H129474   0.980   6.319  11.492
 2661TIP3    H229475   1.014   6.177  11.449
 2662TIP3   OH229476   0.934   5.910  10.601
 2662TIP3    H129477   0.934   5.945  10.690
 2662TIP3    H229478   1.019   5.935  10.565
 2663TIP3   OH229479   0.725  -0.005  10.318
 2663TIP3    H129480   0.755   0.086  10.323
 2663TIP3    H229481   0.672  -0.017  10.397
 2664TIP3   OH229482   1.536   6.050  11.490
 2664TIP3    H129483   1.444   6.067  11.472
 2664TIP3    H229484   1.567   6.001  11.414
 2665TIP3   OH229485   1.455   6.433  10.909
 2665TIP3    H129486   1.371   6.393  10.889
 2665TIP3    H229487   1.502   6.366  10.959
 2666TIP3   OH229488   0.439   6.947  10.139
 2666TIP3    H129489   0.515   6.993  10.175
 2666TIP3    H229490   0.475   6.896  10.066
 2667TIP3   OH229491   0.301   5.800  10.930
 2667TIP3    H129492   0.304   5.777  10.837
 2667TIP3    H229493   0.275   5.719  10.973
 2668TIP3   OH229494   0.193   7.111  10.602
 2668TIP3    H129495   0.110   7.137  10.642
 2668TIP3    H229496   0.202   7.166  10.525
 2669TIP3   OH229497   0.642   7.274  11.925
 2669TIP3    H129498   0.718   7.217  11.909
 2669TIP3    H229499   0.579   7.250  11.857
 2670TIP3   OH229500   1.250   7.131  11.774
 2670TIP3    H129501   1.226   7.049  11.817
 2670TIP3    H229502   1.336   7.152  11.809
 2671TIP3   OH229503   0.120   6.842  11.833
 2671TIP3    H129504   0.114   6.747  11.822
 2671TIP3    H229505   0.029   6.871  11.835
 2672TIP3   OH229506   0.543   6.790   9.934
 2672TIP3    H129507   0.548   6.697   9.955
 2672TIP3    H229508   0.552   6.794   9.839
 2673TIP3   OH229509   0.780   6.813  11.750
 2673TIP3    H129510   0.744   6.843  11.666
 2673TIP3    H229511   0.804   6.722  11.734
 2674TIP3   OH229512   1.350   6.832  11.493
 2674TIP3    H129513   1.440   6.858  11.475
 2674TIP3    H229514   1.301   6.914  11.491
 2675TIP3   OH229515   0.180   6.559  11.739
 2675TIP3    H129516   0.273   6.563  11.717
 2675TIP3    H229517   0.178   6.546  11.834
 2676TIP3   OH229518   0.686   6.598  10.268
 2676TIP3    H129519   0.619   6.601  10.336
 2676TIP3    H229520   0.642   6.563  10.191
 2677TIP3   OH229521   0.644   6.439  11.487
 2677TIP3    H129522   0.566   6.495  11.487
 2677TIP3    H229523   0.708   6.486  11.434
 2678TIP3   OH229524   1.111   6.679  11.766
 2678TIP3    H129525   1.189   6.638  11.728
 2678TIP3    H229526   1.077   6.614  11.828
 2679TIP3   OH229527   0.648   6.179  11.577
 2679TIP3    H129528   0.649   6.120  11.502
 2679TIP3    H229529   0.646   6.267  11.538
 2680TIP3   OH229530   0.661   6.019  11.346
 2680TIP3    H129531   0.712   6.070  11.283
 2680TIP3    H229532   0.574   6.014  11.308
 2681TIP3   OH229533   0.846   6.585  11.368
 2681TIP3    H129534   0.904   6.646  11.412
 2681TIP3    H229535   0.799   6.638  11.303
 2682TIP3   OH229536   1.257   6.328  11.828
 2682TIP3    H129537   1.296   6.241  11.822
 2682TIP3    H229538   1.328   6.385  11.856
 2683TIP3   OH229539   1.391   6.612  11.645
 2683TIP3    H129540   1.362   6.690  11.597
 2683TIP3    H229541   1.486   6.617  11.643
 2684TIP3   OH229542   0.486   6.227  11.801
 2684TIP3    H129543   0.400   6.186  11.791
 2684TIP3    H229544   0.528   6.217  11.716
 2685TIP3   OH229545   0.728   5.754  11.406
 2685TIP3    H129546   0.704   5.845  11.387
 2685TIP3    H229547   0.662   5.702  11.359
 2686TIP3   OH229548   0.870   6.147  11.742
 2686TIP3    H129549   0.835   6.118  11.826
 2686TIP3    H229550   0.794   6.153  11.684
 2687TIP3   OH229551   1.127   6.078  11.651
 2687TIP3    H129552   1.040   6.085  11.691
 2687TIP3    H229553   1.180   6.036  11.719
 2688TIP3   OH229554   1.305   5.974  11.846
 2688TIP3    H129555   1.302   5.880  11.831
 2688TIP3    H229556   1.280   5.985  11.938
 2689TIP3   OH229557   0.267   6.044  11.779
 2689TIP3    H129558   0.273   5.966  11.723
 2689TIP3    H229559   0.282   6.011  11.867
 2690TIP3   OH229560   0.731   5.669  11.665
 2690TIP3    H129561   0.787   5.591  11.658
 2690TIP3    H229562   0.724   5.702  11.575
 2691TIP3   OH229563   0.808   5.826  11.879
 2691TIP3    H129564   0.786   5.775  11.801
 2691TIP3    H229565   0.747   5.900  11.878
 2692TIP3   OH229566   0.165   6.897  10.114
 2692TIP3    H129567   0.251   6.940  10.118
 2692TIP3    H229568   0.178   6.814  10.159
 2693TIP3   OH229569   0.048   7.314  10.856
 2693TIP3    H129570   0.076   7.236  10.905
 2693TIP3    H229571   0.119   7.376  10.867
 2694TIP3   OH229572   1.635   6.925  11.910
 2694TIP3    H129573   1.553   6.944  11.955
 2694TIP3    H229574   1.687   7.005  11.919
 2695TIP3   OH229575   1.760   6.754  10.417
 2695TIP3    H129576   1.839   6.807  10.405
 2695TIP3    H229577   1.788   6.683  10.474
 2696TIP3   OH229578   1.833   6.554  10.597
 2696TIP3    H129579   1.745   6.526  10.625
 2696TIP3    H229580   1.880   6.571  10.678
 2697TIP3   OH229581   1.821   6.861  11.113
 2697TIP3    H129582   1.865   6.782  11.081
 2697TIP3    H229583   1.820   6.920  11.038
 2698TIP3   OH229584   1.596   7.137  11.285
 2698TIP3    H129585   1.539   7.198  11.332
 2698TIP3    H229586   1.558   7.131  11.197
 2699TIP3   OH229587   1.579   6.454  10.658
 2699TIP3    H129588   1.574   6.365  10.625
 2699TIP3    H229589   1.544   6.449  10.748
 2700TIP3   OH229590   0.068   6.647  11.051
 2700TIP3    H129591   0.089   6.653  10.957
 2700TIP3    H229592   0.152   6.625  11.092
 2701TIP3   OH229593   1.668   6.635  11.634
 2701TIP3    H129594   1.727   6.562  11.616
 2701TIP3    H229595   1.716   6.712  11.605
 2702TIP3   OH229596   1.811   6.398  11.614
 2702TIP3    H129597   1.723   6.361  11.622
 2702TIP3    H229598   1.869   6.327  11.639
 2703TIP3   OH229599   1.561   6.207  10.513
 2703TIP3    H129600   1.579   6.113  10.518
 2703TIP3    H229601   1.626   6.241  10.452
 2704TIP3   OH229602   1.601   6.241  11.049
 2704TIP3    H129603   1.694   6.254  11.028
 2704TIP3    H229604   1.596   6.254  11.143
 2705TIP3   OH229605   1.622   6.324  11.316
 2705TIP3    H129606   1.542   6.351  11.361
 2705TIP3    H229607   1.672   6.404  11.305
 2706TIP3   OH229608   0.059   6.161  11.635
 2706TIP3    H129609   0.122   6.133  11.701
 2706TIP3    H229610   0.000   6.087  11.624
 2707TIP3   OH229611   1.857   5.745  11.831
 2707TIP3    H129612   1.920   5.687  11.788
 2707TIP3    H229613   1.846   5.818  11.771
 2708TIP3   OH229614   1.605   5.938  10.516
 2708TIP3    H129615   1.622   5.881  10.591
 2708TIP3    H229616   1.546   5.887  10.460
 2709TIP3   OH229617   0.166   6.035  10.938
 2709TIP3    H129618   0.204   5.947  10.940
 2709TIP3    H229619   0.239   6.093  10.955
 2710TIP3   OH229620   0.001   6.378  11.073
 2710TIP3    H129621   0.075   6.356  11.017
 2710TIP3    H229622   0.000   6.474  11.075
 2711TIP3   OH229623   1.773   5.939  11.657
 2711TIP3    H129624   1.697   5.977  11.700
 2711TIP3    H229625   1.737   5.897  11.579
 2712TIP3   OH229626   1.849   5.898  10.215
 2712TIP3    H129627   1.927   5.850  10.190
 2712TIP3    H229628   1.868   5.989  10.193
 2713TIP3   OH229629   7.341   5.781  11.336
 2713TIP3    H129630   7.288   5.703  11.353
 2713TIP3    H229631   7.292   5.830  11.269
 2714TIP3   OH229632   0.208   7.146  11.705
 2714TIP3    H129633   0.124   7.160  11.661
 2714TIP3    H229634   0.185   7.126  11.795
 2715TIP3   OH229635   0.488   7.202  11.222
 2715TIP3    H129636   0.398   7.217  11.249
 2715TIP3    H229637   0.540   7.217  11.301
 2716TIP3   OH229638   1.686   5.737  11.467
 2716TIP3    H129639   1.628   5.770  11.398
 2716TIP3    H229640   1.703   5.646  11.442
 2717TIP3   OH229641   0.397   7.235  10.871
 2717TIP3    H129642   0.373   7.146  10.895
 2717TIP3    H229643   0.490   7.243  10.895
 2718TIP3   OH229644   0.644   7.234  11.000
 2718TIP3    H129645   0.670   7.143  10.986
 2718TIP3    H229646   0.595   7.233  11.082
 2719TIP3   OH229647   1.039   5.838  10.983
 2719TIP3    H129648   0.967   5.776  10.972
 2719TIP3    H229649   1.109   5.803  10.928
 2720TIP3   OH229650   1.511   5.739  10.948
 2720TIP3    H129651   1.575   5.759  10.880
 2720TIP3    H229652   1.427   5.739  10.902
 2721TIP3   OH229653   1.694   5.806  10.749
 2721TIP3    H129654   1.756   5.748  10.706
 2721TIP3    H229655   1.745   5.885  10.768
 2722TIP3   OH229656   0.300   5.729  10.666
 2722TIP3    H129657   0.213   5.714  10.631
 2722TIP3    H229658   0.344   5.644  10.660
 2723TIP3   OH229659   0.681   5.787  10.616
 2723TIP3    H129660   0.773   5.811  10.612
 2723TIP3    H229661   0.681   5.691  10.610
 2724TIP3   OH229662   1.255   5.742  10.832
 2724TIP3    H129663   1.263   5.728  10.738
 2724TIP3    H229664   1.231   5.656  10.868
 2725TIP3   OH229665   1.427   5.784  10.369
 2725TIP3    H129666   1.380   5.804  10.288
 2725TIP3    H229667   1.378   5.711  10.407
 2726TIP3   OH229668   0.169   7.279  10.391
 2726TIP3    H129669   0.094   7.229  10.356
 2726TIP3    H229670   0.133   7.365  10.411
 2727TIP3   OH229671   0.829   5.993  10.354
 2727TIP3    H129672   0.819   5.910  10.308
 2727TIP3    H229673   0.855   5.969  10.443
 2728TIP3   OH229674   0.287   5.812  11.618
 2728TIP3    H129675   0.231   5.742  11.651
 2728TIP3    H229676   0.371   5.797  11.661
 2729TIP3   OH229677   0.492   5.737  11.788
 2729TIP3    H129678   0.575   5.708  11.751
 2729TIP3    H229679   0.457   5.659  11.832
 2730TIP3   OH229680   1.332   5.699  11.799
 2730TIP3    H129681   1.321   5.652  11.881
 2730TIP3    H229682   1.424   5.688  11.777
 2731TIP3   OH229683   1.611   7.298  11.623
 2731TIP3    H129684   1.538   7.287  11.562
 2731TIP3    H229685   1.570   7.302  11.709
 2732TIP3   OH229686   3.033   6.628  10.644
 2732TIP3    H129687   3.031   6.722  10.623
 2732TIP3    H229688   2.971   6.619  10.717
 2733TIP3   OH229689   2.955   6.578  11.040
 2733TIP3    H129690   2.992   6.540  11.119
 2733TIP3    H229691   2.910   6.505  10.997
 2734TIP3   OH229692   2.174   6.527  11.175
 2734TIP3    H129693   2.182   6.458  11.241
 2734TIP3    H229694   2.264   6.545  11.148
 2735TIP3   OH229695   3.343   6.915  10.884
 2735TIP3    H129696   3.306   6.842  10.934
 2735TIP3    H229697   3.363   6.982  10.949
 2736TIP3   OH229698   2.318   6.988  11.007
 2736TIP3    H129699   2.273   6.909  10.977
 2736TIP3    H229700   2.410   6.973  10.984
 2737TIP3   OH229701   1.966   6.324  10.510
 2737TIP3    H129702   1.935   6.410  10.538
 2737TIP3    H229703   1.893   6.286  10.462
 2738TIP3   OH229704   2.013   6.575  10.812
 2738TIP3    H129705   2.046   6.486  10.825
 2738TIP3    H229706   2.091   6.630  10.812
 2739TIP3   OH229707   2.809   6.820  11.056
 2739TIP3    H129708   2.848   6.736  11.030
 2739TIP3    H229709   2.877   6.862  11.109
 2740TIP3   OH229710   3.657   6.012  11.124
 2740TIP3    H129711   3.657   6.052  11.211
 2740TIP3    H229712   3.680   6.084  11.065
 2741TIP3   OH229713   3.107   6.260  11.068
 2741TIP3    H129714   3.124   6.167  11.082
 2741TIP3    H229715   3.095   6.268  10.973
 2742TIP3   OH229716   2.476   6.081  10.796
 2742TIP3    H129717   2.481   6.165  10.750
 2742TIP3    H229718   2.425   6.025  10.737
 2743TIP3   OH229719   3.259   6.103  10.654
 2743TIP3    H129720   3.291   6.067  10.737
 2743TIP3    H229721   3.338   6.129  10.607
 2744TIP3   OH229722   2.104   6.321  10.874
 2744TIP3    H129723   2.169   6.279  10.930
 2744TIP3    H229724   2.124   6.289  10.786
 2745TIP3   OH229725   2.571   6.466  10.866
 2745TIP3    H129726   2.657   6.430  10.888
 2745TIP3    H229727   2.537   6.406  10.800
 2746TIP3   OH229728   3.695   6.122  11.377
 2746TIP3    H129729   3.664   6.211  11.358
 2746TIP3    H229730   3.622   6.080  11.422
 2747TIP3   OH229731   2.320   5.995  11.216
 2747TIP3    H129732   2.300   6.052  11.141
 2747TIP3    H229733   2.248   6.009  11.277
 2748TIP3   OH229734   3.020   6.897  10.602
 2748TIP3    H129735   2.990   6.913  10.512
 2748TIP3    H229736   3.103   6.944  10.608
 2749TIP3   OH229737   2.583   6.762  11.206
 2749TIP3    H129738   2.529   6.837  11.231
 2749TIP3    H229739   2.654   6.799  11.154
 2750TIP3   OH229740   3.333   6.049  10.910
 2750TIP3    H129741   3.268   6.012  10.969
 2750TIP3    H229742   3.379   6.115  10.962
 2751TIP3   OH229743   2.300   6.161  10.996
 2751TIP3    H129744   2.356   6.218  11.050
 2751TIP3    H229745   2.358   6.128  10.928
 2752TIP3   OH229746   2.405   6.970  11.277
 2752TIP3    H129747   2.373   6.987  11.188
 2752TIP3    H229748   2.327   6.975  11.332
 2753TIP3   OH229749   1.984   6.913  10.375
 2753TIP3    H129750   1.950   6.925  10.286
 2753TIP3    H229751   2.026   6.996  10.397
 2754TIP3   OH229752   3.383   7.137  11.067
 2754TIP3    H129753   3.295   7.136  11.105
 2754TIP3    H229754   3.386   7.218  11.016
 2755TIP3   OH229755   3.388   5.900  11.215
 2755TIP3    H129756   3.304   5.925  11.176
 2755TIP3    H229757   3.454   5.923  11.150
 2756TIP3   OH229758   2.698   5.724  10.989
 2756TIP3    H129759   2.691   5.690  10.900
 2756TIP3    H229760   2.608   5.746  11.014
 2757TIP3   OH229761   3.159   7.247  10.623
 2757TIP3    H129762   3.202   7.163  10.638
 2757TIP3    H229763   3.183   7.270  10.533
 2758TIP3   OH229764   3.277   7.001  10.628
 2758TIP3    H129765   3.322   6.950  10.561
 2758TIP3    H229766   3.311   6.966  10.711
 2759TIP3   OH229767   3.481   6.921  11.419
 2759TIP3    H129768   3.475   6.861  11.344
 2759TIP3    H229769   3.497   7.007  11.380
 2760TIP3   OH229770   3.655   6.564  11.247
 2760TIP3    H129771   3.585   6.629  11.238
 2760TIP3    H229772   3.711   6.579  11.171
 2761TIP3   OH229773   3.288   6.600  10.528
 2761TIP3    H129774   3.213   6.609  10.586
 2761TIP3    H229775   3.352   6.551  10.579
 2762TIP3   OH229776   3.270   6.428  11.450
 2762TIP3    H129777   3.258   6.496  11.516
 2762TIP3    H229778   3.203   6.447  11.384
 2763TIP3   OH229779   2.443   6.669  10.726
 2763TIP3    H129780   2.407   6.630  10.646
 2763TIP3    H229781   2.492   6.598  10.767
 2764TIP3   OH229782   2.585   6.953  10.945
 2764TIP3    H129783   2.580   6.959  10.849
 2764TIP3    H229784   2.667   6.906  10.962
 2765TIP3   OH229785   2.429   6.572  11.077
 2765TIP3    H129786   2.481   6.542  11.003
 2765TIP3    H229787   2.485   6.637  11.121
 2766TIP3   OH229788   3.150   7.105  11.211
 2766TIP3    H129789   3.125   7.126  11.301
 2766TIP3    H229790   3.104   7.023  11.193
 2767TIP3   OH229791   2.558   6.978  11.514
 2767TIP3    H129792   2.494   7.029  11.562
 2767TIP3    H229793   2.518   6.962  11.429
 2768TIP3   OH229794   2.247   6.577  11.525
 2768TIP3    H129795   2.259   6.664  11.563
 2768TIP3    H229796   2.159   6.578  11.490
 2769TIP3   OH229797   2.873   7.279  10.597
 2769TIP3    H129798   2.956   7.234  10.615
 2769TIP3    H229799   2.894   7.372  10.609
 2770TIP3   OH229800   2.375   7.160  11.615
 2770TIP3    H129801   2.373   7.208  11.533
 2770TIP3    H229802   2.285   7.163  11.647
 2771TIP3   OH229803   2.349   6.567  10.492
 2771TIP3    H129804   2.271   6.585  10.440
 2771TIP3    H229805   2.395   6.498  10.444
 2772TIP3   OH229806   1.961   6.838  11.361
 2772TIP3    H129807   1.910   6.847  11.281
 2772TIP3    H229808   1.971   6.744  11.373
 2773TIP3   OH229809   1.974   7.163  11.013
 2773TIP3    H129810   2.051   7.127  11.058
 2773TIP3    H229811   1.912   7.183  11.084
 2774TIP3   OH229812   3.740   7.167  11.677
 2774TIP3    H129813   3.731   7.074  11.655
 2774TIP3    H229814   3.651   7.202  11.668
 2775TIP3   OH229815   2.801   7.105  11.506
 2775TIP3    H129816   2.787   7.182  11.561
 2775TIP3    H229817   2.718   7.057  11.508
 2776TIP3   OH229818   3.452   6.302  11.660
 2776TIP3    H129819   3.392   6.335  11.593
 2776TIP3    H229820   3.430   6.209  11.667
 2777TIP3   OH229821   2.180   6.986  11.436
 2777TIP3    H129822   2.207   6.943  11.518
 2777TIP3    H229823   2.102   6.938  11.409
 2778TIP3   OH229824   2.424   5.791  11.055
 2778TIP3    H129825   2.350   5.780  10.995
 2778TIP3    H229826   2.400   5.866  11.109
 2779TIP3   OH229827   2.903   5.779  11.399
 2779TIP3    H129828   2.946   5.728  11.467
 2779TIP3    H229829   2.810   5.768  11.416
 2780TIP3   OH229830   3.249   6.157  11.517
 2780TIP3    H129831   3.171   6.135  11.567
 2780TIP3    H229832   3.231   6.244  11.481
 2781TIP3   OH229833   2.440   6.314  11.182
 2781TIP3    H129834   2.374   6.313  11.251
 2781TIP3    H229835   2.444   6.406  11.154
 2782TIP3   OH229836   2.451   6.321  10.667
 2782TIP3    H129837   2.358   6.304  10.654
 2782TIP3    H229838   2.486   6.330  10.578
 2783TIP3   OH229839   3.014   6.364  10.537
 2783TIP3    H129840   3.028   6.457  10.555
 2783TIP3    H229841   3.090   6.337  10.486
 2784TIP3   OH229842   2.909   6.363  11.653
 2784TIP3    H129843   2.856   6.290  11.683
 2784TIP3    H229844   2.991   6.355  11.702
 2785TIP3   OH229845   3.104   6.285  10.792
 2785TIP3    H129846   3.052   6.321  10.720
 2785TIP3    H229847   3.154   6.214  10.753
 2786TIP3   OH229848   2.229   6.322  11.357
 2786TIP3    H129849   2.229   6.365  11.443
 2786TIP3    H229850   2.188   6.237  11.373
 2787TIP3   OH229851   1.852   6.024  10.773
 2787TIP3    H129852   1.928   6.032  10.831
 2787TIP3    H229853   1.889   6.030  10.685
 2788TIP3   OH229854   1.965   6.162  10.226
 2788TIP3    H129855   2.034   6.215  10.187
 2788TIP3    H229856   2.003   6.126  10.306
 2789TIP3   OH229857   3.057   6.439  11.263
 2789TIP3    H129858   3.087   6.380  11.194
 2789TIP3    H229859   2.990   6.389  11.310
 2790TIP3   OH229860   2.765   6.086  10.782
 2790TIP3    H129861   2.673   6.072  10.803
 2790TIP3    H229862   2.813   6.031  10.845
 2791TIP3   OH229863   2.193   6.225  10.634
 2791TIP3    H129864   2.117   6.248  10.579
 2791TIP3    H229865   2.215   6.136  10.608
 2792TIP3   OH229866   2.533   6.338  10.403
 2792TIP3    H129867   2.613   6.289  10.421
 2792TIP3    H229868   2.522   6.331  10.308
 2793TIP3   OH229869   3.137   5.984  11.104
 2793TIP3    H129870   3.096   5.996  11.190
 2793TIP3    H229871   3.068   5.948  11.049
 2794TIP3   OH229872   2.247   6.825  11.664
 2794TIP3    H129873   2.312   6.819  11.733
 2794TIP3    H229874   2.163   6.830  11.710
 2795TIP3   OH229875   2.811   6.348  10.949
 2795TIP3    H129876   2.844   6.281  10.889
 2795TIP3    H229877   2.781   6.299  11.025
 2796TIP3   OH229878   2.309   5.968  10.601
 2796TIP3    H129879   2.245   5.898  10.612
 2796TIP3    H229880   2.367   5.937  10.532
 2797TIP3   OH229881   2.703   6.225  11.175
 2797TIP3    H129882   2.617   6.267  11.186
 2797TIP3    H229883   2.754   6.252  11.251
 2798TIP3   OH229884   2.686   6.795  10.303
 2798TIP3    H129885   2.624   6.734  10.263
 2798TIP3    H229886   2.672   6.786  10.397
 2799TIP3   OH229887   3.463   6.758  11.194
 2799TIP3    H129888   3.525   6.806  11.138
 2799TIP3    H229889   3.390   6.737  11.136
 2800TIP3   OH229890   2.937   6.845  11.498
 2800TIP3    H129891   2.944   6.797  11.581
 2800TIP3    H229892   2.885   6.922  11.520
 2801TIP3   OH229893   3.237   6.279  10.379
 2801TIP3    H129894   3.303   6.257  10.444
 2801TIP3    H229895   3.287   6.301  10.300
 2802TIP3   OH229896   2.253   6.731  10.911
 2802TIP3    H129897   2.315   6.721  10.839
 2802TIP3    H229898   2.287   6.674  10.980
 2803TIP3   OH229899   2.950   6.921  10.340
 2803TIP3    H129900   3.025   6.923  10.281
 2803TIP3    H229901   2.877   6.892  10.285
 2804TIP3   OH229902   1.973   6.568  11.456
 2804TIP3    H129903   1.946   6.521  11.535
 2804TIP3    H229904   1.906   6.548  11.391
 2805TIP3   OH229905   2.697   6.546  11.679
 2805TIP3    H129906   2.628   6.503  11.628
 2805TIP3    H229907   2.776   6.495  11.660
 2806TIP3   OH229908   3.078   7.132  11.483
 2806TIP3    H129909   2.984   7.122  11.473
 2806TIP3    H229910   3.092   7.127  11.578
 2807TIP3   OH229911   3.539   6.320  10.284
 2807TIP3    H129912   3.558   6.283  10.198
 2807TIP3    H229913   3.568   6.412  10.277
 2808TIP3   OH229914   3.701   6.899  11.585
 2808TIP3    H129915   3.613   6.914  11.549
 2808TIP3    H229916   3.755   6.883  11.508
 2809TIP3   OH229917   3.637   7.165  10.316
 2809TIP3    H129918   3.561   7.117  10.348
 2809TIP3    H229919   3.672   7.110  10.246
 2810TIP3   OH229920   3.244   6.682  11.025
 2810TIP3    H129921   3.149   6.672  11.015
 2810TIP3    H229922   3.280   6.602  10.987
 2811TIP3   OH229923   2.500   7.026  10.688
 2811TIP3    H129924   2.499   7.114  10.650
 2811TIP3    H229925   2.415   6.989  10.667
 2812TIP3   OH229926   2.628   6.808  10.573
 2812TIP3    H129927   2.609   6.896  10.606
 2812TIP3    H229928   2.573   6.750  10.625
 2813TIP3   OH229929   2.678   7.226  11.265
 2813TIP3    H129930   2.682   7.314  11.302
 2813TIP3    H229931   2.739   7.174  11.318
 2814TIP3   OH229932   2.493   7.272  10.562
 2814TIP3    H129933   2.402   7.290  10.540
 2814TIP3    H229934   2.522   7.348  10.612
 2815TIP3   OH229935   3.023   6.857  11.235
 2815TIP3    H129936   2.990   6.847  11.324
 2815TIP3    H229937   3.084   6.784  11.224
 2816TIP3   OH229938   3.199   6.903  10.221
 2816TIP3    H129939   3.265   6.887  10.288
 2816TIP3    H229940   3.218   6.839  10.153
 2817TIP3   OH229941   3.297   7.296  11.456
 2817TIP3    H129942   3.221   7.237  11.463
 2817TIP3    H229943   3.260   7.378  11.424
 2818TIP3   OH229944   2.111   6.067  11.386
 2818TIP3    H129945   2.021   6.094  11.368
 2818TIP3    H229946   2.103   5.998  11.452
 2819TIP3   OH229947   3.377   6.839  10.423
 2819TIP3    H129948   3.352   6.751  10.452
 2819TIP3    H229949   3.471   6.833  10.408
 2820TIP3   OH229950   2.152   7.237  11.272
 2820TIP3    H129951   2.133   7.168  11.335
 2820TIP3    H229952   2.079   7.298  11.281
 2821TIP3   OH229953   2.609   7.060  10.318
 2821TIP3    H129954   2.641   6.971  10.310
 2821TIP3    H229955   2.542   7.069  10.250
 2822TIP3   OH229956   3.017   6.021  11.353
 2822TIP3    H129957   3.061   6.030  11.437
 2822TIP3    H229958   2.970   5.939  11.359
 2823TIP3   OH229959   3.065   6.008  10.483
 2823TIP3    H129960   3.071   6.065  10.406
 2823TIP3    H229961   3.132   6.040  10.542
 2824TIP3   OH229962   2.767   6.208  10.521
 2824TIP3    H129963   2.851   6.254  10.518
 2824TIP3    H229964   2.765   6.167  10.607
 2825TIP3   OH229965   2.880   6.269  11.386
 2825TIP3    H129966   2.885   6.289  11.480
 2825TIP3    H229967   2.918   6.181  11.378
 2826TIP3   OH229968   2.889   5.865  10.638
 2826TIP3    H129969   2.843   5.946  10.662
 2826TIP3    H229970   2.950   5.892  10.569
 2827TIP3   OH229971   3.466   6.001  11.462
 2827TIP3    H129972   3.390   6.053  11.487
 2827TIP3    H229973   3.439   5.955  11.383
 2828TIP3   OH229974   3.311   6.434  10.918
 2828TIP3    H129975   3.236   6.390  10.879
 2828TIP3    H229976   3.351   6.367  10.975
 2829TIP3   OH229977   2.336   7.057  10.150
 2829TIP3    H129978   2.298   7.145  10.159
 2829TIP3    H229979   2.356   7.049  10.057
 2830TIP3   OH229980   2.166   6.331  10.059
 2830TIP3    H129981   2.255   6.348  10.089
 2830TIP3    H229982   2.174   6.255  10.001
 2831TIP3   OH229983   2.175   5.763  10.930
 2831TIP3    H129984   2.159   5.764  10.835
 2831TIP3    H229985   2.144   5.678  10.959
 2832TIP3   OH229986   2.051   7.189  10.446
 2832TIP3    H129987   1.977   7.188  10.507
 2832TIP3    H229988   2.114   7.249  10.486
 2833TIP3   OH229989   2.530   7.265  11.811
 2833TIP3    H129990   2.582   7.198  11.854
 2833TIP3    H229991   2.475   7.217  11.749
 2834TIP3   OH229992   3.106   7.134  11.756
 2834TIP3    H129993   3.087   7.051  11.801
 2834TIP3    H229994   3.186   7.165  11.798
 2835TIP3   OH229995   3.278   7.148  10.127
 2835TIP3    H129996   3.238   7.069  10.162
 2835TIP3    H229997   3.248   7.218  10.185
 2836TIP3   OH229998   2.000   6.818  11.789
 2836TIP3    H129999   2.002   6.722  11.788
 2836TIP3    H230000   1.926   6.841  11.733
 2837TIP3   OH230001   2.658   6.819  11.725
 2837TIP3    H130002   2.630   6.854  11.640
 2837TIP3    H230003   2.683   6.728  11.706
 2838TIP3   OH230004   3.236   6.834  11.522
 2838TIP3    H130005   3.316   6.876  11.489
 2838TIP3    H230006   3.165   6.891  11.492
 2839TIP3   OH230007   2.075   6.548  11.775
 2839TIP3    H130008   2.159   6.529  11.734
 2839TIP3    H230009   2.093   6.545  11.869
 2840TIP3   OH230010   2.495   6.436  11.516
 2840TIP3    H130011   2.414   6.489  11.514
 2840TIP3    H230012   2.546   6.468  11.441
 2841TIP3   OH230013   3.008   6.682  11.776
 2841TIP3    H130014   3.086   6.641  11.738
 2841TIP3    H230015   2.974   6.617  11.837
 2842TIP3   OH230016   3.548   6.668   9.989
 2842TIP3    H130017   3.474   6.637   9.937
 2842TIP3    H230018   3.568   6.755   9.953
 2843TIP3   OH230019   2.520   6.169  11.580
 2843TIP3    H130020   2.538   6.116  11.503
 2843TIP3    H230021   2.518   6.259  11.548
 2844TIP3   OH230022   2.566   6.029  11.335
 2844TIP3    H130023   2.621   6.074  11.272
 2844TIP3    H230024   2.481   6.021  11.293
 2845TIP3   OH230025   2.666   6.530  11.328
 2845TIP3    H130026   2.761   6.528  11.327
 2845TIP3    H230027   2.643   6.614  11.288
 2846TIP3   OH230028   3.122   6.317  11.831
 2846TIP3    H130029   3.114   6.243  11.891
 2846TIP3    H230030   3.216   6.333  11.825
 2847TIP3   OH230031   3.282   6.613  11.666
 2847TIP3    H130032   3.257   6.693  11.621
 2847TIP3    H230033   3.378   6.610  11.659
 2848TIP3   OH230034   2.358   6.229  11.798
 2848TIP3    H130035   2.279   6.177  11.786
 2848TIP3    H230036   2.407   6.218  11.716
 2849TIP3   OH230037   2.626   5.763  11.390
 2849TIP3    H130038   2.607   5.854  11.370
 2849TIP3    H230039   2.556   5.714  11.346
 2850TIP3   OH230040   2.768   6.146  11.725
 2850TIP3    H130041   2.770   6.116  11.816
 2850TIP3    H230042   2.677   6.135  11.698
 2851TIP3   OH230043   3.027   6.066  11.642
 2851TIP3    H130044   2.939   6.079  11.676
 2851TIP3    H230045   3.075   6.025  11.714
 2852TIP3   OH230046   3.200   5.956  11.836
 2852TIP3    H130047   3.190   5.861  11.834
 2852TIP3    H230048   3.163   5.982  11.920
 2853TIP3   OH230049   2.160   6.027  11.765
 2853TIP3    H130050   2.165   5.949  11.709
 2853TIP3    H230051   2.176   5.993  11.854
 2854TIP3   OH230052   2.634   5.685  11.648
 2854TIP3    H130053   2.689   5.607  11.645
 2854TIP3    H230054   2.628   5.714  11.557
 2855TIP3   OH230055   2.687   5.813  11.883
 2855TIP3    H130056   2.679   5.771  11.797
 2855TIP3    H230057   2.627   5.887  11.880
 2856TIP3   OH230058   1.966   0.020  10.814
 2856TIP3    H130059   1.950  -0.064  10.857
 2856TIP3    H230060   2.014   0.071  10.879
 2857TIP3   OH230061   3.529   6.937  11.901
 2857TIP3    H130062   3.444   6.950  11.941
 2857TIP3    H230063   3.583   7.010  11.933
 2858TIP3   OH230064   3.650   6.815  10.411
 2858TIP3    H130065   3.731   6.866  10.403
 2858TIP3    H230066   3.659   6.768  10.493
 2859TIP3   OH230067   3.662   6.657  10.631
 2859TIP3    H130068   3.586   6.605  10.657
 2859TIP3    H230069   3.728   6.593  10.605
 2860TIP3   OH230070   3.712   6.866  11.111
 2860TIP3    H130071   3.757   6.795  11.066
 2860TIP3    H230072   3.734   6.944  11.060
 2861TIP3   OH230073   3.503   7.179  11.315
 2861TIP3    H130074   3.422   7.213  11.354
 2861TIP3    H230075   3.481   7.164  11.223
 2862TIP3   OH230076   3.603   6.585  10.248
 2862TIP3    H130077   3.593   6.610  10.157
 2862TIP3    H230078   3.624   6.667  10.293
 2863TIP3   OH230079   3.564   6.217  10.030
 2863TIP3    H130080   3.592   6.295   9.982
 2863TIP3    H230081   3.584   6.144   9.971
 2864TIP3   OH230082   3.470   6.466  10.695
 2864TIP3    H130083   3.532   6.393  10.697
 2864TIP3    H230084   3.421   6.459  10.777
 2865TIP3   OH230085   1.941   6.616  11.071
 2865TIP3    H130086   1.952   6.605  10.977
 2865TIP3    H230087   2.026   6.594  11.108
 2866TIP3   OH230088   3.559   6.630  11.636
 2866TIP3    H130089   3.618   6.556  11.618
 2866TIP3    H230090   3.603   6.705  11.595
 2867TIP3   OH230091   3.706   6.395  11.612
 2867TIP3    H130092   3.617   6.360  11.621
 2867TIP3    H230093   3.762   6.329  11.651
 2868TIP3   OH230094   3.473   6.191  10.511
 2868TIP3    H130095   3.543   6.196  10.576
 2868TIP3    H230096   3.507   6.240  10.435
 2869TIP3   OH230097   3.451   6.245  11.068
 2869TIP3    H130098   3.542   6.253  11.041
 2869TIP3    H230099   3.452   6.263  11.162
 2870TIP3   OH230100   3.513   6.339  11.324
 2870TIP3    H130101   3.433   6.372  11.365
 2870TIP3    H230102   3.562   6.417  11.299
 2871TIP3   OH230103   1.940   6.157  11.652
 2871TIP3    H130104   2.022   6.128  11.694
 2871TIP3    H230105   1.881   6.082  11.661
 2872TIP3   OH230106   3.750   5.740  11.821
 2872TIP3    H130107   3.815   5.683  11.781
 2872TIP3    H230108   3.742   5.814  11.761
 2873TIP3   OH230109   2.052   6.010  10.975
 2873TIP3    H130110   2.089   5.922  10.966
 2873TIP3    H230111   2.128   6.068  10.980
 2874TIP3   OH230112   1.869   6.303  11.032
 2874TIP3    H130113   1.936   6.290  10.965
 2874TIP3    H230114   1.900   6.379  11.082
 2875TIP3   OH230115   3.663   5.955  11.664
 2875TIP3    H130116   3.596   5.986  11.726
 2875TIP3    H230117   3.614   5.938  11.584
 2876TIP3   OH230118   1.892   5.987  10.492
 2876TIP3    H130119   1.796   5.980  10.485
 2876TIP3    H230120   1.924   5.922  10.429
 2877TIP3   OH230121   1.918   5.766  11.300
 2877TIP3    H130122   1.847   5.763  11.364
 2877TIP3    H230123   1.892   5.834  11.238
 2878TIP3   OH230124   2.128   7.203  11.740
 2878TIP3    H130125   2.045   7.207  11.692
 2878TIP3    H230126   2.107   7.157  11.821
 2879TIP3   OH230127   2.409   7.283  11.366
 2879TIP3    H130128   2.324   7.277  11.323
 2879TIP3    H230129   2.467   7.230  11.311
 2880TIP3   OH230130   3.571   5.703  11.454
 2880TIP3    H130131   3.486   5.701  11.411
 2880TIP3    H230132   3.613   5.620  11.429
 2881TIP3   OH230133   2.318   7.255  10.911
 2881TIP3    H130134   2.296   7.165  10.937
 2881TIP3    H230135   2.411   7.265  10.934
 2882TIP3   OH230136   2.580   7.221  11.008
 2882TIP3    H130137   2.588   7.129  10.982
 2882TIP3    H230138   2.614   7.224  11.097
 2883TIP3   OH230139   2.913   5.903  10.948
 2883TIP3    H130140   2.842   5.842  10.968
 2883TIP3    H230141   2.973   5.853  10.892
 2884TIP3   OH230142   3.380   5.732  10.939
 2884TIP3    H130143   3.432   5.760  10.864
 2884TIP3    H230144   3.289   5.743  10.911
 2885TIP3   OH230145   3.554   5.782  10.728
 2885TIP3    H130146   3.622   5.725  10.693
 2885TIP3    H230147   3.602   5.859  10.759
 2886TIP3   OH230148   2.123   5.764  10.655
 2886TIP3    H130149   2.034   5.745  10.628
 2886TIP3    H230150   2.170   5.681  10.646
 2887TIP3   OH230151   2.678   5.678  10.710
 2887TIP3    H130152   2.754   5.653  10.658
 2887TIP3    H230153   2.663   5.770  10.688
 2888TIP3   OH230154   3.114   5.738  10.842
 2888TIP3    H130155   3.090   5.733  10.749
 2888TIP3    H230156   3.101   5.648  10.874
 2889TIP3   OH230157   2.625   5.947  10.432
 2889TIP3    H130158   2.660   5.889  10.365
 2889TIP3    H230159   2.684   6.023  10.431
 2890TIP3   OH230160   2.166   5.779  11.625
 2890TIP3    H130161   2.108   5.709  11.653
 2890TIP3    H230162   2.249   5.761  11.670
 2891TIP3   OH230163   2.389   5.717  11.776
 2891TIP3    H130164   2.468   5.743  11.729
 2891TIP3    H230165   2.406   5.627  11.804
 2892TIP3   OH230166   3.217   5.681  11.794
 2892TIP3    H130167   3.206   5.634  11.877
 2892TIP3    H230168   3.310   5.675  11.775
 2893TIP3   OH230169   3.487   7.278  11.665
 2893TIP3    H130170   3.425   7.267  11.593
 2893TIP3    H230171   3.485   7.371  11.686
 2894TIP3   OH230172   4.956   6.672  10.574
 2894TIP3    H130173   4.953   6.767  10.585
 2894TIP3    H230174   4.885   6.653  10.512
 2895TIP3   OH230175   4.865   6.596  11.052
 2895TIP3    H130176   4.893   6.543  11.127
 2895TIP3    H230177   4.813   6.536  10.998
 2896TIP3   OH230178   4.064   6.532  11.175
 2896TIP3    H130179   4.077   6.457  11.232
 2896TIP3    H230180   4.150   6.548  11.136
 2897TIP3   OH230181   5.207   6.919  10.870
 2897TIP3    H130182   5.185   6.835  10.911
 2897TIP3    H230183   5.245   6.970  10.941
 2898TIP3   OH230184   4.218   6.980  11.014
 2898TIP3    H130185   4.173   6.905  10.975
 2898TIP3    H230186   4.309   6.971  10.985
 2899TIP3   OH230187   3.840   6.460  10.564
 2899TIP3    H130188   3.857   6.440  10.472
 2899TIP3    H230189   3.799   6.381  10.599
 2900TIP3   OH230190   3.950   6.565  10.804
 2900TIP3    H130191   3.976   6.475  10.824
 2900TIP3    H230192   3.912   6.559  10.716
 2901TIP3   OH230193   4.702   6.829  11.076
 2901TIP3    H130194   4.740   6.750  11.038
 2901TIP3    H230195   4.775   6.871  11.121
 2902TIP3   OH230196   5.600   6.009  11.134
 2902TIP3    H130197   5.594   6.104  11.128
 2902TIP3    H230198   5.664   5.984  11.067
 2903TIP3   OH230199   5.014   6.249  11.072
 2903TIP3    H130200   5.042   6.158  11.079
 2903TIP3    H230201   4.990   6.260  10.980
 2904TIP3   OH230202   5.134   6.184  10.653
 2904TIP3    H130203   5.169   6.125  10.720
 2904TIP3    H230204   5.202   6.186  10.585
 2905TIP3   OH230205   3.973   6.297  10.852
 2905TIP3    H130206   3.986   6.226  10.914
 2905TIP3    H230207   3.895   6.271  10.802
 2906TIP3   OH230208   4.449   6.445  10.847
 2906TIP3    H130209   4.539   6.420  10.870
 2906TIP3    H230210   4.422   6.380  10.782
 2907TIP3   OH230211   5.581   6.179  11.413
 2907TIP3    H130212   5.530   6.233  11.352
 2907TIP3    H230213   5.522   6.107  11.435
 2908TIP3   OH230214   4.214   5.983  11.243
 2908TIP3    H130215   4.188   6.043  11.173
 2908TIP3    H230216   4.137   5.978  11.300
 2909TIP3   OH230217   4.909   6.946  10.527
 2909TIP3    H130218   4.870   6.956  10.440
 2909TIP3    H230219   4.867   7.014  10.580
 2910TIP3   OH230220   4.466   6.760  11.206
 2910TIP3    H130221   4.407   6.833  11.226
 2910TIP3    H230222   4.538   6.800  11.157
 2911TIP3   OH230223   5.231   6.054  10.875
 2911TIP3    H130224   5.261   5.967  10.900
 2911TIP3    H230225   5.284   6.114  10.929
 2912TIP3   OH230226   4.154   6.135  11.026
 2912TIP3    H130227   4.215   6.203  11.054
 2912TIP3    H230228   4.176   6.119  10.934
 2913TIP3   OH230229   4.287   6.968  11.280
 2913TIP3    H130230   4.259   6.977  11.189
 2913TIP3    H230231   4.207   6.974  11.331
 2914TIP3   OH230232   3.882   6.966  10.363
 2914TIP3    H130233   3.831   6.987  10.285
 2914TIP3    H230234   3.971   6.954  10.330
 2915TIP3   OH230235   5.283   7.118  11.075
 2915TIP3    H130236   5.191   7.125  11.101
 2915TIP3    H230237   5.297   7.192  11.016
 2916TIP3   OH230238   5.298   5.919  11.222
 2916TIP3    H130239   5.217   5.941  11.177
 2916TIP3    H230240   5.367   5.933  11.157
 2917TIP3   OH230241   4.576   5.688  11.000
 2917TIP3    H130242   4.548   5.598  10.987
 2917TIP3    H230243   4.495   5.737  11.015
 2918TIP3   OH230244   5.102   7.291  10.646
 2918TIP3    H130245   5.131   7.201  10.640
 2918TIP3    H230246   5.139   7.334  10.569
 2919TIP3   OH230247   5.166   7.026  10.614
 2919TIP3    H130248   5.085   6.985  10.582
 2919TIP3    H230249   5.185   6.981  10.697
 2920TIP3   OH230250   5.371   6.884  11.434
 2920TIP3    H130251   5.361   6.836  11.352
 2920TIP3    H230252   5.381   6.976  11.407
 2921TIP3   OH230253   4.758   6.602  10.389
 2921TIP3    H130254   4.678   6.628  10.434
 2921TIP3    H230255   4.761   6.657  10.311
 2922TIP3   OH230256   4.785   6.371  10.188
 2922TIP3    H130257   4.756   6.418  10.266
 2922TIP3    H230258   4.723   6.298  10.179
 2923TIP3   OH230259   5.526   6.559  11.236
 2923TIP3    H130260   5.460   6.626  11.222
 2923TIP3    H230261   5.597   6.582  11.176
 2924TIP3   OH230262   5.149   6.435  11.440
 2924TIP3    H130263   5.134   6.512  11.495
 2924TIP3    H230264   5.083   6.440  11.372
 2925TIP3   OH230265   4.329   6.657  10.717
 2925TIP3    H130266   4.294   6.623  10.635
 2925TIP3    H230267   4.371   6.581  10.758
 2926TIP3   OH230268   4.490   6.951  10.953
 2926TIP3    H130269   4.492   6.929  10.860
 2926TIP3    H230270   4.569   6.912  10.989
 2927TIP3   OH230271   4.331   6.544  11.086
 2927TIP3    H130272   4.365   6.528  10.998
 2927TIP3    H230273   4.375   6.624  11.114
 2928TIP3   OH230274   5.025   7.124  11.162
 2928TIP3    H130275   4.945   7.164  11.128
 2928TIP3    H230276   4.999   7.034  11.185
 2929TIP3   OH230277   4.437   6.974  11.514
 2929TIP3    H130278   4.376   7.032  11.559
 2929TIP3    H230279   4.396   6.957  11.429
 2930TIP3   OH230280   4.120   6.569  11.521
 2930TIP3    H130281   4.132   6.657  11.557
 2930TIP3    H230282   4.034   6.571  11.480
 2931TIP3   OH230283   4.836   7.193  10.645
 2931TIP3    H130284   4.922   7.235  10.646
 2931TIP3    H230285   4.801   7.215  10.559
 2932TIP3   OH230286   4.270   7.172  11.610
 2932TIP3    H130287   4.273   7.215  11.524
 2932TIP3    H230288   4.177   7.171  11.633
 2933TIP3   OH230289   4.209   6.587  10.481
 2933TIP3    H130290   4.149   6.662  10.482
 2933TIP3    H230291   4.202   6.553  10.392
 2934TIP3   OH230292   3.842   6.832  11.360
 2934TIP3    H130293   3.796   6.842  11.276
 2934TIP3    H230294   3.854   6.738  11.369
 2935TIP3   OH230295   3.845   7.114  11.022
 2935TIP3    H130296   3.934   7.081  11.011
 2935TIP3    H230297   3.848   7.165  11.103
 2936TIP3   OH230298   5.612   7.174  11.680
 2936TIP3    H130299   5.619   7.082  11.654
 2936TIP3    H230300   5.521   7.197  11.664
 2937TIP3   OH230301   4.679   7.099  11.509
 2937TIP3    H130302   4.662   7.173  11.569
 2937TIP3    H230303   4.597   7.050  11.508
 2938TIP3   OH230304   5.302   6.327  11.660
 2938TIP3    H130305   5.255   6.361  11.584
 2938TIP3    H230306   5.287   6.232  11.657
 2939TIP3   OH230307   4.059   6.982  11.438
 2939TIP3    H130308   4.087   6.937  11.518
 2939TIP3    H230309   3.983   6.933  11.407
 2940TIP3   OH230310   4.328   5.802  11.056
 2940TIP3    H130311   4.259   5.788  10.991
 2940TIP3    H230312   4.291   5.867  11.116
 2941TIP3   OH230313   4.777   5.785  11.410
 2941TIP3    H130314   4.820   5.728  11.473
 2941TIP3    H230315   4.684   5.773  11.427
 2942TIP3   OH230316   5.121   6.154  11.514
 2942TIP3    H130317   5.043   6.133  11.565
 2942TIP3    H230318   5.098   6.234  11.466
 2943TIP3   OH230319   4.330   6.294  11.189
 2943TIP3    H130320   4.260   6.295  11.253
 2943TIP3    H230321   4.333   6.383  11.154
 2944TIP3   OH230322   4.864   6.370  10.532
 2944TIP3    H130323   4.828   6.449  10.493
 2944TIP3    H230324   4.959   6.385  10.533
 2945TIP3   OH230325   4.774   6.365  11.657
 2945TIP3    H130326   4.731   6.287  11.693
 2945TIP3    H230327   4.860   6.365  11.697
 2946TIP3   OH230328   4.948   6.307  10.806
 2946TIP3    H130329   4.897   6.355  10.741
 2946TIP3    H230330   5.004   6.249  10.755
 2947TIP3   OH230331   4.111   6.314  11.353
 2947TIP3    H130332   4.102   6.364  11.434
 2947TIP3    H230333   4.066   6.232  11.371
 2948TIP3   OH230334   3.760   5.940  10.834
 2948TIP3    H130335   3.837   5.923  10.779
 2948TIP3    H230336   3.730   6.027  10.807
 2949TIP3   OH230337   4.940   6.427  11.260
 2949TIP3    H130338   4.971   6.366  11.194
 2949TIP3    H230339   4.867   6.382  11.303
 2950TIP3   OH230340   4.633   6.018  10.749
 2950TIP3    H130341   4.540   6.007  10.771
 2950TIP3    H230342   4.680   5.990  10.828
 2951TIP3   OH230343   5.041   5.969  11.109
 2951TIP3    H130344   4.950   5.969  11.138
 2951TIP3    H230345   5.038   5.927  11.023
 2952TIP3   OH230346   4.132   6.822  11.661
 2952TIP3    H130347   4.195   6.808  11.731
 2952TIP3    H230348   4.048   6.831  11.706
 2953TIP3   OH230349   4.707   6.372  10.956
 2953TIP3    H130350   4.777   6.323  10.912
 2953TIP3    H230351   4.672   6.311  11.021
 2954TIP3   OH230352   4.594   6.222  11.162
 2954TIP3    H130353   4.503   6.249  11.174
 2954TIP3    H230354   4.637   6.246  11.245
 2955TIP3   OH230355   5.346   6.761  11.189
 2955TIP3    H130356   5.409   6.813  11.140
 2955TIP3    H230357   5.278   6.738  11.125
 2956TIP3   OH230358   4.836   6.863  11.485
 2956TIP3    H130359   4.804   6.799  11.548
 2956TIP3    H230360   4.776   6.937  11.495
 2957TIP3   OH230361   4.134   6.755  10.886
 2957TIP3    H130362   4.206   6.729  10.828
 2957TIP3    H230363   4.062   6.696  10.863
 2958TIP3   OH230364   3.851   6.560  11.442
 2958TIP3    H130365   3.815   6.505  11.513
 2958TIP3    H230366   3.791   6.546  11.369
 2959TIP3   OH230367   4.569   6.548  11.689
 2959TIP3    H130368   4.497   6.513  11.635
 2959TIP3    H230369   4.645   6.497  11.663
 2960TIP3   OH230370   4.950   7.179  11.511
 2960TIP3    H130371   4.867   7.135  11.491
 2960TIP3    H230372   4.968   7.156  11.602
 2961TIP3   OH230373   5.519   6.304  10.265
 2961TIP3    H130374   5.473   6.234  10.219
 2961TIP3    H230375   5.610   6.298  10.235
 2962TIP3   OH230376   5.600   6.916  11.593
 2962TIP3    H130377   5.511   6.909  11.561
 2962TIP3    H230378   5.655   6.897  11.516
 2963TIP3   OH230379   5.384   7.182  10.299
 2963TIP3    H130380   5.362   7.143  10.384
 2963TIP3    H230381   5.431   7.113  10.252
 2964TIP3   OH230382   5.145   6.674  11.007
 2964TIP3    H130383   5.050   6.661  11.004
 2964TIP3    H230384   5.181   6.598  10.961
 2965TIP3   OH230385   4.328   7.082  10.625
 2965TIP3    H130386   4.361   7.162  10.584
 2965TIP3    H230387   4.234   7.084  10.608
 2966TIP3   OH230388   4.494   6.875  10.695
 2966TIP3    H130389   4.442   6.946  10.657
 2966TIP3    H230390   4.437   6.798  10.691
 2967TIP3   OH230391   4.609   7.223  11.259
 2967TIP3    H130392   4.653   7.307  11.269
 2967TIP3    H230393   4.639   7.171  11.334
 2968TIP3   OH230394   4.344   0.020  10.550
 2968TIP3    H130395   4.266   0.016  10.606
 2968TIP3    H230396   4.412   0.058  10.607
 2969TIP3   OH230397   4.933   6.871  11.226
 2969TIP3    H130398   4.899   6.857  11.314
 2969TIP3    H230399   4.966   6.785  11.199
 2970TIP3   OH230400   5.181   7.301  11.440
 2970TIP3    H130401   5.099   7.255  11.454
 2970TIP3    H230402   5.158   7.375  11.383
 2971TIP3   OH230403   3.976   6.071  11.408
 2971TIP3    H130404   3.884   6.095  11.401
 2971TIP3    H230405   3.977   5.998  11.469
 2972TIP3   OH230406   4.047   7.243  11.309
 2972TIP3    H130407   4.021   7.166  11.360
 2972TIP3    H230408   3.976   7.306  11.323
 2973TIP3   OH230409   4.878   6.038  11.374
 2973TIP3    H130410   4.972   6.019  11.375
 2973TIP3    H230411   4.836   5.953  11.383
 2974TIP3   OH230412   4.755   7.227  10.386
 2974TIP3    H130413   4.674   7.260  10.348
 2974TIP3    H230414   4.769   7.143  10.343
 2975TIP3   OH230415   4.744   6.112  10.504
 2975TIP3    H130416   4.780   6.200  10.514
 2975TIP3    H230417   4.689   6.100  10.581
 2976TIP3   OH230418   4.748   6.279  11.388
 2976TIP3    H130419   4.746   6.305  11.480
 2976TIP3    H230420   4.786   6.192  11.387
 2977TIP3   OH230421   4.808   5.842  10.611
 2977TIP3    H130422   4.742   5.889  10.662
 2977TIP3    H230423   4.836   5.904  10.544
 2978TIP3   OH230424   4.512   0.017  10.329
 2978TIP3    H130425   4.542   0.105  10.350
 2978TIP3    H230426   4.449  -0.004  10.398
 2979TIP3   OH230427   5.356   6.022  11.471
 2979TIP3    H130428   5.273   6.065  11.490
 2979TIP3    H230429   5.342   5.980  11.386
 2980TIP3   OH230430   5.209   6.426  10.887
 2980TIP3    H130431   5.125   6.386  10.865
 2980TIP3    H230432   5.256   6.359  10.937
 2981TIP3   OH230433   4.133   7.107  10.275
 2981TIP3    H130434   4.084   7.175  10.228
 2981TIP3    H230435   4.213   7.095  10.224
 2982TIP3   OH230436   4.105   5.745  10.901
 2982TIP3    H130437   4.127   5.738  10.808
 2982TIP3    H230438   4.073   5.658  10.925
 2983TIP3   OH230439   4.065   7.130  10.543
 2983TIP3    H130440   3.984   7.079  10.548
 2983TIP3    H230441   4.091   7.125  10.450
 2984TIP3   OH230442   4.391   7.255  11.838
 2984TIP3    H130443   4.450   7.187  11.870
 2984TIP3    H230444   4.339   7.212  11.770
 2985TIP3   OH230445   5.001   7.140  11.777
 2985TIP3    H130446   4.984   7.054  11.815
 2985TIP3    H230447   5.079   7.171  11.823
 2986TIP3   OH230448   5.343   7.279  10.045
 2986TIP3    H130449   5.367   7.245  10.131
 2986TIP3    H230450   5.255   7.246  10.029
 2987TIP3   OH230451   3.882   6.844  11.790
 2987TIP3    H130452   3.890   6.749  11.788
 2987TIP3    H230453   3.809   6.863  11.731
 2988TIP3   OH230454   4.273   6.829   9.965
 2988TIP3    H130455   4.255   6.735   9.966
 2988TIP3    H230456   4.316   6.846  10.049
 2989TIP3   OH230457   4.538   6.820  11.723
 2989TIP3    H130458   4.505   6.855  11.640
 2989TIP3    H230459   4.558   6.728  11.704
 2990TIP3   OH230460   5.109   6.804  11.522
 2990TIP3    H130461   5.176   6.859  11.481
 2990TIP3    H230462   5.026   6.848  11.500
 2991TIP3   OH230463   3.957   6.584  11.770
 2991TIP3    H130464   4.019   6.534  11.717
 2991TIP3    H230465   3.970   6.550  11.859
 2992TIP3   OH230466   4.374   6.444  11.517
 2992TIP3    H130467   4.289   6.488  11.508
 2992TIP3    H230468   4.429   6.484  11.450
 2993TIP3   OH230469   4.905   6.669  11.800
 2993TIP3    H130470   4.979   6.627  11.755
 2993TIP3    H230471   4.865   6.598  11.850
 2994TIP3   OH230472   4.434   6.181  11.571
 2994TIP3    H130473   4.440   6.125  11.494
 2994TIP3    H230474   4.415   6.268  11.537
 2995TIP3   OH230475   4.465   6.023  11.341
 2995TIP3    H130476   4.516   6.057  11.267
 2995TIP3    H230477   4.377   6.011  11.306
 2996TIP3   OH230478   4.564   6.557  11.360
 2996TIP3    H130479   4.635   6.520  11.308
 2996TIP3    H230480   4.531   6.629  11.306
 2997TIP3   OH230481   5.021   6.341  11.801
 2997TIP3    H130482   5.005   6.250  11.774
 2997TIP3    H230483   5.111   6.359  11.774
 2998TIP3   OH230484   5.165   6.604  11.687
 2998TIP3    H130485   5.136   6.681  11.637
 2998TIP3    H230486   5.258   6.596  11.668
 2999TIP3   OH230487   4.269   6.233  11.797
 2999TIP3    H130488   4.188   6.182  11.786
 2999TIP3    H230489   4.313   6.226  11.712
 3000TIP3   OH230490   4.503   5.759  11.425
 3000TIP3    H130491   4.487   5.850  11.400
 3000TIP3    H230492   4.437   5.709  11.376
 3001TIP3   OH230493   4.647   6.135  11.741
 3001TIP3    H130494   4.602   6.108  11.821
 3001TIP3    H230495   4.577   6.142  11.676
 3002TIP3   OH230496   4.928   6.104  11.703
 3002TIP3    H130497   4.834   6.087  11.715
 3002TIP3    H230498   4.971   6.033  11.751
 3003TIP3   OH230499   5.105   5.952  11.857
 3003TIP3    H130500   5.097   5.859  11.838
 3003TIP3    H230501   5.073   5.961  11.947
 3004TIP3   OH230502   4.066   6.046  11.775
 3004TIP3    H130503   4.058   5.967  11.721
 3004TIP3    H230504   4.073   6.013  11.864
 3005TIP3   OH230505   4.494   5.659  11.681
 3005TIP3    H130506   4.548   5.581  11.671
 3005TIP3    H230507   4.490   5.697  11.593
 3006TIP3   OH230508   4.566   5.820  11.894
 3006TIP3    H130509   4.545   5.765  11.818
 3006TIP3    H230510   4.511   5.897  11.884
 3007TIP3   OH230511   3.766   7.347  10.849
 3007TIP3    H130512   3.762   7.257  10.883
 3007TIP3    H230513   3.851   7.380  10.876
 3008TIP3   OH230514   5.446   6.937  11.920
 3008TIP3    H130515   5.355   6.951  11.947
 3008TIP3    H230516   5.492   7.017  11.946
 3009TIP3   OH230517   5.583   6.564  10.573
 3009TIP3    H130518   5.496   6.536  10.602
 3009TIP3    H230519   5.630   6.584  10.655
 3010TIP3   OH230520   5.597   6.869  11.114
 3010TIP3    H130521   5.647   6.797  11.075
 3010TIP3    H230522   5.633   6.948  11.074
 3011TIP3   OH230523   5.380   7.143  11.336
 3011TIP3    H130524   5.302   7.191  11.363
 3011TIP3    H230525   5.369   7.130  11.242
 3012TIP3   OH230526   5.339   6.457  10.635
 3012TIP3    H130527   5.339   6.368  10.599
 3012TIP3    H230528   5.292   6.449  10.718
 3013TIP3   OH230529   3.840   6.626  11.050
 3013TIP3    H130530   3.861   6.613  10.958
 3013TIP3    H230531   3.920   6.601  11.096
 3014TIP3   OH230532   5.426   6.656  11.604
 3014TIP3    H130533   5.509   6.628  11.565
 3014TIP3    H230534   5.398   6.730  11.551
 3015TIP3   OH230535   5.575   6.362  11.615
 3015TIP3    H130536   5.480   6.364  11.628
 3015TIP3    H230537   5.589   6.295  11.548
 3016TIP3   OH230538   5.353   6.218  10.480
 3016TIP3    H130539   5.373   6.125  10.489
 3016TIP3    H230540   5.411   6.249  10.411
 3017TIP3   OH230541   5.361   6.238  11.037
 3017TIP3    H130542   5.454   6.247  11.019
 3017TIP3    H230543   5.352   6.258  11.130
 3018TIP3   OH230544   5.381   6.337  11.301
 3018TIP3    H130545   5.301   6.370  11.342
 3018TIP3    H230546   5.428   6.416  11.275
 3019TIP3   OH230547   3.834   6.178  11.720
 3019TIP3    H130548   3.920   6.137  11.734
 3019TIP3    H230549   3.775   6.105  11.699
 3020TIP3   OH230550   5.627   5.751  11.831
 3020TIP3    H130551   5.692   5.691  11.796
 3020TIP3    H230552   5.615   5.816  11.762
 3021TIP3   OH230553   5.396   5.948  10.510
 3021TIP3    H130554   5.406   5.892  10.586
 3021TIP3    H230555   5.330   5.904  10.456
 3022TIP3   OH230556   3.971   5.926  11.051
 3022TIP3    H130557   4.025   5.867  10.999
 3022TIP3    H230558   4.019   6.009  11.051
 3023TIP3   OH230559   3.723   6.267  11.028
 3023TIP3    H130560   3.715   6.264  10.933
 3023TIP3    H230561   3.786   6.337  11.044
 3024TIP3   OH230562   5.556   5.910  11.620
 3024TIP3    H130563   5.478   5.959  11.593
 3024TIP3    H230564   5.564   5.840  11.555
 3025TIP3   OH230565   3.784   5.819  11.304
 3025TIP3    H130566   3.716   5.784  11.362
 3025TIP3    H230567   3.775   5.914  11.312
 3026TIP3   OH230568   4.015   7.185  11.714
 3026TIP3    H130569   3.925   7.181  11.681
 3026TIP3    H230570   4.006   7.168  11.808
 3027TIP3   OH230571   4.313   7.280  11.356
 3027TIP3    H130572   4.222   7.277  11.326
 3027TIP3    H230573   4.360   7.224  11.294
 3028TIP3   OH230574   5.481   5.691  11.457
 3028TIP3    H130575   5.399   5.689  11.407
 3028TIP3    H230576   5.520   5.605  11.442
 3029TIP3   OH230577   4.215   7.261  10.971
 3029TIP3    H130578   4.185   7.171  10.981
 3029TIP3    H230579   4.311   7.255  10.972
 3030TIP3   OH230580   4.481   7.214  11.017
 3030TIP3    H130581   4.487   7.125  10.981
 3030TIP3    H230582   4.523   7.208  11.103
 3031TIP3   OH230583   4.773   5.878  10.943
 3031TIP3    H130584   4.711   5.808  10.960
 3031TIP3    H230585   4.849   5.835  10.906
 3032TIP3   OH230586   5.277   5.773  10.938
 3032TIP3    H130587   5.338   5.772  10.864
 3032TIP3    H230588   5.191   5.763  10.898
 3033TIP3   OH230589   5.465   5.792  10.736
 3033TIP3    H130590   5.535   5.735  10.704
 3033TIP3    H230591   5.511   5.871  10.766
 3034TIP3   OH230592   5.011   5.766  10.844
 3034TIP3    H130593   4.989   5.779  10.751
 3034TIP3    H230594   4.995   5.674  10.860
 3035TIP3   OH230595   5.195   5.816  10.380
 3035TIP3    H130596   5.207   5.840  10.288
 3035TIP3    H230597   5.155   5.729  10.378
 3036TIP3   OH230598   3.854   7.330  10.362
 3036TIP3    H130599   3.779   7.270  10.364
 3036TIP3    H230600   3.910   7.298  10.292
 3037TIP3   OH230601   4.741   5.913  10.307
 3037TIP3    H130602   4.671   5.848  10.313
 3037TIP3    H230603   4.717   5.980  10.371
 3038TIP3   OH230604   4.040   5.807  11.649
 3038TIP3    H130605   3.991   5.725  11.644
 3038TIP3    H230606   4.124   5.782  11.689
 3039TIP3   OH230607   4.253   5.727  11.814
 3039TIP3    H130608   4.331   5.696  11.770
 3039TIP3    H230609   4.210   5.648  11.847
 3040TIP3   OH230610   5.107   5.681  11.791
 3040TIP3    H130611   5.098   5.633  11.873
 3040TIP3    H230612   5.199   5.672  11.767
 3041TIP3   OH230613   5.350   7.271  11.666
 3041TIP3    H130614   5.294   7.266  11.588
 3041TIP3    H230615   5.372   7.364  11.673
 3042TIP3   OH230616   6.832   6.648  10.662
 3042TIP3    H130617   6.823   6.742  10.643
 3042TIP3    H230618   6.753   6.609  10.625
 3043TIP3   OH230619   6.694   6.593  11.049
 3043TIP3    H130620   6.741   6.554  11.123
 3043TIP3    H230621   6.763   6.614  10.986
 3044TIP3   OH230622   5.967   6.562  11.239
 3044TIP3    H130623   5.968   6.470  11.263
 3044TIP3    H230624   6.047   6.575  11.187
 3045TIP3   OH230625   7.106   6.871  10.838
 3045TIP3    H130626   7.026   6.891  10.886
 3045TIP3    H230627   7.164   6.833  10.903
 3046TIP3   OH230628   6.042   6.984  10.969
 3046TIP3    H130629   6.014   6.895  10.947
 3046TIP3    H230630   6.137   6.980  10.967
 3047TIP3   OH230631   5.723   6.330  10.520
 3047TIP3    H130632   5.675   6.413  10.525
 3047TIP3    H230633   5.683   6.285  10.446
 3048TIP3   OH230634   5.767   6.568  10.812
 3048TIP3    H130635   5.795   6.477  10.819
 3048TIP3    H230636   5.847   6.616  10.788
 3049TIP3   OH230637   6.571   6.841  11.048
 3049TIP3    H130638   6.601   6.750  11.039
 3049TIP3    H230639   6.650   6.894  11.038
 3050TIP3   OH230640   6.867   6.263  11.065
 3050TIP3    H130641   6.877   6.169  11.075
 3050TIP3    H230642   6.856   6.276  10.970
 3051TIP3   OH230643   6.219   6.061  10.773
 3051TIP3    H130644   6.218   6.149  10.736
 3051TIP3    H230645   6.166   6.008  10.713
 3052TIP3   OH230646   6.978   6.104  10.668
 3052TIP3    H130647   7.019   6.055  10.739
 3052TIP3    H230648   7.052   6.132  10.613
 3053TIP3   OH230649   5.858   6.310  10.884
 3053TIP3    H130650   5.932   6.273  10.932
 3053TIP3    H230651   5.869   6.278  10.794
 3054TIP3   OH230652   6.324   6.445  10.868
 3054TIP3    H130653   6.405   6.396  10.881
 3054TIP3    H230654   6.276   6.395  10.802
 3055TIP3   OH230655   6.079   6.001  11.223
 3055TIP3    H130656   6.062   6.055  11.146
 3055TIP3    H230657   6.002   6.014  11.278
 3056TIP3   OH230658   6.796   6.897  10.559
 3056TIP3    H130659   6.838   6.935  10.482
 3056TIP3    H230660   6.742   6.968  10.594
 3057TIP3   OH230661   6.368   6.751  11.218
 3057TIP3    H130662   6.314   6.824  11.248
 3057TIP3    H230663   6.435   6.791  11.163
 3058TIP3   OH230664   7.085   5.993  10.892
 3058TIP3    H130665   7.013   5.981  10.954
 3058TIP3    H230666   7.151   6.042  10.941
 3059TIP3   OH230667   6.071   6.152  10.990
 3059TIP3    H130668   6.133   6.210  11.035
 3059TIP3    H230669   6.122   6.114  10.918
 3060TIP3   OH230670   6.209   6.956  11.315
 3060TIP3    H130671   6.215   7.049  11.292
 3060TIP3    H230672   6.118   6.944  11.345
 3061TIP3   OH230673   5.803   6.949  10.373
 3061TIP3    H130674   5.759   6.917  10.294
 3061TIP3    H230675   5.896   6.943  10.353
 3062TIP3   OH230676   7.146   7.112  11.110
 3062TIP3    H130677   7.067   7.062  11.092
 3062TIP3    H230678   7.205   7.091  11.038
 3063TIP3   OH230679   7.142   5.905  11.187
 3063TIP3    H130680   7.050   5.927  11.169
 3063TIP3    H230681   7.192   5.978  11.152
 3064TIP3   OH230682   6.448   5.683  10.973
 3064TIP3    H130683   6.421   5.591  10.971
 3064TIP3    H230684   6.370   5.730  11.002
 3065TIP3   OH230685   6.946   7.282  10.661
 3065TIP3    H130686   6.995   7.199  10.661
 3065TIP3    H230687   6.955   7.315  10.572
 3066TIP3   OH230688   7.088   7.051  10.629
 3066TIP3    H130689   7.095   7.001  10.547
 3066TIP3    H230690   7.096   6.985  10.698
 3067TIP3   OH230691   7.228   6.892  11.464
 3067TIP3    H130692   7.231   6.840  11.384
 3067TIP3    H230693   7.262   6.977  11.438
 3068TIP3   OH230694   7.050   6.642  10.492
 3068TIP3    H130695   6.977   6.660  10.552
 3068TIP3    H230696   7.113   6.593  10.545
 3069TIP3   OH230697   7.009   6.415  11.449
 3069TIP3    H130698   6.996   6.481  11.517
 3069TIP3    H230699   6.945   6.437  11.381
 3070TIP3   OH230700   6.196   6.659  10.700
 3070TIP3    H130701   6.168   6.633  10.613
 3070TIP3    H230702   6.250   6.586  10.731
 3071TIP3   OH230703   6.329   6.955  10.933
 3071TIP3    H130704   6.332   6.978  10.840
 3071TIP3    H230705   6.412   6.910  10.949
 3072TIP3   OH230706   6.203   6.576  11.080
 3072TIP3    H130707   6.251   6.544  11.003
 3072TIP3    H230708   6.264   6.637  11.122
 3073TIP3   OH230709   6.744   7.179  11.190
 3073TIP3    H130710   6.801   7.172  11.266
 3073TIP3    H230711   6.782   7.119  11.126
 3074TIP3   OH230712   6.355   7.000  11.549
 3074TIP3    H130713   6.284   7.058  11.576
 3074TIP3    H230714   6.324   6.961  11.467
 3075TIP3   OH230715   6.919   6.502  10.287
 3075TIP3    H130716   6.957   6.571  10.342
 3075TIP3    H230717   6.827   6.527  10.279
 3076TIP3   OH230718   6.000   6.591  11.531
 3076TIP3    H130719   6.010   6.681  11.563
 3076TIP3    H230720   5.976   6.601  11.439
 3077TIP3   OH230721   6.665   7.250  10.685
 3077TIP3    H130722   6.760   7.250  10.696
 3077TIP3    H230723   6.651   7.256  10.591
 3078TIP3   OH230724   6.141   7.177  11.577
 3078TIP3    H130725   6.157   7.206  11.487
 3078TIP3    H230726   6.048   7.196  11.592
 3079TIP3   OH230727   7.257   5.712  10.226
 3079TIP3    H130728   7.187   5.735  10.288
 3079TIP3    H230729   7.243   5.771  10.152
 3080TIP3   OH230730   6.126   6.588  10.442
 3080TIP3    H130731   6.138   6.654  10.373
 3080TIP3    H230732   6.108   6.507  10.395
 3081TIP3   OH230733   5.724   6.839  11.364
 3081TIP3    H130734   5.681   6.851  11.280
 3081TIP3    H230735   5.713   6.745  11.383
 3082TIP3   OH230736   5.763   7.083  11.025
 3082TIP3    H130737   5.847   7.051  10.991
 3082TIP3    H230738   5.785   7.121  11.110
 3083TIP3   OH230739   6.566   7.177  11.523
 3083TIP3    H130740   6.654   7.142  11.518
 3083TIP3    H230741   6.510   7.102  11.542
 3084TIP3   OH230742   7.184   6.331  11.682
 3084TIP3    H130743   7.158   6.371  11.599
 3084TIP3    H230744   7.262   6.279  11.660
 3085TIP3   OH230745   5.956   6.966  11.429
 3085TIP3    H130746   5.977   6.931  11.516
 3085TIP3    H230747   5.876   6.919  11.403
 3086TIP3   OH230748   6.199   5.794  11.064
 3086TIP3    H130749   6.127   5.780  11.002
 3086TIP3    H230750   6.171   5.870  11.116
 3087TIP3   OH230751   6.672   5.784  11.408
 3087TIP3    H130752   6.718   5.731  11.473
 3087TIP3    H230753   6.579   5.768  11.425
 3088TIP3   OH230754   7.007   6.129  11.479
 3088TIP3    H130755   6.945   6.122  11.552
 3088TIP3    H230756   7.015   6.223  11.464
 3089TIP3   OH230757   6.217   6.312  11.165
 3089TIP3    H130758   6.145   6.307  11.229
 3089TIP3    H230759   6.217   6.404  11.137
 3090TIP3   OH230760   6.188   6.313  10.671
 3090TIP3    H130761   6.094   6.298  10.662
 3090TIP3    H230762   6.223   6.303  10.582
 3091TIP3   OH230763   6.766   6.367  10.540
 3091TIP3    H130764   6.722   6.416  10.471
 3091TIP3    H230765   6.839   6.325  10.496
 3092TIP3   OH230766   6.682   6.358  11.655
 3092TIP3    H130767   6.636   6.283  11.693
 3092TIP3    H230768   6.770   6.355  11.693
 3093TIP3   OH230769   6.855   6.313  10.797
 3093TIP3    H130770   6.810   6.361  10.728
 3093TIP3    H230771   6.889   6.234  10.754
 3094TIP3   OH230772   6.000   6.303  11.336
 3094TIP3    H130773   6.057   6.317  11.412
 3094TIP3    H230774   5.949   6.225  11.359
 3095TIP3   OH230775   6.202   6.090   9.995
 3095TIP3    H130776   6.217   6.076  10.089
 3095TIP3    H230777   6.289   6.089   9.957
 3096TIP3   OH230778   5.619   6.007  10.798
 3096TIP3    H130779   5.700   6.015  10.849
 3096TIP3    H230780   5.647   6.017  10.707
 3097TIP3   OH230781   5.761   6.131  10.296
 3097TIP3    H130782   5.822   6.191  10.253
 3097TIP3    H230783   5.723   6.079  10.225
 3098TIP3   OH230784   6.798   6.436  11.263
 3098TIP3    H130785   6.832   6.381  11.193
 3098TIP3    H230786   6.734   6.381  11.307
 3099TIP3   OH230787   6.500   6.054  10.740
 3099TIP3    H130788   6.408   6.034  10.758
 3099TIP3    H230789   6.525   6.117  10.808
 3100TIP3   OH230790   5.935   6.214  10.640
 3100TIP3    H130791   5.863   6.247  10.588
 3100TIP3    H230792   5.951   6.126  10.606
 3101TIP3   OH230793   6.286   6.259  10.422
 3101TIP3    H130794   6.380   6.276  10.429
 3101TIP3    H230795   6.257   6.314  10.349
 3102TIP3   OH230796   6.884   5.985  11.095
 3102TIP3    H130797   6.842   6.002  11.179
 3102TIP3    H230798   6.820   5.936  11.045
 3103TIP3   OH230799   6.174   6.390  10.214
 3103TIP3    H130800   6.091   6.364  10.174
 3103TIP3    H230801   6.211   6.453  10.152
 3104TIP3   OH230802   6.002   6.831  11.672
 3104TIP3    H130803   6.072   6.823  11.736
 3104TIP3    H230804   5.922   6.838  11.724
 3105TIP3   OH230805   6.543   6.265  10.921
 3105TIP3    H130806   6.625   6.313  10.931
 3105TIP3    H230807   6.523   6.232  11.008
 3106TIP3   OH230808   6.045   5.958  10.579
 3106TIP3    H130809   5.992   5.884  10.609
 3106TIP3    H230810   6.060   5.941  10.487
 3107TIP3   OH230811   6.466   6.196  11.179
 3107TIP3    H130812   6.384   6.246  11.180
 3107TIP3    H230813   6.516   6.231  11.253
 3108TIP3   OH230814   6.395   6.779  10.316
 3108TIP3    H130815   6.468   6.724  10.288
 3108TIP3    H230816   6.409   6.791  10.410
 3109TIP3   OH230817   7.236   6.740  11.235
 3109TIP3    H130818   7.293   6.715  11.163
 3109TIP3    H230819   7.149   6.711  11.209
 3110TIP3   OH230820   6.648   6.819  11.571
 3110TIP3    H130821   6.690   6.775  11.645
 3110TIP3    H230822   6.720   6.840  11.512
 3111TIP3   OH230823   6.925   6.238  10.336
 3111TIP3    H130824   7.007   6.209  10.297
 3111TIP3    H230825   6.920   6.331  10.316
 3112TIP3   OH230826   6.023   6.711  10.907
 3112TIP3    H130827   6.075   6.706  10.827
 3112TIP3    H230828   6.076   6.666  10.973
 3113TIP3   OH230829   5.663   6.589  11.471
 3113TIP3    H130830   5.677   6.509  11.521
 3113TIP3    H230831   5.624   6.559  11.389
 3114TIP3   OH230832   6.484   6.549  11.677
 3114TIP3    H130833   6.456   6.563  11.587
 3114TIP3    H230834   6.562   6.494  11.670
 3115TIP3   OH230835   6.842   7.126  11.469
 3115TIP3    H130836   6.842   7.036  11.437
 3115TIP3    H230837   6.863   7.119  11.562
 3116TIP3   OH230838   7.299   7.104  10.357
 3116TIP3    H130839   7.264   7.024  10.396
 3116TIP3    H230840   7.222   7.148  10.319
 3117TIP3   OH230841   7.011   6.651  11.108
 3117TIP3    H130842   6.968   6.733  11.082
 3117TIP3    H230843   7.026   6.604  11.026
 3118TIP3   OH230844   6.270   7.072  10.672
 3118TIP3    H130845   6.297   7.155  10.633
 3118TIP3    H230846   6.178   7.062  10.646
 3119TIP3   OH230847   5.902   6.619  10.118
 3119TIP3    H130848   5.988   6.653  10.145
 3119TIP3    H230849   5.847   6.697  10.112
 3120TIP3   OH230850   6.388   6.832  10.590
 3120TIP3    H130851   6.363   6.923  10.610
 3120TIP3    H230852   6.323   6.779  10.635
 3121TIP3   OH230853   6.490   7.241  11.265
 3121TIP3    H130854   6.574   7.229  11.220
 3121TIP3    H230855   6.509   7.220  11.356
 3122TIP3   OH230856   6.251  -0.007  10.563
 3122TIP3    H130857   6.165   0.027  10.588
 3122TIP3    H230858   6.313   0.054  10.602
 3123TIP3   OH230859   6.799   6.871  11.337
 3123TIP3    H130860   6.724   6.815  11.313
 3123TIP3    H230861   6.839   6.895  11.254
 3124TIP3   OH230862   7.072   7.293  11.469
 3124TIP3    H130863   6.990   7.244  11.461
 3124TIP3    H230864   7.055   7.375  11.424
 3125TIP3   OH230865   5.842   6.071  11.381
 3125TIP3    H130866   5.761   6.120  11.388
 3125TIP3    H230867   5.815   5.979  11.379
 3126TIP3   OH230868   7.197   6.865  10.433
 3126TIP3    H130869   7.136   6.792  10.442
 3126TIP3    H230870   7.284   6.825  10.441
 3127TIP3   OH230871   5.853   7.174  11.269
 3127TIP3    H130872   5.894   7.107  11.325
 3127TIP3    H230873   5.899   7.255  11.292
 3128TIP3   OH230874   6.256   7.028  10.272
 3128TIP3    H130875   6.325   6.963  10.285
 3128TIP3    H230876   6.303   7.112  10.269
 3129TIP3   OH230877   6.777   6.031  11.344
 3129TIP3    H130878   6.855   6.043  11.397
 3129TIP3    H230879   6.741   5.947  11.372
 3130TIP3   OH230880   6.849   5.987  10.460
 3130TIP3    H130881   6.878   6.053  10.398
 3130TIP3    H230882   6.885   6.015  10.544
 3131TIP3   OH230883   6.551   6.195  10.511
 3131TIP3    H130884   6.615   6.262  10.533
 3131TIP3    H230885   6.531   6.153  10.595
 3132TIP3   OH230886   6.628   6.265  11.394
 3132TIP3    H130887   6.645   6.290  11.485
 3132TIP3    H230888   6.674   6.181  11.384
 3133TIP3   OH230889   6.627   5.857  10.576
 3133TIP3    H130890   6.601   5.923  10.640
 3133TIP3    H230891   6.706   5.891  10.536
 3134TIP3   OH230892   6.348   7.289  10.262
 3134TIP3    H130893   6.362   7.352  10.191
 3134TIP3    H230894   6.326   7.344  10.338
 3135TIP3   OH230895   6.224   6.032  10.266
 3135TIP3    H130896   6.219   6.109  10.323
 3135TIP3    H230897   6.307   5.991  10.289
 3136TIP3   OH230898   7.232   5.961  11.542
 3136TIP3    H130899   7.157   6.013  11.515
 3136TIP3    H230900   7.264   5.920  11.462
 3137TIP3   OH230901   7.069   6.453  10.919
 3137TIP3    H130902   6.989   6.410  10.886
 3137TIP3    H230903   7.099   6.396  10.990
 3138TIP3   OH230904   6.005   7.068  10.182
 3138TIP3    H130905   6.094   7.061  10.218
 3138TIP3    H230906   6.002   7.000  10.115
 3139TIP3   OH230907   5.882   6.330  10.135
 3139TIP3    H130908   5.877   6.424  10.118
 3139TIP3    H230909   5.891   6.290  10.049
 3140TIP3   OH230910   5.957   5.756  10.932
 3140TIP3    H130911   5.945   5.753  10.837
 3140TIP3    H230912   5.920   5.674  10.964
 3141TIP3   OH230913   5.901   7.146  10.581
 3141TIP3    H130914   5.858   7.066  10.552
 3141TIP3    H230915   5.889   7.207  10.508
 3142TIP3   OH230916   6.200   7.201  11.846
 3142TIP3    H130917   6.288   7.167  11.866
 3142TIP3    H230918   6.189   7.185  11.752
 3143TIP3   OH230919   6.882   7.133  11.742
 3143TIP3    H130920   6.845   7.053  11.782
 3143TIP3    H230921   6.965   7.146  11.787
 3144TIP3   OH230922   5.756   6.825  11.802
 3144TIP3    H130923   5.735   6.732  11.804
 3144TIP3    H230924   5.696   6.861  11.737
 3145TIP3   OH230925   6.422   6.817  11.752
 3145TIP3    H130926   6.432   6.869  11.672
 3145TIP3    H230927   6.466   6.734  11.732
 3146TIP3   OH230928   6.972   6.836  11.543
 3146TIP3    H130929   7.062   6.864  11.526
 3146TIP3    H230930   6.930   6.839  11.457
 3147TIP3   OH230931   5.840   6.510  11.752
 3147TIP3    H130932   5.894   6.533  11.677
 3147TIP3    H230933   5.889   6.541  11.828
 3148TIP3   OH230934   6.208   6.407  11.494
 3148TIP3    H130935   6.148   6.477  11.520
 3148TIP3    H230936   6.285   6.454  11.460
 3149TIP3   OH230937   6.768   6.666  11.786
 3149TIP3    H130938   6.849   6.634  11.747
 3149TIP3    H230939   6.743   6.598  11.849
 3150TIP3   OH230940   6.302   6.167  11.590
 3150TIP3    H130941   6.313   6.107  11.517
 3150TIP3    H230942   6.282   6.251  11.549
 3151TIP3   OH230943   6.325   6.019  11.349
 3151TIP3    H130944   6.383   6.060  11.285
 3151TIP3    H230945   6.240   6.013  11.305
 3152TIP3   OH230946   6.428   6.548  11.399
 3152TIP3    H130947   6.510   6.513  11.366
 3152TIP3    H230948   6.408   6.622  11.342
 3153TIP3   OH230949   6.919   6.321  11.805
 3153TIP3    H130950   6.925   6.226  11.793
 3153TIP3    H230951   7.005   6.353  11.778
 3154TIP3   OH230952   7.014   6.603  11.667
 3154TIP3    H130953   6.991   6.686  11.627
 3154TIP3    H230954   7.110   6.601  11.664
 3155TIP3   OH230955   6.119   6.221  11.804
 3155TIP3    H130956   6.060   6.150  11.779
 3155TIP3    H230957   6.177   6.231  11.728
 3156TIP3   OH230958   6.392   5.757  11.412
 3156TIP3    H130959   6.371   5.848  11.391
 3156TIP3    H230960   6.326   5.706  11.365
 3157TIP3   OH230961   6.542   6.136  11.738
 3157TIP3    H130962   6.517   6.107  11.826
 3157TIP3    H230963   6.459   6.140  11.690
 3158TIP3   OH230964   6.810   6.083  11.663
 3158TIP3    H130965   6.718   6.083  11.688
 3158TIP3    H230966   6.852   6.026  11.728
 3159TIP3   OH230967   6.955   5.957  11.856
 3159TIP3    H130968   6.959   5.862  11.844
 3159TIP3    H230969   6.938   5.969  11.949
 3160TIP3   OH230970   5.953   6.005  11.766
 3160TIP3    H130971   5.954   5.935  11.700
 3160TIP3    H230972   5.971   5.960  11.849
 3161TIP3   OH230973   6.378   5.664  11.668
 3161TIP3    H130974   6.438   5.590  11.660
 3161TIP3    H230975   6.376   5.703  11.580
 3162TIP3   OH230976   6.460   5.819  11.881
 3162TIP3    H130977   6.440   5.768  11.803
 3162TIP3    H230978   6.401   5.895  11.877
 3163TIP3   OH230979   5.656   7.323  10.880
 3163TIP3    H130980   5.673   7.235  10.913
 3163TIP3    H230981   5.736   7.372  10.896
 3164TIP3   OH230982   7.214   6.950  11.887
 3164TIP3    H130983   7.149   6.921  11.951
 3164TIP3    H230984   7.190   7.041  11.867
 3165TIP3   OH230985   7.277   7.150  11.349
 3165TIP3    H130986   7.212   7.200  11.398
 3165TIP3    H230987   7.237   7.134  11.264
 3166TIP3   OH230988   7.139   6.229  10.165
 3166TIP3    H130989   7.206   6.284  10.124
 3166TIP3    H230990   7.085   6.198  10.093
 3167TIP3   OH230991   7.162   6.443  10.658
 3167TIP3    H130992   7.068   6.431  10.644
 3167TIP3    H230993   7.170   6.466  10.750
 3168TIP3   OH230994   5.736   6.627  11.079
 3168TIP3    H130995   5.750   6.614  10.985
 3168TIP3    H230996   5.823   6.618  11.118
 3169TIP3   OH230997   7.277   6.660  11.641
 3169TIP3    H130998   7.366   6.632  11.662
 3169TIP3    H230999   7.288   6.739  11.589
 3170TIP3   OH231000   7.196   5.933  10.048
 3170TIP3    H131001   7.215   5.897   9.962
 3170TIP3    H231002   7.119   5.989  10.035
 3171TIP3   OH231003   7.193   6.197  10.528
 3171TIP3    H131004   7.266   6.161  10.579
 3171TIP3    H231005   7.195   6.291  10.545
 3172TIP3   OH231006   7.271   6.112  11.055
 3172TIP3    H131007   7.354   6.082  11.017
 3172TIP3    H231008   7.284   6.205  11.072
 3173TIP3   OH231009   7.277   6.384  11.353
 3173TIP3    H131010   7.183   6.397  11.364
 3173TIP3    H231011   7.289   6.373  11.259
 3174TIP3   OH231012   5.704   6.112  11.746
 3174TIP3    H131013   5.791   6.073  11.749
 3174TIP3    H231014   5.651   6.047  11.699
 3175TIP3   OH231015   7.299   5.895  10.485
 3175TIP3    H131016   7.339   5.815  10.518
 3175TIP3    H231017   7.209   5.869  10.465
 3176TIP3   OH231018   5.833   5.997  10.976
 3176TIP3    H131019   5.874   5.912  10.963
 3176TIP3    H231020   5.906   6.059  10.975
 3177TIP3   OH231021   5.635   6.284  11.055
 3177TIP3    H131022   5.700   6.272  10.986
 3177TIP3    H231023   5.648   6.374  11.084
 3178TIP3   OH231024   5.678   5.996  10.530
 3178TIP3    H131025   5.590   5.974  10.500
 3178TIP3    H231026   5.720   6.035  10.453
 3179TIP3   OH231027   5.691   5.833  11.327
 3179TIP3    H131028   5.614   5.784  11.356
 3179TIP3    H231029   5.659   5.890  11.258
 3180TIP3   OH231030   5.884   7.250  11.675
 3180TIP3    H131031   5.793   7.220  11.666
 3180TIP3    H231032   5.910   7.221  11.763
 3181TIP3   OH231033   6.206   7.240  11.312
 3181TIP3    H131034   6.183   7.262  11.222
 3181TIP3    H231035   6.300   7.256  11.317
 3182TIP3   OH231036   6.065   7.264  10.969
 3182TIP3    H131037   6.039   7.173  10.959
 3182TIP3    H231038   6.159   7.261  10.987
 3183TIP3   OH231039   6.319   7.199  11.050
 3183TIP3    H131040   6.331   7.112  11.012
 3183TIP3    H231041   6.386   7.204  11.119
 3184TIP3   OH231042   6.702   5.839  10.955
 3184TIP3    H131043   6.617   5.796  10.943
 3184TIP3    H231044   6.761   5.791  10.897
 3185TIP3   OH231045   7.158   5.711  10.896
 3185TIP3    H131046   7.182   5.804  10.891
 3185TIP3    H231047   7.063   5.711  10.880
 3186TIP3   OH231048   5.908   5.732  10.664
 3186TIP3    H131049   5.820   5.721  10.629
 3186TIP3    H231050   5.952   5.648  10.646
 3187TIP3   OH231051   5.847   5.728  10.305
 3187TIP3    H131052   5.911   5.778  10.255
 3187TIP3    H231053   5.765   5.741  10.257
 3188TIP3   OH231054   6.419   5.703  10.689
 3188TIP3    H131055   6.490   5.754  10.650
 3188TIP3    H231056   6.436   5.706  10.784
 3189TIP3   OH231057   6.892   5.694  10.812
 3189TIP3    H131058   6.905   5.673  10.720
 3189TIP3    H231059   6.872   5.610  10.854
 3190TIP3   OH231060   7.057   5.789  10.408
 3190TIP3    H131061   6.977   5.842  10.406
 3190TIP3    H231062   7.026   5.701  10.430
 3191TIP3   OH231063   5.829   0.064  10.433
 3191TIP3    H131064   5.815   0.044  10.341
 3191TIP3    H231065   5.770   0.137  10.451
 3192TIP3   OH231066   6.012   5.889  10.157
 3192TIP3    H131067   5.995   5.934  10.074
 3192TIP3    H231068   6.087   5.935  10.194
 3193TIP3   OH231069   6.474   5.971  10.361
 3193TIP3    H131070   6.510   5.892  10.401
 3193TIP3    H231071   6.483   6.039  10.428
 3194TIP3   OH231072   5.942   5.761  11.627
 3194TIP3    H131073   5.883   5.693  11.658
 3194TIP3    H231074   6.023   5.747  11.676
 3195TIP3   OH231075   6.143   5.710  11.809
 3195TIP3    H131076   6.227   5.693  11.766
 3195TIP3    H231077   6.116   5.626  11.844
 3196TIP3   OH231078   6.988   5.686  11.806
 3196TIP3    H131079   6.986   5.640  11.890
 3196TIP3    H231080   7.080   5.682  11.779
 3197TIP3   OH231081   7.272   7.308  11.664
 3197TIP3    H131082   7.203   7.298  11.598
 3197TIP3    H231083   7.317   7.389  11.640
 3198TIP3   OH231084   1.196   1.039  12.534
 3198TIP3    H131085   1.184   1.133  12.520
 3198TIP3    H231086   1.128   0.998  12.480
 3199TIP3   OH231087   1.073   0.951  12.939
 3199TIP3    H131088   1.101   0.906  13.019
 3199TIP3    H231089   1.027   0.884  12.889
 3200TIP3   OH231090   0.291   0.862  13.056
 3200TIP3    H131091   0.300   0.792  13.120
 3200TIP3    H231092   0.381   0.882  13.028
 3201TIP3   OH231093   1.460   1.258  12.767
 3201TIP3    H131094   1.421   1.181  12.808
 3201TIP3    H231095   1.477   1.318  12.839
 3202TIP3   OH231096   0.419   1.350  12.856
 3202TIP3    H131097   0.394   1.260  12.833
 3202TIP3    H231098   0.512   1.344  12.876
 3203TIP3   OH231099   0.105   0.732  12.420
 3203TIP3    H131100   0.045   0.788  12.469
 3203TIP3    H231101   0.048   0.677  12.367
 3204TIP3   OH231102   0.147   0.956  12.712
 3204TIP3    H131103   0.168   0.863  12.722
 3204TIP3    H231104   0.232   1.000  12.713
 3205TIP3   OH231105   1.200   1.711  12.807
 3205TIP3    H131106   1.227   1.663  12.729
 3205TIP3    H231107   1.184   1.644  12.872
 3206TIP3   OH231108   0.915   1.198  12.944
 3206TIP3    H131109   0.954   1.117  12.912
 3206TIP3    H231110   0.981   1.235  13.002
 3207TIP3   OH231111   1.764   0.288  13.023
 3207TIP3    H131112   1.790   0.350  13.091
 3207TIP3    H231113   1.820   0.309  12.949
 3208TIP3   OH231114   1.229   0.624  12.955
 3208TIP3    H131115   1.247   0.531  12.974
 3208TIP3    H231116   1.213   0.627  12.861
 3209TIP3   OH231117   0.523   0.449  12.739
 3209TIP3    H131118   0.565   0.502  12.670
 3209TIP3    H231119   0.561   0.362  12.728
 3210TIP3   OH231120   1.365   0.445  12.543
 3210TIP3    H131121   1.406   0.424  12.627
 3210TIP3    H231122   1.436   0.485  12.492
 3211TIP3   OH231123   0.202   0.690  12.778
 3211TIP3    H131124   0.261   0.650  12.841
 3211TIP3    H231125   0.232   0.659  12.693
 3212TIP3   OH231126   0.693   0.823  12.746
 3212TIP3    H131127   0.781   0.793  12.770
 3212TIP3    H231128   0.660   0.755  12.687
 3213TIP3   OH231129   1.735   0.471  13.265
 3213TIP3    H131130   1.691   0.549  13.233
 3213TIP3    H231131   1.827   0.484  13.241
 3214TIP3   OH231132   0.417   0.351  13.130
 3214TIP3    H131133   0.391   0.412  13.062
 3214TIP3    H231134   0.347   0.357  13.196
 3215TIP3   OH231135   1.165   1.295  12.432
 3215TIP3    H131136   1.144   1.284  12.340
 3215TIP3    H231137   1.114   1.371  12.460
 3216TIP3   OH231138   0.690   1.117  13.086
 3216TIP3    H131139   0.639   1.188  13.123
 3216TIP3    H231140   0.761   1.160  13.038
 3217TIP3   OH231141   1.455   0.404  12.795
 3217TIP3    H131142   1.393   0.379  12.864
 3217TIP3    H231143   1.515   0.465  12.838
 3218TIP3   OH231144   0.372   0.538  12.935
 3218TIP3    H131145   0.434   0.590  12.986
 3218TIP3    H231146   0.423   0.504  12.861
 3219TIP3   OH231147   0.537   1.320  13.204
 3219TIP3    H131148   0.545   1.415  13.194
 3219TIP3    H231149   0.446   1.305  13.231
 3220TIP3   OH231150   0.109   1.265  12.282
 3220TIP3    H131151   0.112   1.299  12.193
 3220TIP3    H231152   0.141   1.337  12.336
 3221TIP3   OH231153   1.485   1.463  12.969
 3221TIP3    H131154   1.390   1.467  12.979
 3221TIP3    H231155   1.510   1.552  12.943
 3222TIP3   OH231156   1.522   0.204  13.136
 3222TIP3    H131157   1.453   0.258  13.098
 3222TIP3    H231158   1.602   0.232  13.090
 3223TIP3   OH231159   0.878   0.026  12.876
 3223TIP3    H131160   0.903  -0.023  12.797
 3223TIP3    H231161   0.803   0.078  12.850
 3224TIP3   OH231162   1.309   1.612  12.570
 3224TIP3    H131163   1.350   1.527  12.555
 3224TIP3    H231164   1.381   1.674  12.575
 3225TIP3   OH231165   1.422   1.372  12.517
 3225TIP3    H131166   1.345   1.326  12.483
 3225TIP3    H231167   1.444   1.324  12.597
 3226TIP3   OH231168   1.612   1.221  13.314
 3226TIP3    H131169   1.595   1.168  13.236
 3226TIP3    H231170   1.628   1.309  13.280
 3227TIP3   OH231171   1.045   0.940  12.321
 3227TIP3    H131172   0.975   0.999  12.292
 3227TIP3    H231173   1.109   0.941  12.250
 3228TIP3   OH231174   1.083   0.817  11.965
 3228TIP3    H131175   1.138   0.841  12.039
 3228TIP3    H231176   1.131   0.747  11.921
 3229TIP3   OH231177   1.763   0.907  13.153
 3229TIP3    H131178   1.692   0.967  13.131
 3229TIP3    H231179   1.823   0.912  13.079
 3230TIP3   OH231180   1.415   0.970  12.384
 3230TIP3    H131181   1.347   0.993  12.448
 3230TIP3    H231182   1.478   0.920  12.435
 3231TIP3   OH231183   1.361   0.769  13.346
 3231TIP3    H131184   1.353   0.840  13.410
 3231TIP3    H231185   1.295   0.790  13.279
 3232TIP3   OH231186   0.566   1.010  12.576
 3232TIP3    H131187   0.540   0.969  12.494
 3232TIP3    H231188   0.617   0.943  12.622
 3233TIP3   OH231189   0.705   1.371  12.849
 3233TIP3    H131190   0.704   1.379  12.753
 3233TIP3    H231191   0.781   1.314  12.867
 3234TIP3   OH231192   0.548   0.917  12.961
 3234TIP3    H131193   0.603   0.887  12.888
 3234TIP3    H231194   0.601   0.985  13.004
 3235TIP3   OH231195   1.218   1.487  13.023
 3235TIP3    H131196   1.206   1.551  13.094
 3235TIP3    H231197   1.180   1.406  13.058
 3236TIP3   OH231198   0.700   1.342  13.430
 3236TIP3    H131199   0.638   1.401  13.473
 3236TIP3    H231200   0.654   1.313  13.350
 3237TIP3   OH231201   1.274   0.897  12.158
 3237TIP3    H131202   1.326   0.934  12.230
 3237TIP3    H231203   1.327   0.914  12.080
 3238TIP3   OH231204   0.400   0.940  13.385
 3238TIP3    H131205   0.404   1.019  13.439
 3238TIP3    H231206   0.316   0.946  13.340
 3239TIP3   OH231207   1.053   1.542  12.493
 3239TIP3    H131208   1.136   1.573  12.528
 3239TIP3    H231209   1.019   1.617  12.444
 3240TIP3   OH231210   0.504   1.532  13.495
 3240TIP3    H131211   0.517   1.560  13.405
 3240TIP3    H231212   0.410   1.536  13.508
 3241TIP3   OH231213   1.661   0.006  12.153
 3241TIP3    H131214   1.579   0.031  12.196
 3241TIP3    H231215   1.693   0.088  12.114
 3242TIP3   OH231216   0.479   0.913  12.326
 3242TIP3    H131217   0.415   0.973  12.287
 3242TIP3    H231218   0.438   0.827  12.317
 3243TIP3   OH231219   1.786   1.483  12.024
 3243TIP3    H131220   1.796   1.578  12.019
 3243TIP3    H231221   1.875   1.450  12.012
 3244TIP3   OH231222   0.170   1.132  13.214
 3244TIP3    H131223   0.140   1.114  13.125
 3244TIP3    H231224   0.141   1.056  13.264
 3245TIP3   OH231225   0.110   1.485  12.880
 3245TIP3    H131226   0.183   1.426  12.865
 3245TIP3    H231227   0.094   1.481  12.974
 3246TIP3   OH231228   1.863   1.548  13.527
 3246TIP3    H131229   1.855   1.454  13.509
 3246TIP3    H231230   1.777   1.574  13.560
 3247TIP3   OH231231   0.938   1.471  13.380
 3247TIP3    H131232   0.931   1.554  13.427
 3247TIP3    H231233   0.855   1.427  13.397
 3248TIP3   OH231234   1.029   1.805  12.358
 3248TIP3    H131235   1.003   1.807  12.265
 3248TIP3    H231236   0.992   1.885  12.395
 3249TIP3   OH231237   0.363   1.701  12.553
 3249TIP3    H131238   0.381   1.668  12.640
 3249TIP3    H231239   0.301   1.638  12.515
 3250TIP3   OH231240   1.316   1.775  12.040
 3250TIP3    H131241   1.362   1.700  12.003
 3250TIP3    H231242   1.325   1.764  12.135
 3251TIP3   OH231243   1.296   1.756  12.316
 3251TIP3    H131244   1.203   1.769  12.333
 3251TIP3    H231245   1.323   1.692  12.383
 3252TIP3   OH231246   1.536   0.660  13.555
 3252TIP3    H131247   1.482   0.684  13.480
 3252TIP3    H231248   1.547   0.565  13.547
 3253TIP3   OH231249   0.286   1.335  13.352
 3253TIP3    H131250   0.326   1.279  13.418
 3253TIP3    H231251   0.233   1.275  13.299
 3254TIP3   OH231252   0.527   0.118  13.026
 3254TIP3    H131253   0.564   0.139  12.940
 3254TIP3    H231254   0.491   0.201  13.057
 3255TIP3   OH231255   1.020   0.126  13.337
 3255TIP3    H131256   1.020   0.128  13.433
 3255TIP3    H231257   0.928   0.126  13.313
 3256TIP3   OH231258   1.312   0.493  13.363
 3256TIP3    H131259   1.245   0.481  13.431
 3256TIP3    H231260   1.318   0.588  13.352
 3257TIP3   OH231261   1.421   0.925  11.931
 3257TIP3    H131262   1.394   0.945  11.842
 3257TIP3    H231263   1.512   0.953  11.936
 3258TIP3   OH231264   0.985   0.381  12.060
 3258TIP3    H131265   0.920   0.358  12.127
 3258TIP3    H231266   0.963   0.325  11.985
 3259TIP3   OH231267   0.561   0.670  13.090
 3259TIP3    H131268   0.498   0.672  13.162
 3259TIP3    H231269   0.564   0.760  13.058
 3260TIP3   OH231270   0.579   0.658  12.559
 3260TIP3    H131271   0.483   0.651  12.561
 3260TIP3    H231272   0.603   0.637  12.469
 3261TIP3   OH231273   1.093   0.693  12.433
 3261TIP3    H131274   1.068   0.779  12.402
 3261TIP3    H231275   1.165   0.666  12.375
 3262TIP3   OH231276   1.026   0.705  13.546
 3262TIP3    H131277   0.970   0.638  13.584
 3262TIP3    H231278   1.111   0.692  13.589
 3263TIP3   OH231279   1.200   0.628  12.682
 3263TIP3    H131280   1.153   0.669  12.609
 3263TIP3    H231281   1.247   0.555  12.641
 3264TIP3   OH231282   0.339   0.662  13.253
 3264TIP3    H131283   0.342   0.711  13.335
 3264TIP3    H231284   0.291   0.582  13.275
 3265TIP3   OH231285   0.648   0.360  11.901
 3265TIP3    H131286   0.622   0.356  11.993
 3265TIP3    H231287   0.600   0.434  11.866
 3266TIP3   OH231288   0.080   0.359  12.588
 3266TIP3    H131289   0.104   0.371  12.680
 3266TIP3    H231290   0.164   0.351  12.543
 3267TIP3   OH231291   0.064   0.534  12.190
 3267TIP3    H131292   0.155   0.554  12.165
 3267TIP3    H231293   0.013   0.554  12.112
 3268TIP3   OH231294   1.154   0.789  13.155
 3268TIP3    H131295   1.189   0.735  13.085
 3268TIP3    H231296   1.089   0.734  13.198
 3269TIP3   OH231297   0.880   0.370  12.648
 3269TIP3    H131298   0.800   0.322  12.669
 3269TIP3    H231299   0.939   0.352  12.721
 3270TIP3   OH231300   0.312   0.604  12.540
 3270TIP3    H131301   0.243   0.643  12.485
 3270TIP3    H231302   0.316   0.513  12.511
 3271TIP3   OH231303   0.621   0.587  12.296
 3271TIP3    H131304   0.715   0.578  12.313
 3271TIP3    H231305   0.616   0.630  12.211
 3272TIP3   OH231306   1.258   0.348  12.984
 3272TIP3    H131307   1.214   0.350  13.069
 3272TIP3    H231308   1.191   0.313  12.924
 3273TIP3   OH231309   0.591   0.685  12.044
 3273TIP3    H131310   0.541   0.652  11.970
 3273TIP3    H231311   0.667   0.728  12.004
 3274TIP3   OH231312   1.605   1.900  13.619
 3274TIP3    H131313   1.631   1.929  13.532
 3274TIP3    H231314   1.679   1.921  13.675
 3275TIP3   OH231315   0.380   1.165  13.552
 3275TIP3    H131316   0.446   1.158  13.622
 3275TIP3    H231317   0.296   1.168  13.598
 3276TIP3   OH231318   0.936   0.719  12.838
 3276TIP3    H131319   0.998   0.662  12.792
 3276TIP3    H231320   0.901   0.664  12.909
 3277TIP3   OH231321   0.340   0.336  12.469
 3277TIP3    H131322   0.339   0.248  12.505
 3277TIP3    H231323   0.408   0.333  12.401
 3278TIP3   OH231324   0.823   0.586  13.055
 3278TIP3    H131325   0.737   0.625  13.071
 3278TIP3    H231326   0.873   0.604  13.134
 3279TIP3   OH231327   0.850   1.123  12.241
 3279TIP3    H131328   0.779   1.087  12.187
 3279TIP3    H231329   0.806   1.153  12.321
 3280TIP3   OH231330   1.567   1.086  13.079
 3280TIP3    H131331   1.628   1.141  13.029
 3280TIP3    H231332   1.496   1.067  13.017
 3281TIP3   OH231333   1.245   0.412  12.119
 3281TIP3    H131334   1.152   0.409  12.098
 3281TIP3    H231335   1.258   0.497  12.159
 3282TIP3   OH231336   1.023   1.184  13.379
 3282TIP3    H131337   1.047   1.142  13.462
 3282TIP3    H231338   0.990   1.270  13.405
 3283TIP3   OH231339   1.309   0.638  12.264
 3283TIP3    H131340   1.399   0.624  12.294
 3283TIP3    H231341   1.312   0.725  12.223
 3284TIP3   OH231342   0.396   1.079  12.782
 3284TIP3    H131343   0.451   1.065  12.705
 3284TIP3    H231344   0.434   1.023  12.850
 3285TIP3   OH231345   1.062   1.278  12.171
 3285TIP3    H131346   1.029   1.367  12.175
 3285TIP3    H231347   0.986   1.223  12.192
 3286TIP3   OH231348   0.120   0.901  13.361
 3286TIP3    H131349   0.136   0.867  13.449
 3286TIP3    H231350   0.057   0.840  13.322
 3287TIP3   OH231351   0.819   0.897  13.570
 3287TIP3    H131352   0.752   0.859  13.512
 3287TIP3    H231353   0.898   0.848  13.549
 3288TIP3   OH231354   1.221   1.458  13.383
 3288TIP3    H131355   1.128   1.459  13.358
 3288TIP3    H231356   1.219   1.465  13.479
 3289TIP3   OH231357   1.756   0.662  12.187
 3289TIP3    H131358   1.715   0.640  12.103
 3289TIP3    H231359   1.780   0.754  12.179
 3290TIP3   OH231360   1.837   1.280  13.474
 3290TIP3    H131361   1.744   1.260  13.458
 3290TIP3    H231362   1.882   1.247  13.396
 3291TIP3   OH231363   1.645   1.512  12.272
 3291TIP3    H131364   1.589   1.441  12.305
 3291TIP3    H231365   1.678   1.480  12.188
 3292TIP3   OH231366   1.360   1.024  12.894
 3292TIP3    H131367   1.265   1.014  12.894
 3292TIP3    H231368   1.393   0.947  12.846
 3293TIP3   OH231369   0.637   1.444  12.587
 3293TIP3    H131370   0.661   1.528  12.549
 3293TIP3    H231371   0.541   1.444  12.587
 3294TIP3   OH231372   0.193   0.909  12.013
 3294TIP3    H131373   0.247   0.971  12.063
 3294TIP3    H231374   0.112   0.902  12.063
 3295TIP3   OH231375   0.708   1.215  12.451
 3295TIP3    H131376   0.696   1.295  12.502
 3295TIP3    H231377   0.659   1.148  12.500
 3296TIP3   OH231378   0.835   1.615  13.155
 3296TIP3    H131379   0.893   1.688  13.135
 3296TIP3    H231380   0.886   1.558  13.213
 3297TIP3   OH231381   0.630   1.702  12.477
 3297TIP3    H131382   0.537   1.716  12.495
 3297TIP3    H231383   0.673   1.779  12.513
 3298TIP3   OH231384   1.124   1.240  13.127
 3298TIP3    H131385   1.089   1.220  13.214
 3298TIP3    H231386   1.184   1.168  13.108
 3299TIP3   OH231387   1.422   1.329  12.031
 3299TIP3    H131388   1.445   1.279  12.109
 3299TIP3    H231389   1.336   1.295  12.006
 3300TIP3   OH231390   1.433   1.635  13.349
 3300TIP3    H131391   1.353   1.583  13.348
 3300TIP3    H231392   1.417   1.706  13.287
 3301TIP3   OH231393   1.823   1.759  12.027
 3301TIP3    H131394   1.846   1.821  11.958
 3301TIP3    H231395   1.752   1.801  12.075
 3302TIP3   OH231396   0.212   0.390  13.315
 3302TIP3    H131397   0.116   0.394  13.313
 3302TIP3    H231398   0.232   0.319  13.375
 3303TIP3   OH231399   1.523   1.183  12.240
 3303TIP3    H131400   1.477   1.119  12.293
 3303TIP3    H231401   1.615   1.168  12.259
 3304TIP3   OH231402   0.210   1.632  13.144
 3304TIP3    H131403   0.211   1.557  13.203
 3304TIP3    H231404   0.225   1.708  13.200
 3305TIP3   OH231405   0.784   1.414  11.894
 3305TIP3    H131406   0.789   1.330  11.848
 3305TIP3    H231407   0.748   1.392  11.980
 3306TIP3   OH231408   0.668   1.391  12.148
 3306TIP3    H131409   0.707   1.342  12.220
 3306TIP3    H231410   0.679   1.483  12.172
 3307TIP3   OH231411   0.307   1.089  12.194
 3307TIP3    H131412   0.237   1.134  12.242
 3307TIP3    H231413   0.356   1.160  12.153
 3308TIP3   OH231414   1.121   0.355  13.220
 3308TIP3    H131415   1.193   0.382  13.278
 3308TIP3    H231416   1.088   0.274  13.258
 3309TIP3   OH231417   1.236   0.280  12.363
 3309TIP3    H131418   1.235   0.318  12.275
 3309TIP3    H231419   1.274   0.349  12.418
 3310TIP3   OH231420   0.962   1.529  12.183
 3310TIP3    H131421   0.875   1.563  12.205
 3310TIP3    H231422   1.008   1.605  12.148
 3311TIP3   OH231423   0.870   0.527  12.417
 3311TIP3    H131424   0.946   0.587  12.421
 3311TIP3    H231425   0.868   0.486  12.504
 3312TIP3   OH231426   0.990   0.605  13.277
 3312TIP3    H131427   0.999   0.623  13.371
 3312TIP3    H231428   1.024   0.516  13.267
 3313TIP3   OH231429   0.983   0.191  12.454
 3313TIP3    H131430   0.964   0.260  12.518
 3313TIP3    H231431   1.071   0.211  12.423
 3314TIP3   OH231432   0.718   1.650  12.223
 3314TIP3    H131433   0.724   1.736  12.179
 3314TIP3    H231434   0.686   1.670  12.311
 3315TIP3   OH231435   0.555   0.346  12.164
 3315TIP3    H131436   0.552   0.433  12.204
 3315TIP3    H231437   0.634   0.306  12.199
 3316TIP3   OH231438   1.553   0.399  13.452
 3316TIP3    H131439   1.466   0.409  13.412
 3316TIP3    H231440   1.614   0.414  13.380
 3317TIP3   OH231441   1.434   0.779  12.769
 3317TIP3    H131442   1.351   0.734  12.752
 3317TIP3    H231443   1.482   0.721  12.827
 3318TIP3   OH231444   0.420   1.309  12.059
 3318TIP3    H131445   0.497   1.352  12.098
 3318TIP3    H231446   0.456   1.258  11.986
 3319TIP3   OH231447   0.242   0.637  12.004
 3319TIP3    H131448   0.259   0.731  12.008
 3319TIP3    H231449   0.157   0.629  11.962
 3320TIP3   OH231450   1.571   1.731  12.951
 3320TIP3    H131451   1.559   1.802  12.887
 3320TIP3    H231452   1.665   1.724  12.961
 3321TIP3   OH231453   0.297   0.138  12.836
 3321TIP3    H131454   0.361   0.140  12.765
 3321TIP3    H231455   0.342   0.094  12.908
 3322TIP3   OH231456   0.181   1.531  12.412
 3322TIP3    H131457   0.086   1.520  12.412
 3322TIP3    H231458   0.199   1.592  12.341
 3323TIP3   OH231459   0.171   1.813  13.618
 3323TIP3    H131460   0.223   1.801  13.697
 3323TIP3    H231461   0.174   1.728  13.574
 3324TIP3   OH231462   0.575   1.612  13.749
 3324TIP3    H131463   0.652   1.561  13.771
 3324TIP3    H231464   0.554   1.587  13.659
 3325TIP3   OH231465   0.986   1.600  11.869
 3325TIP3    H131466   0.919   1.533  11.885
 3325TIP3    H231467   1.062   1.550  11.838
 3326TIP3   OH231468   1.216   1.480  13.657
 3326TIP3    H131469   1.207   1.396  13.701
 3326TIP3    H231470   1.291   1.521  13.698
 3327TIP3   OH231471   1.441   1.571  11.908
 3327TIP3    H131472   1.448   1.490  11.958
 3327TIP3    H231473   1.513   1.568  11.846
 3328TIP3   OH231474   0.142   1.155  13.685
 3328TIP3    H131475   0.137   1.062  13.666
 3328TIP3    H231476   0.051   1.186  13.681
 3329TIP3   OH231477   0.549   1.139  11.888
 3329TIP3    H131478   0.572   1.086  11.964
 3329TIP3    H231479   0.631   1.150  11.840
 3330TIP3   OH231480   0.782   1.172  13.633
 3330TIP3    H131481   0.762   1.215  13.550
 3330TIP3    H231482   0.809   1.083  13.608
 3331TIP3   OH231483   1.176   1.257  11.922
 3331TIP3    H131484   1.128   1.255  12.005
 3331TIP3    H231485   1.148   1.179  11.875
 3332TIP3   OH231486   1.348   1.204  13.406
 3332TIP3    H131487   1.438   1.220  13.378
 3332TIP3    H231488   1.302   1.286  13.386
 3333TIP3   OH231489   0.178   0.873  13.636
 3333TIP3    H131490   0.254   0.817  13.619
 3333TIP3    H231491   0.175   0.882  13.731
 3334TIP3   OH231492   0.643   0.999  12.107
 3334TIP3    H131493   0.596   0.953  12.177
 3334TIP3    H231494   0.692   0.930  12.062
 3335TIP3   OH231495   0.630   0.789  13.391
 3335TIP3    H131496   0.552   0.844  13.387
 3335TIP3    H231497   0.686   0.821  13.320
 3336TIP3   OH231498   0.803   0.834  11.951
 3336TIP3    H131499   0.798   0.860  11.859
 3336TIP3    H231500   0.897   0.820  11.967
 3337TIP3   OH231501   1.120   1.028  13.661
 3337TIP3    H131502   1.199   0.995  13.618
 3337TIP3    H231503   1.092   0.956  13.717
 3338TIP3   OH231504   1.681   1.018  11.894
 3338TIP3    H131505   1.682   0.999  11.800
 3338TIP3    H231506   1.677   1.114  11.898
 3339TIP3   OH231507   0.646   0.525  13.459
 3339TIP3    H131508   0.657   0.473  13.379
 3339TIP3    H231509   0.644   0.616  13.429
 3340TIP3   OH231510   0.677   0.394  13.215
 3340TIP3    H131511   0.727   0.437  13.145
 3340TIP3    H231512   0.589   0.385  13.179
 3341TIP3   OH231513   0.801   0.898  13.212
 3341TIP3    H131514   0.895   0.912  13.217
 3341TIP3    H231515   0.767   0.977  13.170
 3342TIP3   OH231516   1.261   0.639  13.702
 3342TIP3    H131517   1.270   0.544  13.715
 3342TIP3    H231518   1.351   0.670  13.690
 3343TIP3   OH231519   1.377   0.972  13.542
 3343TIP3    H131520   1.356   1.055  13.498
 3343TIP3    H231521   1.473   0.967  13.537
 3344TIP3   OH231522   0.492   0.577  13.685
 3344TIP3    H131523   0.405   0.539  13.671
 3344TIP3    H231524   0.537   0.565  13.601
 3345TIP3   OH231525   0.748   0.142  13.294
 3345TIP3    H131526   0.727   0.233  13.270
 3345TIP3    H231527   0.703   0.090  13.228
 3346TIP3   OH231528   0.865   0.498  13.627
 3346TIP3    H131529   0.834   0.459  13.709
 3346TIP3    H231530   0.788   0.501  13.570
 3347TIP3   OH231531   1.113   0.414  13.532
 3347TIP3    H131532   1.026   0.428  13.568
 3347TIP3    H231533   1.165   0.381  13.606
 3348TIP3   OH231534   1.287   0.348  13.737
 3348TIP3    H131535   1.307   0.257  13.718
 3348TIP3    H231536   1.279   0.352  13.832
 3349TIP3   OH231537   0.264   0.416  13.649
 3349TIP3    H131538   0.266   0.337  13.596
 3349TIP3    H231539   0.278   0.384  13.739
 3350TIP3   OH231540   0.731   0.053  13.549
 3350TIP3    H131541   0.676  -0.025  13.536
 3350TIP3    H231542   0.742   0.088  13.461
 3351TIP3   OH231543   0.849   0.205  13.748
 3351TIP3    H131544   0.822   0.139  13.684
 3351TIP3    H231545   0.771   0.259  13.761
 3352TIP3   OH231546   0.795   1.892  12.106
 3352TIP3    H131547   0.882   1.856  12.089
 3352TIP3    H231548   0.780   1.954  12.034
 3353TIP3   OH231549   0.152   1.329  12.014
 3353TIP3    H131550   0.243   1.349  12.033
 3353TIP3    H231551   0.156   1.263  11.945
 3354TIP3   OH231552   0.040   1.885  12.491
 3354TIP3    H131553   0.025   1.835  12.411
 3354TIP3    H231554   0.042   1.819  12.561
 3355TIP3   OH231555   0.061   1.690  12.694
 3355TIP3    H131556   0.063   1.599  12.722
 3355TIP3    H231557   0.121   1.735  12.753
 3356TIP3   OH231558   1.838   1.718  13.020
 3356TIP3    H131559   1.832   1.719  13.116
 3356TIP3    H231560   1.919   1.766  13.001
 3357TIP3   OH231561   1.787   1.685  13.293
 3357TIP3    H131562   1.731   1.614  13.260
 3357TIP3    H231563   1.828   1.649  13.371
 3358TIP3   OH231564   1.645   1.286  13.775
 3358TIP3    H131565   1.561   1.293  13.822
 3358TIP3    H231566   1.698   1.357  13.811
 3359TIP3   OH231567   1.786   1.119  12.306
 3359TIP3    H131568   1.858   1.182  12.311
 3359TIP3    H231569   1.803   1.058  12.378
 3360TIP3   OH231570   1.834   0.917  12.492
 3360TIP3    H131571   1.748   0.884  12.520
 3360TIP3    H231572   1.883   0.927  12.574
 3361TIP3   OH231573   1.801   1.220  13.009
 3361TIP3    H131574   1.854   1.149  12.973
 3361TIP3    H231575   1.833   1.298  12.965
 3362TIP3   OH231576   1.618   1.480  13.213
 3362TIP3    H131577   1.546   1.526  13.258
 3362TIP3    H231578   1.584   1.465  13.125
 3363TIP3   OH231579   1.816   0.923  12.115
 3363TIP3    H131580   1.768   0.949  12.037
 3363TIP3    H231581   1.798   0.992  12.179
 3364TIP3   OH231582   1.657   0.621  11.936
 3364TIP3    H131583   1.636   0.680  11.864
 3364TIP3    H231584   1.647   0.533  11.899
 3365TIP3   OH231585   1.580   0.801  12.534
 3365TIP3    H131586   1.578   0.711  12.503
 3365TIP3    H231587   1.535   0.798  12.619
 3366TIP3   OH231588   0.079   1.008  12.972
 3366TIP3    H131589   0.087   1.013  12.876
 3366TIP3    H231590   0.158   0.961  13.000
 3367TIP3   OH231591   1.652   0.982  13.504
 3367TIP3    H131592   1.713   0.910  13.491
 3367TIP3    H231593   1.667   1.040  13.429
 3368TIP3   OH231594   1.798   0.747  13.505
 3368TIP3    H131595   1.708   0.715  13.518
 3368TIP3    H231596   1.854   0.675  13.535
 3369TIP3   OH231597   1.602   0.371  11.829
 3369TIP3    H131598   1.635   0.315  11.900
 3369TIP3    H231599   1.507   0.362  11.834
 3370TIP3   OH231600   1.571   0.551  12.375
 3370TIP3    H131601   1.597   0.459  12.379
 3370TIP3    H231602   1.634   0.591  12.315
 3371TIP3   OH231603   1.593   0.609  12.922
 3371TIP3    H131604   1.686   0.625  12.904
 3371TIP3    H231605   1.584   0.627  13.016
 3372TIP3   OH231606   1.592   0.693  13.189
 3372TIP3    H131607   1.516   0.728  13.236
 3372TIP3    H231608   1.653   0.766  13.184
 3373TIP3   OH231609   0.045   0.549  13.541
 3373TIP3    H131610   0.121   0.507  13.581
 3373TIP3    H231611   0.017   0.488  13.473
 3374TIP3   OH231612   1.900   0.082  13.690
 3374TIP3    H131613   1.878  -0.007  13.665
 3374TIP3    H231614   1.845   0.137  13.633
 3375TIP3   OH231615   1.624   0.271  12.397
 3375TIP3    H131616   1.642   0.228  12.481
 3375TIP3    H231617   1.562   0.213  12.353
 3376TIP3   OH231618   0.157   0.374  12.857
 3376TIP3    H131619   0.197   0.287  12.855
 3376TIP3    H231620   0.227   0.432  12.887
 3377TIP3   OH231621  -0.004   0.735  12.965
 3377TIP3    H131622   0.065   0.716  12.902
 3377TIP3    H231623   0.002   0.830  12.980
 3378TIP3   OH231624   1.778   0.268  13.531
 3378TIP3    H131625   1.695   0.315  13.529
 3378TIP3    H231626   1.783   0.225  13.446
 3379TIP3   OH231627   1.760   0.234  12.022
 3379TIP3    H131628   1.816   0.184  11.962
 3379TIP3    H231629   1.816   0.305  12.054
 3380TIP3   OH231630   0.082   0.269  12.285
 3380TIP3    H131631   0.009   0.271  12.347
 3380TIP3    H231632   0.097   0.360  12.263
 3381TIP3   OH231633   1.503   1.796  12.560
 3381TIP3    H131634   1.578   1.787  12.500
 3381TIP3    H231635   1.539   1.843  12.635
 3382TIP3   OH231636   7.358   0.070  13.239
 3382TIP3    H131637   7.266   0.045  13.253
 3382TIP3    H231638   7.353   0.142  13.176
 3383TIP3   OH231639   0.222   1.538  13.532
 3383TIP3    H131640   0.226   1.471  13.464
 3383TIP3    H231641   0.158   1.504  13.596
 3384TIP3   OH231642   0.572   1.595  13.233
 3384TIP3    H131643   0.541   1.682  13.208
 3384TIP3    H231644   0.665   1.596  13.211
 3385TIP3   OH231645   0.934   1.715  13.513
 3385TIP3    H131646   0.945   1.682  13.602
 3385TIP3    H231647   1.013   1.765  13.496
 3386TIP3   OH231648   1.169   1.854  13.475
 3386TIP3    H131649   1.229   1.798  13.425
 3386TIP3    H231650   1.221   1.883  13.550
 3387TIP3   OH231651   1.729   0.109  13.307
 3387TIP3    H131652   1.655   0.140  13.254
 3387TIP3    H231653   1.689   0.046  13.367
 3388TIP3   OH231654   0.258   1.890  13.259
 3388TIP3    H131655   0.176   1.928  13.229
 3388TIP3    H231656   0.277   1.934  13.342
 3389TIP3   OH231657   0.519   1.859  13.170
 3389TIP3    H131658   0.427   1.869  13.194
 3389TIP3    H231659   0.526   1.903  13.085
 3390TIP3   OH231660   0.977   1.838  13.074
 3390TIP3    H131661   0.924   1.871  13.001
 3390TIP3    H231662   0.984   1.913  13.134
 3391TIP3   OH231663   1.205   1.721  13.176
 3391TIP3    H131664   1.127   1.758  13.136
 3391TIP3    H231665   1.275   1.782  13.155
 3392TIP3   OH231666   1.451   1.857  13.164
 3392TIP3    H131667   1.468   1.949  13.143
 3392TIP3    H231668   1.489   1.809  13.091
 3393TIP3   OH231669   0.233   1.765  12.901
 3393TIP3    H131670   0.212   1.725  12.985
 3393TIP3    H231671   0.306   1.714  12.867
 3394TIP3   OH231672   0.441   1.618  12.804
 3394TIP3    H131673   0.427   1.526  12.826
 3394TIP3    H231674   0.528   1.638  12.839
 3395TIP3   OH231675   0.702   1.643  12.911
 3395TIP3    H131676   0.711   1.554  12.878
 3395TIP3    H231677   0.740   1.640  12.999
 3396TIP3   OH231678   1.051   0.247  12.831
 3396TIP3    H131679   0.999   0.174  12.863
 3396TIP3    H231680   1.112   0.207  12.769
 3397TIP3   OH231681   1.494   0.014  12.771
 3397TIP3    H131682   1.571   0.045  12.724
 3397TIP3    H231683   1.451   0.094  12.802
 3398TIP3   OH231684   1.706   0.115  12.625
 3398TIP3    H131685   1.774   0.049  12.634
 3398TIP3    H231686   1.752   0.198  12.637
 3399TIP3   OH231687   0.327   0.069  12.541
 3399TIP3    H131688   0.264   0.031  12.480
 3399TIP3    H231689   0.353  -0.004  12.597
 3400TIP3   OH231690   0.080   0.174  12.031
 3400TIP3    H131691   0.168   0.194  11.998
 3400TIP3    H231692   0.080   0.210  12.120
 3401TIP3   OH231693   0.861  -0.016  12.590
 3401TIP3    H131694   0.904   0.042  12.528
 3401TIP3    H231695   0.789   0.035  12.626
 3402TIP3   OH231696   1.240   0.158  12.658
 3402TIP3    H131697   1.278   0.221  12.597
 3402TIP3    H231698   1.262   0.072  12.621
 3403TIP3   OH231699   1.434   0.086  12.308
 3403TIP3    H131700   1.359   0.145  12.310
 3403TIP3    H231701   1.406   0.009  12.358
 3404TIP3   OH231702   0.162   1.727  12.220
 3404TIP3    H131703   0.070   1.713  12.197
 3404TIP3    H231704   0.180   1.818  12.197
 3405TIP3   OH231705   0.342   0.262  11.988
 3405TIP3    H131706   0.394   0.216  11.921
 3405TIP3    H231707   0.407   0.289  12.053
 3406TIP3   OH231708   0.811   0.306  12.264
 3406TIP3    H131709   0.854   0.236  12.312
 3406TIP3    H231710   0.828   0.385  12.316
 3407TIP3   OH231711   1.041   1.776  12.069
 3407TIP3    H131712   1.134   1.793  12.058
 3407TIP3    H231713   1.016   1.725  11.992
 3408TIP3   OH231714   1.706   1.759  12.372
 3408TIP3    H131715   1.687   1.669  12.343
 3408TIP3    H231716   1.689   1.813  12.295
 3409TIP3   OH231717   0.274   0.177  13.502
 3409TIP3    H131718   0.246   0.091  13.470
 3409TIP3    H231719   0.349   0.158  13.558
 3410TIP3   OH231720   0.485   0.128  13.679
 3410TIP3    H131721   0.567   0.151  13.637
 3410TIP3    H231722   0.501   0.041  13.717
 3411TIP3   OH231723   0.359   1.759  11.932
 3411TIP3    H131724   0.327   1.735  12.019
 3411TIP3    H231725   0.433   1.700  11.916
 3412TIP3   OH231726   1.351   0.083  13.686
 3412TIP3    H131727   1.396   0.023  13.745
 3412TIP3    H231728   1.286   0.028  13.642
 3413TIP3   OH231729   1.603   1.628  13.572
 3413TIP3    H131730   1.543   1.619  13.497
 3413TIP3    H231731   1.596   1.720  13.597
 3414TIP3   OH231732   3.084   1.031  12.534
 3414TIP3    H131733   3.073   1.125  12.521
 3414TIP3    H231734   3.015   0.991  12.482
 3415TIP3   OH231735   2.967   0.945  12.938
 3415TIP3    H131736   2.992   0.899  13.018
 3415TIP3    H231737   2.918   0.881  12.887
 3416TIP3   OH231738   2.187   0.912  13.060
 3416TIP3    H131739   2.188   0.837  13.119
 3416TIP3    H231740   2.276   0.916  13.025
 3417TIP3   OH231741   3.347   1.254  12.774
 3417TIP3    H131742   3.309   1.177  12.814
 3417TIP3    H231743   3.363   1.315  12.846
 3418TIP3   OH231744   2.322   1.356  12.852
 3418TIP3    H131745   2.284   1.271  12.834
 3418TIP3    H231746   2.411   1.337  12.882
 3419TIP3   OH231747   1.959   0.682  12.393
 3419TIP3    H131748   1.928   0.765  12.429
 3419TIP3    H231749   1.896   0.662  12.323
 3420TIP3   OH231750   2.020   0.931  12.703
 3420TIP3    H131751   2.053   0.843  12.722
 3420TIP3    H231752   2.097   0.987  12.713
 3421TIP3   OH231753   3.105   1.699  12.843
 3421TIP3    H131754   3.135   1.666  12.758
 3421TIP3    H231755   3.094   1.621  12.897
 3422TIP3   OH231756   2.810   1.199  12.935
 3422TIP3    H131757   2.845   1.117  12.902
 3422TIP3    H231758   2.877   1.232  12.994
 3423TIP3   OH231759   3.722   0.333  13.045
 3423TIP3    H131760   3.725   0.395  13.118
 3423TIP3    H231761   3.763   0.380  12.973
 3424TIP3   OH231762   3.121   0.621  12.953
 3424TIP3    H131763   3.131   0.527  12.966
 3424TIP3    H231764   3.099   0.630  12.860
 3425TIP3   OH231765   2.488   0.421  12.664
 3425TIP3    H131766   2.476   0.510  12.631
 3425TIP3    H231767   2.429   0.367  12.611
 3426TIP3   OH231768   3.253   0.452  12.541
 3426TIP3    H131769   3.295   0.424  12.623
 3426TIP3    H231770   3.323   0.492  12.491
 3427TIP3   OH231771   2.109   0.676  12.762
 3427TIP3    H131772   2.170   0.632  12.820
 3427TIP3    H231773   2.127   0.640  12.676
 3428TIP3   OH231774   2.582   0.826  12.734
 3428TIP3    H131775   2.666   0.789  12.760
 3428TIP3    H231776   2.542   0.759  12.679
 3429TIP3   OH231777   3.724   0.504  13.264
 3429TIP3    H131778   3.644   0.553  13.244
 3429TIP3    H231779   3.733   0.512  13.358
 3430TIP3   OH231780   2.323   0.380  13.128
 3430TIP3    H131781   2.257   0.426  13.076
 3430TIP3    H231782   2.279   0.363  13.211
 3431TIP3   OH231783   3.052   1.284  12.432
 3431TIP3    H131784   3.027   1.278  12.340
 3431TIP3    H231785   3.009   1.364  12.463
 3432TIP3   OH231786   2.588   1.115  13.080
 3432TIP3    H131787   2.534   1.185  13.117
 3432TIP3    H231788   2.657   1.161  13.032
 3433TIP3   OH231789   3.350   0.393  12.788
 3433TIP3    H131790   3.278   0.370  12.846
 3433TIP3    H231791   3.402   0.457  12.837
 3434TIP3   OH231792   2.323   0.534  12.871
 3434TIP3    H131793   2.379   0.568  12.940
 3434TIP3    H231794   2.381   0.477  12.819
 3435TIP3   OH231795   2.430   1.314  13.191
 3435TIP3    H131796   2.431   1.410  13.185
 3435TIP3    H231797   2.340   1.293  13.216
 3436TIP3   OH231798   2.004   1.298  12.279
 3436TIP3    H131799   1.993   1.337  12.192
 3436TIP3    H231800   2.028   1.371  12.336
 3437TIP3   OH231801   3.370   1.466  12.968
 3437TIP3    H131802   3.275   1.470  12.979
 3437TIP3    H231803   3.394   1.553  12.936
 3438TIP3   OH231804   3.465   0.266  13.148
 3438TIP3    H131805   3.390   0.279  13.090
 3438TIP3    H231806   3.541   0.286  13.093
 3439TIP3   OH231807   2.678   0.117  12.852
 3439TIP3    H131808   2.653   0.026  12.868
 3439TIP3    H231809   2.604   0.168  12.886
 3440TIP3   OH231810   3.211   1.646  12.591
 3440TIP3    H131811   3.232   1.554  12.577
 3440TIP3    H231812   3.296   1.691  12.590
 3441TIP3   OH231813   3.283   1.392  12.544
 3441TIP3    H131814   3.217   1.339  12.499
 3441TIP3    H231815   3.315   1.336  12.615
 3442TIP3   OH231816   3.493   1.236  13.315
 3442TIP3    H131817   3.476   1.180  13.239
 3442TIP3    H231818   3.505   1.323  13.278
 3443TIP3   OH231819   2.930   0.941  12.320
 3443TIP3    H131820   2.859   1.000  12.293
 3443TIP3    H231821   2.993   0.945  12.248
 3444TIP3   OH231822   2.973   0.818  11.962
 3444TIP3    H131823   3.028   0.842  12.037
 3444TIP3    H231824   3.022   0.749  11.918
 3445TIP3   OH231825   3.645   0.903  13.150
 3445TIP3    H131826   3.571   0.962  13.140
 3445TIP3    H231827   3.704   0.925  13.078
 3446TIP3   OH231828   3.305   0.977  12.382
 3446TIP3    H131829   3.235   0.996  12.445
 3446TIP3    H231830   3.369   0.926  12.433
 3447TIP3   OH231831   3.261   0.767  13.340
 3447TIP3    H131832   3.253   0.838  13.403
 3447TIP3    H231833   3.196   0.788  13.273
 3448TIP3   OH231834   2.447   1.016  12.577
 3448TIP3    H131835   2.418   0.973  12.496
 3448TIP3    H231836   2.498   0.949  12.623
 3449TIP3   OH231837   2.612   1.384  12.850
 3449TIP3    H131838   2.601   1.388  12.755
 3449TIP3    H231839   2.683   1.321  12.864
 3450TIP3   OH231840   2.441   0.924  12.949
 3450TIP3    H131841   2.493   0.895  12.875
 3450TIP3    H231842   2.496   0.988  12.994
 3451TIP3   OH231843   3.102   1.485  13.022
 3451TIP3    H131844   3.081   1.545  13.093
 3451TIP3    H231845   3.069   1.400  13.052
 3452TIP3   OH231846   2.583   1.337  13.423
 3452TIP3    H131847   2.518   1.392  13.467
 3452TIP3    H231848   2.539   1.307  13.344
 3453TIP3   OH231849   3.163   0.899  12.158
 3453TIP3    H131850   3.214   0.937  12.229
 3453TIP3    H231851   3.215   0.917  12.079
 3454TIP3   OH231852   2.252   0.935  13.408
 3454TIP3    H131853   2.253   1.023  13.446
 3454TIP3    H231854   2.165   0.927  13.370
 3455TIP3   OH231855   2.961   1.535  12.499
 3455TIP3    H131856   3.028   1.594  12.535
 3455TIP3    H231857   2.918   1.588  12.431
 3456TIP3   OH231858   2.383   1.513  13.494
 3456TIP3    H131859   2.378   1.543  13.403
 3456TIP3    H231860   2.292   1.502  13.521
 3457TIP3   OH231861   3.531   0.025  12.144
 3457TIP3    H131862   3.452   0.052  12.190
 3457TIP3    H231863   3.562   0.106  12.103
 3458TIP3   OH231864   2.357   0.921  12.324
 3458TIP3    H131865   2.295   0.985  12.290
 3458TIP3    H231866   2.311   0.837  12.318
 3459TIP3   OH231867   3.673   1.485  12.015
 3459TIP3    H131868   3.684   1.580  12.013
 3459TIP3    H231869   3.762   1.451  12.007
 3460TIP3   OH231870   1.953   1.173  13.250
 3460TIP3    H131871   1.899   1.178  13.171
 3460TIP3    H231872   1.965   1.079  13.265
 3461TIP3   OH231873   1.922   1.463  12.929
 3461TIP3    H131874   2.002   1.460  12.982
 3461TIP3    H231875   1.874   1.540  12.963
 3462TIP3   OH231876   3.744   1.541  13.519
 3462TIP3    H131877   3.734   1.446  13.507
 3462TIP3    H231878   3.658   1.570  13.551
 3463TIP3   OH231879   2.821   1.466  13.380
 3463TIP3    H131880   2.817   1.548  13.429
 3463TIP3    H231881   2.737   1.423  13.397
 3464TIP3   OH231882   2.930   1.818  12.362
 3464TIP3    H131883   2.901   1.812  12.271
 3464TIP3    H231884   2.874   1.886  12.400
 3465TIP3   OH231885   2.250   1.703  12.553
 3465TIP3    H131886   2.267   1.670  12.641
 3465TIP3    H231887   2.191   1.639  12.514
 3466TIP3   OH231888   3.199   1.776  12.042
 3466TIP3    H131889   3.245   1.702  12.002
 3466TIP3    H231890   3.215   1.766  12.136
 3467TIP3   OH231891   3.193   1.760  12.321
 3467TIP3    H131892   3.100   1.774  12.338
 3467TIP3    H231893   3.218   1.687  12.378
 3468TIP3   OH231894   3.437   0.646  13.540
 3468TIP3    H131895   3.372   0.676  13.476
 3468TIP3    H231896   3.446   0.552  13.522
 3469TIP3   OH231897   2.175   1.326  13.303
 3469TIP3    H131898   2.201   1.293  13.389
 3469TIP3    H231899   2.098   1.273  13.279
 3470TIP3   OH231900   2.440   0.216  12.944
 3470TIP3    H131901   2.362   0.192  12.895
 3470TIP3    H231902   2.408   0.272  13.015
 3471TIP3   OH231903   2.897   0.142  13.339
 3471TIP3    H131904   2.878   0.102  13.424
 3471TIP3    H231905   2.811   0.151  13.297
 3472TIP3   OH231906   3.195   0.498  13.384
 3472TIP3    H131907   3.122   0.485  13.444
 3472TIP3    H231908   3.195   0.592  13.366
 3473TIP3   OH231909   3.308   0.930  11.931
 3473TIP3    H131910   3.280   0.947  11.841
 3473TIP3    H231911   3.400   0.956  11.934
 3474TIP3   OH231912   2.870   0.367  12.040
 3474TIP3    H131913   2.806   0.343  12.107
 3474TIP3    H231914   2.847   0.313  11.964
 3475TIP3   OH231915   2.462   0.673  13.075
 3475TIP3    H131916   2.387   0.667  13.133
 3475TIP3    H231917   2.456   0.760  13.036
 3476TIP3   OH231918   2.443   0.669  12.554
 3476TIP3    H131919   2.348   0.655  12.555
 3476TIP3    H231920   2.469   0.650  12.464
 3477TIP3   OH231921   2.984   0.696  12.431
 3477TIP3    H131922   2.957   0.782  12.399
 3477TIP3    H231923   3.055   0.670  12.372
 3478TIP3   OH231924   2.905   0.716  13.557
 3478TIP3    H131925   2.847   0.649  13.593
 3478TIP3    H231926   2.989   0.701  13.599
 3479TIP3   OH231927   3.094   0.635  12.680
 3479TIP3    H131928   3.043   0.677  12.610
 3479TIP3    H231929   3.138   0.562  12.637
 3480TIP3   OH231930   2.228   0.686  13.217
 3480TIP3    H131931   2.214   0.691  13.311
 3480TIP3    H231932   2.160   0.627  13.185
 3481TIP3   OH231933   2.553   0.372  11.907
 3481TIP3    H131934   2.524   0.362  11.998
 3481TIP3    H231935   2.495   0.439  11.870
 3482TIP3   OH231936   1.856   0.340  12.629
 3482TIP3    H131937   1.908   0.354  12.708
 3482TIP3    H231938   1.914   0.362  12.557
 3483TIP3   OH231939   1.920   0.439  12.132
 3483TIP3    H131940   1.990   0.480  12.082
 3483TIP3    H231941   1.861   0.511  12.154
 3484TIP3   OH231942   3.047   0.783  13.156
 3484TIP3    H131943   3.079   0.728  13.085
 3484TIP3    H231944   2.984   0.728  13.203
 3485TIP3   OH231945   2.767   0.415  12.651
 3485TIP3    H131946   2.674   0.407  12.669
 3485TIP3    H231947   2.810   0.375  12.726
 3486TIP3   OH231948   2.185   0.580  12.515
 3486TIP3    H131949   2.109   0.605  12.463
 3486TIP3    H231950   2.202   0.489  12.491
 3487TIP3   OH231951   2.510   0.587  12.301
 3487TIP3    H131952   2.603   0.579  12.318
 3487TIP3    H231953   2.505   0.628  12.214
 3488TIP3   OH231954   3.142   0.346  12.960
 3488TIP3    H131955   3.123   0.326  13.052
 3488TIP3    H231956   3.064   0.316  12.913
 3489TIP3   OH231957   2.492   0.679  12.047
 3489TIP3    H131958   2.442   0.650  11.970
 3489TIP3    H231959   2.566   0.727  12.010
 3490TIP3   OH231960   3.491   1.899  13.620
 3490TIP3    H131961   3.517   1.933  13.534
 3490TIP3    H231962   3.565   1.919  13.677
 3491TIP3   OH231963   2.247   1.184  13.544
 3491TIP3    H131964   2.312   1.168  13.612
 3491TIP3    H231965   2.164   1.190  13.590
 3492TIP3   OH231966   2.820   0.715  12.837
 3492TIP3    H131967   2.868   0.650  12.785
 3492TIP3    H231968   2.790   0.667  12.914
 3493TIP3   OH231969   2.295   0.312  12.479
 3493TIP3    H131970   2.263   0.227  12.511
 3493TIP3    H231971   2.320   0.295  12.388
 3494TIP3   OH231972   2.724   0.590  13.066
 3494TIP3    H131973   2.636   0.626  13.076
 3494TIP3    H231974   2.769   0.611  13.148
 3495TIP3   OH231975   2.733   1.122  12.242
 3495TIP3    H131976   2.662   1.088  12.188
 3495TIP3    H231977   2.689   1.153  12.322
 3496TIP3   OH231978   3.453   1.089  13.084
 3496TIP3    H131979   3.514   1.142  13.033
 3496TIP3    H231980   3.383   1.068  13.023
 3497TIP3   OH231981   3.123   0.407  12.123
 3497TIP3    H131982   3.032   0.404  12.095
 3497TIP3    H231983   3.134   0.496  12.157
 3498TIP3   OH231984   2.917   1.192  13.371
 3498TIP3    H131985   2.931   1.148  13.455
 3498TIP3    H231986   2.876   1.276  13.395
 3499TIP3   OH231987   3.194   0.640  12.258
 3499TIP3    H131988   3.284   0.625  12.286
 3499TIP3    H231989   3.195   0.726  12.217
 3500TIP3   OH231990   2.268   1.085  12.779
 3500TIP3    H131991   2.325   1.070  12.704
 3500TIP3    H231992   2.300   1.027  12.847
 3501TIP3   OH231993   2.942   1.282  12.173
 3501TIP3    H131994   2.910   1.372  12.184
 3501TIP3    H231995   2.866   1.227  12.193
 3502TIP3   OH231996   1.974   0.905  13.341
 3502TIP3    H131997   1.943   0.860  13.419
 3502TIP3    H231998   1.912   0.880  13.272
 3503TIP3   OH231999   2.696   0.905  13.573
 3503TIP3    H132000   2.627   0.868  13.518
 3503TIP3    H232001   2.773   0.852  13.552
 3504TIP3   OH232002   3.105   1.457  13.378
 3504TIP3    H132003   3.013   1.456  13.355
 3504TIP3    H232004   3.106   1.463  13.474
 3505TIP3   OH232005   3.646   0.659  12.187
 3505TIP3    H132006   3.605   0.638  12.103
 3505TIP3    H232007   3.670   0.752  12.179
 3506TIP3   OH232008   3.715   1.268  13.476
 3506TIP3    H132009   3.623   1.264  13.450
 3506TIP3    H232010   3.764   1.242  13.398
 3507TIP3   OH232011   3.513   1.495  12.247
 3507TIP3    H132012   3.467   1.414  12.268
 3507TIP3    H232013   3.559   1.476  12.165
 3508TIP3   OH232014   3.250   1.018  12.898
 3508TIP3    H132015   3.155   1.007  12.898
 3508TIP3    H232016   3.284   0.942  12.851
 3509TIP3   OH232017   2.522   1.446  12.590
 3509TIP3    H132018   2.536   1.532  12.549
 3509TIP3    H232019   2.427   1.443  12.606
 3510TIP3   OH232020   2.080   0.891  12.047
 3510TIP3    H132021   2.125   0.958  12.098
 3510TIP3    H232022   1.989   0.898  12.074
 3511TIP3   OH232023   2.589   1.219  12.450
 3511TIP3    H132024   2.577   1.298  12.502
 3511TIP3    H232025   2.541   1.151  12.498
 3512TIP3   OH232026   2.712   1.642  13.181
 3512TIP3    H132027   2.732   1.714  13.241
 3512TIP3    H232028   2.764   1.568  13.215
 3513TIP3   OH232029   2.512   1.704  12.473
 3513TIP3    H132030   2.419   1.713  12.491
 3513TIP3    H232031   2.551   1.785  12.507
 3514TIP3   OH232032   3.017   1.237  13.118
 3514TIP3    H132033   2.983   1.221  13.206
 3514TIP3    H232034   3.073   1.161  13.100
 3515TIP3   OH232035   3.310   1.329  12.029
 3515TIP3    H132036   3.331   1.284  12.110
 3515TIP3    H232037   3.224   1.295  12.005
 3516TIP3   OH232038   3.309   1.642  13.347
 3516TIP3    H132039   3.232   1.585  13.344
 3516TIP3    H232040   3.292   1.709  13.281
 3517TIP3   OH232041   3.708   1.759  12.029
 3517TIP3    H132042   3.740   1.824  11.966
 3517TIP3    H232043   3.635   1.803  12.073
 3518TIP3   OH232044   2.174   0.348  13.351
 3518TIP3    H132045   2.101   0.382  13.298
 3518TIP3    H232046   2.136   0.275  13.399
 3519TIP3   OH232047   3.413   1.202  12.251
 3519TIP3    H132048   3.363   1.136  12.299
 3519TIP3    H232049   3.505   1.179  12.265
 3520TIP3   OH232050   2.109   1.564  13.151
 3520TIP3    H132051   2.137   1.482  13.191
 3520TIP3    H232052   2.102   1.625  13.225
 3521TIP3   OH232053   2.669   1.413  11.895
 3521TIP3    H132054   2.673   1.330  11.848
 3521TIP3    H232055   2.628   1.390  11.979
 3522TIP3   OH232056   2.543   1.393  12.143
 3522TIP3    H132057   2.568   1.343  12.221
 3522TIP3    H232058   2.556   1.485  12.168
 3523TIP3   OH232059   2.186   1.101  12.201
 3523TIP3    H132060   2.118   1.152  12.245
 3523TIP3    H232061   2.233   1.166  12.148
 3524TIP3   OH232062   3.087   0.299  13.220
 3524TIP3    H132063   3.119   0.361  13.285
 3524TIP3    H232064   3.021   0.247  13.266
 3525TIP3   OH232065   3.118   0.286  12.371
 3525TIP3    H132066   3.115   0.321  12.282
 3525TIP3    H232067   3.159   0.355  12.422
 3526TIP3   OH232068   2.853   1.539  12.208
 3526TIP3    H132069   2.762   1.567  12.217
 3526TIP3    H232070   2.894   1.608  12.157
 3527TIP3   OH232071   2.765   0.531  12.401
 3527TIP3    H132072   2.839   0.592  12.404
 3527TIP3    H232073   2.757   0.498  12.490
 3528TIP3   OH232074   2.884   0.613  13.300
 3528TIP3    H132075   2.882   0.656  13.385
 3528TIP3    H232076   2.894   0.520  13.320
 3529TIP3   OH232077   2.870   0.218  12.473
 3529TIP3    H132078   2.854   0.294  12.530
 3529TIP3    H232079   2.957   0.233  12.436
 3530TIP3   OH232080   2.604   1.653  12.221
 3530TIP3    H132081   2.607   1.740  12.180
 3530TIP3    H232082   2.568   1.669  12.308
 3531TIP3   OH232083   2.452   0.342  12.169
 3531TIP3    H132084   2.441   0.428  12.210
 3531TIP3    H232085   2.537   0.311  12.202
 3532TIP3   OH232086   3.445   0.393  13.399
 3532TIP3    H132087   3.353   0.419  13.396
 3532TIP3    H232088   3.462   0.352  13.314
 3533TIP3   OH232089   3.330   0.771  12.774
 3533TIP3    H132090   3.245   0.732  12.754
 3533TIP3    H232091   3.371   0.710  12.835
 3534TIP3   OH232092   2.297   1.306  12.043
 3534TIP3    H132093   2.373   1.350  12.082
 3534TIP3    H232094   2.334   1.252  11.973
 3535TIP3   OH232095   2.062   0.619  11.984
 3535TIP3    H132096   2.081   0.709  12.011
 3535TIP3    H232097   2.015   0.629  11.900
 3536TIP3   OH232098   3.453   1.735  12.938
 3536TIP3    H132099   3.446   1.812  12.881
 3536TIP3    H232100   3.547   1.726  12.955
 3537TIP3   OH232101   2.199   0.132  12.826
 3537TIP3    H132102   2.209   0.126  12.731
 3537TIP3    H232103   2.213   0.043  12.858
 3538TIP3   OH232104   2.061   1.543  12.420
 3538TIP3    H132105   1.988   1.566  12.478
 3538TIP3    H232106   2.050   1.600  12.344
 3539TIP3   OH232107   2.034   1.793  13.615
 3539TIP3    H132108   2.101   1.767  13.679
 3539TIP3    H232109   1.996   1.711  13.585
 3540TIP3   OH232110   2.459   1.613  13.739
 3540TIP3    H132111   2.535   1.560  13.764
 3540TIP3    H232112   2.436   1.581  13.652
 3541TIP3   OH232113   2.868   1.601  11.875
 3541TIP3    H132114   2.801   1.534  11.886
 3541TIP3    H232115   2.944   1.553  11.842
 3542TIP3   OH232116   3.101   1.481  13.651
 3542TIP3    H132117   3.089   1.398  13.699
 3542TIP3    H232118   3.176   1.522  13.694
 3543TIP3   OH232119   3.323   1.574  11.908
 3543TIP3    H132120   3.333   1.492  11.957
 3543TIP3    H232121   3.395   1.573  11.844
 3544TIP3   OH232122   2.002   1.188  13.677
 3544TIP3    H132123   2.007   1.093  13.671
 3544TIP3    H232124   1.932   1.212  13.616
 3545TIP3   OH232125   2.429   1.133  11.877
 3545TIP3    H132126   2.452   1.082  11.955
 3545TIP3    H232127   2.512   1.146  11.832
 3546TIP3   OH232128   2.666   1.176  13.633
 3546TIP3    H132129   2.644   1.216  13.549
 3546TIP3    H232130   2.688   1.086  13.611
 3547TIP3   OH232131   3.063   1.257  11.927
 3547TIP3    H132132   3.012   1.256  12.008
 3547TIP3    H232133   3.033   1.180  11.878
 3548TIP3   OH232134   3.231   1.194  13.404
 3548TIP3    H132135   3.320   1.220  13.379
 3548TIP3    H232136   3.177   1.271  13.384
 3549TIP3   OH232137   2.075   0.925  13.654
 3549TIP3    H132138   2.149   0.883  13.610
 3549TIP3    H232139   2.086   0.902  13.746
 3550TIP3   OH232140   2.524   1.002  12.105
 3550TIP3    H132141   2.475   0.959  12.174
 3550TIP3    H232142   2.574   0.932  12.063
 3551TIP3   OH232143   2.501   0.804  13.398
 3551TIP3    H132144   2.416   0.848  13.392
 3551TIP3    H232145   2.550   0.835  13.322
 3552TIP3   OH232146   2.694   0.839  11.954
 3552TIP3    H132147   2.686   0.864  11.862
 3552TIP3    H232148   2.787   0.825  11.968
 3553TIP3   OH232149   3.008   1.029  13.665
 3553TIP3    H132150   3.083   0.990  13.620
 3553TIP3    H232151   2.975   0.958  13.721
 3554TIP3   OH232152   3.570   1.015  11.893
 3554TIP3    H132153   3.570   0.996  11.799
 3554TIP3    H232154   3.566   1.111  11.898
 3555TIP3   OH232155   2.542   0.539  13.452
 3555TIP3    H132156   2.545   0.484  13.373
 3555TIP3    H232157   2.524   0.627  13.420
 3556TIP3   OH232158   2.581   0.386  13.216
 3556TIP3    H132159   2.633   0.430  13.150
 3556TIP3    H232160   2.491   0.389  13.182
 3557TIP3   OH232161   2.684   0.896  13.215
 3557TIP3    H132162   2.779   0.907  13.216
 3557TIP3    H232163   2.651   0.973  13.169
 3558TIP3   OH232164   3.140   0.647  13.705
 3558TIP3    H132165   3.156   0.552  13.708
 3558TIP3    H232166   3.227   0.686  13.711
 3559TIP3   OH232167   3.270   0.965  13.541
 3559TIP3    H132168   3.244   1.046  13.498
 3559TIP3    H232169   3.366   0.966  13.537
 3560TIP3   OH232170   2.399   0.575  13.689
 3560TIP3    H132171   2.311   0.541  13.675
 3560TIP3    H232172   2.439   0.573  13.603
 3561TIP3   OH232173   2.615   0.118  13.288
 3561TIP3    H132174   2.599   0.210  13.266
 3561TIP3    H232175   2.530   0.075  13.272
 3562TIP3   OH232176   2.744   0.509  13.631
 3562TIP3    H132177   2.706   0.464  13.707
 3562TIP3    H232178   2.672   0.516  13.569
 3563TIP3   OH232179   2.989   0.419  13.539
 3563TIP3    H132180   2.901   0.431  13.574
 3563TIP3    H232181   3.037   0.377  13.610
 3564TIP3   OH232182   3.194   0.358  13.737
 3564TIP3    H132183   3.200   0.264  13.719
 3564TIP3    H232184   3.174   0.363  13.830
 3565TIP3   OH232185   2.172   0.430  13.644
 3565TIP3    H132186   2.175   0.362  13.577
 3565TIP3    H232187   2.186   0.383  13.726
 3566TIP3   OH232188   2.724   0.009  13.520
 3566TIP3    H132189   2.659  -0.020  13.584
 3566TIP3    H232190   2.673   0.049  13.450
 3567TIP3   OH232191   2.773   0.214  13.721
 3567TIP3    H132192   2.761   0.138  13.665
 3567TIP3    H232193   2.685   0.249  13.733
 3568TIP3   OH232194   2.691   1.911  12.125
 3568TIP3    H132195   2.772   1.865  12.104
 3568TIP3    H232196   2.671   1.961  12.046
 3569TIP3   OH232197   2.035   1.366  11.990
 3569TIP3    H132198   2.127   1.353  12.014
 3569TIP3    H232199   2.016   1.294  11.931
 3570TIP3   OH232200   1.883   1.862  12.553
 3570TIP3    H132201   1.828   1.828  12.482
 3570TIP3    H232202   1.903   1.785  12.607
 3571TIP3   OH232203   1.959   1.642  12.702
 3571TIP3    H132204   1.923   1.559  12.735
 3571TIP3    H232205   2.008   1.678  12.776
 3572TIP3   OH232206   3.719   1.725  13.015
 3572TIP3    H132207   3.719   1.734  13.110
 3572TIP3    H232208   3.801   1.767  12.987
 3573TIP3   OH232209   3.663   1.704  13.293
 3573TIP3    H132210   3.611   1.632  13.258
 3573TIP3    H232211   3.711   1.665  13.366
 3574TIP3   OH232212   3.532   1.286  13.774
 3574TIP3    H132213   3.446   1.296  13.814
 3574TIP3    H232214   3.585   1.356  13.812
 3575TIP3   OH232215   3.673   1.118  12.306
 3575TIP3    H132216   3.744   1.182  12.308
 3575TIP3    H232217   3.693   1.057  12.377
 3576TIP3   OH232218   3.724   0.915  12.492
 3576TIP3    H132219   3.637   0.886  12.521
 3576TIP3    H232220   3.772   0.930  12.573
 3577TIP3   OH232221   3.693   1.214  13.010
 3577TIP3    H132222   3.743   1.144  12.970
 3577TIP3    H232223   3.725   1.294  12.969
 3578TIP3   OH232224   3.500   1.493  13.211
 3578TIP3    H132225   3.428   1.537  13.257
 3578TIP3    H232226   3.466   1.477  13.123
 3579TIP3   OH232227   3.704   0.921  12.116
 3579TIP3    H132228   3.656   0.946  12.037
 3579TIP3    H232229   3.685   0.991  12.179
 3580TIP3   OH232230   3.548   0.624  11.936
 3580TIP3    H132231   3.526   0.685  11.866
 3580TIP3    H232232   3.531   0.537  11.899
 3581TIP3   OH232233   3.469   0.804  12.536
 3581TIP3    H132234   3.461   0.716  12.499
 3581TIP3    H232235   3.424   0.799  12.621
 3582TIP3   OH232236   1.946   0.994  12.962
 3582TIP3    H132237   1.951   0.966  12.870
 3582TIP3    H232238   2.031   0.969  12.999
 3583TIP3   OH232239   3.545   0.985  13.516
 3583TIP3    H132240   3.605   0.912  13.500
 3583TIP3    H232241   3.573   1.053  13.455
 3584TIP3   OH232242   3.686   0.751  13.497
 3584TIP3    H132243   3.597   0.719  13.512
 3584TIP3    H232244   3.742   0.676  13.519
 3585TIP3   OH232245   3.479   0.380  11.832
 3585TIP3    H132246   3.516   0.322  11.898
 3585TIP3    H232247   3.384   0.367  11.839
 3586TIP3   OH232248   3.458   0.556  12.375
 3586TIP3    H132249   3.481   0.463  12.378
 3586TIP3    H232250   3.521   0.594  12.314
 3587TIP3   OH232251   3.482   0.588  12.933
 3587TIP3    H132252   3.576   0.597  12.915
 3587TIP3    H232253   3.474   0.606  13.027
 3588TIP3   OH232254   3.502   0.670  13.201
 3588TIP3    H132255   3.421   0.697  13.245
 3588TIP3    H232256   3.551   0.752  13.191
 3589TIP3   OH232257   1.917   0.517  13.598
 3589TIP3    H132258   2.008   0.489  13.606
 3589TIP3    H232259   1.869   0.437  13.578
 3590TIP3   OH232260   3.772   0.088  13.707
 3590TIP3    H132261   3.754  -0.001  13.680
 3590TIP3    H232262   3.731   0.143  13.640
 3591TIP3   OH232263   3.505   0.278  12.406
 3591TIP3    H132264   3.522   0.233  12.488
 3591TIP3    H232265   3.441   0.222  12.361
 3592TIP3   OH232266   2.003   0.330  12.858
 3592TIP3    H132267   2.081   0.274  12.858
 3592TIP3    H232268   2.016   0.388  12.933
 3593TIP3   OH232269   1.864   0.662  12.907
 3593TIP3    H132270   1.937   0.672  12.846
 3593TIP3    H232271   1.902   0.617  12.983
 3594TIP3   OH232272   3.669   0.266  13.528
 3594TIP3    H132273   3.584   0.309  13.542
 3594TIP3    H232274   3.659   0.220  13.445
 3595TIP3   OH232275   3.643   0.244  12.016
 3595TIP3    H132276   3.693   0.185  11.960
 3595TIP3    H232277   3.707   0.307  12.048
 3596TIP3   OH232278   1.899   0.264  12.341
 3596TIP3    H132279   1.805   0.264  12.360
 3596TIP3    H232280   1.910   0.335  12.277
 3597TIP3   OH232281   3.428   1.805  12.564
 3597TIP3    H132282   3.478   1.767  12.492
 3597TIP3    H232283   3.480   1.882  12.590
 3598TIP3   OH232284   1.940   0.059  13.139
 3598TIP3    H132285   1.872   0.065  13.206
 3598TIP3    H232286   1.932   0.140  13.089
 3599TIP3   OH232287   2.127   1.495  13.599
 3599TIP3    H132288   2.038   1.503  13.566
 3599TIP3    H232289   2.117   1.455  13.686
 3600TIP3   OH232290   2.443   1.590  13.226
 3600TIP3    H132291   2.409   1.676  13.202
 3600TIP3    H232292   2.537   1.597  13.213
 3601TIP3   OH232293   2.822   1.717  13.502
 3601TIP3    H132294   2.826   1.683  13.591
 3601TIP3    H232295   2.905   1.763  13.490
 3602TIP3   OH232296   3.066   1.846  13.483
 3602TIP3    H132297   3.130   1.783  13.449
 3602TIP3    H232298   3.109   1.885  13.559
 3603TIP3   OH232299   3.625   0.104  13.309
 3603TIP3    H132300   3.557   0.144  13.256
 3603TIP3    H232301   3.579   0.042  13.366
 3604TIP3   OH232302   2.156   1.914  13.253
 3604TIP3    H132303   2.072   1.944  13.219
 3604TIP3    H232304   2.161   1.950  13.341
 3605TIP3   OH232305   2.407   1.858  13.164
 3605TIP3    H132306   2.318   1.874  13.196
 3605TIP3    H232307   2.411   1.902  13.080
 3606TIP3   OH232308   2.913   1.904  13.037
 3606TIP3    H132309   2.822   1.902  13.007
 3606TIP3    H232310   2.908   1.947  13.123
 3607TIP3   OH232311   3.066   1.714  13.172
 3607TIP3    H132312   2.997   1.763  13.128
 3607TIP3    H232313   3.144   1.768  13.162
 3608TIP3   OH232314   3.306   1.844  13.142
 3608TIP3    H132315   3.349   1.929  13.149
 3608TIP3    H232316   3.354   1.798  13.073
 3609TIP3   OH232317   2.117   1.728  12.926
 3609TIP3    H132318   2.112   1.677  13.006
 3609TIP3    H232319   2.196   1.696  12.882
 3610TIP3   OH232320   2.338   1.623  12.806
 3610TIP3    H132321   2.325   1.530  12.824
 3610TIP3    H232322   2.425   1.642  12.842
 3611TIP3   OH232323   2.601   1.652  12.921
 3611TIP3    H132324   2.610   1.561  12.891
 3611TIP3    H232325   2.636   1.651  13.011
 3612TIP3   OH232326   2.918   0.255  12.823
 3612TIP3    H132327   2.844   0.198  12.842
 3612TIP3    H232328   2.977   0.201  12.771
 3613TIP3   OH232329   3.377   0.025  12.768
 3613TIP3    H132330   3.454   0.065  12.727
 3613TIP3    H232331   3.315   0.096  12.780
 3614TIP3   OH232332   3.599   0.130  12.629
 3614TIP3    H132333   3.665   0.061  12.632
 3614TIP3    H232334   3.648   0.211  12.645
 3615TIP3   OH232335   2.223   0.048  12.562
 3615TIP3    H132336   2.151   0.032  12.501
 3615TIP3    H232337   2.230  -0.032  12.614
 3616TIP3   OH232338   2.064   0.136  12.121
 3616TIP3    H132339   2.116   0.189  12.061
 3616TIP3    H232340   2.001   0.198  12.160
 3617TIP3   OH232341   2.641   0.109  12.578
 3617TIP3    H132342   2.725   0.134  12.541
 3617TIP3    H232343   2.653   0.116  12.673
 3618TIP3   OH232344   3.127   0.154  12.669
 3618TIP3    H132345   3.145   0.218  12.600
 3618TIP3    H232346   3.141   0.069  12.627
 3619TIP3   OH232347   3.315   0.097  12.311
 3619TIP3    H132348   3.238   0.154  12.315
 3619TIP3    H232349   3.288   0.018  12.356
 3620TIP3   OH232350   2.037   1.710  12.200
 3620TIP3    H132351   1.959   1.710  12.145
 3620TIP3    H232352   2.062   1.803  12.207
 3621TIP3   OH232353   2.247   0.288  11.981
 3621TIP3    H132354   2.278   0.216  11.927
 3621TIP3    H232355   2.315   0.300  12.047
 3622TIP3   OH232356   2.709   0.301  12.259
 3622TIP3    H132357   2.750   0.237  12.316
 3622TIP3    H232358   2.725   0.385  12.301
 3623TIP3   OH232359   2.925   1.777  12.074
 3623TIP3    H132360   3.018   1.793  12.061
 3623TIP3    H232361   2.898   1.727  11.997
 3624TIP3   OH232362   3.586   1.737  12.352
 3624TIP3    H132363   3.564   1.650  12.320
 3624TIP3    H232364   3.570   1.795  12.278
 3625TIP3   OH232365   2.120   0.166  13.546
 3625TIP3    H132366   2.041   0.137  13.593
 3625TIP3    H232367   2.192   0.128  13.595
 3626TIP3   OH232368   2.304   0.055  13.725
 3626TIP3    H132369   2.392   0.017  13.722
 3626TIP3    H232370   2.245  -0.019  13.711
 3627TIP3   OH232371   2.224   1.731  11.931
 3627TIP3    H132372   2.190   1.705  12.017
 3627TIP3    H232373   2.301   1.675  11.918
 3628TIP3   OH232374   3.222   0.087  13.696
 3628TIP3    H132375   3.273   0.021  13.743
 3628TIP3    H232376   3.148   0.039  13.659
 3629TIP3   OH232377   3.486   1.629  13.566
 3629TIP3    H132378   3.425   1.624  13.493
 3629TIP3    H232379   3.483   1.720  13.593
 3630TIP3   OH232380   4.965   1.029  12.531
 3630TIP3    H132381   4.955   1.124  12.523
 3630TIP3    H232382   4.896   0.993  12.475
 3631TIP3   OH232383   4.846   0.944  12.938
 3631TIP3    H132384   4.872   0.903  13.021
 3631TIP3    H232385   4.795   0.876  12.893
 3632TIP3   OH232386   4.057   0.870  13.055
 3632TIP3    H132387   4.070   0.802  13.122
 3632TIP3    H232388   4.146   0.893  13.027
 3633TIP3   OH232389   5.230   1.250  12.766
 3633TIP3    H132390   5.191   1.177  12.813
 3633TIP3    H232391   5.248   1.316  12.834
 3634TIP3   OH232392   4.199   1.348  12.855
 3634TIP3    H132393   4.167   1.261  12.834
 3634TIP3    H232394   4.292   1.336  12.873
 3635TIP3   OH232395   3.834   0.669  12.406
 3635TIP3    H132396   3.807   0.756  12.437
 3635TIP3    H232397   3.778   0.652  12.330
 3636TIP3   OH232398   3.909   0.935  12.704
 3636TIP3    H132399   3.942   0.846  12.721
 3636TIP3    H232400   3.986   0.991  12.714
 3637TIP3   OH232401   4.966   1.715  12.802
 3637TIP3    H132402   4.999   1.666  12.726
 3637TIP3    H232403   4.949   1.648  12.868
 3638TIP3   OH232404   4.693   1.193  12.946
 3638TIP3    H132405   4.735   1.113  12.913
 3638TIP3    H232406   4.757   1.230  13.007
 3639TIP3   OH232407   5.596   0.321  13.051
 3639TIP3    H132408   5.607   0.390  13.117
 3639TIP3    H232409   5.649   0.351  12.977
 3640TIP3   OH232410   4.995   0.618  12.955
 3640TIP3    H132411   5.009   0.524  12.968
 3640TIP3    H232412   4.978   0.627  12.861
 3641TIP3   OH232413   4.346   0.423  12.676
 3641TIP3    H132414   4.348   0.509  12.635
 3641TIP3    H232415   4.296   0.369  12.615
 3642TIP3   OH232416   5.138   0.463  12.546
 3642TIP3    H132417   5.181   0.432  12.626
 3642TIP3    H232418   5.208   0.499  12.492
 3643TIP3   OH232419   3.991   0.676  12.766
 3643TIP3    H132420   4.056   0.636  12.823
 3643TIP3    H232421   4.010   0.641  12.679
 3644TIP3   OH232422   4.458   0.821  12.742
 3644TIP3    H132423   4.544   0.788  12.766
 3644TIP3    H232424   4.424   0.756  12.680
 3645TIP3   OH232425   5.604   0.496  13.264
 3645TIP3    H132426   5.531   0.554  13.246
 3645TIP3    H232427   5.617   0.503  13.359
 3646TIP3   OH232428   4.204   0.367  13.129
 3646TIP3    H132429   4.177   0.422  13.055
 3646TIP3    H232430   4.132   0.374  13.191
 3647TIP3   OH232431   4.931   1.287  12.434
 3647TIP3    H132432   4.912   1.280  12.341
 3647TIP3    H232433   4.885   1.366  12.463
 3648TIP3   OH232434   4.462   1.116  13.079
 3648TIP3    H132435   4.413   1.189  13.116
 3648TIP3    H232436   4.535   1.156  13.033
 3649TIP3   OH232437   5.234   0.385  12.789
 3649TIP3    H132438   5.160   0.369  12.847
 3649TIP3    H232439   5.288   0.449  12.837
 3650TIP3   OH232440   4.190   0.513  12.889
 3650TIP3    H132441   4.248   0.569  12.941
 3650TIP3    H232442   4.247   0.474  12.822
 3651TIP3   OH232443   4.317   1.320  13.196
 3651TIP3    H132444   4.325   1.415  13.188
 3651TIP3    H232445   4.226   1.307  13.223
 3652TIP3   OH232446   3.888   1.298  12.280
 3652TIP3    H132447   3.880   1.339  12.193
 3652TIP3    H232448   3.910   1.370  12.338
 3653TIP3   OH232449   5.255   1.456  12.961
 3653TIP3    H132450   5.160   1.461  12.973
 3653TIP3    H232451   5.280   1.545  12.936
 3654TIP3   OH232452   5.342   0.264  13.147
 3654TIP3    H132453   5.272   0.300  13.093
 3654TIP3    H232454   5.422   0.282  13.098
 3655TIP3   OH232455   4.558   0.115  12.855
 3655TIP3    H132456   4.546   0.023  12.877
 3655TIP3    H232457   4.481   0.159  12.893
 3656TIP3   OH232458   5.083   1.608  12.573
 3656TIP3    H132459   5.126   1.524  12.557
 3656TIP3    H232460   5.155   1.671  12.578
 3657TIP3   OH232461   5.189   1.364  12.518
 3657TIP3    H132462   5.110   1.320  12.486
 3657TIP3    H232463   5.212   1.317  12.598
 3658TIP3   OH232464   5.371   1.241  13.312
 3658TIP3    H132465   5.362   1.183  13.237
 3658TIP3    H232466   5.385   1.328  13.273
 3659TIP3   OH232467   4.815   0.938  12.314
 3659TIP3    H132468   4.745   0.997  12.289
 3659TIP3    H232469   4.881   0.948  12.246
 3660TIP3   OH232470   4.848   0.829  11.966
 3660TIP3    H132471   4.904   0.853  12.039
 3660TIP3    H232472   4.896   0.759  11.921
 3661TIP3   OH232473   5.530   0.899  13.155
 3661TIP3    H132474   5.457   0.960  13.145
 3661TIP3    H232475   5.592   0.923  13.086
 3662TIP3   OH232476   5.185   0.957  12.385
 3662TIP3    H132477   5.115   0.983  12.446
 3662TIP3    H232478   5.252   0.918  12.441
 3663TIP3   OH232479   5.142   0.762  13.346
 3663TIP3    H132480   5.141   0.837  13.406
 3663TIP3    H232481   5.078   0.785  13.278
 3664TIP3   OH232482   4.329   1.013  12.576
 3664TIP3    H132483   4.304   0.972  12.493
 3664TIP3    H232484   4.381   0.946  12.621
 3665TIP3   OH232485   4.484   1.364  12.847
 3665TIP3    H132486   4.485   1.376  12.752
 3665TIP3    H232487   4.561   1.311  12.865
 3666TIP3   OH232488   4.315   0.921  12.956
 3666TIP3    H132489   4.369   0.892  12.882
 3666TIP3    H232490   4.366   0.988  12.999
 3667TIP3   OH232491   4.989   1.475  13.022
 3667TIP3    H132492   4.976   1.545  13.086
 3667TIP3    H232493   4.949   1.398  13.062
 3668TIP3   OH232494   4.472   1.337  13.427
 3668TIP3    H132495   4.408   1.394  13.470
 3668TIP3    H232496   4.429   1.311  13.345
 3669TIP3   OH232497   5.049   0.896  12.151
 3669TIP3    H132498   5.102   0.932  12.222
 3669TIP3    H232499   5.102   0.910  12.072
 3670TIP3   OH232500   4.129   0.916  13.401
 3670TIP3    H132501   4.143   1.002  13.440
 3670TIP3    H232502   4.039   0.918  13.370
 3671TIP3   OH232503   4.829   1.539  12.491
 3671TIP3    H132504   4.912   1.568  12.528
 3671TIP3    H232505   4.793   1.616  12.447
 3672TIP3   OH232506   4.269   1.511  13.498
 3672TIP3    H132507   4.271   1.547  13.409
 3672TIP3    H232508   4.176   1.505  13.519
 3673TIP3   OH232509   5.407   0.105  12.124
 3673TIP3    H132510   5.402   0.010  12.123
 3673TIP3    H232511   5.477   0.126  12.062
 3674TIP3   OH232512   4.242   0.920  12.322
 3674TIP3    H132513   4.183   0.989  12.290
 3674TIP3    H232514   4.193   0.839  12.307
 3675TIP3   OH232515   5.556   1.480  12.018
 3675TIP3    H132516   5.566   1.575  12.016
 3675TIP3    H232517   5.646   1.446  12.014
 3676TIP3   OH232518   3.839   1.176  13.251
 3676TIP3    H132519   3.785   1.184  13.172
 3676TIP3    H232520   3.851   1.082  13.262
 3677TIP3   OH232521   3.823   1.452  12.929
 3677TIP3    H132522   3.914   1.446  12.958
 3677TIP3    H232523   3.788   1.526  12.977
 3678TIP3   OH232524   5.616   1.520  13.518
 3678TIP3    H132525   5.603   1.425  13.512
 3678TIP3    H232526   5.532   1.553  13.549
 3679TIP3   OH232527   4.708   1.470  13.381
 3679TIP3    H132528   4.702   1.554  13.427
 3679TIP3    H232529   4.624   1.427  13.398
 3680TIP3   OH232530   4.799   1.801  12.361
 3680TIP3    H132531   4.778   1.805  12.268
 3680TIP3    H232532   4.765   1.882  12.397
 3681TIP3   OH232533   4.137   1.705  12.550
 3681TIP3    H132534   4.154   1.671  12.638
 3681TIP3    H232535   4.082   1.638  12.509
 3682TIP3   OH232536   5.085   1.778  12.041
 3682TIP3    H132537   5.132   1.704  12.003
 3682TIP3    H232538   5.098   1.768  12.136
 3683TIP3   OH232539   5.068   1.757  12.318
 3683TIP3    H132540   4.975   1.766  12.338
 3683TIP3    H232541   5.100   1.697  12.386
 3684TIP3   OH232542   5.313   0.646  13.553
 3684TIP3    H132543   5.254   0.677  13.484
 3684TIP3    H232544   5.327   0.553  13.533
 3685TIP3   OH232545   4.064   1.326  13.308
 3685TIP3    H132546   4.089   1.288  13.393
 3685TIP3    H232547   3.984   1.279  13.283
 3686TIP3   OH232548   4.313   0.175  12.966
 3686TIP3    H132549   4.229   0.150  12.926
 3686TIP3    H232550   4.289   0.239  13.033
 3687TIP3   OH232551   4.777   0.144  13.356
 3687TIP3    H132552   4.773   0.129  13.450
 3687TIP3    H232553   4.686   0.138  13.326
 3688TIP3   OH232554   5.081   0.490  13.360
 3688TIP3    H132555   5.014   0.477  13.426
 3688TIP3    H232556   5.090   0.585  13.352
 3689TIP3   OH232557   5.185   0.895  11.908
 3689TIP3    H132558   5.169   0.928  11.820
 3689TIP3    H232559   5.273   0.924  11.929
 3690TIP3   OH232560   4.790   0.329  12.050
 3690TIP3    H132561   4.718   0.321  12.113
 3690TIP3    H232562   4.758   0.285  11.971
 3691TIP3   OH232563   4.332   0.667  13.071
 3691TIP3    H132564   4.265   0.665  13.140
 3691TIP3    H232565   4.331   0.758  13.041
 3692TIP3   OH232566   4.325   0.666  12.552
 3692TIP3    H132567   4.230   0.655  12.548
 3692TIP3    H232568   4.355   0.651  12.463
 3693TIP3   OH232569   4.874   0.693  12.424
 3693TIP3    H132570   4.847   0.780  12.393
 3693TIP3    H232571   4.947   0.669  12.366
 3694TIP3   OH232572   4.794   0.714  13.551
 3694TIP3    H132573   4.739   0.645  13.589
 3694TIP3    H232574   4.879   0.703  13.592
 3695TIP3   OH232575   4.965   0.637  12.684
 3695TIP3    H132576   4.921   0.683  12.612
 3695TIP3    H232577   5.016   0.569  12.640
 3696TIP3   OH232578   4.116   0.668  13.244
 3696TIP3    H132579   4.113   0.725  13.321
 3696TIP3    H232580   4.072   0.588  13.271
 3697TIP3   OH232581   4.433   0.365  11.899
 3697TIP3    H132582   4.410   0.359  11.991
 3697TIP3    H232583   4.376   0.434  11.864
 3698TIP3   OH232584   3.771   0.338  12.654
 3698TIP3    H132585   3.832   0.356  12.726
 3698TIP3    H232586   3.782   0.413  12.595
 3699TIP3   OH232587   3.813   0.438  12.139
 3699TIP3    H132588   3.885   0.479  12.091
 3699TIP3    H232589   3.752   0.509  12.156
 3700TIP3   OH232590   4.930   0.783  13.159
 3700TIP3    H132591   4.961   0.728  13.088
 3700TIP3    H232592   4.864   0.730  13.204
 3701TIP3   OH232593   4.627   0.408  12.643
 3701TIP3    H132594   4.536   0.404  12.673
 3701TIP3    H232595   4.678   0.377  12.718
 3702TIP3   OH232596   4.066   0.575  12.522
 3702TIP3    H132597   3.990   0.600  12.470
 3702TIP3    H232598   4.087   0.486  12.492
 3703TIP3   OH232599   4.397   0.591  12.299
 3703TIP3    H132600   4.491   0.583  12.316
 3703TIP3    H232601   4.391   0.628  12.211
 3704TIP3   OH232602   5.018   0.344  12.952
 3704TIP3    H132603   5.000   0.319  13.043
 3704TIP3    H232604   4.940   0.317  12.904
 3705TIP3   OH232605   4.374   0.668  12.039
 3705TIP3    H132606   4.323   0.641  11.963
 3705TIP3    H232607   4.445   0.721  12.004
 3706TIP3   OH232608   5.374   1.896  13.615
 3706TIP3    H132609   5.398   1.930  13.529
 3706TIP3    H232610   5.450   1.917  13.670
 3707TIP3   OH232611   4.132   1.161  13.541
 3707TIP3    H132612   4.199   1.157  13.610
 3707TIP3    H232613   4.050   1.175  13.588
 3708TIP3   OH232614   4.698   0.712  12.841
 3708TIP3    H132615   4.766   0.659  12.797
 3708TIP3    H232616   4.670   0.658  12.915
 3709TIP3   OH232617   4.181   0.315  12.470
 3709TIP3    H132618   4.146   0.231  12.497
 3709TIP3    H232619   4.208   0.301  12.379
 3710TIP3   OH232620   4.596   0.577  13.068
 3710TIP3    H132621   4.511   0.621  13.077
 3710TIP3    H232622   4.645   0.604  13.146
 3711TIP3   OH232623   4.617   1.118  12.242
 3711TIP3    H132624   4.545   1.089  12.186
 3711TIP3    H232625   4.575   1.152  12.321
 3712TIP3   OH232626   5.342   1.088  13.085
 3712TIP3    H132627   5.405   1.141  13.036
 3712TIP3    H232628   5.270   1.073  13.023
 3713TIP3   OH232629   5.041   0.392  12.125
 3713TIP3    H132630   4.951   0.376  12.099
 3713TIP3    H232631   5.043   0.484  12.151
 3714TIP3   OH232632   4.782   1.178  13.388
 3714TIP3    H132633   4.812   1.141  13.471
 3714TIP3    H232634   4.755   1.267  13.409
 3715TIP3   OH232635   5.086   0.635  12.247
 3715TIP3    H132636   5.173   0.630  12.286
 3715TIP3    H232637   5.082   0.723  12.209
 3716TIP3   OH232638   4.150   1.074  12.778
 3716TIP3    H132639   4.207   1.065  12.702
 3716TIP3    H232640   4.193   1.022  12.846
 3717TIP3   OH232641   4.829   1.274  12.170
 3717TIP3    H132642   4.797   1.364  12.174
 3717TIP3    H232643   4.753   1.221  12.193
 3718TIP3   OH232644   3.855   0.905  13.335
 3718TIP3    H132645   3.824   0.862  13.415
 3718TIP3    H232646   3.788   0.886  13.270
 3719TIP3   OH232647   4.582   0.900  13.572
 3719TIP3    H132648   4.516   0.861  13.515
 3719TIP3    H232649   4.662   0.851  13.552
 3720TIP3   OH232650   4.988   1.455  13.382
 3720TIP3    H132651   4.896   1.460  13.359
 3720TIP3    H232652   4.990   1.466  13.477
 3721TIP3   OH232653   5.525   0.674  12.196
 3721TIP3    H132654   5.476   0.657  12.115
 3721TIP3    H232655   5.556   0.764  12.186
 3722TIP3   OH232656   5.588   1.242  13.477
 3722TIP3    H132657   5.500   1.250  13.439
 3722TIP3    H232658   5.645   1.229  13.401
 3723TIP3   OH232659   5.410   1.517  12.260
 3723TIP3    H132660   5.360   1.442  12.291
 3723TIP3    H232661   5.450   1.488  12.178
 3724TIP3   OH232662   5.132   1.024  12.905
 3724TIP3    H132663   5.036   1.014  12.905
 3724TIP3    H232664   5.164   0.946  12.859
 3725TIP3   OH232665   4.412   1.445  12.587
 3725TIP3    H132666   4.436   1.529  12.548
 3725TIP3    H232667   4.317   1.449  12.597
 3726TIP3   OH232668   3.969   0.892  12.050
 3726TIP3    H132669   4.012   0.962  12.099
 3726TIP3    H232670   3.877   0.899  12.075
 3727TIP3   OH232671   4.475   1.215  12.449
 3727TIP3    H132672   4.466   1.297  12.498
 3727TIP3    H232673   4.424   1.151  12.500
 3728TIP3   OH232674   4.603   1.612  13.156
 3728TIP3    H132675   4.659   1.687  13.135
 3728TIP3    H232676   4.657   1.558  13.214
 3729TIP3   OH232677   4.403   1.701  12.476
 3729TIP3    H132678   4.311   1.719  12.493
 3729TIP3    H232679   4.449   1.778  12.511
 3730TIP3   OH232680   4.893   1.234  13.139
 3730TIP3    H132681   4.852   1.214  13.223
 3730TIP3    H232682   4.971   1.179  13.136
 3731TIP3   OH232683   5.191   1.328  12.034
 3731TIP3    H132684   5.214   1.275  12.111
 3731TIP3    H232685   5.104   1.298  12.010
 3732TIP3   OH232686   5.196   1.643  13.347
 3732TIP3    H132687   5.115   1.592  13.339
 3732TIP3    H232688   5.186   1.714  13.283
 3733TIP3   OH232689   5.588   1.754  12.031
 3733TIP3    H132690   5.620   1.817  11.967
 3733TIP3    H232691   5.518   1.799  12.076
 3734TIP3   OH232692   3.995   0.413  13.300
 3734TIP3    H132693   3.902   0.433  13.286
 3734TIP3    H232694   3.995   0.342  13.364
 3735TIP3   OH232695   5.290   1.167  12.233
 3735TIP3    H132696   5.249   1.105  12.293
 3735TIP3    H232697   5.384   1.162  12.255
 3736TIP3   OH232698   3.996   1.602  13.153
 3736TIP3    H132699   4.021   1.525  13.204
 3736TIP3    H232700   4.013   1.676  13.210
 3737TIP3   OH232701   4.558   1.416  11.893
 3737TIP3    H132702   4.562   1.331  11.849
 3737TIP3    H232703   4.519   1.396  11.979
 3738TIP3   OH232704   4.428   1.390  12.140
 3738TIP3    H132705   4.461   1.342  12.215
 3738TIP3    H232706   4.438   1.482  12.163
 3739TIP3   OH232707   4.072   1.104  12.201
 3739TIP3    H132708   4.004   1.155  12.245
 3739TIP3    H232709   4.120   1.168  12.148
 3740TIP3   OH232710   4.961   0.288  13.209
 3740TIP3    H132711   4.998   0.353  13.269
 3740TIP3    H232712   4.897   0.241  13.262
 3741TIP3   OH232713   4.971   0.308  12.392
 3741TIP3    H132714   4.977   0.347  12.305
 3741TIP3    H232715   5.020   0.368  12.448
 3742TIP3   OH232716   4.727   1.525  12.179
 3742TIP3    H132717   4.640   1.559  12.201
 3742TIP3    H232718   4.776   1.602  12.152
 3743TIP3   OH232719   4.651   0.532  12.398
 3743TIP3    H132720   4.727   0.591  12.403
 3743TIP3    H232721   4.641   0.499  12.487
 3744TIP3   OH232722   4.760   0.610  13.296
 3744TIP3    H132723   4.764   0.655  13.380
 3744TIP3    H232724   4.784   0.519  13.316
 3745TIP3   OH232725   4.732   0.208  12.480
 3745TIP3    H132726   4.705   0.280  12.536
 3745TIP3    H232727   4.821   0.229  12.454
 3746TIP3   OH232728   4.482   1.646  12.219
 3746TIP3    H132729   4.491   1.731  12.176
 3746TIP3    H232730   4.454   1.668  12.308
 3747TIP3   OH232731   4.340   0.346  12.168
 3747TIP3    H132732   4.332   0.433  12.208
 3747TIP3    H232733   4.426   0.314  12.198
 3748TIP3   OH232734   5.336   0.401  13.404
 3748TIP3    H132735   5.243   0.420  13.390
 3748TIP3    H232736   5.366   0.365  13.320
 3749TIP3   OH232737   5.210   0.775  12.787
 3749TIP3    H132738   5.123   0.737  12.770
 3749TIP3    H232739   5.252   0.713  12.846
 3750TIP3   OH232740   4.182   1.306  12.042
 3750TIP3    H132741   4.257   1.351  12.080
 3750TIP3    H232742   4.219   1.254  11.971
 3751TIP3   OH232743   3.962   0.619  11.996
 3751TIP3    H132744   3.975   0.710  12.021
 3751TIP3    H232745   3.934   0.623  11.904
 3752TIP3   OH232746   5.341   1.721  12.945
 3752TIP3    H132747   5.328   1.795  12.886
 3752TIP3    H232748   5.436   1.717  12.959
 3753TIP3   OH232749   4.043   0.103  12.912
 3753TIP3    H132750   4.078   0.024  12.872
 3753TIP3    H232751   3.994   0.072  12.988
 3754TIP3   OH232752   3.945   1.533  12.430
 3754TIP3    H132753   3.888   1.558  12.503
 3754TIP3    H232754   3.926   1.598  12.362
 3755TIP3   OH232755   3.926   1.799  13.615
 3755TIP3    H132756   3.992   1.776  13.681
 3755TIP3    H232757   3.897   1.714  13.581
 3756TIP3   OH232758   4.342   1.606  13.746
 3756TIP3    H132759   4.422   1.560  13.769
 3756TIP3    H232760   4.321   1.576  13.658
 3757TIP3   OH232761   4.758   1.604  11.867
 3757TIP3    H132762   4.692   1.537  11.884
 3757TIP3    H232763   4.835   1.555  11.837
 3758TIP3   OH232764   4.986   1.482  13.656
 3758TIP3    H132765   4.977   1.399  13.702
 3758TIP3    H232766   5.061   1.525  13.697
 3759TIP3   OH232767   5.207   1.572  11.909
 3759TIP3    H132768   5.219   1.492  11.961
 3759TIP3    H232769   5.280   1.572  11.847
 3760TIP3   OH232770   3.886   1.175  13.674
 3760TIP3    H132771   3.885   1.079  13.670
 3760TIP3    H232772   3.815   1.203  13.617
 3761TIP3   OH232773   4.311   1.132  11.875
 3761TIP3    H132774   4.334   1.084  11.955
 3761TIP3    H232775   4.395   1.148  11.832
 3762TIP3   OH232776   4.552   1.174  13.634
 3762TIP3    H132777   4.534   1.218  13.551
 3762TIP3    H232778   4.578   1.085  13.610
 3763TIP3   OH232779   4.945   1.258  11.921
 3763TIP3    H132780   4.896   1.257  12.003
 3763TIP3    H232781   4.912   1.183  11.872
 3764TIP3   OH232782   5.110   1.200  13.390
 3764TIP3    H132783   5.201   1.221  13.369
 3764TIP3    H232784   5.064   1.284  13.382
 3765TIP3   OH232785   3.956   0.905  13.658
 3765TIP3    H132786   4.041   0.885  13.620
 3765TIP3    H232787   3.969   0.897  13.752
 3766TIP3   OH232788   4.407   1.003  12.103
 3766TIP3    H132789   4.360   0.960  12.175
 3766TIP3    H232790   4.457   0.933  12.061
 3767TIP3   OH232791   4.389   0.792  13.392
 3767TIP3    H132792   4.307   0.840  13.389
 3767TIP3    H232793   4.443   0.831  13.323
 3768TIP3   OH232794   4.570   0.837  11.950
 3768TIP3    H132795   4.564   0.864  11.858
 3768TIP3    H232796   4.664   0.830  11.967
 3769TIP3   OH232797   4.890   1.031  13.656
 3769TIP3    H132798   4.970   0.999  13.614
 3769TIP3    H232799   4.863   0.960  13.715
 3770TIP3   OH232800   5.437   1.009  11.909
 3770TIP3    H132801   5.448   0.989  11.816
 3770TIP3    H232802   5.435   1.105  11.913
 3771TIP3   OH232803   4.425   0.528  13.459
 3771TIP3    H132804   4.436   0.473  13.381
 3771TIP3    H232805   4.415   0.616  13.424
 3772TIP3   OH232806   4.460   0.374  13.225
 3772TIP3    H132807   4.512   0.421  13.160
 3772TIP3    H232808   4.370   0.377  13.190
 3773TIP3   OH232809   4.568   0.906  13.221
 3773TIP3    H132810   4.657   0.932  13.243
 3773TIP3    H232811   4.533   0.979  13.171
 3774TIP3   OH232812   5.028   0.648  13.702
 3774TIP3    H132813   5.044   0.554  13.711
 3774TIP3    H232814   5.115   0.688  13.706
 3775TIP3   OH232815   5.158   0.974  13.532
 3775TIP3    H132816   5.131   1.053  13.486
 3775TIP3    H232817   5.254   0.976  13.529
 3776TIP3   OH232818   4.278   0.571  13.688
 3776TIP3    H132819   4.187   0.543  13.672
 3776TIP3    H232820   4.319   0.569  13.601
 3777TIP3   OH232821   4.500   0.105  13.293
 3777TIP3    H132822   4.483   0.197  13.271
 3777TIP3    H232823   4.422   0.059  13.263
 3778TIP3   OH232824   4.641   0.502  13.629
 3778TIP3    H132825   4.617   0.453  13.707
 3778TIP3    H232826   4.561   0.504  13.576
 3779TIP3   OH232827   4.885   0.417  13.530
 3779TIP3    H132828   4.798   0.432  13.567
 3779TIP3    H232829   4.937   0.386  13.603
 3780TIP3   OH232830   5.070   0.363  13.738
 3780TIP3    H132831   5.075   0.270  13.715
 3780TIP3    H232832   5.053   0.363  13.832
 3781TIP3   OH232833   4.038   0.439  13.654
 3781TIP3    H132834   4.037   0.361  13.598
 3781TIP3    H232835   4.048   0.405  13.742
 3782TIP3   OH232836   4.591  -0.003  13.532
 3782TIP3    H132837   4.521  -0.030  13.591
 3782TIP3    H232838   4.546   0.035  13.457
 3783TIP3   OH232839   4.648   0.207  13.723
 3783TIP3    H132840   4.643   0.123  13.679
 3783TIP3    H232841   4.557   0.237  13.730
 3784TIP3   OH232842   4.561   1.884  12.101
 3784TIP3    H132843   4.650   1.852  12.090
 3784TIP3    H232844   4.549   1.948  12.031
 3785TIP3   OH232845   3.920   1.364  11.990
 3785TIP3    H132846   4.012   1.353  12.013
 3785TIP3    H232847   3.902   1.292  11.930
 3786TIP3   OH232848   3.773   1.836  12.532
 3786TIP3    H132849   3.724   1.801  12.457
 3786TIP3    H232850   3.793   1.760  12.585
 3787TIP3   OH232851   3.844   1.623  12.692
 3787TIP3    H132852   3.810   1.545  12.736
 3787TIP3    H232853   3.891   1.671  12.761
 3788TIP3   OH232854   5.608   1.716  13.018
 3788TIP3    H132855   5.607   1.725  13.113
 3788TIP3    H232856   5.686   1.764  12.990
 3789TIP3   OH232857   5.548   1.698  13.296
 3789TIP3    H132858   5.495   1.627  13.259
 3789TIP3    H232859   5.596   1.656  13.368
 3790TIP3   OH232860   5.419   1.282  13.777
 3790TIP3    H132861   5.333   1.295  13.818
 3790TIP3    H232862   5.473   1.353  13.811
 3791TIP3   OH232863   5.557   1.121  12.309
 3791TIP3    H132864   5.627   1.187  12.309
 3791TIP3    H232865   5.580   1.063  12.381
 3792TIP3   OH232866   5.612   0.919  12.497
 3792TIP3    H132867   5.526   0.897  12.532
 3792TIP3    H232868   5.665   0.939  12.575
 3793TIP3   OH232869   5.580   1.214  13.012
 3793TIP3    H132870   5.632   1.146  12.968
 3793TIP3    H232871   5.610   1.296  12.973
 3794TIP3   OH232872   5.383   1.494  13.206
 3794TIP3    H132873   5.311   1.539  13.250
 3794TIP3    H232874   5.350   1.478  13.118
 3795TIP3   OH232875   5.596   0.928  12.119
 3795TIP3    H132876   5.541   0.951  12.043
 3795TIP3    H232877   5.581   0.998  12.182
 3796TIP3   OH232878   5.389   0.626  11.963
 3796TIP3    H132879   5.385   0.652  11.871
 3796TIP3    H232880   5.359   0.535  11.963
 3797TIP3   OH232881   5.356   0.813  12.555
 3797TIP3    H132882   5.358   0.721  12.528
 3797TIP3    H232883   5.311   0.813  12.639
 3798TIP3   OH232884   3.827   0.977  12.960
 3798TIP3    H132885   3.838   0.967  12.866
 3798TIP3    H232886   3.910   0.948  12.998
 3799TIP3   OH232887   5.436   0.982  13.517
 3799TIP3    H132888   5.491   0.906  13.499
 3799TIP3    H232889   5.485   1.057  13.484
 3800TIP3   OH232890   5.567   0.740  13.497
 3800TIP3    H132891   5.479   0.710  13.520
 3800TIP3    H232892   5.623   0.665  13.517
 3801TIP3   OH232893   5.322   0.355  11.968
 3801TIP3    H132894   5.414   0.331  11.961
 3801TIP3    H232895   5.287   0.342  11.880
 3802TIP3   OH232896   5.341   0.549  12.371
 3802TIP3    H132897   5.372   0.458  12.369
 3802TIP3    H232898   5.406   0.597  12.320
 3803TIP3   OH232899   5.362   0.584  12.936
 3803TIP3    H132900   5.452   0.604  12.913
 3803TIP3    H232901   5.356   0.603  13.030
 3804TIP3   OH232902   5.384   0.669  13.203
 3804TIP3    H132903   5.306   0.699  13.249
 3804TIP3    H232904   5.438   0.748  13.192
 3805TIP3   OH232905   3.801   0.506  13.534
 3805TIP3    H132906   3.886   0.493  13.576
 3805TIP3    H232907   3.755   0.423  13.547
 3806TIP3   OH232908   5.611   0.035  13.731
 3806TIP3    H132909   5.632  -0.037  13.672
 3806TIP3    H232910   5.599   0.111  13.674
 3807TIP3   OH232911   5.381   0.265  12.358
 3807TIP3    H132912   5.396   0.232  12.447
 3807TIP3    H232913   5.435   0.209  12.302
 3808TIP3   OH232914   3.956   0.360  12.855
 3808TIP3    H132915   3.988   0.273  12.878
 3808TIP3    H232916   4.031   0.418  12.866
 3809TIP3   OH232917   3.757   0.632  12.920
 3809TIP3    H132918   3.828   0.642  12.857
 3809TIP3    H232919   3.778   0.694  12.990
 3810TIP3   OH232920   5.542   0.239  13.553
 3810TIP3    H132921   5.467   0.295  13.575
 3810TIP3    H232922   5.522   0.204  13.467
 3811TIP3   OH232923   5.584   0.293  11.990
 3811TIP3    H132924   5.647   0.221  11.980
 3811TIP3    H232925   5.630   0.358  12.043
 3812TIP3   OH232926   3.768   0.240  12.322
 3812TIP3    H132927   3.678   0.253  12.351
 3812TIP3    H232928   3.788   0.317  12.269
 3813TIP3   OH232929   5.271   1.799  12.561
 3813TIP3    H132930   5.343   1.790  12.497
 3813TIP3    H232931   5.309   1.849  12.633
 3814TIP3   OH232932   3.834   0.088  13.129
 3814TIP3    H132933   3.770   0.076  13.200
 3814TIP3    H232934   3.807   0.170  13.086
 3815TIP3   OH232935   4.008   1.499  13.597
 3815TIP3    H132936   3.919   1.503  13.561
 3815TIP3    H232937   3.997   1.469  13.687
 3816TIP3   OH232938   4.341   1.595  13.235
 3816TIP3    H132939   4.312   1.684  13.212
 3816TIP3    H232940   4.434   1.594  13.216
 3817TIP3   OH232941   4.706   1.715  13.512
 3817TIP3    H132942   4.717   1.684  13.602
 3817TIP3    H232943   4.786   1.765  13.494
 3818TIP3   OH232944   4.945   1.852  13.478
 3818TIP3    H132945   5.010   1.800  13.431
 3818TIP3    H232946   4.991   1.886  13.554
 3819TIP3   OH232947   5.479   0.099  13.320
 3819TIP3    H132948   5.423   0.149  13.261
 3819TIP3    H232949   5.455   0.008  13.303
 3820TIP3   OH232950   4.038   1.870  13.260
 3820TIP3    H132951   3.960   1.911  13.222
 3820TIP3    H232952   4.052   1.917  13.342
 3821TIP3   OH232953   4.297   1.859  13.167
 3821TIP3    H132954   4.206   1.867  13.194
 3821TIP3    H232955   4.302   1.902  13.082
 3822TIP3   OH232956   4.742   1.837  13.075
 3822TIP3    H132957   4.692   1.873  13.002
 3822TIP3    H232958   4.753   1.911  13.135
 3823TIP3   OH232959   4.968   1.710  13.164
 3823TIP3    H132960   4.891   1.753  13.129
 3823TIP3    H232961   5.040   1.771  13.147
 3824TIP3   OH232962   5.210   1.848  13.152
 3824TIP3    H132963   5.239   1.939  13.142
 3824TIP3    H232964   5.252   1.801  13.080
 3825TIP3   OH232965   3.993   1.737  12.912
 3825TIP3    H132966   3.993   1.695  12.998
 3825TIP3    H232967   4.072   1.703  12.869
 3826TIP3   OH232968   4.211   1.615  12.802
 3826TIP3    H132969   4.199   1.523  12.823
 3826TIP3    H232970   4.297   1.638  12.836
 3827TIP3   OH232971   4.470   1.639  12.911
 3827TIP3    H132972   4.481   1.549  12.879
 3827TIP3    H232973   4.507   1.637  12.999
 3828TIP3   OH232974   4.793   0.261  12.811
 3828TIP3    H132975   4.722   0.202  12.838
 3828TIP3    H232976   4.851   0.205  12.759
 3829TIP3   OH232977   5.283   0.030  12.764
 3829TIP3    H132978   5.359   0.056  12.712
 3829TIP3    H232979   5.256   0.110  12.810
 3830TIP3   OH232980   5.495   0.144  12.611
 3830TIP3    H132981   5.558   0.077  12.640
 3830TIP3    H232982   5.544   0.226  12.615
 3831TIP3   OH232983   4.099   0.058  12.564
 3831TIP3    H132984   4.006   0.061  12.584
 3831TIP3    H232985   4.138   0.014  12.639
 3832TIP3   OH232986   3.955   0.129  12.120
 3832TIP3    H132987   4.008   0.184  12.062
 3832TIP3    H232988   3.900   0.190  12.169
 3833TIP3   OH232989   4.507   0.091  12.584
 3833TIP3    H132990   4.587   0.123  12.543
 3833TIP3    H232991   4.522   0.103  12.678
 3834TIP3   OH232992   4.988   0.133  12.664
 3834TIP3    H132993   5.044   0.195  12.618
 3834TIP3    H232994   5.031   0.048  12.654
 3835TIP3   OH232995   5.093   0.093  12.239
 3835TIP3    H132996   5.022   0.120  12.297
 3835TIP3    H232997   5.077  -0.000  12.224
 3836TIP3   OH232998   3.902   1.718  12.230
 3836TIP3    H132999   3.831   1.713  12.165
 3836TIP3    H233000   3.932   1.808  12.225
 3837TIP3   OH233001   4.129   0.295  11.988
 3837TIP3    H133002   4.169   0.235  11.926
 3837TIP3    H233003   4.197   0.313  12.052
 3838TIP3   OH233004   4.599   0.304  12.253
 3838TIP3    H133005   4.635   0.241  12.315
 3838TIP3    H233006   4.616   0.389  12.294
 3839TIP3   OH233007   4.811   1.774  12.074
 3839TIP3    H133008   4.905   1.793  12.064
 3839TIP3    H233009   4.788   1.725  11.995
 3840TIP3   OH233010   5.468   1.761  12.369
 3840TIP3    H133011   5.452   1.673  12.337
 3840TIP3    H233012   5.455   1.817  12.292
 3841TIP3   OH233013   4.020   0.207  13.506
 3841TIP3    H133014   3.949   0.147  13.530
 3841TIP3    H233015   4.097   0.171  13.549
 3842TIP3   OH233016   4.245   0.153  13.669
 3842TIP3    H133017   4.314   0.217  13.683
 3842TIP3    H233018   4.286   0.068  13.687
 3843TIP3   OH233019   4.114   1.744  11.923
 3843TIP3    H133020   4.092   1.738  12.015
 3843TIP3    H233021   4.190   1.687  11.913
 3844TIP3   OH233022   5.093   0.097  13.677
 3844TIP3    H133023   5.145   0.052  13.744
 3844TIP3    H233024   5.048   0.027  13.631
 3845TIP3   OH233025   5.365   1.624  13.569
 3845TIP3    H133026   5.307   1.620  13.493
 3845TIP3    H233027   5.367   1.717  13.592
 3846TIP3   OH233028   6.843   1.038  12.528
 3846TIP3    H133029   6.825   1.132  12.525
 3846TIP3    H233030   6.780   1.000  12.467
 3847TIP3   OH233031   6.710   0.946  12.928
 3847TIP3    H133032   6.741   0.905  13.009
 3847TIP3    H233033   6.666   0.876  12.881
 3848TIP3   OH233034   5.942   0.866  13.057
 3848TIP3    H133035   5.954   0.796  13.122
 3848TIP3    H233036   6.032   0.891  13.033
 3849TIP3   OH233037   7.099   1.267  12.764
 3849TIP3    H133038   7.064   1.187  12.803
 3849TIP3    H233039   7.120   1.323  12.839
 3850TIP3   OH233040   6.086   1.347  12.854
 3850TIP3    H133041   6.055   1.259  12.833
 3850TIP3    H233042   6.180   1.337  12.868
 3851TIP3   OH233043   5.701   0.659  12.428
 3851TIP3    H133044   5.689   0.749  12.458
 3851TIP3    H233045   5.654   0.654  12.345
 3852TIP3   OH233046   5.796   0.941  12.705
 3852TIP3    H133047   5.827   0.852  12.720
 3852TIP3    H233048   5.874   0.996  12.717
 3853TIP3   OH233049   6.834   1.689  12.814
 3853TIP3    H133050   6.852   1.635  12.737
 3853TIP3    H233051   6.830   1.626  12.886
 3854TIP3   OH233052   6.567   1.190  12.946
 3854TIP3    H133053   6.607   1.108  12.915
 3854TIP3    H233054   6.635   1.232  12.998
 3855TIP3   OH233055   6.890   0.608  12.956
 3855TIP3    H133056   6.913   0.517  12.973
 3855TIP3    H233057   6.862   0.609  12.864
 3856TIP3   OH233058   6.206   0.402  12.693
 3856TIP3    H133059   6.228   0.488  12.657
 3856TIP3    H233060   6.163   0.356  12.621
 3857TIP3   OH233061   6.974   0.463  12.531
 3857TIP3    H133062   7.021   0.409  12.595
 3857TIP3    H233063   7.042   0.495  12.472
 3858TIP3   OH233064   5.864   0.677  12.759
 3858TIP3    H133065   5.925   0.639  12.821
 3858TIP3    H233066   5.890   0.642  12.674
 3859TIP3   OH233067   6.341   0.817  12.741
 3859TIP3    H133068   6.429   0.787  12.764
 3859TIP3    H233069   6.307   0.749  12.683
 3860TIP3   OH233070   6.081   0.354  13.120
 3860TIP3    H133071   6.051   0.414  13.051
 3860TIP3    H233072   6.015   0.361  13.188
 3861TIP3   OH233073   6.771   1.291  12.445
 3861TIP3    H133074   6.774   1.290  12.350
 3861TIP3    H233075   6.722   1.370  12.468
 3862TIP3   OH233076   6.350   1.105  13.096
 3862TIP3    H133077   6.301   1.181  13.128
 3862TIP3    H233078   6.422   1.143  13.046
 3863TIP3   OH233079   7.097   0.325  12.734
 3863TIP3    H133080   7.130   0.238  12.757
 3863TIP3    H233081   7.142   0.384  12.795
 3864TIP3   OH233082   6.045   0.510  12.891
 3864TIP3    H133083   6.105   0.567  12.940
 3864TIP3    H233084   6.099   0.471  12.823
 3865TIP3   OH233085   6.204   1.319  13.198
 3865TIP3    H133086   6.215   1.413  13.185
 3865TIP3    H233087   6.113   1.309  13.224
 3866TIP3   OH233088   5.774   1.296  12.281
 3866TIP3    H133089   5.772   1.335  12.194
 3866TIP3    H233090   5.797   1.369  12.339
 3867TIP3   OH233091   7.119   1.460  12.976
 3867TIP3    H133092   7.024   1.470  12.982
 3867TIP3    H233093   7.151   1.547  12.953
 3868TIP3   OH233094   7.172   0.291  13.097
 3868TIP3    H133095   7.080   0.288  13.070
 3868TIP3    H233096   7.213   0.351  13.036
 3869TIP3   OH233097   6.453   0.094  12.855
 3869TIP3    H133098   6.433   0.001  12.864
 3869TIP3    H233099   6.381   0.139  12.899
 3870TIP3   OH233100   6.924   1.577  12.574
 3870TIP3    H133101   6.965   1.492  12.554
 3870TIP3    H233102   6.998   1.636  12.590
 3871TIP3   OH233103   7.105   1.380  12.510
 3871TIP3    H133104   7.109   1.308  12.447
 3871TIP3    H233105   7.109   1.337  12.596
 3872TIP3   OH233106   7.226   1.182  13.335
 3872TIP3    H133107   7.216   1.132  13.254
 3872TIP3    H233108   7.260   1.267  13.308
 3873TIP3   OH233109   6.706   0.944  12.304
 3873TIP3    H133110   6.638   1.006  12.277
 3873TIP3    H233111   6.773   0.951  12.236
 3874TIP3   OH233112   6.748   0.801  11.971
 3874TIP3    H133113   6.806   0.832  12.041
 3874TIP3    H233114   6.800   0.738  11.923
 3875TIP3   OH233115   7.067   0.977  12.382
 3875TIP3    H133116   6.996   1.002  12.442
 3875TIP3    H233117   7.119   0.914  12.431
 3876TIP3   OH233118   6.997   0.764  13.336
 3876TIP3    H133119   6.983   0.833  13.401
 3876TIP3    H233120   6.935   0.784  13.266
 3877TIP3   OH233121   6.217   1.012  12.577
 3877TIP3    H133122   6.196   0.972  12.492
 3877TIP3    H233123   6.271   0.946  12.621
 3878TIP3   OH233124   6.366   1.363  12.845
 3878TIP3    H133125   6.372   1.374  12.751
 3878TIP3    H233126   6.441   1.307  12.868
 3879TIP3   OH233127   6.201   0.922  12.956
 3879TIP3    H133128   6.256   0.896  12.882
 3879TIP3    H233129   6.254   0.985  13.004
 3880TIP3   OH233130   6.849   1.497  13.019
 3880TIP3    H133131   6.845   1.555  13.095
 3880TIP3    H233132   6.818   1.413  13.051
 3881TIP3   OH233133   6.357   1.341  13.430
 3881TIP3    H133134   6.292   1.398  13.471
 3881TIP3    H233135   6.315   1.313  13.348
 3882TIP3   OH233136   6.943   0.908  12.146
 3882TIP3    H133137   6.990   0.941  12.223
 3882TIP3    H233138   6.994   0.941  12.071
 3883TIP3   OH233139   6.015   0.938  13.413
 3883TIP3    H133140   6.023   1.027  13.446
 3883TIP3    H233141   5.927   0.934  13.374
 3884TIP3   OH233142   6.663   1.545  12.496
 3884TIP3    H133143   6.750   1.558  12.534
 3884TIP3    H233144   6.646   1.625  12.446
 3885TIP3   OH233145   6.152   1.517  13.493
 3885TIP3    H133146   6.161   1.550  13.403
 3885TIP3    H233147   6.057   1.516  13.508
 3886TIP3   OH233148   7.188   0.035  12.092
 3886TIP3    H133149   7.220  -0.046  12.132
 3886TIP3    H233150   7.268   0.083  12.068
 3887TIP3   OH233151   6.138   0.921  12.320
 3887TIP3    H133152   6.077   0.986  12.286
 3887TIP3    H233153   6.100   0.837  12.295
 3888TIP3   OH233154   5.728   1.183  13.251
 3888TIP3    H133155   5.675   1.189  13.171
 3888TIP3    H233156   5.739   1.089  13.265
 3889TIP3   OH233157   5.696   1.460  12.937
 3889TIP3    H133158   5.782   1.463  12.979
 3889TIP3    H233159   5.650   1.538  12.968
 3890TIP3   OH233160   6.592   1.474  13.377
 3890TIP3    H133161   6.588   1.557  13.425
 3890TIP3    H233162   6.509   1.430  13.399
 3891TIP3   OH233163   6.672   1.798  12.360
 3891TIP3    H133164   6.659   1.802  12.266
 3891TIP3    H233165   6.638   1.882  12.393
 3892TIP3   OH233166   6.021   1.707  12.551
 3892TIP3    H133167   6.042   1.672  12.637
 3892TIP3    H233168   5.967   1.639  12.510
 3893TIP3   OH233169   6.960   1.775  12.043
 3893TIP3    H133170   7.004   1.701  12.000
 3893TIP3    H233171   6.978   1.763  12.136
 3894TIP3   OH233172   6.941   1.739  12.323
 3894TIP3    H133173   6.848   1.746  12.344
 3894TIP3    H233174   6.975   1.676  12.386
 3895TIP3   OH233175   7.164   0.698  13.580
 3895TIP3    H133176   7.142   0.728  13.492
 3895TIP3    H233177   7.244   0.647  13.569
 3896TIP3   OH233178   5.950   1.337  13.308
 3896TIP3    H133179   5.975   1.300  13.393
 3896TIP3    H233180   5.871   1.288  13.283
 3897TIP3   OH233181   6.210   0.183  12.950
 3897TIP3    H133182   6.194   0.235  12.872
 3897TIP3    H233183   6.166   0.230  13.020
 3898TIP3   OH233184   6.682   0.124  13.327
 3898TIP3    H133185   6.704   0.124  13.420
 3898TIP3    H233186   6.587   0.128  13.324
 3899TIP3   OH233187   6.996   0.485  13.375
 3899TIP3    H133188   6.929   0.471  13.442
 3899TIP3    H233189   6.997   0.580  13.362
 3900TIP3   OH233190   7.081   0.990  11.923
 3900TIP3    H133191   7.030   0.965  11.846
 3900TIP3    H233192   7.160   1.031  11.887
 3901TIP3   OH233193   6.610   0.367  12.035
 3901TIP3    H133194   6.560   0.356  12.116
 3901TIP3    H233195   6.587   0.290  11.982
 3902TIP3   OH233196   6.211   0.663  13.051
 3902TIP3    H133197   6.152   0.662  13.127
 3902TIP3    H233198   6.213   0.754  13.023
 3903TIP3   OH233199   6.211   0.646  12.563
 3903TIP3    H133200   6.116   0.639  12.554
 3903TIP3    H233201   6.245   0.640  12.474
 3904TIP3   OH233202   6.746   0.701  12.424
 3904TIP3    H133203   6.726   0.788  12.388
 3904TIP3    H233204   6.819   0.670  12.371
 3905TIP3   OH233205   6.685   0.703  13.543
 3905TIP3    H133206   6.632   0.635  13.583
 3905TIP3    H233207   6.772   0.693  13.583
 3906TIP3   OH233208   6.829   0.637  12.686
 3906TIP3    H133209   6.792   0.689  12.615
 3906TIP3    H233210   6.874   0.565  12.642
 3907TIP3   OH233211   5.999   0.653  13.231
 3907TIP3    H133212   6.051   0.684  13.305
 3907TIP3    H233213   5.954   0.575  13.264
 3908TIP3   OH233214   6.311   0.395  11.912
 3908TIP3    H133215   6.289   0.395  12.005
 3908TIP3    H233216   6.253   0.462  11.874
 3909TIP3   OH233217   5.663   0.376  12.601
 3909TIP3    H133218   5.701   0.372  12.688
 3909TIP3    H233219   5.668   0.469  12.576
 3910TIP3   OH233220   5.708   0.469  12.161
 3910TIP3    H133221   5.778   0.509  12.109
 3910TIP3    H233222   5.644   0.540  12.173
 3911TIP3   OH233223   6.793   0.784  13.141
 3911TIP3    H133224   6.834   0.726  13.076
 3911TIP3    H233225   6.731   0.728  13.187
 3912TIP3   OH233226   6.503   0.424  12.658
 3912TIP3    H133227   6.416   0.400  12.691
 3912TIP3    H233228   6.564   0.388  12.722
 3913TIP3   OH233229   5.948   0.566  12.523
 3913TIP3    H133230   5.872   0.589  12.470
 3913TIP3    H233231   5.973   0.478  12.492
 3914TIP3   OH233232   6.272   0.601  12.296
 3914TIP3    H133233   6.365   0.593  12.319
 3914TIP3    H233234   6.272   0.639  12.208
 3915TIP3   OH233235   6.906   0.333  12.998
 3915TIP3    H133236   6.850   0.345  13.074
 3915TIP3    H233237   6.848   0.300  12.930
 3916TIP3   OH233238   6.254   0.683  12.035
 3916TIP3    H133239   6.203   0.661  11.958
 3916TIP3    H233240   6.332   0.727  12.000
 3917TIP3   OH233241   7.249   1.916  13.598
 3917TIP3    H133242   7.253   1.999  13.551
 3917TIP3    H233243   7.340   1.893  13.616
 3918TIP3   OH233244   6.012   1.184  13.545
 3918TIP3    H133245   6.080   1.173  13.611
 3918TIP3    H233246   5.931   1.191  13.596
 3919TIP3   OH233247   6.584   0.709  12.833
 3919TIP3    H133248   6.654   0.665  12.784
 3919TIP3    H233249   6.558   0.646  12.900
 3920TIP3   OH233250   6.059   0.308  12.470
 3920TIP3    H133251   6.022   0.222  12.493
 3920TIP3    H233252   6.103   0.293  12.386
 3921TIP3   OH233253   6.472   0.568  13.053
 3921TIP3    H133254   6.389   0.614  13.059
 3921TIP3    H233255   6.521   0.595  13.131
 3922TIP3   OH233256   6.508   1.127  12.232
 3922TIP3    H133257   6.437   1.095  12.176
 3922TIP3    H233258   6.465   1.155  12.312
 3923TIP3   OH233259   7.181   1.063  13.094
 3923TIP3    H133260   7.263   1.051  13.047
 3923TIP3    H233261   7.113   1.055  13.026
 3924TIP3   OH233262   6.869   0.415  12.112
 3924TIP3    H133263   6.777   0.416  12.083
 3924TIP3    H233264   6.884   0.503  12.146
 3925TIP3   OH233265   6.660   1.188  13.361
 3925TIP3    H133266   6.729   1.165  13.423
 3925TIP3    H233267   6.638   1.279  13.381
 3926TIP3   OH233268   6.954   0.644  12.247
 3926TIP3    H133269   7.041   0.619  12.276
 3926TIP3    H233270   6.966   0.730  12.207
 3927TIP3   OH233271   6.037   1.071  12.777
 3927TIP3    H133272   6.095   1.064  12.701
 3927TIP3    H233273   6.081   1.022  12.846
 3928TIP3   OH233274   6.724   1.280  12.167
 3928TIP3    H133275   6.689   1.369  12.169
 3928TIP3    H233276   6.649   1.224  12.187
 3929TIP3   OH233277   5.739   0.920  13.346
 3929TIP3    H133278   5.722   0.876  13.429
 3929TIP3    H233279   5.671   0.888  13.287
 3930TIP3   OH233280   6.492   0.904  13.557
 3930TIP3    H133281   6.464   0.915  13.467
 3930TIP3    H233282   6.569   0.847  13.552
 3931TIP3   OH233283   6.873   1.463  13.374
 3931TIP3    H133284   6.781   1.475  13.350
 3931TIP3    H233285   6.876   1.477  13.469
 3932TIP3   OH233286   7.264   1.517  12.304
 3932TIP3    H133287   7.202   1.472  12.362
 3932TIP3    H233288   7.236   1.492  12.216
 3933TIP3   OH233289   6.992   1.030  12.890
 3933TIP3    H133290   6.897   1.020  12.886
 3933TIP3    H233291   7.026   0.954  12.842
 3934TIP3   OH233292   6.308   1.443  12.584
 3934TIP3    H133293   6.341   1.525  12.547
 3934TIP3    H233294   6.213   1.453  12.584
 3935TIP3   OH233295   5.858   0.894  12.037
 3935TIP3    H133296   5.905   0.962  12.087
 3935TIP3    H233297   5.767   0.903  12.065
 3936TIP3   OH233298   6.360   1.213  12.441
 3936TIP3    H133299   6.359   1.294  12.492
 3936TIP3    H233300   6.312   1.150  12.495
 3937TIP3   OH233301   6.489   1.613  13.153
 3937TIP3    H133302   6.546   1.688  13.134
 3937TIP3    H233303   6.541   1.558  13.212
 3938TIP3   OH233304   6.287   1.703  12.474
 3938TIP3    H133305   6.194   1.718  12.491
 3938TIP3    H233306   6.331   1.780  12.510
 3939TIP3   OH233307   6.780   1.245  13.117
 3939TIP3    H133308   6.739   1.219  13.200
 3939TIP3    H233309   6.859   1.193  13.112
 3940TIP3   OH233310   7.062   1.333  12.064
 3940TIP3    H133311   7.084   1.289  12.146
 3940TIP3    H233312   6.974   1.302  12.043
 3941TIP3   OH233313   7.104   1.629  13.326
 3941TIP3    H133314   7.019   1.585  13.322
 3941TIP3    H233315   7.096   1.704  13.268
 3942TIP3   OH233316   5.884   0.405  13.304
 3942TIP3    H133317   5.790   0.420  13.296
 3942TIP3    H233318   5.892   0.335  13.369
 3943TIP3   OH233319   7.170   1.216  12.292
 3943TIP3    H133320   7.145   1.128  12.321
 3943TIP3    H233321   7.266   1.216  12.297
 3944TIP3   OH233322   5.886   1.597  13.152
 3944TIP3    H133323   5.915   1.521  13.203
 3944TIP3    H233324   5.903   1.672  13.210
 3945TIP3   OH233325   6.434   1.418  11.896
 3945TIP3    H133326   6.444   1.334  11.851
 3945TIP3    H233327   6.400   1.395  11.982
 3946TIP3   OH233328   6.312   1.388  12.146
 3946TIP3    H133329   6.353   1.340  12.218
 3946TIP3    H233330   6.324   1.480  12.169
 3947TIP3   OH233331   5.960   1.100  12.199
 3947TIP3    H133332   5.893   1.151  12.245
 3947TIP3    H233333   6.009   1.165  12.148
 3948TIP3   OH233334   6.773   0.371  13.233
 3948TIP3    H133335   6.850   0.392  13.286
 3948TIP3    H233336   6.744   0.285  13.265
 3949TIP3   OH233337   6.866   0.275  12.348
 3949TIP3    H133338   6.871   0.318  12.262
 3949TIP3    H233339   6.900   0.341  12.409
 3950TIP3   OH233340   6.612   1.525  12.176
 3950TIP3    H133341   6.526   1.558  12.201
 3950TIP3    H233342   6.659   1.602  12.145
 3951TIP3   OH233343   6.519   0.546  12.411
 3951TIP3    H133344   6.598   0.601  12.411
 3951TIP3    H233345   6.515   0.509  12.499
 3952TIP3   OH233346   6.631   0.609  13.279
 3952TIP3    H133347   6.647   0.635  13.369
 3952TIP3    H233348   6.674   0.524  13.270
 3953TIP3   OH233349   6.628   0.206  12.470
 3953TIP3    H133350   6.638   0.268  12.542
 3953TIP3    H233351   6.713   0.206  12.426
 3954TIP3   OH233352   6.368   1.647  12.219
 3954TIP3    H133353   6.375   1.732  12.176
 3954TIP3    H233354   6.340   1.667  12.308
 3955TIP3   OH233355   6.212   0.354  12.180
 3955TIP3    H133356   6.210   0.441  12.219
 3955TIP3    H233357   6.297   0.318  12.206
 3956TIP3   OH233358   7.263   0.390  13.340
 3956TIP3    H133359   7.180   0.427  13.370
 3956TIP3    H233360   7.243   0.349  13.256
 3957TIP3   OH233361   7.069   0.780  12.781
 3957TIP3    H133362   6.985   0.737  12.762
 3957TIP3    H233363   7.104   0.731  12.855
 3958TIP3   OH233364   6.070   1.304  12.042
 3958TIP3    H133365   6.143   1.348  12.084
 3958TIP3    H233366   6.109   1.253  11.972
 3959TIP3   OH233367   5.863   0.619  11.998
 3959TIP3    H133368   5.872   0.713  12.013
 3959TIP3    H233369   5.895   0.606  11.909
 3960TIP3   OH233370   7.225   1.718  12.937
 3960TIP3    H133371   7.212   1.790  12.875
 3960TIP3    H233372   7.313   1.685  12.917
 3961TIP3   OH233373   5.910   0.124  12.832
 3961TIP3    H133374   5.949   0.115  12.745
 3961TIP3    H233375   5.963   0.067  12.888
 3962TIP3   OH233376   5.828   1.534  12.432
 3962TIP3    H133377   5.774   1.561  12.505
 3962TIP3    H233378   5.810   1.598  12.363
 3963TIP3   OH233379   5.823   1.803  13.620
 3963TIP3    H133380   5.885   1.790  13.692
 3963TIP3    H233381   5.819   1.717  13.577
 3964TIP3   OH233382   6.224   1.606  13.743
 3964TIP3    H133383   6.305   1.560  13.765
 3964TIP3    H233384   6.204   1.578  13.654
 3965TIP3   OH233385   6.634   1.607  11.870
 3965TIP3    H133386   6.568   1.539  11.886
 3965TIP3    H233387   6.710   1.559  11.837
 3966TIP3   OH233388   6.858   1.487  13.646
 3966TIP3    H133389   6.847   1.403  13.691
 3966TIP3    H233390   6.932   1.529  13.690
 3967TIP3   OH233391   7.072   1.566  11.911
 3967TIP3    H133392   7.090   1.484  11.957
 3967TIP3    H233393   7.142   1.573  11.846
 3968TIP3   OH233394   5.766   1.177  13.679
 3968TIP3    H133395   5.773   1.082  13.672
 3968TIP3    H233396   5.693   1.200  13.621
 3969TIP3   OH233397   6.197   1.133  11.871
 3969TIP3    H133398   6.223   1.083  11.949
 3969TIP3    H233399   6.280   1.150  11.825
 3970TIP3   OH233400   6.438   1.175  13.636
 3970TIP3    H133401   6.425   1.219  13.552
 3970TIP3    H233402   6.481   1.093  13.614
 3971TIP3   OH233403   6.815   1.267  11.910
 3971TIP3    H133404   6.773   1.264  11.996
 3971TIP3    H233405   6.793   1.183  11.869
 3972TIP3   OH233406   6.958   1.200  13.392
 3972TIP3    H133407   7.052   1.198  13.373
 3972TIP3    H233408   6.933   1.291  13.379
 3973TIP3   OH233409   5.835   0.910  13.645
 3973TIP3    H133410   5.919   0.894  13.602
 3973TIP3    H233411   5.853   0.894  13.738
 3974TIP3   OH233412   6.301   1.002  12.093
 3974TIP3    H133413   6.261   0.957  12.168
 3974TIP3    H233414   6.356   0.935  12.052
 3975TIP3   OH233415   6.225   0.770  13.353
 3975TIP3    H133416   6.163   0.838  13.380
 3975TIP3    H233417   6.303   0.819  13.326
 3976TIP3   OH233418   6.467   0.832  11.944
 3976TIP3    H133419   6.467   0.863  11.854
 3976TIP3    H233420   6.559   0.815  11.964
 3977TIP3   OH233421   6.762   1.024  13.680
 3977TIP3    H133422   6.834   0.994  13.625
 3977TIP3    H233423   6.743   0.949  13.737
 3978TIP3   OH233424   6.306   0.533  13.462
 3978TIP3    H133425   6.320   0.474  13.388
 3978TIP3    H233426   6.287   0.618  13.422
 3979TIP3   OH233427   6.336   0.387  13.224
 3979TIP3    H133428   6.390   0.430  13.158
 3979TIP3    H233429   6.249   0.382  13.184
 3980TIP3   OH233430   6.446   0.920  13.279
 3980TIP3    H133431   6.540   0.919  13.261
 3980TIP3    H233432   6.411   0.988  13.222
 3981TIP3   OH233433   6.918   0.644  13.696
 3981TIP3    H133434   6.932   0.551  13.715
 3981TIP3    H233435   7.002   0.674  13.662
 3982TIP3   OH233436   6.989   0.967  13.530
 3982TIP3    H133437   6.967   1.047  13.482
 3982TIP3    H233438   7.084   0.970  13.540
 3983TIP3   OH233439   6.149   0.586  13.686
 3983TIP3    H133440   6.066   0.542  13.665
 3983TIP3    H233441   6.200   0.580  13.605
 3984TIP3   OH233442   6.405   0.136  13.307
 3984TIP3    H133443   6.389   0.227  13.284
 3984TIP3    H233444   6.335   0.087  13.263
 3985TIP3   OH233445   6.528   0.493  13.627
 3985TIP3    H133446   6.494   0.463  13.711
 3985TIP3    H233447   6.451   0.503  13.571
 3986TIP3   OH233448   6.778   0.408  13.531
 3986TIP3    H133449   6.690   0.427  13.565
 3986TIP3    H233450   6.830   0.386  13.608
 3987TIP3   OH233451   6.953   0.365  13.740
 3987TIP3    H133452   6.959   0.272  13.718
 3987TIP3    H233453   6.938   0.365  13.835
 3988TIP3   OH233454   5.919   0.430  13.662
 3988TIP3    H133455   5.925   0.358  13.600
 3988TIP3    H233456   5.940   0.391  13.747
 3989TIP3   OH233457   6.390   0.055  13.567
 3989TIP3    H133458   6.382  -0.040  13.561
 3989TIP3    H233459   6.400   0.084  13.476
 3990TIP3   OH233460   6.489   0.194  13.782
 3990TIP3    H133461   6.468   0.136  13.709
 3990TIP3    H233462   6.419   0.259  13.781
 3991TIP3   OH233463   6.441   1.889  12.105
 3991TIP3    H133464   6.530   1.855  12.094
 3991TIP3    H233465   6.430   1.952  12.033
 3992TIP3   OH233466   5.804   1.359  11.999
 3992TIP3    H133467   5.898   1.352  12.016
 3992TIP3    H233468   5.786   1.290  11.935
 3993TIP3   OH233469   5.661   1.849  12.544
 3993TIP3    H133470   5.605   1.818  12.473
 3993TIP3    H233471   5.680   1.770  12.595
 3994TIP3   OH233472   5.731   1.624  12.693
 3994TIP3    H133473   5.696   1.546  12.736
 3994TIP3    H233474   5.781   1.669  12.760
 3995TIP3   OH233475   7.253   1.281  13.759
 3995TIP3    H133476   7.172   1.292  13.808
 3995TIP3    H233477   7.320   1.324  13.813
 3996TIP3   OH233478   7.264   1.427  13.214
 3996TIP3    H133479   7.223   1.501  13.259
 3996TIP3    H233480   7.219   1.424  13.129
 3997TIP3   OH233481   7.306   0.636  11.947
 3997TIP3    H133482   7.256   0.687  11.884
 3997TIP3    H233483   7.283   0.545  11.929
 3998TIP3   OH233484   7.189   0.783  12.531
 3998TIP3    H133485   7.187   0.689  12.515
 3998TIP3    H233486   7.161   0.793  12.621
 3999TIP3   OH233487   5.712   0.970  12.964
 3999TIP3    H133488   5.726   0.966  12.869
 3999TIP3    H233489   5.795   0.943  13.002
 4000TIP3   OH233490   7.255   1.014  13.552
 4000TIP3    H133491   7.331   0.959  13.535
 4000TIP3    H233492   7.256   1.079  13.482
 4001TIP3   OH233493   7.238   0.377  11.924
 4001TIP3    H133494   7.282   0.294  11.942
 4001TIP3    H233495   7.152   0.352  11.890
 4002TIP3   OH233496   7.193   0.534  12.363
 4002TIP3    H133497   7.199   0.444  12.394
 4002TIP3    H233498   7.262   0.540  12.296
 4003TIP3   OH233499   7.252   0.478  12.909
 4003TIP3    H133500   7.337   0.442  12.884
 4003TIP3    H233501   7.271   0.568  12.934
 4004TIP3   OH233502   7.272   0.738  13.250
 4004TIP3    H133503   7.177   0.745  13.255
 4004TIP3    H233504   7.290   0.720  13.158
 4005TIP3   OH233505   5.679   0.487  13.534
 4005TIP3    H133506   5.762   0.483  13.581
 4005TIP3    H233507   5.635   0.405  13.554
 4006TIP3   OH233508   7.197   0.275  12.442
 4006TIP3    H133509   7.246   0.270  12.524
 4006TIP3    H233510   7.155   0.190  12.433
 4007TIP3   OH233511   5.792   0.369  12.852
 4007TIP3    H133512   5.829   0.281  12.853
 4007TIP3    H233513   5.866   0.427  12.871
 4008TIP3   OH233514   5.624   0.665  12.906
 4008TIP3    H133515   5.700   0.660  12.847
 4008TIP3    H233516   5.647   0.733  12.969
 4009TIP3   OH233517   5.703   0.263  12.344
 4009TIP3    H133518   5.691   0.297  12.433
 4009TIP3    H233519   5.703   0.341  12.288
 4010TIP3   OH233520   7.138   1.736  12.602
 4010TIP3    H133521   7.220   1.689  12.612
 4010TIP3    H233522   7.149   1.815  12.655
 4011TIP3   OH233523   5.728   0.107  13.198
 4011TIP3    H133524   5.651   0.101  13.255
 4011TIP3    H233525   5.703   0.172  13.132
 4012TIP3   OH233526   5.884   1.522  13.583
 4012TIP3    H133527   5.793   1.511  13.554
 4012TIP3    H233528   5.885   1.487  13.672
 4013TIP3   OH233529   6.228   1.596  13.233
 4013TIP3    H133530   6.199   1.684  13.210
 4013TIP3    H233531   6.321   1.594  13.213
 4014TIP3   OH233532   6.588   1.716  13.512
 4014TIP3    H133533   6.599   1.686  13.602
 4014TIP3    H233534   6.668   1.766  13.493
 4015TIP3   OH233535   6.823   1.856  13.473
 4015TIP3    H133536   6.883   1.805  13.419
 4015TIP3    H233537   6.876   1.883  13.548
 4016TIP3   OH233538   5.921   1.871  13.258
 4016TIP3    H133539   5.843   1.910  13.219
 4016TIP3    H233540   5.936   1.921  13.338
 4017TIP3   OH233541   6.182   1.859  13.168
 4017TIP3    H133542   6.090   1.868  13.193
 4017TIP3    H233543   6.187   1.901  13.082
 4018TIP3   OH233544   6.627   1.840  13.078
 4018TIP3    H133545   6.579   1.875  13.003
 4018TIP3    H233546   6.638   1.915  13.136
 4019TIP3   OH233547   6.848   1.717  13.187
 4019TIP3    H133548   6.775   1.760  13.143
 4019TIP3    H233549   6.924   1.769  13.162
 4020TIP3   OH233550   7.085   1.844  13.138
 4020TIP3    H133551   7.107   1.937  13.126
 4020TIP3    H233552   7.138   1.798  13.073
 4021TIP3   OH233553   5.883   1.733  12.911
 4021TIP3    H133554   5.882   1.691  12.997
 4021TIP3    H233555   5.961   1.699  12.868
 4022TIP3   OH233556   6.100   1.614  12.799
 4022TIP3    H133557   6.088   1.521  12.820
 4022TIP3    H233558   6.187   1.635  12.833
 4023TIP3   OH233559   6.359   1.638  12.908
 4023TIP3    H133560   6.370   1.549  12.875
 4023TIP3    H233561   6.397   1.636  12.996
 4024TIP3   OH233562   6.667   0.271  12.818
 4024TIP3    H133563   6.605   0.202  12.840
 4024TIP3    H233564   6.735   0.226  12.768
 4025TIP3   OH233565   7.157   0.060  12.761
 4025TIP3    H133566   7.248   0.035  12.750
 4025TIP3    H233567   7.108  -0.004  12.709
 4026TIP3   OH233568   5.980   0.048  12.566
 4026TIP3    H133569   5.897   0.011  12.537
 4026TIP3    H233570   6.015  -0.018  12.626
 4027TIP3   OH233571   5.805   0.146  12.087
 4027TIP3    H133572   5.885   0.178  12.044
 4027TIP3    H233573   5.797   0.200  12.166
 4028TIP3   OH233574   6.411   0.074  12.580
 4028TIP3    H133575   6.488   0.107  12.533
 4028TIP3    H233576   6.432   0.088  12.673
 4029TIP3   OH233577   6.870   0.160  12.684
 4029TIP3    H133578   6.950   0.210  12.698
 4029TIP3    H233579   6.901   0.076  12.649
 4030TIP3   OH233580   7.044   0.064  12.337
 4030TIP3    H133581   6.975   0.130  12.327
 4030TIP3    H233582   7.081   0.055  12.249
 4031TIP3   OH233583   5.784   1.717  12.231
 4031TIP3    H133584   5.714   1.711  12.166
 4031TIP3    H233585   5.816   1.807  12.224
 4032TIP3   OH233586   6.030   0.268  11.981
 4032TIP3    H133587   6.086   0.222  11.919
 4032TIP3    H233588   6.090   0.296  12.051
 4033TIP3   OH233589   6.469   0.316  12.271
 4033TIP3    H133590   6.517   0.252  12.323
 4033TIP3    H233591   6.486   0.400  12.314
 4034TIP3   OH233592   6.689   1.777  12.075
 4034TIP3    H133593   6.783   1.793  12.065
 4034TIP3    H233594   6.664   1.729  11.996
 4035TIP3   OH233595   5.934   0.203  13.504
 4035TIP3    H133596   5.886   0.124  13.482
 4035TIP3    H233597   6.008   0.173  13.557
 4036TIP3   OH233598   6.141   0.124  13.676
 4036TIP3    H133599   6.227   0.132  13.635
 4036TIP3    H233600   6.142   0.037  13.717
 4037TIP3   OH233601   6.009   1.752  11.932
 4037TIP3    H133602   5.990   1.742  12.025
 4037TIP3    H233603   6.083   1.693  11.916
 4038TIP3   OH233604   6.982   0.106  13.664
 4038TIP3    H133605   6.943   0.023  13.692
 4038TIP3    H233606   7.064   0.081  13.622
 4039TIP3   OH233607   7.226   1.635  13.578
 4039TIP3    H133608   7.192   1.620  13.489
 4039TIP3    H233609   7.234   1.730  13.584
 4040TIP3   OH233610   1.203   2.927  12.531
 4040TIP3    H133611   1.191   3.021  12.519
 4040TIP3    H233612   1.133   2.887  12.479
 4041TIP3   OH233613   1.082   2.831  12.939
 4041TIP3    H133614   1.109   2.788  13.020
 4041TIP3    H233615   1.031   2.765  12.892
 4042TIP3   OH233616   0.295   2.743  13.049
 4042TIP3    H133617   0.306   2.674  13.115
 4042TIP3    H233618   0.384   2.768  13.025
 4043TIP3   OH233619   1.463   3.145  12.753
 4043TIP3    H133620   1.424   3.068  12.795
 4043TIP3    H233621   1.479   3.206  12.824
 4044TIP3   OH233622   0.410   3.231  12.858
 4044TIP3    H133623   0.387   3.142  12.832
 4044TIP3    H233624   0.503   3.227  12.878
 4045TIP3   OH233625   0.119   2.605  12.440
 4045TIP3    H133626   0.084   2.682  12.485
 4045TIP3    H233627   0.042   2.551  12.422
 4046TIP3   OH233628   0.156   2.824  12.708
 4046TIP3    H133629   0.182   2.734  12.729
 4046TIP3    H233630   0.236   2.875  12.716
 4047TIP3   OH233631   1.197   3.605  12.795
 4047TIP3    H133632   1.229   3.553  12.722
 4047TIP3    H233633   1.173   3.541  12.862
 4048TIP3   OH233634   0.914   3.082  12.945
 4048TIP3    H133635   0.955   3.004  12.909
 4048TIP3    H233636   0.979   3.117  13.006
 4049TIP3   OH233637   1.790   2.232  13.055
 4049TIP3    H133638   1.810   2.291  13.127
 4049TIP3    H233639   1.813   2.282  12.976
 4050TIP3   OH233640   1.232   2.499  12.952
 4050TIP3    H133641   1.237   2.404  12.966
 4050TIP3    H233642   1.215   2.508  12.858
 4051TIP3   OH233643   0.591   2.305  12.682
 4051TIP3    H133644   0.600   2.391  12.642
 4051TIP3    H233645   0.539   2.255  12.619
 4052TIP3   OH233646   1.355   2.338  12.531
 4052TIP3    H133647   1.394   2.306  12.612
 4052TIP3    H233648   1.427   2.377  12.482
 4053TIP3   OH233649   0.215   2.562  12.785
 4053TIP3    H133650   0.285   2.525  12.839
 4053TIP3    H233651   0.232   2.527  12.697
 4054TIP3   OH233652   0.702   2.713  12.745
 4054TIP3    H133653   0.788   2.681  12.771
 4054TIP3    H233654   0.669   2.647  12.684
 4055TIP3   OH233655   1.845   2.399  13.268
 4055TIP3    H133656   1.762   2.445  13.256
 4055TIP3    H233657   1.863   2.408  13.362
 4056TIP3   OH233658   0.432   2.230  13.117
 4056TIP3    H133659   0.404   2.284  13.043
 4056TIP3    H233660   0.364   2.242  13.183
 4057TIP3   OH233661   1.175   3.184  12.429
 4057TIP3    H133662   1.148   3.172  12.338
 4057TIP3    H233663   1.123   3.258  12.460
 4058TIP3   OH233664   0.688   3.004  13.086
 4058TIP3    H133665   0.636   3.076  13.123
 4058TIP3    H233666   0.758   3.048  13.038
 4059TIP3   OH233667   1.443   2.286  12.784
 4059TIP3    H133668   1.374   2.256  12.844
 4059TIP3    H233669   1.495   2.347  12.836
 4060TIP3   OH233670   0.419   2.390  12.887
 4060TIP3    H133671   0.477   2.444  12.940
 4060TIP3    H233672   0.475   2.353  12.819
 4061TIP3   OH233673   0.535   3.207  13.204
 4061TIP3    H133674   0.545   3.302  13.195
 4061TIP3    H233675   0.445   3.195  13.234
 4062TIP3   OH233676   0.105   3.159  12.287
 4062TIP3    H133677   0.107   3.196  12.199
 4062TIP3    H233678   0.132   3.231  12.344
 4063TIP3   OH233679   1.489   3.342  12.959
 4063TIP3    H133680   1.395   3.344  12.975
 4063TIP3    H233681   1.511   3.432  12.934
 4064TIP3   OH233682   1.540   2.122  13.124
 4064TIP3    H133683   1.475   2.161  13.065
 4064TIP3    H233684   1.624   2.151  13.088
 4065TIP3   OH233685   0.792   1.913  12.867
 4065TIP3    H133686   0.765   1.821  12.867
 4065TIP3    H233687   0.715   1.961  12.895
 4066TIP3   OH233688   1.313   3.493  12.568
 4066TIP3    H133689   1.356   3.410  12.552
 4066TIP3    H233690   1.385   3.557  12.574
 4067TIP3   OH233691   1.436   3.258  12.500
 4067TIP3    H133692   1.355   3.217  12.469
 4067TIP3    H233693   1.457   3.212  12.581
 4068TIP3   OH233694   1.611   3.113  13.316
 4068TIP3    H133695   1.594   3.058  13.239
 4068TIP3    H233696   1.621   3.201  13.280
 4069TIP3   OH233697   1.047   2.828  12.322
 4069TIP3    H133698   0.976   2.886  12.294
 4069TIP3    H233699   1.111   2.832  12.251
 4070TIP3   OH233700   1.075   2.712  11.971
 4070TIP3    H133701   1.131   2.734  12.046
 4070TIP3    H233702   1.127   2.651  11.919
 4071TIP3   OH233703   1.764   2.784  13.144
 4071TIP3    H133704   1.689   2.843  13.135
 4071TIP3    H233705   1.824   2.811  13.075
 4072TIP3   OH233706   1.422   2.863  12.380
 4072TIP3    H133707   1.353   2.886  12.442
 4072TIP3    H233708   1.485   2.814  12.432
 4073TIP3   OH233709   1.375   2.648  13.345
 4073TIP3    H133710   1.367   2.720  13.408
 4073TIP3    H233711   1.311   2.669  13.277
 4074TIP3   OH233712   0.566   2.898  12.576
 4074TIP3    H133713   0.539   2.856  12.494
 4074TIP3    H233714   0.620   2.832  12.620
 4075TIP3   OH233715   0.698   3.253  12.850
 4075TIP3    H133716   0.697   3.264  12.755
 4075TIP3    H233717   0.775   3.199  12.867
 4076TIP3   OH233718   0.552   2.804  12.958
 4076TIP3    H133719   0.609   2.779  12.885
 4076TIP3    H233720   0.600   2.872  13.004
 4077TIP3   OH233721   1.226   3.356  13.027
 4077TIP3    H133722   1.208   3.427  13.088
 4077TIP3    H233723   1.182   3.280  13.066
 4078TIP3   OH233724   0.698   3.226  13.430
 4078TIP3    H133725   0.636   3.285  13.473
 4078TIP3    H233726   0.653   3.198  13.350
 4079TIP3   OH233727   1.276   2.782  12.159
 4079TIP3    H133728   1.328   2.818  12.231
 4079TIP3    H233729   1.328   2.800  12.081
 4080TIP3   OH233730   0.402   2.816  13.385
 4080TIP3    H133731   0.408   2.896  13.437
 4080TIP3    H233732   0.315   2.820  13.345
 4081TIP3   OH233733   1.055   3.426  12.495
 4081TIP3    H133734   1.138   3.459  12.529
 4081TIP3    H233735   1.017   3.500  12.448
 4082TIP3   OH233736   0.503   3.414  13.494
 4082TIP3    H133737   0.516   3.445  13.405
 4082TIP3    H233738   0.409   3.419  13.508
 4083TIP3   OH233739   1.648   1.927  12.158
 4083TIP3    H133740   1.561   1.948  12.193
 4083TIP3    H233741   1.681   2.009  12.122
 4084TIP3   OH233742   0.474   2.801  12.326
 4084TIP3    H133743   0.413   2.866  12.290
 4084TIP3    H233744   0.428   2.718  12.317
 4085TIP3   OH233745   1.794   3.392  11.984
 4085TIP3    H133746   1.816   3.476  12.025
 4085TIP3    H233747   1.875   3.342  11.987
 4086TIP3   OH233748   0.170   3.008  13.213
 4086TIP3    H133749   0.137   2.992  13.125
 4086TIP3    H233750   0.143   2.931  13.263
 4087TIP3   OH233751   0.145   3.351  12.874
 4087TIP3    H133752   0.225   3.298  12.869
 4087TIP3    H233753   0.134   3.369  12.968
 4088TIP3   OH233754   1.860   3.427  13.524
 4088TIP3    H133755   1.850   3.333  13.512
 4088TIP3    H233756   1.774   3.456  13.555
 4089TIP3   OH233757   0.937   3.355  13.380
 4089TIP3    H133758   0.932   3.439  13.427
 4089TIP3    H233759   0.853   3.313  13.398
 4090TIP3   OH233760   1.027   3.693  12.360
 4090TIP3    H133761   0.995   3.697  12.270
 4090TIP3    H233762   0.994   3.773  12.401
 4091TIP3   OH233763   0.373   3.581  12.551
 4091TIP3    H133764   0.387   3.551  12.641
 4091TIP3    H233765   0.315   3.514  12.513
 4092TIP3   OH233766   1.323   3.652  12.042
 4092TIP3    H133767   1.387   3.587  12.012
 4092TIP3    H233768   1.324   3.643  12.137
 4093TIP3   OH233769   1.292   3.637  12.316
 4093TIP3    H133770   1.199   3.653  12.332
 4093TIP3    H233771   1.317   3.577  12.387
 4094TIP3   OH233772   1.563   2.517  13.526
 4094TIP3    H133773   1.494   2.554  13.471
 4094TIP3    H233774   1.565   2.424  13.502
 4095TIP3   OH233775   0.286   3.214  13.350
 4095TIP3    H133776   0.326   3.159  13.417
 4095TIP3    H233777   0.234   3.153  13.298
 4096TIP3   OH233778   0.547   2.030  12.953
 4096TIP3    H133779   0.474   2.023  12.891
 4096TIP3    H233780   0.521   2.101  13.012
 4097TIP3   OH233781   1.019   2.006  13.294
 4097TIP3    H133782   1.064   1.955  13.361
 4097TIP3    H233783   0.926   1.995  13.314
 4098TIP3   OH233784   1.312   2.376  13.372
 4098TIP3    H133785   1.251   2.362  13.444
 4098TIP3    H233786   1.315   2.471  13.362
 4099TIP3   OH233787   1.425   2.818  11.936
 4099TIP3    H133788   1.400   2.830  11.844
 4099TIP3    H233789   1.516   2.850  11.940
 4100TIP3   OH233790   0.979   2.227  12.017
 4100TIP3    H133791   0.920   2.227  12.092
 4100TIP3    H233792   0.940   2.163  11.956
 4101TIP3   OH233793   0.565   2.546  13.062
 4101TIP3    H133794   0.501   2.544  13.133
 4101TIP3    H233795   0.567   2.638  13.035
 4102TIP3   OH233796   0.584   2.552  12.559
 4102TIP3    H133797   0.489   2.538  12.562
 4102TIP3    H233798   0.607   2.535  12.467
 4103TIP3   OH233799   1.096   2.580  12.430
 4103TIP3    H133800   1.072   2.667  12.399
 4103TIP3    H233801   1.163   2.550  12.368
 4104TIP3   OH233802   1.015   2.588  13.543
 4104TIP3    H133803   0.964   2.516  13.580
 4104TIP3    H233804   1.099   2.583  13.588
 4105TIP3   OH233805   1.197   2.516  12.680
 4105TIP3    H133806   1.152   2.560  12.609
 4105TIP3    H233807   1.243   2.443  12.639
 4106TIP3   OH233808   0.356   2.544  13.241
 4106TIP3    H133809   0.368   2.595  13.321
 4106TIP3    H233810   0.318   2.461  13.271
 4107TIP3   OH233811   0.664   2.286  11.915
 4107TIP3    H133812   0.631   2.276  12.004
 4107TIP3    H233813   0.604   2.348  11.874
 4108TIP3   OH233814   0.060   2.318  12.589
 4108TIP3    H133815   0.092   2.301  12.677
 4108TIP3    H233816   0.111   2.260  12.533
 4109TIP3   OH233817   0.049   2.411  12.178
 4109TIP3    H133818   0.137   2.441  12.156
 4109TIP3    H233819  -0.004   2.431  12.101
 4110TIP3   OH233820   1.169   2.668  13.154
 4110TIP3    H133821   1.199   2.611  13.083
 4110TIP3    H233822   1.098   2.619  13.196
 4111TIP3   OH233823   0.870   2.259  12.642
 4111TIP3    H133824   0.780   2.263  12.674
 4111TIP3    H233825   0.920   2.222  12.714
 4112TIP3   OH233826   0.328   2.465  12.547
 4112TIP3    H133827   0.256   2.501  12.495
 4112TIP3    H233828   0.342   2.377  12.511
 4113TIP3   OH233829   0.624   2.478  12.297
 4113TIP3    H133830   0.718   2.468  12.308
 4113TIP3    H233831   0.614   2.517  12.210
 4114TIP3   OH233832   1.236   2.221  12.962
 4114TIP3    H133833   1.197   2.225  13.050
 4114TIP3    H233834   1.170   2.178  12.908
 4115TIP3   OH233835   0.582   2.566  12.042
 4115TIP3    H133836   0.525   2.540  11.970
 4115TIP3    H233837   0.656   2.608  11.998
 4116TIP3   OH233838   1.605   3.784  13.617
 4116TIP3    H133839   1.630   3.820  13.532
 4116TIP3    H233840   1.679   3.806  13.674
 4117TIP3   OH233841   0.381   3.044  13.550
 4117TIP3    H133842   0.446   3.040  13.621
 4117TIP3    H233843   0.297   3.048  13.596
 4118TIP3   OH233844   0.939   2.599  12.841
 4118TIP3    H133845   1.004   2.546  12.795
 4118TIP3    H233846   0.906   2.541  12.910
 4119TIP3   OH233847   0.424   2.205  12.479
 4119TIP3    H133848   0.379   2.125  12.504
 4119TIP3    H233849   0.446   2.193  12.387
 4120TIP3   OH233850   0.825   2.452  13.053
 4120TIP3    H133851   0.739   2.494  13.062
 4120TIP3    H233852   0.874   2.480  13.130
 4121TIP3   OH233853   0.850   3.007  12.242
 4121TIP3    H133854   0.780   2.972  12.188
 4121TIP3    H233855   0.806   3.039  12.321
 4122TIP3   OH233856   1.571   2.971  13.082
 4122TIP3    H133857   1.632   3.028  13.035
 4122TIP3    H233858   1.500   2.955  13.020
 4123TIP3   OH233859   1.228   2.275  12.115
 4123TIP3    H133860   1.140   2.272  12.078
 4123TIP3    H233861   1.239   2.366  12.142
 4124TIP3   OH233862   1.014   3.066  13.388
 4124TIP3    H133863   1.039   3.027  13.472
 4124TIP3    H233864   0.985   3.154  13.410
 4125TIP3   OH233865   1.298   2.516  12.245
 4125TIP3    H133866   1.387   2.500  12.277
 4125TIP3    H233867   1.301   2.604  12.207
 4126TIP3   OH233868   0.393   2.960  12.781
 4126TIP3    H133869   0.449   2.950  12.704
 4126TIP3    H233870   0.435   2.907  12.849
 4127TIP3   OH233871   1.062   3.165  12.173
 4127TIP3    H133872   1.028   3.254  12.176
 4127TIP3    H233873   0.986   3.110  12.192
 4128TIP3   OH233874   0.125   2.774  13.359
 4128TIP3    H133875   0.141   2.742  13.448
 4128TIP3    H233876   0.065   2.710  13.322
 4129TIP3   OH233877   0.811   2.780  13.564
 4129TIP3    H133878   0.745   2.740  13.507
 4129TIP3    H233879   0.890   2.729  13.547
 4130TIP3   OH233880   1.218   3.340  13.383
 4130TIP3    H133881   1.126   3.344  13.359
 4130TIP3    H233882   1.219   3.351  13.478
 4131TIP3   OH233883   1.775   2.548  12.203
 4131TIP3    H133884   1.735   2.518  12.122
 4131TIP3    H233885   1.793   2.641  12.188
 4132TIP3   OH233886   1.832   3.154  13.479
 4132TIP3    H133887   1.740   3.148  13.454
 4132TIP3    H233888   1.881   3.129  13.401
 4133TIP3   OH233889   1.596   3.390  12.303
 4133TIP3    H133890   1.546   3.346  12.372
 4133TIP3    H233891   1.606   3.322  12.235
 4134TIP3   OH233892   1.367   2.909  12.892
 4134TIP3    H133893   1.272   2.901  12.896
 4134TIP3    H233894   1.397   2.831  12.845
 4135TIP3   OH233895   0.636   3.329  12.588
 4135TIP3    H133896   0.662   3.413  12.551
 4135TIP3    H233897   0.540   3.331  12.586
 4136TIP3   OH233898   0.191   2.795  12.026
 4136TIP3    H133899   0.244   2.858  12.075
 4136TIP3    H233900   0.103   2.803  12.064
 4137TIP3   OH233901   0.707   3.102  12.450
 4137TIP3    H133902   0.696   3.183  12.501
 4137TIP3    H233903   0.658   3.036  12.499
 4138TIP3   OH233904   0.835   3.499  13.154
 4138TIP3    H133905   0.891   3.574  13.134
 4138TIP3    H233906   0.887   3.445  13.213
 4139TIP3   OH233907   0.638   3.585  12.477
 4139TIP3    H133908   0.545   3.601  12.495
 4139TIP3    H233909   0.682   3.662  12.513
 4140TIP3   OH233910   1.117   3.119  13.136
 4140TIP3    H133911   1.080   3.101  13.223
 4140TIP3    H233912   1.186   3.054  13.126
 4141TIP3   OH233913   1.425   3.243  12.037
 4141TIP3    H133914   1.450   3.187  12.111
 4141TIP3    H233915   1.342   3.206  12.007
 4142TIP3   OH233916   1.427   3.525  13.346
 4142TIP3    H133917   1.346   3.474  13.341
 4142TIP3    H233918   1.415   3.595  13.283
 4143TIP3   OH233919   1.836   3.652  12.060
 4143TIP3    H133920   1.912   3.710  12.053
 4143TIP3    H233921   1.770   3.704  12.105
 4144TIP3   OH233922   0.253   2.292  13.337
 4144TIP3    H133923   0.179   2.327  13.387
 4144TIP3    H233924   0.268   2.205  13.375
 4145TIP3   OH233925   1.530   3.075  12.228
 4145TIP3    H133926   1.481   3.012  12.281
 4145TIP3    H233927   1.622   3.055  12.246
 4146TIP3   OH233928   0.204   3.512  13.137
 4146TIP3    H133929   0.201   3.439  13.199
 4146TIP3    H233930   0.222   3.588  13.192
 4147TIP3   OH233931   0.790   3.298  11.896
 4147TIP3    H133932   0.793   3.214  11.849
 4147TIP3    H233933   0.752   3.276  11.981
 4148TIP3   OH233934   0.669   3.275  12.147
 4148TIP3    H133935   0.702   3.228  12.223
 4148TIP3    H233936   0.678   3.367  12.169
 4149TIP3   OH233937   0.304   2.982  12.199
 4149TIP3    H133938   0.234   3.028  12.246
 4149TIP3    H233939   0.353   3.052  12.154
 4150TIP3   OH233940   1.124   2.246  13.213
 4150TIP3    H133941   1.195   2.267  13.274
 4150TIP3    H233942   1.088   2.164  13.245
 4151TIP3   OH233943   1.207   2.167  12.368
 4151TIP3    H133944   1.212   2.205  12.281
 4151TIP3    H233945   1.250   2.231  12.425
 4152TIP3   OH233946   0.963   3.417  12.184
 4152TIP3    H133947   0.875   3.447  12.204
 4152TIP3    H233948   1.008   3.494  12.150
 4153TIP3   OH233949   0.878   2.413  12.410
 4153TIP3    H133950   0.951   2.474  12.416
 4153TIP3    H233951   0.874   2.371  12.495
 4154TIP3   OH233952   0.991   2.493  13.273
 4154TIP3    H133953   0.995   2.513  13.366
 4154TIP3    H233954   1.027   2.405  13.265
 4155TIP3   OH233955   0.964   2.069  12.457
 4155TIP3    H133956   0.938   2.138  12.518
 4155TIP3    H233957   1.051   2.094  12.427
 4156TIP3   OH233958   0.717   3.533  12.221
 4156TIP3    H133959   0.724   3.618  12.177
 4156TIP3    H233960   0.688   3.555  12.309
 4157TIP3   OH233961   0.558   2.233  12.172
 4157TIP3    H133962   0.554   2.319  12.215
 4157TIP3    H233963   0.644   2.199  12.196
 4158TIP3   OH233964   1.559   2.261  13.372
 4158TIP3    H133965   1.469   2.294  13.374
 4158TIP3    H233966   1.564   2.209  13.292
 4159TIP3   OH233967   1.437   2.656  12.771
 4159TIP3    H133968   1.352   2.618  12.750
 4159TIP3    H233969   1.476   2.596  12.834
 4160TIP3   OH233970   0.420   3.195  12.058
 4160TIP3    H133971   0.495   3.240  12.095
 4160TIP3    H233972   0.455   3.144  11.985
 4161TIP3   OH233973   0.233   2.523  12.002
 4161TIP3    H133974   0.240   2.618  12.015
 4161TIP3    H233975   0.151   2.511  11.955
 4162TIP3   OH233976   1.565   3.611  12.939
 4162TIP3    H133977   1.552   3.683  12.878
 4162TIP3    H233978   1.659   3.610  12.956
 4163TIP3   OH233979   0.304   2.016  12.819
 4163TIP3    H133980   0.306   2.001  12.725
 4163TIP3    H233981   0.271   1.933  12.855
 4164TIP3   OH233982   0.179   3.402  12.443
 4164TIP3    H133983   0.119   3.422  12.515
 4164TIP3    H233984   0.159   3.468  12.376
 4165TIP3   OH233985   0.170   3.700  13.616
 4165TIP3    H133986   0.224   3.689  13.694
 4165TIP3    H233987   0.171   3.614  13.574
 4166TIP3   OH233988   0.574   3.494  13.748
 4166TIP3    H133989   0.653   3.444  13.770
 4166TIP3    H233990   0.554   3.468  13.658
 4167TIP3   OH233991   0.991   3.484  11.865
 4167TIP3    H133992   0.923   3.418  11.882
 4167TIP3    H233993   1.067   3.434  11.836
 4168TIP3   OH233994   1.215   3.367  13.656
 4168TIP3    H133995   1.206   3.285  13.703
 4168TIP3    H233996   1.290   3.410  13.697
 4169TIP3   OH233997   1.503   3.477  11.911
 4169TIP3    H133998   1.486   3.405  11.971
 4169TIP3    H233999   1.540   3.436  11.834
 4170TIP3   OH234000   0.143   3.041  13.685
 4170TIP3    H134001   0.135   2.946  13.674
 4170TIP3    H234002   0.053   3.072  13.683
 4171TIP3   OH234003   0.551   3.024  11.890
 4171TIP3    H134004   0.576   2.973  11.967
 4171TIP3    H234005   0.634   3.036  11.842
 4172TIP3   OH234006   0.781   3.055  13.632
 4172TIP3    H134007   0.761   3.101  13.550
 4172TIP3    H234008   0.806   2.967  13.604
 4173TIP3   OH234009   1.189   3.147  11.930
 4173TIP3    H134010   1.137   3.143  12.010
 4173TIP3    H234011   1.161   3.070  11.880
 4174TIP3   OH234012   1.344   3.086  13.396
 4174TIP3    H134013   1.435   3.108  13.374
 4174TIP3    H234014   1.296   3.169  13.384
 4175TIP3   OH234015   0.182   2.748  13.632
 4175TIP3    H134016   0.269   2.709  13.623
 4175TIP3    H234017   0.169   2.756  13.727
 4176TIP3   OH234018   0.643   2.882  12.109
 4176TIP3    H134019   0.594   2.839  12.179
 4176TIP3    H234020   0.689   2.811  12.064
 4177TIP3   OH234021   0.630   2.663  13.379
 4177TIP3    H134022   0.554   2.721  13.380
 4177TIP3    H234023   0.688   2.700  13.312
 4178TIP3   OH234024   0.795   2.714  11.949
 4178TIP3    H134025   0.791   2.743  11.857
 4178TIP3    H234026   0.889   2.707  11.967
 4179TIP3   OH234027   1.115   2.918  13.656
 4179TIP3    H134028   1.192   2.879  13.615
 4179TIP3    H234029   1.083   2.851  13.716
 4180TIP3   OH234030   1.686   2.910  11.900
 4180TIP3    H134031   1.685   2.887  11.807
 4180TIP3    H234032   1.681   3.005  11.901
 4181TIP3   OH234033   0.649   2.400  13.455
 4181TIP3    H134034   0.662   2.345  13.378
 4181TIP3    H234035   0.646   2.489  13.420
 4182TIP3   OH234036   0.687   2.252  13.217
 4182TIP3    H134037   0.740   2.297  13.150
 4182TIP3    H234038   0.600   2.248  13.179
 4183TIP3   OH234039   0.803   2.788  13.213
 4183TIP3    H134040   0.892   2.815  13.235
 4183TIP3    H234041   0.765   2.865  13.170
 4184TIP3   OH234042   1.249   2.561  13.707
 4184TIP3    H134043   1.274   2.469  13.701
 4184TIP3    H234044   1.328   2.606  13.736
 4185TIP3   OH234045   1.382   2.857  13.536
 4185TIP3    H134046   1.355   2.938  13.491
 4185TIP3    H234047   1.477   2.858  13.531
 4186TIP3   OH234048   0.488   2.461  13.677
 4186TIP3    H134049   0.408   2.409  13.673
 4186TIP3    H234050   0.533   2.441  13.595
 4187TIP3   OH234051   0.739   1.988  13.293
 4187TIP3    H134052   0.721   2.079  13.268
 4187TIP3    H234053   0.670   1.937  13.250
 4188TIP3   OH234054   0.867   2.371  13.625
 4188TIP3    H134055   0.829   2.343  13.709
 4188TIP3    H234056   0.793   2.373  13.565
 4189TIP3   OH234057   1.136   2.311  13.565
 4189TIP3    H134058   1.045   2.312  13.594
 4189TIP3    H234059   1.181   2.258  13.631
 4190TIP3   OH234060   1.317   2.197  13.746
 4190TIP3    H134061   1.313   2.102  13.732
 4190TIP3    H234062   1.291   2.208  13.838
 4191TIP3   OH234063   0.283   2.269  13.666
 4191TIP3    H134064   0.288   2.192  13.611
 4191TIP3    H234065   0.295   2.236  13.755
 4192TIP3   OH234066   0.728   1.900  13.552
 4192TIP3    H134067   0.785   1.823  13.546
 4192TIP3    H234068   0.726   1.935  13.463
 4193TIP3   OH234069   0.808   2.058  13.764
 4193TIP3    H134070   0.784   2.005  13.688
 4193TIP3    H234071   0.746   2.131  13.764
 4194TIP3   OH234072   0.798   3.772  12.104
 4194TIP3    H134073   0.886   3.738  12.085
 4194TIP3    H234074   0.781   3.835  12.034
 4195TIP3   OH234075   0.150   3.211  12.011
 4195TIP3    H134076   0.241   3.235  12.031
 4195TIP3    H234077   0.158   3.143  11.945
 4196TIP3   OH234078   0.053   3.765  12.494
 4196TIP3    H134079   0.067   3.719  12.412
 4196TIP3    H234080   0.029   3.696  12.556
 4197TIP3   OH234081   0.059   3.533  12.681
 4197TIP3    H134082   0.064   3.451  12.731
 4197TIP3    H234083   0.110   3.596  12.732
 4198TIP3   OH234084   1.829   3.615  13.022
 4198TIP3    H134085   1.821   3.614  13.117
 4198TIP3    H234086   1.892   3.684  13.004
 4199TIP3   OH234087   1.771   3.581  13.294
 4199TIP3    H134088   1.719   3.507  13.263
 4199TIP3    H234089   1.821   3.546  13.367
 4200TIP3   OH234090   1.648   3.169  13.773
 4200TIP3    H134091   1.562   3.181  13.814
 4200TIP3    H234092   1.702   3.239  13.809
 4201TIP3   OH234093   1.789   2.999  12.300
 4201TIP3    H134094   1.859   3.065  12.304
 4201TIP3    H234095   1.804   2.943  12.376
 4202TIP3   OH234096   1.835   2.810  12.499
 4202TIP3    H134097   1.749   2.777  12.525
 4202TIP3    H234098   1.883   2.823  12.581
 4203TIP3   OH234099   1.808   3.106  13.016
 4203TIP3    H134100   1.861   3.042  12.969
 4203TIP3    H234101   1.836   3.190  12.981
 4204TIP3   OH234102   1.611   3.368  13.210
 4204TIP3    H134103   1.539   3.415  13.253
 4204TIP3    H234104   1.580   3.354  13.121
 4205TIP3   OH234105   1.829   2.804  12.111
 4205TIP3    H134106   1.781   2.833  12.033
 4205TIP3    H234107   1.812   2.873  12.176
 4206TIP3   OH234108   1.685   2.483  11.953
 4206TIP3    H134109   1.679   2.554  11.890
 4206TIP3    H234110   1.644   2.408  11.909
 4207TIP3   OH234111   1.583   2.691  12.538
 4207TIP3    H134112   1.572   2.604  12.499
 4207TIP3    H234113   1.536   2.686  12.621
 4208TIP3   OH234114   0.076   2.880  12.967
 4208TIP3    H134115   0.085   2.887  12.872
 4208TIP3    H234116   0.157   2.837  12.995
 4209TIP3   OH234117   1.658   2.864  13.512
 4209TIP3    H134118   1.721   2.793  13.498
 4209TIP3    H234119   1.685   2.933  13.451
 4210TIP3   OH234120   1.809   2.631  13.498
 4210TIP3    H134121   1.722   2.594  13.509
 4210TIP3    H234122   1.869   2.562  13.526
 4211TIP3   OH234123   1.579   2.253  11.835
 4211TIP3    H134124   1.613   2.201  11.908
 4211TIP3    H234125   1.486   2.234  11.833
 4212TIP3   OH234126   1.565   2.446  12.368
 4212TIP3    H134127   1.589   2.354  12.368
 4212TIP3    H234128   1.632   2.490  12.316
 4213TIP3   OH234129   1.580   2.473  12.937
 4213TIP3    H134130   1.674   2.484  12.919
 4213TIP3    H234131   1.572   2.491  13.031
 4214TIP3   OH234132   1.615   2.557  13.204
 4214TIP3    H134133   1.536   2.586  13.249
 4214TIP3    H234134   1.665   2.638  13.190
 4215TIP3   OH234135   0.056   2.361  13.539
 4215TIP3    H134136   0.137   2.355  13.590
 4215TIP3    H234137  -0.006   2.306  13.587
 4216TIP3   OH234138   1.860   1.974  13.723
 4216TIP3    H134139   1.925   1.914  13.685
 4216TIP3    H234140   1.851   2.043  13.657
 4217TIP3   OH234141   1.630   2.175  12.376
 4217TIP3    H134142   1.647   2.140  12.464
 4217TIP3    H234143   1.561   2.118  12.341
 4218TIP3   OH234144   0.174   2.256  12.842
 4218TIP3    H134145   0.208   2.166  12.842
 4218TIP3    H234146   0.251   2.311  12.856
 4219TIP3   OH234147  -0.005   2.606  12.959
 4219TIP3    H134148   0.067   2.586  12.900
 4219TIP3    H234149   0.000   2.701  12.972
 4220TIP3   OH234150   1.779   2.164  13.542
 4220TIP3    H134151   1.706   2.201  13.591
 4220TIP3    H234152   1.740   2.137  13.459
 4221TIP3   OH234153   1.758   2.144  12.026
 4221TIP3    H134154   1.804   2.085  11.967
 4221TIP3    H234155   1.811   2.224  12.027
 4222TIP3   OH234156   0.132   2.196  12.331
 4222TIP3    H134157   0.047   2.166  12.362
 4222TIP3    H234158   0.112   2.269  12.273
 4223TIP3   OH234159   1.508   3.676  12.559
 4223TIP3    H134160   1.584   3.676  12.500
 4223TIP3    H234161   1.535   3.731  12.633
 4224TIP3   OH234162   7.364   2.026  13.214
 4224TIP3    H134163   7.319   2.070  13.286
 4224TIP3    H234164   7.307   2.039  13.139
 4225TIP3   OH234165   0.224   3.419  13.538
 4225TIP3    H134166   0.220   3.353  13.470
 4225TIP3    H234167   0.170   3.385  13.609
 4226TIP3   OH234168   0.572   3.482  13.233
 4226TIP3    H134169   0.541   3.569  13.209
 4226TIP3    H234170   0.666   3.483  13.211
 4227TIP3   OH234171   0.937   3.600  13.512
 4227TIP3    H134172   0.947   3.569  13.601
 4227TIP3    H234173   1.017   3.650  13.495
 4228TIP3   OH234174   1.174   3.738  13.478
 4228TIP3    H134175   1.240   3.687  13.432
 4228TIP3    H234176   1.220   3.773  13.555
 4229TIP3   OH234177   1.688   1.940  13.348
 4229TIP3    H134178   1.607   1.945  13.297
 4229TIP3    H234179   1.720   1.851  13.333
 4230TIP3   OH234180   0.256   3.767  13.257
 4230TIP3    H134181   0.175   3.807  13.227
 4230TIP3    H234182   0.277   3.812  13.339
 4231TIP3   OH234183   0.519   3.744  13.169
 4231TIP3    H134184   0.427   3.753  13.193
 4231TIP3    H234185   0.526   3.791  13.085
 4232TIP3   OH234186   0.973   3.725  13.072
 4232TIP3    H134187   0.919   3.760  13.002
 4232TIP3    H234188   0.984   3.797  13.133
 4233TIP3   OH234189   1.196   3.594  13.163
 4233TIP3    H134190   1.119   3.638  13.128
 4233TIP3    H234191   1.269   3.655  13.148
 4234TIP3   OH234192   1.438   3.731  13.152
 4234TIP3    H134193   1.467   3.822  13.144
 4234TIP3    H234194   1.478   3.686  13.078
 4235TIP3   OH234195   0.215   3.644  12.894
 4235TIP3    H134196   0.203   3.608  12.982
 4235TIP3    H234197   0.291   3.598  12.859
 4236TIP3   OH234198   0.435   3.503  12.807
 4236TIP3    H134199   0.421   3.411  12.829
 4236TIP3    H234200   0.521   3.524  12.844
 4237TIP3   OH234201   0.697   3.527  12.913
 4237TIP3    H134202   0.704   3.437  12.881
 4237TIP3    H234203   0.737   3.525  13.000
 4238TIP3   OH234204   1.030   2.095  12.808
 4238TIP3    H134205   0.966   2.026  12.829
 4238TIP3    H234206   1.102   2.048  12.766
 4239TIP3   OH234207   1.531   1.954  12.792
 4239TIP3    H134208   1.586   2.016  12.745
 4239TIP3    H234209   1.441   1.984  12.777
 4240TIP3   OH234210   1.713   2.072  12.619
 4240TIP3    H134211   1.774   2.000  12.602
 4240TIP3    H234212   1.769   2.149  12.631
 4241TIP3   OH234213   0.296   1.969  12.548
 4241TIP3    H134214   0.206   1.960  12.517
 4241TIP3    H234215   0.334   1.881  12.540
 4242TIP3   OH234216   0.177   1.995  12.146
 4242TIP3    H134217   0.240   2.029  12.082
 4242TIP3    H234218   0.175   2.061  12.216
 4243TIP3   OH234219   0.755   1.922  12.582
 4243TIP3    H134220   0.825   1.969  12.538
 4243TIP3    H234221   0.777   1.927  12.675
 4244TIP3   OH234222   1.253   1.962  12.709
 4244TIP3    H134223   1.279   1.940  12.619
 4244TIP3    H234224   1.235   1.877  12.749
 4245TIP3   OH234225   1.423   2.001  12.300
 4245TIP3    H134226   1.346   2.056  12.317
 4245TIP3    H234227   1.391   1.911  12.311
 4246TIP3   OH234228   0.112   3.612  12.275
 4246TIP3    H134229   0.050   3.558  12.227
 4246TIP3    H234230   0.152   3.668  12.208
 4247TIP3   OH234231   0.372   2.124  11.991
 4247TIP3    H134232   0.425   2.072  11.930
 4247TIP3    H234233   0.434   2.158  12.054
 4248TIP3   OH234234   0.822   2.202  12.245
 4248TIP3    H134235   0.854   2.126  12.294
 4248TIP3    H234236   0.844   2.277  12.300
 4249TIP3   OH234237   1.045   3.659  12.066
 4249TIP3    H134238   1.139   3.674  12.056
 4249TIP3    H234239   1.021   3.609  11.988
 4250TIP3   OH234240   1.697   3.642  12.353
 4250TIP3    H134241   1.667   3.553  12.336
 4250TIP3    H234242   1.660   3.694  12.281
 4251TIP3   OH234243   0.291   2.036  13.505
 4251TIP3    H134244   0.231   1.969  13.538
 4251TIP3    H234245   0.374   2.018  13.549
 4252TIP3   OH234246   0.487   1.955  13.683
 4252TIP3    H134247   0.570   1.927  13.645
 4252TIP3    H234248   0.454   1.877  13.729
 4253TIP3   OH234249   0.363   3.657  11.916
 4253TIP3    H134250   0.340   3.671  12.008
 4253TIP3    H234251   0.433   3.591  11.919
 4254TIP3   OH234252   1.336   1.924  13.691
 4254TIP3    H134253   1.325   1.874  13.772
 4254TIP3    H234254   1.429   1.913  13.669
 4255TIP3   OH234255   1.600   3.513  13.567
 4255TIP3    H134256   1.540   3.507  13.493
 4255TIP3    H234257   1.599   3.606  13.592
 4256TIP3   OH234258   3.076   2.909  12.532
 4256TIP3    H134259   3.061   3.004  12.528
 4256TIP3    H234260   3.007   2.872  12.477
 4257TIP3   OH234261   2.969   2.828  12.937
 4257TIP3    H134262   2.994   2.783  13.018
 4257TIP3    H234263   2.913   2.766  12.891
 4258TIP3   OH234264   2.175   2.762  13.060
 4258TIP3    H134265   2.185   2.693  13.125
 4258TIP3    H234266   2.265   2.789  13.040
 4259TIP3   OH234267   3.357   3.134  12.761
 4259TIP3    H134268   3.313   3.062  12.806
 4259TIP3    H234269   3.368   3.201  12.828
 4260TIP3   OH234270   2.324   3.228  12.845
 4260TIP3    H134271   2.288   3.140  12.833
 4260TIP3    H234272   2.416   3.213  12.866
 4261TIP3   OH234273   1.979   2.586  12.408
 4261TIP3    H134274   1.950   2.668  12.448
 4261TIP3    H234275   1.902   2.555  12.359
 4262TIP3   OH234276   2.026   2.810  12.704
 4262TIP3    H134277   2.052   2.719  12.718
 4262TIP3    H234278   2.105   2.861  12.719
 4263TIP3   OH234279   3.079   3.605  12.790
 4263TIP3    H134280   3.113   3.554  12.716
 4263TIP3    H234281   3.049   3.539  12.852
 4264TIP3   OH234282   2.814   3.079  12.946
 4264TIP3    H134283   2.859   3.002  12.911
 4264TIP3    H234284   2.875   3.115  13.010
 4265TIP3   OH234285   3.699   2.212  13.045
 4265TIP3    H134286   3.710   2.284  13.106
 4265TIP3    H234287   3.757   2.233  12.972
 4266TIP3   OH234288   3.085   2.466  12.943
 4266TIP3    H134289   3.129   2.383  12.964
 4266TIP3    H234290   3.102   2.479  12.850
 4267TIP3   OH234291   2.452   2.311  12.674
 4267TIP3    H134292   2.452   2.394  12.626
 4267TIP3    H234293   2.394   2.255  12.623
 4268TIP3   OH234294   3.248   2.334  12.529
 4268TIP3    H134295   3.292   2.309  12.610
 4268TIP3    H234296   3.317   2.374  12.476
 4269TIP3   OH234297   2.073   2.541  12.759
 4269TIP3    H134298   2.147   2.500  12.804
 4269TIP3    H234299   2.034   2.469  12.709
 4270TIP3   OH234300   2.580   2.696  12.734
 4270TIP3    H134301   2.666   2.662  12.760
 4270TIP3    H234302   2.547   2.631  12.672
 4271TIP3   OH234303   3.726   2.386  13.263
 4271TIP3    H134304   3.655   2.448  13.245
 4271TIP3    H234305   3.748   2.401  13.355
 4272TIP3   OH234306   2.324   2.234  13.103
 4272TIP3    H134307   2.301   2.297  13.035
 4272TIP3    H234308   2.252   2.240  13.166
 4273TIP3   OH234309   3.002   3.160  12.448
 4273TIP3    H134310   2.999   3.165  12.352
 4273TIP3    H234311   2.974   3.247  12.477
 4274TIP3   OH234312   2.580   3.004  13.075
 4274TIP3    H134313   2.530   3.076  13.113
 4274TIP3    H234314   2.653   3.046  13.030
 4275TIP3   OH234315   3.355   2.281  12.772
 4275TIP3    H134316   3.366   2.194  12.812
 4275TIP3    H234317   3.405   2.340  12.829
 4276TIP3   OH234318   2.297   2.404  12.883
 4276TIP3    H134319   2.349   2.463  12.937
 4276TIP3    H234320   2.358   2.370  12.819
 4277TIP3   OH234321   2.433   3.206  13.194
 4277TIP3    H134322   2.441   3.301  13.187
 4277TIP3    H234323   2.343   3.191  13.223
 4278TIP3   OH234324   2.003   3.177  12.285
 4278TIP3    H134325   1.996   3.220  12.200
 4278TIP3    H234326   2.026   3.248  12.346
 4279TIP3   OH234327   3.374   3.342  12.957
 4279TIP3    H134328   3.280   3.343  12.975
 4279TIP3    H234329   3.395   3.432  12.933
 4280TIP3   OH234330   3.459   2.091  13.135
 4280TIP3    H134331   3.388   2.135  13.089
 4280TIP3    H234332   3.539   2.123  13.094
 4281TIP3   OH234333   2.662   1.916  12.855
 4281TIP3    H134334   2.644   1.823  12.867
 4281TIP3    H234335   2.584   1.961  12.888
 4282TIP3   OH234336   3.200   3.492  12.566
 4282TIP3    H134337   3.242   3.407  12.550
 4282TIP3    H234338   3.274   3.552  12.577
 4283TIP3   OH234339   3.330   3.260  12.515
 4283TIP3    H134340   3.343   3.197  12.443
 4283TIP3    H234341   3.342   3.208  12.594
 4284TIP3   OH234342   3.485   3.129  13.309
 4284TIP3    H134343   3.474   3.069  13.235
 4284TIP3    H234344   3.500   3.215  13.268
 4285TIP3   OH234345   2.923   2.815  12.317
 4285TIP3    H134346   2.857   2.880  12.293
 4285TIP3    H234347   2.991   2.825  12.251
 4286TIP3   OH234348   2.938   2.696  11.987
 4286TIP3    H134349   2.998   2.726  12.055
 4286TIP3    H234350   2.992   2.642  11.929
 4287TIP3   OH234351   3.645   2.785  13.157
 4287TIP3    H134352   3.572   2.846  13.146
 4287TIP3    H234353   3.705   2.806  13.085
 4288TIP3   OH234354   3.296   2.851  12.380
 4288TIP3    H134355   3.227   2.873  12.443
 4288TIP3    H234356   3.362   2.805  12.432
 4289TIP3   OH234357   3.258   2.646  13.342
 4289TIP3    H134358   3.254   2.722  13.400
 4289TIP3    H234359   3.195   2.666  13.273
 4290TIP3   OH234360   2.448   2.896  12.581
 4290TIP3    H134361   2.422   2.857  12.497
 4290TIP3    H234362   2.503   2.829  12.622
 4291TIP3   OH234363   2.607   3.248  12.844
 4291TIP3    H134364   2.608   3.262  12.750
 4291TIP3    H234365   2.686   3.197  12.862
 4292TIP3   OH234366   2.439   2.805  12.952
 4292TIP3    H134367   2.494   2.777  12.878
 4292TIP3    H234368   2.490   2.874  12.994
 4293TIP3   OH234369   3.114   3.356  13.035
 4293TIP3    H134370   3.099   3.430  13.094
 4293TIP3    H234371   3.068   3.283  13.076
 4294TIP3   OH234372   2.586   3.221  13.427
 4294TIP3    H134373   2.523   3.278  13.471
 4294TIP3    H234374   2.543   3.196  13.345
 4295TIP3   OH234375   3.155   2.774  12.155
 4295TIP3    H134376   3.208   2.811  12.225
 4295TIP3    H234377   3.206   2.790  12.075
 4296TIP3   OH234378   2.249   2.803  13.396
 4296TIP3    H134379   2.262   2.887  13.438
 4296TIP3    H234380   2.158   2.804  13.365
 4297TIP3   OH234381   2.940   3.428  12.498
 4297TIP3    H134382   3.028   3.453  12.526
 4297TIP3    H234383   2.907   3.504  12.451
 4298TIP3   OH234384   2.385   3.396  13.499
 4298TIP3    H134385   2.386   3.433  13.411
 4298TIP3    H234386   2.293   3.388  13.522
 4299TIP3   OH234387   3.524   1.923  12.154
 4299TIP3    H134388   3.442   1.951  12.195
 4299TIP3    H234389   3.562   2.003  12.117
 4300TIP3   OH234390   2.338   2.806  12.332
 4300TIP3    H134391   2.297   2.883  12.292
 4300TIP3    H234392   2.266   2.746  12.348
 4301TIP3   OH234393   3.673   3.369  12.015
 4301TIP3    H134394   3.686   3.464  12.011
 4301TIP3    H234395   3.761   3.333  12.011
 4302TIP3   OH234396   1.955   3.062  13.254
 4302TIP3    H134397   1.902   3.072  13.175
 4302TIP3    H234398   1.967   2.968  13.263
 4303TIP3   OH234399   1.918   3.359  12.948
 4303TIP3    H134400   1.998   3.368  13.000
 4303TIP3    H234401   1.868   3.438  12.969
 4304TIP3   OH234402   3.741   3.400  13.532
 4304TIP3    H134403   3.726   3.305  13.526
 4304TIP3    H234404   3.657   3.436  13.561
 4305TIP3   OH234405   2.822   3.354  13.381
 4305TIP3    H134406   2.816   3.438  13.427
 4305TIP3    H234407   2.739   3.311  13.397
 4306TIP3   OH234408   2.916   3.690  12.360
 4306TIP3    H134409   2.893   3.692  12.267
 4306TIP3    H234410   2.880   3.772  12.395
 4307TIP3   OH234411   2.253   3.589  12.551
 4307TIP3    H134412   2.274   3.558  12.640
 4307TIP3    H234413   2.201   3.519  12.513
 4308TIP3   OH234414   3.202   3.658  12.041
 4308TIP3    H134415   3.251   3.584  12.004
 4308TIP3    H234416   3.214   3.650  12.135
 4309TIP3   OH234417   3.184   3.645  12.320
 4309TIP3    H134418   3.090   3.657  12.335
 4309TIP3    H234419   3.211   3.583  12.388
 4310TIP3   OH234420   3.439   2.536  13.549
 4310TIP3    H134421   3.372   2.573  13.492
 4310TIP3    H234422   3.447   2.445  13.522
 4311TIP3   OH234423   2.183   3.209  13.309
 4311TIP3    H134424   2.206   3.173  13.395
 4311TIP3    H234425   2.102   3.163  13.285
 4312TIP3   OH234426   2.426   2.028  12.947
 4312TIP3    H134427   2.348   2.010  12.894
 4312TIP3    H234428   2.400   2.100  13.003
 4313TIP3   OH234429   2.912   1.991  13.298
 4313TIP3    H134430   2.959   1.945  13.368
 4313TIP3    H234431   2.820   1.983  13.322
 4314TIP3   OH234432   3.193   2.373  13.352
 4314TIP3    H134433   3.134   2.358  13.425
 4314TIP3    H234434   3.204   2.468  13.350
 4315TIP3   OH234435   3.305   2.797  11.927
 4315TIP3    H134436   3.278   2.825  11.840
 4315TIP3    H234437   3.395   2.826  11.935
 4316TIP3   OH234438   2.860   2.227  12.017
 4316TIP3    H134439   2.794   2.231  12.086
 4316TIP3    H234440   2.826   2.162  11.955
 4317TIP3   OH234441   2.444   2.552  13.064
 4317TIP3    H134442   2.379   2.551  13.134
 4317TIP3    H234443   2.445   2.643  13.035
 4318TIP3   OH234444   2.444   2.545  12.534
 4318TIP3    H134445   2.350   2.556  12.515
 4318TIP3    H234446   2.484   2.532  12.448
 4319TIP3   OH234447   2.984   2.569  12.425
 4319TIP3    H134448   2.957   2.656  12.395
 4319TIP3    H234449   3.055   2.544  12.366
 4320TIP3   OH234450   2.902   2.592  13.551
 4320TIP3    H134451   2.851   2.519  13.588
 4320TIP3    H234452   2.987   2.586  13.594
 4321TIP3   OH234453   3.102   2.515  12.676
 4321TIP3    H134454   3.048   2.562  12.612
 4321TIP3    H234455   3.145   2.447  12.626
 4322TIP3   OH234456   2.232   2.551  13.238
 4322TIP3    H134457   2.230   2.600  13.320
 4322TIP3    H234458   2.190   2.467  13.259
 4323TIP3   OH234459   2.553   2.288  11.905
 4323TIP3    H134460   2.520   2.306  11.993
 4323TIP3    H234461   2.494   2.336  11.847
 4324TIP3   OH234462   1.906   2.268  12.602
 4324TIP3    H134463   1.974   2.249  12.667
 4324TIP3    H234464   1.938   2.229  12.521
 4325TIP3   OH234465   1.982   2.370  12.158
 4325TIP3    H134466   2.004   2.404  12.071
 4325TIP3    H234467   1.912   2.428  12.189
 4326TIP3   OH234468   3.048   2.650  13.146
 4326TIP3    H134469   3.069   2.587  13.076
 4326TIP3    H234470   2.979   2.607  13.196
 4327TIP3   OH234471   2.727   2.284  12.660
 4327TIP3    H134472   2.632   2.281  12.671
 4327TIP3    H234473   2.760   2.308  12.746
 4328TIP3   OH234474   2.212   2.445  12.369
 4328TIP3    H134475   2.129   2.485  12.394
 4328TIP3    H234476   2.217   2.365  12.421
 4329TIP3   OH234477   2.546   2.482  12.286
 4329TIP3    H134478   2.632   2.455  12.319
 4329TIP3    H234479   2.566   2.538  12.211
 4330TIP3   OH234480   3.100   2.145  12.946
 4330TIP3    H134481   3.076   2.171  13.035
 4330TIP3    H234482   3.024   2.170  12.892
 4331TIP3   OH234483   2.418   2.543  12.017
 4331TIP3    H134484   2.390   2.522  11.927
 4331TIP3    H234485   2.497   2.596  12.006
 4332TIP3   OH234486   3.469   3.780  13.606
 4332TIP3    H134487   3.501   3.808  13.520
 4332TIP3    H234488   3.542   3.800  13.666
 4333TIP3   OH234489   2.249   3.043  13.543
 4333TIP3    H134490   2.315   3.039  13.612
 4333TIP3    H234491   2.167   3.057  13.589
 4334TIP3   OH234492   2.818   2.582  12.849
 4334TIP3    H134493   2.908   2.548  12.846
 4334TIP3    H234494   2.778   2.538  12.924
 4335TIP3   OH234495   2.281   2.190  12.487
 4335TIP3    H134496   2.223   2.121  12.519
 4335TIP3    H234497   2.333   2.148  12.418
 4336TIP3   OH234498   2.702   2.454  13.067
 4336TIP3    H134499   2.617   2.498  13.075
 4336TIP3    H234500   2.751   2.483  13.145
 4337TIP3   OH234501   2.730   3.001  12.243
 4337TIP3    H134502   2.657   2.975  12.187
 4337TIP3    H234503   2.689   3.038  12.321
 4338TIP3   OH234504   3.455   2.972  13.084
 4338TIP3    H134505   3.518   3.024  13.034
 4338TIP3    H234506   3.384   2.954  13.022
 4339TIP3   OH234507   3.107   2.263  12.127
 4339TIP3    H134508   3.022   2.265  12.084
 4339TIP3    H234509   3.126   2.355  12.147
 4340TIP3   OH234510   2.896   3.057  13.395
 4340TIP3    H134511   2.923   3.020  13.478
 4340TIP3    H234512   2.866   3.145  13.417
 4341TIP3   OH234513   3.188   2.509  12.243
 4341TIP3    H134514   3.278   2.496  12.272
 4341TIP3    H234515   3.187   2.596  12.203
 4342TIP3   OH234516   2.264   2.945  12.780
 4342TIP3    H134517   2.323   2.943  12.705
 4342TIP3    H234518   2.310   2.896  12.849
 4343TIP3   OH234519   2.941   3.162  12.170
 4343TIP3    H134520   2.908   3.251  12.174
 4343TIP3    H234521   2.865   3.107  12.192
 4344TIP3   OH234522   1.973   2.790  13.333
 4344TIP3    H134523   1.943   2.747  13.414
 4344TIP3    H234524   1.905   2.770  13.269
 4345TIP3   OH234525   2.694   2.781  13.567
 4345TIP3    H134526   2.627   2.741  13.511
 4345TIP3    H234527   2.772   2.728  13.551
 4346TIP3   OH234528   3.102   3.341  13.383
 4346TIP3    H134529   3.009   3.344  13.361
 4346TIP3    H234530   3.105   3.353  13.478
 4347TIP3   OH234531   3.636   2.554  12.186
 4347TIP3    H134532   3.593   2.533  12.103
 4347TIP3    H234533   3.663   2.646  12.177
 4348TIP3   OH234534   3.701   3.123  13.475
 4348TIP3    H134535   3.614   3.135  13.438
 4348TIP3    H234536   3.758   3.110  13.399
 4349TIP3   OH234537   3.533   3.396  12.257
 4349TIP3    H134538   3.477   3.321  12.279
 4349TIP3    H234539   3.572   3.374  12.173
 4350TIP3   OH234540   3.252   2.906  12.899
 4350TIP3    H134541   3.156   2.897  12.900
 4350TIP3    H234542   3.282   2.829  12.850
 4351TIP3   OH234543   2.529   3.331  12.588
 4351TIP3    H134544   2.550   3.415  12.546
 4351TIP3    H234545   2.437   3.340  12.612
 4352TIP3   OH234546   2.099   2.768  12.056
 4352TIP3    H134547   2.140   2.844  12.099
 4352TIP3    H234548   2.005   2.779  12.073
 4353TIP3   OH234549   2.584   3.101  12.447
 4353TIP3    H134550   2.578   3.185  12.494
 4353TIP3    H234551   2.537   3.039  12.503
 4354TIP3   OH234552   2.718   3.497  13.157
 4354TIP3    H134553   2.775   3.571  13.136
 4354TIP3    H234554   2.770   3.443  13.216
 4355TIP3   OH234555   2.519   3.587  12.475
 4355TIP3    H134556   2.427   3.606  12.493
 4355TIP3    H234557   2.567   3.662  12.510
 4356TIP3   OH234558   3.005   3.119  13.147
 4356TIP3    H134559   2.965   3.097  13.231
 4356TIP3    H234560   3.084   3.064  13.143
 4357TIP3   OH234561   3.314   3.215  12.047
 4357TIP3    H134562   3.324   3.175  12.134
 4357TIP3    H234563   3.228   3.185  12.017
 4358TIP3   OH234564   3.315   3.521  13.344
 4358TIP3    H134565   3.235   3.469  13.341
 4358TIP3    H234566   3.299   3.594  13.285
 4359TIP3   OH234567   3.707   3.643  12.028
 4359TIP3    H134568   3.737   3.706  11.963
 4359TIP3    H234569   3.635   3.687  12.073
 4360TIP3   OH234570   2.110   2.296  13.274
 4360TIP3    H134571   2.020   2.324  13.259
 4360TIP3    H234572   2.103   2.227  13.339
 4361TIP3   OH234573   3.399   3.094  12.289
 4361TIP3    H134574   3.355   3.013  12.315
 4361TIP3    H234575   3.492   3.073  12.290
 4362TIP3   OH234576   2.112   3.481  13.142
 4362TIP3    H134577   2.144   3.407  13.195
 4362TIP3    H234578   2.125   3.558  13.198
 4363TIP3   OH234579   2.673   3.298  11.893
 4363TIP3    H134580   2.675   3.214  11.846
 4363TIP3    H234581   2.633   3.278  11.977
 4364TIP3   OH234582   2.539   3.276  12.138
 4364TIP3    H134583   2.572   3.230  12.215
 4364TIP3    H234584   2.549   3.369  12.159
 4365TIP3   OH234585   2.191   2.994  12.196
 4365TIP3    H134586   2.122   3.043  12.240
 4365TIP3    H234587   2.236   3.059  12.142
 4366TIP3   OH234588   3.027   2.220  13.194
 4366TIP3    H134589   3.087   2.264  13.253
 4366TIP3    H234590   2.989   2.149  13.246
 4367TIP3   OH234591   3.085   2.167  12.384
 4367TIP3    H134592   3.086   2.199  12.294
 4367TIP3    H234593   3.136   2.232  12.433
 4368TIP3   OH234594   2.839   3.412  12.183
 4368TIP3    H134595   2.751   3.446  12.202
 4368TIP3    H234596   2.887   3.489  12.152
 4369TIP3   OH234597   2.775   2.393  12.412
 4369TIP3    H134598   2.848   2.454  12.414
 4369TIP3    H234599   2.759   2.372  12.504
 4370TIP3   OH234600   2.870   2.494  13.290
 4370TIP3    H134601   2.873   2.532  13.378
 4370TIP3    H234602   2.898   2.404  13.301
 4371TIP3   OH234603   2.846   2.086  12.497
 4371TIP3    H134604   2.812   2.168  12.533
 4371TIP3    H234605   2.927   2.112  12.452
 4372TIP3   OH234606   2.592   3.532  12.216
 4372TIP3    H134607   2.604   3.617  12.174
 4372TIP3    H234608   2.566   3.554  12.306
 4373TIP3   OH234609   2.423   2.266  12.168
 4373TIP3    H134610   2.462   2.338  12.218
 4373TIP3    H234611   2.489   2.196  12.172
 4374TIP3   OH234612   3.451   2.298  13.402
 4374TIP3    H134613   3.358   2.306  13.380
 4374TIP3    H234614   3.494   2.284  13.317
 4375TIP3   OH234615   3.327   2.655  12.779
 4375TIP3    H134616   3.246   2.612  12.752
 4375TIP3    H234617   3.370   2.592  12.836
 4376TIP3   OH234618   2.292   3.199  12.035
 4376TIP3    H134619   2.367   3.244  12.074
 4376TIP3    H234620   2.330   3.145  11.966
 4377TIP3   OH234621   2.106   2.509  11.962
 4377TIP3    H134622   2.100   2.603  11.978
 4377TIP3    H234623   2.061   2.495  11.878
 4378TIP3   OH234624   3.455   3.610  12.954
 4378TIP3    H134625   3.438   3.684  12.894
 4378TIP3    H234626   3.550   3.606  12.961
 4379TIP3   OH234627   2.184   1.980  12.827
 4379TIP3    H134628   2.171   1.968  12.733
 4379TIP3    H234629   2.149   1.901  12.867
 4380TIP3   OH234630   2.063   3.401  12.449
 4380TIP3    H134631   2.014   3.429  12.527
 4380TIP3    H234632   2.048   3.470  12.385
 4381TIP3   OH234633   2.036   3.681  13.610
 4381TIP3    H134634   2.103   3.658  13.675
 4381TIP3    H234635   2.002   3.597  13.579
 4382TIP3   OH234636   2.456   3.491  13.749
 4382TIP3    H134637   2.537   3.445  13.771
 4382TIP3    H234638   2.435   3.462  13.661
 4383TIP3   OH234639   2.870   3.490  11.868
 4383TIP3    H134640   2.804   3.422  11.882
 4383TIP3    H234641   2.947   3.443  11.838
 4384TIP3   OH234642   3.104   3.368  13.656
 4384TIP3    H134643   3.093   3.286  13.703
 4384TIP3    H234644   3.179   3.411  13.698
 4385TIP3   OH234645   3.330   3.455  11.909
 4385TIP3    H134646   3.344   3.375  11.960
 4385TIP3    H234647   3.400   3.454  11.844
 4386TIP3   OH234648   2.003   3.056  13.675
 4386TIP3    H134649   2.000   2.960  13.668
 4386TIP3    H234650   1.932   3.086  13.618
 4387TIP3   OH234651   2.420   3.016  11.879
 4387TIP3    H134652   2.445   2.970  11.959
 4387TIP3    H234653   2.502   3.031  11.832
 4388TIP3   OH234654   2.666   3.056  13.633
 4388TIP3    H134655   2.646   3.101  13.551
 4388TIP3    H234656   2.690   2.967  13.606
 4389TIP3   OH234657   3.073   3.140  11.931
 4389TIP3    H134658   3.019   3.142  12.010
 4389TIP3    H234659   3.042   3.064  11.883
 4390TIP3   OH234660   3.225   3.086  13.389
 4390TIP3    H134661   3.315   3.108  13.368
 4390TIP3    H234662   3.177   3.169  13.382
 4391TIP3   OH234663   2.071   2.783  13.656
 4391TIP3    H134664   2.158   2.764  13.621
 4391TIP3    H234665   2.083   2.780  13.751
 4392TIP3   OH234666   2.513   2.885  12.110
 4392TIP3    H134667   2.464   2.845  12.182
 4392TIP3    H234668   2.562   2.813  12.071
 4393TIP3   OH234669   2.503   2.670  13.384
 4393TIP3    H134670   2.422   2.721  13.384
 4393TIP3    H234671   2.558   2.712  13.318
 4394TIP3   OH234672   2.656   2.688  11.978
 4394TIP3    H134673   2.651   2.717  11.886
 4394TIP3    H234674   2.750   2.684  11.996
 4395TIP3   OH234675   2.998   2.921  13.652
 4395TIP3    H134676   3.077   2.883  13.613
 4395TIP3    H234677   2.967   2.855  13.713
 4396TIP3   OH234678   3.563   2.894  11.896
 4396TIP3    H134679   3.565   2.877  11.802
 4396TIP3    H234680   3.560   2.989  11.903
 4397TIP3   OH234681   2.536   2.406  13.456
 4397TIP3    H134682   2.545   2.350  13.379
 4397TIP3    H234683   2.527   2.494  13.421
 4398TIP3   OH234684   2.574   2.245  13.220
 4398TIP3    H134685   2.625   2.297  13.158
 4398TIP3    H234686   2.486   2.242  13.181
 4399TIP3   OH234687   2.683   2.795  13.221
 4399TIP3    H134688   2.767   2.827  13.255
 4399TIP3    H234689   2.648   2.868  13.170
 4400TIP3   OH234690   3.138   2.558  13.712
 4400TIP3    H134691   3.172   2.468  13.717
 4400TIP3    H234692   3.210   2.613  13.740
 4401TIP3   OH234693   3.276   2.858  13.528
 4401TIP3    H134694   3.247   2.938  13.484
 4401TIP3    H234695   3.371   2.862  13.525
 4402TIP3   OH234696   2.372   2.455  13.680
 4402TIP3    H134697   2.290   2.406  13.669
 4402TIP3    H234698   2.418   2.443  13.597
 4403TIP3   OH234699   2.629   1.976  13.285
 4403TIP3    H134700   2.612   2.068  13.267
 4403TIP3    H234701   2.555   1.930  13.246
 4404TIP3   OH234702   2.755   2.372  13.625
 4404TIP3    H134703   2.720   2.342  13.709
 4404TIP3    H234704   2.679   2.376  13.567
 4405TIP3   OH234705   3.014   2.303  13.542
 4405TIP3    H134706   2.926   2.311  13.578
 4405TIP3    H234707   3.065   2.262  13.612
 4406TIP3   OH234708   3.195   2.208  13.737
 4406TIP3    H134709   3.195   2.112  13.725
 4406TIP3    H234710   3.170   2.221  13.828
 4407TIP3   OH234711   2.162   2.267  13.648
 4407TIP3    H134712   2.162   2.186  13.597
 4407TIP3    H234713   2.173   2.238  13.739
 4408TIP3   OH234714   2.611   1.901  13.552
 4408TIP3    H134715   2.668   1.824  13.547
 4408TIP3    H234716   2.607   1.933  13.462
 4409TIP3   OH234717   2.696   2.056  13.764
 4409TIP3    H134718   2.669   2.004  13.688
 4409TIP3    H234719   2.635   2.129  13.765
 4410TIP3   OH234720   2.677   3.770  12.103
 4410TIP3    H134721   2.766   3.739  12.088
 4410TIP3    H234722   2.661   3.834  12.033
 4411TIP3   OH234723   2.023   3.240  12.002
 4411TIP3    H134724   2.118   3.235  12.016
 4411TIP3    H234725   2.005   3.174  11.935
 4412TIP3   OH234726   1.890   3.727  12.537
 4412TIP3    H134727   1.836   3.697  12.464
 4412TIP3    H234728   1.908   3.648  12.588
 4413TIP3   OH234729   1.961   3.505  12.694
 4413TIP3    H134730   1.926   3.432  12.745
 4413TIP3    H234731   2.010   3.558  12.758
 4414TIP3   OH234732   3.724   3.594  13.021
 4414TIP3    H134733   3.725   3.593  13.117
 4414TIP3    H234734   3.809   3.631  12.997
 4415TIP3   OH234735   3.691   3.557  13.299
 4415TIP3    H134736   3.630   3.493  13.263
 4415TIP3    H234737   3.725   3.516  13.378
 4416TIP3   OH234738   3.537   3.173  13.779
 4416TIP3    H134739   3.451   3.185  13.820
 4416TIP3    H234740   3.591   3.243  13.816
 4417TIP3   OH234741   3.664   3.009  12.309
 4417TIP3    H134742   3.736   3.072  12.307
 4417TIP3    H234743   3.687   2.948  12.378
 4418TIP3   OH234744   3.721   2.805  12.492
 4418TIP3    H134745   3.635   2.775  12.522
 4418TIP3    H234746   3.771   2.818  12.572
 4419TIP3   OH234747   3.696   3.092  13.010
 4419TIP3    H134748   3.745   3.024  12.965
 4419TIP3    H234749   3.724   3.173  12.968
 4420TIP3   OH234750   3.504   3.380  13.201
 4420TIP3    H134751   3.433   3.425  13.246
 4420TIP3    H234752   3.471   3.364  13.112
 4421TIP3   OH234753   3.704   2.812  12.119
 4421TIP3    H134754   3.657   2.836  12.039
 4421TIP3    H234755   3.685   2.883  12.180
 4422TIP3   OH234756   3.529   2.508  11.939
 4422TIP3    H134757   3.515   2.569  11.867
 4422TIP3    H234758   3.514   2.421  11.900
 4423TIP3   OH234759   3.466   2.691  12.539
 4423TIP3    H134760   3.462   2.602  12.504
 4423TIP3    H234761   3.423   2.686  12.624
 4424TIP3   OH234762   1.946   2.868  12.959
 4424TIP3    H134763   1.957   2.855  12.865
 4424TIP3    H234764   2.029   2.841  12.998
 4425TIP3   OH234765   3.554   2.869  13.520
 4425TIP3    H134766   3.611   2.795  13.502
 4425TIP3    H234767   3.605   2.946  13.492
 4426TIP3   OH234768   3.693   2.630  13.497
 4426TIP3    H134769   3.605   2.598  13.519
 4426TIP3    H234770   3.751   2.558  13.521
 4427TIP3   OH234771   3.474   2.256  11.837
 4427TIP3    H134772   3.514   2.209  11.910
 4427TIP3    H234773   3.381   2.232  11.842
 4428TIP3   OH234774   3.453   2.441  12.369
 4428TIP3    H134775   3.486   2.352  12.374
 4428TIP3    H234776   3.515   2.486  12.311
 4429TIP3   OH234777   3.476   2.469  12.938
 4429TIP3    H134778   3.567   2.484  12.914
 4429TIP3    H234779   3.472   2.490  13.031
 4430TIP3   OH234780   3.502   2.554  13.205
 4430TIP3    H134781   3.424   2.583  13.252
 4430TIP3    H234782   3.553   2.634  13.193
 4431TIP3   OH234783   1.938   2.389  13.539
 4431TIP3    H134784   2.021   2.364  13.580
 4431TIP3    H234785   1.882   2.312  13.549
 4432TIP3   OH234786   3.746   1.971  13.728
 4432TIP3    H134787   3.813   1.914  13.689
 4432TIP3    H234788   3.738   2.043  13.665
 4433TIP3   OH234789   3.520   2.169  12.394
 4433TIP3    H134790   3.539   2.126  12.478
 4433TIP3    H234791   3.451   2.116  12.354
 4434TIP3   OH234792   2.091   2.238  12.798
 4434TIP3    H134793   2.114   2.147  12.820
 4434TIP3    H234794   2.157   2.290  12.844
 4435TIP3   OH234795   1.854   2.516  12.940
 4435TIP3    H134796   1.924   2.535  12.877
 4435TIP3    H234797   1.870   2.577  13.012
 4436TIP3   OH234798   3.669   2.162  13.547
 4436TIP3    H134799   3.592   2.204  13.585
 4436TIP3    H234800   3.636   2.114  13.471
 4437TIP3   OH234801   3.639   2.140  12.032
 4437TIP3    H134802   3.693   2.086  11.974
 4437TIP3    H234803   3.699   2.208  12.064
 4438TIP3   OH234804   1.922   2.167  12.335
 4438TIP3    H134805   1.827   2.160  12.335
 4438TIP3    H234806   1.941   2.238  12.274
 4439TIP3   OH234807   3.397   3.677  12.568
 4439TIP3    H134808   3.460   3.666  12.498
 4439TIP3    H234809   3.436   3.743  12.626
 4440TIP3   OH234810   1.910   2.015  13.187
 4440TIP3    H134811   1.837   1.995  13.246
 4440TIP3    H234812   1.875   2.081  13.127
 4441TIP3   OH234813   2.125   3.377  13.598
 4441TIP3    H134814   2.036   3.386  13.563
 4441TIP3    H234815   2.112   3.351  13.690
 4442TIP3   OH234816   2.454   3.480  13.235
 4442TIP3    H134817   2.424   3.568  13.212
 4442TIP3    H234818   2.548   3.481  13.216
 4443TIP3   OH234819   2.819   3.599  13.510
 4443TIP3    H134820   2.829   3.568  13.600
 4443TIP3    H234821   2.897   3.652  13.494
 4444TIP3   OH234822   3.052   3.743  13.477
 4444TIP3    H134823   3.119   3.690  13.433
 4444TIP3    H234824   3.097   3.779  13.554
 4445TIP3   OH234825   3.583   1.967  13.357
 4445TIP3    H134826   3.526   2.000  13.287
 4445TIP3    H234827   3.599   1.875  13.333
 4446TIP3   OH234828   2.147   3.752  13.255
 4446TIP3    H134829   2.069   3.790  13.215
 4446TIP3    H234830   2.159   3.802  13.336
 4447TIP3   OH234831   2.408   3.743  13.167
 4447TIP3    H134832   2.317   3.751  13.192
 4447TIP3    H234833   2.413   3.788  13.082
 4448TIP3   OH234834   2.861   3.718  13.072
 4448TIP3    H134835   2.808   3.752  13.000
 4448TIP3    H234836   2.869   3.792  13.133
 4449TIP3   OH234837   3.097   3.605  13.162
 4449TIP3    H134838   3.015   3.640  13.127
 4449TIP3    H234839   3.163   3.670  13.140
 4450TIP3   OH234840   3.351   3.749  13.168
 4450TIP3    H134841   3.359   3.840  13.140
 4450TIP3    H234842   3.383   3.698  13.094
 4451TIP3   OH234843   2.115   3.625  12.901
 4451TIP3    H134844   2.104   3.583  12.986
 4451TIP3    H234845   2.194   3.587  12.864
 4452TIP3   OH234846   2.332   3.496  12.799
 4452TIP3    H134847   2.319   3.404  12.820
 4452TIP3    H234848   2.417   3.518  12.836
 4453TIP3   OH234849   2.589   3.522  12.911
 4453TIP3    H134850   2.601   3.432  12.879
 4453TIP3    H234851   2.623   3.521  13.000
 4454TIP3   OH234852   2.896   2.038  12.769
 4454TIP3    H134853   2.813   2.003  12.800
 4454TIP3    H234854   2.884   2.049  12.675
 4455TIP3   OH234855   3.393   1.992  12.814
 4455TIP3    H134856   3.472   2.007  12.761
 4455TIP3    H234857   3.325   1.976  12.749
 4456TIP3   OH234858   3.595   2.021  12.627
 4456TIP3    H134859   3.662   1.959  12.597
 4456TIP3    H234860   3.644   2.101  12.646
 4457TIP3   OH234861   2.143   1.959  12.554
 4457TIP3    H134862   2.051   1.941  12.538
 4457TIP3    H234863   2.187   1.875  12.538
 4458TIP3   OH234864   2.082   1.982  12.191
 4458TIP3    H134865   2.111   2.037  12.118
 4458TIP3    H234866   2.027   2.039  12.244
 4459TIP3   OH234867   2.622   1.935  12.572
 4459TIP3    H134868   2.696   1.988  12.543
 4459TIP3    H234869   2.631   1.933  12.668
 4460TIP3   OH234870   3.173   1.943  12.649
 4460TIP3    H134871   3.156   2.002  12.575
 4460TIP3    H234872   3.195   1.860  12.608
 4461TIP3   OH234873   3.309   2.007  12.307
 4461TIP3    H134874   3.230   2.061  12.314
 4461TIP3    H234875   3.277   1.917  12.314
 4462TIP3   OH234876   2.026   3.596  12.264
 4462TIP3    H134877   1.946   3.585  12.212
 4462TIP3    H234878   2.058   3.683  12.241
 4463TIP3   OH234879   2.242   2.130  11.988
 4463TIP3    H134880   2.281   2.061  11.934
 4463TIP3    H234881   2.310   2.155  12.049
 4464TIP3   OH234882   2.687   2.197  12.234
 4464TIP3    H134883   2.711   2.108  12.259
 4464TIP3    H234884   2.727   2.253  12.301
 4465TIP3   OH234885   2.927   3.659  12.074
 4465TIP3    H134886   3.021   3.677  12.062
 4465TIP3    H234887   2.902   3.611  11.995
 4466TIP3   OH234888   3.582   3.641  12.366
 4466TIP3    H134889   3.566   3.553  12.333
 4466TIP3    H234890   3.567   3.698  12.290
 4467TIP3   OH234891   2.163   2.019  13.514
 4467TIP3    H134892   2.105   1.947  13.541
 4467TIP3    H234893   2.244   2.004  13.563
 4468TIP3   OH234894   2.367   1.954  13.688
 4468TIP3    H134895   2.450   1.926  13.651
 4468TIP3    H234896   2.332   1.875  13.730
 4469TIP3   OH234897   2.244   3.631  11.935
 4469TIP3    H134898   2.237   3.634  12.031
 4469TIP3    H234899   2.319   3.574  11.919
 4470TIP3   OH234900   3.225   1.933  13.698
 4470TIP3    H134901   3.212   1.883  13.779
 4470TIP3    H234902   3.317   1.919  13.675
 4471TIP3   OH234903   3.488   3.507  13.564
 4471TIP3    H134904   3.427   3.497  13.491
 4471TIP3    H234905   3.478   3.599  13.591
 4472TIP3   OH234906   4.961   2.915  12.530
 4472TIP3    H134907   4.942   3.008  12.528
 4472TIP3    H234908   4.893   2.876  12.475
 4473TIP3   OH234909   4.848   2.831  12.939
 4473TIP3    H134910   4.877   2.787  13.018
 4473TIP3    H234911   4.797   2.764  12.892
 4474TIP3   OH234912   4.059   2.754  13.059
 4474TIP3    H134913   4.073   2.685  13.124
 4474TIP3    H234914   4.147   2.776  13.029
 4475TIP3   OH234915   5.240   3.135  12.762
 4475TIP3    H134916   5.197   3.061  12.806
 4475TIP3    H234917   5.252   3.199  12.832
 4476TIP3   OH234918   4.198   3.235  12.860
 4476TIP3    H134919   4.165   3.148  12.838
 4476TIP3    H234920   4.292   3.223  12.874
 4477TIP3   OH234921   3.841   2.569  12.395
 4477TIP3    H134922   3.813   2.654  12.428
 4477TIP3    H234923   3.779   2.548  12.325
 4478TIP3   OH234924   3.907   2.818  12.704
 4478TIP3    H134925   3.940   2.729  12.719
 4478TIP3    H234926   3.985   2.873  12.713
 4479TIP3   OH234927   4.966   3.607  12.790
 4479TIP3    H134928   4.995   3.559  12.712
 4479TIP3    H234929   4.953   3.539  12.856
 4480TIP3   OH234930   4.690   3.081  12.943
 4480TIP3    H134931   4.732   3.003  12.907
 4480TIP3    H234932   4.754   3.117  13.005
 4481TIP3   OH234933   5.584   2.215  13.046
 4481TIP3    H134934   5.598   2.287  13.107
 4481TIP3    H234935   5.636   2.238  12.969
 4482TIP3   OH234936   4.992   2.500  12.948
 4482TIP3    H134937   5.002   2.406  12.962
 4482TIP3    H234938   4.981   2.508  12.853
 4483TIP3   OH234939   4.346   2.298  12.678
 4483TIP3    H134940   4.352   2.384  12.636
 4483TIP3    H234941   4.291   2.247  12.619
 4484TIP3   OH234942   5.126   2.338  12.530
 4484TIP3    H134943   5.165   2.306  12.612
 4484TIP3    H234944   5.199   2.374  12.480
 4485TIP3   OH234945   3.983   2.556  12.766
 4485TIP3    H134946   4.049   2.516  12.821
 4485TIP3    H234947   4.001   2.523  12.678
 4486TIP3   OH234948   4.455   2.702  12.742
 4486TIP3    H134949   4.543   2.671  12.765
 4486TIP3    H234950   4.422   2.636  12.681
 4487TIP3   OH234951   5.617   2.390  13.263
 4487TIP3    H134952   5.539   2.442  13.246
 4487TIP3    H234953   5.635   2.403  13.356
 4488TIP3   OH234954   4.208   2.224  13.103
 4488TIP3    H134955   4.186   2.283  13.031
 4488TIP3    H234956   4.138   2.237  13.166
 4489TIP3   OH234957   4.877   3.164  12.451
 4489TIP3    H134958   4.883   3.170  12.356
 4489TIP3    H234959   4.846   3.251  12.479
 4490TIP3   OH234960   4.462   3.000  13.077
 4490TIP3    H134961   4.415   3.074  13.115
 4490TIP3    H234962   4.536   3.040  13.030
 4491TIP3   OH234963   5.212   2.286  12.785
 4491TIP3    H134964   5.145   2.258  12.847
 4491TIP3    H234965   5.270   2.343  12.835
 4492TIP3   OH234966   4.180   2.392  12.884
 4492TIP3    H134967   4.237   2.449  12.935
 4492TIP3    H234968   4.238   2.355  12.817
 4493TIP3   OH234969   4.322   3.208  13.194
 4493TIP3    H134970   4.328   3.303  13.188
 4493TIP3    H234971   4.232   3.191  13.221
 4494TIP3   OH234972   3.884   3.181  12.281
 4494TIP3    H134973   3.881   3.213  12.191
 4494TIP3    H234974   3.909   3.257  12.333
 4495TIP3   OH234975   5.257   3.341  12.963
 4495TIP3    H134976   5.162   3.344  12.975
 4495TIP3    H234977   5.281   3.430  12.937
 4496TIP3   OH234978   5.337   2.111  13.135
 4496TIP3    H134979   5.269   2.152  13.082
 4496TIP3    H234980   5.419   2.138  13.094
 4497TIP3   OH234981   4.562   1.910  12.864
 4497TIP3    H134982   4.536   1.818  12.865
 4497TIP3    H234983   4.483   1.957  12.890
 4498TIP3   OH234984   5.077   3.492  12.561
 4498TIP3    H134985   5.115   3.406  12.547
 4498TIP3    H234986   5.152   3.550  12.571
 4499TIP3   OH234987   5.206   3.259  12.516
 4499TIP3    H134988   5.226   3.198  12.445
 4499TIP3    H234989   5.220   3.208  12.596
 4500TIP3   OH234990   5.382   3.117  13.314
 4500TIP3    H134991   5.366   3.062  13.237
 4500TIP3    H234992   5.394   3.205  13.277
 4501TIP3   OH234993   4.811   2.826  12.309
 4501TIP3    H134994   4.747   2.892  12.286
 4501TIP3    H234995   4.880   2.835  12.243
 4502TIP3   OH234996   4.847   2.715  11.961
 4502TIP3    H134997   4.901   2.738  12.036
 4502TIP3    H234998   4.898   2.650  11.914
 4503TIP3   OH234999   5.534   2.788  13.154
 4503TIP3    H135000   5.460   2.848  13.140
 4503TIP3    H235001   5.594   2.809  13.082
 4504TIP3   OH235002   5.181   2.854  12.379
 4504TIP3    H135003   5.111   2.875  12.441
 4504TIP3    H235004   5.244   2.804  12.431
 4505TIP3   OH235005   5.145   2.646  13.345
 4505TIP3    H135006   5.138   2.720  13.406
 4505TIP3    H235007   5.082   2.667  13.276
 4506TIP3   OH235008   4.322   2.893  12.581
 4506TIP3    H135009   4.300   2.855  12.496
 4506TIP3    H235010   4.376   2.826  12.624
 4507TIP3   OH235011   4.483   3.257  12.845
 4507TIP3    H135012   4.481   3.265  12.749
 4507TIP3    H235013   4.559   3.201  12.863
 4508TIP3   OH235014   4.314   2.805  12.955
 4508TIP3    H135015   4.367   2.776  12.881
 4508TIP3    H235016   4.367   2.872  12.998
 4509TIP3   OH235017   4.991   3.361  13.025
 4509TIP3    H135018   4.982   3.429  13.092
 4509TIP3    H235019   4.950   3.284  13.064
 4510TIP3   OH235020   4.479   3.217  13.424
 4510TIP3    H135021   4.414   3.272  13.469
 4510TIP3    H235022   4.437   3.192  13.342
 4511TIP3   OH235023   5.048   2.780  12.148
 4511TIP3    H135024   5.100   2.816  12.220
 4511TIP3    H235025   5.102   2.795  12.070
 4512TIP3   OH235026   4.135   2.803  13.404
 4512TIP3    H135027   4.148   2.890  13.442
 4512TIP3    H235028   4.046   2.806  13.369
 4513TIP3   OH235029   4.811   3.433  12.504
 4513TIP3    H135030   4.901   3.455  12.528
 4513TIP3    H235031   4.786   3.501  12.441
 4514TIP3   OH235032   4.273   3.386  13.495
 4514TIP3    H135033   4.273   3.426  13.408
 4514TIP3    H235034   4.181   3.381  13.520
 4515TIP3   OH235035   5.410   1.925  12.152
 4515TIP3    H135036   5.326   1.951  12.191
 4515TIP3    H235037   5.446   2.005  12.116
 4516TIP3   OH235038   4.241   2.804  12.324
 4516TIP3    H135039   4.184   2.873  12.290
 4516TIP3    H235040   4.193   2.723  12.305
 4517TIP3   OH235041   5.556   3.367  12.010
 4517TIP3    H135042   5.568   3.461  12.006
 4517TIP3    H235043   5.645   3.331  12.005
 4518TIP3   OH235044   3.841   3.063  13.249
 4518TIP3    H135045   3.788   3.069  13.169
 4518TIP3    H235046   3.854   2.969  13.262
 4519TIP3   OH235047   3.810   3.338  12.934
 4519TIP3    H135048   3.892   3.341  12.984
 4519TIP3    H235049   3.760   3.413  12.966
 4520TIP3   OH235050   5.631   3.425  13.525
 4520TIP3    H135051   5.621   3.330  13.512
 4520TIP3    H235052   5.545   3.454  13.555
 4521TIP3   OH235053   4.712   3.356  13.378
 4521TIP3    H135054   4.705   3.439  13.427
 4521TIP3    H235055   4.630   3.311  13.397
 4522TIP3   OH235056   4.790   3.693  12.352
 4522TIP3    H135057   4.770   3.704  12.259
 4522TIP3    H235058   4.768   3.777  12.392
 4523TIP3   OH235059   4.151   3.575  12.551
 4523TIP3    H135060   4.161   3.540  12.640
 4523TIP3    H235061   4.091   3.513  12.508
 4524TIP3   OH235062   5.080   3.667  12.040
 4524TIP3    H135063   5.127   3.592  12.004
 4524TIP3    H235064   5.088   3.656  12.135
 4525TIP3   OH235065   5.060   3.642  12.317
 4525TIP3    H135066   4.966   3.656  12.330
 4525TIP3    H235067   5.084   3.579  12.385
 4526TIP3   OH235068   5.331   2.524  13.533
 4526TIP3    H135069   5.264   2.562  13.476
 4526TIP3    H235070   5.337   2.433  13.506
 4527TIP3   OH235071   4.068   3.208  13.303
 4527TIP3    H135072   4.094   3.175  13.389
 4527TIP3    H235073   3.988   3.159  13.281
 4528TIP3   OH235074   4.312   2.019  12.943
 4528TIP3    H135075   4.236   2.011  12.885
 4528TIP3    H235076   4.291   2.094  12.999
 4529TIP3   OH235077   4.792   2.002  13.294
 4529TIP3    H135078   4.838   1.953  13.362
 4529TIP3    H235079   4.700   1.993  13.317
 4530TIP3   OH235080   5.080   2.373  13.364
 4530TIP3    H135081   5.021   2.360  13.438
 4530TIP3    H235082   5.088   2.469  13.357
 4531TIP3   OH235083   5.192   2.796  11.912
 4531TIP3    H135084   5.169   2.828  11.825
 4531TIP3    H235085   5.283   2.823  11.924
 4532TIP3   OH235086   4.743   2.231  12.016
 4532TIP3    H135087   4.685   2.229  12.093
 4532TIP3    H235088   4.708   2.164  11.958
 4533TIP3   OH235089   4.327   2.547  13.061
 4533TIP3    H135090   4.264   2.545  13.133
 4533TIP3    H235091   4.330   2.639  13.034
 4534TIP3   OH235092   4.324   2.543  12.555
 4534TIP3    H135093   4.228   2.533  12.551
 4534TIP3    H235094   4.353   2.529  12.465
 4535TIP3   OH235095   4.864   2.579  12.423
 4535TIP3    H135096   4.839   2.666  12.389
 4535TIP3    H235097   4.934   2.550  12.365
 4536TIP3   OH235098   4.789   2.587  13.542
 4536TIP3    H135099   4.739   2.514  13.580
 4536TIP3    H235100   4.874   2.583  13.587
 4537TIP3   OH235101   4.967   2.517  12.676
 4537TIP3    H135102   4.922   2.562  12.605
 4537TIP3    H235103   5.014   2.445  12.633
 4538TIP3   OH235104   4.119   2.548  13.242
 4538TIP3    H135105   4.121   2.595  13.325
 4538TIP3    H235106   4.078   2.464  13.263
 4539TIP3   OH235107   4.431   2.278  11.912
 4539TIP3    H135108   4.399   2.269  12.001
 4539TIP3    H235109   4.373   2.342  11.872
 4540TIP3   OH235110   3.762   2.230  12.642
 4540TIP3    H135111   3.822   2.249  12.714
 4540TIP3    H235112   3.815   2.240  12.563
 4541TIP3   OH235113   3.806   2.341  12.127
 4541TIP3    H135114   3.874   2.381  12.073
 4541TIP3    H235115   3.747   2.413  12.149
 4542TIP3   OH235116   4.938   2.667  13.154
 4542TIP3    H135117   4.967   2.611  13.081
 4542TIP3    H235118   4.868   2.617  13.196
 4543TIP3   OH235119   4.632   2.257  12.637
 4543TIP3    H135120   4.543   2.261  12.671
 4543TIP3    H235121   4.684   2.223  12.710
 4544TIP3   OH235122   4.061   2.458  12.523
 4544TIP3    H135123   3.989   2.486  12.467
 4544TIP3    H235124   4.081   2.369  12.493
 4545TIP3   OH235125   4.389   2.474  12.297
 4545TIP3    H135126   4.483   2.466  12.314
 4545TIP3    H235127   4.384   2.513  12.210
 4546TIP3   OH235128   5.002   2.223  12.960
 4546TIP3    H135129   4.962   2.226  13.047
 4546TIP3    H235130   4.936   2.181  12.905
 4547TIP3   OH235131   4.359   2.562  12.039
 4547TIP3    H135132   4.306   2.537  11.964
 4547TIP3    H235133   4.434   2.608  12.002
 4548TIP3   OH235134   5.382   3.787  13.620
 4548TIP3    H135135   5.408   3.816  13.532
 4548TIP3    H235136   5.455   3.811  13.676
 4549TIP3   OH235137   4.134   3.049  13.542
 4549TIP3    H135138   4.201   3.045  13.611
 4549TIP3    H235139   4.052   3.062  13.589
 4550TIP3   OH235140   4.699   2.597  12.838
 4550TIP3    H135141   4.770   2.548  12.796
 4550TIP3    H235142   4.669   2.540  12.908
 4551TIP3   OH235143   4.165   2.194  12.483
 4551TIP3    H135144   4.114   2.117  12.508
 4551TIP3    H235145   4.201   2.173  12.397
 4552TIP3   OH235146   4.589   2.454  13.055
 4552TIP3    H135147   4.504   2.496  13.065
 4552TIP3    H235148   4.639   2.482  13.131
 4553TIP3   OH235149   4.616   3.020  12.234
 4553TIP3    H135150   4.545   2.977  12.186
 4553TIP3    H235151   4.578   3.040  12.320
 4554TIP3   OH235152   5.341   2.972  13.083
 4554TIP3    H135153   5.402   3.026  13.033
 4554TIP3    H235154   5.270   2.954  13.021
 4555TIP3   OH235155   4.995   2.279  12.112
 4555TIP3    H135156   4.905   2.278  12.078
 4555TIP3    H235157   5.008   2.369  12.142
 4556TIP3   OH235158   4.789   3.062  13.389
 4556TIP3    H135159   4.815   3.022  13.472
 4556TIP3    H235160   4.759   3.150  13.412
 4557TIP3   OH235161   5.070   2.515  12.244
 4557TIP3    H135162   5.159   2.499  12.276
 4557TIP3    H235163   5.075   2.603  12.205
 4558TIP3   OH235164   4.147   2.960  12.782
 4558TIP3    H135165   4.203   2.950  12.705
 4558TIP3    H235166   4.190   2.909  12.850
 4559TIP3   OH235167   4.839   3.162  12.167
 4559TIP3    H135168   4.813   3.254  12.172
 4559TIP3    H235169   4.759   3.114  12.186
 4560TIP3   OH235170   3.859   2.797  13.340
 4560TIP3    H135171   3.835   2.754  13.422
 4560TIP3    H235172   3.789   2.773  13.279
 4561TIP3   OH235173   4.582   2.776  13.566
 4561TIP3    H135174   4.514   2.737  13.511
 4561TIP3    H235175   4.660   2.724  13.547
 4562TIP3   OH235176   4.993   3.341  13.380
 4562TIP3    H135177   4.901   3.345  13.357
 4562TIP3    H235178   4.995   3.350  13.475
 4563TIP3   OH235179   5.526   2.559  12.190
 4563TIP3    H135180   5.479   2.539  12.109
 4563TIP3    H235181   5.555   2.649  12.179
 4564TIP3   OH235182   5.604   3.153  13.476
 4564TIP3    H135183   5.512   3.146  13.448
 4564TIP3    H235184   5.654   3.128  13.399
 4565TIP3   OH235185   5.421   3.396  12.255
 4565TIP3    H135186   5.364   3.322  12.276
 4565TIP3    H235187   5.459   3.374  12.170
 4566TIP3   OH235188   5.136   2.904  12.897
 4566TIP3    H135189   5.041   2.896  12.896
 4566TIP3    H235190   5.167   2.827  12.850
 4567TIP3   OH235191   4.421   3.325  12.581
 4567TIP3    H135192   4.454   3.408  12.545
 4567TIP3    H235193   4.329   3.322  12.552
 4568TIP3   OH235194   3.970   2.780  12.052
 4568TIP3    H135195   4.015   2.850  12.100
 4568TIP3    H235196   3.879   2.788  12.078
 4569TIP3   OH235197   4.486   3.083  12.461
 4569TIP3    H135198   4.481   3.167  12.507
 4569TIP3    H235199   4.429   3.025  12.511
 4570TIP3   OH235200   4.603   3.502  13.160
 4570TIP3    H135201   4.663   3.574  13.141
 4570TIP3    H235202   4.653   3.443  13.217
 4571TIP3   OH235203   4.415   3.590  12.475
 4571TIP3    H135204   4.321   3.597  12.490
 4571TIP3    H235205   4.450   3.675  12.502
 4572TIP3   OH235206   4.890   3.120  13.136
 4572TIP3    H135207   4.854   3.100  13.222
 4572TIP3    H235208   4.960   3.056  13.123
 4573TIP3   OH235209   5.197   3.214  12.049
 4573TIP3    H135210   5.207   3.175  12.136
 4573TIP3    H235211   5.111   3.183  12.019
 4574TIP3   OH235212   5.203   3.528  13.351
 4574TIP3    H135213   5.123   3.476  13.343
 4574TIP3    H235214   5.193   3.599  13.288
 4575TIP3   OH235215   5.596   3.640  12.025
 4575TIP3    H135216   5.629   3.702  11.961
 4575TIP3    H235217   5.525   3.686  12.070
 4576TIP3   OH235218   4.000   2.290  13.277
 4576TIP3    H135219   3.909   2.314  13.262
 4576TIP3    H235220   3.997   2.222  13.344
 4577TIP3   OH235221   5.284   3.097  12.292
 4577TIP3    H135222   5.240   3.016  12.318
 4577TIP3    H235223   5.377   3.074  12.289
 4578TIP3   OH235224   3.993   3.445  13.157
 4578TIP3    H135225   4.029   3.363  13.192
 4578TIP3    H235226   3.979   3.500  13.234
 4579TIP3   OH235227   4.597   3.270  11.892
 4579TIP3    H135228   4.585   3.188  11.844
 4579TIP3    H235229   4.536   3.264  11.966
 4580TIP3   OH235230   4.440   3.244  12.123
 4580TIP3    H135231   4.494   3.186  12.176
 4580TIP3    H235232   4.453   3.331  12.162
 4581TIP3   OH235233   4.074   2.991  12.203
 4581TIP3    H135234   4.006   3.041  12.246
 4581TIP3    H235235   4.121   3.054  12.148
 4582TIP3   OH235236   4.889   2.245  13.210
 4582TIP3    H135237   4.961   2.269  13.268
 4582TIP3    H235238   4.856   2.162  13.245
 4583TIP3   OH235239   4.977   2.169  12.366
 4583TIP3    H135240   4.983   2.208  12.279
 4583TIP3    H235241   5.021   2.232  12.423
 4584TIP3   OH235242   4.749   3.416  12.194
 4584TIP3    H135243   4.658   3.434  12.215
 4584TIP3    H235244   4.782   3.497  12.156
 4585TIP3   OH235245   4.643   2.414  12.407
 4585TIP3    H135246   4.718   2.474  12.412
 4585TIP3    H235247   4.641   2.372  12.493
 4586TIP3   OH235248   4.759   2.494  13.273
 4586TIP3    H135249   4.766   2.514  13.366
 4586TIP3    H235250   4.795   2.406  13.264
 4587TIP3   OH235251   4.735   2.069  12.455
 4587TIP3    H135252   4.709   2.138  12.516
 4587TIP3    H235253   4.823   2.095  12.426
 4588TIP3   OH235254   4.486   3.490  12.228
 4588TIP3    H135255   4.483   3.561  12.165
 4588TIP3    H235256   4.461   3.531  12.311
 4589TIP3   OH235257   4.326   2.230  12.169
 4589TIP3    H135258   4.320   2.315  12.213
 4589TIP3    H235259   4.412   2.196  12.194
 4590TIP3   OH235260   5.333   2.278  13.385
 4590TIP3    H135261   5.240   2.300  13.377
 4590TIP3    H235262   5.354   2.231  13.304
 4591TIP3   OH235263   5.210   2.654  12.775
 4591TIP3    H135264   5.126   2.613  12.755
 4591TIP3    H235265   5.253   2.592  12.835
 4592TIP3   OH235266   4.182   3.188  12.038
 4592TIP3    H135267   4.261   3.228  12.076
 4592TIP3    H235268   4.215   3.134  11.966
 4593TIP3   OH235269   3.954   2.513  11.973
 4593TIP3    H135270   3.976   2.597  12.013
 4593TIP3    H235271   3.935   2.533  11.882
 4594TIP3   OH235272   5.339   3.609  12.949
 4594TIP3    H135273   5.322   3.681  12.888
 4594TIP3    H235274   5.434   3.607  12.958
 4595TIP3   OH235275   4.060   1.998  12.823
 4595TIP3    H135276   4.051   1.989  12.728
 4595TIP3    H235277   4.027   1.915  12.858
 4596TIP3   OH235278   3.949   3.423  12.427
 4596TIP3    H135279   3.884   3.445  12.494
 4596TIP3    H235280   3.931   3.484  12.355
 4597TIP3   OH235281   3.903   3.660  13.637
 4597TIP3    H135282   3.980   3.654  13.694
 4597TIP3    H235283   3.877   3.569  13.621
 4598TIP3   OH235284   4.355   3.506  13.730
 4598TIP3    H135285   4.431   3.458  13.761
 4598TIP3    H235286   4.332   3.464  13.648
 4599TIP3   OH235287   4.767   3.481  11.866
 4599TIP3    H135288   4.706   3.409  11.881
 4599TIP3    H235289   4.846   3.439  11.833
 4600TIP3   OH235290   4.993   3.364  13.652
 4600TIP3    H135291   4.982   3.282  13.700
 4600TIP3    H235292   5.067   3.407  13.695
 4601TIP3   OH235293   5.208   3.457  11.918
 4601TIP3    H135294   5.222   3.378  11.969
 4601TIP3    H235295   5.278   3.457  11.854
 4602TIP3   OH235296   3.886   3.052  13.671
 4602TIP3    H135297   3.889   2.956  13.667
 4602TIP3    H235298   3.811   3.076  13.617
 4603TIP3   OH235299   4.311   3.007  11.878
 4603TIP3    H135300   4.337   2.965  11.960
 4603TIP3    H235301   4.393   3.023  11.832
 4604TIP3   OH235302   4.554   3.051  13.632
 4604TIP3    H135303   4.538   3.096  13.549
 4604TIP3    H235304   4.579   2.962  13.607
 4605TIP3   OH235305   4.959   3.141  11.921
 4605TIP3    H135306   4.906   3.143  12.001
 4605TIP3    H235307   4.923   3.068  11.870
 4606TIP3   OH235308   5.117   3.087  13.395
 4606TIP3    H135309   5.208   3.108  13.372
 4606TIP3    H235310   5.070   3.170  13.381
 4607TIP3   OH235311   3.955   2.782  13.651
 4607TIP3    H135312   4.042   2.767  13.613
 4607TIP3    H235313   3.970   2.779  13.746
 4608TIP3   OH235314   4.412   2.884  12.108
 4608TIP3    H135315   4.364   2.839  12.177
 4608TIP3    H235316   4.460   2.814  12.063
 4609TIP3   OH235317   4.385   2.668  13.390
 4609TIP3    H135318   4.305   2.720  13.391
 4609TIP3    H235319   4.439   2.707  13.322
 4610TIP3   OH235320   4.568   2.716  11.947
 4610TIP3    H135321   4.562   2.742  11.856
 4610TIP3    H235322   4.662   2.711  11.965
 4611TIP3   OH235323   4.885   2.920  13.654
 4611TIP3    H135324   4.964   2.882  13.614
 4611TIP3    H235325   4.854   2.853  13.714
 4612TIP3   OH235326   5.450   2.896  11.887
 4612TIP3    H135327   5.458   2.879  11.793
 4612TIP3    H235328   5.444   2.991  11.893
 4613TIP3   OH235329   4.421   2.403  13.456
 4613TIP3    H135330   4.433   2.349  13.378
 4613TIP3    H235331   4.413   2.492  13.423
 4614TIP3   OH235332   4.458   2.253  13.218
 4614TIP3    H135333   4.512   2.300  13.154
 4614TIP3    H235334   4.372   2.247  13.176
 4615TIP3   OH235335   4.559   2.786  13.220
 4615TIP3    H135336   4.651   2.805  13.240
 4615TIP3    H235337   4.529   2.862  13.171
 4616TIP3   OH235338   5.024   2.563  13.708
 4616TIP3    H135339   5.058   2.474  13.703
 4616TIP3    H235340   5.099   2.615  13.737
 4617TIP3   OH235341   5.155   2.858  13.534
 4617TIP3    H135342   5.129   2.938  13.489
 4617TIP3    H235343   5.251   2.858  13.529
 4618TIP3   OH235344   4.257   2.453  13.679
 4618TIP3    H135345   4.176   2.404  13.666
 4618TIP3    H235346   4.305   2.442  13.597
 4619TIP3   OH235347   4.512   1.990  13.296
 4619TIP3    H135348   4.494   2.081  13.272
 4619TIP3    H235349   4.444   1.940  13.251
 4620TIP3   OH235350   4.640   2.370  13.626
 4620TIP3    H135351   4.602   2.342  13.709
 4620TIP3    H235352   4.566   2.374  13.565
 4621TIP3   OH235353   4.908   2.308  13.561
 4621TIP3    H135354   4.817   2.311  13.592
 4621TIP3    H235355   4.955   2.261  13.629
 4622TIP3   OH235356   5.086   2.199  13.747
 4622TIP3    H135357   5.083   2.104  13.733
 4622TIP3    H235358   5.060   2.210  13.839
 4623TIP3   OH235359   4.045   2.268  13.646
 4623TIP3    H135360   4.049   2.187  13.594
 4623TIP3    H235361   4.057   2.238  13.736
 4624TIP3   OH235362   4.495   1.897  13.553
 4624TIP3    H135363   4.553   1.821  13.546
 4624TIP3    H235364   4.494   1.934  13.465
 4625TIP3   OH235365   4.581   2.054  13.764
 4625TIP3    H135366   4.555   2.001  13.688
 4625TIP3    H235367   4.520   2.128  13.763
 4626TIP3   OH235368   4.512   3.687  12.039
 4626TIP3    H135369   4.606   3.705  12.033
 4626TIP3    H235370   4.473   3.773  12.057
 4627TIP3   OH235371   3.913   3.234  12.004
 4627TIP3    H135372   4.008   3.234  12.014
 4627TIP3    H235373   3.897   3.171  11.934
 4628TIP3   OH235374   3.763   3.727  12.550
 4628TIP3    H135375   3.709   3.698  12.476
 4628TIP3    H235376   3.781   3.648  12.600
 4629TIP3   OH235377   3.846   3.511  12.700
 4629TIP3    H135378   3.811   3.429  12.736
 4629TIP3    H235379   3.891   3.552  12.774
 4630TIP3   OH235380   5.608   3.606  13.015
 4630TIP3    H135381   5.609   3.608  13.111
 4630TIP3    H235382   5.690   3.648  12.989
 4631TIP3   OH235383   5.557   3.578  13.293
 4631TIP3    H135384   5.501   3.508  13.258
 4631TIP3    H235385   5.603   3.538  13.366
 4632TIP3   OH235386   5.418   3.168  13.774
 4632TIP3    H135387   5.333   3.180  13.816
 4632TIP3    H235388   5.472   3.238  13.811
 4633TIP3   OH235389   5.548   3.009  12.302
 4633TIP3    H135390   5.620   3.072  12.304
 4633TIP3    H235391   5.568   2.947  12.372
 4634TIP3   OH235392   5.597   2.806  12.487
 4634TIP3    H135393   5.511   2.772  12.514
 4634TIP3    H235394   5.646   2.814  12.569
 4635TIP3   OH235395   5.582   3.098  13.013
 4635TIP3    H135396   5.632   3.031  12.967
 4635TIP3    H235397   5.610   3.180  12.973
 4636TIP3   OH235398   5.386   3.373  13.209
 4636TIP3    H135399   5.315   3.419  13.254
 4636TIP3    H235400   5.352   3.358  13.121
 4637TIP3   OH235401   5.593   2.815  12.110
 4637TIP3    H135402   5.546   2.837  12.029
 4637TIP3    H235403   5.572   2.886  12.171
 4638TIP3   OH235404   5.407   2.514  11.949
 4638TIP3    H135405   5.387   2.572  11.875
 4638TIP3    H235406   5.396   2.426  11.914
 4639TIP3   OH235407   5.345   2.687  12.534
 4639TIP3    H135408   5.341   2.598  12.499
 4639TIP3    H235409   5.304   2.681  12.620
 4640TIP3   OH235410   3.825   2.847  12.962
 4640TIP3    H135411   3.838   2.842  12.867
 4640TIP3    H235412   3.909   2.824  12.999
 4641TIP3   OH235413   5.432   2.863  13.511
 4641TIP3    H135414   5.493   2.791  13.498
 4641TIP3    H235415   5.461   2.931  13.451
 4642TIP3   OH235416   5.582   2.630  13.500
 4642TIP3    H135417   5.494   2.594  13.514
 4642TIP3    H235418   5.641   2.558  13.524
 4643TIP3   OH235419   5.357   2.264  11.844
 4643TIP3    H135420   5.399   2.213  11.913
 4643TIP3    H235421   5.265   2.238  11.846
 4644TIP3   OH235422   5.335   2.444  12.367
 4644TIP3    H135423   5.365   2.353  12.370
 4644TIP3    H235424   5.399   2.488  12.312
 4645TIP3   OH235425   5.358   2.470  12.937
 4645TIP3    H135426   5.450   2.479  12.913
 4645TIP3    H235427   5.355   2.490  13.030
 4646TIP3   OH235428   5.391   2.556  13.203
 4646TIP3    H135429   5.312   2.586  13.248
 4646TIP3    H235430   5.442   2.636  13.190
 4647TIP3   OH235431   3.824   2.388  13.531
 4647TIP3    H135432   3.907   2.365  13.572
 4647TIP3    H235433   3.768   2.312  13.545
 4648TIP3   OH235434   5.629   1.966  13.722
 4648TIP3    H135435   5.699   1.911  13.685
 4648TIP3    H235436   5.621   2.038  13.660
 4649TIP3   OH235437   5.400   2.172  12.386
 4649TIP3    H135438   5.418   2.132  12.471
 4649TIP3    H235439   5.332   2.116  12.348
 4650TIP3   OH235440   3.932   2.241  12.866
 4650TIP3    H135441   3.973   2.155  12.859
 4650TIP3    H235442   4.005   2.302  12.874
 4651TIP3   OH235443   3.743   2.537  12.916
 4651TIP3    H135444   3.815   2.528  12.854
 4651TIP3    H235445   3.767   2.614  12.968
 4652TIP3   OH235446   5.554   2.159  13.543
 4652TIP3    H135447   5.477   2.201  13.581
 4652TIP3    H235448   5.521   2.116  13.464
 4653TIP3   OH235449   5.526   2.141  12.028
 4653TIP3    H135450   5.582   2.084  11.975
 4653TIP3    H235451   5.585   2.208  12.063
 4654TIP3   OH235452   3.806   2.168  12.340
 4654TIP3    H135453   3.711   2.161  12.353
 4654TIP3    H235454   3.816   2.234  12.271
 4655TIP3   OH235455   5.281   3.668  12.565
 4655TIP3    H135456   5.348   3.660  12.498
 4655TIP3    H235457   5.318   3.728  12.630
 4656TIP3   OH235458   3.810   2.000  13.187
 4656TIP3    H135459   3.743   1.995  13.255
 4656TIP3    H235460   3.779   2.069  13.127
 4657TIP3   OH235461   4.012   3.371  13.594
 4657TIP3    H135462   3.921   3.371  13.565
 4657TIP3    H235463   4.008   3.349  13.687
 4658TIP3   OH235464   4.339   3.485  13.235
 4658TIP3    H135465   4.310   3.574  13.213
 4658TIP3    H235466   4.433   3.486  13.219
 4659TIP3   OH235467   4.710   3.600  13.511
 4659TIP3    H135468   4.719   3.567  13.601
 4659TIP3    H235469   4.790   3.650  13.495
 4660TIP3   OH235470   4.947   3.738  13.476
 4660TIP3    H135471   5.010   3.682  13.431
 4660TIP3    H235472   4.995   3.771  13.553
 4661TIP3   OH235473   5.464   1.961  13.352
 4661TIP3    H135474   5.403   1.990  13.284
 4661TIP3    H235475   5.483   1.870  13.330
 4662TIP3   OH235476   4.039   3.805  13.232
 4662TIP3    H135477   3.954   3.834  13.198
 4662TIP3    H235478   4.034   3.821  13.326
 4663TIP3   OH235479   4.295   3.751  13.154
 4663TIP3    H135480   4.207   3.770  13.186
 4663TIP3    H235481   4.288   3.757  13.059
 4664TIP3   OH235482   4.755   3.719  13.079
 4664TIP3    H135483   4.715   3.756  13.001
 4664TIP3    H235484   4.765   3.793  13.139
 4665TIP3   OH235485   4.982   3.597  13.172
 4665TIP3    H135486   4.903   3.636  13.135
 4665TIP3    H235487   5.051   3.660  13.152
 4666TIP3   OH235488   5.222   3.741  13.160
 4666TIP3    H135489   5.242   3.833  13.140
 4666TIP3    H235490   5.260   3.692  13.088
 4667TIP3   OH235491   3.998   3.611  12.935
 4667TIP3    H135492   3.998   3.561  13.016
 4667TIP3    H235493   4.073   3.579  12.886
 4668TIP3   OH235494   4.215   3.503  12.813
 4668TIP3    H135495   4.200   3.410  12.827
 4668TIP3    H235496   4.304   3.518  12.844
 4669TIP3   OH235497   4.477   3.528  12.915
 4669TIP3    H135498   4.486   3.439  12.879
 4669TIP3    H235499   4.513   3.522  13.003
 4670TIP3   OH235500   4.795   2.098  12.804
 4670TIP3    H135501   4.735   2.027  12.826
 4670TIP3    H235502   4.869   2.054  12.762
 4671TIP3   OH235503   5.296   1.952  12.802
 4671TIP3    H135504   5.357   2.006  12.752
 4671TIP3    H235505   5.210   1.991  12.785
 4672TIP3   OH235506   5.480   2.045  12.620
 4672TIP3    H135507   5.543   1.977  12.597
 4672TIP3    H235508   5.533   2.122  12.637
 4673TIP3   OH235509   4.028   1.960  12.551
 4673TIP3    H135510   3.938   1.941  12.527
 4673TIP3    H235511   4.075   1.877  12.537
 4674TIP3   OH235512   3.957   1.983  12.180
 4674TIP3    H135513   4.005   2.037  12.117
 4674TIP3    H235514   3.913   2.046  12.237
 4675TIP3   OH235515   4.529   1.920  12.580
 4675TIP3    H135516   4.599   1.969  12.536
 4675TIP3    H235517   4.550   1.926  12.673
 4676TIP3   OH235518   5.018   1.966  12.706
 4676TIP3    H135519   5.055   1.946  12.620
 4676TIP3    H235520   5.002   1.881  12.745
 4677TIP3   OH235521   5.192   2.003  12.301
 4677TIP3    H135522   5.115   2.058  12.318
 4677TIP3    H235523   5.159   1.914  12.313
 4678TIP3   OH235524   3.902   3.606  12.227
 4678TIP3    H135525   3.831   3.600  12.163
 4678TIP3    H235526   3.928   3.698  12.227
 4679TIP3   OH235527   4.130   2.124  11.994
 4679TIP3    H135528   4.181   2.067  11.936
 4679TIP3    H235529   4.194   2.159  12.056
 4680TIP3   OH235530   4.590   2.200  12.246
 4680TIP3    H135531   4.625   2.127  12.297
 4680TIP3    H235532   4.609   2.278  12.298
 4681TIP3   OH235533   4.801   3.663  12.066
 4681TIP3    H135534   4.892   3.690  12.055
 4681TIP3    H235535   4.783   3.607  11.990
 4682TIP3   OH235536   5.472   3.641  12.366
 4682TIP3    H135537   5.457   3.552  12.333
 4682TIP3    H235538   5.459   3.697  12.290
 4683TIP3   OH235539   4.051   2.020  13.504
 4683TIP3    H135540   3.993   1.951  13.537
 4683TIP3    H235541   4.133   2.007  13.552
 4684TIP3   OH235542   4.252   1.956  13.681
 4684TIP3    H135543   4.336   1.930  13.645
 4684TIP3    H235544   4.219   1.878  13.725
 4685TIP3   OH235545   4.044   3.592  11.930
 4685TIP3    H135546   4.034   3.615  12.023
 4685TIP3    H235547   4.138   3.580  11.919
 4686TIP3   OH235548   5.108   1.926  13.696
 4686TIP3    H135549   5.098   1.877  13.777
 4686TIP3    H235550   5.199   1.913  13.671
 4687TIP3   OH235551   5.375   3.514  13.571
 4687TIP3    H135552   5.314   3.509  13.497
 4687TIP3    H235553   5.372   3.606  13.597
 4688TIP3   OH235554   6.825   2.924  12.539
 4688TIP3    H135555   6.805   3.017  12.530
 4688TIP3    H235556   6.775   2.882  12.468
 4689TIP3   OH235557   6.734   2.796  12.932
 4689TIP3    H135558   6.765   2.759  13.014
 4689TIP3    H235559   6.687   2.725  12.889
 4690TIP3   OH235560   5.947   2.766  13.070
 4690TIP3    H135561   5.954   2.691  13.130
 4690TIP3    H235562   6.038   2.792  13.053
 4691TIP3   OH235563   7.100   3.144  12.767
 4691TIP3    H135564   7.068   3.066  12.811
 4691TIP3    H235565   7.123   3.204  12.838
 4692TIP3   OH235566   6.074   3.222  12.880
 4692TIP3    H135567   6.044   3.138  12.846
 4692TIP3    H235568   6.125   3.199  12.958
 4693TIP3   OH235569   5.739   2.579  12.393
 4693TIP3    H135570   5.703   2.662  12.426
 4693TIP3    H235571   5.676   2.551  12.327
 4694TIP3   OH235572   5.784   2.808  12.700
 4694TIP3    H135573   5.814   2.718  12.717
 4694TIP3    H235574   5.863   2.861  12.705
 4695TIP3   OH235575   6.815   3.574  12.825
 4695TIP3    H135576   6.843   3.528  12.746
 4695TIP3    H235577   6.818   3.508  12.894
 4696TIP3   OH235578   6.627   3.045  12.894
 4696TIP3    H135579   6.655   2.954  12.903
 4696TIP3    H235580   6.673   3.091  12.964
 4697TIP3   OH235581   6.890   2.484  12.948
 4697TIP3    H135582   6.895   2.390  12.962
 4697TIP3    H235583   6.868   2.493  12.855
 4698TIP3   OH235584   6.236   2.313  12.673
 4698TIP3    H135585   6.242   2.399  12.632
 4698TIP3    H235586   6.181   2.261  12.613
 4699TIP3   OH235587   6.990   2.324  12.527
 4699TIP3    H135588   7.027   2.278  12.603
 4699TIP3    H235589   7.066   2.348  12.475
 4700TIP3   OH235590   5.868   2.553  12.767
 4700TIP3    H135591   5.933   2.511  12.824
 4700TIP3    H235592   5.889   2.522  12.679
 4701TIP3   OH235593   6.360   2.712  12.740
 4701TIP3    H135594   6.444   2.675  12.766
 4701TIP3    H235595   6.323   2.648  12.680
 4702TIP3   OH235596   6.093   2.222  13.103
 4702TIP3    H135597   6.071   2.280  13.030
 4702TIP3    H235598   6.021   2.234  13.165
 4703TIP3   OH235599   6.701   3.167  12.482
 4703TIP3    H135600   6.726   3.153  12.391
 4703TIP3    H235601   6.691   3.262  12.490
 4704TIP3   OH235602   6.369   3.007  13.073
 4704TIP3    H135603   6.318   3.078  13.111
 4704TIP3    H235604   6.437   3.052  13.022
 4705TIP3   OH235605   7.078   2.233  12.769
 4705TIP3    H135606   7.008   2.217  12.833
 4705TIP3    H235607   7.148   2.275  12.820
 4706TIP3   OH235608   6.069   2.390  12.883
 4706TIP3    H135609   6.124   2.448  12.936
 4706TIP3    H235610   6.127   2.356  12.815
 4707TIP3   OH235611   6.200   3.207  13.174
 4707TIP3    H135612   6.213   3.302  13.179
 4707TIP3    H235613   6.114   3.192  13.213
 4708TIP3   OH235614   5.766   3.185  12.279
 4708TIP3    H135615   5.764   3.222  12.191
 4708TIP3    H235616   5.791   3.258  12.336
 4709TIP3   OH235617   7.124   3.351  12.969
 4709TIP3    H135618   7.029   3.361  12.975
 4709TIP3    H235619   7.156   3.439  12.947
 4710TIP3   OH235620   7.141   2.116  13.059
 4710TIP3    H135621   7.050   2.138  13.039
 4710TIP3    H235622   7.190   2.193  13.031
 4711TIP3   OH235623   6.448   1.910  12.864
 4711TIP3    H135624   6.425   1.817  12.864
 4711TIP3    H235625   6.367   1.954  12.891
 4712TIP3   OH235626   6.923   3.456  12.603
 4712TIP3    H135627   6.964   3.375  12.573
 4712TIP3    H235628   6.995   3.520  12.603
 4713TIP3   OH235629   7.077   3.253  12.514
 4713TIP3    H135630   7.109   3.195  12.445
 4713TIP3    H235631   7.095   3.206  12.596
 4714TIP3   OH235632   7.229   3.068  13.336
 4714TIP3    H135633   7.220   3.018  13.254
 4714TIP3    H235634   7.256   3.155  13.308
 4715TIP3   OH235635   6.706   2.832  12.307
 4715TIP3    H135636   6.636   2.890  12.279
 4715TIP3    H235637   6.769   2.834  12.235
 4716TIP3   OH235638   6.752   2.689  11.968
 4716TIP3    H135639   6.812   2.717  12.037
 4716TIP3    H235640   6.804   2.631  11.913
 4717TIP3   OH235641   7.055   2.869  12.390
 4717TIP3    H135642   6.987   2.890  12.454
 4717TIP3    H235643   7.108   2.802  12.433
 4718TIP3   OH235644   7.016   2.640  13.346
 4718TIP3    H135645   6.999   2.711  13.408
 4718TIP3    H235646   6.952   2.654  13.276
 4719TIP3   OH235647   6.198   2.888  12.577
 4719TIP3    H135648   6.166   2.852  12.494
 4719TIP3    H235649   6.249   2.816  12.616
 4720TIP3   OH235650   6.398   3.240  12.775
 4720TIP3    H135651   6.333   3.258  12.707
 4720TIP3    H235652   6.396   3.318  12.831
 4721TIP3   OH235653   6.216   2.808  12.958
 4721TIP3    H135654   6.268   2.779  12.884
 4721TIP3    H235655   6.271   2.873  13.002
 4722TIP3   OH235656   6.850   3.374  13.017
 4722TIP3    H135657   6.847   3.436  13.091
 4722TIP3    H235658   6.820   3.292  13.054
 4723TIP3   OH235659   6.354   3.224  13.422
 4723TIP3    H135660   6.289   3.280  13.465
 4723TIP3    H235661   6.311   3.194  13.342
 4724TIP3   OH235662   6.946   2.787  12.148
 4724TIP3    H135663   6.988   2.824  12.226
 4724TIP3    H235664   6.997   2.823  12.075
 4725TIP3   OH235665   6.023   2.809  13.395
 4725TIP3    H135666   6.033   2.895  13.436
 4725TIP3    H235667   5.932   2.808  13.364
 4726TIP3   OH235668   6.667   3.433  12.514
 4726TIP3    H135669   6.753   3.449  12.553
 4726TIP3    H235670   6.652   3.509  12.458
 4727TIP3   OH235671   6.154   3.399  13.494
 4727TIP3    H135672   6.155   3.434  13.405
 4727TIP3    H235673   6.061   3.392  13.516
 4728TIP3   OH235674   7.267   1.866  12.151
 4728TIP3    H135675   7.195   1.921  12.181
 4728TIP3    H235676   7.339   1.927  12.135
 4729TIP3   OH235677   6.106   2.801  12.327
 4729TIP3    H135678   6.055   2.872  12.288
 4729TIP3    H235679   6.058   2.722  12.306
 4730TIP3   OH235680   5.730   3.065  13.251
 4730TIP3    H135681   5.677   3.072  13.172
 4730TIP3    H235682   5.742   2.971  13.265
 4731TIP3   OH235683   5.692   3.348  12.939
 4731TIP3    H135684   5.773   3.356  12.990
 4731TIP3    H235685   5.641   3.425  12.964
 4732TIP3   OH235686   6.586   3.363  13.375
 4732TIP3    H135687   6.583   3.445  13.424
 4732TIP3    H235688   6.504   3.319  13.397
 4733TIP3   OH235689   6.697   3.674  12.366
 4733TIP3    H135690   6.683   3.681  12.271
 4733TIP3    H235691   6.677   3.761  12.400
 4734TIP3   OH235692   6.024   3.592  12.556
 4734TIP3    H135693   6.045   3.552  12.640
 4734TIP3    H235694   5.967   3.529  12.513
 4735TIP3   OH235695   6.964   3.665  12.055
 4735TIP3    H135696   7.006   3.591  12.010
 4735TIP3    H235697   6.985   3.653  12.147
 4736TIP3   OH235698   6.980   3.634  12.335
 4736TIP3    H135699   6.888   3.632  12.362
 4736TIP3    H235700   7.029   3.610  12.414
 4737TIP3   OH235701   7.184   2.553  13.569
 4737TIP3    H135702   7.152   2.589  13.486
 4737TIP3    H235703   7.261   2.502  13.545
 4738TIP3   OH235704   5.959   3.210  13.307
 4738TIP3    H135705   5.982   3.172  13.392
 4738TIP3    H235706   5.878   3.165  13.283
 4739TIP3   OH235707   6.200   2.019  12.943
 4739TIP3    H135708   6.124   2.009  12.886
 4739TIP3    H235709   6.177   2.093  13.000
 4740TIP3   OH235710   6.673   2.010  13.294
 4740TIP3    H135711   6.720   1.959  13.360
 4740TIP3    H235712   6.581   1.998  13.316
 4741TIP3   OH235713   6.996   2.357  13.370
 4741TIP3    H135714   6.928   2.347  13.438
 4741TIP3    H235715   7.006   2.452  13.360
 4742TIP3   OH235716   7.085   2.881  11.928
 4742TIP3    H135717   7.038   2.856  11.848
 4742TIP3    H235718   7.159   2.933  11.897
 4743TIP3   OH235719   6.625   2.233  12.019
 4743TIP3    H135720   6.565   2.231  12.093
 4743TIP3    H235721   6.593   2.166  11.960
 4744TIP3   OH235722   6.211   2.548  13.060
 4744TIP3    H135723   6.146   2.547  13.131
 4744TIP3    H235724   6.216   2.640  13.034
 4745TIP3   OH235725   6.215   2.564  12.557
 4745TIP3    H135726   6.121   2.551  12.554
 4745TIP3    H235727   6.244   2.548  12.467
 4746TIP3   OH235728   6.750   2.584  12.425
 4746TIP3    H135729   6.728   2.670  12.389
 4746TIP3    H235730   6.821   2.552  12.368
 4747TIP3   OH235731   6.673   2.590  13.540
 4747TIP3    H135732   6.625   2.518  13.581
 4747TIP3    H235733   6.761   2.585  13.578
 4748TIP3   OH235734   6.848   2.509  12.679
 4748TIP3    H135735   6.808   2.561  12.609
 4748TIP3    H235736   6.893   2.438  12.633
 4749TIP3   OH235737   6.000   2.546  13.238
 4749TIP3    H135738   6.005   2.588  13.324
 4749TIP3    H235739   5.961   2.460  13.256
 4750TIP3   OH235740   6.320   2.281  11.914
 4750TIP3    H135741   6.285   2.273  12.002
 4750TIP3    H235742   6.262   2.344  11.870
 4751TIP3   OH235743   5.660   2.244  12.633
 4751TIP3    H135744   5.720   2.255  12.707
 4751TIP3    H235745   5.716   2.239  12.556
 4752TIP3   OH235746   5.690   2.342  12.129
 4752TIP3    H135747   5.761   2.382  12.079
 4752TIP3    H235748   5.632   2.415  12.151
 4753TIP3   OH235749   6.816   2.648  13.152
 4753TIP3    H135750   6.849   2.589  13.084
 4753TIP3    H235751   6.747   2.597  13.195
 4754TIP3   OH235752   6.520   2.261  12.642
 4754TIP3    H135753   6.430   2.267  12.672
 4754TIP3    H235754   6.567   2.219  12.714
 4755TIP3   OH235755   5.958   2.469  12.523
 4755TIP3    H135756   5.885   2.497  12.467
 4755TIP3    H235757   5.977   2.379  12.493
 4756TIP3   OH235758   6.278   2.483  12.302
 4756TIP3    H135759   6.371   2.469  12.317
 4756TIP3    H235760   6.274   2.520  12.214
 4757TIP3   OH235761   6.878   2.206  12.966
 4757TIP3    H135762   6.841   2.218  13.053
 4757TIP3    H235763   6.807   2.167  12.915
 4758TIP3   OH235764   6.251   2.568  12.042
 4758TIP3    H135765   6.199   2.541  11.967
 4758TIP3    H235766   6.329   2.610  12.004
 4759TIP3   OH235767   7.246   3.802  13.593
 4759TIP3    H135768   7.248   3.884  13.544
 4759TIP3    H235769   7.339   3.783  13.610
 4760TIP3   OH235770   6.020   3.051  13.541
 4760TIP3    H135771   6.087   3.044  13.609
 4760TIP3    H235772   5.938   3.061  13.588
 4761TIP3   OH235773   6.587   2.576  12.834
 4761TIP3    H135774   6.648   2.518  12.788
 4761TIP3    H235775   6.553   2.522  12.906
 4762TIP3   OH235776   6.054   2.202  12.483
 4762TIP3    H135777   6.005   2.124  12.510
 4762TIP3    H235778   6.090   2.180  12.397
 4763TIP3   OH235779   6.472   2.449  13.057
 4763TIP3    H135780   6.387   2.493  13.066
 4763TIP3    H235781   6.521   2.474  13.135
 4764TIP3   OH235782   6.494   3.020  12.264
 4764TIP3    H135783   6.424   2.978  12.214
 4764TIP3    H235784   6.457   3.034  12.351
 4765TIP3   OH235785   7.185   2.944  13.097
 4765TIP3    H135786   7.266   2.929  13.048
 4765TIP3    H235787   7.116   2.937  13.031
 4766TIP3   OH235788   6.878   2.285  12.108
 4766TIP3    H135789   6.788   2.284  12.074
 4766TIP3    H235790   6.892   2.375  12.137
 4767TIP3   OH235791   6.647   3.072  13.357
 4767TIP3    H135792   6.698   3.036  13.429
 4767TIP3    H235793   6.629   3.162  13.384
 4768TIP3   OH235794   6.956   2.521  12.246
 4768TIP3    H135795   7.043   2.501  12.281
 4768TIP3    H235796   6.967   2.607  12.205
 4769TIP3   OH235797   6.033   2.951  12.791
 4769TIP3    H135798   6.087   2.943  12.712
 4769TIP3    H235799   6.079   2.898  12.856
 4770TIP3   OH235800   6.715   3.157  12.184
 4770TIP3    H135801   6.688   3.248  12.182
 4770TIP3    H235802   6.635   3.108  12.201
 4771TIP3   OH235803   5.744   2.798  13.340
 4771TIP3    H135804   5.718   2.752  13.420
 4771TIP3    H235805   5.677   2.774  13.276
 4772TIP3   OH235806   6.465   2.777  13.570
 4772TIP3    H135807   6.397   2.739  13.514
 4772TIP3    H235808   6.544   2.728  13.549
 4773TIP3   OH235809   6.866   3.337  13.371
 4773TIP3    H135810   6.774   3.352  13.350
 4773TIP3    H235811   6.873   3.356  13.465
 4774TIP3   OH235812   7.267   3.413  12.215
 4774TIP3    H135813   7.210   3.400  12.290
 4774TIP3    H235814   7.233   3.352  12.148
 4775TIP3   OH235815   7.001   2.906  12.890
 4775TIP3    H135816   6.908   2.886  12.896
 4775TIP3    H235817   7.038   2.834  12.840
 4776TIP3   OH235818   6.260   3.316  12.545
 4776TIP3    H135819   6.293   3.403  12.521
 4776TIP3    H235820   6.165   3.323  12.534
 4777TIP3   OH235821   5.861   2.780  12.046
 4777TIP3    H135822   5.903   2.852  12.093
 4777TIP3    H235823   5.768   2.787  12.069
 4778TIP3   OH235824   6.392   3.075  12.522
 4778TIP3    H135825   6.347   3.159  12.516
 4778TIP3    H235826   6.323   3.012  12.541
 4779TIP3   OH235827   6.489   3.488  13.143
 4779TIP3    H135828   6.539   3.568  13.128
 4779TIP3    H235829   6.540   3.440  13.208
 4780TIP3   OH235830   6.290   3.586  12.478
 4780TIP3    H135831   6.200   3.609  12.497
 4780TIP3    H235832   6.342   3.657  12.516
 4781TIP3   OH235833   6.778   3.121  13.118
 4781TIP3    H135834   6.728   3.102  13.198
 4781TIP3    H235835   6.865   3.085  13.136
 4782TIP3   OH235836   7.074   3.226  12.064
 4782TIP3    H135837   7.087   3.179  12.146
 4782TIP3    H235838   6.989   3.195  12.032
 4783TIP3   OH235839   7.100   3.522  13.324
 4783TIP3    H135840   7.013   3.484  13.311
 4783TIP3    H235841   7.101   3.600  13.268
 4784TIP3   OH235842   5.884   2.288  13.276
 4784TIP3    H135843   5.793   2.314  13.261
 4784TIP3    H235844   5.879   2.219  13.341
 4785TIP3   OH235845   7.168   3.103  12.295
 4785TIP3    H135846   7.142   3.016  12.325
 4785TIP3    H235847   7.264   3.102  12.300
 4786TIP3   OH235848   5.882   3.477  13.147
 4786TIP3    H135849   5.913   3.404  13.200
 4786TIP3    H235850   5.896   3.554  13.201
 4787TIP3   OH235851   6.443   3.299  11.887
 4787TIP3    H135852   6.447   3.216  11.839
 4787TIP3    H235853   6.398   3.277  11.969
 4788TIP3   OH235854   6.321   3.275  12.136
 4788TIP3    H135855   6.389   3.233  12.189
 4788TIP3    H235856   6.326   3.368  12.161
 4789TIP3   OH235857   5.955   2.994  12.199
 4789TIP3    H135858   5.885   3.044  12.241
 4789TIP3    H235859   6.003   3.059  12.148
 4790TIP3   OH235860   6.784   2.249  13.219
 4790TIP3    H135861   6.860   2.265  13.275
 4790TIP3    H235862   6.747   2.167  13.252
 4791TIP3   OH235863   6.844   2.164  12.354
 4791TIP3    H135864   6.856   2.205  12.268
 4791TIP3    H235865   6.890   2.223  12.414
 4792TIP3   OH235866   6.609   3.406  12.186
 4792TIP3    H135867   6.524   3.446  12.205
 4792TIP3    H235868   6.663   3.479  12.154
 4793TIP3   OH235869   6.530   2.416  12.411
 4793TIP3    H135870   6.606   2.475  12.414
 4793TIP3    H235871   6.530   2.373  12.496
 4794TIP3   OH235872   6.636   2.484  13.278
 4794TIP3    H135873   6.645   2.510  13.370
 4794TIP3    H235874   6.678   2.398  13.273
 4795TIP3   OH235875   6.610   2.068  12.456
 4795TIP3    H135876   6.588   2.138  12.517
 4795TIP3    H235877   6.695   2.093  12.420
 4796TIP3   OH235878   6.366   3.532  12.219
 4796TIP3    H135879   6.374   3.616  12.174
 4796TIP3    H235880   6.339   3.555  12.308
 4797TIP3   OH235881   6.206   2.239  12.170
 4797TIP3    H135882   6.200   2.325  12.213
 4797TIP3    H235883   6.292   2.206  12.195
 4798TIP3   OH235884   7.223   2.191  13.385
 4798TIP3    H135885   7.135   2.230  13.378
 4798TIP3    H235886   7.282   2.267  13.385
 4799TIP3   OH235887   7.085   2.661  12.782
 4799TIP3    H135888   7.005   2.610  12.770
 4799TIP3    H235889   7.131   2.616  12.852
 4800TIP3   OH235890   6.071   3.195  12.046
 4800TIP3    H135891   6.145   3.242  12.085
 4800TIP3    H235892   6.109   3.140  11.979
 4801TIP3   OH235893   5.851   2.508  11.985
 4801TIP3    H135894   5.867   2.598  12.016
 4801TIP3    H235895   5.851   2.516  11.889
 4802TIP3   OH235896   7.230   3.615  12.933
 4802TIP3    H135897   7.214   3.683  12.868
 4802TIP3    H235898   7.325   3.605  12.933
 4803TIP3   OH235899   5.949   1.994  12.824
 4803TIP3    H135900   5.941   1.987  12.729
 4803TIP3    H235901   5.916   1.911  12.858
 4804TIP3   OH235902   5.835   3.421  12.431
 4804TIP3    H135903   5.774   3.446  12.501
 4804TIP3    H235904   5.816   3.482  12.360
 4805TIP3   OH235905   5.797   3.675  13.629
 4805TIP3    H135906   5.864   3.649  13.692
 4805TIP3    H235907   5.761   3.592  13.597
 4806TIP3   OH235908   6.226   3.498  13.741
 4806TIP3    H135909   6.304   3.448  13.767
 4806TIP3    H235910   6.206   3.467  13.653
 4807TIP3   OH235911   6.640   3.490  11.874
 4807TIP3    H135912   6.573   3.422  11.885
 4807TIP3    H235913   6.716   3.443  11.838
 4808TIP3   OH235914   6.856   3.376  13.643
 4808TIP3    H135915   6.844   3.292  13.687
 4808TIP3    H235916   6.931   3.416  13.687
 4809TIP3   OH235917   7.073   3.461  11.911
 4809TIP3    H135918   7.095   3.380  11.957
 4809TIP3    H235919   7.140   3.469  11.844
 4810TIP3   OH235920   5.774   3.056  13.674
 4810TIP3    H135921   5.775   2.961  13.668
 4810TIP3    H235922   5.702   3.083  13.616
 4811TIP3   OH235923   6.208   3.014  11.896
 4811TIP3    H135924   6.238   2.967  11.973
 4811TIP3    H235925   6.288   3.028  11.844
 4812TIP3   OH235926   6.435   3.058  13.631
 4812TIP3    H135927   6.421   3.100  13.547
 4812TIP3    H235928   6.467   2.970  13.609
 4813TIP3   OH235929   6.837   3.147  11.934
 4813TIP3    H135930   6.786   3.143  12.015
 4813TIP3    H235931   6.811   3.069  11.885
 4814TIP3   OH235932   6.957   3.074  13.378
 4814TIP3    H135933   7.052   3.079  13.363
 4814TIP3    H235934   6.928   3.165  13.373
 4815TIP3   OH235935   5.847   2.786  13.655
 4815TIP3    H135936   5.934   2.765  13.620
 4815TIP3    H235937   5.858   2.781  13.750
 4816TIP3   OH235938   6.309   2.877  12.119
 4816TIP3    H135939   6.251   2.823  12.173
 4816TIP3    H235940   6.362   2.814  12.070
 4817TIP3   OH235941   6.270   2.669  13.388
 4817TIP3    H135942   6.191   2.723  13.386
 4817TIP3    H235943   6.325   2.707  13.319
 4818TIP3   OH235944   6.470   2.715  11.958
 4818TIP3    H135945   6.463   2.742  11.867
 4818TIP3    H235946   6.563   2.698  11.972
 4819TIP3   OH235947   6.759   2.909  13.668
 4819TIP3    H135948   6.834   2.878  13.619
 4819TIP3    H235949   6.738   2.838  13.729
 4820TIP3   OH235950   6.305   2.406  13.462
 4820TIP3    H135951   6.317   2.350  13.385
 4820TIP3    H235952   6.298   2.494  13.426
 4821TIP3   OH235953   6.338   2.254  13.223
 4821TIP3    H135954   6.393   2.299  13.159
 4821TIP3    H235955   6.253   2.246  13.181
 4822TIP3   OH235956   6.448   2.782  13.216
 4822TIP3    H135957   6.540   2.790  13.238
 4822TIP3    H235958   6.427   2.864  13.170
 4823TIP3   OH235959   6.919   2.542  13.687
 4823TIP3    H135960   6.919   2.446  13.694
 4823TIP3    H235961   7.007   2.563  13.657
 4824TIP3   OH235962   6.995   2.851  13.531
 4824TIP3    H135963   6.971   2.927  13.478
 4824TIP3    H235964   7.090   2.858  13.540
 4825TIP3   OH235965   6.140   2.459  13.681
 4825TIP3    H135966   6.060   2.407  13.669
 4825TIP3    H235967   6.189   2.447  13.600
 4826TIP3   OH235968   6.394   1.991  13.297
 4826TIP3    H135969   6.375   2.082  13.274
 4826TIP3    H235970   6.327   1.940  13.251
 4827TIP3   OH235971   6.530   2.371  13.626
 4827TIP3    H135972   6.500   2.342  13.712
 4827TIP3    H235973   6.451   2.374  13.572
 4828TIP3   OH235974   6.789   2.306  13.540
 4828TIP3    H135975   6.699   2.311  13.571
 4828TIP3    H235976   6.834   2.254  13.606
 4829TIP3   OH235977   6.954   2.200  13.732
 4829TIP3    H135978   6.957   2.105  13.724
 4829TIP3    H235979   6.935   2.216  13.824
 4830TIP3   OH235980   5.933   2.267  13.650
 4830TIP3    H135981   5.939   2.189  13.595
 4830TIP3    H235982   5.947   2.236  13.739
 4831TIP3   OH235983   6.380   1.898  13.554
 4831TIP3    H135984   6.438   1.823  13.548
 4831TIP3    H235985   6.380   1.935  13.465
 4832TIP3   OH235986   6.462   2.054  13.766
 4832TIP3    H135987   6.440   2.002  13.689
 4832TIP3    H235988   6.401   2.128  13.764
 4833TIP3   OH235989   6.440   3.772  12.102
 4833TIP3    H135990   6.530   3.742  12.097
 4833TIP3    H235991   6.432   3.836  12.031
 4834TIP3   OH235992   5.804   3.244  11.998
 4834TIP3    H135993   5.898   3.243  12.015
 4834TIP3    H235994   5.789   3.173  11.936
 4835TIP3   OH235995   5.657   3.734  12.546
 4835TIP3    H135996   5.603   3.703  12.473
 4835TIP3    H235997   5.677   3.655  12.596
 4836TIP3   OH235998   5.732   3.509  12.692
 4836TIP3    H135999   5.696   3.432  12.736
 4836TIP3    H236000   5.784   3.553  12.760
 4837TIP3   OH236001   7.252   3.161  13.765
 4837TIP3    H136002   7.170   3.174  13.812
 4837TIP3    H236003   7.318   3.206  13.818
 4838TIP3   OH236004   7.255   3.314  13.216
 4838TIP3    H136005   7.213   3.389  13.260
 4838TIP3    H236006   7.219   3.315  13.128
 4839TIP3   OH236007   7.304   2.499  11.928
 4839TIP3    H136008   7.263   2.553  11.860
 4839TIP3    H236009   7.279   2.409  11.904
 4840TIP3   OH236010   7.179   2.667  12.521
 4840TIP3    H136011   7.183   2.574  12.501
 4840TIP3    H236012   7.159   2.671  12.615
 4841TIP3   OH236013   5.714   2.856  12.960
 4841TIP3    H136014   5.725   2.844  12.866
 4841TIP3    H236015   5.799   2.833  12.997
 4842TIP3   OH236016   7.261   2.896  13.548
 4842TIP3    H136017   7.339   2.845  13.528
 4842TIP3    H236018   7.260   2.965  13.480
 4843TIP3   OH236019   7.225   2.245  11.872
 4843TIP3    H136020   7.259   2.156  11.878
 4843TIP3    H236021   7.132   2.234  11.852
 4844TIP3   OH236022   7.220   2.418  12.397
 4844TIP3    H136023   7.266   2.361  12.458
 4844TIP3    H236024   7.268   2.410  12.315
 4845TIP3   OH236025   7.270   2.335  12.939
 4845TIP3    H136026   7.355   2.304  12.909
 4845TIP3    H236027   7.284   2.428  12.957
 4846TIP3   OH236028   7.283   2.602  13.249
 4846TIP3    H136029   7.189   2.618  13.259
 4846TIP3    H236030   7.296   2.591  13.155
 4847TIP3   OH236031   5.709   2.386  13.536
 4847TIP3    H136032   5.793   2.362  13.577
 4847TIP3    H236033   5.654   2.309  13.547
 4848TIP3   OH236034   7.236   2.114  12.433
 4848TIP3    H136035   7.277   2.038  12.475
 4848TIP3    H236036   7.166   2.077  12.380
 4849TIP3   OH236037   5.825   2.240  12.860
 4849TIP3    H136038   5.862   2.152  12.857
 4849TIP3    H236039   5.900   2.298  12.870
 4850TIP3   OH236040   5.629   2.526  12.918
 4850TIP3    H136041   5.699   2.518  12.854
 4850TIP3    H236042   5.656   2.599  12.974
 4851TIP3   OH236043   5.691   2.164  12.337
 4851TIP3    H136044   5.597   2.158  12.353
 4851TIP3    H236045   5.700   2.231  12.269
 4852TIP3   OH236046   7.145   3.610  12.576
 4852TIP3    H136047   7.220   3.560  12.609
 4852TIP3    H236048   7.150   3.693  12.623
 4853TIP3   OH236049   5.692   1.998  13.182
 4853TIP3    H136050   5.623   1.992  13.248
 4853TIP3    H236051   5.663   2.068  13.124
 4854TIP3   OH236052   5.895   3.381  13.599
 4854TIP3    H136053   5.807   3.387  13.563
 4854TIP3    H236054   5.883   3.346  13.687
 4855TIP3   OH236055   6.228   3.477  13.229
 4855TIP3    H136056   6.199   3.566  13.208
 4855TIP3    H236057   6.321   3.476  13.208
 4856TIP3   OH236058   6.585   3.603  13.514
 4856TIP3    H136059   6.599   3.572  13.604
 4856TIP3    H236060   6.666   3.652  13.494
 4857TIP3   OH236061   6.823   3.737  13.473
 4857TIP3    H136062   6.885   3.690  13.417
 4857TIP3    H236063   6.875   3.762  13.550
 4858TIP3   OH236064   5.913   3.747  13.248
 4858TIP3    H136065   5.840   3.800  13.216
 4858TIP3    H236066   5.933   3.785  13.334
 4859TIP3   OH236067   6.178   3.739  13.166
 4859TIP3    H136068   6.085   3.747  13.187
 4859TIP3    H236069   6.188   3.787  13.084
 4860TIP3   OH236070   6.623   3.720  13.082
 4860TIP3    H136071   6.580   3.748  13.002
 4860TIP3    H236072   6.640   3.801  13.130
 4861TIP3   OH236073   6.851   3.598  13.180
 4861TIP3    H136074   6.775   3.641  13.141
 4861TIP3    H236075   6.925   3.654  13.156
 4862TIP3   OH236076   7.087   3.734  13.137
 4862TIP3    H136077   7.107   3.827  13.125
 4862TIP3    H236078   7.137   3.690  13.068
 4863TIP3   OH236079   5.890   3.616  12.907
 4863TIP3    H136080   5.887   3.572  12.992
 4863TIP3    H236081   5.968   3.581  12.865
 4864TIP3   OH236082   6.104   3.482  12.799
 4864TIP3    H136083   6.085   3.391  12.822
 4864TIP3    H236084   6.194   3.496  12.827
 4865TIP3   OH236085   6.371   3.492  12.892
 4865TIP3    H136086   6.419   3.565  12.853
 4865TIP3    H236087   6.405   3.486  12.981
 4866TIP3   OH236088   6.667   2.090  12.811
 4866TIP3    H136089   6.600   2.025  12.832
 4866TIP3    H236090   6.739   2.040  12.774
 4867TIP3   OH236091   7.158   1.945  12.778
 4867TIP3    H136092   7.194   2.034  12.772
 4867TIP3    H236093   7.063   1.958  12.780
 4868TIP3   OH236094   5.919   1.965  12.551
 4868TIP3    H136095   5.827   1.947  12.531
 4868TIP3    H236096   5.963   1.882  12.537
 4869TIP3   OH236097   5.841   1.981  12.175
 4869TIP3    H136098   5.890   2.036  12.115
 4869TIP3    H236099   5.798   2.043  12.234
 4870TIP3   OH236100   6.405   1.924  12.581
 4870TIP3    H136101   6.476   1.970  12.536
 4870TIP3    H236102   6.430   1.926  12.674
 4871TIP3   OH236103   6.880   1.939  12.722
 4871TIP3    H136104   6.899   1.919  12.631
 4871TIP3    H236105   6.863   1.855  12.763
 4872TIP3   OH236106   7.049   1.986  12.284
 4872TIP3    H136107   6.970   2.040  12.296
 4872TIP3    H236108   7.020   1.897  12.299
 4873TIP3   OH236109   5.789   3.599  12.226
 4873TIP3    H136110   5.719   3.594  12.161
 4873TIP3    H236111   5.819   3.690  12.223
 4874TIP3   OH236112   6.014   2.127  11.994
 4874TIP3    H136113   6.066   2.071  11.936
 4874TIP3    H236114   6.078   2.164  12.055
 4875TIP3   OH236115   6.468   2.205  12.247
 4875TIP3    H136116   6.500   2.129  12.295
 4875TIP3    H236117   6.493   2.280  12.300
 4876TIP3   OH236118   6.692   3.660  12.081
 4876TIP3    H136119   6.785   3.680  12.070
 4876TIP3    H236120   6.667   3.613  12.002
 4877TIP3   OH236121   5.939   2.024  13.501
 4877TIP3    H136122   5.882   1.955  13.535
 4877TIP3    H236123   6.022   2.011  13.547
 4878TIP3   OH236124   6.138   1.958  13.680
 4878TIP3    H136125   6.223   1.933  13.643
 4878TIP3    H236126   6.108   1.879  13.727
 4879TIP3   OH236127   6.002   3.632  11.923
 4879TIP3    H136128   5.974   3.619  12.014
 4879TIP3    H236129   6.077   3.574  11.912
 4880TIP3   OH236130   6.986   1.926  13.694
 4880TIP3    H136131   6.978   1.880  13.778
 4880TIP3    H236132   7.078   1.916  13.670
 4881TIP3   OH236133   7.222   3.522  13.575
 4881TIP3    H136134   7.188   3.507  13.487
 4881TIP3    H236135   7.233   3.617  13.582
 4882TIP3   OH236136   1.195   4.808  12.534
 4882TIP3    H136137   1.186   4.902  12.523
 4882TIP3    H236138   1.127   4.770  12.479
 4883TIP3   OH236139   1.080   4.717  12.939
 4883TIP3    H136140   1.107   4.675  13.021
 4883TIP3    H236141   1.030   4.650  12.893
 4884TIP3   OH236142   0.296   4.633  13.049
 4884TIP3    H136143   0.306   4.562  13.112
 4884TIP3    H236144   0.385   4.655  13.023
 4885TIP3   OH236145   1.460   5.027  12.759
 4885TIP3    H136146   1.423   4.950  12.803
 4885TIP3    H236147   1.477   5.089  12.829
 4886TIP3   OH236148   0.411   5.122  12.858
 4886TIP3    H136149   0.387   5.032  12.834
 4886TIP3    H236150   0.504   5.117  12.880
 4887TIP3   OH236151   0.109   4.477  12.440
 4887TIP3    H136152   0.058   4.551  12.474
 4887TIP3    H236153   0.048   4.404  12.440
 4888TIP3   OH236154   0.153   4.714  12.713
 4888TIP3    H136155   0.178   4.623  12.728
 4888TIP3    H236156   0.236   4.762  12.719
 4889TIP3   OH236157   1.199   5.486  12.798
 4889TIP3    H136158   1.230   5.435  12.723
 4889TIP3    H236159   1.178   5.419  12.864
 4890TIP3   OH236160   0.915   4.968  12.946
 4890TIP3    H136161   0.956   4.889  12.910
 4890TIP3    H236162   0.980   5.004  13.006
 4891TIP3   OH236163   1.817   4.098  13.050
 4891TIP3    H136164   1.827   4.171  13.112
 4891TIP3    H236165   1.875   4.120  12.978
 4892TIP3   OH236166   1.228   4.386  12.953
 4892TIP3    H136167   1.235   4.291  12.968
 4892TIP3    H236168   1.211   4.394  12.860
 4893TIP3   OH236169   0.587   4.189  12.679
 4893TIP3    H136170   0.597   4.276  12.640
 4893TIP3    H236171   0.534   4.141  12.615
 4894TIP3   OH236172   1.354   4.220  12.537
 4894TIP3    H136173   1.396   4.189  12.618
 4894TIP3    H236174   1.426   4.259  12.487
 4895TIP3   OH236175   0.210   4.447  12.785
 4895TIP3    H136176   0.283   4.410  12.834
 4895TIP3    H236177   0.219   4.412  12.697
 4896TIP3   OH236178   0.701   4.597  12.744
 4896TIP3    H136179   0.788   4.565  12.770
 4896TIP3    H236180   0.669   4.531  12.682
 4897TIP3   OH236181   1.845   4.278  13.262
 4897TIP3    H136182   1.767   4.330  13.245
 4897TIP3    H236183   1.862   4.290  13.356
 4898TIP3   OH236184   0.430   4.118  13.116
 4898TIP3    H136185   0.403   4.173  13.042
 4898TIP3    H236186   0.363   4.132  13.183
 4899TIP3   OH236187   1.167   5.065  12.432
 4899TIP3    H136188   1.144   5.055  12.340
 4899TIP3    H236189   1.118   5.142  12.461
 4900TIP3   OH236190   0.688   4.890  13.086
 4900TIP3    H136191   0.637   4.962  13.123
 4900TIP3    H236192   0.759   4.933  13.039
 4901TIP3   OH236193   1.446   4.162  12.789
 4901TIP3    H136194   1.375   4.140  12.849
 4901TIP3    H236195   1.501   4.223  12.838
 4902TIP3   OH236196   0.417   4.276  12.885
 4902TIP3    H136197   0.475   4.331  12.936
 4902TIP3    H236198   0.473   4.240  12.816
 4903TIP3   OH236199   0.535   5.093  13.205
 4903TIP3    H136200   0.544   5.187  13.195
 4903TIP3    H236201   0.445   5.080  13.235
 4904TIP3   OH236202   0.115   5.047  12.290
 4904TIP3    H136203   0.121   5.078  12.200
 4904TIP3    H236204   0.145   5.121  12.343
 4905TIP3   OH236205   1.485   5.228  12.960
 4905TIP3    H136206   1.391   5.232  12.974
 4905TIP3    H236207   1.509   5.317  12.935
 4906TIP3   OH236208   1.567   3.994  13.132
 4906TIP3    H136209   1.499   4.037  13.080
 4906TIP3    H236210   1.649   4.022  13.092
 4907TIP3   OH236211   0.788   3.799  12.869
 4907TIP3    H136212   0.759   3.708  12.868
 4907TIP3    H236213   0.710   3.849  12.896
 4908TIP3   OH236214   1.313   5.378  12.568
 4908TIP3    H136215   1.356   5.294  12.551
 4908TIP3    H236216   1.385   5.440  12.574
 4909TIP3   OH236217   1.428   5.138  12.506
 4909TIP3    H136218   1.348   5.096  12.476
 4909TIP3    H236219   1.450   5.092  12.588
 4910TIP3   OH236220   1.604   5.007  13.312
 4910TIP3    H136221   1.591   4.949  13.236
 4910TIP3    H236222   1.616   5.094  13.274
 4911TIP3   OH236223   1.044   4.712  12.320
 4911TIP3    H136224   0.974   4.771  12.292
 4911TIP3    H236225   1.109   4.717  12.249
 4912TIP3   OH236226   1.072   4.595  11.969
 4912TIP3    H136227   1.128   4.618  12.043
 4912TIP3    H236228   1.124   4.532  11.918
 4913TIP3   OH236229   1.764   4.672  13.147
 4913TIP3    H136230   1.690   4.732  13.137
 4913TIP3    H236231   1.824   4.696  13.076
 4914TIP3   OH236232   1.412   4.736  12.383
 4914TIP3    H136233   1.345   4.761  12.446
 4914TIP3    H236234   1.476   4.687  12.435
 4915TIP3   OH236235   1.374   4.532  13.346
 4915TIP3    H136236   1.369   4.605  13.407
 4915TIP3    H236237   1.311   4.553  13.277
 4916TIP3   OH236238   0.564   4.782  12.578
 4916TIP3    H136239   0.538   4.740  12.496
 4916TIP3    H236240   0.619   4.717  12.622
 4917TIP3   OH236241   0.701   5.140  12.850
 4917TIP3    H136242   0.701   5.150  12.755
 4917TIP3    H236243   0.778   5.086  12.868
 4918TIP3   OH236244   0.554   4.689  12.957
 4918TIP3    H136245   0.610   4.664  12.884
 4918TIP3    H236246   0.602   4.757  13.003
 4919TIP3   OH236247   1.220   5.247  13.024
 4919TIP3    H136248   1.206   5.316  13.087
 4919TIP3    H236249   1.179   5.169  13.062
 4920TIP3   OH236250   0.698   5.112  13.430
 4920TIP3    H136251   0.636   5.171  13.473
 4920TIP3    H236252   0.653   5.084  13.350
 4921TIP3   OH236253   1.273   4.665  12.155
 4921TIP3    H136254   1.326   4.701  12.226
 4921TIP3    H236255   1.325   4.680  12.076
 4922TIP3   OH236256   0.403   4.698  13.387
 4922TIP3    H136257   0.409   4.778  13.440
 4922TIP3    H236258   0.318   4.704  13.344
 4923TIP3   OH236259   1.056   5.312  12.493
 4923TIP3    H136260   1.140   5.343  12.528
 4923TIP3    H236261   1.021   5.388  12.446
 4924TIP3   OH236262   0.503   5.300  13.495
 4924TIP3    H136263   0.516   5.330  13.405
 4924TIP3    H236264   0.408   5.304  13.507
 4925TIP3   OH236265   1.622   3.806  12.122
 4925TIP3    H136266   1.544   3.832  12.171
 4925TIP3    H236267   1.664   3.888  12.098
 4926TIP3   OH236268   0.474   4.684  12.328
 4926TIP3    H136269   0.415   4.749  12.290
 4926TIP3    H236270   0.427   4.601  12.321
 4927TIP3   OH236271   1.751   5.266  12.009
 4927TIP3    H136272   1.766   5.361  12.007
 4927TIP3    H236273   1.838   5.228  12.017
 4928TIP3   OH236274   0.170   4.893  13.214
 4928TIP3    H136275   0.138   4.878  13.125
 4928TIP3    H236276   0.144   4.815  13.263
 4929TIP3   OH236277   0.126   5.235  12.865
 4929TIP3    H136278   0.211   5.191  12.868
 4929TIP3    H236279   0.086   5.217  12.950
 4930TIP3   OH236280   1.853   5.301  13.518
 4930TIP3    H136281   1.841   5.206  13.508
 4930TIP3    H236282   1.769   5.332  13.551
 4931TIP3   OH236283   0.937   5.240  13.381
 4931TIP3    H136284   0.931   5.324  13.427
 4931TIP3    H236285   0.853   5.198  13.398
 4932TIP3   OH236286   1.028   5.574  12.358
 4932TIP3    H136287   1.005   5.578  12.266
 4932TIP3    H236288   0.994   5.656  12.395
 4933TIP3   OH236289   0.368   5.475  12.551
 4933TIP3    H136290   0.387   5.443  12.639
 4933TIP3    H236291   0.313   5.407  12.512
 4934TIP3   OH236292   1.313   5.554  12.037
 4934TIP3    H136293   1.359   5.480  11.998
 4934TIP3    H236294   1.324   5.542  12.131
 4935TIP3   OH236295   1.295   5.525  12.315
 4935TIP3    H136296   1.202   5.537  12.331
 4935TIP3    H236297   1.324   5.464  12.384
 4936TIP3   OH236298   1.560   4.410  13.534
 4936TIP3    H136299   1.492   4.447  13.477
 4936TIP3    H236300   1.566   4.318  13.508
 4937TIP3   OH236301   0.286   5.098  13.353
 4937TIP3    H136302   0.326   5.041  13.420
 4937TIP3    H236303   0.234   5.038  13.299
 4938TIP3   OH236304   0.543   3.916  12.954
 4938TIP3    H136305   0.469   3.908  12.893
 4938TIP3    H236306   0.519   3.989  13.011
 4939TIP3   OH236307   1.021   3.886  13.294
 4939TIP3    H136308   1.066   3.838  13.363
 4939TIP3    H236309   0.928   3.878  13.315
 4940TIP3   OH236310   1.312   4.259  13.365
 4940TIP3    H136311   1.252   4.245  13.438
 4940TIP3    H236312   1.319   4.354  13.357
 4941TIP3   OH236313   1.412   4.678  11.919
 4941TIP3    H136314   1.386   4.708  11.832
 4941TIP3    H236315   1.501   4.711  11.929
 4942TIP3   OH236316   0.979   4.107  12.020
 4942TIP3    H136317   0.919   4.107  12.094
 4942TIP3    H236318   0.940   4.046  11.957
 4943TIP3   OH236319   0.564   4.431  13.061
 4943TIP3    H136320   0.500   4.429  13.132
 4943TIP3    H236321   0.567   4.522  13.033
 4944TIP3   OH236322   0.582   4.436  12.557
 4944TIP3    H136323   0.487   4.424  12.561
 4944TIP3    H236324   0.605   4.420  12.466
 4945TIP3   OH236325   1.098   4.466  12.431
 4945TIP3    H136326   1.073   4.553  12.399
 4945TIP3    H236327   1.167   4.438  12.371
 4946TIP3   OH236328   1.019   4.473  13.544
 4946TIP3    H136329   0.968   4.401  13.581
 4946TIP3    H236330   1.104   4.468  13.588
 4947TIP3   OH236331   1.194   4.400  12.682
 4947TIP3    H136332   1.152   4.446  12.610
 4947TIP3    H236333   1.241   4.327  12.640
 4948TIP3   OH236334   0.355   4.431  13.239
 4948TIP3    H136335   0.363   4.485  13.318
 4948TIP3    H236336   0.316   4.350  13.270
 4949TIP3   OH236337   0.669   4.170  11.914
 4949TIP3    H136338   0.635   4.164  12.003
 4949TIP3    H236339   0.610   4.232  11.870
 4950TIP3   OH236340   0.036   4.221  12.604
 4950TIP3    H136341   0.081   4.197  12.685
 4950TIP3    H236342  -0.002   4.139  12.573
 4951TIP3   OH236343   0.068   4.282  12.168
 4951TIP3    H136344   0.155   4.315  12.149
 4951TIP3    H236345   0.016   4.306  12.092
 4952TIP3   OH236346   1.166   4.555  13.156
 4952TIP3    H136347   1.196   4.498  13.085
 4952TIP3    H236348   1.095   4.505  13.198
 4953TIP3   OH236349   0.866   4.146  12.639
 4953TIP3    H136350   0.776   4.152  12.670
 4953TIP3    H236351   0.915   4.112  12.714
 4954TIP3   OH236352   0.325   4.350  12.547
 4954TIP3    H136353   0.252   4.387  12.497
 4954TIP3    H236354   0.334   4.261  12.514
 4955TIP3   OH236355   0.626   4.363  12.296
 4955TIP3    H136356   0.721   4.355  12.307
 4955TIP3    H236357   0.615   4.402  12.210
 4956TIP3   OH236358   1.231   4.110  12.961
 4956TIP3    H136359   1.192   4.112  13.049
 4956TIP3    H236360   1.164   4.069  12.906
 4957TIP3   OH236361   0.582   4.448  12.041
 4957TIP3    H136362   0.524   4.423  11.970
 4957TIP3    H236363   0.655   4.493  11.998
 4958TIP3   OH236364   1.603   5.668  13.614
 4958TIP3    H136365   1.627   5.702  13.528
 4958TIP3    H236366   1.678   5.690  13.670
 4959TIP3   OH236367   0.376   4.925  13.554
 4959TIP3    H136368   0.440   4.921  13.624
 4959TIP3    H236369   0.291   4.934  13.598
 4960TIP3   OH236370   0.938   4.483  12.840
 4960TIP3    H136371   1.006   4.432  12.795
 4960TIP3    H236372   0.906   4.424  12.909
 4961TIP3   OH236373   0.419   4.090  12.477
 4961TIP3    H136374   0.379   4.007  12.503
 4961TIP3    H236375   0.441   4.077  12.384
 4962TIP3   OH236376   0.824   4.336  13.054
 4962TIP3    H136377   0.739   4.379  13.062
 4962TIP3    H236378   0.873   4.364  13.131
 4963TIP3   OH236379   0.848   4.892  12.242
 4963TIP3    H136380   0.776   4.857  12.189
 4963TIP3    H236381   0.804   4.924  12.322
 4964TIP3   OH236382   1.572   4.858  13.082
 4964TIP3    H136383   1.634   4.912  13.033
 4964TIP3    H236384   1.501   4.841  13.019
 4965TIP3   OH236385   1.225   4.164  12.121
 4965TIP3    H136386   1.136   4.162  12.087
 4965TIP3    H236387   1.238   4.255  12.150
 4966TIP3   OH236388   1.013   4.951  13.386
 4966TIP3    H136389   1.041   4.913  13.469
 4966TIP3    H236390   0.986   5.040  13.408
 4967TIP3   OH236391   1.300   4.401  12.249
 4967TIP3    H136392   1.389   4.386  12.281
 4967TIP3    H236393   1.303   4.488  12.210
 4968TIP3   OH236394   0.394   4.850  12.783
 4968TIP3    H136395   0.449   4.838  12.706
 4968TIP3    H236396   0.435   4.796  12.851
 4969TIP3   OH236397   1.060   5.047  12.173
 4969TIP3    H136398   1.028   5.137  12.175
 4969TIP3    H236399   0.984   4.994  12.193
 4970TIP3   OH236400   0.127   4.658  13.357
 4970TIP3    H136401   0.143   4.626  13.446
 4970TIP3    H236402   0.065   4.594  13.320
 4971TIP3   OH236403   0.814   4.664  13.566
 4971TIP3    H136404   0.748   4.625  13.508
 4971TIP3    H236405   0.894   4.615  13.549
 4972TIP3   OH236406   1.218   5.227  13.383
 4972TIP3    H136407   1.125   5.231  13.359
 4972TIP3    H236408   1.219   5.238  13.478
 4973TIP3   OH236409   1.747   4.433  12.190
 4973TIP3    H136410   1.703   4.410  12.108
 4973TIP3    H236411   1.770   4.526  12.179
 4974TIP3   OH236412   1.823   5.025  13.475
 4974TIP3    H136413   1.733   5.028  13.441
 4974TIP3    H236414   1.877   5.005  13.398
 4975TIP3   OH236415   1.646   5.269  12.283
 4975TIP3    H136416   1.582   5.211  12.324
 4975TIP3    H236417   1.644   5.245  12.190
 4976TIP3   OH236418   1.367   4.793  12.896
 4976TIP3    H136419   1.271   4.784  12.897
 4976TIP3    H236420   1.397   4.714  12.850
 4977TIP3   OH236421   0.638   5.216  12.588
 4977TIP3    H136422   0.665   5.299  12.550
 4977TIP3    H236423   0.543   5.218  12.588
 4978TIP3   OH236424   0.186   4.679  12.028
 4978TIP3    H136425   0.240   4.741  12.077
 4978TIP3    H236426   0.100   4.684  12.070
 4979TIP3   OH236427   0.707   4.986  12.453
 4979TIP3    H136428   0.697   5.067  12.502
 4979TIP3    H236429   0.657   4.921  12.502
 4980TIP3   OH236430   0.834   5.386  13.155
 4980TIP3    H136431   0.891   5.460  13.135
 4980TIP3    H236432   0.887   5.330  13.213
 4981TIP3   OH236433   0.635   5.472  12.477
 4981TIP3    H136434   0.542   5.490  12.494
 4981TIP3    H236435   0.681   5.549  12.512
 4982TIP3   OH236436   1.119   5.007  13.135
 4982TIP3    H136437   1.081   4.987  13.221
 4982TIP3    H236438   1.190   4.944  13.125
 4983TIP3   OH236439   1.420   5.103  12.035
 4983TIP3    H136440   1.443   5.049  12.111
 4983TIP3    H236441   1.333   5.071  12.009
 4984TIP3   OH236442   1.427   5.412  13.347
 4984TIP3    H136443   1.346   5.361  13.341
 4984TIP3    H236444   1.416   5.483  13.284
 4985TIP3   OH236445   1.816   5.533  12.024
 4985TIP3    H136446   1.847   5.600  11.962
 4985TIP3    H236447   1.747   5.576  12.074
 4986TIP3   OH236448   0.251   4.178  13.335
 4986TIP3    H136449   0.178   4.214  13.385
 4986TIP3    H236450   0.266   4.091  13.372
 4987TIP3   OH236451   1.521   4.946  12.236
 4987TIP3    H136452   1.475   4.882  12.291
 4987TIP3    H236453   1.613   4.938  12.262
 4988TIP3   OH236454   0.208   5.412  13.140
 4988TIP3    H136455   0.203   5.336  13.199
 4988TIP3    H236456   0.224   5.486  13.198
 4989TIP3   OH236457   0.785   5.184  11.895
 4989TIP3    H136458   0.790   5.101  11.849
 4989TIP3    H236459   0.748   5.163  11.980
 4990TIP3   OH236460   0.664   5.161  12.146
 4990TIP3    H136461   0.705   5.114  12.219
 4990TIP3    H236462   0.675   5.253  12.168
 4991TIP3   OH236463   0.306   4.864  12.199
 4991TIP3    H136464   0.239   4.910  12.249
 4991TIP3    H236465   0.354   4.934  12.153
 4992TIP3   OH236466   1.121   4.130  13.212
 4992TIP3    H136467   1.193   4.152  13.271
 4992TIP3    H236468   1.087   4.047  13.246
 4993TIP3   OH236469   1.214   4.048  12.372
 4993TIP3    H136470   1.215   4.090  12.285
 4993TIP3    H236471   1.254   4.112  12.430
 4994TIP3   OH236472   0.959   5.299  12.182
 4994TIP3    H136473   0.872   5.333  12.203
 4994TIP3    H236474   1.007   5.375  12.149
 4995TIP3   OH236475   0.881   4.298  12.406
 4995TIP3    H136476   0.954   4.360  12.413
 4995TIP3    H236477   0.875   4.258  12.493
 4996TIP3   OH236478   0.989   4.378  13.274
 4996TIP3    H136479   0.996   4.399  13.367
 4996TIP3    H236480   1.026   4.290  13.267
 4997TIP3   OH236481   0.967   3.956  12.460
 4997TIP3    H136482   0.940   4.027  12.519
 4997TIP3    H236483   1.055   3.982  12.430
 4998TIP3   OH236484   0.714   5.419  12.220
 4998TIP3    H136485   0.722   5.504  12.176
 4998TIP3    H236486   0.686   5.441  12.309
 4999TIP3   OH236487   0.560   4.119  12.169
 4999TIP3    H136488   0.554   4.204  12.212
 4999TIP3    H236489   0.646   4.085  12.195
 5000TIP3   OH236490   1.565   4.162  13.383
 5000TIP3    H136491   1.473   4.185  13.377
 5000TIP3    H236492   1.585   4.120  13.299
 5001TIP3   OH236493   1.438   4.538  12.779
 5001TIP3    H136494   1.353   4.499  12.761
 5001TIP3    H236495   1.480   4.478  12.839
 5002TIP3   OH236496   0.414   5.081  12.057
 5002TIP3    H136497   0.491   5.125  12.095
 5002TIP3    H236498   0.450   5.030  11.984
 5003TIP3   OH236499   0.240   4.411  11.987
 5003TIP3    H136500   0.239   4.505  12.006
 5003TIP3    H236501   0.156   4.395  11.944
 5004TIP3   OH236502   1.567   5.495  12.943
 5004TIP3    H136503   1.555   5.567  12.881
 5004TIP3    H236504   1.662   5.492  12.957
 5005TIP3   OH236505   0.300   3.897  12.821
 5005TIP3    H136506   0.306   3.885  12.726
 5005TIP3    H236507   0.261   3.815  12.853
 5006TIP3   OH236508   0.183   5.292  12.434
 5006TIP3    H136509   0.117   5.301  12.503
 5006TIP3    H236510   0.163   5.362  12.372
 5007TIP3   OH236511   0.174   5.582  13.616
 5007TIP3    H136512   0.228   5.572  13.694
 5007TIP3    H236513   0.178   5.496  13.573
 5008TIP3   OH236514   0.575   5.381  13.747
 5008TIP3    H136515   0.653   5.331  13.769
 5008TIP3    H236516   0.554   5.355  13.657
 5009TIP3   OH236517   0.985   5.373  11.869
 5009TIP3    H136518   0.919   5.306  11.884
 5009TIP3    H236519   1.061   5.325  11.837
 5010TIP3   OH236520   1.215   5.254  13.656
 5010TIP3    H136521   1.207   5.170  13.702
 5010TIP3    H236522   1.291   5.296  13.697
 5011TIP3   OH236523   1.437   5.346  11.910
 5011TIP3    H136524   1.447   5.265  11.960
 5011TIP3    H236525   1.512   5.346  11.849
 5012TIP3   OH236526   0.130   4.930  13.680
 5012TIP3    H136527   0.128   4.836  13.664
 5012TIP3    H236528   0.038   4.956  13.686
 5013TIP3   OH236529   0.547   4.908  11.891
 5013TIP3    H136530   0.572   4.857  11.968
 5013TIP3    H236531   0.629   4.921  11.843
 5014TIP3   OH236532   0.780   4.941  13.633
 5014TIP3    H136533   0.761   4.986  13.551
 5014TIP3    H236534   0.807   4.853  13.606
 5015TIP3   OH236535   1.177   5.030  11.924
 5015TIP3    H136536   1.126   5.027  12.006
 5015TIP3    H236537   1.147   4.954  11.875
 5016TIP3   OH236538   1.341   4.973  13.396
 5016TIP3    H136539   1.432   4.993  13.372
 5016TIP3    H236540   1.295   5.056  13.384
 5017TIP3   OH236541   0.188   4.638  13.628
 5017TIP3    H136542   0.278   4.608  13.620
 5017TIP3    H236543   0.173   4.646  13.722
 5018TIP3   OH236544   0.641   4.766  12.110
 5018TIP3    H136545   0.593   4.721  12.180
 5018TIP3    H236546   0.688   4.697  12.064
 5019TIP3   OH236547   0.634   4.548  13.380
 5019TIP3    H136548   0.556   4.604  13.380
 5019TIP3    H236549   0.691   4.586  13.313
 5020TIP3   OH236550   0.794   4.598  11.950
 5020TIP3    H136551   0.790   4.626  11.858
 5020TIP3    H236552   0.888   4.591  11.968
 5021TIP3   OH236553   1.117   4.804  13.657
 5021TIP3    H136554   1.193   4.765  13.614
 5021TIP3    H236555   1.085   4.736  13.717
 5022TIP3   OH236556   1.664   4.785  11.891
 5022TIP3    H136557   1.673   4.764  11.798
 5022TIP3    H236558   1.661   4.881  11.894
 5023TIP3   OH236559   0.651   4.285  13.455
 5023TIP3    H136560   0.664   4.230  13.378
 5023TIP3    H236561   0.649   4.374  13.421
 5024TIP3   OH236562   0.687   4.137  13.216
 5024TIP3    H136563   0.740   4.183  13.152
 5024TIP3    H236564   0.599   4.135  13.178
 5025TIP3   OH236565   0.806   4.676  13.214
 5025TIP3    H136566   0.895   4.704  13.236
 5025TIP3    H236567   0.767   4.752  13.171
 5026TIP3   OH236568   1.254   4.448  13.708
 5026TIP3    H136569   1.289   4.359  13.706
 5026TIP3    H236570   1.327   4.502  13.738
 5027TIP3   OH236571   1.386   4.743  13.534
 5027TIP3    H136572   1.358   4.824  13.489
 5027TIP3    H236573   1.481   4.745  13.530
 5028TIP3   OH236574   0.490   4.346  13.677
 5028TIP3    H136575   0.409   4.296  13.672
 5028TIP3    H236576   0.535   4.328  13.594
 5029TIP3   OH236577   0.740   3.873  13.291
 5029TIP3    H136578   0.723   3.964  13.267
 5029TIP3    H236579   0.670   3.824  13.248
 5030TIP3   OH236580   0.870   4.256  13.626
 5030TIP3    H136581   0.833   4.229  13.710
 5030TIP3    H236582   0.796   4.259  13.566
 5031TIP3   OH236583   1.136   4.192  13.557
 5031TIP3    H136584   1.046   4.197  13.589
 5031TIP3    H236585   1.184   4.147  13.627
 5032TIP3   OH236586   1.315   4.086  13.745
 5032TIP3    H136587   1.313   3.992  13.731
 5032TIP3    H236588   1.289   4.098  13.836
 5033TIP3   OH236589   0.284   4.155  13.664
 5033TIP3    H136590   0.288   4.078  13.608
 5033TIP3    H236591   0.296   4.121  13.753
 5034TIP3   OH236592   0.730   3.784  13.550
 5034TIP3    H136593   0.788   3.708  13.544
 5034TIP3    H236594   0.728   3.820  13.461
 5035TIP3   OH236595   0.806   3.941  13.765
 5035TIP3    H136596   0.783   3.890  13.687
 5035TIP3    H236597   0.745   4.015  13.764
 5036TIP3   OH236598   0.790   5.658  12.102
 5036TIP3    H136599   0.879   5.625  12.088
 5036TIP3    H236600   0.777   5.722  12.032
 5037TIP3   OH236601   0.142   5.101  12.016
 5037TIP3    H136602   0.233   5.125  12.032
 5037TIP3    H236603   0.146   5.036  11.946
 5038TIP3   OH236604   0.041   5.663  12.503
 5038TIP3    H136605   0.056   5.619  12.419
 5038TIP3    H236606   0.031   5.591  12.566
 5039TIP3   OH236607   0.061   5.433  12.683
 5039TIP3    H136608   0.063   5.348  12.727
 5039TIP3    H236609   0.118   5.489  12.736
 5040TIP3   OH236610   1.833   5.492  13.018
 5040TIP3    H136611   1.829   5.499  13.114
 5040TIP3    H236612   1.908   5.546  12.993
 5041TIP3   OH236613   1.775   5.468  13.294
 5041TIP3    H136614   1.722   5.396  13.259
 5041TIP3    H236615   1.824   5.428  13.367
 5042TIP3   OH236616   1.641   5.053  13.782
 5042TIP3    H136617   1.558   5.065  13.828
 5042TIP3    H236618   1.696   5.124  13.813
 5043TIP3   OH236619   1.783   4.888  12.314
 5043TIP3    H136620   1.862   4.942  12.321
 5043TIP3    H236621   1.794   4.821  12.381
 5044TIP3   OH236622   1.824   4.683  12.493
 5044TIP3    H136623   1.739   4.649  12.522
 5044TIP3    H236624   1.875   4.692  12.573
 5045TIP3   OH236625   1.812   4.985  13.011
 5045TIP3    H136626   1.864   4.919  12.965
 5045TIP3    H236627   1.840   5.068  12.973
 5046TIP3   OH236628   1.612   5.260  13.207
 5046TIP3    H136629   1.540   5.306  13.251
 5046TIP3    H236630   1.579   5.245  13.118
 5047TIP3   OH236631   1.788   4.694  12.119
 5047TIP3    H136632   1.736   4.724  12.044
 5047TIP3    H236633   1.779   4.764  12.184
 5048TIP3   OH236634   1.635   4.382  11.945
 5048TIP3    H136635   1.620   4.450  11.879
 5048TIP3    H236636   1.623   4.300  11.898
 5049TIP3   OH236637   1.574   4.568  12.539
 5049TIP3    H136638   1.569   4.479  12.504
 5049TIP3    H236639   1.531   4.563  12.625
 5050TIP3   OH236640   0.076   4.770  12.970
 5050TIP3    H136641   0.083   4.776  12.875
 5050TIP3    H236642   0.156   4.726  12.997
 5051TIP3   OH236643   1.663   4.751  13.518
 5051TIP3    H136644   1.723   4.678  13.503
 5051TIP3    H236645   1.703   4.825  13.473
 5052TIP3   OH236646   1.809   4.516  13.498
 5052TIP3    H136647   1.721   4.481  13.512
 5052TIP3    H236648   1.868   4.445  13.523
 5053TIP3   OH236649   1.577   4.122  11.838
 5053TIP3    H136650   1.618   4.093  11.920
 5053TIP3    H236651   1.483   4.117  11.854
 5054TIP3   OH236652   1.562   4.324  12.372
 5054TIP3    H136653   1.591   4.233  12.373
 5054TIP3    H236654   1.625   4.370  12.316
 5055TIP3   OH236655   1.587   4.352  12.937
 5055TIP3    H136656   1.679   4.365  12.913
 5055TIP3    H236657   1.583   4.374  13.030
 5056TIP3   OH236658   1.619   4.442  13.203
 5056TIP3    H136659   1.540   4.472  13.248
 5056TIP3    H236660   1.670   4.522  13.188
 5057TIP3   OH236661   0.055   4.244  13.537
 5057TIP3    H136662   0.136   4.240  13.588
 5057TIP3    H236663  -0.007   4.191  13.586
 5058TIP3   OH236664   1.860   3.855  13.726
 5058TIP3    H136665   1.926   3.798  13.686
 5058TIP3    H236666   1.850   3.927  13.664
 5059TIP3   OH236667   1.629   4.052  12.381
 5059TIP3    H136668   1.654   4.016  12.466
 5059TIP3    H236669   1.561   3.994  12.349
 5060TIP3   OH236670   0.173   4.140  12.841
 5060TIP3    H136671   0.207   4.051  12.841
 5060TIP3    H236672   0.250   4.196  12.853
 5061TIP3   OH236673  -0.000   4.495  12.968
 5061TIP3    H136674   0.069   4.475  12.905
 5061TIP3    H236675   0.000   4.590  12.975
 5062TIP3   OH236676   1.781   4.047  13.549
 5062TIP3    H136677   1.707   4.089  13.592
 5062TIP3    H236678   1.745   4.013  13.467
 5063TIP3   OH236679   1.759   4.021  12.020
 5063TIP3    H136680   1.819   3.970  11.966
 5063TIP3    H236681   1.812   4.091  12.056
 5064TIP3   OH236682   0.115   4.022  12.258
 5064TIP3    H136683   0.057   4.024  12.334
 5064TIP3    H236684   0.107   4.110  12.220
 5065TIP3   OH236685   1.508   5.561  12.558
 5065TIP3    H136686   1.583   5.557  12.499
 5065TIP3    H236687   1.538   5.615  12.631
 5066TIP3   OH236688   7.365   3.903  13.211
 5066TIP3    H136689   7.321   3.946  13.284
 5066TIP3    H236690   7.309   3.923  13.135
 5067TIP3   OH236691   0.223   5.305  13.536
 5067TIP3    H136692   0.222   5.237  13.468
 5067TIP3    H236693   0.165   5.270  13.605
 5068TIP3   OH236694   0.572   5.367  13.233
 5068TIP3    H136695   0.540   5.454  13.209
 5068TIP3    H236696   0.665   5.369  13.212
 5069TIP3   OH236697   0.937   5.485  13.512
 5069TIP3    H136698   0.947   5.454  13.602
 5069TIP3    H236699   1.016   5.535  13.494
 5070TIP3   OH236700   1.173   5.623  13.477
 5070TIP3    H136701   1.239   5.572  13.430
 5070TIP3    H236702   1.220   5.657  13.553
 5071TIP3   OH236703   1.692   3.848  13.350
 5071TIP3    H136704   1.632   3.880  13.283
 5071TIP3    H236705   1.705   3.756  13.329
 5072TIP3   OH236706   0.255   5.663  13.260
 5072TIP3    H136707   0.174   5.705  13.229
 5072TIP3    H236708   0.275   5.708  13.342
 5073TIP3   OH236709   0.517   5.630  13.171
 5073TIP3    H136710   0.425   5.642  13.195
 5073TIP3    H236711   0.525   5.675  13.087
 5074TIP3   OH236712   0.973   5.610  13.073
 5074TIP3    H136713   0.921   5.646  13.001
 5074TIP3    H236714   0.984   5.683  13.133
 5075TIP3   OH236715   1.198   5.482  13.166
 5075TIP3    H136716   1.120   5.525  13.130
 5075TIP3    H236717   1.270   5.542  13.149
 5076TIP3   OH236718   1.439   5.619  13.153
 5076TIP3    H136719   1.466   5.710  13.142
 5076TIP3    H236720   1.480   5.573  13.079
 5077TIP3   OH236721   0.221   5.530  12.893
 5077TIP3    H136722   0.207   5.494  12.980
 5077TIP3    H236723   0.297   5.483  12.859
 5078TIP3   OH236724   0.439   5.390  12.802
 5078TIP3    H136725   0.424   5.299  12.826
 5078TIP3    H236726   0.525   5.411  12.839
 5079TIP3   OH236727   0.699   5.414  12.912
 5079TIP3    H136728   0.707   5.324  12.880
 5079TIP3    H236729   0.738   5.412  13.000
 5080TIP3   OH236730   1.021   3.986  12.811
 5080TIP3    H136731   0.959   3.916  12.832
 5080TIP3    H236732   1.094   3.941  12.769
 5081TIP3   OH236733   1.530   3.839  12.786
 5081TIP3    H136734   1.594   3.894  12.741
 5081TIP3    H236735   1.447   3.886  12.778
 5082TIP3   OH236736   1.724   3.936  12.613
 5082TIP3    H136737   1.786   3.866  12.591
 5082TIP3    H236738   1.779   4.012  12.631
 5083TIP3   OH236739   0.306   3.849  12.551
 5083TIP3    H136740   0.215   3.838  12.523
 5083TIP3    H236741   0.345   3.762  12.540
 5084TIP3   OH236742   0.234   3.818  12.125
 5084TIP3    H136743   0.280   3.870  12.059
 5084TIP3    H236744   0.199   3.882  12.186
 5085TIP3   OH236745   0.762   3.804  12.583
 5085TIP3    H136746   0.830   3.857  12.541
 5085TIP3    H236747   0.779   3.814  12.677
 5086TIP3   OH236748   1.243   3.860  12.707
 5086TIP3    H136749   1.270   3.844  12.617
 5086TIP3    H236750   1.230   3.773  12.744
 5087TIP3   OH236751   1.423   3.879  12.298
 5087TIP3    H136752   1.350   3.938  12.317
 5087TIP3    H236753   1.387   3.791  12.313
 5088TIP3   OH236754   0.108   5.512  12.282
 5088TIP3    H136755   0.045   5.456  12.236
 5088TIP3    H236756   0.130   5.580  12.218
 5089TIP3   OH236757   0.380   4.009  11.979
 5089TIP3    H136758   0.438   3.968  11.915
 5089TIP3    H236759   0.439   4.046  12.045
 5090TIP3   OH236760   0.822   4.084  12.247
 5090TIP3    H136761   0.855   4.011  12.300
 5090TIP3    H236762   0.843   4.162  12.298
 5091TIP3   OH236763   1.039   5.547  12.071
 5091TIP3    H136764   1.132   5.568  12.058
 5091TIP3    H236765   1.014   5.497  11.993
 5092TIP3   OH236766   1.710   5.523  12.367
 5092TIP3    H136767   1.688   5.434  12.339
 5092TIP3    H236768   1.688   5.578  12.292
 5093TIP3   OH236769   0.290   3.922  13.500
 5093TIP3    H136770   0.231   3.856  13.535
 5093TIP3    H236771   0.374   3.905  13.544
 5094TIP3   OH236772   0.489   3.845  13.676
 5094TIP3    H136773   0.572   3.817  13.639
 5094TIP3    H236774   0.456   3.768  13.723
 5095TIP3   OH236775   0.362   5.533  11.927
 5095TIP3    H136776   0.349   5.533  12.022
 5095TIP3    H236777   0.433   5.472  11.912
 5096TIP3   OH236778   1.338   3.813  13.694
 5096TIP3    H136779   1.326   3.764  13.776
 5096TIP3    H236780   1.430   3.801  13.672
 5097TIP3   OH236781   1.598   5.396  13.569
 5097TIP3    H136782   1.539   5.390  13.494
 5097TIP3    H236783   1.597   5.488  13.593
 5098TIP3   OH236784   3.077   4.809  12.540
 5098TIP3    H136785   3.061   4.903  12.531
 5098TIP3    H236786   3.010   4.768  12.485
 5099TIP3   OH236787   2.969   4.714  12.937
 5099TIP3    H136788   2.993   4.668  13.018
 5099TIP3    H236789   2.916   4.651  12.889
 5100TIP3   OH236790   2.173   4.639  13.057
 5100TIP3    H136791   2.186   4.570  13.123
 5100TIP3    H236792   2.262   4.662  13.029
 5101TIP3   OH236793   3.365   5.014  12.762
 5101TIP3    H136794   3.311   4.946  12.803
 5101TIP3    H236795   3.371   5.083  12.828
 5102TIP3   OH236796   2.318   5.132  12.868
 5102TIP3    H136797   2.285   5.044  12.849
 5102TIP3    H236798   2.413   5.120  12.879
 5103TIP3   OH236799   1.940   4.436  12.407
 5103TIP3    H136800   1.920   4.526  12.435
 5103TIP3    H236801   1.884   4.422  12.331
 5104TIP3   OH236802   2.013   4.691  12.697
 5104TIP3    H136803   2.046   4.604  12.717
 5104TIP3    H236804   2.092   4.744  12.685
 5105TIP3   OH236805   3.081   5.498  12.780
 5105TIP3    H136806   3.118   5.449  12.707
 5105TIP3    H236807   3.039   5.432  12.835
 5106TIP3   OH236808   2.802   4.968  12.938
 5106TIP3    H136809   2.844   4.893  12.895
 5106TIP3    H236810   2.867   4.998  13.001
 5107TIP3   OH236811   3.680   4.105  13.014
 5107TIP3    H136812   3.681   4.186  13.064
 5107TIP3    H236813   3.731   4.125  12.935
 5108TIP3   OH236814   3.116   4.378  12.955
 5108TIP3    H136815   3.128   4.284  12.969
 5108TIP3    H236816   3.100   4.387  12.861
 5109TIP3   OH236817   2.464   4.184  12.673
 5109TIP3    H136818   2.465   4.273  12.637
 5109TIP3    H236819   2.411   4.134  12.611
 5110TIP3   OH236820   3.238   4.220  12.533
 5110TIP3    H136821   3.280   4.190  12.614
 5110TIP3    H236822   3.310   4.261  12.484
 5111TIP3   OH236823   2.095   4.437  12.772
 5111TIP3    H136824   2.164   4.400  12.828
 5111TIP3    H236825   2.115   4.403  12.684
 5112TIP3   OH236826   2.575   4.589  12.754
 5112TIP3    H136827   2.664   4.557  12.772
 5112TIP3    H236828   2.539   4.525  12.692
 5113TIP3   OH236829   3.686   4.272  13.253
 5113TIP3    H136830   3.639   4.352  13.230
 5113TIP3    H236831   3.621   4.216  13.295
 5114TIP3   OH236832   2.322   4.110  13.105
 5114TIP3    H136833   2.301   4.168  13.031
 5114TIP3    H236834   2.250   4.123  13.167
 5115TIP3   OH236835   3.009   5.058  12.448
 5115TIP3    H136836   3.002   5.059  12.352
 5115TIP3    H236837   2.973   5.142  12.476
 5116TIP3   OH236838   2.578   4.888  13.081
 5116TIP3    H136839   2.528   4.962  13.117
 5116TIP3    H236840   2.648   4.929  13.030
 5117TIP3   OH236841   3.331   4.172  12.786
 5117TIP3    H136842   3.267   4.142  12.850
 5117TIP3    H236843   3.388   4.232  12.836
 5118TIP3   OH236844   2.300   4.275  12.884
 5118TIP3    H136845   2.358   4.333  12.933
 5118TIP3    H236846   2.354   4.239  12.814
 5119TIP3   OH236847   2.432   5.093  13.196
 5119TIP3    H136848   2.439   5.187  13.186
 5119TIP3    H236849   2.342   5.078  13.223
 5120TIP3   OH236850   1.990   5.078  12.298
 5120TIP3    H136851   1.912   5.133  12.283
 5120TIP3    H236852   2.043   5.127  12.360
 5121TIP3   OH236853   3.380   5.221  12.961
 5121TIP3    H136854   3.287   5.223  12.981
 5121TIP3    H236855   3.402   5.310  12.934
 5122TIP3   OH236856   3.412   4.013  13.098
 5122TIP3    H136857   3.339   4.042  13.044
 5122TIP3    H236858   3.490   4.036  13.047
 5123TIP3   OH236859   2.678   3.796  12.868
 5123TIP3    H136860   2.650   3.704  12.864
 5123TIP3    H236861   2.599   3.844  12.893
 5124TIP3   OH236862   3.200   5.371  12.563
 5124TIP3    H136863   3.242   5.286  12.547
 5124TIP3    H236864   3.274   5.432  12.569
 5125TIP3   OH236865   3.339   5.142  12.514
 5125TIP3    H136866   3.341   5.080  12.441
 5125TIP3    H236867   3.350   5.089  12.592
 5126TIP3   OH236868   3.497   4.985  13.320
 5126TIP3    H136869   3.477   4.935  13.241
 5126TIP3    H236870   3.507   5.075  13.290
 5127TIP3   OH236871   2.927   4.711  12.325
 5127TIP3    H136872   2.858   4.774  12.304
 5127TIP3    H236873   2.989   4.718  12.252
 5128TIP3   OH236874   2.974   4.593  11.961
 5128TIP3    H136875   3.025   4.615  12.039
 5128TIP3    H236876   3.035   4.542  11.906
 5129TIP3   OH236877   3.643   4.692  13.160
 5129TIP3    H136878   3.572   4.753  13.141
 5129TIP3    H236879   3.701   4.698  13.085
 5130TIP3   OH236880   3.295   4.739  12.392
 5130TIP3    H136881   3.226   4.764  12.454
 5130TIP3    H236882   3.358   4.691  12.444
 5131TIP3   OH236883   3.258   4.538  13.340
 5131TIP3    H136884   3.247   4.609  13.403
 5131TIP3    H236885   3.192   4.554  13.273
 5132TIP3   OH236886   2.438   4.780  12.602
 5132TIP3    H136887   2.402   4.736  12.526
 5132TIP3    H236888   2.496   4.716  12.643
 5133TIP3   OH236889   2.599   5.143  12.847
 5133TIP3    H136890   2.595   5.153  12.752
 5133TIP3    H236891   2.675   5.087  12.862
 5134TIP3   OH236892   2.430   4.690  12.963
 5134TIP3    H136893   2.483   4.663  12.888
 5134TIP3    H236894   2.482   4.759  13.005
 5135TIP3   OH236895   3.122   5.234  13.043
 5135TIP3    H136896   3.096   5.307  13.100
 5135TIP3    H236897   3.072   5.159  13.075
 5136TIP3   OH236898   2.583   5.108  13.429
 5136TIP3    H136899   2.519   5.164  13.472
 5136TIP3    H236900   2.541   5.083  13.346
 5137TIP3   OH236901   3.161   4.658  12.166
 5137TIP3    H136902   3.206   4.694  12.242
 5137TIP3    H236903   3.211   4.690  12.091
 5138TIP3   OH236904   2.245   4.684  13.403
 5138TIP3    H136905   2.259   4.770  13.443
 5138TIP3    H236906   2.156   4.687  13.370
 5139TIP3   OH236907   2.935   5.320  12.507
 5139TIP3    H136908   3.026   5.338  12.530
 5139TIP3    H236909   2.906   5.399  12.461
 5140TIP3   OH236910   2.382   5.284  13.501
 5140TIP3    H136911   2.386   5.319  13.412
 5140TIP3    H236912   2.288   5.278  13.520
 5141TIP3   OH236913   3.529   3.811  12.154
 5141TIP3    H136914   3.444   3.840  12.189
 5141TIP3    H236915   3.571   3.891  12.123
 5142TIP3   OH236916   2.319   4.669  12.380
 5142TIP3    H136917   2.289   4.757  12.359
 5142TIP3    H236918   2.317   4.622  12.297
 5143TIP3   OH236919   3.679   5.255  12.018
 5143TIP3    H136920   3.689   5.350  12.011
 5143TIP3    H236921   3.767   5.221  12.004
 5144TIP3   OH236922   1.957   4.948  13.251
 5144TIP3    H136923   1.905   4.956  13.170
 5144TIP3    H236924   1.970   4.854  13.261
 5145TIP3   OH236925   1.920   5.236  12.939
 5145TIP3    H136926   2.004   5.241  12.985
 5145TIP3    H236927   1.873   5.314  12.968
 5146TIP3   OH236928   3.749   5.316  13.528
 5146TIP3    H136929   3.738   5.223  13.512
 5146TIP3    H236930   3.662   5.346  13.556
 5147TIP3   OH236931   2.821   5.237  13.383
 5147TIP3    H136932   2.816   5.322  13.427
 5147TIP3    H236933   2.736   5.197  13.399
 5148TIP3   OH236934   2.913   5.572  12.380
 5148TIP3    H136935   2.897   5.583  12.286
 5148TIP3    H236936   2.891   5.656  12.419
 5149TIP3   OH236937   2.250   5.480  12.554
 5149TIP3    H136938   2.273   5.448  12.642
 5149TIP3    H236939   2.196   5.411  12.517
 5150TIP3   OH236940   3.207   5.540  12.028
 5150TIP3    H136941   3.253   5.461  11.997
 5150TIP3    H236942   3.199   5.527  12.122
 5151TIP3   OH236943   3.179   5.515  12.310
 5151TIP3    H136944   3.087   5.536  12.329
 5151TIP3    H236945   3.204   5.454  12.379
 5152TIP3   OH236946   3.454   4.417  13.543
 5152TIP3    H136947   3.393   4.454  13.479
 5152TIP3    H236948   3.437   4.323  13.540
 5153TIP3   OH236949   2.182   5.096  13.312
 5153TIP3    H136950   2.206   5.055  13.395
 5153TIP3    H236951   2.102   5.050  13.285
 5154TIP3   OH236952   2.428   3.906  12.945
 5154TIP3    H136953   2.354   3.898  12.884
 5154TIP3    H236954   2.405   3.980  13.001
 5155TIP3   OH236955   2.900   3.887  13.289
 5155TIP3    H136956   2.944   3.839  13.359
 5155TIP3    H236957   2.807   3.880  13.309
 5156TIP3   OH236958   3.242   4.265  13.407
 5156TIP3    H136959   3.163   4.246  13.458
 5156TIP3    H236960   3.227   4.353  13.372
 5157TIP3   OH236961   3.308   4.735  11.956
 5157TIP3    H136962   3.280   4.756  11.866
 5157TIP3    H236963   3.401   4.759  11.957
 5158TIP3   OH236964   2.878   4.100  11.995
 5158TIP3    H136965   2.822   4.117  12.071
 5158TIP3    H236966   2.829   4.036  11.943
 5159TIP3   OH236967   2.446   4.431  13.063
 5159TIP3    H136968   2.381   4.429  13.133
 5159TIP3    H236969   2.447   4.522  13.034
 5160TIP3   OH236970   2.437   4.436  12.570
 5160TIP3    H136971   2.343   4.442  12.559
 5160TIP3    H236972   2.471   4.422  12.482
 5161TIP3   OH236973   2.989   4.465  12.430
 5161TIP3    H136974   2.960   4.550  12.399
 5161TIP3    H236975   3.054   4.437  12.367
 5162TIP3   OH236976   2.902   4.470  13.543
 5162TIP3    H136977   2.848   4.399  13.579
 5162TIP3    H236978   2.986   4.463  13.588
 5163TIP3   OH236979   3.082   4.398  12.683
 5163TIP3    H136980   3.040   4.446  12.612
 5163TIP3    H236981   3.127   4.326  12.639
 5164TIP3   OH236982   2.236   4.436  13.240
 5164TIP3    H136983   2.231   4.487  13.321
 5164TIP3    H236984   2.193   4.353  13.262
 5165TIP3   OH236985   2.548   4.175  11.910
 5165TIP3    H136986   2.535   4.211  11.998
 5165TIP3    H236987   2.484   4.222  11.856
 5166TIP3   OH236988   1.896   4.143  12.644
 5166TIP3    H136989   1.947   4.146  12.725
 5166TIP3    H236990   1.935   4.211  12.589
 5167TIP3   OH236991   1.921   4.229  12.115
 5167TIP3    H136992   1.992   4.272  12.067
 5167TIP3    H236993   1.865   4.301  12.144
 5168TIP3   OH236994   3.051   4.550  13.153
 5168TIP3    H136995   3.082   4.494  13.082
 5168TIP3    H236996   2.981   4.500  13.195
 5169TIP3   OH236997   2.750   4.137  12.642
 5169TIP3    H136998   2.658   4.145  12.669
 5169TIP3    H236999   2.795   4.110  12.722
 5170TIP3   OH237000   2.169   4.337  12.531
 5170TIP3    H137001   2.103   4.367  12.469
 5170TIP3    H237002   2.202   4.255  12.494
 5171TIP3   OH237003   2.524   4.352  12.325
 5171TIP3    H137004   2.617   4.340  12.340
 5171TIP3    H237005   2.518   4.390  12.238
 5172TIP3   OH237006   3.138   4.101  12.981
 5172TIP3    H137007   3.102   4.108  13.069
 5172TIP3    H237008   3.068   4.062  12.929
 5173TIP3   OH237009   2.494   4.423  12.066
 5173TIP3    H137010   2.418   4.478  12.049
 5173TIP3    H237011   2.565   4.465  12.017
 5174TIP3   OH237012   3.489   5.672  13.609
 5174TIP3    H137013   3.507   5.695  13.518
 5174TIP3    H237014   3.566   5.703  13.657
 5175TIP3   OH237015   2.248   4.930  13.543
 5175TIP3    H137016   2.314   4.927  13.612
 5175TIP3    H237017   2.165   4.943  13.590
 5176TIP3   OH237018   2.822   4.481  12.841
 5176TIP3    H137019   2.889   4.430  12.795
 5176TIP3    H237020   2.790   4.423  12.910
 5177TIP3   OH237021   2.289   4.084  12.472
 5177TIP3    H137022   2.239   4.005  12.491
 5177TIP3    H237023   2.323   4.071  12.383
 5178TIP3   OH237024   2.707   4.337  13.056
 5178TIP3    H137025   2.623   4.381  13.064
 5178TIP3    H237026   2.756   4.365  13.133
 5179TIP3   OH237027   2.734   4.904  12.255
 5179TIP3    H137028   2.671   4.850  12.208
 5179TIP3    H237029   2.692   4.924  12.338
 5180TIP3   OH237030   3.446   4.865  13.079
 5180TIP3    H137031   3.504   4.922  13.029
 5180TIP3    H237032   3.375   4.843  13.019
 5181TIP3   OH237033   3.128   4.159  12.094
 5181TIP3    H137034   3.038   4.154  12.062
 5181TIP3    H237035   3.137   4.248  12.127
 5182TIP3   OH237036   2.898   4.955  13.386
 5182TIP3    H137037   2.915   4.923  13.474
 5182TIP3    H237038   2.868   5.045  13.398
 5183TIP3   OH237039   3.188   4.392  12.241
 5183TIP3    H137040   3.276   4.381  12.274
 5183TIP3    H237041   3.186   4.481  12.206
 5184TIP3   OH237042   2.268   4.862  12.800
 5184TIP3    H137043   2.322   4.848  12.722
 5184TIP3    H237044   2.305   4.804  12.866
 5185TIP3   OH237045   2.945   5.054  12.170
 5185TIP3    H137046   2.913   5.144  12.172
 5185TIP3    H237047   2.869   5.001  12.195
 5186TIP3   OH237048   1.972   4.677  13.335
 5186TIP3    H137049   1.941   4.633  13.414
 5186TIP3    H237050   1.906   4.657  13.268
 5187TIP3   OH237051   2.697   4.664  13.566
 5187TIP3    H137052   2.626   4.628  13.512
 5187TIP3    H237053   2.773   4.610  13.544
 5188TIP3   OH237054   3.104   5.221  13.388
 5188TIP3    H137055   3.012   5.228  13.361
 5188TIP3    H237056   3.102   5.234  13.483
 5189TIP3   OH237057   3.644   4.442  12.209
 5189TIP3    H137058   3.596   4.416  12.130
 5189TIP3    H237059   3.668   4.533  12.193
 5190TIP3   OH237060   3.722   5.046  13.477
 5190TIP3    H137061   3.630   5.030  13.454
 5190TIP3    H237062   3.771   5.019  13.399
 5191TIP3   OH237063   3.551   5.285  12.269
 5191TIP3    H137064   3.486   5.219  12.292
 5191TIP3    H237065   3.581   5.259  12.181
 5192TIP3   OH237066   3.246   4.789  12.898
 5192TIP3    H137067   3.151   4.780  12.897
 5192TIP3    H237068   3.278   4.713  12.848
 5193TIP3   OH237069   2.527   5.212  12.587
 5193TIP3    H137070   2.554   5.296  12.550
 5193TIP3    H237071   2.432   5.209  12.573
 5194TIP3   OH237072   2.000   4.764  11.950
 5194TIP3    H137073   2.084   4.738  11.988
 5194TIP3    H237074   1.934   4.729  12.011
 5195TIP3   OH237075   2.604   4.968  12.481
 5195TIP3    H137076   2.588   5.054  12.519
 5195TIP3    H237077   2.542   4.910  12.525
 5196TIP3   OH237078   2.717   5.386  13.159
 5196TIP3    H137079   2.773   5.461  13.138
 5196TIP3    H237080   2.772   5.330  13.214
 5197TIP3   OH237081   2.516   5.473  12.481
 5197TIP3    H137082   2.424   5.492  12.499
 5197TIP3    H237083   2.563   5.550  12.515
 5198TIP3   OH237084   3.001   4.998  13.133
 5198TIP3    H137085   2.966   4.980  13.220
 5198TIP3    H237086   3.063   4.927  13.116
 5199TIP3   OH237087   3.320   5.086  12.034
 5199TIP3    H137088   3.329   5.050  12.123
 5199TIP3    H237089   3.233   5.060  12.006
 5200TIP3   OH237090   3.317   5.402  13.349
 5200TIP3    H137091   3.235   5.354  13.344
 5200TIP3    H237092   3.307   5.473  13.286
 5201TIP3   OH237093   3.714   5.531  12.019
 5201TIP3    H137094   3.733   5.594  11.950
 5201TIP3    H237095   3.643   5.571  12.069
 5202TIP3   OH237096   2.113   4.182  13.276
 5202TIP3    H137097   2.023   4.209  13.259
 5202TIP3    H237098   2.107   4.121  13.349
 5203TIP3   OH237099   3.393   4.977  12.285
 5203TIP3    H137100   3.350   4.896  12.314
 5203TIP3    H237101   3.486   4.957  12.287
 5204TIP3   OH237102   2.112   5.370  13.148
 5204TIP3    H137103   2.143   5.294  13.199
 5204TIP3    H237104   2.128   5.445  13.205
 5205TIP3   OH237105   2.687   5.176  11.889
 5205TIP3    H137106   2.678   5.090  11.847
 5205TIP3    H237107   2.643   5.165  11.974
 5206TIP3   OH237108   2.557   5.141  12.134
 5206TIP3    H137109   2.603   5.080  12.192
 5206TIP3    H237110   2.569   5.227  12.176
 5207TIP3   OH237111   2.226   4.904  12.276
 5207TIP3    H137112   2.145   4.955  12.268
 5207TIP3    H237113   2.235   4.861  12.192
 5208TIP3   OH237114   3.025   4.125  13.235
 5208TIP3    H137115   3.079   4.133  13.314
 5208TIP3    H237116   2.975   4.045  13.248
 5209TIP3   OH237117   3.092   4.060  12.357
 5209TIP3    H137118   3.102   4.099  12.270
 5209TIP3    H237119   3.134   4.122  12.416
 5210TIP3   OH237120   2.843   5.305  12.181
 5210TIP3    H137121   2.756   5.331  12.209
 5210TIP3    H237122   2.884   5.386  12.149
 5211TIP3   OH237123   2.781   4.284  12.409
 5211TIP3    H137124   2.851   4.349  12.417
 5211TIP3    H237125   2.773   4.247  12.496
 5212TIP3   OH237126   2.878   4.374  13.275
 5212TIP3    H137127   2.880   4.398  13.367
 5212TIP3    H237128   2.918   4.287  13.272
 5213TIP3   OH237129   2.851   3.957  12.451
 5213TIP3    H137130   2.822   4.026  12.511
 5213TIP3    H237131   2.935   3.988  12.418
 5214TIP3   OH237132   2.586   5.396  12.229
 5214TIP3    H137133   2.589   5.475  12.175
 5214TIP3    H237134   2.564   5.427  12.316
 5215TIP3   OH237135   2.428   4.111  12.193
 5215TIP3    H137136   2.429   4.201  12.224
 5215TIP3    H237137   2.520   4.085  12.193
 5216TIP3   OH237138   3.470   4.127  13.344
 5216TIP3    H137139   3.389   4.171  13.369
 5216TIP3    H237140   3.448   4.080  13.264
 5217TIP3   OH237141   3.320   4.539  12.776
 5217TIP3    H137142   3.236   4.499  12.755
 5217TIP3    H237143   3.361   4.477  12.837
 5218TIP3   OH237144   2.311   5.138  12.013
 5218TIP3    H137145   2.392   5.142  12.064
 5218TIP3    H237146   2.322   5.060  11.958
 5219TIP3   OH237147   2.087   4.403  11.978
 5219TIP3    H137148   2.149   4.465  12.016
 5219TIP3    H237149   2.076   4.433  11.888
 5220TIP3   OH237150   3.449   5.494  12.944
 5220TIP3    H137151   3.430   5.564  12.881
 5220TIP3    H237152   3.544   5.497  12.956
 5221TIP3   OH237153   2.181   3.886  12.817
 5221TIP3    H137154   2.172   3.881  12.721
 5221TIP3    H237155   2.147   3.802  12.848
 5222TIP3   OH237156   2.059   5.311  12.439
 5222TIP3    H137157   2.003   5.340  12.511
 5222TIP3    H237158   2.032   5.366  12.365
 5223TIP3   OH237159   2.045   5.567  13.617
 5223TIP3    H137160   2.109   5.547  13.685
 5223TIP3    H237161   2.023   5.482  13.579
 5224TIP3   OH237162   2.458   5.376  13.749
 5224TIP3    H137163   2.540   5.330  13.767
 5224TIP3    H237164   2.434   5.347  13.661
 5225TIP3   OH237165   2.877   5.380  11.874
 5225TIP3    H137166   2.814   5.310  11.892
 5225TIP3    H237167   2.956   5.334  11.846
 5226TIP3   OH237168   3.100   5.251  13.661
 5226TIP3    H137169   3.095   5.167  13.708
 5226TIP3    H237170   3.175   5.295  13.700
 5227TIP3   OH237171   3.333   5.329  11.903
 5227TIP3    H137172   3.344   5.248  11.952
 5227TIP3    H237173   3.405   5.330  11.840
 5228TIP3   OH237174   2.000   4.945  13.672
 5228TIP3    H137175   2.001   4.849  13.671
 5228TIP3    H237176   1.928   4.969  13.615
 5229TIP3   OH237177   2.378   4.909  11.871
 5229TIP3    H137178   2.360   4.830  11.922
 5229TIP3    H237179   2.472   4.905  11.853
 5230TIP3   OH237180   2.669   4.939  13.630
 5230TIP3    H137181   2.646   4.984  13.548
 5230TIP3    H237182   2.690   4.850  13.603
 5231TIP3   OH237183   3.070   5.029  11.928
 5231TIP3    H137184   3.019   5.033  12.009
 5231TIP3    H237185   3.030   4.959  11.877
 5232TIP3   OH237186   3.230   4.969  13.408
 5232TIP3    H137187   3.319   4.989  13.378
 5232TIP3    H237188   3.180   5.049  13.391
 5233TIP3   OH237189   2.066   4.674  13.659
 5233TIP3    H137190   2.149   4.646  13.622
 5233TIP3    H237191   2.079   4.669  13.754
 5234TIP3   OH237192   2.566   4.742  12.121
 5234TIP3    H137193   2.474   4.721  12.110
 5234TIP3    H237194   2.611   4.682  12.062
 5235TIP3   OH237195   2.502   4.557  13.390
 5235TIP3    H137196   2.419   4.605  13.388
 5235TIP3    H237197   2.554   4.597  13.320
 5236TIP3   OH237198   2.697   4.570  11.947
 5236TIP3    H137199   2.684   4.600  11.857
 5236TIP3    H237200   2.792   4.572  11.960
 5237TIP3   OH237201   3.006   4.803  13.671
 5237TIP3    H137202   3.074   4.760  13.618
 5237TIP3    H237203   2.970   4.732  13.725
 5238TIP3   OH237204   3.576   4.803  11.917
 5238TIP3    H137205   3.564   4.767  11.829
 5238TIP3    H237206   3.576   4.898  11.904
 5239TIP3   OH237207   2.539   4.291  13.453
 5239TIP3    H137208   2.547   4.238  13.373
 5239TIP3    H237209   2.528   4.381  13.420
 5240TIP3   OH237210   2.572   4.138  13.215
 5240TIP3    H137211   2.624   4.186  13.151
 5240TIP3    H237212   2.485   4.132  13.176
 5241TIP3   OH237213   2.679   4.674  13.219
 5241TIP3    H137214   2.770   4.697  13.236
 5241TIP3    H237215   2.644   4.749  13.171
 5242TIP3   OH237216   3.136   4.429  13.703
 5242TIP3    H137217   3.158   4.336  13.703
 5242TIP3    H237218   3.220   4.474  13.711
 5243TIP3   OH237219   3.265   4.737  13.541
 5243TIP3    H137220   3.238   4.818  13.499
 5243TIP3    H237221   3.361   4.736  13.532
 5244TIP3   OH237222   2.375   4.336  13.678
 5244TIP3    H137223   2.291   4.292  13.667
 5244TIP3    H237224   2.420   4.327  13.594
 5245TIP3   OH237225   2.622   3.875  13.293
 5245TIP3    H137226   2.604   3.966  13.270
 5245TIP3    H237227   2.554   3.825  13.249
 5246TIP3   OH237228   2.757   4.249  13.619
 5246TIP3    H137229   2.718   4.222  13.702
 5246TIP3    H237230   2.683   4.257  13.559
 5247TIP3   OH237231   3.021   4.181  13.543
 5247TIP3    H137232   2.929   4.191  13.569
 5247TIP3    H237233   3.061   4.132  13.615
 5248TIP3   OH237234   3.228   4.101  13.738
 5248TIP3    H137235   3.218   4.007  13.724
 5248TIP3    H237236   3.199   4.115  13.828
 5249TIP3   OH237237   2.161   4.152  13.642
 5249TIP3    H137238   2.163   4.070  13.592
 5249TIP3    H237239   2.173   4.125  13.733
 5250TIP3   OH237240   2.611   3.782  13.551
 5250TIP3    H137241   2.668   3.706  13.543
 5250TIP3    H237242   2.608   3.819  13.463
 5251TIP3   OH237243   2.698   3.938  13.763
 5251TIP3    H137244   2.670   3.886  13.687
 5251TIP3    H237245   2.637   4.012  13.764
 5252TIP3   OH237246   2.638   5.604  12.056
 5252TIP3    H137247   2.731   5.587  12.075
 5252TIP3    H237248   2.639   5.684  12.003
 5253TIP3   OH237249   1.992   5.134  12.024
 5253TIP3    H137250   2.002   5.079  12.102
 5253TIP3    H237251   1.993   5.072  11.951
 5254TIP3   OH237252   1.895   5.618  12.543
 5254TIP3    H137253   1.837   5.587  12.474
 5254TIP3    H237254   1.909   5.541  12.598
 5255TIP3   OH237255   1.957   5.396  12.695
 5255TIP3    H137256   1.922   5.319  12.741
 5255TIP3    H237257   2.007   5.443  12.762
 5256TIP3   OH237258   3.715   5.509  13.012
 5256TIP3    H137259   3.718   5.504  13.108
 5256TIP3    H237260   3.769   5.585  12.990
 5257TIP3   OH237261   3.670   5.447  13.284
 5257TIP3    H137262   3.619   5.373  13.251
 5257TIP3    H237263   3.718   5.411  13.359
 5258TIP3   OH237264   3.544   5.053  13.786
 5258TIP3    H137265   3.459   5.067  13.828
 5258TIP3    H237266   3.597   5.128  13.813
 5259TIP3   OH237267   3.659   4.902  12.312
 5259TIP3    H137268   3.732   4.963  12.309
 5259TIP3    H237269   3.678   4.844  12.385
 5260TIP3   OH237270   3.706   4.704  12.498
 5260TIP3    H137271   3.622   4.666  12.524
 5260TIP3    H237272   3.755   4.710  12.580
 5261TIP3   OH237273   3.701   4.985  13.018
 5261TIP3    H137274   3.740   4.935  12.946
 5261TIP3    H237275   3.715   5.076  12.994
 5262TIP3   OH237276   3.496   5.239  13.216
 5262TIP3    H137277   3.428   5.291  13.256
 5262TIP3    H237278   3.468   5.228  13.125
 5263TIP3   OH237279   3.707   4.698  12.132
 5263TIP3    H137280   3.662   4.726  12.052
 5263TIP3    H237281   3.687   4.767  12.195
 5264TIP3   OH237282   3.533   4.376  11.973
 5264TIP3    H137283   3.574   4.430  11.906
 5264TIP3    H237284   3.518   4.292  11.930
 5265TIP3   OH237285   3.463   4.572  12.542
 5265TIP3    H137286   3.456   4.484  12.504
 5265TIP3    H237287   3.418   4.565  12.626
 5266TIP3   OH237288   1.944   4.744  12.956
 5266TIP3    H137289   1.956   4.734  12.862
 5266TIP3    H237290   2.028   4.717  12.994
 5267TIP3   OH237291   3.539   4.751  13.499
 5267TIP3    H137292   3.607   4.687  13.477
 5267TIP3    H237293   3.547   4.818  13.432
 5268TIP3   OH237294   3.705   4.517  13.494
 5268TIP3    H137295   3.618   4.480  13.505
 5268TIP3    H237296   3.764   4.451  13.531
 5269TIP3   OH237297   3.509   4.129  11.851
 5269TIP3    H137298   3.556   4.089  11.923
 5269TIP3    H237299   3.419   4.096  11.860
 5270TIP3   OH237300   3.450   4.327  12.378
 5270TIP3    H137301   3.479   4.236  12.378
 5270TIP3    H237302   3.515   4.374  12.325
 5271TIP3   OH237303   3.476   4.359  12.935
 5271TIP3    H137304   3.567   4.375  12.913
 5271TIP3    H237305   3.468   4.387  13.027
 5272TIP3   OH237306   3.493   4.464  13.195
 5272TIP3    H137307   3.412   4.490  13.238
 5272TIP3    H237308   3.542   4.546  13.185
 5273TIP3   OH237309   1.937   4.274  13.533
 5273TIP3    H137310   2.020   4.252  13.576
 5273TIP3    H237311   1.882   4.197  13.547
 5274TIP3   OH237312   3.712   3.844  13.717
 5274TIP3    H137313   3.777   3.774  13.710
 5274TIP3    H237314   3.730   3.901  13.642
 5275TIP3   OH237315   3.517   4.055  12.389
 5275TIP3    H137316   3.529   4.014  12.474
 5275TIP3    H237317   3.448   4.003  12.347
 5276TIP3   OH237318   2.051   4.125  12.876
 5276TIP3    H137319   2.092   4.040  12.863
 5276TIP3    H237320   2.125   4.186  12.880
 5277TIP3   OH237321   1.856   4.418  12.918
 5277TIP3    H137322   1.930   4.413  12.859
 5277TIP3    H237323   1.876   4.492  12.976
 5278TIP3   OH237324   3.701   4.023  13.506
 5278TIP3    H137325   3.630   4.076  13.544
 5278TIP3    H237326   3.659   3.974  13.435
 5279TIP3   OH237327   3.669   4.021  12.046
 5279TIP3    H137328   3.724   3.967  11.989
 5279TIP3    H237329   3.727   4.091  12.077
 5280TIP3   OH237330   1.909   4.015  12.291
 5280TIP3    H137331   1.822   4.029  12.330
 5280TIP3    H237332   1.927   4.097  12.244
 5281TIP3   OH237333   3.400   5.550  12.564
 5281TIP3    H137334   3.474   5.551  12.503
 5281TIP3    H237335   3.425   5.610  12.633
 5282TIP3   OH237336   1.915   3.869  13.171
 5282TIP3    H137337   1.852   3.868  13.243
 5282TIP3    H237338   1.890   3.946  13.119
 5283TIP3   OH237339   2.118   5.274  13.597
 5283TIP3    H137340   2.030   5.273  13.559
 5283TIP3    H237341   2.106   5.242  13.686
 5284TIP3   OH237342   2.455   5.368  13.239
 5284TIP3    H137343   2.425   5.456  13.215
 5284TIP3    H237344   2.548   5.367  13.219
 5285TIP3   OH237345   2.818   5.483  13.513
 5285TIP3    H137346   2.830   5.455  13.603
 5285TIP3    H237347   2.895   5.536  13.493
 5286TIP3   OH237348   3.051   5.626  13.471
 5286TIP3    H137349   3.112   5.578  13.414
 5286TIP3    H237350   3.104   5.653  13.545
 5287TIP3   OH237351   3.582   3.811  13.339
 5287TIP3    H137352   3.500   3.804  13.291
 5287TIP3    H237353   3.621   3.723  13.333
 5288TIP3   OH237354   2.149   5.641  13.258
 5288TIP3    H137355   2.071   5.680  13.219
 5288TIP3    H237356   2.162   5.691  13.339
 5289TIP3   OH237357   2.410   5.631  13.169
 5289TIP3    H137358   2.318   5.639  13.194
 5289TIP3    H237359   2.415   5.673  13.083
 5290TIP3   OH237360   2.860   5.608  13.074
 5290TIP3    H137361   2.810   5.641  12.999
 5290TIP3    H237362   2.871   5.685  13.131
 5291TIP3   OH237363   3.077   5.475  13.177
 5291TIP3    H137364   3.003   5.518  13.136
 5291TIP3    H237365   3.152   5.529  13.154
 5292TIP3   OH237366   3.321   5.608  13.159
 5292TIP3    H137367   3.327   5.702  13.143
 5292TIP3    H237368   3.362   5.568  13.082
 5293TIP3   OH237369   2.109   5.510  12.909
 5293TIP3    H137370   2.105   5.467  12.994
 5293TIP3    H237371   2.189   5.478  12.868
 5294TIP3   OH237372   2.331   5.395  12.803
 5294TIP3    H137373   2.319   5.303  12.826
 5294TIP3    H237374   2.418   5.417  12.835
 5295TIP3   OH237375   2.590   5.415  12.912
 5295TIP3    H137376   2.599   5.326  12.878
 5295TIP3    H237377   2.624   5.410  13.001
 5296TIP3   OH237378   2.919   3.987  12.825
 5296TIP3    H137379   2.855   3.918  12.839
 5296TIP3    H237380   2.990   3.945  12.777
 5297TIP3   OH237381   3.400   3.844  12.818
 5297TIP3    H137382   3.458   3.895  12.762
 5297TIP3    H237383   3.312   3.867  12.789
 5298TIP3   OH237384   3.583   3.923  12.626
 5298TIP3    H137385   3.648   3.857  12.601
 5298TIP3    H237386   3.634   4.001  12.644
 5299TIP3   OH237387   2.150   3.847  12.543
 5299TIP3    H137388   2.057   3.831  12.525
 5299TIP3    H237389   2.192   3.762  12.533
 5300TIP3   OH237390   2.039   3.841  12.122
 5300TIP3    H137391   2.106   3.893  12.078
 5300TIP3    H237392   2.000   3.901  12.185
 5301TIP3   OH237393   2.650   3.801  12.580
 5301TIP3    H137394   2.715   3.856  12.535
 5301TIP3    H237395   2.669   3.813  12.673
 5302TIP3   OH237396   3.137   3.859  12.709
 5302TIP3    H137397   3.156   3.847  12.616
 5302TIP3    H237398   3.117   3.771  12.741
 5303TIP3   OH237399   3.308   3.891  12.299
 5303TIP3    H137400   3.231   3.946  12.312
 5303TIP3    H237401   3.274   3.801  12.310
 5304TIP3   OH237402   2.031   5.436  12.172
 5304TIP3    H137403   1.946   5.455  12.134
 5304TIP3    H237404   2.073   5.522  12.183
 5305TIP3   OH237405   2.243   3.997  11.995
 5305TIP3    H137406   2.300   3.954  11.932
 5305TIP3    H237407   2.302   4.040  12.057
 5306TIP3   OH237408   2.713   4.092  12.224
 5306TIP3    H137409   2.737   4.013  12.273
 5306TIP3    H237410   2.736   4.164  12.283
 5307TIP3   OH237411   2.908   5.570  12.098
 5307TIP3    H137412   2.953   5.654  12.105
 5307TIP3    H237413   2.937   5.534  12.014
 5308TIP3   OH237414   3.601   5.534  12.369
 5308TIP3    H137415   3.584   5.444  12.341
 5308TIP3    H237416   3.579   5.588  12.293
 5309TIP3   OH237417   2.164   3.902  13.501
 5309TIP3    H137418   2.106   3.833  13.534
 5309TIP3    H237419   2.246   3.890  13.549
 5310TIP3   OH237420   2.368   3.842  13.677
 5310TIP3    H137421   2.452   3.814  13.641
 5310TIP3    H237422   2.333   3.764  13.719
 5311TIP3   OH237423   2.190   5.520  11.934
 5311TIP3    H137424   2.183   5.598  11.989
 5311TIP3    H237425   2.282   5.517  11.909
 5312TIP3   OH237426   3.212   3.825  13.695
 5312TIP3    H137427   3.200   3.775  13.776
 5312TIP3    H237428   3.301   3.805  13.667
 5313TIP3   OH237429   3.487   5.398  13.571
 5313TIP3    H137430   3.429   5.389  13.495
 5313TIP3    H237431   3.485   5.492  13.591
 5314TIP3   OH237432   4.963   4.779  12.543
 5314TIP3    H137433   4.949   4.873  12.538
 5314TIP3    H237434   4.897   4.742  12.485
 5315TIP3   OH237435   4.851   4.715  12.937
 5315TIP3    H137436   4.880   4.669  13.016
 5315TIP3    H237437   4.803   4.649  12.887
 5316TIP3   OH237438   4.069   4.653  13.050
 5316TIP3    H137439   4.080   4.586  13.118
 5316TIP3    H237440   4.158   4.673  13.021
 5317TIP3   OH237441   5.236   5.025  12.762
 5317TIP3    H137442   5.196   4.949  12.804
 5317TIP3    H237443   5.248   5.088  12.833
 5318TIP3   OH237444   4.225   5.126  12.839
 5318TIP3    H137445   4.183   5.041  12.830
 5318TIP3    H237446   4.312   5.107  12.874
 5319TIP3   OH237447   3.842   4.476  12.410
 5319TIP3    H137448   3.809   4.561  12.439
 5319TIP3    H237449   3.780   4.447  12.343
 5320TIP3   OH237450   3.902   4.698  12.698
 5320TIP3    H137451   3.935   4.608  12.706
 5320TIP3    H237452   3.981   4.752  12.697
 5321TIP3   OH237453   4.961   5.488  12.786
 5321TIP3    H137454   4.985   5.435  12.710
 5321TIP3    H237455   4.937   5.424  12.853
 5322TIP3   OH237456   4.701   4.962  12.947
 5322TIP3    H137457   4.742   4.881  12.915
 5322TIP3    H237458   4.765   4.998  13.008
 5323TIP3   OH237459   5.577   4.095  13.035
 5323TIP3    H137460   5.585   4.173  13.091
 5323TIP3    H237461   5.635   4.112  12.961
 5324TIP3   OH237462   4.997   4.379  12.951
 5324TIP3    H137463   5.015   4.286  12.965
 5324TIP3    H237464   4.984   4.386  12.856
 5325TIP3   OH237465   4.330   4.180  12.665
 5325TIP3    H137466   4.358   4.268  12.640
 5325TIP3    H237467   4.269   4.154  12.597
 5326TIP3   OH237468   5.125   4.228  12.533
 5326TIP3    H137469   5.168   4.197  12.613
 5326TIP3    H237470   5.197   4.263  12.480
 5327TIP3   OH237471   3.982   4.434  12.746
 5327TIP3    H137472   4.046   4.391  12.802
 5327TIP3    H237473   3.999   4.398  12.659
 5328TIP3   OH237474   4.465   4.587  12.740
 5328TIP3    H137475   4.553   4.556  12.761
 5328TIP3    H237476   4.431   4.522  12.678
 5329TIP3   OH237477   5.585   4.266  13.262
 5329TIP3    H137478   5.529   4.338  13.234
 5329TIP3    H237479   5.534   4.220  13.329
 5330TIP3   OH237480   4.206   4.103  13.101
 5330TIP3    H137481   4.178   4.170  13.038
 5330TIP3    H237482   4.134   4.098  13.164
 5331TIP3   OH237483   4.901   5.029  12.455
 5331TIP3    H137484   4.896   5.032  12.359
 5331TIP3    H237485   4.866   5.113  12.483
 5332TIP3   OH237486   4.468   4.887  13.079
 5332TIP3    H137487   4.419   4.960  13.115
 5332TIP3    H237488   4.542   4.929  13.034
 5333TIP3   OH237489   5.220   4.176  12.783
 5333TIP3    H137490   5.159   4.142  12.849
 5333TIP3    H237491   5.278   4.233  12.833
 5334TIP3   OH237492   4.178   4.275  12.882
 5334TIP3    H137493   4.231   4.336  12.934
 5334TIP3    H237494   4.236   4.247  12.812
 5335TIP3   OH237495   4.320   5.091  13.193
 5335TIP3    H137496   4.328   5.186  13.187
 5335TIP3    H237497   4.229   5.076  13.220
 5336TIP3   OH237498   3.882   5.067  12.274
 5336TIP3    H137499   3.872   5.105  12.186
 5336TIP3    H237500   3.898   5.143  12.330
 5337TIP3   OH237501   5.252   5.231  12.962
 5337TIP3    H137502   5.158   5.235  12.978
 5337TIP3    H237503   5.276   5.321  12.937
 5338TIP3   OH237504   5.322   4.005  13.121
 5338TIP3    H137505   5.255   4.040  13.062
 5338TIP3    H237506   5.405   4.027  13.079
 5339TIP3   OH237507   4.576   3.788  12.865
 5339TIP3    H137508   4.555   3.695  12.871
 5339TIP3    H237509   4.498   3.832  12.901
 5340TIP3   OH237510   5.073   5.383  12.549
 5340TIP3    H137511   5.115   5.297  12.539
 5340TIP3    H237512   5.146   5.442  12.567
 5341TIP3   OH237513   5.209   5.151  12.516
 5341TIP3    H137514   5.226   5.089  12.446
 5341TIP3    H237515   5.220   5.101  12.597
 5342TIP3   OH237516   5.376   5.009  13.310
 5342TIP3    H137517   5.361   4.950  13.236
 5342TIP3    H237518   5.391   5.095  13.271
 5343TIP3   OH237519   4.811   4.709  12.319
 5343TIP3    H137520   4.745   4.773  12.293
 5343TIP3    H237521   4.877   4.713  12.249
 5344TIP3   OH237522   4.848   4.573  11.985
 5344TIP3    H137523   4.908   4.599  12.055
 5344TIP3    H237524   4.898   4.510  11.932
 5345TIP3   OH237525   5.530   4.678  13.153
 5345TIP3    H137526   5.457   4.739  13.139
 5345TIP3    H237527   5.590   4.695  13.080
 5346TIP3   OH237528   5.187   4.746  12.390
 5346TIP3    H137529   5.116   4.758  12.452
 5346TIP3    H237530   5.252   4.693  12.436
 5347TIP3   OH237531   5.144   4.534  13.345
 5347TIP3    H137532   5.139   4.607  13.406
 5347TIP3    H237533   5.081   4.555  13.277
 5348TIP3   OH237534   4.321   4.773  12.579
 5348TIP3    H137535   4.293   4.736  12.496
 5348TIP3    H237536   4.377   4.706  12.619
 5349TIP3   OH237537   4.511   5.143  12.846
 5349TIP3    H137538   4.504   5.141  12.750
 5349TIP3    H237539   4.582   5.083  12.866
 5350TIP3   OH237540   4.326   4.689  12.954
 5350TIP3    H137541   4.379   4.662  12.879
 5350TIP3    H237542   4.378   4.757  12.997
 5351TIP3   OH237543   4.990   5.254  13.037
 5351TIP3    H137544   4.981   5.317  13.109
 5351TIP3    H237545   4.953   5.173  13.072
 5352TIP3   OH237546   4.473   5.108  13.425
 5352TIP3    H137547   4.409   5.165  13.469
 5352TIP3    H237548   4.430   5.082  13.344
 5353TIP3   OH237549   5.046   4.669  12.164
 5353TIP3    H137550   5.097   4.705  12.237
 5353TIP3    H237551   5.097   4.690  12.086
 5354TIP3   OH237552   4.132   4.690  13.401
 5354TIP3    H137553   4.148   4.775  13.443
 5354TIP3    H237554   4.042   4.694  13.370
 5355TIP3   OH237555   4.815   5.292  12.473
 5355TIP3    H137556   4.898   5.334  12.496
 5355TIP3    H237557   4.796   5.323  12.384
 5356TIP3   OH237558   4.272   5.282  13.499
 5356TIP3    H137559   4.272   5.316  13.410
 5356TIP3    H237560   4.179   5.273  13.521
 5357TIP3   OH237561   5.416   3.808  12.151
 5357TIP3    H137562   5.331   3.831  12.189
 5357TIP3    H237563   5.448   3.889  12.112
 5358TIP3   OH237564   4.233   4.685  12.328
 5358TIP3    H137565   4.175   4.752  12.294
 5358TIP3    H237566   4.203   4.604  12.288
 5359TIP3   OH237567   5.564   5.257  12.021
 5359TIP3    H137568   5.572   5.352  12.013
 5359TIP3    H237569   5.654   5.225  12.019
 5360TIP3   OH237570   3.846   4.948  13.254
 5360TIP3    H137571   3.794   4.959  13.174
 5360TIP3    H237572   3.858   4.854  13.261
 5361TIP3   OH237573   3.781   5.241  12.953
 5361TIP3    H137574   3.875   5.253  12.970
 5361TIP3    H237575   3.743   5.328  12.965
 5362TIP3   OH237576   5.634   5.304  13.539
 5362TIP3    H137577   5.625   5.210  13.528
 5362TIP3    H237578   5.547   5.333  13.569
 5363TIP3   OH237579   4.709   5.241  13.381
 5363TIP3    H137580   4.700   5.324  13.428
 5363TIP3    H237581   4.626   5.196  13.397
 5364TIP3   OH237582   4.770   5.600  12.337
 5364TIP3    H137583   4.788   5.604  12.244
 5364TIP3    H237584   4.779   5.690  12.367
 5365TIP3   OH237585   4.123   5.462  12.536
 5365TIP3    H137586   4.132   5.436  12.628
 5365TIP3    H237587   4.057   5.403  12.501
 5366TIP3   OH237588   5.087   5.548  12.036
 5366TIP3    H137589   5.133   5.474  11.999
 5366TIP3    H237590   5.091   5.535  12.131
 5367TIP3   OH237591   5.045   5.533  12.315
 5367TIP3    H137592   4.951   5.543  12.330
 5367TIP3    H237593   5.074   5.472  12.383
 5368TIP3   OH237594   5.334   4.403  13.525
 5368TIP3    H137595   5.268   4.443  13.470
 5368TIP3    H237596   5.333   4.310  13.501
 5369TIP3   OH237597   4.070   5.098  13.312
 5369TIP3    H137598   4.093   5.059  13.396
 5369TIP3    H237599   3.991   5.052  13.285
 5370TIP3   OH237600   4.307   3.923  12.899
 5370TIP3    H137601   4.215   3.899  12.889
 5370TIP3    H237602   4.309   3.984  12.973
 5371TIP3   OH237603   4.796   3.890  13.294
 5371TIP3    H137604   4.842   3.841  13.363
 5371TIP3    H237605   4.703   3.880  13.314
 5372TIP3   OH237606   5.086   4.261  13.372
 5372TIP3    H137607   5.024   4.247  13.444
 5372TIP3    H237608   5.089   4.357  13.362
 5373TIP3   OH237609   5.201   4.713  11.947
 5373TIP3    H137610   5.166   4.717  11.857
 5373TIP3    H237611   5.293   4.735  11.938
 5374TIP3   OH237612   4.800   4.116  11.974
 5374TIP3    H137613   4.755   4.115  12.059
 5374TIP3    H237614   4.746   4.062  11.917
 5375TIP3   OH237615   4.323   4.431  13.059
 5375TIP3    H137616   4.263   4.435  13.133
 5375TIP3    H237617   4.332   4.522  13.030
 5376TIP3   OH237618   4.329   4.430  12.558
 5376TIP3    H137619   4.234   4.425  12.545
 5376TIP3    H237620   4.365   4.428  12.469
 5377TIP3   OH237621   4.859   4.461  12.427
 5377TIP3    H137622   4.834   4.546  12.392
 5377TIP3    H237623   4.930   4.431  12.370
 5378TIP3   OH237624   4.788   4.475  13.538
 5378TIP3    H137625   4.738   4.404  13.576
 5378TIP3    H237626   4.873   4.472  13.583
 5379TIP3   OH237627   4.961   4.400  12.680
 5379TIP3    H137628   4.917   4.445  12.608
 5379TIP3    H237629   5.011   4.330  12.637
 5380TIP3   OH237630   4.121   4.457  13.244
 5380TIP3    H137631   4.130   4.524  13.312
 5380TIP3    H237632   4.048   4.402  13.274
 5381TIP3   OH237633   4.486   4.239  11.950
 5381TIP3    H137634   4.465   4.159  11.998
 5381TIP3    H237635   4.403   4.266  11.911
 5382TIP3   OH237636   3.759   4.125  12.640
 5382TIP3    H137637   3.829   4.142  12.703
 5382TIP3    H237638   3.803   4.127  12.555
 5383TIP3   OH237639   3.819   4.232  12.144
 5383TIP3    H137640   3.884   4.272  12.086
 5383TIP3    H237641   3.759   4.303  12.165
 5384TIP3   OH237642   4.938   4.551  13.151
 5384TIP3    H137643   4.969   4.494  13.081
 5384TIP3    H237644   4.868   4.501  13.194
 5385TIP3   OH237645   4.643   4.148  12.645
 5385TIP3    H137646   4.564   4.171  12.695
 5385TIP3    H237647   4.702   4.111  12.711
 5386TIP3   OH237648   4.068   4.346  12.491
 5386TIP3    H137649   3.990   4.393  12.459
 5386TIP3    H237650   4.091   4.286  12.420
 5387TIP3   OH237651   4.394   4.393  12.295
 5387TIP3    H137652   4.486   4.366  12.301
 5387TIP3    H237653   4.386   4.426  12.206
 5388TIP3   OH237654   5.026   4.102  12.972
 5388TIP3    H137655   4.981   4.109  13.057
 5388TIP3    H237656   4.964   4.054  12.916
 5389TIP3   OH237657   4.335   4.488  12.043
 5389TIP3    H137658   4.288   4.440  11.975
 5389TIP3    H237659   4.419   4.510  12.003
 5390TIP3   OH237660   5.377   5.671  13.616
 5390TIP3    H137661   5.401   5.712  13.533
 5390TIP3    H237662   5.449   5.693  13.675
 5391TIP3   OH237663   4.136   4.932  13.544
 5391TIP3    H137664   4.202   4.927  13.613
 5391TIP3    H237665   4.054   4.948  13.590
 5392TIP3   OH237666   4.708   4.477  12.834
 5392TIP3    H137667   4.781   4.434  12.791
 5392TIP3    H237668   4.682   4.417  12.904
 5393TIP3   OH237669   4.189   4.022  12.496
 5393TIP3    H137670   4.111   3.968  12.487
 5393TIP3    H237671   4.200   4.064  12.411
 5394TIP3   OH237672   4.586   4.332  13.054
 5394TIP3    H137673   4.504   4.381  13.062
 5394TIP3    H237674   4.639   4.361  13.128
 5395TIP3   OH237675   4.614   4.899  12.247
 5395TIP3    H137676   4.549   4.849  12.199
 5395TIP3    H237677   4.572   4.920  12.331
 5396TIP3   OH237678   5.339   4.863  13.079
 5396TIP3    H137679   5.401   4.916  13.029
 5396TIP3    H237680   5.269   4.841  13.017
 5397TIP3   OH237681   5.022   4.163  12.125
 5397TIP3    H137682   4.940   4.161  12.075
 5397TIP3    H237683   5.029   4.254  12.155
 5398TIP3   OH237684   4.793   4.950  13.389
 5398TIP3    H137685   4.818   4.908  13.472
 5398TIP3    H237686   4.758   5.035  13.415
 5399TIP3   OH237687   5.073   4.405  12.255
 5399TIP3    H137688   5.163   4.389  12.284
 5399TIP3    H237689   5.077   4.493  12.216
 5400TIP3   OH237690   4.159   4.854  12.786
 5400TIP3    H137691   4.211   4.839  12.707
 5400TIP3    H237692   4.199   4.797  12.852
 5401TIP3   OH237693   4.827   5.057  12.184
 5401TIP3    H137694   4.792   5.146  12.193
 5401TIP3    H237695   4.752   5.000  12.201
 5402TIP3   OH237696   3.863   4.672  13.328
 5402TIP3    H137697   3.829   4.629  13.406
 5402TIP3    H237698   3.793   4.665  13.263
 5403TIP3   OH237699   4.586   4.669  13.566
 5403TIP3    H137700   4.517   4.629  13.513
 5403TIP3    H237701   4.664   4.617  13.547
 5404TIP3   OH237702   4.990   5.232  13.381
 5404TIP3    H137703   4.896   5.230  13.359
 5404TIP3    H237704   4.992   5.240  13.477
 5405TIP3   OH237705   5.522   4.436  12.181
 5405TIP3    H137706   5.483   4.412  12.097
 5405TIP3    H237707   5.545   4.528  12.171
 5406TIP3   OH237708   5.594   5.036  13.477
 5406TIP3    H137709   5.504   5.034  13.447
 5406TIP3    H237710   5.646   5.012  13.400
 5407TIP3   OH237711   5.411   5.278  12.256
 5407TIP3    H137712   5.359   5.201  12.276
 5407TIP3    H237713   5.454   5.258  12.173
 5408TIP3   OH237714   5.137   4.791  12.893
 5408TIP3    H137715   5.042   4.782  12.892
 5408TIP3    H237716   5.169   4.714  12.845
 5409TIP3   OH237717   4.400   5.206  12.591
 5409TIP3    H137718   4.410   5.294  12.553
 5409TIP3    H237719   4.317   5.209  12.637
 5410TIP3   OH237720   3.970   4.668  12.052
 5410TIP3    H137721   4.013   4.738  12.100
 5410TIP3    H237722   3.878   4.674  12.078
 5411TIP3   OH237723   4.473   4.974  12.463
 5411TIP3    H137724   4.453   5.057  12.506
 5411TIP3    H237725   4.418   4.910  12.508
 5412TIP3   OH237726   4.608   5.384  13.158
 5412TIP3    H137727   4.672   5.449  13.130
 5412TIP3    H237728   4.656   5.327  13.218
 5413TIP3   OH237729   4.390   5.479  12.499
 5413TIP3    H137730   4.294   5.470  12.493
 5413TIP3    H237731   4.405   5.527  12.580
 5414TIP3   OH237732   4.899   5.007  13.139
 5414TIP3    H137733   4.861   4.986  13.225
 5414TIP3    H237734   4.966   4.940  13.126
 5415TIP3   OH237735   5.203   5.099  12.045
 5415TIP3    H137736   5.214   5.058  12.131
 5415TIP3    H237737   5.118   5.068  12.014
 5416TIP3   OH237738   5.207   5.403  13.348
 5416TIP3    H137739   5.127   5.350  13.350
 5416TIP3    H237740   5.185   5.476  13.290
 5417TIP3   OH237741   5.600   5.530  12.024
 5417TIP3    H137742   5.631   5.593  11.960
 5417TIP3    H237743   5.530   5.575  12.071
 5418TIP3   OH237744   3.926   4.143  13.289
 5418TIP3    H137745   3.855   4.204  13.273
 5418TIP3    H237746   3.898   4.062  13.247
 5419TIP3   OH237747   5.288   4.986  12.292
 5419TIP3    H137748   5.242   4.907  12.320
 5419TIP3    H237749   5.380   4.961  12.289
 5420TIP3   OH237750   4.013   5.343  13.147
 5420TIP3    H137751   4.034   5.273  13.209
 5420TIP3    H237752   4.014   5.423  13.199
 5421TIP3   OH237753   4.560   5.177  11.902
 5421TIP3    H137754   4.563   5.100  11.845
 5421TIP3    H237755   4.520   5.146  11.983
 5422TIP3   OH237756   4.452   5.127  12.153
 5422TIP3    H137757   4.471   5.038  12.181
 5422TIP3    H237758   4.502   5.183  12.213
 5423TIP3   OH237759   4.073   4.876  12.206
 5423TIP3    H137760   4.002   4.926  12.247
 5423TIP3    H237761   4.121   4.942  12.155
 5424TIP3   OH237762   4.896   4.134  13.214
 5424TIP3    H137763   4.967   4.155  13.275
 5424TIP3    H237764   4.861   4.050  13.247
 5425TIP3   OH237765   4.984   4.046  12.375
 5425TIP3    H137766   4.982   4.083  12.287
 5425TIP3    H237767   5.025   4.114  12.429
 5426TIP3   OH237768   4.721   5.314  12.193
 5426TIP3    H137769   4.636   5.359  12.197
 5426TIP3    H237770   4.755   5.335  12.106
 5427TIP3   OH237771   4.636   4.297  12.407
 5427TIP3    H137772   4.712   4.355  12.409
 5427TIP3    H237773   4.641   4.249  12.489
 5428TIP3   OH237774   4.758   4.378  13.269
 5428TIP3    H137775   4.764   4.399  13.362
 5428TIP3    H237776   4.797   4.291  13.262
 5429TIP3   OH237777   4.748   3.942  12.482
 5429TIP3    H137778   4.716   4.021  12.525
 5429TIP3    H237779   4.823   3.971  12.430
 5430TIP3   OH237780   4.464   5.430  12.189
 5430TIP3    H137781   4.456   5.468  12.101
 5430TIP3    H237782   4.386   5.375  12.198
 5431TIP3   OH237783   4.234   4.169  12.277
 5431TIP3    H137784   4.283   4.251  12.270
 5431TIP3    H237785   4.281   4.108  12.220
 5432TIP3   OH237786   5.335   4.152  13.361
 5432TIP3    H137787   5.245   4.183  13.367
 5432TIP3    H237788   5.337   4.099  13.281
 5433TIP3   OH237789   5.209   4.540  12.772
 5433TIP3    H137790   5.125   4.499  12.752
 5433TIP3    H237791   5.252   4.479  12.831
 5434TIP3   OH237792   4.188   5.079  12.052
 5434TIP3    H137793   4.267   5.117  12.091
 5434TIP3    H237794   4.221   5.027  11.979
 5435TIP3   OH237795   3.960   4.397  11.980
 5435TIP3    H137796   3.976   4.486  12.012
 5435TIP3    H237797   3.954   4.407  11.885
 5436TIP3   OH237798   5.338   5.500  12.953
 5436TIP3    H137799   5.323   5.574  12.895
 5436TIP3    H237800   5.433   5.492  12.957
 5437TIP3   OH237801   4.053   3.866  12.830
 5437TIP3    H137802   4.028   3.853  12.739
 5437TIP3    H237803   4.018   3.789  12.875
 5438TIP3   OH237804   3.925   5.310  12.411
 5438TIP3    H137805   3.860   5.341  12.474
 5438TIP3    H237806   3.917   5.371  12.337
 5439TIP3   OH237807   3.919   5.567  13.615
 5439TIP3    H137808   3.984   5.538  13.678
 5439TIP3    H237809   3.882   5.486  13.580
 5440TIP3   OH237810   4.346   5.379  13.745
 5440TIP3    H137811   4.424   5.328  13.768
 5440TIP3    H237812   4.323   5.349  13.657
 5441TIP3   OH237813   4.759   5.365  11.913
 5441TIP3    H137814   4.690   5.300  11.902
 5441TIP3    H237815   4.835   5.327  11.869
 5442TIP3   OH237816   4.990   5.255  13.653
 5442TIP3    H137817   4.979   5.172  13.699
 5442TIP3    H237818   5.066   5.295  13.696
 5443TIP3   OH237819   5.211   5.340  11.910
 5443TIP3    H137820   5.225   5.259  11.960
 5443TIP3    H237821   5.281   5.340  11.845
 5444TIP3   OH237822   3.889   4.950  13.676
 5444TIP3    H137823   3.889   4.855  13.667
 5444TIP3    H237824   3.820   4.980  13.616
 5445TIP3   OH237825   4.309   4.904  11.883
 5445TIP3    H137826   4.337   4.851  11.958
 5445TIP3    H237827   4.390   4.917  11.832
 5446TIP3   OH237828   4.553   4.943  13.632
 5446TIP3    H137829   4.533   4.987  13.549
 5446TIP3    H237830   4.579   4.855  13.606
 5447TIP3   OH237831   4.956   5.033  11.940
 5447TIP3    H137832   4.904   5.031  12.021
 5447TIP3    H237833   4.934   4.952  11.895
 5448TIP3   OH237834   5.116   4.976  13.400
 5448TIP3    H137835   5.206   4.996  13.375
 5448TIP3    H237836   5.068   5.057  13.385
 5449TIP3   OH237837   3.955   4.682  13.652
 5449TIP3    H137838   4.037   4.652  13.612
 5449TIP3    H237839   3.969   4.671  13.746
 5450TIP3   OH237840   4.417   4.773  12.108
 5450TIP3    H137841   4.359   4.720  12.163
 5450TIP3    H237842   4.466   4.710  12.057
 5451TIP3   OH237843   4.389   4.558  13.395
 5451TIP3    H137844   4.309   4.611  13.394
 5451TIP3    H237845   4.442   4.595  13.324
 5452TIP3   OH237846   4.571   4.606  11.954
 5452TIP3    H137847   4.571   4.629  11.862
 5452TIP3    H237848   4.662   4.583  11.974
 5453TIP3   OH237849   4.888   4.805  13.651
 5453TIP3    H137850   4.968   4.768  13.612
 5453TIP3    H237851   4.859   4.739  13.713
 5454TIP3   OH237852   5.464   4.787  11.883
 5454TIP3    H137853   5.459   4.768  11.790
 5454TIP3    H237854   5.457   4.882  11.889
 5455TIP3   OH237855   4.419   4.293  13.462
 5455TIP3    H137856   4.430   4.237  13.385
 5455TIP3    H237857   4.413   4.382  13.427
 5456TIP3   OH237858   4.452   4.140  13.223
 5456TIP3    H137859   4.506   4.189  13.160
 5456TIP3    H237860   4.366   4.134  13.180
 5457TIP3   OH237861   4.560   4.667  13.215
 5457TIP3    H137862   4.653   4.683  13.232
 5457TIP3    H237863   4.531   4.746  13.169
 5458TIP3   OH237864   5.021   4.446  13.702
 5458TIP3    H137865   5.042   4.353  13.699
 5458TIP3    H237866   5.103   4.488  13.731
 5459TIP3   OH237867   5.159   4.744  13.535
 5459TIP3    H137868   5.133   4.825  13.491
 5459TIP3    H237869   5.255   4.744  13.530
 5460TIP3   OH237870   4.260   4.354  13.685
 5460TIP3    H137871   4.192   4.287  13.675
 5460TIP3    H237872   4.311   4.347  13.604
 5461TIP3   OH237873   4.515   3.874  13.281
 5461TIP3    H137874   4.494   3.966  13.267
 5461TIP3    H237875   4.443   3.827  13.239
 5462TIP3   OH237876   4.642   4.261  13.627
 5462TIP3    H137877   4.612   4.229  13.712
 5462TIP3    H237878   4.564   4.262  13.572
 5463TIP3   OH237879   4.908   4.196  13.563
 5463TIP3    H137880   4.817   4.199  13.593
 5463TIP3    H237881   4.953   4.143  13.629
 5464TIP3   OH237882   5.088   4.084  13.746
 5464TIP3    H137883   5.085   3.989  13.733
 5464TIP3    H237884   5.061   4.097  13.837
 5465TIP3   OH237885   4.117   4.108  13.657
 5465TIP3    H137886   4.183   4.041  13.635
 5465TIP3    H237887   4.107   4.101  13.752
 5466TIP3   OH237888   4.505   3.790  13.541
 5466TIP3    H137889   4.560   3.711  13.542
 5466TIP3    H237890   4.507   3.819  13.450
 5467TIP3   OH237891   4.587   3.948  13.751
 5467TIP3    H137892   4.560   3.894  13.677
 5467TIP3    H237893   4.521   4.017  13.757
 5468TIP3   OH237894   4.572   5.698  12.143
 5468TIP3    H137895   4.657   5.668  12.109
 5468TIP3    H237896   4.536   5.752  12.073
 5469TIP3   OH237897   3.924   5.128  11.982
 5469TIP3    H137898   4.015   5.119  12.008
 5469TIP3    H237899   3.907   5.050  11.928
 5470TIP3   OH237900   3.776   5.639  12.550
 5470TIP3    H137901   3.721   5.608  12.478
 5470TIP3    H237902   3.792   5.561  12.603
 5471TIP3   OH237903   3.827   5.400  12.678
 5471TIP3    H137904   3.768   5.333  12.713
 5471TIP3    H237905   3.884   5.423  12.752
 5472TIP3   OH237906   5.609   5.508  13.013
 5472TIP3    H137907   5.615   5.466  13.099
 5472TIP3    H237908   5.626   5.601  13.031
 5473TIP3   OH237909   5.590   5.430  13.291
 5473TIP3    H137910   5.525   5.368  13.258
 5473TIP3    H237911   5.614   5.395  13.377
 5474TIP3   OH237912   5.415   5.058  13.779
 5474TIP3    H137913   5.331   5.068  13.822
 5474TIP3    H237914   5.469   5.128  13.814
 5475TIP3   OH237915   5.551   4.893  12.304
 5475TIP3    H137916   5.625   4.954  12.306
 5475TIP3    H237917   5.569   4.831  12.375
 5476TIP3   OH237918   5.604   4.695  12.492
 5476TIP3    H137919   5.520   4.659  12.522
 5476TIP3    H237920   5.655   4.706  12.573
 5477TIP3   OH237921   5.581   4.988  13.005
 5477TIP3    H137922   5.628   4.912  12.970
 5477TIP3    H237923   5.621   5.063  12.962
 5478TIP3   OH237924   5.392   5.262  13.201
 5478TIP3    H137925   5.322   5.307  13.248
 5478TIP3    H237926   5.356   5.245  13.114
 5479TIP3   OH237927   5.585   4.695  12.112
 5479TIP3    H137928   5.539   4.720  12.031
 5479TIP3    H237929   5.564   4.765  12.174
 5480TIP3   OH237930   5.430   4.395  11.928
 5480TIP3    H137931   5.409   4.450  11.853
 5480TIP3    H237932   5.415   4.306  11.896
 5481TIP3   OH237933   5.354   4.572  12.535
 5481TIP3    H137934   5.348   4.484  12.498
 5481TIP3    H237935   5.309   4.565  12.620
 5482TIP3   OH237936   3.820   4.703  12.957
 5482TIP3    H137937   3.833   4.713  12.862
 5482TIP3    H237938   3.908   4.695  12.993
 5483TIP3   OH237939   5.437   4.748  13.516
 5483TIP3    H137940   5.495   4.673  13.507
 5483TIP3    H237941   5.479   4.817  13.465
 5484TIP3   OH237942   5.584   4.515  13.509
 5484TIP3    H137943   5.498   4.472  13.511
 5484TIP3    H237944   5.644   4.451  13.547
 5485TIP3   OH237945   5.368   4.145  11.830
 5485TIP3    H137946   5.406   4.097  11.903
 5485TIP3    H237947   5.274   4.124  11.834
 5486TIP3   OH237948   5.337   4.329  12.368
 5486TIP3    H137949   5.364   4.237  12.373
 5486TIP3    H237950   5.399   4.369  12.307
 5487TIP3   OH237951   5.361   4.362  12.933
 5487TIP3    H137952   5.454   4.372  12.912
 5487TIP3    H237953   5.355   4.383  13.026
 5488TIP3   OH237954   5.383   4.450  13.198
 5488TIP3    H137955   5.304   4.479  13.244
 5488TIP3    H237956   5.435   4.530  13.186
 5489TIP3   OH237957   3.830   4.279  13.624
 5489TIP3    H137958   3.878   4.324  13.695
 5489TIP3    H237959   3.742   4.267  13.659
 5490TIP3   OH237960   5.636   3.879  13.718
 5490TIP3    H137961   5.693   3.808  13.687
 5490TIP3    H237962   5.634   3.942  13.646
 5491TIP3   OH237963   5.398   4.056  12.388
 5491TIP3    H137964   5.414   4.016  12.474
 5491TIP3    H237965   5.334   3.999  12.347
 5492TIP3   OH237966   3.940   4.124  12.852
 5492TIP3    H137967   3.975   4.035  12.855
 5492TIP3    H237968   4.016   4.181  12.867
 5493TIP3   OH237969   3.747   4.428  12.916
 5493TIP3    H137970   3.814   4.411  12.850
 5493TIP3    H237971   3.760   4.519  12.942
 5494TIP3   OH237972   5.556   4.068  13.533
 5494TIP3    H137973   5.480   4.098  13.582
 5494TIP3    H237974   5.520   4.021  13.457
 5495TIP3   OH237975   5.528   4.024  12.022
 5495TIP3    H137976   5.582   3.968  11.966
 5495TIP3    H237977   5.590   4.085  12.062
 5496TIP3   OH237978   3.809   4.065  12.359
 5496TIP3    H137979   3.714   4.051  12.362
 5496TIP3    H237980   3.822   4.129  12.289
 5497TIP3   OH237981   5.271   5.572  12.564
 5497TIP3    H137982   5.332   5.551  12.493
 5497TIP3    H237983   5.322   5.627  12.624
 5498TIP3   OH237984   3.793   3.922  13.184
 5498TIP3    H137985   3.720   3.884  13.233
 5498TIP3    H237986   3.751   3.974  13.115
 5499TIP3   OH237987   4.012   5.261  13.600
 5499TIP3    H137988   3.925   5.273  13.564
 5499TIP3    H237989   3.997   5.234  13.690
 5500TIP3   OH237990   4.345   5.364  13.237
 5500TIP3    H137991   4.310   5.450  13.213
 5500TIP3    H237992   4.438   5.369  13.217
 5501TIP3   OH237993   4.703   5.486  13.513
 5501TIP3    H137994   4.715   5.451  13.601
 5501TIP3    H237995   4.783   5.536  13.496
 5502TIP3   OH237996   4.935   5.627  13.466
 5502TIP3    H137997   4.991   5.576  13.408
 5502TIP3    H237998   4.991   5.650  13.541
 5503TIP3   OH237999   5.469   3.837  13.352
 5503TIP3    H138000   5.393   3.852  13.295
 5503TIP3    H238001   5.495   3.747  13.334
 5504TIP3   OH238002   4.022   5.620  13.233
 5504TIP3    H138003   3.980   5.659  13.157
 5504TIP3    H238004   3.995   5.674  13.307
 5505TIP3   OH238005   4.290   5.625  13.168
 5505TIP3    H138006   4.196   5.627  13.189
 5505TIP3    H238007   4.296   5.670  13.084
 5506TIP3   OH238008   4.759   5.592  13.054
 5506TIP3    H138009   4.707   5.626  12.981
 5506TIP3    H238010   4.754   5.661  13.120
 5507TIP3   OH238011   4.989   5.504  13.180
 5507TIP3    H138012   4.912   5.530  13.130
 5507TIP3    H238013   5.058   5.564  13.151
 5508TIP3   OH238014   5.242   5.641  13.170
 5508TIP3    H138015   5.253   5.732  13.145
 5508TIP3    H238016   5.273   5.591  13.095
 5509TIP3   OH238017   3.996   5.441  12.889
 5509TIP3    H138018   4.003   5.418  12.982
 5509TIP3    H238019   4.087   5.450  12.860
 5510TIP3   OH238020   4.245   5.390  12.783
 5510TIP3    H138021   4.225   5.301  12.810
 5510TIP3    H238022   4.325   5.412  12.831
 5511TIP3   OH238023   4.496   5.415  12.905
 5511TIP3    H138024   4.507   5.325  12.874
 5511TIP3    H238025   4.520   5.412  12.997
 5512TIP3   OH238026   4.793   3.986  12.814
 5512TIP3    H138027   4.734   3.912  12.830
 5512TIP3    H238028   4.869   3.947  12.770
 5513TIP3   OH238029   5.290   3.839  12.806
 5513TIP3    H138030   5.350   3.891  12.752
 5513TIP3    H238031   5.202   3.869  12.779
 5514TIP3   OH238032   5.475   3.928  12.623
 5514TIP3    H138033   5.540   3.861  12.599
 5514TIP3    H238034   5.527   4.007  12.640
 5515TIP3   OH238035   4.021   3.818  12.564
 5515TIP3    H138036   3.929   3.807  12.541
 5515TIP3    H238037   4.062   3.735  12.539
 5516TIP3   OH238038   3.955   3.872  12.194
 5516TIP3    H138039   4.004   3.918  12.126
 5516TIP3    H238040   3.914   3.942  12.245
 5517TIP3   OH238041   4.514   3.833  12.592
 5517TIP3    H138042   4.581   3.864  12.530
 5517TIP3    H238043   4.564   3.800  12.666
 5518TIP3   OH238044   5.019   3.866  12.713
 5518TIP3    H138045   5.029   3.859  12.618
 5518TIP3    H238046   5.004   3.775  12.742
 5519TIP3   OH238047   5.197   3.881  12.302
 5519TIP3    H138048   5.122   3.939  12.317
 5519TIP3    H238049   5.162   3.793  12.312
 5520TIP3   OH238050   3.929   5.483  12.190
 5520TIP3    H138051   3.850   5.487  12.136
 5520TIP3    H238052   3.953   5.574  12.204
 5521TIP3   OH238053   4.119   3.981  11.982
 5521TIP3    H138054   4.154   3.922  11.915
 5521TIP3    H238055   4.195   4.003  12.036
 5522TIP3   OH238056   4.679   4.094  12.218
 5522TIP3    H138057   4.597   4.052  12.192
 5522TIP3    H238058   4.652   4.164  12.277
 5523TIP3   OH238059   4.814   5.590  12.064
 5523TIP3    H138060   4.908   5.599  12.049
 5523TIP3    H238061   4.786   5.524  12.001
 5524TIP3   OH238062   5.463   5.522  12.369
 5524TIP3    H138063   5.447   5.433  12.336
 5524TIP3    H238064   5.456   5.578  12.292
 5525TIP3   OH238065   4.003   3.874  13.500
 5525TIP3    H138066   3.959   3.798  13.539
 5525TIP3    H238067   4.092   3.870  13.535
 5526TIP3   OH238068   4.248   3.861  13.620
 5526TIP3    H138069   4.337   3.833  13.599
 5526TIP3    H238070   4.219   3.800  13.689
 5527TIP3   OH238071   4.114   5.513  11.921
 5527TIP3    H138072   4.063   5.491  11.999
 5527TIP3    H238073   4.182   5.445  11.917
 5528TIP3   OH238074   5.112   3.811  13.693
 5528TIP3    H138075   5.100   3.763  13.774
 5528TIP3    H238076   5.204   3.800  13.671
 5529TIP3   OH238077   5.378   5.399  13.569
 5529TIP3    H138078   5.317   5.390  13.496
 5529TIP3    H238079   5.373   5.491  13.594
 5530TIP3   OH238080   6.849   4.817  12.520
 5530TIP3    H138081   6.824   4.909  12.519
 5530TIP3    H238082   6.783   4.774  12.466
 5531TIP3   OH238083   6.700   4.700  12.925
 5531TIP3    H138084   6.740   4.660  13.002
 5531TIP3    H238085   6.663   4.625  12.877
 5532TIP3   OH238086   5.939   4.642  13.058
 5532TIP3    H138087   5.948   4.570  13.121
 5532TIP3    H238088   6.028   4.661  13.030
 5533TIP3   OH238089   7.102   5.034  12.768
 5533TIP3    H138090   7.062   4.957  12.808
 5533TIP3    H238091   7.123   5.091  12.842
 5534TIP3   OH238092   6.066   5.117  12.863
 5534TIP3    H138093   6.042   5.029  12.834
 5534TIP3    H238094   6.160   5.112  12.879
 5535TIP3   OH238095   5.732   4.473  12.379
 5535TIP3    H138096   5.695   4.552  12.417
 5535TIP3    H238097   5.666   4.442  12.317
 5536TIP3   OH238098   5.793   4.709  12.702
 5536TIP3    H138099   5.821   4.618  12.716
 5536TIP3    H238100   5.872   4.761  12.715
 5537TIP3   OH238101   6.835   5.458  12.815
 5537TIP3    H138102   6.852   5.406  12.736
 5537TIP3    H238103   6.833   5.394  12.885
 5538TIP3   OH238104   6.563   4.951  12.945
 5538TIP3    H138105   6.600   4.868  12.915
 5538TIP3    H238106   6.633   4.991  12.996
 5539TIP3   OH238107   6.894   4.370  12.943
 5539TIP3    H138108   6.898   4.275  12.952
 5539TIP3    H238109   6.869   4.384  12.851
 5540TIP3   OH238110   6.161   4.218  12.692
 5540TIP3    H138111   6.196   4.295  12.646
 5540TIP3    H238112   6.117   4.168  12.624
 5541TIP3   OH238113   7.000   4.171  12.502
 5541TIP3    H138114   7.027   4.151  12.591
 5541TIP3    H238115   7.059   4.241  12.473
 5542TIP3   OH238116   5.861   4.447  12.754
 5542TIP3    H138117   5.919   4.403  12.817
 5542TIP3    H238118   5.887   4.412  12.669
 5543TIP3   OH238119   6.339   4.581  12.744
 5543TIP3    H138120   6.422   4.544  12.771
 5543TIP3    H238121   6.305   4.521  12.678
 5544TIP3   OH238122   6.083   4.114  13.119
 5544TIP3    H138123   6.061   4.177  13.049
 5544TIP3    H238124   6.011   4.123  13.181
 5545TIP3   OH238125   6.751   5.063  12.444
 5545TIP3    H138126   6.770   5.073  12.351
 5545TIP3    H238127   6.708   5.145  12.468
 5546TIP3   OH238128   6.351   4.866  13.101
 5546TIP3    H138129   6.305   4.943  13.135
 5546TIP3    H238130   6.424   4.903  13.051
 5547TIP3   OH238131   7.090   4.119  12.763
 5547TIP3    H138132   7.017   4.101  12.822
 5547TIP3    H238133   7.154   4.166  12.816
 5548TIP3   OH238134   6.034   4.294  12.916
 5548TIP3    H138135   6.094   4.351  12.965
 5548TIP3    H238136   6.085   4.264  12.841
 5549TIP3   OH238137   6.207   5.079  13.203
 5549TIP3    H138138   6.216   5.173  13.192
 5549TIP3    H238139   6.116   5.066  13.229
 5550TIP3   OH238140   5.777   5.062  12.283
 5550TIP3    H138141   5.773   5.103  12.196
 5550TIP3    H238142   5.797   5.134  12.343
 5551TIP3   OH238143   7.127   5.235  12.973
 5551TIP3    H138144   7.032   5.241  12.978
 5551TIP3    H238145   7.156   5.324  12.951
 5552TIP3   OH238146   7.150   4.001  13.056
 5552TIP3    H138147   7.059   4.023  13.037
 5552TIP3    H238148   7.199   4.079  13.029
 5553TIP3   OH238149   6.453   3.800  12.869
 5553TIP3    H138150   6.448   3.794  12.774
 5553TIP3    H238151   6.374   3.847  12.895
 5554TIP3   OH238152   6.923   5.349  12.573
 5554TIP3    H138153   6.963   5.264  12.555
 5554TIP3    H238154   6.996   5.407  12.592
 5555TIP3   OH238155   7.095   5.148  12.517
 5555TIP3    H138156   7.119   5.083  12.450
 5555TIP3    H238157   7.103   5.101  12.600
 5556TIP3   OH238158   7.229   4.958  13.332
 5556TIP3    H138159   7.218   4.909  13.250
 5556TIP3    H238160   7.259   5.044  13.305
 5557TIP3   OH238161   6.708   4.727  12.292
 5557TIP3    H138162   6.645   4.795  12.268
 5557TIP3    H238163   6.778   4.734  12.227
 5558TIP3   OH238164   6.750   4.564  11.979
 5558TIP3    H138165   6.810   4.596  12.046
 5558TIP3    H238166   6.803   4.507  11.924
 5559TIP3   OH238167   7.074   4.751  12.380
 5559TIP3    H138168   7.002   4.776  12.438
 5559TIP3    H238169   7.125   4.687  12.430
 5560TIP3   OH238170   7.011   4.527  13.335
 5560TIP3    H138171   6.993   4.595  13.400
 5560TIP3    H238172   6.949   4.545  13.264
 5561TIP3   OH238173   6.223   4.781  12.587
 5561TIP3    H138174   6.198   4.736  12.506
 5561TIP3    H238175   6.275   4.716  12.635
 5562TIP3   OH238176   6.353   5.127  12.849
 5562TIP3    H138177   6.360   5.138  12.754
 5562TIP3    H238178   6.427   5.071  12.872
 5563TIP3   OH238179   6.198   4.693  12.955
 5563TIP3    H138180   6.252   4.663  12.883
 5563TIP3    H238181   6.254   4.753  13.004
 5564TIP3   OH238182   6.854   5.257  13.012
 5564TIP3    H138183   6.850   5.317  13.086
 5564TIP3    H238184   6.821   5.174  13.046
 5565TIP3   OH238185   6.366   5.107  13.431
 5565TIP3    H138186   6.307   5.167  13.477
 5565TIP3    H238187   6.317   5.079  13.354
 5566TIP3   OH238188   6.949   4.680  12.144
 5566TIP3    H138189   6.997   4.711  12.222
 5566TIP3    H238190   6.998   4.715  12.070
 5567TIP3   OH238191   6.010   4.696  13.424
 5567TIP3    H138192   6.021   4.787  13.454
 5567TIP3    H238193   5.924   4.695  13.381
 5568TIP3   OH238194   6.658   5.323  12.498
 5568TIP3    H138195   6.746   5.332  12.536
 5568TIP3    H238196   6.646   5.403  12.447
 5569TIP3   OH238197   6.171   5.293  13.497
 5569TIP3    H138198   6.173   5.320  13.405
 5569TIP3    H238199   6.079   5.277  13.516
 5570TIP3   OH238200   7.246   3.918  12.071
 5570TIP3    H138201   7.185   3.903  12.143
 5570TIP3    H238202   7.333   3.912  12.111
 5571TIP3   OH238203   6.120   4.687  12.341
 5571TIP3    H138204   6.067   4.759  12.306
 5571TIP3    H238205   6.059   4.614  12.349
 5572TIP3   OH238206   5.719   4.951  13.251
 5572TIP3    H138207   5.669   4.956  13.170
 5572TIP3    H238208   5.731   4.857  13.266
 5573TIP3   OH238209   5.758   5.198  12.918
 5573TIP3    H138210   5.847   5.168  12.899
 5573TIP3    H238211   5.767   5.251  12.997
 5574TIP3   OH238212   6.598   5.236  13.366
 5574TIP3    H138213   6.601   5.317  13.416
 5574TIP3    H238214   6.517   5.194  13.394
 5575TIP3   OH238215   6.672   5.571  12.358
 5575TIP3    H138216   6.661   5.577  12.263
 5575TIP3    H238217   6.644   5.656  12.391
 5576TIP3   OH238218   6.014   5.480  12.560
 5576TIP3    H138219   6.034   5.445  12.647
 5576TIP3    H238220   5.960   5.413  12.519
 5577TIP3   OH238221   6.960   5.541  12.047
 5577TIP3    H138222   7.001   5.467  12.002
 5577TIP3    H238223   6.974   5.524  12.140
 5578TIP3   OH238224   6.938   5.500  12.325
 5578TIP3    H138225   6.845   5.516  12.342
 5578TIP3    H238226   6.964   5.438  12.393
 5579TIP3   OH238227   7.183   4.441  13.566
 5579TIP3    H138228   7.150   4.479  13.485
 5579TIP3    H238229   7.259   4.389  13.540
 5580TIP3   OH238230   5.951   5.088  13.303
 5580TIP3    H138231   5.974   5.058  13.392
 5580TIP3    H238232   5.871   5.040  13.282
 5581TIP3   OH238233   6.192   3.911  12.954
 5581TIP3    H138234   6.119   3.903  12.892
 5581TIP3    H238235   6.168   3.986  13.009
 5582TIP3   OH238236   6.677   3.900  13.297
 5582TIP3    H138237   6.724   3.845  13.360
 5582TIP3    H238238   6.585   3.882  13.313
 5583TIP3   OH238239   7.006   4.242  13.363
 5583TIP3    H138240   6.951   4.239  13.442
 5583TIP3    H238241   7.015   4.335  13.344
 5584TIP3   OH238242   7.086   4.772  11.926
 5584TIP3    H138243   7.046   4.742  11.845
 5584TIP3    H238244   7.156   4.832  11.899
 5585TIP3   OH238245   6.619   4.128  12.026
 5585TIP3    H138246   6.570   4.116  12.107
 5585TIP3    H238247   6.585   4.060  11.967
 5586TIP3   OH238248   6.213   4.441  13.069
 5586TIP3    H138249   6.163   4.447  13.151
 5586TIP3    H238250   6.214   4.530  13.035
 5587TIP3   OH238251   6.209   4.442  12.539
 5587TIP3    H138252   6.115   4.428  12.526
 5587TIP3    H238253   6.248   4.427  12.453
 5588TIP3   OH238254   6.772   4.485  12.407
 5588TIP3    H138255   6.748   4.570  12.370
 5588TIP3    H238256   6.841   4.452  12.349
 5589TIP3   OH238257   6.682   4.485  13.533
 5589TIP3    H138258   6.642   4.407  13.571
 5589TIP3    H238259   6.763   4.497  13.581
 5590TIP3   OH238260   6.859   4.412  12.669
 5590TIP3    H138261   6.837   4.460  12.589
 5590TIP3    H238262   6.810   4.330  12.663
 5591TIP3   OH238263   5.979   4.429  13.234
 5591TIP3    H138264   6.024   4.453  13.315
 5591TIP3    H238265   5.937   4.345  13.254
 5592TIP3   OH238266   6.317   4.179  11.912
 5592TIP3    H138267   6.282   4.163  12.000
 5592TIP3    H238268   6.250   4.233  11.869
 5593TIP3   OH238269   5.652   4.132  12.634
 5593TIP3    H138270   5.714   4.140  12.706
 5593TIP3    H238271   5.706   4.118  12.556
 5594TIP3   OH238272   5.692   4.216  12.139
 5594TIP3    H138273   5.762   4.256  12.087
 5594TIP3    H238274   5.631   4.288  12.157
 5595TIP3   OH238275   6.812   4.546  13.134
 5595TIP3    H138276   6.847   4.487  13.067
 5595TIP3    H238277   6.744   4.494  13.178
 5596TIP3   OH238278   6.367   4.038  12.693
 5596TIP3    H138279   6.297   4.101  12.711
 5596TIP3    H238280   6.447   4.090  12.691
 5597TIP3   OH238281   5.948   4.358  12.504
 5597TIP3    H138282   5.873   4.388  12.453
 5597TIP3    H238283   5.959   4.266  12.481
 5598TIP3   OH238284   6.310   4.373  12.287
 5598TIP3    H138285   6.394   4.352  12.329
 5598TIP3    H238286   6.335   4.413  12.204
 5599TIP3   OH238287   6.895   4.091  12.983
 5599TIP3    H138288   6.852   4.115  13.065
 5599TIP3    H238289   6.830   4.038  12.937
 5600TIP3   OH238290   6.187   4.543  11.943
 5600TIP3    H138291   6.160   4.469  11.889
 5600TIP3    H238292   6.283   4.537  11.945
 5601TIP3   OH238293   7.252   5.677  13.595
 5601TIP3    H138294   7.255   5.751  13.535
 5601TIP3    H238295   7.343   5.655  13.612
 5602TIP3   OH238296   6.009   4.948  13.546
 5602TIP3    H138297   6.078   4.940  13.612
 5602TIP3    H238298   5.930   4.968  13.597
 5603TIP3   OH238299   6.565   4.450  12.839
 5603TIP3    H138300   6.598   4.385  12.776
 5603TIP3    H238301   6.539   4.398  12.915
 5604TIP3   OH238302   6.036   4.088  12.480
 5604TIP3    H138303   5.988   4.009  12.505
 5604TIP3    H238304   6.088   4.062  12.405
 5605TIP3   OH238305   6.462   4.323  13.067
 5605TIP3    H138306   6.381   4.373  13.073
 5605TIP3    H238307   6.516   4.357  13.139
 5606TIP3   OH238308   6.512   4.921  12.227
 5606TIP3    H138309   6.440   4.882  12.179
 5606TIP3    H238310   6.476   4.940  12.314
 5607TIP3   OH238311   7.181   4.836  13.093
 5607TIP3    H138312   7.261   4.818  13.044
 5607TIP3    H238313   7.111   4.827  13.028
 5608TIP3   OH238314   6.880   4.182  12.089
 5608TIP3    H138315   6.787   4.185  12.066
 5608TIP3    H238316   6.898   4.267  12.128
 5609TIP3   OH238317   6.662   4.948  13.361
 5609TIP3    H138318   6.724   4.922  13.428
 5609TIP3    H238319   6.640   5.039  13.381
 5610TIP3   OH238320   6.973   4.406  12.231
 5610TIP3    H138321   7.056   4.378  12.268
 5610TIP3    H238322   6.991   4.492  12.193
 5611TIP3   OH238323   6.034   4.845  12.778
 5611TIP3    H138324   6.095   4.836  12.705
 5611TIP3    H238325   6.075   4.795  12.849
 5612TIP3   OH238326   6.743   5.061  12.156
 5612TIP3    H138327   6.708   5.150  12.159
 5612TIP3    H238328   6.668   5.005  12.177
 5613TIP3   OH238329   5.735   4.687  13.344
 5613TIP3    H138330   5.712   4.637  13.422
 5613TIP3    H238331   5.670   4.662  13.279
 5614TIP3   OH238332   6.472   4.665  13.567
 5614TIP3    H138333   6.446   4.678  13.476
 5614TIP3    H238334   6.555   4.618  13.562
 5615TIP3   OH238335   6.878   5.224  13.360
 5615TIP3    H138336   6.786   5.232  13.336
 5615TIP3    H238337   6.881   5.249  13.453
 5616TIP3   OH238338   7.280   5.303  12.216
 5616TIP3    H138339   7.218   5.263  12.277
 5616TIP3    H238340   7.291   5.239  12.146
 5617TIP3   OH238341   6.986   4.802  12.895
 5617TIP3    H138342   6.891   4.792  12.887
 5617TIP3    H238343   7.022   4.727  12.848
 5618TIP3   OH238344   6.314   5.213  12.585
 5618TIP3    H138345   6.363   5.289  12.555
 5618TIP3    H238346   6.223   5.232  12.564
 5619TIP3   OH238347   5.851   4.669  12.053
 5619TIP3    H138348   5.882   4.736  12.115
 5619TIP3    H238349   5.757   4.662  12.069
 5620TIP3   OH238350   6.367   4.977  12.449
 5620TIP3    H138351   6.363   5.059  12.498
 5620TIP3    H238352   6.321   4.914  12.504
 5621TIP3   OH238353   6.488   5.383  13.153
 5621TIP3    H138354   6.546   5.457  13.136
 5621TIP3    H238355   6.539   5.325  13.210
 5622TIP3   OH238356   6.280   5.479  12.475
 5622TIP3    H138357   6.188   5.493  12.496
 5622TIP3    H238358   6.325   5.556  12.509
 5623TIP3   OH238359   6.778   5.007  13.115
 5623TIP3    H138360   6.738   4.982  13.198
 5623TIP3    H238361   6.859   4.956  13.111
 5624TIP3   OH238362   7.049   5.101  12.082
 5624TIP3    H138363   7.086   5.061  12.160
 5624TIP3    H238364   6.955   5.087  12.089
 5625TIP3   OH238365   7.100   5.406  13.331
 5625TIP3    H138366   7.018   5.360  13.317
 5625TIP3    H238367   7.097   5.480  13.271
 5626TIP3   OH238368   5.850   4.172  13.273
 5626TIP3    H138369   5.766   4.218  13.270
 5626TIP3    H238370   5.827   4.080  13.281
 5627TIP3   OH238371   7.180   4.992  12.299
 5627TIP3    H138372   7.153   4.904  12.324
 5627TIP3    H238373   7.276   4.991  12.306
 5628TIP3   OH238374   5.868   5.324  13.158
 5628TIP3    H138375   5.925   5.249  13.177
 5628TIP3    H238376   5.821   5.340  13.240
 5629TIP3   OH238377   6.440   5.188  11.892
 5629TIP3    H138378   6.456   5.104  11.849
 5629TIP3    H238379   6.410   5.164  11.980
 5630TIP3   OH238380   6.330   5.155  12.146
 5630TIP3    H138381   6.391   5.108  12.203
 5630TIP3    H238382   6.338   5.246  12.172
 5631TIP3   OH238383   5.971   4.878  12.190
 5631TIP3    H138384   5.900   4.919  12.240
 5631TIP3    H238385   6.020   4.952  12.153
 5632TIP3   OH238386   6.778   4.149  13.230
 5632TIP3    H138387   6.860   4.159  13.279
 5632TIP3    H238388   6.745   4.063  13.257
 5633TIP3   OH238389   6.853   4.034  12.320
 5633TIP3    H138390   6.864   4.083  12.239
 5633TIP3    H238391   6.896   4.088  12.387
 5634TIP3   OH238392   6.619   5.300  12.177
 5634TIP3    H138393   6.534   5.332  12.207
 5634TIP3    H238394   6.662   5.377  12.140
 5635TIP3   OH238395   6.552   4.320  12.401
 5635TIP3    H138396   6.625   4.381  12.393
 5635TIP3    H238397   6.566   4.278  12.486
 5636TIP3   OH238398   6.635   4.386  13.273
 5636TIP3    H138399   6.652   4.415  13.363
 5636TIP3    H238400   6.680   4.302  13.267
 5637TIP3   OH238401   6.640   3.943  12.460
 5637TIP3    H138402   6.637   4.007  12.530
 5637TIP3    H238403   6.718   3.965  12.409
 5638TIP3   OH238404   6.370   5.413  12.225
 5638TIP3    H138405   6.376   5.497  12.178
 5638TIP3    H238406   6.339   5.436  12.312
 5639TIP3   OH238407   6.227   4.125  12.171
 5639TIP3    H138408   6.226   4.209  12.216
 5639TIP3    H238409   6.310   4.084  12.198
 5640TIP3   OH238410   7.227   4.068  13.386
 5640TIP3    H138411   7.141   4.108  13.373
 5640TIP3    H238412   7.288   4.142  13.385
 5641TIP3   OH238413   7.072   4.558  12.786
 5641TIP3    H138414   6.997   4.512  12.749
 5641TIP3    H238415   7.100   4.503  12.859
 5642TIP3   OH238416   6.085   5.082  12.046
 5642TIP3    H138417   6.158   5.124  12.090
 5642TIP3    H238418   6.123   5.046  11.966
 5643TIP3   OH238419   5.835   4.388  11.984
 5643TIP3    H138420   5.849   4.481  12.003
 5643TIP3    H238421   5.790   4.386  11.900
 5644TIP3   OH238422   7.231   5.497  12.938
 5644TIP3    H138423   7.215   5.568  12.876
 5644TIP3    H238424   7.325   5.480  12.932
 5645TIP3   OH238425   5.944   3.883  12.825
 5645TIP3    H138426   5.938   3.876  12.730
 5645TIP3    H238427   5.917   3.797  12.858
 5646TIP3   OH238428   5.825   5.307  12.432
 5646TIP3    H138429   5.755   5.331  12.493
 5646TIP3    H238430   5.815   5.367  12.358
 5647TIP3   OH238431   5.779   5.552  13.633
 5647TIP3    H138432   5.840   5.520  13.699
 5647TIP3    H238433   5.734   5.474  13.601
 5648TIP3   OH238434   6.208   5.446  13.730
 5648TIP3    H138435   6.289   5.418  13.774
 5648TIP3    H238436   6.207   5.395  13.649
 5649TIP3   OH238437   6.634   5.382  11.873
 5649TIP3    H138438   6.571   5.312  11.885
 5649TIP3    H238439   6.711   5.339  11.836
 5650TIP3   OH238440   6.861   5.277  13.627
 5650TIP3    H138441   6.836   5.189  13.655
 5650TIP3    H238442   6.933   5.302  13.684
 5651TIP3   OH238443   7.068   5.332  11.913
 5651TIP3    H138444   7.088   5.250  11.957
 5651TIP3    H238445   7.137   5.342  11.847
 5652TIP3   OH238446   5.762   4.952  13.682
 5652TIP3    H138447   5.767   4.857  13.674
 5652TIP3    H238448   5.692   4.978  13.622
 5653TIP3   OH238449   6.190   4.919  11.849
 5653TIP3    H138450   6.285   4.922  11.833
 5653TIP3    H238451   6.151   4.942  11.765
 5654TIP3   OH238452   6.434   4.940  13.640
 5654TIP3    H138453   6.428   4.986  13.556
 5654TIP3    H238454   6.477   4.857  13.620
 5655TIP3   OH238455   6.778   5.045  11.880
 5655TIP3    H138456   6.763   5.039  11.974
 5655TIP3    H238457   6.767   4.955  11.849
 5656TIP3   OH238458   6.962   4.962  13.395
 5656TIP3    H138459   7.056   4.963  13.375
 5656TIP3    H238460   6.933   5.052  13.379
 5657TIP3   OH238461   5.830   4.685  13.653
 5657TIP3    H138462   5.910   4.670  13.603
 5657TIP3    H238463   5.855   4.669  13.744
 5658TIP3   OH238464   6.297   4.756  12.125
 5658TIP3    H138465   6.280   4.718  12.211
 5658TIP3    H238466   6.364   4.699  12.086
 5659TIP3   OH238467   6.221   4.526  13.363
 5659TIP3    H138468   6.159   4.593  13.391
 5659TIP3    H238469   6.298   4.576  13.335
 5660TIP3   OH238470   6.465   4.593  11.971
 5660TIP3    H138471   6.464   4.619  11.879
 5660TIP3    H238472   6.556   4.572  11.990
 5661TIP3   OH238473   6.753   4.777  13.664
 5661TIP3    H138474   6.835   4.745  13.625
 5661TIP3    H238475   6.731   4.711  13.730
 5662TIP3   OH238476   6.321   4.283  13.457
 5662TIP3    H138477   6.333   4.223  13.384
 5662TIP3    H238478   6.305   4.368  13.416
 5663TIP3   OH238479   6.338   4.127  13.224
 5663TIP3    H138480   6.392   4.174  13.160
 5663TIP3    H238481   6.251   4.124  13.184
 5664TIP3   OH238482   6.438   4.682  13.290
 5664TIP3    H138483   6.533   4.678  13.276
 5664TIP3    H238484   6.408   4.750  13.229
 5665TIP3   OH238485   6.917   4.454  13.694
 5665TIP3    H138486   6.901   4.366  13.660
 5665TIP3    H238487   7.008   4.472  13.671
 5666TIP3   OH238488   6.997   4.730  13.534
 5666TIP3    H138489   6.971   4.810  13.488
 5666TIP3    H238490   7.093   4.735  13.539
 5667TIP3   OH238491   6.115   4.317  13.638
 5667TIP3    H138492   6.045   4.258  13.609
 5667TIP3    H238493   6.176   4.321  13.563
 5668TIP3   OH238494   6.397   3.867  13.297
 5668TIP3    H138495   6.380   3.957  13.270
 5668TIP3    H238496   6.332   3.815  13.248
 5669TIP3   OH238497   6.561   4.251  13.611
 5669TIP3    H138498   6.539   4.215  13.697
 5669TIP3    H238499   6.477   4.251  13.564
 5670TIP3   OH238500   6.834   4.220  13.571
 5670TIP3    H138501   6.739   4.212  13.582
 5670TIP3    H238502   6.870   4.156  13.632
 5671TIP3   OH238503   6.961   4.064  13.752
 5671TIP3    H138504   6.962   3.969  13.741
 5671TIP3    H238505   6.939   4.078  13.844
 5672TIP3   OH238506   5.931   4.118  13.621
 5672TIP3    H138507   5.925   4.048  13.555
 5672TIP3    H238508   5.952   4.072  13.703
 5673TIP3   OH238509   6.374   3.782  13.555
 5673TIP3    H138510   6.434   3.707  13.551
 5673TIP3    H238511   6.376   3.818  13.466
 5674TIP3   OH238512   6.447   3.938  13.770
 5674TIP3    H138513   6.429   3.886  13.692
 5674TIP3    H238514   6.390   4.015  13.762
 5675TIP3   OH238515   6.434   5.653  12.102
 5675TIP3    H138516   6.524   5.624  12.094
 5675TIP3    H238517   6.423   5.716  12.030
 5676TIP3   OH238518   5.817   5.144  12.011
 5676TIP3    H138519   5.911   5.136  12.025
 5676TIP3    H238520   5.796   5.078  11.945
 5677TIP3   OH238521   5.656   5.618  12.542
 5677TIP3    H138522   5.600   5.581  12.473
 5677TIP3    H238523   5.676   5.544  12.599
 5678TIP3   OH238524   5.710   5.412  12.722
 5678TIP3    H138525   5.709   5.320  12.750
 5678TIP3    H238526   5.704   5.461  12.804
 5679TIP3   OH238527   7.235   5.018  13.798
 5679TIP3    H138528   7.152   5.041  13.840
 5679TIP3    H238529   7.302   5.063  13.849
 5680TIP3   OH238530   7.262   5.206  13.217
 5680TIP3    H138531   7.220   5.277  13.263
 5680TIP3    H238532   7.219   5.204  13.131
 5681TIP3   OH238533   7.305   4.376  11.930
 5681TIP3    H138534   7.263   4.430  11.863
 5681TIP3    H238535   7.282   4.286  11.906
 5682TIP3   OH238536   7.192   4.559  12.536
 5682TIP3    H138537   7.187   4.464  12.526
 5682TIP3    H238538   7.167   4.575  12.627
 5683TIP3   OH238539   5.711   4.749  12.960
 5683TIP3    H138540   5.722   4.737  12.866
 5683TIP3    H238541   5.794   4.720  12.999
 5684TIP3   OH238542   7.263   4.779  13.535
 5684TIP3    H138543   7.341   4.729  13.512
 5684TIP3    H238544   7.259   4.849  13.470
 5685TIP3   OH238545   7.227   4.119  11.884
 5685TIP3    H138546   7.241   4.047  11.946
 5685TIP3    H238547   7.136   4.109  11.855
 5686TIP3   OH238548   7.216   4.298  12.364
 5686TIP3    H138549   7.241   4.219  12.411
 5686TIP3    H238550   7.277   4.303  12.290
 5687TIP3   OH238551   7.273   4.225  12.943
 5687TIP3    H138552   7.358   4.195  12.912
 5687TIP3    H238553   7.285   4.318  12.960
 5688TIP3   OH238554   7.281   4.489  13.251
 5688TIP3    H138555   7.187   4.506  13.257
 5688TIP3    H238556   7.297   4.479  13.157
 5689TIP3   OH238557   5.718   4.289  13.613
 5689TIP3    H138558   5.800   4.240  13.606
 5689TIP3    H238559   5.650   4.226  13.588
 5690TIP3   OH238560   7.270   4.009  12.462
 5690TIP3    H138561   7.310   3.925  12.487
 5690TIP3    H238562   7.191   3.984  12.414
 5691TIP3   OH238563   5.811   4.124  12.865
 5691TIP3    H138564   5.856   4.040  12.859
 5691TIP3    H238565   5.879   4.186  12.890
 5692TIP3   OH238566   5.633   4.415  12.923
 5692TIP3    H138567   5.694   4.411  12.849
 5692TIP3    H238568   5.677   4.472  12.986
 5693TIP3   OH238569   5.692   4.048  12.352
 5693TIP3    H138570   5.597   4.038  12.363
 5693TIP3    H238571   5.701   4.111  12.281
 5694TIP3   OH238572   7.138   5.504  12.611
 5694TIP3    H138573   7.219   5.454  12.624
 5694TIP3    H238574   7.153   5.585  12.660
 5695TIP3   OH238575   5.701   3.920  13.210
 5695TIP3    H138576   5.626   3.893  13.263
 5695TIP3    H238577   5.663   3.971  13.139
 5696TIP3   OH238578   5.911   5.271  13.585
 5696TIP3    H138579   5.815   5.268  13.574
 5696TIP3    H238580   5.923   5.306  13.673
 5697TIP3   OH238581   6.225   5.354  13.226
 5697TIP3    H138582   6.195   5.441  13.201
 5697TIP3    H238583   6.319   5.355  13.210
 5698TIP3   OH238584   6.614   5.478  13.499
 5698TIP3    H138585   6.619   5.450  13.590
 5698TIP3    H238586   6.696   5.524  13.483
 5699TIP3   OH238587   6.848   5.623  13.472
 5699TIP3    H138588   6.915   5.570  13.429
 5699TIP3    H238589   6.891   5.656  13.551
 5700TIP3   OH238590   5.920   5.671  13.253
 5700TIP3    H138591   5.885   5.588  13.284
 5700TIP3    H238592   5.918   5.728  13.330
 5701TIP3   OH238593   6.181   5.616  13.159
 5701TIP3    H138594   6.099   5.647  13.198
 5701TIP3    H238595   6.194   5.671  13.082
 5702TIP3   OH238596   6.634   5.605  13.079
 5702TIP3    H138597   6.593   5.641  13.000
 5702TIP3    H238598   6.645   5.680  13.137
 5703TIP3   OH238599   6.855   5.477  13.176
 5703TIP3    H138600   6.779   5.522  13.139
 5703TIP3    H238601   6.928   5.535  13.158
 5704TIP3   OH238602   7.087   5.617  13.141
 5704TIP3    H138603   7.106   5.710  13.128
 5704TIP3    H238604   7.140   5.572  13.075
 5705TIP3   OH238605   5.925   5.527  12.972
 5705TIP3    H138606   5.899   5.462  13.037
 5705TIP3    H238607   5.986   5.482  12.914
 5706TIP3   OH238608   6.096   5.388  12.811
 5706TIP3    H138609   6.082   5.295  12.826
 5706TIP3    H238610   6.186   5.404  12.838
 5707TIP3   OH238611   6.360   5.403  12.908
 5707TIP3    H138612   6.369   5.312  12.878
 5707TIP3    H238613   6.399   5.403  12.995
 5708TIP3   OH238614   6.693   3.958  12.854
 5708TIP3    H138615   6.611   3.909  12.859
 5708TIP3    H238616   6.673   4.034  12.800
 5709TIP3   OH238617   7.176   3.824  12.753
 5709TIP3    H138618   7.201   3.916  12.754
 5709TIP3    H238619   7.080   3.825  12.750
 5710TIP3   OH238620   5.914   3.848  12.553
 5710TIP3    H138621   5.823   3.829  12.532
 5710TIP3    H238622   5.960   3.765  12.539
 5711TIP3   OH238623   5.845   3.865  12.187
 5711TIP3    H138624   5.895   3.919  12.125
 5711TIP3    H238625   5.801   3.928  12.244
 5712TIP3   OH238626   6.427   3.801  12.584
 5712TIP3    H138627   6.505   3.826  12.533
 5712TIP3    H238628   6.390   3.884  12.613
 5713TIP3   OH238629   6.907   3.818  12.739
 5713TIP3    H138630   6.837   3.881  12.757
 5713TIP3    H238631   6.872   3.734  12.770
 5714TIP3   OH238632   7.084   3.886  12.296
 5714TIP3    H138633   7.002   3.935  12.301
 5714TIP3    H238634   7.058   3.794  12.308
 5715TIP3   OH238635   5.791   5.486  12.227
 5715TIP3    H138636   5.723   5.481  12.160
 5715TIP3    H238637   5.820   5.577  12.225
 5716TIP3   OH238638   6.025   4.005  12.008
 5716TIP3    H138639   6.073   3.947  11.949
 5716TIP3    H238640   6.092   4.041  12.066
 5717TIP3   OH238641   6.486   4.088  12.267
 5717TIP3    H138642   6.523   4.016  12.319
 5717TIP3    H238643   6.513   4.167  12.312
 5718TIP3   OH238644   6.688   5.555  12.075
 5718TIP3    H138645   6.782   5.571  12.065
 5718TIP3    H238646   6.663   5.508  11.996
 5719TIP3   OH238647   5.938   3.870  13.497
 5719TIP3    H138648   5.879   3.805  13.534
 5719TIP3    H238649   6.019   3.860  13.547
 5720TIP3   OH238650   6.134   3.832  13.687
 5720TIP3    H138651   6.218   3.808  13.648
 5720TIP3    H238652   6.104   3.753  13.731
 5721TIP3   OH238653   5.989   5.492  11.922
 5721TIP3    H138654   5.976   5.496  12.017
 5721TIP3    H238655   6.069   5.441  11.911
 5722TIP3   OH238656   6.985   3.795  13.695
 5722TIP3    H138657   6.981   3.749  13.779
 5722TIP3    H238658   7.077   3.791  13.670
 5723TIP3   OH238659   7.220   5.396  13.584
 5723TIP3    H138660   7.185   5.384  13.496
 5723TIP3    H238661   7.231   5.491  13.592
 5724TIP3   OH238662   1.193   6.660  12.542
 5724TIP3    H138663   1.191   6.755  12.529
 5724TIP3    H238664   1.121   6.627  12.488
 5725TIP3   OH238665   1.083   6.589  12.934
 5725TIP3    H138666   1.111   6.548  13.016
 5725TIP3    H238667   1.034   6.521  12.888
 5726TIP3   OH238668   0.296   6.516  13.051
 5726TIP3    H138669   0.306   6.448  13.118
 5726TIP3    H238670   0.385   6.539  13.026
 5727TIP3   OH238671   1.466   6.908  12.739
 5727TIP3    H138672   1.424   6.835  12.785
 5727TIP3    H238673   1.477   6.976  12.805
 5728TIP3   OH238674   0.365   6.976  12.845
 5728TIP3    H138675   0.358   6.885  12.817
 5728TIP3    H238676   0.453   6.984  12.880
 5729TIP3   OH238677   0.125   6.406  12.452
 5729TIP3    H138678   0.133   6.477  12.516
 5729TIP3    H238679   0.031   6.399  12.435
 5730TIP3   OH238680   0.154   6.572  12.688
 5730TIP3    H138681   0.176   6.489  12.730
 5730TIP3    H238682   0.230   6.629  12.704
 5731TIP3   OH238683   0.926   6.823  12.952
 5731TIP3    H138684   0.969   6.744  12.921
 5731TIP3    H238685   0.989   6.864  13.011
 5732TIP3   OH238686   1.815   5.986  13.050
 5732TIP3    H138687   1.825   6.059  13.111
 5732TIP3    H238688   1.871   6.008  12.976
 5733TIP3   OH238689   1.227   6.269  12.952
 5733TIP3    H138690   1.235   6.174  12.965
 5733TIP3    H238691   1.212   6.279  12.858
 5734TIP3   OH238692   0.588   6.071  12.680
 5734TIP3    H138693   0.597   6.159  12.644
 5734TIP3    H238694   0.538   6.023  12.615
 5735TIP3   OH238695   1.354   6.108  12.532
 5735TIP3    H138696   1.394   6.076  12.613
 5735TIP3    H238697   1.427   6.145  12.483
 5736TIP3   OH238698   0.214   6.324  12.793
 5736TIP3    H138699   0.287   6.291  12.846
 5736TIP3    H238700   0.229   6.289  12.706
 5737TIP3   OH238701   0.700   6.480  12.746
 5737TIP3    H138702   0.786   6.447  12.769
 5737TIP3    H238703   0.665   6.415  12.685
 5738TIP3   OH238704   1.846   6.166  13.262
 5738TIP3    H138705   1.767   6.216  13.245
 5738TIP3    H238706   1.863   6.178  13.355
 5739TIP3   OH238707   0.435   5.999  13.119
 5739TIP3    H138708   0.409   6.057  13.046
 5739TIP3    H238709   0.367   6.013  13.185
 5740TIP3   OH238710   1.162   6.908  12.432
 5740TIP3    H138711   1.142   6.926  12.341
 5740TIP3    H238712   1.128   6.984  12.480
 5741TIP3   OH238713   0.689   6.769  13.095
 5741TIP3    H138714   0.634   6.843  13.119
 5741TIP3    H238715   0.759   6.807  13.042
 5742TIP3   OH238716   1.444   6.052  12.785
 5742TIP3    H138717   1.375   6.026  12.847
 5742TIP3    H238718   1.500   6.111  12.836
 5743TIP3   OH238719   0.424   6.158  12.890
 5743TIP3    H138720   0.484   6.215  12.939
 5743TIP3    H238721   0.479   6.121  12.820
 5744TIP3   OH238722   0.522   6.973  13.190
 5744TIP3    H138723   0.530   7.066  13.169
 5744TIP3    H238724   0.432   6.963  13.220
 5745TIP3   OH238725   0.098   6.889  12.279
 5745TIP3    H138726   0.116   6.935  12.197
 5745TIP3    H238727   0.113   6.955  12.347
 5746TIP3   OH238728   1.481   7.121  12.926
 5746TIP3    H138729   1.396   7.126  12.968
 5746TIP3    H238730   1.486   7.201  12.873
 5747TIP3   OH238731   1.565   5.882  13.132
 5747TIP3    H138732   1.498   5.924  13.079
 5747TIP3    H238733   1.648   5.910  13.093
 5748TIP3   OH238734   0.791   5.685  12.867
 5748TIP3    H138735   0.762   5.593  12.866
 5748TIP3    H238736   0.714   5.734  12.895
 5749TIP3   OH238737   1.338   7.257  12.563
 5749TIP3    H138738   1.373   7.175  12.527
 5749TIP3    H238739   1.394   7.276  12.638
 5750TIP3   OH238740   1.472   7.030  12.485
 5750TIP3    H138741   1.456   6.964  12.418
 5750TIP3    H238742   1.472   6.981  12.567
 5751TIP3   OH238743   1.601   6.902  13.305
 5751TIP3    H138744   1.591   6.839  13.234
 5751TIP3    H238745   1.615   6.986  13.262
 5752TIP3   OH238746   1.039   6.590  12.317
 5752TIP3    H138747   0.974   6.657  12.296
 5752TIP3    H238748   1.108   6.602  12.251
 5753TIP3   OH238749   1.071   6.478  11.971
 5753TIP3    H138750   1.126   6.503  12.045
 5753TIP3    H238751   1.122   6.411  11.925
 5754TIP3   OH238752   1.763   6.558  13.150
 5754TIP3    H138753   1.689   6.618  13.141
 5754TIP3    H238754   1.822   6.582  13.079
 5755TIP3   OH238755   1.409   6.602  12.386
 5755TIP3    H138756   1.340   6.622  12.449
 5755TIP3    H238757   1.478   6.560  12.438
 5756TIP3   OH238758   1.376   6.416  13.347
 5756TIP3    H138759   1.372   6.491  13.406
 5756TIP3    H238760   1.312   6.437  13.278
 5757TIP3   OH238761   0.561   6.663  12.574
 5757TIP3    H138762   0.540   6.622  12.491
 5757TIP3    H238763   0.620   6.601  12.618
 5758TIP3   OH238764   0.699   6.940  12.833
 5758TIP3    H138765   0.707   6.975  12.745
 5758TIP3    H238766   0.784   6.901  12.852
 5759TIP3   OH238767   0.553   6.575  12.958
 5759TIP3    H138768   0.609   6.552  12.884
 5759TIP3    H238769   0.601   6.643  13.004
 5760TIP3   OH238770   1.251   7.109  13.082
 5760TIP3    H138771   1.243   7.133  13.174
 5760TIP3    H238772   1.206   7.025  13.075
 5761TIP3   OH238773   0.693   6.984  13.410
 5761TIP3    H138774   0.637   7.052  13.448
 5761TIP3    H238775   0.649   6.959  13.329
 5762TIP3   OH238776   1.273   6.545  12.154
 5762TIP3    H138777   1.326   6.578  12.227
 5762TIP3    H238778   1.328   6.561  12.076
 5763TIP3   OH238779   0.398   6.603  13.399
 5763TIP3    H138780   0.396   6.685  13.448
 5763TIP3    H238781   0.324   6.609  13.339
 5764TIP3   OH238782   1.074   7.138  12.555
 5764TIP3    H138783   1.153   7.193  12.560
 5764TIP3    H238784   1.001   7.200  12.562
 5765TIP3   OH238785   0.528   7.203  13.470
 5765TIP3    H138786   0.540   7.224  13.377
 5765TIP3    H238787   0.434   7.214  13.485
 5766TIP3   OH238788   1.639   5.692  12.158
 5766TIP3    H138789   1.555   5.717  12.197
 5766TIP3    H238790   1.673   5.773  12.121
 5767TIP3   OH238791   0.479   6.565  12.322
 5767TIP3    H138792   0.421   6.631  12.285
 5767TIP3    H238793   0.435   6.482  12.305
 5768TIP3   OH238794   1.762   7.169  11.955
 5768TIP3    H138795   1.751   7.227  12.030
 5768TIP3    H238796   1.854   7.141  11.959
 5769TIP3   OH238797   0.175   6.778  13.214
 5769TIP3    H138798   0.147   6.769  13.123
 5769TIP3    H238799   0.144   6.698  13.256
 5770TIP3   OH238800   0.142   7.131  12.903
 5770TIP3    H138801   0.212   7.068  12.883
 5770TIP3    H238802   0.161   7.159  12.992
 5771TIP3   OH238803   1.864   7.173  13.547
 5771TIP3    H138804   1.848   7.079  13.548
 5771TIP3    H238805   1.778   7.212  13.533
 5772TIP3   OH238806   0.950   7.083  13.427
 5772TIP3    H138807   0.941   7.124  13.513
 5772TIP3    H238808   0.862   7.052  13.407
 5773TIP3   OH238809   1.563   6.289  13.529
 5773TIP3    H138810   1.496   6.329  13.475
 5773TIP3    H238811   1.569   6.198  13.498
 5774TIP3   OH238812   0.275   6.986  13.358
 5774TIP3    H138813   0.313   6.932  13.428
 5774TIP3    H238814   0.228   6.924  13.303
 5775TIP3   OH238815   0.547   5.800  12.955
 5775TIP3    H138816   0.473   5.793  12.894
 5775TIP3    H238817   0.523   5.872  13.013
 5776TIP3   OH238818   1.021   5.773  13.294
 5776TIP3    H138819   1.066   5.724  13.362
 5776TIP3    H238820   0.928   5.763  13.315
 5777TIP3   OH238821   1.312   6.143  13.365
 5777TIP3    H138822   1.253   6.129  13.438
 5777TIP3    H238823   1.320   6.238  13.358
 5778TIP3   OH238824   1.417   6.549  11.917
 5778TIP3    H138825   1.397   6.583  11.829
 5778TIP3    H238826   1.505   6.580  11.935
 5779TIP3   OH238827   0.974   6.001  12.017
 5779TIP3    H138828   0.915   5.999  12.092
 5779TIP3    H238829   0.938   5.936  11.957
 5780TIP3   OH238830   0.569   6.318  13.060
 5780TIP3    H138831   0.505   6.317  13.131
 5780TIP3    H238832   0.571   6.409  13.031
 5781TIP3   OH238833   0.571   6.319  12.565
 5781TIP3    H138834   0.476   6.307  12.568
 5781TIP3    H238835   0.594   6.304  12.473
 5782TIP3   OH238836   1.096   6.345  12.426
 5782TIP3    H138837   1.070   6.431  12.392
 5782TIP3    H238838   1.166   6.316  12.367
 5783TIP3   OH238839   1.023   6.355  13.541
 5783TIP3    H138840   0.973   6.283  13.580
 5783TIP3    H238841   1.107   6.353  13.587
 5784TIP3   OH238842   1.195   6.286  12.681
 5784TIP3    H138843   1.153   6.334  12.610
 5784TIP3    H238844   1.242   6.215  12.637
 5785TIP3   OH238845   0.361   6.312  13.241
 5785TIP3    H138846   0.392   6.353  13.322
 5785TIP3    H238847   0.321   6.230  13.270
 5786TIP3   OH238848   0.662   6.053  11.919
 5786TIP3    H138849   0.628   6.045  12.008
 5786TIP3    H238850   0.603   6.116  11.876
 5787TIP3   OH238851   0.050   6.060  12.619
 5787TIP3    H138852   0.097   6.054  12.702
 5787TIP3    H238853   0.115   6.041  12.552
 5788TIP3   OH238854   0.055   6.186  12.183
 5788TIP3    H138855   0.141   6.220  12.159
 5788TIP3    H238856   0.002   6.198  12.104
 5789TIP3   OH238857   1.169   6.436  13.157
 5789TIP3    H138858   1.198   6.379  13.086
 5789TIP3    H238859   1.097   6.387  13.198
 5790TIP3   OH238860   0.868   6.027  12.639
 5790TIP3    H138861   0.778   6.033  12.671
 5790TIP3    H238862   0.918   5.993  12.713
 5791TIP3   OH238863   0.312   6.227  12.551
 5791TIP3    H138864   0.249   6.271  12.494
 5791TIP3    H238865   0.336   6.147  12.504
 5792TIP3   OH238866   0.618   6.245  12.304
 5792TIP3    H138867   0.713   6.238  12.317
 5792TIP3    H238868   0.609   6.286  12.218
 5793TIP3   OH238869   1.233   5.993  12.961
 5793TIP3    H138870   1.193   5.996  13.048
 5793TIP3    H238871   1.166   5.951  12.906
 5794TIP3   OH238872   0.577   6.332  12.050
 5794TIP3    H138873   0.522   6.308  11.976
 5794TIP3    H238874   0.652   6.377  12.011
 5795TIP3   OH238875   0.356   6.823  13.573
 5795TIP3    H138876   0.425   6.814  13.638
 5795TIP3    H238877   0.276   6.835  13.625
 5796TIP3   OH238878   0.937   6.360  12.836
 5796TIP3    H138879   1.005   6.311  12.791
 5796TIP3    H238880   0.907   6.301  12.906
 5797TIP3   OH238881   0.425   5.979  12.470
 5797TIP3    H138882   0.380   5.898  12.495
 5797TIP3    H238883   0.447   5.967  12.378
 5798TIP3   OH238884   0.825   6.216  13.054
 5798TIP3    H138885   0.741   6.262  13.061
 5798TIP3    H238886   0.875   6.246  13.130
 5799TIP3   OH238887   0.851   6.783  12.247
 5799TIP3    H138888   0.781   6.750  12.192
 5799TIP3    H238889   0.807   6.813  12.327
 5800TIP3   OH238890   1.572   6.745  13.079
 5800TIP3    H138891   1.633   6.802  13.032
 5800TIP3    H238892   1.501   6.729  13.016
 5801TIP3   OH238893   1.228   6.049  12.105
 5801TIP3    H138894   1.137   6.047  12.074
 5801TIP3    H238895   1.240   6.138  12.138
 5802TIP3   OH238896   1.024   6.810  13.390
 5802TIP3    H138897   1.052   6.766  13.471
 5802TIP3    H238898   1.004   6.899  13.417
 5803TIP3   OH238899   1.300   6.281  12.245
 5803TIP3    H138900   1.389   6.267  12.279
 5803TIP3    H238901   1.302   6.369  12.209
 5804TIP3   OH238902   0.380   6.707  12.775
 5804TIP3    H138903   0.439   6.706  12.699
 5804TIP3    H238904   0.430   6.665  12.845
 5805TIP3   OH238905   1.062   6.940  12.167
 5805TIP3    H138906   1.033   7.031  12.175
 5805TIP3    H238907   0.986   6.888  12.193
 5806TIP3   OH238908   0.121   6.540  13.341
 5806TIP3    H138909   0.137   6.516  13.432
 5806TIP3    H238910   0.058   6.476  13.310
 5807TIP3   OH238911   0.811   6.539  13.562
 5807TIP3    H138912   0.748   6.500  13.501
 5807TIP3    H238913   0.893   6.492  13.544
 5808TIP3   OH238914   1.219   7.126  13.374
 5808TIP3    H138915   1.124   7.115  13.372
 5808TIP3    H238916   1.241   7.136  13.467
 5809TIP3   OH238917   1.752   6.317  12.186
 5809TIP3    H138918   1.709   6.296  12.103
 5809TIP3    H238919   1.781   6.407  12.176
 5810TIP3   OH238920   1.812   6.883  13.480
 5810TIP3    H138921   1.727   6.904  13.441
 5810TIP3    H238922   1.872   6.877  13.405
 5811TIP3   OH238923   1.735   7.103  12.274
 5811TIP3    H138924   1.661   7.081  12.331
 5811TIP3    H238925   1.713   7.189  12.239
 5812TIP3   OH238926   1.366   6.679  12.892
 5812TIP3    H138927   1.271   6.670  12.891
 5812TIP3    H238928   1.399   6.601  12.847
 5813TIP3   OH238929   0.679   7.103  12.603
 5813TIP3    H138930   0.743   7.172  12.585
 5813TIP3    H238931   0.596   7.149  12.615
 5814TIP3   OH238932   0.185   6.574  12.016
 5814TIP3    H138933   0.245   6.630  12.065
 5814TIP3    H238934   0.102   6.581  12.062
 5815TIP3   OH238935   0.699   6.874  12.451
 5815TIP3    H138936   0.694   6.955  12.501
 5815TIP3    H238937   0.647   6.811  12.501
 5816TIP3   OH238938   0.826   7.244  13.116
 5816TIP3    H138939   0.860   7.291  13.039
 5816TIP3    H238940   0.904   7.222  13.167
 5817TIP3   OH238941   0.579   0.086  12.425
 5817TIP3    H138942   0.487   0.069  12.445
 5817TIP3    H238943   0.615   0.119  12.508
 5818TIP3   OH238944   1.131   6.862  13.138
 5818TIP3    H138945   1.094   6.843  13.224
 5818TIP3    H238946   1.203   6.799  13.129
 5819TIP3   OH238947   1.406   6.989  12.051
 5819TIP3    H138948   1.425   6.944  12.134
 5819TIP3    H238949   1.320   6.956  12.025
 5820TIP3   OH238950   1.437   7.297  13.316
 5820TIP3    H138951   1.354   7.251  13.326
 5820TIP3    H238952   1.415   7.376  13.267
 5821TIP3   OH238953   0.256   6.060  13.335
 5821TIP3    H138954   0.173   6.091  13.372
 5821TIP3    H238955   0.271   5.975  13.377
 5822TIP3   OH238956   1.494   6.840  12.272
 5822TIP3    H138957   1.456   6.761  12.311
 5822TIP3    H238958   1.589   6.824  12.274
 5823TIP3   OH238959   0.199   7.212  13.159
 5823TIP3    H138960   0.210   7.151  13.233
 5823TIP3    H238961   0.144   7.282  13.194
 5824TIP3   OH238962   0.821   7.049  11.893
 5824TIP3    H138963   0.812   6.968  11.843
 5824TIP3    H238964   0.778   7.031  11.977
 5825TIP3   OH238965   0.687   7.032  12.142
 5825TIP3    H138966   0.722   6.983  12.217
 5825TIP3    H238967   0.696   7.124  12.167
 5826TIP3   OH238968   0.317   6.745  12.190
 5826TIP3    H138969   0.244   6.785  12.239
 5826TIP3    H238970   0.364   6.820  12.153
 5827TIP3   OH238971   1.121   6.015  13.211
 5827TIP3    H138972   1.193   6.038  13.270
 5827TIP3    H238973   1.087   5.933  13.246
 5828TIP3   OH238974   1.207   5.941  12.362
 5828TIP3    H138975   1.214   5.980  12.275
 5828TIP3    H238976   1.250   6.005  12.420
 5829TIP3   OH238977   0.967   7.196  12.178
 5829TIP3    H138978   0.886   7.243  12.201
 5829TIP3    H238979   0.993   7.232  12.094
 5830TIP3   OH238980   0.874   6.183  12.408
 5830TIP3    H138981   0.949   6.243  12.413
 5830TIP3    H238982   0.872   6.141  12.494
 5831TIP3   OH238983   0.989   6.262  13.274
 5831TIP3    H138984   0.998   6.284  13.366
 5831TIP3    H238985   1.026   6.174  13.266
 5832TIP3   OH238986   0.967   5.841  12.455
 5832TIP3    H138987   0.940   5.910  12.515
 5832TIP3    H238988   1.053   5.868  12.423
 5833TIP3   OH238989   0.709   7.299  12.210
 5833TIP3    H138990   0.672   7.331  12.128
 5833TIP3    H238991   0.665   7.349  12.278
 5834TIP3   OH238992   0.554   6.001  12.178
 5834TIP3    H138993   0.551   6.088  12.218
 5834TIP3    H238994   0.641   5.968  12.199
 5835TIP3   OH238995   1.564   6.042  13.378
 5835TIP3    H138996   1.472   6.067  13.374
 5835TIP3    H238997   1.580   5.995  13.296
 5836TIP3   OH238998   1.439   6.424  12.778
 5836TIP3    H138999   1.354   6.387  12.759
 5836TIP3    H239000   1.479   6.363  12.840
 5837TIP3   OH239001   0.427   6.969  12.060
 5837TIP3    H139002   0.506   7.009  12.097
 5837TIP3    H239003   0.458   6.919  11.985
 5838TIP3   OH239004   0.233   6.300  12.005
 5838TIP3    H139005   0.238   6.396  12.008
 5838TIP3    H239006   0.153   6.281  11.956
 5839TIP3   OH239007   0.305   5.782  12.822
 5839TIP3    H139008   0.308   5.773  12.727
 5839TIP3    H239009   0.268   5.699  12.853
 5840TIP3   OH239010   0.126   7.106  12.441
 5840TIP3    H139011   0.105   7.131  12.531
 5840TIP3    H239012   0.138   7.190  12.396
 5841TIP3   OH239013   0.564   7.216  13.746
 5841TIP3    H139014   0.649   7.176  13.768
 5841TIP3    H239015   0.547   7.188  13.656
 5842TIP3   OH239016   1.026   7.233  11.910
 5842TIP3    H139017   0.956   7.169  11.897
 5842TIP3    H239018   1.099   7.200  11.858
 5843TIP3   OH239019   1.248   7.145  13.651
 5843TIP3    H139020   1.205   7.063  13.674
 5843TIP3    H239021   1.326   7.148  13.706
 5844TIP3   OH239022   1.486   7.210  11.905
 5844TIP3    H139023   1.453   7.148  11.970
 5844TIP3    H239024   1.581   7.209  11.917
 5845TIP3   OH239025   0.111   6.838  13.719
 5845TIP3    H139026   0.106   6.744  13.702
 5845TIP3    H239027   0.019   6.866  13.726
 5846TIP3   OH239028   0.543   6.792  11.887
 5846TIP3    H139029   0.570   6.744  11.965
 5846TIP3    H239030   0.624   6.805  11.837
 5847TIP3   OH239031   0.773   6.814  13.617
 5847TIP3    H139032   0.756   6.857  13.534
 5847TIP3    H239033   0.802   6.726  13.594
 5848TIP3   OH239034   1.170   6.912  11.914
 5848TIP3    H139035   1.118   6.915  11.995
 5848TIP3    H239036   1.136   6.836  11.867
 5849TIP3   OH239037   1.343   6.862  13.393
 5849TIP3    H139038   1.434   6.882  13.369
 5849TIP3    H239039   1.296   6.944  13.377
 5850TIP3   OH239040   0.184   6.540  13.615
 5850TIP3    H139041   0.276   6.537  13.588
 5850TIP3    H239042   0.187   6.537  13.710
 5851TIP3   OH239043   0.645   6.658  12.110
 5851TIP3    H139044   0.598   6.615  12.181
 5851TIP3    H239045   0.693   6.587  12.066
 5852TIP3   OH239046   0.614   6.432  13.375
 5852TIP3    H139047   0.546   6.499  13.385
 5852TIP3    H239048   0.677   6.470  13.314
 5853TIP3   OH239049   0.793   6.477  11.962
 5853TIP3    H139050   0.787   6.503  11.870
 5853TIP3    H239051   0.887   6.472  11.979
 5854TIP3   OH239052   1.113   6.675  13.639
 5854TIP3    H139053   1.199   6.644  13.610
 5854TIP3    H239054   1.087   6.613  13.707
 5855TIP3   OH239055   1.670   6.658  11.908
 5855TIP3    H139056   1.677   6.644  11.814
 5855TIP3    H239057   1.664   6.753  11.918
 5856TIP3   OH239058   0.652   6.171  13.456
 5856TIP3    H139059   0.666   6.115  13.380
 5856TIP3    H239060   0.644   6.260  13.419
 5857TIP3   OH239061   0.690   6.021  13.219
 5857TIP3    H139062   0.743   6.067  13.154
 5857TIP3    H239063   0.602   6.018  13.181
 5858TIP3   OH239064   0.803   6.559  13.229
 5858TIP3    H139065   0.892   6.585  13.250
 5858TIP3    H239066   0.766   6.634  13.183
 5859TIP3   OH239067   1.255   6.335  13.710
 5859TIP3    H139068   1.300   6.251  13.707
 5859TIP3    H239069   1.322   6.397  13.740
 5860TIP3   OH239070   1.388   6.631  13.529
 5860TIP3    H139071   1.360   6.712  13.486
 5860TIP3    H239072   1.483   6.634  13.526
 5861TIP3   OH239073   0.493   6.232  13.680
 5861TIP3    H139074   0.411   6.185  13.672
 5861TIP3    H239075   0.538   6.216  13.597
 5862TIP3   OH239076   0.740   5.757  13.293
 5862TIP3    H139077   0.724   5.848  13.269
 5862TIP3    H239078   0.669   5.708  13.250
 5863TIP3   OH239079   0.872   6.140  13.626
 5863TIP3    H139080   0.834   6.114  13.710
 5863TIP3    H239081   0.797   6.144  13.566
 5864TIP3   OH239082   1.138   6.075  13.558
 5864TIP3    H139083   1.048   6.080  13.591
 5864TIP3    H239084   1.187   6.032  13.629
 5865TIP3   OH239085   1.315   5.969  13.748
 5865TIP3    H139086   1.311   5.874  13.734
 5865TIP3    H239087   1.289   5.981  13.839
 5866TIP3   OH239088   0.285   6.043  13.663
 5866TIP3    H139089   0.292   5.965  13.608
 5866TIP3    H239090   0.299   6.011  13.752
 5867TIP3   OH239091   0.730   5.670  13.552
 5867TIP3    H139092   0.788   5.594  13.546
 5867TIP3    H239093   0.728   5.705  13.463
 5868TIP3   OH239094   0.807   5.826  13.767
 5868TIP3    H139095   0.785   5.775  13.689
 5868TIP3    H239096   0.747   5.901  13.765
 5869TIP3   OH239097   0.156   7.018  12.045
 5869TIP3    H139098   0.251   7.022  12.051
 5869TIP3    H239099   0.139   6.960  11.970
 5870TIP3   OH239100   0.076   7.328  12.730
 5870TIP3    H139101   0.095   7.253  12.786
 5870TIP3    H239102   0.146   7.390  12.748
 5871TIP3   OH239103   1.608   6.926  13.790
 5871TIP3    H139104   1.520   6.943  13.825
 5871TIP3    H239105   1.658   7.005  13.814
 5872TIP3   OH239106   1.760   6.756  12.309
 5872TIP3    H139107   1.828   6.823  12.309
 5872TIP3    H239108   1.785   6.697  12.381
 5873TIP3   OH239109   1.835   6.564  12.495
 5873TIP3    H139110   1.750   6.532  12.526
 5873TIP3    H239111   1.886   6.580  12.574
 5874TIP3   OH239112   1.817   6.875  13.013
 5874TIP3    H139113   1.866   6.805  12.970
 5874TIP3    H239114   1.844   6.955  12.968
 5875TIP3   OH239115   1.616   7.136  13.171
 5875TIP3    H139116   1.561   7.201  13.214
 5875TIP3    H239117   1.583   7.132  13.081
 5876TIP3   OH239118   1.824   6.572  12.117
 5876TIP3    H139119   1.774   6.596  12.040
 5876TIP3    H239120   1.801   6.637  12.183
 5877TIP3   OH239121   1.647   6.275  11.936
 5877TIP3    H139122   1.633   6.336  11.863
 5877TIP3    H239123   1.629   6.189  11.899
 5878TIP3   OH239124   1.584   6.451  12.544
 5878TIP3    H139125   1.577   6.362  12.509
 5878TIP3    H239126   1.540   6.447  12.628
 5879TIP3   OH239127   0.075   6.647  12.961
 5879TIP3    H139128   0.085   6.660  12.867
 5879TIP3    H239129   0.157   6.607  12.989
 5880TIP3   OH239130   1.665   6.638  13.521
 5880TIP3    H139131   1.725   6.566  13.503
 5880TIP3    H239132   1.715   6.717  13.497
 5881TIP3   OH239133   1.811   6.403  13.499
 5881TIP3    H139134   1.723   6.366  13.512
 5881TIP3    H239135   1.870   6.332  13.525
 5882TIP3   OH239136   1.580   6.025  11.836
 5882TIP3    H139137   1.614   5.978  11.912
 5882TIP3    H239138   1.486   6.006  11.836
 5883TIP3   OH239139   1.563   6.210  12.369
 5883TIP3    H139140   1.593   6.119  12.371
 5883TIP3    H239141   1.626   6.255  12.312
 5884TIP3   OH239142   1.587   6.238  12.937
 5884TIP3    H139143   1.679   6.249  12.913
 5884TIP3    H239144   1.583   6.260  13.030
 5885TIP3   OH239145   1.619   6.328  13.203
 5885TIP3    H139146   1.539   6.357  13.248
 5885TIP3    H239147   1.669   6.408  13.189
 5886TIP3   OH239148   0.049   6.124  13.546
 5886TIP3    H139149   0.137   6.122  13.584
 5886TIP3    H239150  -0.005   6.074  13.607
 5887TIP3   OH239151   1.859   5.737  13.722
 5887TIP3    H139152   1.927   5.681  13.684
 5887TIP3    H239153   1.849   5.809  13.660
 5888TIP3   OH239154   1.631   5.939  12.382
 5888TIP3    H139155   1.653   5.902  12.467
 5888TIP3    H239156   1.561   5.883  12.349
 5889TIP3   OH239157   0.180   6.022  12.863
 5889TIP3    H139158   0.216   5.933  12.859
 5889TIP3    H239159   0.257   6.079  12.871
 5890TIP3   OH239160  -0.005   6.374  12.966
 5890TIP3    H139161   0.068   6.351  12.909
 5890TIP3    H239162   0.000   6.469  12.976
 5891TIP3   OH239163   1.782   5.933  13.547
 5891TIP3    H139164   1.708   5.972  13.594
 5891TIP3    H239165   1.744   5.900  13.465
 5892TIP3   OH239166   1.746   5.909  12.027
 5892TIP3    H139167   1.802   5.856  11.970
 5892TIP3    H239168   1.805   5.975  12.064
 5893TIP3   OH239169   0.132   5.958  12.323
 5893TIP3    H139170   0.046   5.936  12.359
 5893TIP3    H239171   0.116   6.036  12.269
 5894TIP3   OH239172   7.365   5.804  13.209
 5894TIP3    H139173   7.325   5.860  13.275
 5894TIP3    H239174   7.308   5.811  13.133
 5895TIP3   OH239175   0.254   7.213  13.516
 5895TIP3    H139176   0.246   7.137  13.459
 5895TIP3    H239177   0.219   7.182  13.600
 5896TIP3   OH239178   0.569   7.250  13.205
 5896TIP3    H139179   0.528   7.307  13.140
 5896TIP3    H239180   0.658   7.237  13.173
 5897TIP3   OH239181   1.691   5.731  13.350
 5897TIP3    H139182   1.630   5.760  13.283
 5897TIP3    H239183   1.708   5.639  13.329
 5898TIP3   OH239184   0.425   7.212  12.704
 5898TIP3    H139185   0.382   7.133  12.736
 5898TIP3    H239186   0.487   7.236  12.773
 5899TIP3   OH239187   0.604   7.181  12.913
 5899TIP3    H139188   0.645   7.097  12.894
 5899TIP3    H239189   0.676   7.235  12.947
 5900TIP3   OH239190   1.025   5.868  12.809
 5900TIP3    H139191   0.963   5.798  12.830
 5900TIP3    H239192   1.098   5.824  12.766
 5901TIP3   OH239193   1.529   5.722  12.790
 5901TIP3    H139194   1.590   5.778  12.744
 5901TIP3    H239195   1.444   5.764  12.778
 5902TIP3   OH239196   1.719   5.820  12.615
 5902TIP3    H139197   1.782   5.751  12.595
 5902TIP3    H239198   1.773   5.897  12.634
 5903TIP3   OH239199   0.301   5.744  12.550
 5903TIP3    H139200   0.209   5.736  12.523
 5903TIP3    H239201   0.336   5.656  12.538
 5904TIP3   OH239202   0.171   5.748  12.144
 5904TIP3    H139203   0.233   5.783  12.080
 5904TIP3    H239204   0.167   5.815  12.213
 5905TIP3   OH239205   0.761   5.690  12.581
 5905TIP3    H139206   0.829   5.741  12.537
 5905TIP3    H239207   0.780   5.699  12.674
 5906TIP3   OH239208   1.247   5.739  12.707
 5906TIP3    H139209   1.276   5.722  12.617
 5906TIP3    H239210   1.232   5.653  12.745
 5907TIP3   OH239211   1.420   5.771  12.306
 5907TIP3    H139212   1.344   5.828  12.319
 5907TIP3    H239213   1.385   5.682  12.315
 5908TIP3   OH239214   0.173   0.008  12.316
 5908TIP3    H139215   0.189  -0.015  12.224
 5908TIP3    H239216   0.145   0.100  12.313
 5909TIP3   OH239217   0.368   5.886  11.995
 5909TIP3    H139218   0.424   5.843  11.931
 5909TIP3    H239219   0.429   5.924  12.058
 5910TIP3   OH239220   0.820   5.971  12.246
 5910TIP3    H139221   0.855   5.898  12.296
 5910TIP3    H239222   0.840   6.048  12.298
 5911TIP3   OH239223   0.292   5.809  13.504
 5911TIP3    H139224   0.233   5.741  13.537
 5911TIP3    H239225   0.376   5.791  13.547
 5912TIP3   OH239226   0.489   5.729  13.680
 5912TIP3    H139227   0.573   5.701  13.642
 5912TIP3    H239228   0.458   5.651  13.726
 5913TIP3   OH239229   1.336   5.696  13.694
 5913TIP3    H139230   1.326   5.647  13.775
 5913TIP3    H239231   1.428   5.685  13.670
 5914TIP3   OH239232   1.619   7.304  13.522
 5914TIP3    H139233   1.549   7.284  13.460
 5914TIP3    H239234   1.577   7.357  13.590
 5915TIP3   OH239235   3.086   6.687  12.547
 5915TIP3    H139236   3.077   6.777  12.517
 5915TIP3    H239237   3.016   6.639  12.502
 5916TIP3   OH239238   2.963   6.594  12.938
 5916TIP3    H139239   2.995   6.546  13.015
 5916TIP3    H239240   2.917   6.528  12.886
 5917TIP3   OH239241   2.175   6.528  13.057
 5917TIP3    H139242   2.186   6.459  13.122
 5917TIP3    H239243   2.265   6.548  13.028
 5918TIP3   OH239244   3.378   6.894  12.765
 5918TIP3    H139245   3.323   6.827  12.804
 5918TIP3    H239246   3.372   6.969  12.825
 5919TIP3   OH239247   2.326   6.959  12.896
 5919TIP3    H139248   2.279   6.885  12.858
 5919TIP3    H239249   2.416   6.948  12.866
 5920TIP3   OH239250   1.958   6.332  12.394
 5920TIP3    H139251   1.929   6.417  12.429
 5920TIP3    H239252   1.895   6.312  12.325
 5921TIP3   OH239253   2.018   6.583  12.704
 5921TIP3    H139254   2.049   6.494  12.721
 5921TIP3    H239255   2.097   6.637  12.713
 5922TIP3   OH239256   2.811   6.831  12.944
 5922TIP3    H139257   2.852   6.749  12.918
 5922TIP3    H239258   2.876   6.874  13.000
 5923TIP3   OH239259   3.620   5.962  13.058
 5923TIP3    H139260   3.665   6.043  13.084
 5923TIP3    H239261   3.690   5.906  13.024
 5924TIP3   OH239262   3.123   6.264  12.963
 5924TIP3    H139263   3.138   6.170  12.974
 5924TIP3    H239264   3.107   6.275  12.869
 5925TIP3   OH239265   2.455   6.074  12.685
 5925TIP3    H139266   2.466   6.158  12.640
 5925TIP3    H239267   2.405   6.020  12.623
 5926TIP3   OH239268   3.252   6.112  12.543
 5926TIP3    H139269   3.293   6.076  12.622
 5926TIP3    H239270   3.325   6.137  12.487
 5927TIP3   OH239271   2.096   6.325  12.767
 5927TIP3    H139272   2.162   6.284  12.824
 5927TIP3    H239273   2.117   6.293  12.679
 5928TIP3   OH239274   2.575   6.469  12.742
 5928TIP3    H139275   2.664   6.439  12.763
 5928TIP3    H239276   2.541   6.404  12.680
 5929TIP3   OH239277   3.700   6.166  13.252
 5929TIP3    H139278   3.643   6.238  13.226
 5929TIP3    H239279   3.642   6.106  13.301
 5930TIP3   OH239280   2.321   5.995  13.105
 5930TIP3    H139281   2.300   6.053  13.032
 5930TIP3    H239282   2.250   6.007  13.168
 5931TIP3   OH239283   3.073   6.929  12.419
 5931TIP3    H139284   3.046   6.925  12.327
 5931TIP3    H239285   3.026   7.004  12.455
 5932TIP3   OH239286   2.582   6.762  13.087
 5932TIP3    H139287   2.528   6.835  13.115
 5932TIP3    H239288   2.654   6.802  13.038
 5933TIP3   OH239289   3.342   6.052  12.793
 5933TIP3    H139290   3.281   6.019  12.859
 5933TIP3    H239291   3.399   6.113  12.841
 5934TIP3   OH239292   2.293   6.165  12.890
 5934TIP3    H139293   2.351   6.221  12.940
 5934TIP3    H239294   2.349   6.129  12.821
 5935TIP3   OH239295   2.406   6.966  13.164
 5935TIP3    H139296   2.372   6.975  13.076
 5935TIP3    H239297   2.329   6.973  13.221
 5936TIP3   OH239298   1.964   6.944  12.296
 5936TIP3    H139299   1.892   7.001  12.267
 5936TIP3    H239300   2.003   6.991  12.370
 5937TIP3   OH239301   3.378   7.129  12.923
 5937TIP3    H139302   3.290   7.126  12.961
 5937TIP3    H239303   3.379   7.208  12.869
 5938TIP3   OH239304   3.374   5.877  13.133
 5938TIP3    H139305   3.306   5.918  13.079
 5938TIP3    H239306   3.456   5.905  13.093
 5939TIP3   OH239307   2.678   5.683  12.869
 5939TIP3    H139308   2.652   5.591  12.867
 5939TIP3    H239309   2.599   5.730  12.894
 5940TIP3   OH239310   3.230   7.263  12.553
 5940TIP3    H139311   3.255   7.174  12.530
 5940TIP3    H239312   3.284   7.284  12.629
 5941TIP3   OH239313   3.322   7.010  12.516
 5941TIP3    H139314   3.248   6.962  12.478
 5941TIP3    H239315   3.346   6.958  12.593
 5942TIP3   OH239316   3.476   6.904  13.308
 5942TIP3    H139317   3.463   6.842  13.236
 5942TIP3    H239318   3.487   6.988  13.264
 5943TIP3   OH239319   2.924   6.609  12.321
 5943TIP3    H139320   2.860   6.673  12.290
 5943TIP3    H239321   2.991   6.606  12.252
 5944TIP3   OH239322   2.956   6.487  11.974
 5944TIP3    H139323   3.012   6.504  12.050
 5944TIP3    H239324   3.001   6.416  11.927
 5945TIP3   OH239325   3.653   6.573  13.152
 5945TIP3    H139326   3.578   6.631  13.139
 5945TIP3    H239327   3.706   6.585  13.072
 5946TIP3   OH239328   3.299   6.620  12.389
 5946TIP3    H139329   3.231   6.638  12.454
 5946TIP3    H239330   3.362   6.565  12.437
 5947TIP3   OH239331   3.262   6.416  13.342
 5947TIP3    H139332   3.255   6.486  13.407
 5947TIP3    H239333   3.195   6.438  13.277
 5948TIP3   OH239334   2.439   6.658  12.575
 5948TIP3    H139335   2.414   6.622  12.490
 5948TIP3    H239336   2.492   6.589  12.615
 5949TIP3   OH239337   2.591   6.952  12.817
 5949TIP3    H139338   2.601   6.967  12.723
 5949TIP3    H239339   2.673   6.908  12.842
 5950TIP3   OH239340   2.433   6.571  12.954
 5950TIP3    H139341   2.487   6.543  12.880
 5950TIP3    H239342   2.486   6.637  12.999
 5951TIP3   OH239343   3.136   7.110  13.047
 5951TIP3    H139344   3.067   7.171  13.072
 5951TIP3    H239345   3.103   7.024  13.073
 5952TIP3   OH239346   2.563   6.982  13.399
 5952TIP3    H139347   2.499   7.035  13.445
 5952TIP3    H239348   2.523   6.964  13.314
 5953TIP3   OH239349   3.154   6.554  12.165
 5953TIP3    H139350   3.206   6.584  12.239
 5953TIP3    H239351   3.208   6.573  12.088
 5954TIP3   OH239352   2.244   6.573  13.407
 5954TIP3    H139353   2.257   6.659  13.447
 5954TIP3    H239354   2.155   6.576  13.372
 5955TIP3   OH239355   2.963   7.169  12.485
 5955TIP3    H139356   3.038   7.223  12.510
 5955TIP3    H239357   2.928   7.212  12.407
 5956TIP3   OH239358   2.380   7.165  13.494
 5956TIP3    H139359   2.374   7.211  13.411
 5956TIP3    H239360   2.291   7.164  13.529
 5957TIP3   OH239361   3.533   5.691  12.152
 5957TIP3    H139362   3.443   5.709  12.180
 5957TIP3    H239363   3.563   5.773  12.114
 5958TIP3   OH239364   2.348   6.587  12.314
 5958TIP3    H139365   2.287   6.655  12.287
 5958TIP3    H239366   2.303   6.505  12.296
 5959TIP3   OH239367   3.667   7.147  12.008
 5959TIP3    H139368   3.649   7.239  12.026
 5959TIP3    H239369   3.760   7.143  11.989
 5960TIP3   OH239370   1.960   6.837  13.254
 5960TIP3    H139371   1.906   6.850  13.176
 5960TIP3    H239372   1.969   6.742  13.261
 5961TIP3   OH239373   1.952   7.149  12.951
 5961TIP3    H139374   2.038   7.146  12.993
 5961TIP3    H239375   1.898   7.201  13.011
 5962TIP3   OH239376   3.743   7.170  13.531
 5962TIP3    H139377   3.724   7.076  13.530
 5962TIP3    H239378   3.658   7.211  13.518
 5963TIP3   OH239379   2.807   7.110  13.397
 5963TIP3    H139380   2.791   7.189  13.449
 5963TIP3    H239381   2.723   7.064  13.398
 5964TIP3   OH239382   3.459   6.301  13.536
 5964TIP3    H139383   3.395   6.327  13.469
 5964TIP3    H239384   3.450   6.206  13.543
 5965TIP3   OH239385   2.184   6.977  13.328
 5965TIP3    H139386   2.209   6.934  13.410
 5965TIP3    H239387   2.104   6.933  13.301
 5966TIP3   OH239388   2.429   5.792  12.946
 5966TIP3    H139389   2.354   5.782  12.886
 5966TIP3    H239390   2.405   5.866  13.002
 5967TIP3   OH239391   2.901   5.782  13.291
 5967TIP3    H139392   2.944   5.729  13.358
 5967TIP3    H239393   2.808   5.772  13.308
 5968TIP3   OH239394   3.234   6.141  13.392
 5968TIP3    H139395   3.163   6.129  13.454
 5968TIP3    H239396   3.227   6.232  13.363
 5969TIP3   OH239397   3.308   6.598  11.946
 5969TIP3    H139398   3.287   6.603  11.853
 5969TIP3    H239399   3.401   6.620  11.950
 5970TIP3   OH239400   2.817   6.043  11.972
 5970TIP3    H139401   2.783   6.046  12.061
 5970TIP3    H239402   2.813   5.950  11.947
 5971TIP3   OH239403   2.443   6.317  13.066
 5971TIP3    H139404   2.378   6.316  13.136
 5971TIP3    H239405   2.446   6.408  13.037
 5972TIP3   OH239406   2.440   6.316  12.554
 5972TIP3    H139407   2.345   6.305  12.549
 5972TIP3    H239408   2.471   6.298  12.465
 5973TIP3   OH239409   3.011   6.382  12.453
 5973TIP3    H139410   2.967   6.451  12.403
 5973TIP3    H239411   3.048   6.324  12.386
 5974TIP3   OH239412   2.894   6.359  13.539
 5974TIP3    H139413   2.847   6.285  13.577
 5974TIP3    H239414   2.979   6.359  13.584
 5975TIP3   OH239415   3.091   6.285  12.692
 5975TIP3    H139416   3.052   6.334  12.620
 5975TIP3    H239417   3.136   6.211  12.651
 5976TIP3   OH239418   2.231   6.322  13.241
 5976TIP3    H139419   2.224   6.371  13.323
 5976TIP3    H239420   2.189   6.238  13.258
 5977TIP3   OH239421   2.511   6.020  11.895
 5977TIP3    H139422   2.496   6.024  11.989
 5977TIP3    H239423   2.466   6.096  11.860
 5978TIP3   OH239424   1.898   6.020  12.642
 5978TIP3    H139425   1.946   6.028  12.725
 5978TIP3    H239426   1.953   6.065  12.579
 5979TIP3   OH239427   1.920   6.102  12.129
 5979TIP3    H139428   1.986   6.146  12.076
 5979TIP3    H239429   1.861   6.172  12.157
 5980TIP3   OH239430   3.053   6.439  13.154
 5980TIP3    H139431   3.088   6.382  13.086
 5980TIP3    H239432   2.984   6.388  13.196
 5981TIP3   OH239433   2.741   6.036  12.661
 5981TIP3    H139434   2.651   6.034  12.693
 5981TIP3    H239435   2.793   6.000  12.733
 5982TIP3   OH239436   2.178   6.228  12.525
 5982TIP3    H139437   2.108   6.256  12.465
 5982TIP3    H239438   2.204   6.141  12.492
 5983TIP3   OH239439   2.507   6.236  12.299
 5983TIP3    H139440   2.599   6.221  12.317
 5983TIP3    H239441   2.505   6.274  12.211
 5984TIP3   OH239442   3.140   5.985  12.986
 5984TIP3    H139443   3.092   5.998  13.067
 5984TIP3    H239444   3.077   5.944  12.926
 5985TIP3   OH239445   2.478   6.322  12.039
 5985TIP3    H139446   2.424   6.300  11.964
 5985TIP3    H239447   2.550   6.374  12.003
 5986TIP3   OH239448   2.249   6.814  13.554
 5986TIP3    H139449   2.314   6.811  13.623
 5986TIP3    H239450   2.165   6.822  13.599
 5987TIP3   OH239451   2.822   6.365  12.836
 5987TIP3    H139452   2.884   6.314  12.784
 5987TIP3    H239453   2.790   6.304  12.903
 5988TIP3   OH239454   2.286   5.970  12.481
 5988TIP3    H139455   2.236   5.892  12.505
 5988TIP3    H239456   2.329   5.946  12.399
 5989TIP3   OH239457   2.705   6.222  13.053
 5989TIP3    H139458   2.620   6.265  13.063
 5989TIP3    H239459   2.755   6.251  13.130
 5990TIP3   OH239460   2.729   6.803  12.242
 5990TIP3    H139461   2.661   6.758  12.192
 5990TIP3    H239462   2.689   6.819  12.328
 5991TIP3   OH239463   3.448   6.744  13.082
 5991TIP3    H139464   3.504   6.800  13.028
 5991TIP3    H239465   3.375   6.720  13.024
 5992TIP3   OH239466   3.103   6.132  12.035
 5992TIP3    H139467   3.037   6.068  12.063
 5992TIP3    H239468   3.132   6.174  12.116
 5993TIP3   OH239469   2.921   6.844  13.384
 5993TIP3    H139470   2.933   6.801  13.468
 5993TIP3    H239471   2.877   6.927  13.405
 5994TIP3   OH239472   3.197   6.283  12.249
 5994TIP3    H139473   3.283   6.267  12.287
 5994TIP3    H239474   3.199   6.374  12.221
 5995TIP3   OH239475   2.260   6.711  12.776
 5995TIP3    H139476   2.316   6.706  12.699
 5995TIP3    H239477   2.305   6.659  12.842
 5996TIP3   OH239478   2.947   6.950  12.169
 5996TIP3    H139479   2.923   7.041  12.183
 5996TIP3    H239480   2.869   6.900  12.192
 5997TIP3   OH239481   1.972   6.563  13.336
 5997TIP3    H139482   1.941   6.518  13.414
 5997TIP3    H239483   1.904   6.546  13.270
 5998TIP3   OH239484   2.690   6.546  13.565
 5998TIP3    H139485   2.620   6.507  13.513
 5998TIP3    H239486   2.767   6.494  13.544
 5999TIP3   OH239487   3.090   7.118  13.386
 5999TIP3    H139488   2.996   7.114  13.373
 5999TIP3    H239489   3.101   7.123  13.481
 6000TIP3   OH239490   3.645   6.321  12.185
 6000TIP3    H139491   3.601   6.300  12.102
 6000TIP3    H239492   3.670   6.412  12.176
 6001TIP3   OH239493   3.693   6.883  13.472
 6001TIP3    H139494   3.607   6.901  13.435
 6001TIP3    H239495   3.751   6.875  13.396
 6002TIP3   OH239496   3.511   7.105  12.275
 6002TIP3    H139497   3.441   7.041  12.276
 6002TIP3    H239498   3.491   7.162  12.201
 6003TIP3   OH239499   3.248   6.675  12.894
 6003TIP3    H139500   3.152   6.666  12.889
 6003TIP3    H239501   3.281   6.599  12.847
 6004TIP3   OH239502   2.488   7.090  12.573
 6004TIP3    H139503   2.495   7.162  12.510
 6004TIP3    H239504   2.419   7.117  12.634
 6005TIP3   OH239505   2.091   6.550  12.052
 6005TIP3    H139506   2.130   6.624  12.098
 6005TIP3    H239507   1.998   6.552  12.076
 6006TIP3   OH239508   2.594   6.861  12.468
 6006TIP3    H139509   2.557   6.944  12.500
 6006TIP3    H239510   2.540   6.794  12.510
 6007TIP3   OH239511   2.702   7.226  13.152
 6007TIP3    H139512   2.686   7.313  13.189
 6007TIP3    H239513   2.753   7.180  13.219
 6008TIP3   OH239514   2.458  -0.013  12.427
 6008TIP3    H139515   2.373   0.012  12.463
 6008TIP3    H239516   2.522   0.034  12.481
 6009TIP3   OH239517   3.023   6.869  13.128
 6009TIP3    H139518   2.988   6.859  13.216
 6009TIP3    H239519   3.068   6.787  13.110
 6010TIP3   OH239520   3.298   6.988  12.040
 6010TIP3    H139521   3.317   6.930  12.113
 6010TIP3    H239522   3.214   6.957  12.006
 6011TIP3   OH239523   3.297   7.288  13.316
 6011TIP3    H139524   3.227   7.223  13.330
 6011TIP3    H239525   3.251   7.367  13.289
 6012TIP3   OH239526   2.111   6.067  13.274
 6012TIP3    H139527   2.021   6.095  13.257
 6012TIP3    H239528   2.104   6.001  13.343
 6013TIP3   OH239529   3.395   6.837  12.247
 6013TIP3    H139530   3.350   6.769  12.297
 6013TIP3    H239531   3.488   6.822  12.262
 6014TIP3   OH239532   2.149   7.221  13.155
 6014TIP3    H139533   2.129   7.160  13.226
 6014TIP3    H239534   2.080   7.287  13.161
 6015TIP3   OH239535   2.685   7.047  11.882
 6015TIP3    H139536   2.686   6.965  11.832
 6015TIP3    H239537   2.642   7.025  11.965
 6016TIP3   OH239538   2.557   7.028  12.126
 6016TIP3    H139539   2.599   6.973  12.192
 6016TIP3    H239540   2.573   7.118  12.157
 6017TIP3   OH239541   2.169   6.773  12.201
 6017TIP3    H139542   2.095   6.819  12.239
 6017TIP3    H239543   2.216   6.840  12.151
 6018TIP3   OH239544   3.018   6.025  13.233
 6018TIP3    H139545   3.094   6.027  13.291
 6018TIP3    H239546   2.975   5.942  13.253
 6019TIP3   OH239547   3.014   6.080  12.405
 6019TIP3    H139548   3.029   6.019  12.333
 6019TIP3    H239549   3.099   6.088  12.448
 6020TIP3   OH239550   2.868   7.216  12.204
 6020TIP3    H139551   2.777   7.246  12.211
 6020TIP3    H239552   2.892   7.234  12.113
 6021TIP3   OH239553   2.753   6.159  12.413
 6021TIP3    H139554   2.848   6.159  12.403
 6021TIP3    H239555   2.738   6.131  12.503
 6022TIP3   OH239556   2.876   6.267  13.271
 6022TIP3    H139557   2.877   6.287  13.364
 6022TIP3    H239558   2.916   6.180  13.264
 6023TIP3   OH239559   2.857   5.832  12.487
 6023TIP3    H139560   2.837   5.913  12.533
 6023TIP3    H239561   2.911   5.859  12.413
 6024TIP3   OH239562   2.600   7.291  12.199
 6024TIP3    H139563   2.576   7.364  12.142
 6024TIP3    H239564   2.549   7.303  12.278
 6025TIP3   OH239565   2.443   5.992  12.166
 6025TIP3    H139566   2.438   6.077  12.211
 6025TIP3    H239567   2.532   5.961  12.184
 6026TIP3   OH239568   3.483   6.022  13.367
 6026TIP3    H139569   3.397   6.062  13.379
 6026TIP3    H239570   3.470   5.960  13.295
 6027TIP3   OH239571   3.324   6.430  12.772
 6027TIP3    H139572   3.241   6.387  12.749
 6027TIP3    H239573   3.368   6.369  12.830
 6028TIP3   OH239574   2.293   6.967  12.044
 6028TIP3    H139575   2.370   7.006  12.085
 6028TIP3    H239576   2.328   6.912  11.974
 6029TIP3   OH239577   2.064   6.280  11.977
 6029TIP3    H139578   2.092   6.363  12.015
 6029TIP3    H239579   2.034   6.302  11.889
 6030TIP3   OH239580   2.178   5.771  12.824
 6030TIP3    H139581   2.171   5.765  12.729
 6030TIP3    H239582   2.144   5.688  12.857
 6031TIP3   OH239583   2.038   7.123  12.496
 6031TIP3    H139584   1.991   7.151  12.575
 6031TIP3    H239585   2.034   7.199  12.437
 6032TIP3   OH239586   2.539   7.256  13.694
 6032TIP3    H139587   2.591   7.185  13.734
 6032TIP3    H239588   2.483   7.211  13.630
 6033TIP3   OH239589   2.896   7.221  11.929
 6033TIP3    H139590   2.825   7.162  11.906
 6033TIP3    H239591   2.964   7.203  11.864
 6034TIP3   OH239592   3.127   7.136  13.659
 6034TIP3    H139593   3.103   7.054  13.702
 6034TIP3    H239594   3.216   7.154  13.690
 6035TIP3   OH239595   3.327   7.219  11.895
 6035TIP3    H139596   3.326   7.148  11.959
 6035TIP3    H239597   3.411   7.209  11.850
 6036TIP3   OH239598   1.999   6.811  13.673
 6036TIP3    H139599   1.998   6.715  13.674
 6036TIP3    H239600   1.924   6.836  13.620
 6037TIP3   OH239601   2.430   6.795  11.878
 6037TIP3    H139602   2.456   6.749  11.958
 6037TIP3    H239603   2.511   6.802  11.828
 6038TIP3   OH239604   2.664   6.821  13.609
 6038TIP3    H139605   2.634   6.858  13.525
 6038TIP3    H239606   2.684   6.730  13.588
 6039TIP3   OH239607   3.058   6.917  11.916
 6039TIP3    H139608   3.008   6.918  11.997
 6039TIP3    H239609   3.033   6.836  11.873
 6040TIP3   OH239610   3.227   6.845  13.413
 6040TIP3    H139611   3.311   6.876  13.381
 6040TIP3    H239612   3.164   6.912  13.386
 6041TIP3   OH239613   2.076   6.539  13.655
 6041TIP3    H139614   2.159   6.528  13.609
 6041TIP3    H239615   2.100   6.542  13.748
 6042TIP3   OH239616   2.529   6.666  12.108
 6042TIP3    H139617   2.476   6.625  12.176
 6042TIP3    H239618   2.574   6.593  12.065
 6043TIP3   OH239619   2.494   6.438  13.397
 6043TIP3    H139620   2.412   6.488  13.393
 6043TIP3    H239621   2.546   6.471  13.324
 6044TIP3   OH239622   2.678   6.491  11.952
 6044TIP3    H139623   2.676   6.514  11.859
 6044TIP3    H239624   2.771   6.482  11.973
 6045TIP3   OH239625   3.004   6.684  13.664
 6045TIP3    H139626   3.080   6.643  13.621
 6045TIP3    H239627   2.971   6.616  13.723
 6046TIP3   OH239628   3.573   6.671  11.906
 6046TIP3    H139629   3.575   6.648  11.813
 6046TIP3    H239630   3.565   6.767  11.907
 6047TIP3   OH239631   2.538   6.173  13.456
 6047TIP3    H139632   2.547   6.120  13.377
 6047TIP3    H239633   2.525   6.262  13.424
 6048TIP3   OH239634   2.571   6.025  13.217
 6048TIP3    H139635   2.624   6.071  13.152
 6048TIP3    H239636   2.484   6.018  13.177
 6049TIP3   OH239637   2.669   6.536  13.214
 6049TIP3    H139638   2.764   6.538  13.214
 6049TIP3    H239639   2.642   6.617  13.172
 6050TIP3   OH239640   3.129   6.330  13.698
 6050TIP3    H139641   3.131   6.237  13.675
 6050TIP3    H239642   3.221   6.353  13.713
 6051TIP3   OH239643   3.278   6.614  13.543
 6051TIP3    H139644   3.250   6.696  13.501
 6051TIP3    H239645   3.374   6.615  13.537
 6052TIP3   OH239646   2.373   6.222  13.681
 6052TIP3    H139647   2.290   6.176  13.669
 6052TIP3    H239648   2.418   6.212  13.597
 6053TIP3   OH239649   2.623   5.762  13.296
 6053TIP3    H139650   2.605   5.853  13.272
 6053TIP3    H239651   2.556   5.711  13.251
 6054TIP3   OH239652   2.758   6.136  13.622
 6054TIP3    H139653   2.719   6.108  13.705
 6054TIP3    H239654   2.684   6.140  13.561
 6055TIP3   OH239655   3.034   6.090  13.570
 6055TIP3    H139656   2.940   6.086  13.589
 6055TIP3    H239657   3.074   6.029  13.631
 6056TIP3   OH239658   3.196   5.957  13.750
 6056TIP3    H139659   3.194   5.862  13.734
 6056TIP3    H239660   3.171   5.967  13.841
 6057TIP3   OH239661   2.161   6.037  13.645
 6057TIP3    H139662   2.164   5.956  13.593
 6057TIP3    H239663   2.172   6.007  13.736
 6058TIP3   OH239664   2.608   5.666  13.553
 6058TIP3    H139665   2.665   5.590  13.544
 6058TIP3    H239666   2.606   5.705  13.466
 6059TIP3   OH239667   2.693   5.821  13.766
 6059TIP3    H139668   2.667   5.769  13.689
 6059TIP3    H239669   2.634   5.896  13.765
 6060TIP3   OH239670   2.032   7.046  11.947
 6060TIP3    H139671   2.107   7.028  12.004
 6060TIP3    H239672   2.014   6.962  11.905
 6061TIP3   OH239673   1.936   7.303  12.716
 6061TIP3    H139674   1.931   7.239  12.787
 6061TIP3    H239675   1.965   7.384  12.758
 6062TIP3   OH239676   3.521   6.928  13.791
 6062TIP3    H139677   3.439   6.946  13.838
 6062TIP3    H239678   3.572   7.009  13.801
 6063TIP3   OH239679   3.661   6.780  12.311
 6063TIP3    H139680   3.744   6.827  12.303
 6063TIP3    H239681   3.676   6.717  12.381
 6064TIP3   OH239682   3.709   6.580  12.494
 6064TIP3    H139683   3.626   6.538  12.517
 6064TIP3    H239684   3.760   6.578  12.575
 6065TIP3   OH239685   3.693   6.870  12.999
 6065TIP3    H139686   3.741   6.794  12.968
 6065TIP3    H239687   3.676   6.922  12.920
 6066TIP3   OH239688   3.492   7.142  13.177
 6066TIP3    H139689   3.427   7.199  13.219
 6066TIP3    H239690   3.463   7.137  13.085
 6067TIP3   OH239691   3.711   6.581  12.123
 6067TIP3    H139692   3.665   6.603  12.042
 6067TIP3    H239693   3.682   6.647  12.186
 6068TIP3   OH239694   3.542   6.279  11.936
 6068TIP3    H139695   3.526   6.332  11.858
 6068TIP3    H239696   3.518   6.190  11.910
 6069TIP3   OH239697   3.467   6.448  12.533
 6069TIP3    H139698   3.460   6.359  12.497
 6069TIP3    H239699   3.421   6.443  12.617
 6070TIP3   OH239700   1.944   6.633  12.961
 6070TIP3    H139701   1.954   6.621  12.867
 6070TIP3    H239702   2.028   6.605  12.998
 6071TIP3   OH239703   3.555   6.633  13.524
 6071TIP3    H139704   3.617   6.562  13.508
 6071TIP3    H239705   3.602   6.712  13.496
 6072TIP3   OH239706   3.712   6.405  13.512
 6072TIP3    H139707   3.625   6.366  13.512
 6072TIP3    H239708   3.768   6.340  13.555
 6073TIP3   OH239709   3.466   6.031  11.841
 6073TIP3    H139710   3.501   5.979  11.913
 6073TIP3    H239711   3.375   6.004  11.834
 6074TIP3   OH239712   3.457   6.207  12.366
 6074TIP3    H139713   3.478   6.114  12.365
 6074TIP3    H239714   3.521   6.248  12.308
 6075TIP3   OH239715   3.475   6.256  12.930
 6075TIP3    H139716   3.569   6.265  12.910
 6075TIP3    H239717   3.469   6.275  13.024
 6076TIP3   OH239718   3.498   6.348  13.195
 6076TIP3    H139719   3.417   6.375  13.239
 6076TIP3    H239720   3.547   6.429  13.184
 6077TIP3   OH239721   1.939   6.159  13.534
 6077TIP3    H139722   2.021   6.135  13.576
 6077TIP3    H239723   1.882   6.082  13.546
 6078TIP3   OH239724   3.741   5.754  13.708
 6078TIP3    H139725   3.808   5.697  13.671
 6078TIP3    H239726   3.740   5.830  13.650
 6079TIP3   OH239727   3.502   5.931  12.374
 6079TIP3    H139728   3.515   5.894  12.461
 6079TIP3    H239729   3.430   5.879  12.336
 6080TIP3   OH239730   2.050   6.013  12.875
 6080TIP3    H139731   2.090   5.926  12.866
 6080TIP3    H239732   2.124   6.073  12.883
 6081TIP3   OH239733   1.857   6.300  12.917
 6081TIP3    H139734   1.929   6.298  12.855
 6081TIP3    H239735   1.880   6.370  12.979
 6082TIP3   OH239736   3.706   5.966  13.534
 6082TIP3    H139737   3.617   5.986  13.505
 6082TIP3    H239738   3.749   5.930  13.456
 6083TIP3   OH239739   3.642   5.907  12.019
 6083TIP3    H139740   3.697   5.853  11.963
 6083TIP3    H239741   3.703   5.971  12.057
 6084TIP3   OH239742   1.921   5.880  12.292
 6084TIP3    H139743   1.833   5.888  12.329
 6084TIP3    H239744   1.934   5.961  12.243
 6085TIP3   OH239745   1.918   5.764  13.180
 6085TIP3    H139746   1.851   5.759  13.248
 6085TIP3    H239747   1.891   5.837  13.124
 6086TIP3   OH239748   2.136   7.190  13.629
 6086TIP3    H139749   2.055   7.201  13.579
 6086TIP3    H239750   2.109   7.142  13.707
 6087TIP3   OH239751   2.406   7.280  13.237
 6087TIP3    H139752   2.317   7.279  13.204
 6087TIP3    H239753   2.455   7.222  13.178
 6088TIP3   OH239754   3.559   5.694  13.339
 6088TIP3    H139755   3.486   5.706  13.278
 6088TIP3    H239756   3.594   5.608  13.317
 6089TIP3   OH239757   2.321   7.212  12.775
 6089TIP3    H139758   2.293   7.131  12.818
 6089TIP3    H239759   2.403   7.235  12.819
 6090TIP3   OH239760   2.568   7.210  12.913
 6090TIP3    H139761   2.580   7.120  12.881
 6090TIP3    H239762   2.616   7.211  12.996
 6091TIP3   OH239763   2.910   5.875  12.828
 6091TIP3    H139764   2.846   5.805  12.836
 6091TIP3    H239765   2.982   5.837  12.777
 6092TIP3   OH239766   3.405   5.719  12.792
 6092TIP3    H139767   3.465   5.780  12.749
 6092TIP3    H239768   3.318   5.755  12.774
 6093TIP3   OH239769   3.589   5.833  12.619
 6093TIP3    H139770   3.657   5.768  12.605
 6093TIP3    H239771   3.636   5.915  12.631
 6094TIP3   OH239772   2.150   5.737  12.551
 6094TIP3    H139773   2.058   5.720  12.532
 6094TIP3    H239774   2.193   5.653  12.540
 6095TIP3   OH239775   2.093   5.709  12.147
 6095TIP3    H139776   2.143   5.775  12.100
 6095TIP3    H239777   2.035   5.758  12.204
 6096TIP3   OH239778   2.636   5.694  12.586
 6096TIP3    H139779   2.707   5.740  12.541
 6096TIP3    H239780   2.660   5.698  12.678
 6097TIP3   OH239781   3.133   5.757  12.712
 6097TIP3    H139782   3.138   5.754  12.616
 6097TIP3    H239783   3.116   5.667  12.739
 6098TIP3   OH239784   3.296   5.765  12.272
 6098TIP3    H139785   3.217   5.808  12.239
 6098TIP3    H239786   3.267   5.677  12.296
 6099TIP3   OH239787   2.034   0.022  12.366
 6099TIP3    H139788   2.058   0.026  12.273
 6099TIP3    H239789   1.974   0.095  12.379
 6100TIP3   OH239790   2.261   5.866  11.988
 6100TIP3    H139791   2.319   5.828  11.922
 6100TIP3    H239792   2.320   5.909  12.050
 6101TIP3   OH239793   2.711   5.966  12.219
 6101TIP3    H139794   2.790   5.913  12.211
 6101TIP3    H239795   2.729   6.025  12.292
 6102TIP3   OH239796   2.166   5.789  13.505
 6102TIP3    H139797   2.109   5.719  13.536
 6102TIP3    H239798   2.248   5.777  13.553
 6103TIP3   OH239799   2.366   5.727  13.685
 6103TIP3    H139800   2.449   5.699  13.647
 6103TIP3    H239801   2.332   5.649  13.729
 6104TIP3   OH239802   3.221   5.688  13.687
 6104TIP3    H139803   3.213   5.640  13.770
 6104TIP3    H239804   3.313   5.680  13.663
 6105TIP3   OH239805   3.495   7.296  13.508
 6105TIP3    H139806   3.423   7.283  13.447
 6105TIP3    H239807   3.452   7.313  13.592
 6106TIP3   OH239808   4.967   6.709  12.564
 6106TIP3    H139809   4.911   6.700  12.486
 6106TIP3    H239810   4.926   6.652  12.629
 6107TIP3   OH239811   4.851   6.584  12.902
 6107TIP3    H139812   4.868   6.549  12.990
 6107TIP3    H239813   4.798   6.518  12.859
 6108TIP3   OH239814   4.059   6.552  13.074
 6108TIP3    H139815   4.064   6.462  13.106
 6108TIP3    H239816   4.117   6.602  13.132
 6109TIP3   OH239817   5.152   6.912  12.796
 6109TIP3    H139818   5.158   6.832  12.848
 6109TIP3    H239819   5.199   6.978  12.847
 6110TIP3   OH239820   4.191   6.984  12.841
 6110TIP3    H139821   4.150   6.899  12.828
 6110TIP3    H239822   4.283   6.964  12.859
 6111TIP3   OH239823   3.853   6.360  12.388
 6111TIP3    H139824   3.812   6.439  12.422
 6111TIP3    H239825   3.788   6.324  12.327
 6112TIP3   OH239826   3.902   6.570  12.698
 6112TIP3    H139827   3.931   6.480  12.718
 6112TIP3    H239828   3.981   6.623  12.710
 6113TIP3   OH239829   4.702   6.826  12.939
 6113TIP3    H139830   4.741   6.744  12.907
 6113TIP3    H239831   4.766   6.861  13.001
 6114TIP3   OH239832   5.555   6.009  13.034
 6114TIP3    H139833   5.572   6.063  13.111
 6114TIP3    H239834   5.597   6.056  12.962
 6115TIP3   OH239835   4.997   6.252  12.955
 6115TIP3    H139836   5.018   6.159  12.968
 6115TIP3    H239837   4.985   6.261  12.860
 6116TIP3   OH239838   4.361   6.065  12.665
 6116TIP3    H139839   4.356   6.154  12.630
 6116TIP3    H239840   4.300   6.015  12.613
 6117TIP3   OH239841   5.143   6.127  12.534
 6117TIP3    H139842   5.182   6.092  12.614
 6117TIP3    H239843   5.218   6.156  12.481
 6118TIP3   OH239844   3.995   6.320  12.772
 6118TIP3    H139845   4.049   6.262  12.825
 6118TIP3    H239846   4.004   6.286  12.683
 6119TIP3   OH239847   4.475   6.473  12.722
 6119TIP3    H139848   4.557   6.430  12.748
 6119TIP3    H239849   4.429   6.407  12.670
 6120TIP3   OH239850   5.589   6.163  13.257
 6120TIP3    H139851   5.523   6.232  13.257
 6120TIP3    H239852   5.631   6.170  13.342
 6121TIP3   OH239853   4.199   5.990  13.115
 6121TIP3    H139854   4.174   6.037  13.035
 6121TIP3    H239855   4.119   5.990  13.168
 6122TIP3   OH239856   4.915   6.973  12.417
 6122TIP3    H139857   4.893   6.956  12.325
 6122TIP3    H239858   4.867   7.053  12.439
 6123TIP3   OH239859   4.472   6.767  13.093
 6123TIP3    H139860   4.415   6.839  13.121
 6123TIP3    H239861   4.539   6.810  13.039
 6124TIP3   OH239862   5.223   6.071  12.788
 6124TIP3    H139863   5.170   6.023  12.852
 6124TIP3    H239864   5.282   6.124  12.840
 6125TIP3   OH239865   4.193   6.142  12.882
 6125TIP3    H139866   4.247   6.201  12.935
 6125TIP3    H239867   4.252   6.109  12.815
 6126TIP3   OH239868   4.315   6.977  13.191
 6126TIP3    H139869   4.323   7.072  13.176
 6126TIP3    H239870   4.225   6.965  13.220
 6127TIP3   OH239871   3.875   6.958  12.256
 6127TIP3    H139872   3.882   6.981  12.163
 6127TIP3    H239873   3.956   6.993  12.295
 6128TIP3   OH239874   5.255   7.134  12.936
 6128TIP3    H139875   5.171   7.144  12.981
 6128TIP3    H239876   5.265   7.216  12.886
 6129TIP3   OH239877   5.299   5.913  13.119
 6129TIP3    H139878   5.231   5.935  13.056
 6129TIP3    H239879   5.380   5.941  13.077
 6130TIP3   OH239880   4.571   5.682  12.847
 6130TIP3    H139881   4.546   5.590  12.855
 6130TIP3    H239882   4.497   5.731  12.885
 6131TIP3   OH239883   5.107   7.225  12.609
 6131TIP3    H139884   5.156   7.175  12.544
 6131TIP3    H239885   5.173   7.261  12.667
 6132TIP3   OH239886   5.239   7.011  12.481
 6132TIP3    H139887   5.241   6.974  12.393
 6132TIP3    H239888   5.329   7.040  12.497
 6133TIP3   OH239889   5.348   6.903  13.321
 6133TIP3    H139890   5.357   6.847  13.243
 6133TIP3    H239891   5.360   6.992  13.287
 6134TIP3   OH239892   4.828   6.631  12.332
 6134TIP3    H139893   4.753   6.682  12.303
 6134TIP3    H239894   4.881   6.620  12.253
 6135TIP3   OH239895   4.850   6.459  11.981
 6135TIP3    H139896   4.910   6.486  12.051
 6135TIP3    H239897   4.904   6.404  11.924
 6136TIP3   OH239898   5.531   6.544  13.135
 6136TIP3    H139899   5.469   6.617  13.134
 6136TIP3    H239900   5.601   6.572  13.075
 6137TIP3   OH239901   5.175   6.631  12.391
 6137TIP3    H139902   5.111   6.650  12.459
 6137TIP3    H239903   5.241   6.576  12.434
 6138TIP3   OH239904   5.132   6.490  13.279
 6138TIP3    H139905   5.137   6.585  13.291
 6138TIP3    H239906   5.057   6.477  13.220
 6139TIP3   OH239907   4.316   6.656  12.586
 6139TIP3    H139908   4.288   6.620  12.502
 6139TIP3    H239909   4.373   6.590  12.624
 6140TIP3   OH239910   4.475   6.957  12.829
 6140TIP3    H139911   4.477   6.966  12.734
 6140TIP3    H239912   4.557   6.912  12.851
 6141TIP3   OH239913   4.349   6.558  12.955
 6141TIP3    H139914   4.398   6.542  12.875
 6141TIP3    H239915   4.394   6.633  12.996
 6142TIP3   OH239916   5.027   7.113  13.086
 6142TIP3    H139917   5.010   7.143  13.176
 6142TIP3    H239918   4.975   7.033  13.078
 6143TIP3   OH239919   4.460   6.974  13.426
 6143TIP3    H139920   4.396   7.031  13.468
 6143TIP3    H239921   4.421   6.952  13.341
 6144TIP3   OH239922   5.046   6.549  12.161
 6144TIP3    H139923   5.093   6.583  12.238
 6144TIP3    H239924   5.103   6.572  12.087
 6145TIP3   OH239925   4.135   6.602  13.368
 6145TIP3    H139926   4.143   6.677  13.427
 6145TIP3    H239927   4.041   6.590  13.357
 6146TIP3   OH239928   4.833   7.206  12.532
 6146TIP3    H139929   4.915   7.236  12.569
 6146TIP3    H239930   4.783   7.286  12.515
 6147TIP3   OH239931   4.262   7.161  13.486
 6147TIP3    H139932   4.252   7.200  13.399
 6147TIP3    H239933   4.174   7.157  13.522
 6148TIP3   OH239934   5.423   5.695  12.154
 6148TIP3    H139935   5.337   5.717  12.188
 6148TIP3    H239936   5.457   5.777  12.118
 6149TIP3   OH239937   4.237   6.569  12.327
 6149TIP3    H139938   4.176   6.631  12.288
 6149TIP3    H239939   4.195   6.484  12.316
 6150TIP3   OH239940   5.564   7.169  12.026
 6150TIP3    H139941   5.575   7.248  11.972
 6150TIP3    H239942   5.649   7.127  12.025
 6151TIP3   OH239943   3.838   6.832  13.244
 6151TIP3    H139944   3.784   6.846  13.166
 6151TIP3    H239945   3.846   6.737  13.251
 6152TIP3   OH239946   3.862   7.160  12.908
 6152TIP3    H139947   3.933   7.107  12.943
 6152TIP3    H239948   3.799   7.166  12.980
 6153TIP3   OH239949   5.618   7.152  13.565
 6153TIP3    H139950   5.610   7.058  13.549
 6153TIP3    H239951   5.529   7.185  13.553
 6154TIP3   OH239952   4.696   7.114  13.400
 6154TIP3    H139953   4.679   7.190  13.455
 6154TIP3    H239954   4.617   7.061  13.407
 6155TIP3   OH239955   5.342   6.275  13.491
 6155TIP3    H139956   5.357   6.267  13.397
 6155TIP3    H239957   5.346   6.185  13.524
 6156TIP3   OH239958   4.064   6.977  13.310
 6156TIP3    H139959   4.088   6.941  13.396
 6156TIP3    H239960   3.984   6.929  13.286
 6157TIP3   OH239961   4.340   5.800  12.955
 6157TIP3    H139962   4.270   5.777  12.894
 6157TIP3    H239963   4.301   5.867  13.011
 6158TIP3   OH239964   4.768   5.753  13.275
 6158TIP3    H139965   4.813   5.710  13.348
 6158TIP3    H239966   4.675   5.749  13.300
 6159TIP3   OH239967   5.076   6.185  13.369
 6159TIP3    H139968   5.015   6.139  13.427
 6159TIP3    H239969   5.044   6.166  13.280
 6160TIP3   OH239970   5.217   6.603  11.959
 6160TIP3    H139971   5.182   6.603  11.870
 6160TIP3    H239972   5.309   6.628  11.949
 6161TIP3   OH239973   4.750   5.987  12.020
 6161TIP3    H139974   4.686   6.000  12.090
 6161TIP3    H239975   4.708   5.925  11.960
 6162TIP3   OH239976   4.327   6.308  13.066
 6162TIP3    H139977   4.254   6.307  13.128
 6162TIP3    H239978   4.327   6.397  13.031
 6163TIP3   OH239979   4.323   6.314  12.555
 6163TIP3    H139980   4.228   6.303  12.554
 6163TIP3    H239981   4.350   6.301  12.465
 6164TIP3   OH239982   4.871   6.373  12.441
 6164TIP3    H139983   4.848   6.459  12.404
 6164TIP3    H239984   4.933   6.337  12.378
 6165TIP3   OH239985   4.834   6.353  13.547
 6165TIP3    H139986   4.776   6.285  13.581
 6165TIP3    H239987   4.860   6.403  13.624
 6166TIP3   OH239988   4.971   6.282  12.683
 6166TIP3    H139989   4.925   6.327  12.612
 6166TIP3    H239990   5.024   6.216  12.639
 6167TIP3   OH239991   4.098   6.314  13.222
 6167TIP3    H139992   4.073   6.363  13.300
 6167TIP3    H239993   4.057   6.228  13.234
 6168TIP3   OH239994   4.441   6.061  11.922
 6168TIP3    H139995   4.399   6.049  12.007
 6168TIP3    H239996   4.382   6.121  11.875
 6169TIP3   OH239997   3.766   6.041  12.595
 6169TIP3    H139998   3.834   6.033  12.662
 6169TIP3    H239999   3.804   6.001  12.517
 6170TIP3   OH240000   3.807   6.100  12.133
 6170TIP3    H140001   3.877   6.139  12.080
 6170TIP3    H240002   3.749   6.174  12.154
 6171TIP3   OH240003   4.904   6.436  13.130
 6171TIP3    H140004   4.940   6.373  13.067
 6171TIP3    H240005   4.848   6.382  13.187
 6172TIP3   OH240006   4.636   6.012  12.628
 6172TIP3    H140007   4.547   6.029  12.659
 6172TIP3    H240008   4.684   5.982  12.706
 6173TIP3   OH240009   4.062   6.236  12.518
 6173TIP3    H140010   3.989   6.271  12.467
 6173TIP3    H240011   4.066   6.144  12.495
 6174TIP3   OH240012   4.392   6.256  12.298
 6174TIP3    H140013   4.487   6.252  12.309
 6174TIP3    H240014   4.379   6.293  12.210
 6175TIP3   OH240015   5.036   5.977  12.989
 6175TIP3    H140016   4.995   5.975  13.076
 6175TIP3    H240017   4.972   5.935  12.932
 6176TIP3   OH240018   4.354   6.344  12.043
 6176TIP3    H140019   4.302   6.315  11.968
 6176TIP3    H240020   4.432   6.384  12.003
 6177TIP3   OH240021   4.139   6.827  13.545
 6177TIP3    H140022   4.202   6.817  13.616
 6177TIP3    H240023   4.054   6.834  13.588
 6178TIP3   OH240024   4.707   6.354  12.828
 6178TIP3    H140025   4.772   6.294  12.793
 6178TIP3    H240026   4.670   6.309  12.904
 6179TIP3   OH240027   4.181   5.958  12.480
 6179TIP3    H140028   4.127   5.885  12.510
 6179TIP3    H240029   4.190   5.944  12.385
 6180TIP3   OH240030   4.596   6.240  13.056
 6180TIP3    H140031   4.505   6.268  13.066
 6180TIP3    H240032   4.636   6.257  13.141
 6181TIP3   OH240033   4.606   6.799  12.251
 6181TIP3    H140034   4.540   6.750  12.203
 6181TIP3    H240035   4.568   6.812  12.338
 6182TIP3   OH240036   5.353   6.752  13.089
 6182TIP3    H140037   5.416   6.805  13.041
 6182TIP3    H240038   5.287   6.727  13.024
 6183TIP3   OH240039   5.001   6.051  12.100
 6183TIP3    H140040   4.913   6.036  12.068
 6183TIP3    H240041   5.003   6.144  12.123
 6184TIP3   OH240042   4.849   6.870  13.403
 6184TIP3    H140043   4.826   6.827  13.485
 6184TIP3    H240044   4.804   6.955  13.407
 6185TIP3   OH240045   5.065   6.287  12.256
 6185TIP3    H140046   5.156   6.266  12.278
 6185TIP3    H240047   5.071   6.372  12.211
 6186TIP3   OH240048   4.139   6.708  12.795
 6186TIP3    H140049   4.201   6.694  12.723
 6186TIP3    H240050   4.169   6.649  12.864
 6187TIP3   OH240051   4.820   6.941  12.157
 6187TIP3    H140052   4.795   7.033  12.164
 6187TIP3    H240053   4.741   6.892  12.182
 6188TIP3   OH240054   3.862   6.553  13.332
 6188TIP3    H140055   3.828   6.506  13.409
 6188TIP3    H240056   3.793   6.544  13.266
 6189TIP3   OH240057   4.573   6.533  13.565
 6189TIP3    H140058   4.496   6.505  13.516
 6189TIP3    H240059   4.647   6.501  13.513
 6190TIP3   OH240060   4.970   7.161  13.360
 6190TIP3    H140061   4.874   7.158  13.358
 6190TIP3    H240062   4.992   7.145  13.452
 6191TIP3   OH240063   5.539   6.325  12.180
 6191TIP3    H140064   5.504   6.305  12.093
 6191TIP3    H240065   5.565   6.417  12.175
 6192TIP3   OH240066   5.579   6.883  13.480
 6192TIP3    H140067   5.491   6.898  13.445
 6192TIP3    H240068   5.635   6.875  13.402
 6193TIP3   OH240069   5.379   7.133  12.229
 6193TIP3    H140070   5.342   7.048  12.205
 6193TIP3    H240071   5.454   7.144  12.171
 6194TIP3   OH240072   5.137   6.660  12.914
 6194TIP3    H140073   5.042   6.645  12.911
 6194TIP3    H240074   5.174   6.584  12.870
 6195TIP3   OH240075   4.370   7.080  12.574
 6195TIP3    H140076   4.371   7.155  12.515
 6195TIP3    H240077   4.293   7.094  12.629
 6196TIP3   OH240078   3.969   6.528  12.040
 6196TIP3    H140079   4.018   6.594  12.089
 6196TIP3    H240080   3.879   6.538  12.070
 6197TIP3   OH240081   4.488   6.850  12.489
 6197TIP3    H140082   4.450   6.934  12.512
 6197TIP3    H240083   4.427   6.785  12.526
 6198TIP3   OH240084   4.616   7.228  13.147
 6198TIP3    H140085   4.597   7.313  13.186
 6198TIP3    H240086   4.659   7.178  13.217
 6199TIP3   OH240087   4.326  -0.025  12.424
 6199TIP3    H140088   4.241   0.006  12.454
 6199TIP3    H240089   4.389   0.021  12.480
 6200TIP3   OH240090   4.907   6.860  13.128
 6200TIP3    H140091   4.876   6.862  13.219
 6200TIP3    H240092   4.987   6.807  13.131
 6201TIP3   OH240093   5.198   6.978  12.026
 6201TIP3    H140094   5.207   6.923  12.104
 6201TIP3    H240095   5.114   6.951  11.988
 6202TIP3   OH240096   5.190   7.322  13.327
 6202TIP3    H140097   5.110   7.270  13.336
 6202TIP3    H240098   5.160   7.409  13.303
 6203TIP3   OH240099   3.963   6.074  13.269
 6203TIP3    H140100   3.877   6.114  13.257
 6203TIP3    H240101   3.944   5.987  13.304
 6204TIP3   OH240102   5.283   6.848  12.257
 6204TIP3    H140103   5.236   6.773  12.292
 6204TIP3    H240104   5.375   6.824  12.262
 6205TIP3   OH240105   4.034   7.238  13.167
 6205TIP3    H140106   4.011   7.166  13.224
 6205TIP3    H240107   3.959   7.298  13.171
 6206TIP3   OH240108   4.569   7.047  11.878
 6206TIP3    H140109   4.569   6.968  11.824
 6206TIP3    H240110   4.531   7.019  11.961
 6207TIP3   OH240111   4.451   7.021  12.127
 6207TIP3    H140112   4.499   6.966  12.189
 6207TIP3    H240113   4.466   7.110  12.158
 6208TIP3   OH240114   4.070   6.744  12.190
 6208TIP3    H140115   3.988   6.785  12.217
 6208TIP3    H240116   4.117   6.812  12.143
 6209TIP3   OH240117   4.901   5.987  13.243
 6209TIP3    H140118   4.907   5.994  13.338
 6209TIP3    H240119   4.851   5.907  13.228
 6210TIP3   OH240120   5.013   5.958  12.358
 6210TIP3    H140121   5.014   5.995  12.270
 6210TIP3    H240122   5.053   6.025  12.413
 6211TIP3   OH240123   4.748   7.203  12.192
 6211TIP3    H140124   4.662   7.241  12.209
 6211TIP3    H240125   4.768   7.227  12.101
 6212TIP3   OH240126   4.651   6.200  12.415
 6212TIP3    H140127   4.723   6.261  12.428
 6212TIP3    H240128   4.648   6.148  12.495
 6213TIP3   OH240129   4.766   6.257  13.285
 6213TIP3    H140130   4.782   6.283  13.376
 6213TIP3    H240131   4.783   6.163  13.284
 6214TIP3   OH240132   4.768   5.861  12.421
 6214TIP3    H140133   4.738   5.909  12.498
 6214TIP3    H240134   4.856   5.895  12.404
 6215TIP3   OH240135   4.482   7.285  12.200
 6215TIP3    H140136   4.451   7.348  12.135
 6215TIP3    H240137   4.426   7.299  12.276
 6216TIP3   OH240138   4.329   6.005  12.176
 6216TIP3    H140139   4.314   6.090  12.218
 6216TIP3    H240140   4.418   5.981  12.201
 6217TIP3   OH240141   5.307   6.012  13.381
 6217TIP3    H140142   5.224   6.060  13.382
 6217TIP3    H240143   5.310   5.972  13.294
 6218TIP3   OH240144   5.209   6.421  12.781
 6218TIP3    H140145   5.130   6.371  12.760
 6218TIP3    H240146   5.259   6.363  12.839
 6219TIP3   OH240147   4.189   6.955  12.051
 6219TIP3    H140148   4.268   6.995  12.087
 6219TIP3    H240149   4.221   6.901  11.979
 6220TIP3   OH240150   3.958   6.260  11.974
 6220TIP3    H140151   3.971   6.352  11.995
 6220TIP3    H240152   3.911   6.261  11.890
 6221TIP3   OH240153   4.121   5.741  12.812
 6221TIP3    H140154   4.086   5.743  12.723
 6221TIP3    H240155   4.044   5.742  12.868
 6222TIP3   OH240156   3.906   7.141  12.497
 6222TIP3    H140157   3.898   7.177  12.586
 6222TIP3    H240158   3.941   7.214  12.445
 6223TIP3   OH240159   4.392   7.264  13.704
 6223TIP3    H140160   4.448   7.196  13.742
 6223TIP3    H240161   4.337   7.217  13.642
 6224TIP3   OH240162   4.778   7.225  11.923
 6224TIP3    H140163   4.708   7.168  11.894
 6224TIP3    H240164   4.850   7.208  11.863
 6225TIP3   OH240165   5.003   7.138  13.634
 6225TIP3    H140166   4.963   7.058  13.670
 6225TIP3    H240167   5.082   7.150  13.686
 6226TIP3   OH240168   5.224   7.232  11.916
 6226TIP3    H140169   5.232   7.153  11.968
 6226TIP3    H240170   5.293   7.224  11.850
 6227TIP3   OH240171   3.888   6.829  13.666
 6227TIP3    H140172   3.899   6.734  13.665
 6227TIP3    H240173   3.810   6.844  13.612
 6228TIP3   OH240174   4.315   6.785  11.881
 6228TIP3    H140175   4.344   6.734  11.957
 6228TIP3    H240176   4.394   6.795  11.827
 6229TIP3   OH240177   4.557   6.809  13.625
 6229TIP3    H140178   4.527   6.852  13.545
 6229TIP3    H240179   4.569   6.717  13.599
 6230TIP3   OH240180   4.955   6.911  11.918
 6230TIP3    H140181   4.899   6.914  11.995
 6230TIP3    H240182   4.930   6.829  11.874
 6231TIP3   OH240183   5.108   6.762  13.354
 6231TIP3    H140184   5.181   6.824  13.350
 6231TIP3    H240185   5.032   6.816  13.377
 6232TIP3   OH240186   3.974   6.567  13.661
 6232TIP3    H140187   4.029   6.496  13.629
 6232TIP3    H240188   3.975   6.558  13.756
 6233TIP3   OH240189   4.416   6.654  12.114
 6233TIP3    H140190   4.361   6.606  12.175
 6233TIP3    H240191   4.464   6.586  12.066
 6234TIP3   OH240192   4.374   6.452  13.385
 6234TIP3    H140193   4.293   6.501  13.374
 6234TIP3    H240194   4.433   6.488  13.319
 6235TIP3   OH240195   4.573   6.487  11.958
 6235TIP3    H140196   4.567   6.510  11.865
 6235TIP3    H240197   4.666   6.469  11.972
 6236TIP3   OH240198   4.902   6.656  13.730
 6236TIP3    H140199   4.991   6.657  13.764
 6236TIP3    H240200   4.859   6.584  13.777
 6237TIP3   OH240201   5.476   6.672  11.876
 6237TIP3    H140202   5.464   6.662  11.782
 6237TIP3    H240203   5.475   6.766  11.891
 6238TIP3   OH240204   4.442   6.192  13.451
 6238TIP3    H140205   4.438   6.133  13.376
 6238TIP3    H240206   4.415   6.277  13.416
 6239TIP3   OH240207   4.448   6.028  13.221
 6239TIP3    H140208   4.495   6.065  13.147
 6239TIP3    H240209   4.358   6.018  13.190
 6240TIP3   OH240210   4.578   6.556  13.232
 6240TIP3    H140211   4.667   6.550  13.197
 6240TIP3    H240212   4.539   6.631  13.188
 6241TIP3   OH240213   5.111   6.317  13.711
 6241TIP3    H140214   5.060   6.255  13.763
 6241TIP3    H240215   5.191   6.331  13.761
 6242TIP3   OH240216   5.198   6.590  13.554
 6242TIP3    H140217   5.160   6.659  13.500
 6242TIP3    H240218   5.293   6.606  13.550
 6243TIP3   OH240219   4.269   6.230  13.676
 6243TIP3    H140220   4.191   6.175  13.667
 6243TIP3    H240221   4.313   6.223  13.592
 6244TIP3   OH240222   4.493   5.760  13.301
 6244TIP3    H140223   4.473   5.851  13.277
 6244TIP3    H240224   4.426   5.708  13.258
 6245TIP3   OH240225   4.657   6.154  13.621
 6245TIP3    H140226   4.613   6.122  13.700
 6245TIP3    H240227   4.586   6.164  13.557
 6246TIP3   OH240228   4.896   6.043  13.513
 6246TIP3    H140229   4.814   6.061  13.559
 6246TIP3    H240230   4.954   6.008  13.581
 6247TIP3   OH240231   5.086   5.960  13.700
 6247TIP3    H140232   5.090   5.865  13.694
 6247TIP3    H240233   5.049   5.977  13.787
 6248TIP3   OH240234   4.071   6.038  13.653
 6248TIP3    H140235   4.062   5.963  13.594
 6248TIP3    H240236   4.078   5.998  13.740
 6249TIP3   OH240237   4.503   5.675  13.563
 6249TIP3    H140238   4.557   5.596  13.551
 6249TIP3    H240239   4.490   5.708  13.474
 6250TIP3   OH240240   4.595   5.836  13.767
 6250TIP3    H140241   4.567   5.781  13.695
 6250TIP3    H240242   4.535   5.911  13.764
 6251TIP3   OH240243   3.929   7.024  11.993
 6251TIP3    H140244   4.023   7.009  12.003
 6251TIP3    H240245   3.902   6.963  11.924
 6252TIP3   OH240246   3.851  -0.005  12.700
 6252TIP3    H140247   3.847  -0.071  12.770
 6252TIP3    H240248   3.856   0.079  12.747
 6253TIP3   OH240249   5.402   6.949  13.799
 6253TIP3    H140250   5.313   6.956  13.835
 6253TIP3    H240251   5.446   7.028  13.831
 6254TIP3   OH240252   5.537   6.758  12.304
 6254TIP3    H140253   5.613   6.817  12.298
 6254TIP3    H240254   5.561   6.696  12.374
 6255TIP3   OH240255   5.600   6.565  12.492
 6255TIP3    H140256   5.516   6.534  12.526
 6255TIP3    H240257   5.654   6.577  12.570
 6256TIP3   OH240258   5.579   6.881  12.992
 6256TIP3    H140259   5.633   6.807  12.963
 6256TIP3    H240260   5.625   6.958  12.959
 6257TIP3   OH240261   5.367   7.150  13.202
 6257TIP3    H140262   5.298   7.209  13.233
 6257TIP3    H240263   5.351   7.143  13.107
 6258TIP3   OH240264   5.604   6.581  12.103
 6258TIP3    H140265   5.560   6.609  12.023
 6258TIP3    H240266   5.580   6.646  12.169
 6259TIP3   OH240267   5.483   6.312  11.906
 6259TIP3    H140268   5.421   6.370  11.863
 6259TIP3    H240269   5.446   6.224  11.895
 6260TIP3   OH240270   5.339   6.458  12.535
 6260TIP3    H140271   5.344   6.370  12.497
 6260TIP3    H240272   5.303   6.444  12.622
 6261TIP3   OH240273   3.830   6.640  12.953
 6261TIP3    H140274   3.837   6.613  12.861
 6261TIP3    H240275   3.915   6.615  12.991
 6262TIP3   OH240276   5.467   6.630  13.539
 6262TIP3    H140277   5.526   6.555  13.534
 6262TIP3    H240278   5.519   6.704  13.505
 6263TIP3   OH240279   5.582   6.383  13.568
 6263TIP3    H140280   5.498   6.344  13.544
 6263TIP3    H240281   5.645   6.311  13.563
 6264TIP3   OH240282   5.355   6.075  11.883
 6264TIP3    H140283   5.404   6.009  11.933
 6264TIP3    H240284   5.270   6.033  11.866
 6265TIP3   OH240285   5.346   6.214  12.361
 6265TIP3    H140286   5.372   6.122  12.365
 6265TIP3    H240287   5.410   6.256  12.303
 6266TIP3   OH240288   5.362   6.253  12.946
 6266TIP3    H140289   5.455   6.261  12.926
 6266TIP3    H240290   5.356   6.268  13.041
 6267TIP3   OH240291   5.371   6.345  13.221
 6267TIP3    H140292   5.288   6.393  13.231
 6267TIP3    H240293   5.434   6.411  13.193
 6268TIP3   OH240294   3.846   6.192  13.627
 6268TIP3    H140295   3.930   6.147  13.631
 6268TIP3    H240296   3.783   6.124  13.604
 6269TIP3   OH240297   5.624   5.766  13.709
 6269TIP3    H140298   5.685   5.694  13.690
 6269TIP3    H240299   5.625   5.820  13.630
 6270TIP3   OH240300   5.399   5.940  12.385
 6270TIP3    H140301   5.417   5.901  12.470
 6270TIP3    H240302   5.336   5.881  12.343
 6271TIP3   OH240303   3.950   6.009  12.796
 6271TIP3    H140304   3.918   5.943  12.857
 6271TIP3    H240305   4.034   6.037  12.833
 6272TIP3   OH240306   3.747   6.305  12.920
 6272TIP3    H140307   3.810   6.286  12.849
 6272TIP3    H240308   3.801   6.340  12.991
 6273TIP3   OH240309   5.544   5.911  13.485
 6273TIP3    H140310   5.462   5.956  13.466
 6273TIP3    H240311   5.548   5.841  13.419
 6274TIP3   OH240312   5.534   5.916  12.031
 6274TIP3    H140313   5.578   5.860  11.967
 6274TIP3    H240314   5.601   5.979  12.058
 6275TIP3   OH240315   3.796   5.923  12.337
 6275TIP3    H140316   3.701   5.909  12.346
 6275TIP3    H240317   3.804   5.989  12.269
 6276TIP3   OH240318   3.797   5.838  13.308
 6276TIP3    H140319   3.715   5.789  13.316
 6276TIP3    H240320   3.820   5.832  13.216
 6277TIP3   OH240321   4.012   7.168  13.597
 6277TIP3    H140322   3.925   7.177  13.558
 6277TIP3    H240323   3.995   7.142  13.688
 6278TIP3   OH240324   4.302   7.269  13.187
 6278TIP3    H140325   4.207   7.268  13.178
 6278TIP3    H240326   4.335   7.279  13.098
 6279TIP3   OH240327   5.487   5.690  13.320
 6279TIP3    H140328   5.400   5.679  13.282
 6279TIP3    H240329   5.524   5.602  13.321
 6280TIP3   OH240330   4.201   7.251  12.784
 6280TIP3    H140331   4.179   7.161  12.805
 6280TIP3    H240332   4.288   7.264  12.823
 6281TIP3   OH240333   4.446   7.209  12.936
 6281TIP3    H140334   4.454   7.122  12.897
 6281TIP3    H240335   4.510   7.209  13.007
 6282TIP3   OH240336   4.807   5.867  12.809
 6282TIP3    H140337   4.743   5.797  12.822
 6282TIP3    H240338   4.880   5.824  12.765
 6283TIP3   OH240339   5.291   5.737  12.824
 6283TIP3    H140340   5.351   5.781  12.763
 6283TIP3    H240341   5.204   5.754  12.787
 6284TIP3   OH240342   5.470   5.807  12.624
 6284TIP3    H140343   5.536   5.743  12.598
 6284TIP3    H240344   5.519   5.888  12.637
 6285TIP3   OH240345   4.039   5.730  12.544
 6285TIP3    H140346   3.944   5.723  12.537
 6285TIP3    H240347   4.072   5.642  12.527
 6286TIP3   OH240348   3.977   5.752  12.199
 6286TIP3    H140349   4.012   5.809  12.131
 6286TIP3    H240350   3.918   5.808  12.250
 6287TIP3   OH240351   4.528   5.725  12.558
 6287TIP3    H140352   4.521   5.820  12.552
 6287TIP3    H240353   4.550   5.708  12.649
 6288TIP3   OH240354   5.033   5.738  12.705
 6288TIP3    H140355   5.068   5.720  12.618
 6288TIP3    H240356   5.008   5.652  12.739
 6289TIP3   OH240357   5.198   5.764  12.295
 6289TIP3    H140358   5.129   5.828  12.312
 6289TIP3    H240359   5.156   5.679  12.305
 6290TIP3   OH240360   3.824  -0.032  12.292
 6290TIP3    H140361   3.879  -0.009  12.217
 6290TIP3    H240362   3.786   0.052  12.320
 6291TIP3   OH240363   4.131   5.898  12.006
 6291TIP3    H140364   4.177   5.839  11.945
 6291TIP3    H240365   4.200   5.930  12.064
 6292TIP3   OH240366   4.593   5.990  12.250
 6292TIP3    H140367   4.647   5.924  12.292
 6292TIP3    H240368   4.610   6.070  12.300
 6293TIP3   OH240369   4.058   5.792  13.525
 6293TIP3    H140370   4.000   5.718  13.542
 6293TIP3    H240371   4.138   5.770  13.573
 6294TIP3   OH240372   4.262   5.719  13.701
 6294TIP3    H140373   4.344   5.693  13.661
 6294TIP3    H240374   4.225   5.638  13.736
 6295TIP3   OH240375   5.108   5.686  13.684
 6295TIP3    H140376   5.094   5.639  13.767
 6295TIP3    H240377   5.201   5.674  13.665
 6296TIP3   OH240378   5.367   7.275  13.547
 6296TIP3    H140379   5.306   7.283  13.474
 6296TIP3    H240380   5.389   7.366  13.570
 6297TIP3   OH240381   6.827   6.664  12.543
 6297TIP3    H140382   6.814   6.759  12.540
 6297TIP3    H240383   6.767   6.630  12.477
 6298TIP3   OH240384   6.702   6.589  12.933
 6298TIP3    H140385   6.736   6.547  13.012
 6298TIP3    H240386   6.661   6.517  12.884
 6299TIP3   OH240387   5.939   6.533  13.060
 6299TIP3    H140388   5.941   6.467  13.129
 6299TIP3    H240389   6.030   6.549  13.038
 6300TIP3   OH240390   7.102   6.887  12.772
 6300TIP3    H140391   7.056   6.815  12.816
 6300TIP3    H240392   7.133   6.942  12.844
 6301TIP3   OH240393   6.043   6.973  12.839
 6301TIP3    H140394   6.013   6.887  12.810
 6301TIP3    H240395   6.136   6.961  12.857
 6302TIP3   OH240396   5.734   6.335  12.394
 6302TIP3    H140397   5.705   6.419  12.430
 6302TIP3    H240398   5.668   6.314  12.328
 6303TIP3   OH240399   5.781   6.575  12.703
 6303TIP3    H140400   5.811   6.487  12.724
 6303TIP3    H240401   5.859   6.630  12.709
 6304TIP3   OH240402   6.561   6.830  12.951
 6304TIP3    H140403   6.600   6.747  12.923
 6304TIP3    H240404   6.632   6.875  12.998
 6305TIP3   OH240405   6.880   6.260  12.949
 6305TIP3    H140406   6.890   6.166  12.963
 6305TIP3    H240407   6.863   6.269  12.855
 6306TIP3   OH240408   6.223   6.056  12.692
 6306TIP3    H140409   6.237   6.142  12.654
 6306TIP3    H240410   6.174   6.008  12.625
 6307TIP3   OH240411   6.978   6.103  12.533
 6307TIP3    H140412   7.021   6.057  12.605
 6307TIP3    H240413   7.051   6.133  12.478
 6308TIP3   OH240414   5.870   6.324  12.774
 6308TIP3    H140415   5.937   6.288  12.832
 6308TIP3    H240416   5.891   6.288  12.688
 6309TIP3   OH240417   6.345   6.467  12.740
 6309TIP3    H140418   6.432   6.434  12.764
 6309TIP3    H240419   6.310   6.401  12.681
 6310TIP3   OH240420   5.969   5.956  13.078
 6310TIP3    H140421   6.010   6.025  13.027
 6310TIP3    H240422   5.948   5.996  13.162
 6311TIP3   OH240423   6.762   6.915  12.452
 6311TIP3    H140424   6.787   6.929  12.361
 6311TIP3    H240425   6.739   7.002  12.485
 6312TIP3   OH240426   6.346   6.748  13.105
 6312TIP3    H140427   6.293   6.823  13.132
 6312TIP3    H240428   6.419   6.786  13.056
 6313TIP3   OH240429   7.075   6.005  12.767
 6313TIP3    H140430   7.009   5.992  12.835
 6313TIP3    H240431   7.149   6.044  12.813
 6314TIP3   OH240432   6.064   6.152  12.903
 6314TIP3    H140433   6.119   6.207  12.958
 6314TIP3    H240434   6.123   6.120  12.834
 6315TIP3   OH240435   6.195   6.965  13.195
 6315TIP3    H140436   6.199   7.059  13.182
 6315TIP3    H240437   6.106   6.949  13.226
 6316TIP3   OH240438   5.758   6.912  12.267
 6316TIP3    H140439   5.761   6.957  12.182
 6316TIP3    H240440   5.796   6.974  12.329
 6317TIP3   OH240441   7.156   7.074  12.974
 6317TIP3    H140442   7.069   7.109  12.993
 6317TIP3    H240443   7.199   7.144  12.925
 6318TIP3   OH240444   7.138   5.884  13.053
 6318TIP3    H140445   7.047   5.908  13.035
 6318TIP3    H240446   7.189   5.961  13.028
 6319TIP3   OH240447   6.462   5.668  12.858
 6319TIP3    H140448   6.441   5.575  12.859
 6319TIP3    H240449   6.384   5.711  12.894
 6320TIP3   OH240450   6.977   7.273  12.565
 6320TIP3    H140451   7.011   7.183  12.561
 6320TIP3    H240452   7.006   7.313  12.483
 6321TIP3   OH240453   7.084   7.026  12.534
 6321TIP3    H140454   7.111   6.970  12.461
 6321TIP3    H240455   7.093   6.970  12.612
 6322TIP3   OH240456   7.233   6.824  13.345
 6322TIP3    H140457   7.225   6.777  13.262
 6322TIP3    H240458   7.257   6.913  13.320
 6323TIP3   OH240459   6.693   6.596  12.307
 6323TIP3    H140460   6.637   6.669  12.281
 6323TIP3    H240461   6.765   6.597  12.244
 6324TIP3   OH240462   6.743   6.457  11.972
 6324TIP3    H140463   6.797   6.481  12.046
 6324TIP3    H240464   6.799   6.401  11.918
 6325TIP3   OH240465   7.058   6.625  12.396
 6325TIP3    H140466   6.988   6.643  12.459
 6325TIP3    H240467   7.113   6.560  12.440
 6326TIP3   OH240468   7.005   6.413  13.336
 6326TIP3    H140469   6.995   6.482  13.401
 6326TIP3    H240470   6.942   6.434  13.268
 6327TIP3   OH240471   6.215   6.659  12.577
 6327TIP3    H140472   6.197   6.621  12.491
 6327TIP3    H240473   6.271   6.595  12.620
 6328TIP3   OH240474   6.330   6.942  12.833
 6328TIP3    H140475   6.346   6.972  12.743
 6328TIP3    H240476   6.410   6.898  12.859
 6329TIP3   OH240477   6.198   6.574  12.949
 6329TIP3    H140478   6.255   6.551  12.876
 6329TIP3    H240479   6.250   6.636  13.001
 6330TIP3   OH240480   6.904   7.122  13.084
 6330TIP3    H140481   6.906   7.133  13.179
 6330TIP3    H240482   6.860   7.038  13.071
 6331TIP3   OH240483   6.355   6.990  13.419
 6331TIP3    H140484   6.289   7.045  13.460
 6331TIP3    H240485   6.314   6.957  13.339
 6332TIP3   OH240486   6.932   6.541  12.167
 6332TIP3    H140487   6.979   6.577  12.242
 6332TIP3    H240488   6.981   6.570  12.091
 6333TIP3   OH240489   6.049   6.635  13.374
 6333TIP3    H140490   6.054   6.707  13.437
 6333TIP3    H240491   5.956   6.621  13.360
 6334TIP3   OH240492   6.705   7.183  12.492
 6334TIP3    H140493   6.786   7.224  12.523
 6334TIP3    H240494   6.698   7.211  12.400
 6335TIP3   OH240495   6.155   7.173  13.477
 6335TIP3    H140496   6.161   7.207  13.388
 6335TIP3    H240497   6.062   7.175  13.498
 6336TIP3   OH240498   7.242   5.783  12.058
 6336TIP3    H140499   7.184   5.760  12.131
 6336TIP3    H240500   7.329   5.758  12.088
 6337TIP3   OH240501   6.145   6.571  12.319
 6337TIP3    H140502   6.087   6.638  12.283
 6337TIP3    H240503   6.104   6.488  12.297
 6338TIP3   OH240504   5.724   6.826  13.257
 6338TIP3    H140505   5.686   6.824  13.169
 6338TIP3    H240506   5.739   6.733  13.278
 6339TIP3   OH240507   5.772   7.082  12.899
 6339TIP3    H140508   5.855   7.043  12.872
 6339TIP3    H240509   5.793   7.129  12.980
 6340TIP3   OH240510   6.613   7.080  13.416
 6340TIP3    H140511   6.632   7.097  13.508
 6340TIP3    H240512   6.522   7.052  13.415
 6341TIP3   OH240513   7.183   6.321  13.564
 6341TIP3    H140514   7.160   6.364  13.482
 6341TIP3    H240515   7.259   6.267  13.543
 6342TIP3   OH240516   5.947   6.980  13.319
 6342TIP3    H140517   5.971   6.947  13.405
 6342TIP3    H240518   5.868   6.931  13.295
 6343TIP3   OH240519   6.235   5.802  12.958
 6343TIP3    H140520   6.207   5.858  12.885
 6343TIP3    H240521   6.260   5.864  13.026
 6344TIP3   OH240522   6.690   5.773  13.296
 6344TIP3    H140523   6.742   5.723  13.359
 6344TIP3    H240524   6.599   5.753  13.318
 6345TIP3   OH240525   6.993   6.131  13.364
 6345TIP3    H140526   6.930   6.120  13.435
 6345TIP3    H240527   7.001   6.226  13.355
 6346TIP3   OH240528   7.063   6.635  11.953
 6346TIP3    H140529   7.065   6.632  11.857
 6346TIP3    H240530   7.057   6.728  11.974
 6347TIP3   OH240531   6.618   6.008  12.011
 6347TIP3    H140532   6.563   6.003  12.089
 6347TIP3    H240533   6.590   5.935  11.957
 6348TIP3   OH240534   6.219   6.321  13.059
 6348TIP3    H140535   6.209   6.345  13.151
 6348TIP3    H240536   6.215   6.405  13.012
 6349TIP3   OH240537   6.215   6.299  12.562
 6349TIP3    H140538   6.120   6.292  12.556
 6349TIP3    H240539   6.245   6.291  12.471
 6350TIP3   OH240540   6.744   6.349  12.419
 6350TIP3    H140541   6.722   6.434  12.382
 6350TIP3    H240542   6.817   6.317  12.365
 6351TIP3   OH240543   6.697   6.367  13.532
 6351TIP3    H140544   6.645   6.299  13.576
 6351TIP3    H240545   6.784   6.360  13.571
 6352TIP3   OH240546   6.839   6.292  12.680
 6352TIP3    H140547   6.805   6.347  12.610
 6352TIP3    H240548   6.882   6.219  12.635
 6353TIP3   OH240549   5.941   6.341  13.257
 6353TIP3    H140550   6.027   6.353  13.297
 6353TIP3    H240551   5.922   6.248  13.269
 6354TIP3   OH240552   6.310   6.043  11.910
 6354TIP3    H140553   6.279   6.043  12.001
 6354TIP3    H240554   6.251   6.104  11.866
 6355TIP3   OH240555   5.632   6.022  12.617
 6355TIP3    H140556   5.697   6.036  12.686
 6355TIP3    H240557   5.683   6.016  12.536
 6356TIP3   OH240558   5.713   6.113  12.120
 6356TIP3    H140559   5.784   6.149  12.067
 6356TIP3    H240560   5.661   6.189  12.146
 6357TIP3   OH240561   6.800   6.433  13.142
 6357TIP3    H140562   6.838   6.376  13.076
 6357TIP3    H240563   6.738   6.378  13.190
 6358TIP3   OH240564   6.518   6.025  12.639
 6358TIP3    H140565   6.430   6.024  12.675
 6358TIP3    H240566   6.573   5.987  12.708
 6359TIP3   OH240567   5.950   6.225  12.530
 6359TIP3    H140568   5.879   6.253  12.473
 6359TIP3    H240569   5.973   6.137  12.499
 6360TIP3   OH240570   6.275   6.252  12.295
 6360TIP3    H140571   6.368   6.241  12.315
 6360TIP3    H240572   6.274   6.291  12.207
 6361TIP3   OH240573   6.877   5.980  12.965
 6361TIP3    H140574   6.839   5.991  13.052
 6361TIP3    H240575   6.807   5.940  12.913
 6362TIP3   OH240576   6.248   6.337  12.034
 6362TIP3    H140577   6.202   6.309  11.954
 6362TIP3    H240578   6.325   6.384  12.002
 6363TIP3   OH240579   6.018   6.843  13.560
 6363TIP3    H140580   6.085   6.828  13.627
 6363TIP3    H240581   5.935   6.844  13.608
 6364TIP3   OH240582   6.585   6.349  12.830
 6364TIP3    H140583   6.659   6.315  12.779
 6364TIP3    H240584   6.567   6.280  12.895
 6365TIP3   OH240585   6.061   5.969  12.472
 6365TIP3    H140586   6.008   5.891  12.488
 6365TIP3    H240587   6.103   5.954  12.388
 6366TIP3   OH240588   6.467   6.190  13.063
 6366TIP3    H140589   6.390   6.247  13.063
 6366TIP3    H240590   6.521   6.222  13.135
 6367TIP3   OH240591   6.517   6.806  12.228
 6367TIP3    H140592   6.448   6.766  12.175
 6367TIP3    H240593   6.475   6.823  12.313
 6368TIP3   OH240594   7.187   6.707  13.102
 6368TIP3    H140595   7.265   6.695  13.049
 6368TIP3    H240596   7.114   6.702  13.039
 6369TIP3   OH240597   6.873   6.044  12.110
 6369TIP3    H140598   6.786   6.051  12.071
 6369TIP3    H240599   6.893   6.133  12.139
 6370TIP3   OH240600   6.667   6.803  13.357
 6370TIP3    H140601   6.717   6.768  13.430
 6370TIP3    H240602   6.653   6.895  13.379
 6371TIP3   OH240603   6.954   6.275  12.248
 6371TIP3    H140604   7.041   6.253  12.282
 6371TIP3    H240605   6.964   6.363  12.212
 6372TIP3   OH240606   6.020   6.703  12.766
 6372TIP3    H140607   6.082   6.700  12.694
 6372TIP3    H240608   6.065   6.660  12.839
 6373TIP3   OH240609   6.747   6.946  12.159
 6373TIP3    H140610   6.722   7.037  12.172
 6373TIP3    H240611   6.668   6.896  12.181
 6374TIP3   OH240612   5.773   6.579  13.385
 6374TIP3    H140613   5.800   6.558  13.474
 6374TIP3    H240614   5.765   6.495  13.341
 6375TIP3   OH240615   6.491   6.553  13.556
 6375TIP3    H140616   6.458   6.552  13.466
 6375TIP3    H240617   6.573   6.502  13.552
 6376TIP3   OH240618   6.886   7.138  13.365
 6376TIP3    H140619   6.791   7.130  13.358
 6376TIP3    H240620   6.903   7.141  13.459
 6377TIP3   OH240621   7.271   7.135  12.173
 6377TIP3    H140622   7.247   7.073  12.242
 6377TIP3    H240623   7.344   7.093  12.127
 6378TIP3   OH240624   6.979   6.673  12.912
 6378TIP3    H140625   6.885   6.661  12.898
 6378TIP3    H240626   7.020   6.603  12.862
 6379TIP3   OH240627   6.349   7.094  12.596
 6379TIP3    H140628   6.426   7.146  12.574
 6379TIP3    H240629   6.276   7.155  12.587
 6380TIP3   OH240630   5.872   6.549  12.036
 6380TIP3    H140631   5.922   6.615  12.083
 6380TIP3    H240632   5.782   6.561  12.065
 6381TIP3   OH240633   6.362   6.860  12.445
 6381TIP3    H140634   6.361   6.940  12.498
 6381TIP3    H240635   6.310   6.797  12.496
 6382TIP3   OH240636   6.498   7.222  13.150
 6382TIP3    H140637   6.556   7.298  13.138
 6382TIP3    H240638   6.547   7.165  13.209
 6383TIP3   OH240639   6.210   0.020  12.407
 6383TIP3    H140640   6.130   0.033  12.459
 6383TIP3    H240641   6.281   0.042  12.467
 6384TIP3   OH240642   6.790   6.869  13.112
 6384TIP3    H140643   6.756   6.835  13.195
 6384TIP3    H240644   6.860   6.808  13.089
 6385TIP3   OH240645   7.021   6.883  12.075
 6385TIP3    H140646   7.068   6.888  12.158
 6385TIP3    H240647   6.933   6.914  12.095
 6386TIP3   OH240648   7.096   7.322  13.296
 6386TIP3    H140649   7.026   7.259  13.316
 6386TIP3    H240650   7.053   7.390  13.245
 6387TIP3   OH240651   5.908   6.073  13.316
 6387TIP3    H140652   5.835   6.070  13.378
 6387TIP3    H240653   5.983   6.041  13.367
 6388TIP3   OH240654   7.166   6.866  12.312
 6388TIP3    H140655   7.134   6.781  12.342
 6388TIP3    H240656   7.261   6.856  12.307
 6389TIP3   OH240657   5.856   7.208  13.128
 6389TIP3    H140658   5.880   7.160  13.207
 6389TIP3    H240659   5.817   7.290  13.161
 6390TIP3   OH240660   6.442   7.064  11.885
 6390TIP3    H140661   6.453   6.981  11.839
 6390TIP3    H240662   6.408   7.040  11.971
 6391TIP3   OH240663   6.326   7.035  12.136
 6391TIP3    H140664   6.376   6.982  12.198
 6391TIP3    H240665   6.346   7.126  12.159
 6392TIP3   OH240666   5.974   6.751  12.194
 6392TIP3    H140667   5.899   6.794  12.236
 6392TIP3    H240668   6.020   6.822  12.149
 6393TIP3   OH240669   6.783   6.020  13.218
 6393TIP3    H140670   6.860   6.040  13.271
 6393TIP3    H240671   6.751   5.936  13.253
 6394TIP3   OH240672   6.856   5.924  12.356
 6394TIP3    H140673   6.864   5.965  12.269
 6394TIP3    H240674   6.896   5.988  12.416
 6395TIP3   OH240675   6.647   7.204  12.207
 6395TIP3    H140676   6.558   7.239  12.216
 6395TIP3    H240677   6.672   7.225  12.117
 6396TIP3   OH240678   6.524   6.186  12.410
 6396TIP3    H140679   6.600   6.244  12.411
 6396TIP3    H240680   6.525   6.143  12.495
 6397TIP3   OH240681   6.638   6.255  13.274
 6397TIP3    H140682   6.653   6.283  13.365
 6397TIP3    H240683   6.683   6.171  13.268
 6398TIP3   OH240684   6.615   5.837  12.451
 6398TIP3    H140685   6.592   5.906  12.513
 6398TIP3    H240686   6.702   5.860  12.420
 6399TIP3   OH240687   6.384   7.297  12.198
 6399TIP3    H140688   6.388   7.368  12.134
 6399TIP3    H240689   6.319   7.327  12.263
 6400TIP3   OH240690   6.210   6.005  12.176
 6400TIP3    H140691   6.209   6.092  12.217
 6400TIP3    H240692   6.296   5.970  12.195
 6401TIP3   OH240693   7.229   5.977  13.374
 6401TIP3    H140694   7.144   6.020  13.359
 6401TIP3    H240695   7.282   6.043  13.418
 6402TIP3   OH240696   7.079   6.440  12.791
 6402TIP3    H140697   7.000   6.390  12.769
 6402TIP3    H240698   7.122   6.388  12.858
 6403TIP3   OH240699   6.065   6.970  12.047
 6403TIP3    H140700   6.140   7.018  12.081
 6403TIP3    H240701   6.100   6.918  11.975
 6404TIP3   OH240702   5.877   6.285  11.962
 6404TIP3    H140703   5.892   6.370  12.001
 6404TIP3    H240704   5.962   6.259  11.925
 6405TIP3   OH240705   5.917   5.758  12.803
 6405TIP3    H140706   5.917   5.770  12.708
 6405TIP3    H240707   5.936   5.665  12.814
 6406TIP3   OH240708   5.882   7.108  12.411
 6406TIP3    H140709   5.834   7.186  12.384
 6406TIP3    H240710   5.974   7.130  12.397
 6407TIP3   OH240711   6.202   7.207  13.748
 6407TIP3    H140712   6.287   7.168  13.768
 6407TIP3    H240713   6.184   7.181  13.658
 6408TIP3   OH240714   6.674   7.217  11.935
 6408TIP3    H140715   6.597   7.169  11.905
 6408TIP3    H240716   6.739   7.204  11.866
 6409TIP3   OH240717   6.890   7.129  13.640
 6409TIP3    H140718   6.852   7.048  13.674
 6409TIP3    H240719   6.975   7.135  13.684
 6410TIP3   OH240720   7.117   7.216  11.871
 6410TIP3    H140721   7.138   7.261  11.953
 6410TIP3    H240722   7.181   7.250  11.808
 6411TIP3   OH240723   5.767   6.824  13.683
 6411TIP3    H140724   5.770   6.729  13.685
 6411TIP3    H240725   5.695   6.844  13.622
 6412TIP3   OH240726   6.187   6.789  11.882
 6412TIP3    H140727   6.218   6.744  11.960
 6412TIP3    H240728   6.265   6.803  11.829
 6413TIP3   OH240729   6.436   6.818  13.623
 6413TIP3    H140730   6.419   6.856  13.537
 6413TIP3    H240731   6.471   6.731  13.605
 6414TIP3   OH240732   6.766   6.927  11.874
 6414TIP3    H140733   6.753   6.925  11.969
 6414TIP3    H240734   6.762   6.835  11.848
 6415TIP3   OH240735   6.966   6.858  13.399
 6415TIP3    H140736   7.060   6.850  13.380
 6415TIP3    H240737   6.944   6.947  13.373
 6416TIP3   OH240738   5.886   6.523  13.633
 6416TIP3    H140739   5.965   6.469  13.628
 6416TIP3    H240740   5.871   6.536  13.727
 6417TIP3   OH240741   6.311   6.664  12.101
 6417TIP3    H140742   6.272   6.617  12.174
 6417TIP3    H240743   6.363   6.598  12.055
 6418TIP3   OH240744   6.211   6.426  13.314
 6418TIP3    H140745   6.156   6.500  13.339
 6418TIP3    H240746   6.298   6.463  13.304
 6419TIP3   OH240747   6.463   6.486  11.948
 6419TIP3    H140748   6.460   6.512  11.856
 6419TIP3    H240749   6.555   6.470  11.966
 6420TIP3   OH240750   6.765   6.668  13.665
 6420TIP3    H140751   6.847   6.641  13.623
 6420TIP3    H240752   6.746   6.598  13.727
 6421TIP3   OH240753   6.305   6.250  13.510
 6421TIP3    H140754   6.266   6.164  13.494
 6421TIP3    H240755   6.277   6.303  13.435
 6422TIP3   OH240756   6.316   5.967  13.164
 6422TIP3    H140757   6.374   6.038  13.137
 6422TIP3    H240758   6.279   5.996  13.247
 6423TIP3   OH240759   6.448   6.558  13.278
 6423TIP3    H140760   6.543   6.564  13.267
 6423TIP3    H240761   6.413   6.628  13.223
 6424TIP3   OH240762   6.928   6.309  13.690
 6424TIP3    H140763   6.924   6.213  13.694
 6424TIP3    H240764   7.015   6.329  13.656
 6425TIP3   OH240765   7.002   6.618  13.526
 6425TIP3    H140766   6.979   6.700  13.484
 6425TIP3    H240767   7.097   6.622  13.537
 6426TIP3   OH240768   6.092   6.321  13.680
 6426TIP3    H140769   6.047   6.238  13.670
 6426TIP3    H240770   6.174   6.311  13.632
 6427TIP3   OH240771   6.412   5.730  13.275
 6427TIP3    H140772   6.385   5.814  13.239
 6427TIP3    H240773   6.346   5.668  13.243
 6428TIP3   OH240774   6.541   6.167  13.634
 6428TIP3    H140775   6.511   6.125  13.715
 6428TIP3    H240776   6.461   6.195  13.590
 6429TIP3   OH240777   6.795   6.078  13.544
 6429TIP3    H140778   6.705   6.090  13.576
 6429TIP3    H240779   6.838   6.026  13.612
 6430TIP3   OH240780   6.956   5.974  13.742
 6430TIP3    H140781   6.961   5.879  13.731
 6430TIP3    H240782   6.938   5.987  13.835
 6431TIP3   OH240783   5.933   6.084  13.689
 6431TIP3    H140784   5.993   6.045  13.626
 6431TIP3    H240785   5.934   6.023  13.763
 6432TIP3   OH240786   6.421   5.673  13.544
 6432TIP3    H140787   6.477   5.596  13.534
 6432TIP3    H240788   6.406   5.704  13.455
 6433TIP3   OH240789   6.480   5.828  13.760
 6433TIP3    H140790   6.465   5.773  13.684
 6433TIP3    H240791   6.420   5.902  13.749
 6434TIP3   OH240792   5.793   7.013  12.008
 6434TIP3    H140793   5.888   7.014  12.018
 6434TIP3    H240794   5.777   6.949  11.939
 6435TIP3   OH240795   5.687   7.320  12.734
 6435TIP3    H140796   5.696   7.233  12.772
 6435TIP3    H240797   5.750   7.374  12.781
 6436TIP3   OH240798   7.195   6.922  13.783
 6436TIP3    H140799   7.131   6.918  13.855
 6436TIP3    H240800   7.189   7.013  13.752
 6437TIP3   OH240801   7.243   7.076  13.240
 6437TIP3    H140802   7.216   7.167  13.252
 6437TIP3    H240803   7.232   7.061  13.146
 6438TIP3   OH240804   7.306   6.254  11.928
 6438TIP3    H140805   7.262   6.305  11.860
 6438TIP3    H240806   7.285   6.163  11.907
 6439TIP3   OH240807   7.187   6.424  12.529
 6439TIP3    H140808   7.193   6.329  12.521
 6439TIP3    H240809   7.169   6.439  12.622
 6440TIP3   OH240810   5.717   6.647  12.960
 6440TIP3    H140811   5.725   6.627  12.867
 6440TIP3    H240812   5.799   6.616  12.998
 6441TIP3   OH240813   7.268   6.652  13.558
 6441TIP3    H140814   7.354   6.609  13.559
 6441TIP3    H240815   7.274   6.715  13.486
 6442TIP3   OH240816   7.233   5.997  11.884
 6442TIP3    H140817   7.246   5.921  11.941
 6442TIP3    H240818   7.142   5.988  11.853
 6443TIP3   OH240819   7.197   6.174  12.376
 6443TIP3    H140820   7.217   6.085  12.406
 6443TIP3    H240821   7.267   6.193  12.313
 6444TIP3   OH240822   7.269   6.104  12.939
 6444TIP3    H140823   7.356   6.072  12.914
 6444TIP3    H240824   7.282   6.197  12.957
 6445TIP3   OH240825   7.274   6.362  13.252
 6445TIP3    H140826   7.180   6.381  13.255
 6445TIP3    H240827   7.292   6.352  13.158
 6446TIP3   OH240828   5.709   6.133  13.521
 6446TIP3    H140829   5.778   6.121  13.587
 6446TIP3    H240830   5.658   6.052  13.525
 6447TIP3   OH240831   7.226   5.900  12.424
 6447TIP3    H140832   7.265   5.841  12.488
 6447TIP3    H240833   7.170   5.845  12.371
 6448TIP3   OH240834   5.817   6.019  12.821
 6448TIP3    H140835   5.854   5.931  12.816
 6448TIP3    H240836   5.888   6.074  12.854
 6449TIP3   OH240837   5.635   6.286  12.928
 6449TIP3    H140838   5.704   6.289  12.861
 6449TIP3    H240839   5.670   6.338  13.001
 6450TIP3   OH240840   5.691   5.946  12.339
 6450TIP3    H140841   5.596   5.935  12.344
 6450TIP3    H240842   5.704   6.007  12.267
 6451TIP3   OH240843   5.658   5.766  13.101
 6451TIP3    H140844   5.614   5.752  13.185
 6451TIP3    H240845   5.621   5.848  13.068
 6452TIP3   OH240846   5.896   7.198  13.582
 6452TIP3    H140847   5.804   7.179  13.565
 6452TIP3    H240848   5.905   7.189  13.677
 6453TIP3   OH240849   6.228   7.251  13.209
 6453TIP3    H140850   6.190   7.282  13.127
 6453TIP3    H240851   6.321   7.239  13.190
 6454TIP3   OH240852   6.096   7.235  12.762
 6454TIP3    H140853   6.065   7.147  12.783
 6454TIP3    H240854   6.174   7.246  12.815
 6455TIP3   OH240855   6.330   7.197  12.929
 6455TIP3    H140856   6.328   7.107  12.897
 6455TIP3    H240857   6.395   7.196  13.000
 6456TIP3   OH240858   6.671   5.859  12.807
 6456TIP3    H140859   6.607   5.791  12.827
 6456TIP3    H240860   6.745   5.812  12.770
 6457TIP3   OH240861   7.174   5.720  12.775
 6457TIP3    H140862   7.224   5.801  12.769
 6457TIP3    H240863   7.083   5.748  12.780
 6458TIP3   OH240864   5.915   5.739  12.529
 6458TIP3    H140865   5.823   5.720  12.508
 6458TIP3    H240866   5.959   5.654  12.522
 6459TIP3   OH240867   5.845   5.752  12.185
 6459TIP3    H140868   5.898   5.801  12.123
 6459TIP3    H240869   5.804   5.818  12.240
 6460TIP3   OH240870   6.405   5.698  12.580
 6460TIP3    H140871   6.476   5.740  12.532
 6460TIP3    H240872   6.438   5.690  12.670
 6461TIP3   OH240873   6.885   5.710  12.722
 6461TIP3    H140874   6.914   5.689  12.633
 6461TIP3    H240875   6.869   5.625  12.763
 6462TIP3   OH240876   7.061   5.742  12.280
 6462TIP3    H140877   6.984   5.796  12.293
 6462TIP3    H240878   7.031   5.653  12.297
 6463TIP3   OH240879   5.769  -0.005  12.321
 6463TIP3    H140880   5.781   0.002  12.227
 6463TIP3    H240881   5.732   0.079  12.347
 6464TIP3   OH240882   6.027   5.879  12.004
 6464TIP3    H140883   6.078   5.820  11.949
 6464TIP3    H240884   6.090   5.918  12.064
 6465TIP3   OH240885   6.473   5.972  12.246
 6465TIP3    H140886   6.510   5.899  12.295
 6465TIP3    H240887   6.494   6.050  12.298
 6466TIP3   OH240888   5.899   5.788  13.497
 6466TIP3    H140889   5.894   5.722  13.566
 6466TIP3    H240890   5.982   5.833  13.513
 6467TIP3   OH240891   6.127   5.720  13.707
 6467TIP3    H140892   6.183   5.759  13.640
 6467TIP3    H240893   6.162   5.631  13.717
 6468TIP3   OH240894   6.993   5.703  13.700
 6468TIP3    H140895   6.983   5.653  13.781
 6468TIP3    H240896   7.085   5.690  13.675
 6469TIP3   OH240897   7.220   0.013  13.546
 6469TIP3    H140898   7.186  -0.001  13.457
 6469TIP3    H240899   7.307   0.051  13.532
 6470TIP3   OH240900   1.191   1.033  14.421
 6470TIP3    H140901   1.174   1.127  14.413
 6470TIP3    H240902   1.125   0.992  14.365
 6471TIP3   OH240903   1.076   0.946  14.826
 6471TIP3    H140904   1.107   0.901  14.904
 6471TIP3    H240905   1.032   0.879  14.774
 6472TIP3   OH240906   0.297   0.870  14.934
 6472TIP3    H140907   0.303   0.795  14.992
 6472TIP3    H240908   0.387   0.887  14.906
 6473TIP3   OH240909   1.468   1.250  14.644
 6473TIP3    H140910   1.425   1.175  14.686
 6473TIP3    H240911   1.479   1.314  14.715
 6474TIP3   OH240912   0.408   1.348  14.749
 6474TIP3    H140913   0.387   1.259  14.722
 6474TIP3    H240914   0.502   1.348  14.764
 6475TIP3   OH240915   0.115   0.719  14.325
 6475TIP3    H140916   0.087   0.797  14.374
 6475TIP3    H240917   0.034   0.684  14.288
 6476TIP3   OH240918   0.157   0.940  14.595
 6476TIP3    H140919   0.186   0.851  14.618
 6476TIP3    H240920   0.236   0.993  14.602
 6477TIP3   OH240921   1.200   1.706  14.686
 6477TIP3    H140922   1.227   1.659  14.607
 6477TIP3    H240923   1.184   1.638  14.751
 6478TIP3   OH240924   0.904   1.191  14.834
 6478TIP3    H140925   0.947   1.115  14.796
 6478TIP3    H240926   0.971   1.231  14.890
 6479TIP3   OH240927   1.841   0.318  14.936
 6479TIP3    H140928   1.845   0.392  14.997
 6479TIP3    H240929   1.892   0.348  14.861
 6480TIP3   OH240930   1.232   0.616  14.837
 6480TIP3    H140931   1.250   0.523  14.854
 6480TIP3    H240932   1.215   0.620  14.743
 6481TIP3   OH240933   0.578   0.418  14.568
 6481TIP3    H140934   0.592   0.504  14.529
 6481TIP3    H240935   0.532   0.368  14.501
 6482TIP3   OH240936   1.363   0.441  14.420
 6482TIP3    H140937   1.405   0.424  14.504
 6482TIP3    H240938   1.430   0.483  14.367
 6483TIP3   OH240939   0.225   0.680  14.673
 6483TIP3    H140940   0.292   0.639  14.727
 6483TIP3    H240941   0.241   0.645  14.585
 6484TIP3   OH240942   0.700   0.825  14.631
 6484TIP3    H140943   0.788   0.794  14.653
 6484TIP3    H240944   0.667   0.759  14.570
 6485TIP3   OH240945   1.836   0.502  15.146
 6485TIP3    H140946   1.760   0.556  15.125
 6485TIP3    H240947   1.840   0.503  15.242
 6486TIP3   OH240948   0.420   0.356  15.019
 6486TIP3    H140949   0.395   0.410  14.944
 6486TIP3    H240950   0.343   0.359  15.077
 6487TIP3   OH240951   1.117   1.282  14.331
 6487TIP3    H140952   1.116   1.284  14.236
 6487TIP3    H240953   1.084   1.368  14.357
 6488TIP3   OH240954   0.692   1.103  14.991
 6488TIP3    H140955   0.640   1.176  15.023
 6488TIP3    H240956   0.762   1.144  14.940
 6489TIP3   OH240957   1.449   0.415  14.674
 6489TIP3    H140958   1.392   0.377  14.740
 6489TIP3    H240959   1.511   0.469  14.723
 6490TIP3   OH240960   0.421   0.506  14.782
 6490TIP3    H140961   0.481   0.558  14.836
 6490TIP3    H240962   0.477   0.468  14.714
 6491TIP3   OH240963   0.536   1.314  15.098
 6491TIP3    H140964   0.545   1.407  15.080
 6491TIP3    H240965   0.446   1.304  15.130
 6492TIP3   OH240966   0.117   1.274  14.176
 6492TIP3    H140967   0.117   1.309  14.086
 6492TIP3    H240968   0.148   1.347  14.230
 6493TIP3   OH240969   1.482   1.453  14.845
 6493TIP3    H140970   1.387   1.459  14.857
 6493TIP3    H240971   1.508   1.542  14.818
 6494TIP3   OH240972   1.578   0.267  15.025
 6494TIP3    H140973   1.509   0.270  14.958
 6494TIP3    H240974   1.659   0.283  14.976
 6495TIP3   OH240975   0.808   0.109  14.745
 6495TIP3    H140976   0.782   0.018  14.754
 6495TIP3    H240977   0.738   0.159  14.787
 6496TIP3   OH240978   1.308   1.602  14.450
 6496TIP3    H140979   1.350   1.518  14.434
 6496TIP3    H240980   1.380   1.665  14.457
 6497TIP3   OH240981   1.447   1.376  14.398
 6497TIP3    H140982   1.457   1.312  14.327
 6497TIP3    H240983   1.456   1.325  14.478
 6498TIP3   OH240984   1.592   1.235  15.195
 6498TIP3    H140985   1.582   1.177  15.120
 6498TIP3    H240986   1.605   1.322  15.156
 6499TIP3   OH240987   1.043   0.936  14.204
 6499TIP3    H140988   0.976   1.000  14.178
 6499TIP3    H240989   1.108   0.940  14.135
 6500TIP3   OH240990   1.089   0.812  13.846
 6500TIP3    H140991   1.143   0.838  13.921
 6500TIP3    H240992   1.140   0.744  13.803
 6501TIP3   OH240993   1.758   0.905  15.039
 6501TIP3    H140994   1.684   0.964  15.025
 6501TIP3    H240995   1.818   0.926  14.967
 6502TIP3   OH240996   1.412   0.971  14.271
 6502TIP3    H140997   1.343   0.992  14.334
 6502TIP3    H240998   1.475   0.919  14.321
 6503TIP3   OH240999   1.370   0.771  15.229
 6503TIP3    H141000   1.364   0.843  15.291
 6503TIP3    H241001   1.307   0.792  15.160
 6504TIP3   OH241002   0.563   1.010  14.463
 6504TIP3    H141003   0.538   0.969  14.380
 6504TIP3    H241004   0.619   0.945  14.506
 6505TIP3   OH241005   0.692   1.367  14.737
 6505TIP3    H141006   0.694   1.378  14.642
 6505TIP3    H241007   0.768   1.312  14.755
 6506TIP3   OH241008   0.555   0.914  14.846
 6506TIP3    H141009   0.610   0.889  14.772
 6506TIP3    H241010   0.606   0.980  14.894
 6507TIP3   OH241011   1.216   1.479  14.906
 6507TIP3    H141012   1.202   1.546  14.973
 6507TIP3    H241013   1.177   1.400  14.942
 6508TIP3   OH241014   0.699   1.342  15.321
 6508TIP3    H141015   0.638   1.404  15.360
 6508TIP3    H241016   0.656   1.312  15.241
 6509TIP3   OH241017   1.274   0.896  14.044
 6509TIP3    H141018   1.324   0.930  14.118
 6509TIP3    H241019   1.325   0.920  13.967
 6510TIP3   OH241020   0.400   0.947  15.256
 6510TIP3    H141021   0.383   1.007  15.329
 6510TIP3    H241022   0.345   0.981  15.185
 6511TIP3   OH241023   1.046   1.547  14.382
 6511TIP3    H141024   1.135   1.568  14.412
 6511TIP3    H241025   1.018   1.626  14.335
 6512TIP3   OH241026   0.505   1.533  15.377
 6512TIP3    H141027   0.519   1.560  15.287
 6512TIP3    H241028   0.410   1.537  15.389
 6513TIP3   OH241029   1.689   0.043  14.007
 6513TIP3    H141030   1.616   0.078  14.059
 6513TIP3    H241031   1.726   0.119  13.962
 6514TIP3   OH241032   0.478   0.914  14.211
 6514TIP3    H141033   0.419   0.980  14.174
 6514TIP3    H241034   0.435   0.831  14.192
 6515TIP3   OH241035   1.784   1.486  13.900
 6515TIP3    H141036   1.796   1.581  13.899
 6515TIP3    H241037   1.873   1.451  13.895
 6516TIP3   OH241038   0.175   1.105  15.113
 6516TIP3    H141039   0.140   1.094  15.024
 6516TIP3    H241040   0.140   1.031  15.162
 6517TIP3   OH241041   0.136   1.449  14.724
 6517TIP3    H141042   0.222   1.411  14.739
 6517TIP3    H241043   0.086   1.427  14.803
 6518TIP3   OH241044   1.845   1.515  15.406
 6518TIP3    H141045   1.830   1.421  15.398
 6518TIP3    H241046   1.763   1.550  15.441
 6519TIP3   OH241047   0.940   1.467  15.272
 6519TIP3    H141048   0.932   1.553  15.314
 6519TIP3    H241049   0.855   1.425  15.287
 6520TIP3   OH241050   1.027   1.804  14.244
 6520TIP3    H141051   1.003   1.808  14.152
 6520TIP3    H241052   0.994   1.886  14.282
 6521TIP3   OH241053   0.377   1.700  14.441
 6521TIP3    H141054   0.388   1.669  14.530
 6521TIP3    H241055   0.323   1.634  14.398
 6522TIP3   OH241056   1.315   1.775  13.923
 6522TIP3    H141057   1.362   1.700  13.886
 6522TIP3    H241058   1.325   1.765  14.018
 6523TIP3   OH241059   1.294   1.754  14.200
 6523TIP3    H141060   1.201   1.767  14.218
 6523TIP3    H241061   1.323   1.691  14.266
 6524TIP3   OH241062   1.534   0.646  15.425
 6524TIP3    H141063   1.479   0.678  15.354
 6524TIP3    H241064   1.550   0.554  15.405
 6525TIP3   OH241065   0.285   1.320  15.244
 6525TIP3    H141066   0.315   1.266  15.317
 6525TIP3    H241067   0.234   1.260  15.189
 6526TIP3   OH241068   0.568   0.193  14.851
 6526TIP3    H141069   0.499   0.162  14.792
 6526TIP3    H241070   0.521   0.237  14.922
 6527TIP3   OH241071   1.004   0.127  15.216
 6527TIP3    H141072   1.015   0.081  15.298
 6527TIP3    H241073   0.910   0.136  15.204
 6528TIP3   OH241074   1.317   0.497  15.241
 6528TIP3    H141075   1.253   0.482  15.310
 6528TIP3    H241076   1.320   0.592  15.231
 6529TIP3   OH241077   1.418   0.949  13.822
 6529TIP3    H141078   1.394   0.958  13.730
 6529TIP3    H241079   1.512   0.965  13.824
 6530TIP3   OH241080   0.975   0.366  13.931
 6530TIP3    H141081   0.913   0.347  14.001
 6530TIP3    H241082   0.951   0.305  13.861
 6531TIP3   OH241083   0.558   0.662  14.966
 6531TIP3    H141084   0.491   0.662  15.034
 6531TIP3    H241085   0.560   0.753  14.934
 6532TIP3   OH241086   0.573   0.665  14.448
 6532TIP3    H141087   0.478   0.653  14.450
 6532TIP3    H241088   0.597   0.652  14.356
 6533TIP3   OH241089   1.098   0.690  14.313
 6533TIP3    H141090   1.073   0.777  14.281
 6533TIP3    H241091   1.169   0.663  14.256
 6534TIP3   OH241092   1.038   0.706  15.416
 6534TIP3    H141093   0.986   0.639  15.461
 6534TIP3    H241094   1.124   0.701  15.457
 6535TIP3   OH241095   1.201   0.624  14.564
 6535TIP3    H141096   1.157   0.667  14.490
 6535TIP3    H241097   1.247   0.550  14.525
 6536TIP3   OH241098   0.325   0.666  15.123
 6536TIP3    H141099   0.305   0.729  15.192
 6536TIP3    H241100   0.277   0.587  15.148
 6537TIP3   OH241101   0.651   0.385  13.804
 6537TIP3    H141102   0.619   0.380  13.894
 6537TIP3    H241103   0.598   0.453  13.763
 6538TIP3   OH241104   0.057   0.373  14.497
 6538TIP3    H141105   0.089   0.383  14.586
 6538TIP3    H241106   0.134   0.386  14.441
 6539TIP3   OH241107   0.061   0.518  14.068
 6539TIP3    H141108   0.147   0.552  14.041
 6539TIP3    H241109   0.004   0.534  13.992
 6540TIP3   OH241110   1.164   0.781  15.038
 6540TIP3    H141111   1.198   0.728  14.967
 6540TIP3    H241112   1.096   0.727  15.078
 6541TIP3   OH241113   0.873   0.416  14.544
 6541TIP3    H141114   0.784   0.399  14.575
 6541TIP3    H241115   0.930   0.375  14.609
 6542TIP3   OH241116   0.314   0.570  14.434
 6542TIP3    H141117   0.250   0.613  14.377
 6542TIP3    H241118   0.339   0.491  14.387
 6543TIP3   OH241119   0.618   0.596  14.185
 6543TIP3    H141120   0.711   0.587  14.202
 6543TIP3    H241121   0.613   0.635  14.097
 6544TIP3   OH241122   1.254   0.341  14.861
 6544TIP3    H141123   1.210   0.340  14.946
 6544TIP3    H241124   1.189   0.307  14.800
 6545TIP3   OH241125   0.592   0.683  13.928
 6545TIP3    H141126   0.539   0.656  13.853
 6545TIP3    H241127   0.669   0.725  13.889
 6546TIP3   OH241128   1.596   1.897  15.497
 6546TIP3    H141129   1.619   1.933  15.411
 6546TIP3    H241130   1.669   1.921  15.553
 6547TIP3   OH241131   0.343   1.147  15.454
 6547TIP3    H141132   0.411   1.142  15.520
 6547TIP3    H241133   0.261   1.148  15.503
 6548TIP3   OH241134   0.940   0.713  14.722
 6548TIP3    H141135   1.001   0.660  14.672
 6548TIP3    H241136   0.906   0.654  14.789
 6549TIP3   OH241137   0.410   0.320  14.350
 6549TIP3    H141138   0.382   0.233  14.378
 6549TIP3    H241139   0.445   0.307  14.262
 6550TIP3   OH241140   0.819   0.572  14.934
 6550TIP3    H141141   0.733   0.610  14.952
 6550TIP3    H241142   0.870   0.591  15.012
 6551TIP3   OH241143   0.850   1.124  14.127
 6551TIP3    H141144   0.779   1.089  14.073
 6551TIP3    H241145   0.807   1.154  14.207
 6552TIP3   OH241146   1.566   1.089  14.964
 6552TIP3    H141147   1.628   1.142  14.916
 6552TIP3    H241148   1.497   1.069  14.901
 6553TIP3   OH241149   1.234   0.397  14.007
 6553TIP3    H141150   1.142   0.397  13.981
 6553TIP3    H241151   1.250   0.485  14.042
 6554TIP3   OH241152   1.017   1.181  15.267
 6554TIP3    H141153   1.054   1.145  15.347
 6554TIP3    H241154   0.994   1.271  15.290
 6555TIP3   OH241155   1.308   0.632  14.139
 6555TIP3    H141156   1.399   0.615  14.166
 6555TIP3    H241157   1.311   0.718  14.097
 6556TIP3   OH241158   0.394   1.077  14.670
 6556TIP3    H141159   0.449   1.067  14.592
 6556TIP3    H241160   0.437   1.024  14.737
 6557TIP3   OH241161   1.062   1.278  14.052
 6557TIP3    H141162   1.029   1.367  14.056
 6557TIP3    H241163   0.987   1.223  14.075
 6558TIP3   OH241164   0.106   0.879  15.258
 6558TIP3    H141165   0.143   0.844  15.339
 6558TIP3    H241166   0.052   0.808  15.223
 6559TIP3   OH241167   0.825   0.892  15.444
 6559TIP3    H141168   0.782   0.890  15.359
 6559TIP3    H241169   0.910   0.850  15.430
 6560TIP3   OH241170   1.221   1.455  15.270
 6560TIP3    H141171   1.127   1.461  15.251
 6560TIP3    H241172   1.226   1.469  15.365
 6561TIP3   OH241173   1.764   0.668  14.081
 6561TIP3    H141174   1.717   0.652  14.000
 6561TIP3    H241175   1.792   0.759  14.076
 6562TIP3   OH241176   1.807   1.235  15.359
 6562TIP3    H141177   1.722   1.244  15.317
 6562TIP3    H241178   1.869   1.222  15.287
 6563TIP3   OH241179   1.643   1.516  14.144
 6563TIP3    H141180   1.590   1.441  14.172
 6563TIP3    H241181   1.680   1.489  14.060
 6564TIP3   OH241182   1.364   1.019  14.778
 6564TIP3    H141183   1.269   1.010  14.775
 6564TIP3    H241184   1.396   0.942  14.732
 6565TIP3   OH241185   0.637   1.444  14.474
 6565TIP3    H141186   0.669   1.527  14.438
 6565TIP3    H241187   0.543   1.445  14.457
 6566TIP3   OH241188   0.189   0.915  13.909
 6566TIP3    H141189   0.242   0.977  13.959
 6566TIP3    H241190   0.103   0.918  13.951
 6567TIP3   OH241191   0.703   1.214  14.334
 6567TIP3    H141192   0.697   1.295  14.386
 6567TIP3    H241193   0.654   1.149  14.385
 6568TIP3   OH241194   0.838   1.608  15.039
 6568TIP3    H141195   0.892   1.684  15.017
 6568TIP3    H241196   0.895   1.553  15.094
 6569TIP3   OH241197   0.640   1.701  14.362
 6569TIP3    H141198   0.548   1.715  14.381
 6569TIP3    H241199   0.685   1.778  14.397
 6570TIP3   OH241200   1.116   1.237  15.013
 6570TIP3    H141201   1.082   1.215  15.099
 6570TIP3    H241202   1.178   1.167  14.992
 6571TIP3   OH241203   1.424   1.327  13.930
 6571TIP3    H141204   1.437   1.286  14.016
 6571TIP3    H241205   1.339   1.293  13.900
 6572TIP3   OH241206   1.426   1.643  15.230
 6572TIP3    H141207   1.345   1.592  15.223
 6572TIP3    H241208   1.415   1.713  15.165
 6573TIP3   OH241209   1.823   1.759  13.918
 6573TIP3    H141210   1.860   1.827  13.862
 6573TIP3    H241211   1.750   1.801  13.962
 6574TIP3   OH241212   0.204   0.383  15.191
 6574TIP3    H141213   0.108   0.389  15.191
 6574TIP3    H241214   0.222   0.301  15.237
 6575TIP3   OH241215   1.512   1.210  14.172
 6575TIP3    H141216   1.469   1.130  14.200
 6575TIP3    H241217   1.606   1.188  14.173
 6576TIP3   OH241218   0.203   1.641  15.023
 6576TIP3    H141219   0.198   1.562  15.078
 6576TIP3    H241220   0.239   1.708  15.081
 6577TIP3   OH241221   0.784   1.415  13.778
 6577TIP3    H141222   0.789   1.331  13.733
 6577TIP3    H241223   0.748   1.394  13.865
 6578TIP3   OH241224   0.667   1.390  14.031
 6578TIP3    H141225   0.707   1.343  14.103
 6578TIP3    H241226   0.677   1.483  14.054
 6579TIP3   OH241227   0.309   1.095  14.084
 6579TIP3    H141228   0.241   1.141  14.133
 6579TIP3    H241229   0.357   1.165  14.039
 6580TIP3   OH241230   1.119   0.355  15.103
 6580TIP3    H141231   1.193   0.379  15.158
 6580TIP3    H241232   1.084   0.276  15.143
 6581TIP3   OH241233   1.237   0.262  14.250
 6581TIP3    H141234   1.237   0.298  14.161
 6581TIP3    H241235   1.280   0.329  14.303
 6582TIP3   OH241236   0.960   1.528  14.066
 6582TIP3    H141237   0.873   1.562  14.088
 6582TIP3    H241238   1.009   1.605  14.036
 6583TIP3   OH241239   0.868   0.537  14.295
 6583TIP3    H141240   0.946   0.592  14.293
 6583TIP3    H241241   0.865   0.502  14.384
 6584TIP3   OH241242   0.987   0.603  15.154
 6584TIP3    H141243   1.002   0.624  15.246
 6584TIP3    H241244   1.025   0.516  15.143
 6585TIP3   OH241245   0.982   0.219  14.352
 6585TIP3    H141246   0.981   0.294  14.411
 6585TIP3    H241247   1.071   0.217  14.317
 6586TIP3   OH241248   0.716   1.650  14.104
 6586TIP3    H141249   0.722   1.735  14.061
 6586TIP3    H241250   0.688   1.670  14.194
 6587TIP3   OH241251   0.547   0.348  14.072
 6587TIP3    H141252   0.547   0.438  14.105
 6587TIP3    H241253   0.634   0.314  14.095
 6588TIP3   OH241254   1.563   0.390  15.281
 6588TIP3    H141255   1.472   0.417  15.271
 6588TIP3    H241256   1.587   0.354  15.195
 6589TIP3   OH241257   1.441   0.769  14.660
 6589TIP3    H141258   1.359   0.724  14.641
 6589TIP3    H241259   1.487   0.710  14.720
 6590TIP3   OH241260   0.419   1.310  13.942
 6590TIP3    H141261   0.494   1.354  13.981
 6590TIP3    H241262   0.454   1.260  13.869
 6591TIP3   OH241263   0.236   0.642  13.893
 6591TIP3    H141264   0.251   0.736  13.903
 6591TIP3    H241265   0.152   0.636  13.848
 6592TIP3   OH241266   1.567   1.719  14.828
 6592TIP3    H141267   1.554   1.792  14.768
 6592TIP3    H241268   1.662   1.716  14.843
 6593TIP3   OH241269   0.277   0.124  14.712
 6593TIP3    H141270   0.312   0.111  14.624
 6593TIP3    H241271   0.282   0.037  14.753
 6594TIP3   OH241272   0.207   1.525  14.301
 6594TIP3    H141273   0.124   1.547  14.343
 6594TIP3    H241274   0.208   1.577  14.221
 6595TIP3   OH241275   0.174   1.806  15.515
 6595TIP3    H141276   0.229   1.794  15.593
 6595TIP3    H241277   0.181   1.722  15.469
 6596TIP3   OH241278   0.582   1.612  15.627
 6596TIP3    H141279   0.658   1.556  15.647
 6596TIP3    H241280   0.558   1.589  15.538
 6597TIP3   OH241281   0.986   1.601  13.753
 6597TIP3    H141282   0.919   1.535  13.770
 6597TIP3    H241283   1.063   1.551  13.724
 6598TIP3   OH241284   1.232   1.484  15.545
 6598TIP3    H141285   1.210   1.399  15.582
 6598TIP3    H241286   1.311   1.512  15.592
 6599TIP3   OH241287   1.439   1.567  13.796
 6599TIP3    H141288   1.448   1.487  13.849
 6599TIP3    H241289   1.514   1.565  13.737
 6600TIP3   OH241290   0.095   1.161  15.595
 6600TIP3    H141291   0.055   1.094  15.539
 6600TIP3    H241292   0.026   1.225  15.609
 6601TIP3   OH241293   0.550   1.139  13.773
 6601TIP3    H141294   0.574   1.088  13.850
 6601TIP3    H241295   0.632   1.151  13.726
 6602TIP3   OH241296   0.770   1.163  15.521
 6602TIP3    H141297   0.757   1.212  15.440
 6602TIP3    H241298   0.807   1.079  15.494
 6603TIP3   OH241299   1.182   1.256  13.807
 6603TIP3    H141300   1.132   1.254  13.888
 6603TIP3    H241301   1.154   1.177  13.760
 6604TIP3   OH241302   1.339   1.201  15.297
 6604TIP3    H141303   1.428   1.215  15.265
 6604TIP3    H241304   1.293   1.282  15.278
 6605TIP3   OH241305   0.213   0.829  15.506
 6605TIP3    H141306   0.290   0.773  15.506
 6605TIP3    H241307   0.205   0.860  15.596
 6606TIP3   OH241308   0.645   0.997  13.991
 6606TIP3    H141309   0.600   0.952  14.062
 6606TIP3    H241310   0.697   0.929  13.947
 6607TIP3   OH241311   0.588   0.751  15.291
 6607TIP3    H141312   0.521   0.819  15.281
 6607TIP3    H241313   0.660   0.780  15.234
 6608TIP3   OH241314   0.807   0.829  13.838
 6608TIP3    H141315   0.802   0.858  13.747
 6608TIP3    H241316   0.901   0.816  13.854
 6609TIP3   OH241317   1.115   1.015  15.542
 6609TIP3    H141318   1.198   0.984  15.505
 6609TIP3    H241319   1.088   0.945  15.601
 6610TIP3   OH241320   1.684   1.017  13.779
 6610TIP3    H141321   1.686   0.996  13.686
 6610TIP3    H241322   1.679   1.113  13.781
 6611TIP3   OH241323   0.679   0.497  15.369
 6611TIP3    H141324   0.685   0.447  15.288
 6611TIP3    H241325   0.654   0.585  15.342
 6612TIP3   OH241326   0.677   0.385  15.114
 6612TIP3    H141327   0.729   0.419  15.041
 6612TIP3    H241328   0.588   0.381  15.080
 6613TIP3   OH241329   0.782   0.893  15.155
 6613TIP3    H141330   0.875   0.889  15.131
 6613TIP3    H241331   0.747   0.965  15.104
 6614TIP3   OH241332   1.255   0.654  15.587
 6614TIP3    H141333   1.256   0.584  15.652
 6614TIP3    H241334   1.348   0.668  15.566
 6615TIP3   OH241335   1.382   0.970  15.433
 6615TIP3    H141336   1.357   1.052  15.389
 6615TIP3    H241337   1.478   0.971  15.432
 6616TIP3   OH241338   0.425   0.649  15.500
 6616TIP3    H141339   0.384   0.574  15.456
 6616TIP3    H241340   0.488   0.683  15.436
 6617TIP3   OH241341   0.726   0.133  15.211
 6617TIP3    H141342   0.706   0.220  15.174
 6617TIP3    H241343   0.659   0.076  15.175
 6618TIP3   OH241344   0.903   0.502  15.537
 6618TIP3    H141345   0.878   0.488  15.628
 6618TIP3    H241346   0.821   0.498  15.488
 6619TIP3   OH241347   1.134   0.410  15.416
 6619TIP3    H141348   1.058   0.436  15.469
 6619TIP3    H241349   1.199   0.382  15.480
 6620TIP3   OH241350   1.335   0.334  15.591
 6620TIP3    H141351   1.329   0.239  15.591
 6620TIP3    H241352   1.299   0.360  15.676
 6621TIP3   OH241353   0.280   0.410  15.503
 6621TIP3    H141354   0.283   0.344  15.434
 6621TIP3    H241355   0.268   0.360  15.583
 6622TIP3   OH241356   0.822   7.330  15.419
 6622TIP3    H141357   0.753   7.306  15.481
 6622TIP3    H241358   0.777   7.381  15.352
 6623TIP3   OH241359   0.820   0.223  15.622
 6623TIP3    H141360   0.824   0.127  15.627
 6623TIP3    H241361   0.885   0.246  15.555
 6624TIP3   OH241362   0.794   1.891  13.989
 6624TIP3    H141363   0.881   1.856  13.974
 6624TIP3    H241364   0.781   1.954  13.918
 6625TIP3   OH241365   0.147   1.333  13.903
 6625TIP3    H141366   0.238   1.358  13.921
 6625TIP3    H241367   0.154   1.266  13.835
 6626TIP3   OH241368   0.054   1.866  14.365
 6626TIP3    H141369  -0.027   1.857  14.315
 6626TIP3    H241370   0.057   1.789  14.421
 6627TIP3   OH241371   0.059   1.650  14.549
 6627TIP3    H141372   0.067   1.562  14.586
 6627TIP3    H241373   0.105   1.707  14.610
 6628TIP3   OH241374   1.832   1.720  14.908
 6628TIP3    H141375   1.827   1.717  15.003
 6628TIP3    H241376   1.899   1.785  14.888
 6629TIP3   OH241377   1.778   1.685  15.181
 6629TIP3    H141378   1.723   1.615  15.146
 6629TIP3    H241379   1.824   1.646  15.255
 6630TIP3   OH241380   1.625   1.268  15.750
 6630TIP3    H141381   1.538   1.285  15.785
 6630TIP3    H241382   1.667   1.354  15.747
 6631TIP3   OH241383   1.777   1.127  14.194
 6631TIP3    H141384   1.851   1.187  14.195
 6631TIP3    H241385   1.797   1.063  14.263
 6632TIP3   OH241386   1.829   0.923  14.378
 6632TIP3    H141387   1.744   0.887  14.405
 6632TIP3    H241388   1.878   0.933  14.460
 6633TIP3   OH241389   1.808   1.216  14.899
 6633TIP3    H141390   1.859   1.149  14.854
 6633TIP3    H241391   1.838   1.299  14.860
 6634TIP3   OH241392   1.608   1.487  15.091
 6634TIP3    H141393   1.537   1.535  15.134
 6634TIP3    H241394   1.576   1.471  15.002
 6635TIP3   OH241395   1.822   0.929  14.004
 6635TIP3    H141396   1.773   0.949  13.924
 6635TIP3    H241397   1.799   1.000  14.064
 6636TIP3   OH241398   1.643   0.660  13.840
 6636TIP3    H141399   1.636   0.710  13.758
 6636TIP3    H241400   1.620   0.570  13.816
 6637TIP3   OH241401   1.578   0.801  14.420
 6637TIP3    H141402   1.575   0.712  14.385
 6637TIP3    H241403   1.536   0.794  14.506
 6638TIP3   OH241404   0.078   1.006  14.853
 6638TIP3    H141405   0.083   1.013  14.758
 6638TIP3    H241406   0.160   0.964  14.879
 6639TIP3   OH241407   1.660   0.986  15.428
 6639TIP3    H141408   1.715   0.910  15.405
 6639TIP3    H241409   1.707   1.061  15.391
 6640TIP3   OH241410   1.789   0.747  15.381
 6640TIP3    H141411   1.700   0.714  15.392
 6640TIP3    H241412   1.845   0.673  15.404
 6641TIP3   OH241413   1.580   0.410  13.768
 6641TIP3    H141414   1.644   0.345  13.797
 6641TIP3    H241415   1.508   0.358  13.731
 6642TIP3   OH241416   1.570   0.553  14.258
 6642TIP3    H141417   1.598   0.462  14.266
 6642TIP3    H241418   1.635   0.594  14.201
 6643TIP3   OH241419   1.597   0.595  14.822
 6643TIP3    H141420   1.690   0.607  14.801
 6643TIP3    H241421   1.592   0.609  14.917
 6644TIP3   OH241422   1.616   0.674  15.092
 6644TIP3    H141423   1.534   0.706  15.130
 6644TIP3    H241424   1.669   0.753  15.078
 6645TIP3   OH241425   0.042   0.541  15.426
 6645TIP3    H141426   0.124   0.500  15.452
 6645TIP3    H241427   0.008   0.485  15.356
 6646TIP3   OH241428   1.890   0.084  15.591
 6646TIP3    H141429   1.886  -0.007  15.560
 6646TIP3    H241430   1.849   0.135  15.521
 6647TIP3   OH241431   1.628   0.278  14.291
 6647TIP3    H141432   1.639   0.233  14.375
 6647TIP3    H241433   1.570   0.220  14.241
 6648TIP3   OH241434   0.177   0.375  14.746
 6648TIP3    H141435   0.205   0.284  14.746
 6648TIP3    H241436   0.258   0.426  14.757
 6649TIP3   OH241437   0.008   0.729  14.851
 6649TIP3    H141438   0.081   0.710  14.792
 6649TIP3    H241439   0.008   0.825  14.860
 6650TIP3   OH241440   1.761   0.232  15.398
 6650TIP3    H141441   1.688   0.293  15.390
 6650TIP3    H241442   1.756   0.177  15.320
 6651TIP3   OH241443   1.789   0.260  13.875
 6651TIP3    H141444   1.848   0.206  13.822
 6651TIP3    H241445   1.846   0.325  13.916
 6652TIP3   OH241446   0.091   0.265  14.176
 6652TIP3    H141447   0.011   0.265  14.230
 6652TIP3    H241448   0.097   0.354  14.142
 6653TIP3   OH241449   1.497   1.795  14.445
 6653TIP3    H141450   1.569   1.786  14.383
 6653TIP3    H241451   1.533   1.842  14.519
 6654TIP3   OH241452   7.378   0.074  15.102
 6654TIP3    H141453   7.305   0.038  15.153
 6654TIP3    H241454   7.338   0.136  15.042
 6655TIP3   OH241455   0.227   1.536  15.420
 6655TIP3    H141456   0.223   1.470  15.351
 6655TIP3    H241457   0.178   1.498  15.493
 6656TIP3   OH241458   0.576   1.590  15.115
 6656TIP3    H141459   0.549   1.678  15.089
 6656TIP3    H241460   0.670   1.587  15.095
 6657TIP3   OH241461   0.939   1.712  15.404
 6657TIP3    H141462   0.953   1.680  15.493
 6657TIP3    H241463   1.018   1.761  15.383
 6658TIP3   OH241464   1.173   1.849  15.363
 6658TIP3    H141465   1.238   1.802  15.311
 6658TIP3    H241466   1.220   1.878  15.441
 6659TIP3   OH241467   1.715   0.081  15.175
 6659TIP3    H141468   1.658   0.135  15.121
 6659TIP3    H241469   1.691  -0.009  15.153
 6660TIP3   OH241470   0.290   1.873  15.154
 6660TIP3    H141471   0.213   1.920  15.122
 6660TIP3    H241472   0.309   1.914  15.239
 6661TIP3   OH241473   0.542   1.856  15.049
 6661TIP3    H141474   0.451   1.865  15.079
 6661TIP3    H241475   0.543   1.901  14.964
 6662TIP3   OH241476   0.970   1.837  14.959
 6662TIP3    H141477   0.919   1.873  14.886
 6662TIP3    H241478   0.982   1.911  15.018
 6663TIP3   OH241479   1.194   1.711  15.056
 6663TIP3    H141480   1.117   1.753  15.017
 6663TIP3    H241481   1.267   1.769  15.035
 6664TIP3   OH241482   1.436   1.844  15.034
 6664TIP3    H141483   1.465   1.935  15.022
 6664TIP3    H241484   1.477   1.797  14.961
 6665TIP3   OH241485   0.199   1.754  14.773
 6665TIP3    H141486   0.185   1.719  14.860
 6665TIP3    H241487   0.277   1.710  14.741
 6666TIP3   OH241488   0.429   1.622  14.699
 6666TIP3    H141489   0.416   1.530  14.721
 6666TIP3    H241490   0.516   1.643  14.734
 6667TIP3   OH241491   0.696   1.643  14.799
 6667TIP3    H141492   0.702   1.554  14.764
 6667TIP3    H241493   0.737   1.639  14.885
 6668TIP3   OH241494   1.044   0.253  14.695
 6668TIP3    H141495   0.975   0.192  14.719
 6668TIP3    H241496   1.110   0.199  14.650
 6669TIP3   OH241497   1.495   0.041  14.715
 6669TIP3    H141498   1.563   0.072  14.656
 6669TIP3    H241499   1.414   0.080  14.682
 6670TIP3   OH241500   1.689   0.135  14.531
 6670TIP3    H141501   1.753   0.066  14.547
 6670TIP3    H241502   1.738   0.216  14.546
 6671TIP3   OH241503   0.339   0.060  14.443
 6671TIP3    H141504   0.269   0.030  14.385
 6671TIP3    H241505   0.363  -0.017  14.494
 6672TIP3   OH241506   0.076   0.185  13.913
 6672TIP3    H141507   0.164   0.201  13.879
 6672TIP3    H241508   0.082   0.208  14.006
 6673TIP3   OH241509   0.765   0.097  14.471
 6673TIP3    H141510   0.844   0.127  14.426
 6673TIP3    H241511   0.784   0.107  14.564
 6674TIP3   OH241512   1.265   0.139  14.571
 6674TIP3    H141513   1.297   0.204  14.508
 6674TIP3    H241514   1.273   0.056  14.525
 6675TIP3   OH241515   1.460   0.097  14.170
 6675TIP3    H141516   1.370   0.125  14.187
 6675TIP3    H241517   1.453   0.004  14.149
 6676TIP3   OH241518   0.175   1.691  14.077
 6676TIP3    H141519   0.086   1.657  14.077
 6676TIP3    H241520   0.164   1.786  14.068
 6677TIP3   OH241521   0.344   0.265  13.874
 6677TIP3    H141522   0.400   0.217  13.813
 6677TIP3    H241523   0.403   0.292  13.945
 6678TIP3   OH241524   0.809   0.309  14.151
 6678TIP3    H141525   0.859   0.245  14.202
 6678TIP3    H241526   0.827   0.393  14.193
 6679TIP3   OH241527   1.041   1.776  13.955
 6679TIP3    H141528   1.134   1.793  13.944
 6679TIP3    H241529   1.016   1.724  13.878
 6680TIP3   OH241530   1.698   1.760  14.255
 6680TIP3    H141531   1.681   1.671  14.223
 6680TIP3    H241532   1.683   1.816  14.178
 6681TIP3   OH241533   0.268   0.168  15.366
 6681TIP3    H141534   0.224   0.089  15.334
 6681TIP3    H241535   0.330   0.137  15.432
 6682TIP3   OH241536   0.466   0.138  15.570
 6682TIP3    H141537   0.545   0.181  15.537
 6682TIP3    H241538   0.496   0.054  15.603
 6683TIP3   OH241539   0.350   1.752  13.826
 6683TIP3    H141540   0.313   1.725  13.910
 6683TIP3    H241541   0.425   1.694  13.813
 6684TIP3   OH241542   1.326   0.065  15.576
 6684TIP3    H141543   1.381   0.007  15.629
 6684TIP3    H241544   1.274   0.005  15.521
 6685TIP3   OH241545   1.591   1.625  15.452
 6685TIP3    H141546   1.535   1.621  15.374
 6685TIP3    H241547   1.596   1.719  15.473
 6686TIP3   OH241548   3.084   1.035  14.417
 6686TIP3    H141549   3.071   1.130  14.407
 6686TIP3    H241550   3.015   0.996  14.364
 6687TIP3   OH241551   2.958   0.946  14.809
 6687TIP3    H141552   2.979   0.907  14.894
 6687TIP3    H241553   2.910   0.878  14.763
 6688TIP3   OH241554   2.173   0.873  14.942
 6688TIP3    H141555   2.185   0.803  15.006
 6688TIP3    H241556   2.261   0.894  14.912
 6689TIP3   OH241557   3.350   1.249  14.648
 6689TIP3    H141558   3.306   1.176  14.692
 6689TIP3    H241559   3.362   1.315  14.717
 6690TIP3   OH241560   2.324   1.350  14.737
 6690TIP3    H141561   2.289   1.263  14.720
 6690TIP3    H241562   2.417   1.335  14.757
 6691TIP3   OH241563   1.963   0.691  14.286
 6691TIP3    H141564   1.929   0.774  14.318
 6691TIP3    H241565   1.902   0.665  14.217
 6692TIP3   OH241566   2.019   0.933  14.589
 6692TIP3    H141567   2.051   0.844  14.605
 6692TIP3    H241568   2.097   0.988  14.595
 6693TIP3   OH241569   3.081   1.716  14.687
 6693TIP3    H141570   3.112   1.666  14.612
 6693TIP3    H241571   3.059   1.651  14.753
 6694TIP3   OH241572   2.809   1.191  14.829
 6694TIP3    H141573   2.850   1.111  14.795
 6694TIP3    H241574   2.873   1.226  14.891
 6695TIP3   OH241575   3.702   0.320  14.921
 6695TIP3    H141576   3.695   0.389  14.987
 6695TIP3    H241577   3.769   0.352  14.861
 6696TIP3   OH241578   3.116   0.627  14.841
 6696TIP3    H141579   3.121   0.533  14.859
 6696TIP3    H241580   3.095   0.632  14.748
 6697TIP3   OH241581   2.473   0.425  14.562
 6697TIP3    H141582   2.471   0.512  14.521
 6697TIP3    H241583   2.425   0.369  14.501
 6698TIP3   OH241584   3.246   0.456  14.417
 6698TIP3    H141585   3.284   0.436  14.502
 6698TIP3    H241586   3.318   0.496  14.368
 6699TIP3   OH241587   2.105   0.675  14.651
 6699TIP3    H141588   2.169   0.631  14.706
 6699TIP3    H241589   2.121   0.641  14.563
 6700TIP3   OH241590   2.570   0.824  14.626
 6700TIP3    H141591   2.657   0.790  14.650
 6700TIP3    H241592   2.534   0.758  14.566
 6701TIP3   OH241593   3.663   0.499  15.134
 6701TIP3    H141594   3.607   0.575  15.118
 6701TIP3    H241595   3.719   0.525  15.207
 6702TIP3   OH241596   2.314   0.357  15.005
 6702TIP3    H141597   2.289   0.409  14.929
 6702TIP3    H241598   2.241   0.369  15.066
 6703TIP3   OH241599   3.049   1.292  14.318
 6703TIP3    H141600   3.027   1.282  14.225
 6703TIP3    H241601   3.000   1.369  14.346
 6704TIP3   OH241602   2.577   1.116  14.964
 6704TIP3    H141603   2.529   1.189  15.001
 6704TIP3    H241604   2.650   1.156  14.916
 6705TIP3   OH241605   3.318   0.411  14.671
 6705TIP3    H141606   3.257   0.377  14.737
 6705TIP3    H241607   3.383   0.461  14.722
 6706TIP3   OH241608   2.300   0.506  14.769
 6706TIP3    H141609   2.357   0.562  14.822
 6706TIP3    H241610   2.358   0.467  14.704
 6707TIP3   OH241611   2.433   1.321  15.082
 6707TIP3    H141612   2.442   1.416  15.074
 6707TIP3    H241613   2.341   1.307  15.105
 6708TIP3   OH241614   2.000   1.297  14.166
 6708TIP3    H141615   1.994   1.337  14.080
 6708TIP3    H241616   2.023   1.369  14.225
 6709TIP3   OH241617   3.370   1.456  14.842
 6709TIP3    H141618   3.276   1.459  14.858
 6709TIP3    H241619   3.394   1.546  14.818
 6710TIP3   OH241620   3.393   0.306  14.948
 6710TIP3    H141621   3.298   0.312  14.940
 6710TIP3    H241622   3.424   0.395  14.929
 6711TIP3   OH241623   2.685   0.120  14.734
 6711TIP3    H141624   2.670   0.027  14.749
 6711TIP3    H241625   2.607   0.164  14.767
 6712TIP3   OH241626   3.196   1.609  14.456
 6712TIP3    H141627   3.239   1.525  14.441
 6712TIP3    H241628   3.268   1.672  14.461
 6713TIP3   OH241629   3.306   1.367  14.401
 6713TIP3    H141630   3.227   1.324  14.369
 6713TIP3    H241631   3.330   1.318  14.480
 6714TIP3   OH241632   3.483   1.242  15.193
 6714TIP3    H141633   3.472   1.185  15.117
 6714TIP3    H241634   3.497   1.329  15.156
 6715TIP3   OH241635   2.930   0.939  14.205
 6715TIP3    H141636   2.859   0.998  14.178
 6715TIP3    H241637   2.994   0.945  14.134
 6716TIP3   OH241638   2.971   0.817  13.852
 6716TIP3    H141639   3.026   0.843  13.926
 6716TIP3    H241640   3.019   0.747  13.809
 6717TIP3   OH241641   3.641   0.917  15.047
 6717TIP3    H141642   3.572   0.980  15.029
 6717TIP3    H241643   3.703   0.928  14.975
 6718TIP3   OH241644   3.304   0.966  14.271
 6718TIP3    H141645   3.235   0.991  14.332
 6718TIP3    H241646   3.368   0.920  14.324
 6719TIP3   OH241647   3.245   0.787  15.211
 6719TIP3    H141648   3.244   0.851  15.282
 6719TIP3    H241649   3.173   0.813  15.154
 6720TIP3   OH241650   2.443   1.014  14.459
 6720TIP3    H141651   2.416   0.973  14.377
 6720TIP3    H241652   2.494   0.947  14.504
 6721TIP3   OH241653   2.608   1.367  14.731
 6721TIP3    H141654   2.606   1.376  14.636
 6721TIP3    H241655   2.683   1.310  14.749
 6722TIP3   OH241656   2.429   0.920  14.842
 6722TIP3    H141657   2.483   0.892  14.767
 6722TIP3    H241658   2.482   0.987  14.885
 6723TIP3   OH241659   3.107   1.472  14.910
 6723TIP3    H141660   3.093   1.543  14.973
 6723TIP3    H241661   3.065   1.396  14.950
 6724TIP3   OH241662   2.585   1.338  15.315
 6724TIP3    H141663   2.520   1.394  15.358
 6724TIP3    H241664   2.543   1.312  15.233
 6725TIP3   OH241665   3.162   0.897  14.044
 6725TIP3    H141666   3.213   0.934  14.116
 6725TIP3    H241667   3.216   0.912  13.966
 6726TIP3   OH241668   2.244   0.924  15.285
 6726TIP3    H141669   2.255   1.013  15.319
 6726TIP3    H241670   2.157   0.924  15.245
 6727TIP3   OH241671   2.942   1.541  14.376
 6727TIP3    H141672   3.025   1.572  14.413
 6727TIP3    H241673   2.905   1.618  14.332
 6728TIP3   OH241674   2.378   1.513  15.382
 6728TIP3    H141675   2.385   1.547  15.293
 6728TIP3    H241676   2.285   1.516  15.402
 6729TIP3   OH241677   3.554   0.007  14.046
 6729TIP3    H141678   3.474   0.034  14.090
 6729TIP3    H241679   3.585   0.087  14.002
 6730TIP3   OH241680   2.355   0.919  14.206
 6730TIP3    H141681   2.294   0.986  14.173
 6730TIP3    H241682   2.310   0.836  14.191
 6731TIP3   OH241683   3.671   1.483  13.904
 6731TIP3    H141684   3.680   1.578  13.905
 6731TIP3    H241685   3.760   1.450  13.893
 6732TIP3   OH241686   1.954   1.178  15.137
 6732TIP3    H141687   1.902   1.187  15.057
 6732TIP3    H241688   1.967   1.083  15.146
 6733TIP3   OH241689   1.922   1.466  14.829
 6733TIP3    H141690   2.003   1.473  14.879
 6733TIP3    H241691   1.873   1.545  14.852
 6734TIP3   OH241692   3.730   1.513  15.406
 6734TIP3    H141693   3.715   1.419  15.404
 6734TIP3    H241694   3.649   1.550  15.442
 6735TIP3   OH241695   2.823   1.470  15.272
 6735TIP3    H141696   2.815   1.555  15.316
 6735TIP3    H241697   2.739   1.427  15.287
 6736TIP3   OH241698   2.913   1.804  14.244
 6736TIP3    H141699   2.883   1.809  14.153
 6736TIP3    H241700   2.880   1.885  14.284
 6737TIP3   OH241701   2.252   1.705  14.435
 6737TIP3    H141702   2.270   1.672  14.523
 6737TIP3    H241703   2.197   1.638  14.395
 6738TIP3   OH241704   3.199   1.777  13.924
 6738TIP3    H141705   3.246   1.703  13.886
 6738TIP3    H241706   3.209   1.767  14.019
 6739TIP3   OH241707   3.180   1.755  14.201
 6739TIP3    H141708   3.086   1.767  14.218
 6739TIP3    H241709   3.209   1.694  14.269
 6740TIP3   OH241710   3.464   0.600  15.439
 6740TIP3    H141711   3.390   0.593  15.379
 6740TIP3    H241712   3.460   0.520  15.492
 6741TIP3   OH241713   2.176   1.334  15.187
 6741TIP3    H141714   2.201   1.296  15.272
 6741TIP3    H241715   2.097   1.286  15.162
 6742TIP3   OH241716   2.435   0.190  14.822
 6742TIP3    H141717   2.359   0.159  14.773
 6742TIP3    H241718   2.398   0.236  14.898
 6743TIP3   OH241719   2.891   0.113  15.208
 6743TIP3    H141720   2.885   0.080  15.297
 6743TIP3    H241721   2.800   0.122  15.179
 6744TIP3   OH241722   3.256   0.520  15.276
 6744TIP3    H141723   3.175   0.494  15.319
 6744TIP3    H241724   3.238   0.608  15.242
 6745TIP3   OH241725   3.310   0.914  13.816
 6745TIP3    H141726   3.285   0.936  13.726
 6745TIP3    H241727   3.399   0.947  13.825
 6746TIP3   OH241728   2.873   0.362  13.929
 6746TIP3    H141729   2.807   0.341  13.996
 6746TIP3    H241730   2.847   0.310  13.853
 6747TIP3   OH241731   2.444   0.663  14.950
 6747TIP3    H141732   2.378   0.661  15.020
 6747TIP3    H241733   2.443   0.754  14.920
 6748TIP3   OH241734   2.439   0.668  14.439
 6748TIP3    H141735   2.345   0.655  14.436
 6748TIP3    H241736   2.469   0.651  14.350
 6749TIP3   OH241737   2.982   0.694  14.315
 6749TIP3    H141738   2.956   0.780  14.284
 6749TIP3    H241739   3.053   0.667  14.257
 6750TIP3   OH241740   2.907   0.701  15.433
 6750TIP3    H141741   2.857   0.626  15.467
 6750TIP3    H241742   2.992   0.694  15.477
 6751TIP3   OH241743   3.087   0.635  14.567
 6751TIP3    H141744   3.038   0.679  14.497
 6751TIP3    H241745   3.131   0.562  14.522
 6752TIP3   OH241746   2.233   0.670  15.125
 6752TIP3    H141747   2.228   0.720  15.207
 6752TIP3    H241748   2.187   0.588  15.144
 6753TIP3   OH241749   2.556   0.372  13.796
 6753TIP3    H141750   2.523   0.362  13.885
 6753TIP3    H241751   2.496   0.437  13.756
 6754TIP3   OH241752   1.859   0.348  14.537
 6754TIP3    H141753   1.927   0.368  14.601
 6754TIP3    H241754   1.905   0.342  14.454
 6755TIP3   OH241755   1.934   0.444  14.034
 6755TIP3    H141756   2.002   0.487  13.982
 6755TIP3    H241757   1.869   0.512  14.051
 6756TIP3   OH241758   3.028   0.797  15.034
 6756TIP3    H141759   3.067   0.740  14.967
 6756TIP3    H241760   2.967   0.739  15.081
 6757TIP3   OH241761   2.764   0.413  14.546
 6757TIP3    H141762   2.671   0.402  14.567
 6757TIP3    H241763   2.810   0.368  14.617
 6758TIP3   OH241764   2.182   0.577  14.407
 6758TIP3    H141765   2.108   0.606  14.354
 6758TIP3    H241766   2.201   0.488  14.376
 6759TIP3   OH241767   2.510   0.588  14.188
 6759TIP3    H141768   2.604   0.579  14.205
 6759TIP3    H241769   2.505   0.628  14.101
 6760TIP3   OH241770   3.125   0.352  14.878
 6760TIP3    H141771   3.086   0.350  14.966
 6760TIP3    H241772   3.057   0.315  14.822
 6761TIP3   OH241773   2.489   0.676  13.933
 6761TIP3    H141774   2.440   0.647  13.856
 6761TIP3    H241775   2.563   0.725  13.896
 6762TIP3   OH241776   3.479   1.896  15.498
 6762TIP3    H141777   3.505   1.930  15.413
 6762TIP3    H241778   3.552   1.918  15.556
 6763TIP3   OH241779   2.231   1.174  15.419
 6763TIP3    H141780   2.298   1.171  15.487
 6763TIP3    H241781   2.148   1.180  15.466
 6764TIP3   OH241782   2.810   0.711  14.721
 6764TIP3    H141783   2.861   0.648  14.669
 6764TIP3    H241784   2.780   0.660  14.796
 6765TIP3   OH241785   2.301   0.317  14.359
 6765TIP3    H141786   2.263   0.233  14.384
 6765TIP3    H241787   2.330   0.305  14.269
 6766TIP3   OH241788   2.708   0.578  14.945
 6766TIP3    H141789   2.621   0.617  14.955
 6766TIP3    H241790   2.755   0.605  15.025
 6767TIP3   OH241791   2.733   1.119  14.127
 6767TIP3    H141792   2.662   1.087  14.072
 6767TIP3    H241793   2.690   1.152  14.206
 6768TIP3   OH241794   3.451   1.096  14.961
 6768TIP3    H141795   3.513   1.147  14.909
 6768TIP3    H241796   3.381   1.074  14.900
 6769TIP3   OH241797   3.128   0.406  14.002
 6769TIP3    H141798   3.035   0.401  13.977
 6769TIP3    H241799   3.138   0.493  14.039
 6770TIP3   OH241800   2.899   1.176  15.274
 6770TIP3    H141801   2.927   1.133  15.355
 6770TIP3    H241802   2.871   1.263  15.301
 6771TIP3   OH241803   3.193   0.637  14.140
 6771TIP3    H141804   3.283   0.625  14.171
 6771TIP3    H241805   3.192   0.725  14.102
 6772TIP3   OH241806   2.267   1.076  14.664
 6772TIP3    H141807   2.323   1.066  14.587
 6772TIP3    H241808   2.308   1.022  14.731
 6773TIP3   OH241809   2.945   1.276  14.056
 6773TIP3    H141810   2.911   1.366  14.059
 6773TIP3    H241811   2.869   1.222  14.078
 6774TIP3   OH241812   1.971   0.908  15.220
 6774TIP3    H141813   1.945   0.870  15.304
 6774TIP3    H241814   1.899   0.886  15.161
 6775TIP3   OH241815   2.688   0.882  15.466
 6775TIP3    H141816   2.623   0.850  15.403
 6775TIP3    H241817   2.769   0.837  15.442
 6776TIP3   OH241818   3.105   1.456  15.270
 6776TIP3    H141819   3.011   1.460  15.252
 6776TIP3    H241820   3.112   1.470  15.364
 6777TIP3   OH241821   3.645   0.659  14.072
 6777TIP3    H141822   3.604   0.639  13.988
 6777TIP3    H241823   3.669   0.751  14.066
 6778TIP3   OH241824   3.691   1.230  15.368
 6778TIP3    H141825   3.608   1.241  15.321
 6778TIP3    H241826   3.757   1.220  15.299
 6779TIP3   OH241827   3.524   1.515  14.150
 6779TIP3    H141828   3.471   1.442  14.183
 6779TIP3    H241829   3.559   1.482  14.067
 6780TIP3   OH241830   3.246   1.019  14.780
 6780TIP3    H141831   3.151   1.011  14.779
 6780TIP3    H241832   3.278   0.941  14.734
 6781TIP3   OH241833   2.526   1.445  14.473
 6781TIP3    H141834   2.545   1.529  14.433
 6781TIP3    H241835   2.432   1.449  14.494
 6782TIP3   OH241836   2.084   0.890  13.929
 6782TIP3    H141837   2.129   0.958  13.979
 6782TIP3    H241838   1.992   0.897  13.955
 6783TIP3   OH241839   2.589   1.216  14.333
 6783TIP3    H141840   2.578   1.297  14.383
 6783TIP3    H241841   2.538   1.151  14.382
 6784TIP3   OH241842   2.719   1.612  15.044
 6784TIP3    H141843   2.775   1.687  15.023
 6784TIP3    H241844   2.773   1.557  15.101
 6785TIP3   OH241845   2.518   1.702  14.361
 6785TIP3    H141846   2.425   1.718  14.378
 6785TIP3    H241847   2.563   1.778  14.397
 6786TIP3   OH241848   3.006   1.232  15.024
 6786TIP3    H141849   2.966   1.213  15.109
 6786TIP3    H241850   3.081   1.172  15.019
 6787TIP3   OH241851   3.304   1.328  13.915
 6787TIP3    H141852   3.329   1.277  13.992
 6787TIP3    H241853   3.217   1.297  13.892
 6788TIP3   OH241854   3.311   1.644  15.229
 6788TIP3    H141855   3.230   1.593  15.223
 6788TIP3    H241856   3.299   1.715  15.166
 6789TIP3   OH241857   3.707   1.756  13.922
 6789TIP3    H141858   3.747   1.824  13.868
 6789TIP3    H241859   3.633   1.799  13.964
 6790TIP3   OH241860   2.106   0.426  15.173
 6790TIP3    H141861   2.013   0.444  15.159
 6790TIP3    H241862   2.109   0.355  15.236
 6791TIP3   OH241863   3.409   1.174  14.117
 6791TIP3    H141864   3.365   1.112  14.175
 6791TIP3    H241865   3.502   1.164  14.138
 6792TIP3   OH241866   2.113   1.587  15.032
 6792TIP3    H141867   2.140   1.512  15.084
 6792TIP3    H241868   2.128   1.663  15.088
 6793TIP3   OH241869   2.666   1.417  13.778
 6793TIP3    H141870   2.671   1.332  13.734
 6793TIP3    H241871   2.629   1.397  13.864
 6794TIP3   OH241872   2.540   1.392  14.026
 6794TIP3    H141873   2.570   1.342  14.102
 6794TIP3    H241874   2.552   1.483  14.052
 6795TIP3   OH241875   2.185   1.102  14.085
 6795TIP3    H141876   2.116   1.151  14.129
 6795TIP3    H241877   2.231   1.168  14.033
 6796TIP3   OH241878   3.016   0.343  15.132
 6796TIP3    H141879   3.040   0.367  15.221
 6796TIP3    H241880   2.972   0.259  15.141
 6797TIP3   OH241881   3.128   0.277  14.247
 6797TIP3    H141882   3.123   0.318  14.160
 6797TIP3    H241883   3.163   0.346  14.303
 6798TIP3   OH241884   2.842   1.527  14.062
 6798TIP3    H141885   2.755   1.558  14.086
 6798TIP3    H241886   2.889   1.606  14.035
 6799TIP3   OH241887   2.763   0.528  14.294
 6799TIP3    H141888   2.837   0.589  14.296
 6799TIP3    H241889   2.756   0.496  14.384
 6800TIP3   OH241890   2.877   0.609  15.168
 6800TIP3    H141891   2.883   0.638  15.259
 6800TIP3    H241892   2.911   0.520  15.168
 6801TIP3   OH241893   2.878   0.219  14.359
 6801TIP3    H141894   2.867   0.295  14.416
 6801TIP3    H241895   2.965   0.229  14.321
 6802TIP3   OH241896   2.598   1.648  14.105
 6802TIP3    H141897   2.606   1.734  14.063
 6802TIP3    H241898   2.569   1.668  14.194
 6803TIP3   OH241899   2.451   0.342  14.059
 6803TIP3    H141900   2.442   0.430  14.096
 6803TIP3    H241901   2.537   0.312  14.090
 6804TIP3   OH241902   3.465   0.340  15.249
 6804TIP3    H141903   3.383   0.388  15.257
 6804TIP3    H241904   3.522   0.398  15.198
 6805TIP3   OH241905   3.326   0.765  14.661
 6805TIP3    H141906   3.240   0.731  14.637
 6805TIP3    H241907   3.356   0.706  14.731
 6806TIP3   OH241908   2.295   1.308  13.928
 6806TIP3    H141909   2.370   1.351  13.968
 6806TIP3    H241910   2.332   1.254  13.859
 6807TIP3   OH241911   2.072   0.615  13.876
 6807TIP3    H141912   2.086   0.708  13.893
 6807TIP3    H241913   2.039   0.613  13.786
 6808TIP3   OH241914   3.455   1.723  14.832
 6808TIP3    H141915   3.443   1.796  14.771
 6808TIP3    H241916   3.549   1.719  14.846
 6809TIP3   OH241917   2.170   0.118  14.691
 6809TIP3    H141918   2.179   0.119  14.596
 6809TIP3    H241919   2.211   0.036  14.718
 6810TIP3   OH241920   2.060   1.534  14.317
 6810TIP3    H141921   2.001   1.561  14.387
 6810TIP3    H241922   2.043   1.597  14.246
 6811TIP3   OH241923   2.049   1.817  15.531
 6811TIP3    H141924   2.113   1.806  15.601
 6811TIP3    H241925   2.043   1.730  15.491
 6812TIP3   OH241926   2.466   1.612  15.623
 6812TIP3    H141927   2.541   1.556  15.645
 6812TIP3    H241928   2.437   1.581  15.538
 6813TIP3   OH241929   2.868   1.602  13.743
 6813TIP3    H141930   2.801   1.536  13.765
 6813TIP3    H241931   2.945   1.551  13.718
 6814TIP3   OH241932   3.122   1.488  15.544
 6814TIP3    H141933   3.099   1.403  15.581
 6814TIP3    H241934   3.198   1.517  15.593
 6815TIP3   OH241935   3.322   1.571  13.792
 6815TIP3    H141936   3.330   1.491  13.843
 6815TIP3    H241937   3.398   1.569  13.733
 6816TIP3   OH241938   1.987   1.166  15.558
 6816TIP3    H141939   1.997   1.072  15.548
 6816TIP3    H241940   1.915   1.190  15.499
 6817TIP3   OH241941   2.426   1.136  13.762
 6817TIP3    H141942   2.448   1.085  13.839
 6817TIP3    H241943   2.510   1.150  13.717
 6818TIP3   OH241944   2.651   1.161  15.521
 6818TIP3    H141945   2.640   1.205  15.437
 6818TIP3    H241946   2.679   1.072  15.498
 6819TIP3   OH241947   3.056   1.262  13.806
 6819TIP3    H141948   3.008   1.259  13.889
 6819TIP3    H241949   3.030   1.182  13.760
 6820TIP3   OH241950   3.225   1.200  15.281
 6820TIP3    H141951   3.315   1.220  15.256
 6820TIP3    H241952   3.178   1.283  15.270
 6821TIP3   OH241953   2.062   0.904  15.510
 6821TIP3    H141954   2.142   0.888  15.460
 6821TIP3    H241955   2.084   0.880  15.600
 6822TIP3   OH241956   2.523   1.004  13.989
 6822TIP3    H141957   2.474   0.960  14.058
 6822TIP3    H241958   2.573   0.933  13.948
 6823TIP3   OH241959   2.499   0.793  15.277
 6823TIP3    H141960   2.417   0.842  15.272
 6823TIP3    H241961   2.554   0.830  15.208
 6824TIP3   OH241962   2.692   0.837  13.842
 6824TIP3    H141963   2.684   0.865  13.751
 6824TIP3    H241964   2.785   0.825  13.856
 6825TIP3   OH241965   2.992   1.026  15.526
 6825TIP3    H141966   3.074   0.990  15.494
 6825TIP3    H241967   2.960   0.961  15.588
 6826TIP3   OH241968   3.566   1.017  13.789
 6826TIP3    H141969   3.568   0.998  13.695
 6826TIP3    H241970   3.561   1.113  13.794
 6827TIP3   OH241971   2.545   0.531  15.349
 6827TIP3    H141972   2.549   0.475  15.271
 6827TIP3    H241973   2.531   0.620  15.314
 6828TIP3   OH241974   2.566   0.381  15.110
 6828TIP3    H141975   2.618   0.423  15.042
 6828TIP3    H241976   2.478   0.375  15.073
 6829TIP3   OH241977   2.680   0.903  15.106
 6829TIP3    H141978   2.773   0.923  15.119
 6829TIP3    H241979   2.647   0.978  15.056
 6830TIP3   OH241980   3.124   0.664  15.608
 6830TIP3    H141981   3.134   0.591  15.670
 6830TIP3    H241982   3.199   0.722  15.627
 6831TIP3   OH241983   3.269   0.975  15.426
 6831TIP3    H141984   3.243   1.055  15.380
 6831TIP3    H241985   3.365   0.977  15.426
 6832TIP3   OH241986   2.389   0.570  15.579
 6832TIP3    H141987   2.302   0.539  15.554
 6832TIP3    H241988   2.439   0.569  15.497
 6833TIP3   OH241989   2.612   0.112  15.175
 6833TIP3    H141990   2.594   0.204  15.155
 6833TIP3    H241991   2.530   0.067  15.158
 6834TIP3   OH241992   2.772   0.473  15.501
 6834TIP3    H141993   2.744   0.427  15.580
 6834TIP3    H241994   2.691   0.485  15.451
 6835TIP3   OH241995   3.031   0.414  15.397
 6835TIP3    H141996   2.945   0.423  15.438
 6835TIP3    H241997   3.087   0.379  15.467
 6836TIP3   OH241998   3.208   0.322  15.596
 6836TIP3    H141999   3.184   0.230  15.608
 6836TIP3    H242000   3.178   0.366  15.675
 6837TIP3   OH242001   2.143   0.449  15.536
 6837TIP3    H142002   2.145   0.389  15.460
 6837TIP3    H242003   2.153   0.391  15.612
 6838TIP3   OH242004   2.717   0.013  15.414
 6838TIP3    H142005   2.650  -0.012  15.477
 6838TIP3    H242006   2.669   0.054  15.342
 6839TIP3   OH242007   2.766   0.199  15.658
 6839TIP3    H142008   2.767   0.132  15.590
 6839TIP3    H242009   2.678   0.236  15.654
 6840TIP3   OH242010   2.679   1.888  13.988
 6840TIP3    H142011   2.766   1.852  13.971
 6840TIP3    H242012   2.666   1.953  13.918
 6841TIP3   OH242013   2.032   1.366  13.883
 6841TIP3    H142014   2.124   1.354  13.904
 6841TIP3    H242015   2.013   1.296  13.820
 6842TIP3   OH242016   1.888   1.848  14.431
 6842TIP3    H142017   1.831   1.817  14.360
 6842TIP3    H242018   1.907   1.770  14.482
 6843TIP3   OH242019   1.960   1.625  14.580
 6843TIP3    H142020   1.926   1.547  14.623
 6843TIP3    H242021   2.008   1.671  14.649
 6844TIP3   OH242022   3.721   1.717  14.907
 6844TIP3    H142023   3.720   1.714  15.003
 6844TIP3    H242024   3.795   1.773  14.886
 6845TIP3   OH242025   3.670   1.687  15.184
 6845TIP3    H142026   3.614   1.618  15.148
 6845TIP3    H242027   3.716   1.645  15.257
 6846TIP3   OH242028   3.499   1.269  15.741
 6846TIP3    H142029   3.414   1.288  15.779
 6846TIP3    H242030   3.544   1.353  15.739
 6847TIP3   OH242031   3.674   1.119  14.191
 6847TIP3    H142032   3.743   1.185  14.194
 6847TIP3    H242033   3.693   1.060  14.265
 6848TIP3   OH242034   3.724   0.917  14.380
 6848TIP3    H142035   3.637   0.887  14.409
 6848TIP3    H242036   3.771   0.936  14.460
 6849TIP3   OH242037   3.706   1.208  14.897
 6849TIP3    H142038   3.755   1.148  14.841
 6849TIP3    H242039   3.730   1.295  14.866
 6850TIP3   OH242040   3.496   1.494  15.088
 6850TIP3    H142041   3.425   1.540  15.133
 6850TIP3    H242042   3.462   1.479  15.000
 6851TIP3   OH242043   3.707   0.920  14.005
 6851TIP3    H142044   3.657   0.946  13.927
 6851TIP3    H242045   3.691   0.989  14.068
 6852TIP3   OH242046   3.547   0.624  13.822
 6852TIP3    H142047   3.522   0.685  13.752
 6852TIP3    H242048   3.529   0.537  13.786
 6853TIP3   OH242049   3.471   0.801  14.427
 6853TIP3    H142050   3.466   0.713  14.391
 6853TIP3    H242051   3.427   0.795  14.512
 6854TIP3   OH242052   1.940   0.974  14.848
 6854TIP3    H142053   1.951   0.964  14.753
 6854TIP3    H242054   2.025   0.948  14.884
 6855TIP3   OH242055   3.549   0.985  15.435
 6855TIP3    H142056   3.603   0.910  15.409
 6855TIP3    H242057   3.601   1.062  15.411
 6856TIP3   OH242058   3.688   0.751  15.387
 6856TIP3    H142059   3.609   0.698  15.400
 6856TIP3    H242060   3.759   0.693  15.416
 6857TIP3   OH242061   3.479   0.379  13.725
 6857TIP3    H142062   3.512   0.314  13.787
 6857TIP3    H242063   3.384   0.363  13.723
 6858TIP3   OH242064   3.458   0.552  14.260
 6858TIP3    H142065   3.484   0.460  14.264
 6858TIP3    H242066   3.521   0.592  14.200
 6859TIP3   OH242067   3.473   0.567  14.845
 6859TIP3    H142068   3.562   0.589  14.816
 6859TIP3    H242069   3.463   0.614  14.928
 6860TIP3   OH242070   3.480   0.699  15.088
 6860TIP3    H142071   3.400   0.728  15.131
 6860TIP3    H242072   3.534   0.777  15.081
 6861TIP3   OH242073   1.892   0.491  15.420
 6861TIP3    H142074   1.973   0.488  15.469
 6861TIP3    H242075   1.848   0.408  15.440
 6862TIP3   OH242076   3.814   0.078  15.525
 6862TIP3    H142077   3.775  -0.008  15.509
 6862TIP3    H242078   3.746   0.140  15.500
 6863TIP3   OH242079   3.508   0.266  14.285
 6863TIP3    H142080   3.524   0.219  14.367
 6863TIP3    H242081   3.445   0.211  14.238
 6864TIP3   OH242082   2.052   0.362  14.743
 6864TIP3    H142083   2.087   0.274  14.735
 6864TIP3    H242084   2.129   0.418  14.751
 6865TIP3   OH242085   1.866   0.656  14.804
 6865TIP3    H142086   1.936   0.645  14.739
 6865TIP3    H242087   1.897   0.727  14.861
 6866TIP3   OH242088   3.659   0.294  15.437
 6866TIP3    H142089   3.613   0.321  15.517
 6866TIP3    H242090   3.591   0.295  15.369
 6867TIP3   OH242091   3.643   0.232  13.907
 6867TIP3    H142092   3.699   0.183  13.847
 6867TIP3    H242093   3.698   0.305  13.936
 6868TIP3   OH242094   1.906   0.287  14.260
 6868TIP3    H142095   1.810   0.280  14.266
 6868TIP3    H242096   1.921   0.347  14.188
 6869TIP3   OH242097   3.386   1.799  14.444
 6869TIP3    H142098   3.459   1.791  14.383
 6869TIP3    H242099   3.422   1.848  14.518
 6870TIP3   OH242100   1.967   0.097  15.074
 6870TIP3    H142101   1.884   0.083  15.119
 6870TIP3    H242102   1.948   0.166  15.011
 6871TIP3   OH242103   2.113   1.528  15.478
 6871TIP3    H142104   2.022   1.516  15.449
 6871TIP3    H242105   2.115   1.489  15.565
 6872TIP3   OH242106   2.456   1.595  15.123
 6872TIP3    H142107   2.427   1.683  15.099
 6872TIP3    H242108   2.550   1.596  15.103
 6873TIP3   OH242109   2.823   1.714  15.406
 6873TIP3    H142110   2.836   1.681  15.494
 6873TIP3    H242111   2.903   1.763  15.387
 6874TIP3   OH242112   3.060   1.850  15.366
 6874TIP3    H142113   3.127   1.798  15.322
 6874TIP3    H242114   3.104   1.882  15.445
 6875TIP3   OH242115   3.568   0.105  15.157
 6875TIP3    H142116   3.525   0.183  15.191
 6875TIP3    H242117   3.556   0.039  15.225
 6876TIP3   OH242118   2.148   1.865  15.135
 6876TIP3    H142119   2.071   1.902  15.092
 6876TIP3    H242120   2.156   1.915  15.216
 6877TIP3   OH242121   2.412   1.858  15.053
 6877TIP3    H142122   2.319   1.865  15.077
 6877TIP3    H242123   2.418   1.900  14.967
 6878TIP3   OH242124   2.858   1.836  14.960
 6878TIP3    H142125   2.807   1.872  14.887
 6878TIP3    H242126   2.868   1.909  15.021
 6879TIP3   OH242127   3.087   1.711  15.046
 6879TIP3    H142128   3.007   1.753  15.012
 6879TIP3    H242129   3.156   1.775  15.030
 6880TIP3   OH242130   3.327   1.854  15.038
 6880TIP3    H142131   3.352   1.945  15.024
 6880TIP3    H242132   3.368   1.806  14.966
 6881TIP3   OH242133   2.114   1.736  14.794
 6881TIP3    H142134   2.106   1.690  14.878
 6881TIP3    H242135   2.193   1.700  14.755
 6882TIP3   OH242136   2.333   1.616  14.685
 6882TIP3    H142137   2.320   1.524  14.707
 6882TIP3    H242138   2.419   1.638  14.721
 6883TIP3   OH242139   2.592   1.639  14.795
 6883TIP3    H142140   2.603   1.550  14.763
 6883TIP3    H242141   2.626   1.637  14.885
 6884TIP3   OH242142   2.933   0.243  14.707
 6884TIP3    H142143   2.854   0.192  14.725
 6884TIP3    H242144   2.996   0.179  14.674
 6885TIP3   OH242145   3.434   0.069  14.738
 6885TIP3    H142146   3.482   0.078  14.656
 6885TIP3    H242147   3.344   0.094  14.716
 6886TIP3   OH242148   3.593   0.114  14.515
 6886TIP3    H142149   3.658   0.044  14.526
 6886TIP3    H242150   3.642   0.195  14.529
 6887TIP3   OH242151   2.203   0.060  14.421
 6887TIP3    H142152   2.137   0.063  14.352
 6887TIP3    H242153   2.195  -0.029  14.457
 6888TIP3   OH242154   2.056   0.158  14.012
 6888TIP3    H142155   2.116   0.196  13.948
 6888TIP3    H242156   2.008   0.234  14.047
 6889TIP3   OH242157   2.640   0.122  14.461
 6889TIP3    H142158   2.726   0.142  14.424
 6889TIP3    H242159   2.654   0.121  14.555
 6890TIP3   OH242160   3.183   0.125  14.613
 6890TIP3    H142161   3.199   0.201  14.557
 6890TIP3    H242162   3.186   0.051  14.552
 6891TIP3   OH242163   3.310   0.082  14.178
 6891TIP3    H142164   3.245   0.148  14.204
 6891TIP3    H242165   3.261   0.020  14.125
 6892TIP3   OH242166   2.023   1.714  14.110
 6892TIP3    H142167   1.949   1.707  14.051
 6892TIP3    H242168   2.050   1.806  14.105
 6893TIP3   OH242169   2.251   0.284  13.865
 6893TIP3    H142170   2.281   0.205  13.820
 6893TIP3    H242171   2.317   0.300  13.933
 6894TIP3   OH242172   2.708   0.301  14.147
 6894TIP3    H142173   2.752   0.236  14.203
 6894TIP3    H242174   2.724   0.384  14.192
 6895TIP3   OH242175   2.924   1.772  13.950
 6895TIP3    H142176   3.018   1.789  13.941
 6895TIP3    H242177   2.901   1.722  13.872
 6896TIP3   OH242178   3.585   1.760  14.254
 6896TIP3    H142179   3.567   1.671  14.224
 6896TIP3    H242180   3.569   1.815  14.178
 6897TIP3   OH242181   2.131   0.227  15.368
 6897TIP3    H142182   2.066   0.163  15.341
 6897TIP3    H242183   2.189   0.179  15.427
 6898TIP3   OH242184   2.276   0.074  15.556
 6898TIP3    H142185   2.363   0.040  15.575
 6898TIP3    H242186   2.221  -0.004  15.548
 6899TIP3   OH242187   2.228   1.743  13.809
 6899TIP3    H142188   2.201   1.728  13.899
 6899TIP3    H242189   2.304   1.686  13.797
 6900TIP3   OH242190   3.147   0.061  15.637
 6900TIP3    H142191   3.064   0.014  15.642
 6900TIP3    H242192   3.214  -0.006  15.652
 6901TIP3   OH242193   3.476   1.625  15.453
 6901TIP3    H142194   3.419   1.621  15.375
 6901TIP3    H242195   3.480   1.718  15.475
 6902TIP3   OH242196   4.964   1.031  14.419
 6902TIP3    H142197   4.955   1.125  14.409
 6902TIP3    H242198   4.898   0.993  14.362
 6903TIP3   OH242199   4.861   0.945  14.817
 6903TIP3    H142200   4.878   0.902  14.901
 6903TIP3    H242201   4.812   0.880  14.766
 6904TIP3   OH242202   4.082   0.913  14.968
 6904TIP3    H142203   4.088   0.920  15.064
 6904TIP3    H242204   4.162   0.954  14.936
 6905TIP3   OH242205   5.235   1.234  14.644
 6905TIP3    H142206   5.197   1.157  14.687
 6905TIP3    H242207   5.236   1.302  14.711
 6906TIP3   OH242208   4.171   1.338  14.766
 6906TIP3    H142209   4.151   1.251  14.732
 6906TIP3    H242210   4.211   1.322  14.851
 6907TIP3   OH242211   3.842   0.681  14.281
 6907TIP3    H142212   3.812   0.765  14.315
 6907TIP3    H242213   3.781   0.661  14.210
 6908TIP3   OH242214   3.908   0.942  14.592
 6908TIP3    H142215   3.937   0.852  14.601
 6908TIP3    H242216   3.987   0.994  14.601
 6909TIP3   OH242217   4.956   1.725  14.672
 6909TIP3    H142218   4.999   1.673  14.605
 6909TIP3    H242219   4.892   1.666  14.711
 6910TIP3   OH242220   4.719   1.195  14.822
 6910TIP3    H142221   4.761   1.114  14.791
 6910TIP3    H242222   4.775   1.225  14.893
 6911TIP3   OH242223   5.610   0.321  14.945
 6911TIP3    H142224   5.616   0.393  15.008
 6911TIP3    H242225   5.668   0.348  14.873
 6912TIP3   OH242226   4.977   0.614  14.835
 6912TIP3    H142227   5.000   0.523  14.854
 6912TIP3    H242228   4.976   0.619  14.740
 6913TIP3   OH242229   4.350   0.418  14.564
 6913TIP3    H142230   4.354   0.505  14.525
 6913TIP3    H242231   4.303   0.365  14.499
 6914TIP3   OH242232   5.136   0.438  14.426
 6914TIP3    H142233   5.180   0.417  14.509
 6914TIP3    H242234   5.204   0.481  14.374
 6915TIP3   OH242235   3.973   0.677  14.641
 6915TIP3    H142236   4.034   0.629  14.696
 6915TIP3    H242237   3.991   0.646  14.552
 6916TIP3   OH242238   4.477   0.820  14.608
 6916TIP3    H142239   4.564   0.787  14.627
 6916TIP3    H242240   4.437   0.754  14.552
 6917TIP3   OH242241   5.611   0.507  15.149
 6917TIP3    H142242   5.532   0.558  15.130
 6917TIP3    H242243   5.621   0.514  15.244
 6918TIP3   OH242244   4.169   0.384  15.015
 6918TIP3    H142245   4.127   0.421  14.938
 6918TIP3    H242246   4.097   0.352  15.069
 6919TIP3   OH242247   4.936   1.287  14.317
 6919TIP3    H142248   4.913   1.280  14.225
 6919TIP3    H242249   4.892   1.367  14.347
 6920TIP3   OH242250   4.487   1.112  14.950
 6920TIP3    H142251   4.430   1.185  14.976
 6920TIP3    H242252   4.560   1.155  14.904
 6921TIP3   OH242253   5.225   0.396  14.679
 6921TIP3    H142254   5.158   0.373  14.743
 6921TIP3    H242255   5.283   0.456  14.726
 6922TIP3   OH242256   4.162   0.501  14.754
 6922TIP3    H142257   4.208   0.565  14.809
 6922TIP3    H242258   4.229   0.467  14.696
 6923TIP3   OH242259   4.297   1.311  15.012
 6923TIP3    H142260   4.294   1.402  15.041
 6923TIP3    H242261   4.287   1.260  15.092
 6924TIP3   OH242262   3.888   1.300  14.167
 6924TIP3    H142263   3.878   1.344  14.083
 6924TIP3    H242264   3.910   1.369  14.229
 6925TIP3   OH242265   5.224   1.445  14.827
 6925TIP3    H142266   5.134   1.458  14.857
 6925TIP3    H242267   5.248   1.530  14.788
 6926TIP3   OH242268   5.349   0.275  15.027
 6926TIP3    H142269   5.281   0.297  14.963
 6926TIP3    H242270   5.431   0.290  14.981
 6927TIP3   OH242271   4.564   0.119  14.745
 6927TIP3    H142272   4.547   0.027  14.764
 6927TIP3    H242273   4.493   0.166  14.787
 6928TIP3   OH242274   5.101   1.621  14.457
 6928TIP3    H142275   5.135   1.533  14.442
 6928TIP3    H242276   5.178   1.676  14.471
 6929TIP3   OH242277   5.187   1.370  14.410
 6929TIP3    H142278   5.112   1.325  14.371
 6929TIP3    H242279   5.214   1.314  14.483
 6930TIP3   OH242280   5.366   1.258  15.183
 6930TIP3    H142281   5.361   1.197  15.110
 6930TIP3    H242282   5.382   1.343  15.142
 6931TIP3   OH242283   4.817   0.938  14.202
 6931TIP3    H142284   4.747   0.998  14.175
 6931TIP3    H242285   4.882   0.944  14.132
 6932TIP3   OH242286   4.858   0.819  13.847
 6932TIP3    H142287   4.913   0.845  13.921
 6932TIP3    H242288   4.908   0.750  13.804
 6933TIP3   OH242289   5.530   0.903  15.039
 6933TIP3    H142290   5.458   0.965  15.028
 6933TIP3    H242291   5.591   0.924  14.969
 6934TIP3   OH242292   5.186   0.967  14.270
 6934TIP3    H142293   5.117   0.990  14.333
 6934TIP3    H242294   5.251   0.921  14.321
 6935TIP3   OH242295   5.138   0.764  15.231
 6935TIP3    H142296   5.136   0.836  15.294
 6935TIP3    H242297   5.075   0.788  15.164
 6936TIP3   OH242298   4.333   1.012  14.452
 6936TIP3    H142299   4.307   0.971  14.370
 6936TIP3    H242300   4.389   0.947  14.495
 6937TIP3   OH242301   4.555   1.405  14.711
 6937TIP3    H142302   4.528   1.388  14.621
 6937TIP3    H242303   4.611   1.331  14.734
 6938TIP3   OH242304   4.338   0.926  14.821
 6938TIP3    H142305   4.391   0.898  14.746
 6938TIP3    H242306   4.392   0.990  14.866
 6939TIP3   OH242307   4.985   1.471  14.956
 6939TIP3    H142308   4.932   1.528  15.012
 6939TIP3    H242309   4.955   1.383  14.976
 6940TIP3   OH242310   4.493   1.391  15.305
 6940TIP3    H142311   4.427   1.449  15.343
 6940TIP3    H242312   4.445   1.310  15.284
 6941TIP3   OH242313   5.049   0.896  14.040
 6941TIP3    H142314   5.100   0.933  14.112
 6941TIP3    H242315   5.101   0.912  13.962
 6942TIP3   OH242316   4.131   0.894  15.242
 6942TIP3    H142317   4.181   0.974  15.261
 6942TIP3    H242318   4.042   0.914  15.271
 6943TIP3   OH242319   4.844   1.541  14.381
 6943TIP3    H142320   4.927   1.578  14.411
 6943TIP3    H242321   4.801   1.613  14.334
 6944TIP3   OH242322   4.262   1.541  15.373
 6944TIP3    H142323   4.261   1.556  15.278
 6944TIP3    H242324   4.169   1.538  15.397
 6945TIP3   OH242325   5.315   0.081  13.918
 6945TIP3    H142326   5.288   0.083  14.010
 6945TIP3    H242327   5.395   0.134  13.915
 6946TIP3   OH242328   4.241   0.919  14.201
 6946TIP3    H142329   4.183   0.989  14.171
 6946TIP3    H242330   4.191   0.839  14.187
 6947TIP3   OH242331   5.557   1.482  13.902
 6947TIP3    H142332   5.568   1.577  13.899
 6947TIP3    H242333   5.646   1.448  13.897
 6948TIP3   OH242334   3.843   1.182  15.144
 6948TIP3    H142335   3.791   1.185  15.064
 6948TIP3    H242336   3.855   1.088  15.162
 6949TIP3   OH242337   3.809   1.460  14.827
 6949TIP3    H142338   3.894   1.465  14.870
 6949TIP3    H242339   3.763   1.539  14.856
 6950TIP3   OH242340   5.622   1.495  15.413
 6950TIP3    H142341   5.598   1.402  15.413
 6950TIP3    H242342   5.542   1.540  15.437
 6951TIP3   OH242343   4.727   1.512  15.246
 6951TIP3    H142344   4.720   1.591  15.300
 6951TIP3    H242345   4.648   1.462  15.267
 6952TIP3   OH242346   4.804   1.806  14.247
 6952TIP3    H142347   4.777   1.808  14.154
 6952TIP3    H242348   4.766   1.886  14.284
 6953TIP3   OH242349   4.137   1.702  14.437
 6953TIP3    H142350   4.158   1.663  14.522
 6953TIP3    H242351   4.082   1.636  14.394
 6954TIP3   OH242352   5.086   1.778  13.930
 6954TIP3    H142353   5.132   1.704  13.890
 6954TIP3    H242354   5.100   1.766  14.024
 6955TIP3   OH242355   5.071   1.757  14.209
 6955TIP3    H142356   4.977   1.771  14.222
 6955TIP3    H242357   5.096   1.695  14.276
 6956TIP3   OH242358   5.326   0.644  15.419
 6956TIP3    H142359   5.252   0.676  15.367
 6956TIP3    H242360   5.332   0.551  15.396
 6957TIP3   OH242361   4.032   1.381  15.182
 6957TIP3    H142362   4.097   1.337  15.237
 6957TIP3    H242363   3.964   1.315  15.168
 6958TIP3   OH242364   4.327   0.211  14.864
 6958TIP3    H142365   4.269   0.177  14.796
 6958TIP3    H242366   4.269   0.260  14.923
 6959TIP3   OH242367   4.794   0.132  15.244
 6959TIP3    H142368   4.814   0.116  15.337
 6959TIP3    H242369   4.701   0.114  15.236
 6960TIP3   OH242370   5.080   0.493  15.258
 6960TIP3    H142371   5.018   0.479  15.329
 6960TIP3    H242372   5.087   0.588  15.250
 6961TIP3   OH242373   5.189   0.917  13.807
 6961TIP3    H142374   5.169   0.939  13.716
 6961TIP3    H242375   5.279   0.946  13.820
 6962TIP3   OH242376   4.747   0.371  13.919
 6962TIP3    H142377   4.690   0.345  13.990
 6962TIP3    H242378   4.729   0.308  13.849
 6963TIP3   OH242379   4.250   0.688  14.934
 6963TIP3    H142380   4.168   0.726  14.966
 6963TIP3    H242381   4.296   0.760  14.892
 6964TIP3   OH242382   4.326   0.660  14.439
 6964TIP3    H142383   4.231   0.652  14.437
 6964TIP3    H242384   4.354   0.645  14.349
 6965TIP3   OH242385   4.872   0.693  14.311
 6965TIP3    H142386   4.847   0.780  14.280
 6965TIP3    H242387   4.943   0.667  14.252
 6966TIP3   OH242388   4.810   0.699  15.431
 6966TIP3    H142389   4.751   0.643  15.482
 6966TIP3    H242390   4.895   0.691  15.474
 6967TIP3   OH242391   4.974   0.626  14.559
 6967TIP3    H142392   4.936   0.669  14.482
 6967TIP3    H242393   5.020   0.550  14.524
 6968TIP3   OH242394   4.103   0.621  15.206
 6968TIP3    H142395   4.108   0.715  15.224
 6968TIP3    H242396   4.018   0.594  15.240
 6969TIP3   OH242397   4.413   0.348  13.776
 6969TIP3    H142398   4.399   0.350  13.871
 6969TIP3    H242399   4.371   0.428  13.744
 6970TIP3   OH242400   3.745   0.334  14.537
 6970TIP3    H142401   3.805   0.368  14.604
 6970TIP3    H242402   3.790   0.351  14.454
 6971TIP3   OH242403   3.808   0.433  14.023
 6971TIP3    H142404   3.880   0.476  13.976
 6971TIP3    H242405   3.747   0.504  14.041
 6972TIP3   OH242406   4.925   0.783  15.042
 6972TIP3    H142407   4.954   0.726  14.970
 6972TIP3    H242408   4.862   0.730  15.090
 6973TIP3   OH242409   4.638   0.415  14.531
 6973TIP3    H142410   4.547   0.401  14.556
 6973TIP3    H242411   4.690   0.380  14.603
 6974TIP3   OH242412   4.064   0.575  14.403
 6974TIP3    H142413   3.991   0.602  14.348
 6974TIP3    H242414   4.086   0.487  14.373
 6975TIP3   OH242415   4.394   0.587  14.184
 6975TIP3    H142416   4.487   0.581  14.204
 6975TIP3    H242417   4.389   0.628  14.098
 6976TIP3   OH242418   5.022   0.343  14.860
 6976TIP3    H142419   4.986   0.337  14.949
 6976TIP3    H242420   4.951   0.312  14.804
 6977TIP3   OH242421   4.379   0.668  13.927
 6977TIP3    H142422   4.329   0.643  13.849
 6977TIP3    H242423   4.451   0.721  13.894
 6978TIP3   OH242424   5.360   1.897  15.509
 6978TIP3    H142425   5.377   1.951  15.432
 6978TIP3    H242426   5.436   1.910  15.566
 6979TIP3   OH242427   4.079   1.124  15.486
 6979TIP3    H142428   4.138   1.138  15.412
 6979TIP3    H242429   4.136   1.123  15.563
 6980TIP3   OH242430   4.727   0.717  14.694
 6980TIP3    H142431   4.795   0.691  14.632
 6980TIP3    H242432   4.731   0.651  14.764
 6981TIP3   OH242433   4.183   0.315  14.358
 6981TIP3    H142434   4.151   0.228  14.381
 6981TIP3    H242435   4.213   0.306  14.267
 6982TIP3   OH242436   4.540   0.588  15.025
 6982TIP3    H142437   4.526   0.679  14.997
 6982TIP3    H242438   4.621   0.591  15.076
 6983TIP3   OH242439   4.619   1.118  14.126
 6983TIP3    H142440   4.548   1.089  14.069
 6983TIP3    H242441   4.575   1.154  14.203
 6984TIP3   OH242442   5.347   1.095  14.962
 6984TIP3    H142443   5.407   1.147  14.907
 6984TIP3    H242444   5.276   1.071  14.902
 6985TIP3   OH242445   5.004   0.402  14.005
 6985TIP3    H142446   4.912   0.404  13.978
 6985TIP3    H242447   5.020   0.488  14.043
 6986TIP3   OH242448   4.769   1.172  15.285
 6986TIP3    H142449   4.801   1.135  15.366
 6986TIP3    H242450   4.692   1.224  15.311
 6987TIP3   OH242451   5.082   0.634  14.139
 6987TIP3    H142452   5.171   0.618  14.170
 6987TIP3    H242453   5.085   0.720  14.098
 6988TIP3   OH242454   4.153   1.065  14.658
 6988TIP3    H142455   4.206   1.068  14.579
 6988TIP3    H242456   4.206   1.016  14.721
 6989TIP3   OH242457   4.829   1.277  14.056
 6989TIP3    H142458   4.797   1.367  14.061
 6989TIP3    H242459   4.754   1.223  14.078
 6990TIP3   OH242460   3.850   0.914  15.227
 6990TIP3    H142461   3.825   0.865  15.306
 6990TIP3    H242462   3.777   0.901  15.167
 6991TIP3   OH242463   4.597   0.890  15.440
 6991TIP3    H142464   4.568   0.906  15.350
 6991TIP3    H242465   4.679   0.841  15.430
 6992TIP3   OH242466   4.987   1.432  15.287
 6992TIP3    H142467   4.894   1.444  15.266
 6992TIP3    H242468   4.992   1.446  15.381
 6993TIP3   OH242469   5.523   0.666  14.078
 6993TIP3    H142470   5.478   0.646  13.996
 6993TIP3    H242471   5.553   0.757  14.068
 6994TIP3   OH242472   5.569   1.218  15.360
 6994TIP3    H142473   5.487   1.239  15.315
 6994TIP3    H242474   5.634   1.212  15.291
 6995TIP3   OH242475   5.410   1.504  14.142
 6995TIP3    H142476   5.359   1.427  14.166
 6995TIP3    H242477   5.451   1.480  14.058
 6996TIP3   OH242478   5.141   1.011  14.786
 6996TIP3    H142479   5.046   1.004  14.789
 6996TIP3    H242480   5.170   0.933  14.738
 6997TIP3   OH242481   4.406   1.448  14.468
 6997TIP3    H142482   4.422   1.531  14.424
 6997TIP3    H242483   4.328   1.463  14.521
 6998TIP3   OH242484   3.972   0.893  13.934
 6998TIP3    H142485   4.015   0.964  13.982
 6998TIP3    H242486   3.880   0.899  13.960
 6999TIP3   OH242487   4.468   1.222  14.325
 6999TIP3    H142488   4.454   1.303  14.374
 6999TIP3    H242489   4.421   1.156  14.375
 7000TIP3   OH242490   4.591   1.625  15.035
 7000TIP3    H142491   4.652   1.693  15.006
 7000TIP3    H242492   4.640   1.574  15.099
 7001TIP3   OH242493   4.401   1.704  14.356
 7001TIP3    H142494   4.308   1.720  14.376
 7001TIP3    H242495   4.446   1.780  14.393
 7002TIP3   OH242496   4.895   1.221  15.040
 7002TIP3    H142497   4.848   1.212  15.123
 7002TIP3    H242498   4.970   1.162  15.048
 7003TIP3   OH242499   5.191   1.330  13.918
 7003TIP3    H142500   5.214   1.280  13.997
 7003TIP3    H242501   5.105   1.298  13.894
 7004TIP3   OH242502   5.161   1.631  15.225
 7004TIP3    H142503   5.100   1.559  15.243
 7004TIP3    H242504   5.114   1.687  15.163
 7005TIP3   OH242505   5.591   1.755  13.915
 7005TIP3    H142506   5.624   1.820  13.853
 7005TIP3    H242507   5.520   1.800  13.960
 7006TIP3   OH242508   3.954   0.302  15.167
 7006TIP3    H142509   3.895   0.366  15.205
 7006TIP3    H242510   3.985   0.250  15.241
 7007TIP3   OH242511   5.293   1.184  14.127
 7007TIP3    H142512   5.248   1.118  14.181
 7007TIP3    H242513   5.386   1.169  14.145
 7008TIP3   OH242514   3.993   1.611  15.029
 7008TIP3    H142515   4.011   1.533  15.082
 7008TIP3    H242516   4.011   1.684  15.088
 7009TIP3   OH242517   4.556   1.415  13.782
 7009TIP3    H142518   4.561   1.331  13.737
 7009TIP3    H242519   4.517   1.394  13.867
 7010TIP3   OH242520   4.426   1.389  14.028
 7010TIP3    H142521   4.450   1.342  14.109
 7010TIP3    H242522   4.437   1.482  14.051
 7011TIP3   OH242523   4.072   1.106  14.086
 7011TIP3    H142524   4.004   1.157  14.131
 7011TIP3    H242525   4.119   1.171  14.033
 7012TIP3   OH242526   4.903   0.345  15.107
 7012TIP3    H142527   4.972   0.376  15.166
 7012TIP3    H242528   4.865   0.269  15.152
 7013TIP3   OH242529   5.007   0.267  14.251
 7013TIP3    H142530   5.009   0.299  14.161
 7013TIP3    H242531   5.051   0.335  14.302
 7014TIP3   OH242532   4.728   1.528  14.071
 7014TIP3    H142533   4.640   1.560  14.089
 7014TIP3    H242534   4.775   1.606  14.039
 7015TIP3   OH242535   4.647   0.535  14.284
 7015TIP3    H142536   4.724   0.593  14.286
 7015TIP3    H242537   4.641   0.501  14.373
 7016TIP3   OH242538   4.769   0.593  15.174
 7016TIP3    H142539   4.785   0.619  15.265
 7016TIP3    H242540   4.810   0.507  15.165
 7017TIP3   OH242541   4.752   0.217  14.351
 7017TIP3    H142542   4.746   0.293  14.408
 7017TIP3    H242543   4.843   0.218  14.320
 7018TIP3   OH242544   4.481   1.647  14.102
 7018TIP3    H142545   4.490   1.732  14.058
 7018TIP3    H242546   4.451   1.669  14.190
 7019TIP3   OH242547   4.338   0.346  14.049
 7019TIP3    H142548   4.328   0.433  14.086
 7019TIP3    H242549   4.423   0.315  14.082
 7020TIP3   OH242550   5.333   0.395  15.280
 7020TIP3    H142551   5.240   0.417  15.276
 7020TIP3    H242552   5.353   0.361  15.193
 7021TIP3   OH242553   5.212   0.765  14.661
 7021TIP3    H142554   5.129   0.721  14.639
 7021TIP3    H242555   5.256   0.705  14.721
 7022TIP3   OH242556   4.181   1.307  13.925
 7022TIP3    H142557   4.255   1.352  13.965
 7022TIP3    H242558   4.220   1.255  13.855
 7023TIP3   OH242559   3.958   0.619  13.885
 7023TIP3    H142560   3.974   0.709  13.912
 7023TIP3    H242561   3.937   0.624  13.792
 7024TIP3   OH242562   5.350   1.696  14.762
 7024TIP3    H142563   5.314   1.785  14.758
 7024TIP3    H242564   5.380   1.678  14.673
 7025TIP3   OH242565   4.048   0.127  14.696
 7025TIP3    H142566   4.066   0.135  14.603
 7025TIP3    H242567   4.085   0.042  14.720
 7026TIP3   OH242568   3.942   1.531  14.321
 7026TIP3    H142569   3.889   1.559  14.396
 7026TIP3    H242570   3.924   1.596  14.253
 7027TIP3   OH242571   3.936   1.814  15.530
 7027TIP3    H142572   3.996   1.807  15.605
 7027TIP3    H242573   3.932   1.725  15.494
 7028TIP3   OH242574   4.347   1.621  15.622
 7028TIP3    H142575   4.417   1.560  15.644
 7028TIP3    H242576   4.320   1.596  15.534
 7029TIP3   OH242577   4.757   1.602  13.754
 7029TIP3    H142578   4.690   1.536  13.770
 7029TIP3    H242579   4.833   1.553  13.723
 7030TIP3   OH242580   5.012   1.481  15.556
 7030TIP3    H142581   4.996   1.398  15.600
 7030TIP3    H242582   5.087   1.519  15.601
 7031TIP3   OH242583   5.207   1.574  13.795
 7031TIP3    H142584   5.218   1.493  13.845
 7031TIP3    H242585   5.279   1.573  13.732
 7032TIP3   OH242586   3.838   1.190  15.603
 7032TIP3    H142587   3.919   1.158  15.563
 7032TIP3    H242588   3.778   1.204  15.530
 7033TIP3   OH242589   4.312   1.133  13.759
 7033TIP3    H142590   4.335   1.084  13.838
 7033TIP3    H242591   4.396   1.149  13.715
 7034TIP3   OH242592   4.510   1.152  15.514
 7034TIP3    H142593   4.451   1.156  15.439
 7034TIP3    H242594   4.553   1.067  15.506
 7035TIP3   OH242595   4.945   1.259  13.808
 7035TIP3    H142596   4.896   1.257  13.890
 7035TIP3    H242597   4.915   1.182  13.760
 7036TIP3   OH242598   5.113   1.184  15.268
 7036TIP3    H142599   5.201   1.213  15.244
 7036TIP3    H242600   5.060   1.264  15.271
 7037TIP3   OH242601   3.988   0.757  15.491
 7037TIP3    H142602   4.083   0.750  15.488
 7037TIP3    H242603   3.970   0.814  15.566
 7038TIP3   OH242604   4.409   1.003  13.985
 7038TIP3    H142605   4.361   0.960  14.056
 7038TIP3    H242606   4.462   0.933  13.947
 7039TIP3   OH242607   4.381   0.763  15.208
 7039TIP3    H142608   4.309   0.821  15.233
 7039TIP3    H242609   4.451   0.822  15.182
 7040TIP3   OH242610   4.578   0.834  13.841
 7040TIP3    H142611   4.572   0.864  13.751
 7040TIP3    H242612   4.672   0.824  13.856
 7041TIP3   OH242613   4.880   1.029  15.534
 7041TIP3    H142614   4.961   0.991  15.500
 7041TIP3    H242615   4.846   0.963  15.594
 7042TIP3   OH242616   5.447   1.013  13.791
 7042TIP3    H142617   5.453   0.993  13.697
 7042TIP3    H242618   5.444   1.108  13.794
 7043TIP3   OH242619   4.414   0.510  15.334
 7043TIP3    H142620   4.480   0.450  15.370
 7043TIP3    H242621   4.456   0.596  15.337
 7044TIP3   OH242622   4.475   0.323  15.074
 7044TIP3    H142623   4.523   0.401  15.045
 7044TIP3    H242624   4.441   0.285  14.993
 7045TIP3   OH242625   4.589   0.922  15.128
 7045TIP3    H142626   4.679   0.954  15.137
 7045TIP3    H242627   4.544   0.990  15.079
 7046TIP3   OH242628   5.021   0.656  15.616
 7046TIP3    H142629   5.030   0.582  15.676
 7046TIP3    H242630   5.095   0.712  15.636
 7047TIP3   OH242631   5.156   0.967  15.426
 7047TIP3    H142632   5.130   1.045  15.376
 7047TIP3    H242633   5.251   0.969  15.425
 7048TIP3   OH242634   4.235   0.587  15.537
 7048TIP3    H142635   4.155   0.535  15.536
 7048TIP3    H242636   4.279   0.566  15.455
 7049TIP3   OH242637   4.513   0.082  15.204
 7049TIP3    H142638   4.500   0.171  15.172
 7049TIP3    H242639   4.435   0.034  15.177
 7050TIP3   OH242640   4.663   0.531  15.587
 7050TIP3    H142641   4.712   0.495  15.661
 7050TIP3    H242642   4.572   0.510  15.605
 7051TIP3   OH242643   4.892   0.405  15.431
 7051TIP3    H142644   4.809   0.400  15.479
 7051TIP3    H242645   4.956   0.368  15.492
 7052TIP3   OH242646   5.095   0.307  15.603
 7052TIP3    H142647   5.060   0.218  15.605
 7052TIP3    H242648   5.069   0.345  15.687
 7053TIP3   OH242649   4.023   0.415  15.556
 7053TIP3    H142650   4.024   0.348  15.487
 7053TIP3    H242651   4.028   0.365  15.638
 7054TIP3   OH242652   4.485   7.331  15.468
 7054TIP3    H142653   4.571   7.325  15.510
 7054TIP3    H242654   4.503   7.367  15.381
 7055TIP3   OH242655   4.615   0.236  15.588
 7055TIP3    H142656   4.605   0.167  15.654
 7055TIP3    H242657   4.541   0.295  15.604
 7056TIP3   OH242658   4.563   1.886  13.986
 7056TIP3    H142659   4.652   1.853  13.973
 7056TIP3    H242660   4.551   1.950  13.915
 7057TIP3   OH242661   3.920   1.368  13.868
 7057TIP3    H142662   4.011   1.356  13.895
 7057TIP3    H242663   3.902   1.295  13.810
 7058TIP3   OH242664   3.775   1.846  14.432
 7058TIP3    H142665   3.719   1.816  14.360
 7058TIP3    H242666   3.793   1.767  14.483
 7059TIP3   OH242667   3.844   1.621  14.579
 7059TIP3    H142668   3.809   1.545  14.626
 7059TIP3    H242669   3.897   1.667  14.644
 7060TIP3   OH242670   5.639   1.806  14.901
 7060TIP3    H142671   5.659   1.884  14.952
 7060TIP3    H242672   5.718   1.791  14.849
 7061TIP3   OH242673   5.539   1.726  15.197
 7061TIP3    H142674   5.488   1.684  15.267
 7061TIP3    H242675   5.630   1.704  15.218
 7062TIP3   OH242676   5.405   1.261  15.757
 7062TIP3    H142677   5.316   1.284  15.783
 7062TIP3    H242678   5.447   1.345  15.740
 7063TIP3   OH242679   5.557   1.119  14.192
 7063TIP3    H142680   5.628   1.183  14.192
 7063TIP3    H242681   5.577   1.059  14.264
 7064TIP3   OH242682   5.608   0.918  14.380
 7064TIP3    H142683   5.522   0.888  14.410
 7064TIP3    H242684   5.657   0.933  14.461
 7065TIP3   OH242685   5.594   1.225  14.894
 7065TIP3    H142686   5.637   1.147  14.860
 7065TIP3    H242687   5.644   1.298  14.857
 7066TIP3   OH242688   5.352   1.510  15.060
 7066TIP3    H142689   5.283   1.539  15.119
 7066TIP3    H242690   5.304   1.471  14.986
 7067TIP3   OH242691   5.595   0.922  14.004
 7067TIP3    H142692   5.544   0.947  13.927
 7067TIP3    H242693   5.579   0.992  14.067
 7068TIP3   OH242694   5.410   0.626  13.834
 7068TIP3    H142695   5.391   0.686  13.762
 7068TIP3    H242696   5.401   0.539  13.796
 7069TIP3   OH242697   5.354   0.803  14.425
 7069TIP3    H142698   5.350   0.714  14.390
 7069TIP3    H242699   5.310   0.798  14.510
 7070TIP3   OH242700   3.832   0.937  14.854
 7070TIP3    H142701   3.849   0.946  14.760
 7070TIP3    H242702   3.918   0.931  14.894
 7071TIP3   OH242703   5.433   0.981  15.420
 7071TIP3    H142704   5.490   0.907  15.400
 7071TIP3    H242705   5.484   1.058  15.394
 7072TIP3   OH242706   5.574   0.747  15.381
 7072TIP3    H142707   5.485   0.713  15.392
 7072TIP3    H242708   5.631   0.675  15.407
 7073TIP3   OH242709   5.363   0.378  13.726
 7073TIP3    H142710   5.407   0.323  13.791
 7073TIP3    H242711   5.270   0.356  13.736
 7074TIP3   OH242712   5.341   0.552  14.264
 7074TIP3    H142713   5.372   0.462  14.271
 7074TIP3    H242714   5.404   0.594  14.205
 7075TIP3   OH242715   5.363   0.588  14.823
 7075TIP3    H142716   5.454   0.604  14.799
 7075TIP3    H242717   5.359   0.607  14.916
 7076TIP3   OH242718   5.386   0.672  15.089
 7076TIP3    H142719   5.308   0.699  15.136
 7076TIP3    H242720   5.437   0.752  15.078
 7077TIP3   OH242721   3.837   0.491  15.359
 7077TIP3    H142722   3.898   0.503  15.431
 7077TIP3    H242723   3.776   0.423  15.389
 7078TIP3   OH242724   5.644   0.053  15.596
 7078TIP3    H142725   5.669  -0.020  15.539
 7078TIP3    H242726   5.623   0.124  15.535
 7079TIP3   OH242727   5.406   0.277  14.299
 7079TIP3    H142728   5.423   0.229  14.380
 7079TIP3    H242729   5.349   0.219  14.248
 7080TIP3   OH242730   3.923   0.365  14.750
 7080TIP3    H142731   3.957   0.276  14.743
 7080TIP3    H242732   4.000   0.421  14.747
 7081TIP3   OH242733   3.732   0.666  14.800
 7081TIP3    H142734   3.803   0.652  14.737
 7081TIP3    H242735   3.750   0.752  14.837
 7082TIP3   OH242736   5.550   0.249  15.428
 7082TIP3    H142737   5.476   0.296  15.467
 7082TIP3    H242738   5.517   0.220  15.342
 7083TIP3   OH242739   5.534   0.249  13.907
 7083TIP3    H142740   5.595   0.181  13.878
 7083TIP3    H242741   5.589   0.317  13.945
 7084TIP3   OH242742   3.785   0.287  14.257
 7084TIP3    H142743   3.690   0.279  14.260
 7084TIP3    H242744   3.802   0.344  14.183
 7085TIP3   OH242745   5.323   1.779  14.472
 7085TIP3    H142746   5.372   1.761  14.393
 7085TIP3    H242747   5.349   1.868  14.497
 7086TIP3   OH242748   3.818   0.060  15.039
 7086TIP3    H142749   3.743   0.062  15.098
 7086TIP3    H242750   3.854   0.148  15.044
 7087TIP3   OH242751   3.999   1.534  15.477
 7087TIP3    H142752   3.911   1.518  15.444
 7087TIP3    H242753   4.006   1.482  15.556
 7088TIP3   OH242754   4.324   1.582  15.101
 7088TIP3    H142755   4.301   1.673  15.082
 7088TIP3    H242756   4.419   1.578  15.088
 7089TIP3   OH242757   4.725   1.733  15.412
 7089TIP3    H142758   4.728   1.689  15.497
 7089TIP3    H242759   4.812   1.772  15.402
 7090TIP3   OH242760   4.975   1.841  15.376
 7090TIP3    H142761   5.047   1.785  15.347
 7090TIP3    H242762   5.007   1.881  15.457
 7091TIP3   OH242763   5.468   0.097  15.202
 7091TIP3    H142764   5.420   0.155  15.142
 7091TIP3    H242765   5.440   0.009  15.178
 7092TIP3   OH242766   4.040   1.877  15.138
 7092TIP3    H142767   3.962   1.915  15.099
 7092TIP3    H242768   4.049   1.920  15.223
 7093TIP3   OH242769   4.302   1.857  15.053
 7093TIP3    H142770   4.211   1.867  15.081
 7093TIP3    H242771   4.306   1.902  14.969
 7094TIP3   OH242772   4.753   1.829  14.940
 7094TIP3    H142773   4.696   1.867  14.874
 7094TIP3    H242774   4.759   1.896  15.008
 7095TIP3   OH242775   5.015   1.801  15.060
 7095TIP3    H142776   4.961   1.786  14.982
 7095TIP3    H242777   4.962   1.860  15.115
 7096TIP3   OH242778   5.288   1.863  15.023
 7096TIP3    H142779   5.294   1.953  14.989
 7096TIP3    H242780   5.193   1.848  15.030
 7097TIP3   OH242781   4.008   1.731  14.783
 7097TIP3    H142782   4.001   1.692  14.871
 7097TIP3    H242783   4.084   1.688  14.745
 7098TIP3   OH242784   4.220   1.590  14.675
 7098TIP3    H142785   4.201   1.502  14.710
 7098TIP3    H242786   4.303   1.614  14.717
 7099TIP3   OH242787   4.470   1.652  14.787
 7099TIP3    H142788   4.503   1.570  14.751
 7099TIP3    H242789   4.492   1.647  14.880
 7100TIP3   OH242790   4.799   0.270  14.705
 7100TIP3    H142791   4.733   0.205  14.728
 7100TIP3    H242792   4.862   0.222  14.651
 7101TIP3   OH242793   5.272   0.017  14.661
 7101TIP3    H142794   5.351   0.044  14.616
 7101TIP3    H242795   5.230   0.099  14.688
 7102TIP3   OH242796   5.494   0.115  14.524
 7102TIP3    H142797   5.559   0.045  14.529
 7102TIP3    H242798   5.544   0.196  14.538
 7103TIP3   OH242799   4.107   0.055  14.433
 7103TIP3    H142800   4.034   0.038  14.373
 7103TIP3    H242801   4.112  -0.023  14.488
 7104TIP3   OH242802   3.933   0.152  14.012
 7104TIP3    H142803   3.996   0.187  13.949
 7104TIP3    H242804   3.875   0.226  14.032
 7105TIP3   OH242805   4.526   0.114  14.470
 7105TIP3    H142806   4.608   0.141  14.428
 7105TIP3    H242807   4.545   0.120  14.564
 7106TIP3   OH242808   5.002   0.168  14.554
 7106TIP3    H142809   5.048   0.225  14.492
 7106TIP3    H242810   5.020   0.080  14.522
 7107TIP3   OH242811   5.235   0.092  14.185
 7107TIP3    H142812   5.144   0.109  14.212
 7107TIP3    H242813   5.243  -0.004  14.189
 7108TIP3   OH242814   3.904   1.713  14.118
 7108TIP3    H142815   3.830   1.705  14.058
 7108TIP3    H242816   3.933   1.804  14.109
 7109TIP3   OH242817   4.121   0.292  13.874
 7109TIP3    H142818   4.162   0.233  13.811
 7109TIP3    H242819   4.190   0.311  13.938
 7110TIP3   OH242820   4.593   0.304  14.142
 7110TIP3    H142821   4.639   0.242  14.198
 7110TIP3    H242822   4.609   0.390  14.182
 7111TIP3   OH242823   4.812   1.774  13.958
 7111TIP3    H142824   4.905   1.792  13.948
 7111TIP3    H242825   4.788   1.724  13.880
 7112TIP3   OH242826   5.475   1.747  14.247
 7112TIP3    H142827   5.456   1.660  14.213
 7112TIP3    H242828   5.460   1.806  14.173
 7113TIP3   OH242829   4.031   0.184  15.403
 7113TIP3    H142830   3.956   0.141  15.445
 7113TIP3    H242831   4.107   0.141  15.443
 7114TIP3   OH242832   4.234   0.073  15.556
 7114TIP3    H142833   4.323   0.065  15.522
 7114TIP3    H242834   4.219  -0.008  15.606
 7115TIP3   OH242835   4.116   1.747  13.809
 7115TIP3    H142836   4.092   1.739  13.901
 7115TIP3    H242837   4.192   1.689  13.799
 7116TIP3   OH242838   4.996   0.052  15.587
 7116TIP3    H142839   4.915   0.001  15.578
 7116TIP3    H242840   5.062  -0.012  15.613
 7117TIP3   OH242841   5.381   1.639  15.405
 7117TIP3    H142842   5.297   1.629  15.359
 7117TIP3    H242843   5.368   1.716  15.461
 7118TIP3   OH242844   6.842   1.037  14.418
 7118TIP3    H142845   6.832   1.132  14.408
 7118TIP3    H242846   6.780   1.000  14.355
 7119TIP3   OH242847   6.710   0.947  14.817
 7119TIP3    H142848   6.740   0.904  14.897
 7119TIP3    H242849   6.664   0.877  14.769
 7120TIP3   OH242850   5.942   0.869  14.942
 7120TIP3    H142851   5.956   0.802  15.008
 7120TIP3    H242852   6.029   0.892  14.911
 7121TIP3   OH242853   7.100   1.257  14.656
 7121TIP3    H142854   7.061   1.182  14.701
 7121TIP3    H242855   7.127   1.315  14.727
 7122TIP3   OH242856   6.060   1.339  14.749
 7122TIP3    H142857   6.039   1.252  14.717
 7122TIP3    H242858   6.154   1.336  14.767
 7123TIP3   OH242859   5.721   0.675  14.289
 7123TIP3    H142860   5.696   0.762  14.322
 7123TIP3    H242861   5.662   0.660  14.215
 7124TIP3   OH242862   5.790   0.936  14.593
 7124TIP3    H142863   5.822   0.847  14.608
 7124TIP3    H242864   5.869   0.991  14.601
 7125TIP3   OH242865   6.814   1.721  14.700
 7125TIP3    H142866   6.844   1.667  14.627
 7125TIP3    H242867   6.819   1.662  14.776
 7126TIP3   OH242868   6.565   1.195  14.825
 7126TIP3    H142869   6.604   1.113  14.796
 7126TIP3    H242870   6.633   1.237  14.877
 7127TIP3   OH242871   6.894   0.613  14.839
 7127TIP3    H142872   6.908   0.520  14.854
 7127TIP3    H242873   6.864   0.619  14.748
 7128TIP3   OH242874   6.228   0.417  14.568
 7128TIP3    H142875   6.238   0.503  14.529
 7128TIP3    H242876   6.183   0.365  14.501
 7129TIP3   OH242877   6.981   0.470  14.418
 7129TIP3    H142878   7.026   0.423  14.489
 7129TIP3    H242879   7.052   0.500  14.362
 7130TIP3   OH242880   5.869   0.676  14.649
 7130TIP3    H142881   5.936   0.637  14.706
 7130TIP3    H242882   5.889   0.642  14.562
 7131TIP3   OH242883   6.339   0.821  14.627
 7131TIP3    H142884   6.427   0.789  14.649
 7131TIP3    H242885   6.305   0.755  14.567
 7132TIP3   OH242886   6.082   0.360  15.004
 7132TIP3    H142887   6.058   0.416  14.931
 7132TIP3    H242888   6.013   0.373  15.068
 7133TIP3   OH242889   6.818   1.294  14.317
 7133TIP3    H142890   6.801   1.284  14.224
 7133TIP3    H242891   6.763   1.367  14.344
 7134TIP3   OH242892   6.342   1.115  14.967
 7134TIP3    H142893   6.295   1.189  15.004
 7134TIP3    H242894   6.415   1.154  14.919
 7135TIP3   OH242895   7.080   0.347  14.641
 7135TIP3    H142896   7.021   0.333  14.715
 7135TIP3    H242897   7.159   0.385  14.680
 7136TIP3   OH242898   6.065   0.513  14.773
 7136TIP3    H142899   6.123   0.569  14.824
 7136TIP3    H242900   6.121   0.474  14.706
 7137TIP3   OH242901   6.198   1.322  15.083
 7137TIP3    H142902   6.210   1.417  15.076
 7137TIP3    H242903   6.106   1.311  15.107
 7138TIP3   OH242904   5.774   1.293  14.164
 7138TIP3    H142905   5.770   1.330  14.076
 7138TIP3    H242906   5.797   1.367  14.220
 7139TIP3   OH242907   7.143   1.450  14.863
 7139TIP3    H142908   7.048   1.461  14.866
 7139TIP3    H242909   7.177   1.539  14.847
 7140TIP3   OH242910   7.187   0.271  14.986
 7140TIP3    H142911   7.104   0.244  14.946
 7140TIP3    H242912   7.219   0.341  14.929
 7141TIP3   OH242913   6.451   0.104  14.748
 7141TIP3    H142914   6.429   0.011  14.752
 7141TIP3    H242915   6.379   0.148  14.792
 7142TIP3   OH242916   6.929   1.579  14.496
 7142TIP3    H142917   6.966   1.493  14.475
 7142TIP3    H242918   7.001   1.640  14.483
 7143TIP3   OH242919   7.077   1.366  14.404
 7143TIP3    H142920   7.002   1.320  14.367
 7143TIP3    H242921   7.096   1.318  14.485
 7144TIP3   OH242922   7.215   1.183  15.221
 7144TIP3    H142923   7.209   1.134  15.138
 7144TIP3    H242924   7.244   1.270  15.195
 7145TIP3   OH242925   6.707   0.946  14.192
 7145TIP3    H142926   6.637   1.005  14.164
 7145TIP3    H242927   6.773   0.952  14.123
 7146TIP3   OH242928   6.750   0.804  13.852
 7146TIP3    H142929   6.808   0.834  13.922
 7146TIP3    H242930   6.801   0.740  13.804
 7147TIP3   OH242931   7.066   0.981  14.269
 7147TIP3    H142932   6.997   1.005  14.330
 7147TIP3    H242933   7.119   0.917  14.317
 7148TIP3   OH242934   7.002   0.772  15.230
 7148TIP3    H142935   6.988   0.841  15.295
 7148TIP3    H242936   6.940   0.792  15.160
 7149TIP3   OH242937   6.213   1.012  14.461
 7149TIP3    H142938   6.191   0.973  14.376
 7149TIP3    H242939   6.266   0.947  14.505
 7150TIP3   OH242940   6.348   1.359  14.732
 7150TIP3    H142941   6.352   1.374  14.637
 7150TIP3    H242942   6.426   1.307  14.751
 7151TIP3   OH242943   6.197   0.921  14.840
 7151TIP3    H142944   6.251   0.893  14.766
 7151TIP3    H242945   6.249   0.988  14.884
 7152TIP3   OH242946   6.873   1.492  14.906
 7152TIP3    H142947   6.870   1.556  14.977
 7152TIP3    H242948   6.834   1.413  14.943
 7153TIP3   OH242949   6.346   1.332  15.320
 7153TIP3    H142950   6.281   1.389  15.361
 7153TIP3    H242951   6.305   1.307  15.236
 7154TIP3   OH242952   6.943   0.908  14.033
 7154TIP3    H142953   6.989   0.943  14.109
 7154TIP3    H242954   6.992   0.941  13.957
 7155TIP3   OH242955   6.018   0.925  15.286
 7155TIP3    H142956   6.031   1.014  15.321
 7155TIP3    H242957   5.930   0.926  15.249
 7156TIP3   OH242958   6.685   1.530  14.380
 7156TIP3    H142959   6.761   1.553  14.434
 7156TIP3    H242960   6.668   1.608  14.328
 7157TIP3   OH242961   6.147   1.513  15.386
 7157TIP3    H142962   6.151   1.549  15.297
 7157TIP3    H242963   6.054   1.516  15.408
 7158TIP3   OH242964   7.192   0.027  13.965
 7158TIP3    H142965   7.235  -0.040  14.018
 7158TIP3    H242966   7.263   0.085  13.937
 7159TIP3   OH242967   6.134   0.919  14.205
 7159TIP3    H142968   6.074   0.985  14.170
 7159TIP3    H242969   6.092   0.836  14.184
 7160TIP3   OH242970   5.726   1.180  15.140
 7160TIP3    H142971   5.677   1.190  15.059
 7160TIP3    H242972   5.740   1.086  15.149
 7161TIP3   OH242973   5.787   1.425  14.817
 7161TIP3    H142974   5.872   1.392  14.790
 7161TIP3    H242975   5.805   1.479  14.894
 7162TIP3   OH242976   6.577   1.469  15.267
 7162TIP3    H142977   6.573   1.553  15.314
 7162TIP3    H242978   6.494   1.426  15.289
 7163TIP3   OH242979   6.693   1.779  14.245
 7163TIP3    H142980   6.679   1.787  14.151
 7163TIP3    H242981   6.665   1.863  14.281
 7164TIP3   OH242982   6.016   1.703  14.433
 7164TIP3    H142983   6.039   1.666  14.519
 7164TIP3    H242984   5.962   1.636  14.392
 7165TIP3   OH242985   6.962   1.781  13.933
 7165TIP3    H142986   7.003   1.707  13.888
 7165TIP3    H242987   6.979   1.765  14.026
 7166TIP3   OH242988   6.972   1.744  14.208
 7166TIP3    H142989   6.881   1.738  14.239
 7166TIP3    H242990   7.024   1.713  14.283
 7167TIP3   OH242991   7.167   0.694  15.482
 7167TIP3    H142992   7.141   0.724  15.394
 7167TIP3    H242993   7.245   0.641  15.467
 7168TIP3   OH242994   5.944   1.341  15.191
 7168TIP3    H142995   5.972   1.304  15.275
 7168TIP3    H242996   5.865   1.291  15.168
 7169TIP3   OH242997   6.202   0.162  14.858
 7169TIP3    H142998   6.142   0.163  14.784
 7169TIP3    H242999   6.165   0.225  14.920
 7170TIP3   OH243000   6.659   0.135  15.213
 7170TIP3    H143001   6.675   0.123  15.307
 7170TIP3    H243002   6.564   0.136  15.205
 7171TIP3   OH243003   7.008   0.495  15.260
 7171TIP3    H143004   6.939   0.479  15.324
 7171TIP3    H243005   7.006   0.590  15.245
 7172TIP3   OH243006   7.079   0.993  13.811
 7172TIP3    H143007   7.043   0.964  13.726
 7172TIP3    H243008   7.153   1.049  13.788
 7173TIP3   OH243009   6.627   0.373  13.934
 7173TIP3    H143010   6.569   0.358  14.008
 7173TIP3    H243011   6.602   0.307  13.870
 7174TIP3   OH243012   6.213   0.666  14.950
 7174TIP3    H143013   6.150   0.666  15.023
 7174TIP3    H243014   6.215   0.757  14.921
 7175TIP3   OH243015   6.209   0.660  14.443
 7175TIP3    H143016   6.114   0.648  14.437
 7175TIP3    H243017   6.240   0.649  14.353
 7176TIP3   OH243018   6.748   0.701  14.308
 7176TIP3    H143019   6.727   0.788  14.273
 7176TIP3    H243020   6.822   0.672  14.255
 7177TIP3   OH243021   6.674   0.703  15.426
 7177TIP3    H143022   6.625   0.630  15.464
 7177TIP3    H243023   6.762   0.696  15.463
 7178TIP3   OH243024   6.832   0.644  14.570
 7178TIP3    H143025   6.792   0.696  14.500
 7178TIP3    H243026   6.877   0.573  14.525
 7179TIP3   OH243027   6.005   0.671  15.130
 7179TIP3    H143028   6.004   0.724  15.210
 7179TIP3    H243029   5.961   0.589  15.154
 7180TIP3   OH243030   6.312   0.399  13.806
 7180TIP3    H143031   6.285   0.398  13.898
 7180TIP3    H243032   6.256   0.465  13.765
 7181TIP3   OH243033   5.648   0.338  14.544
 7181TIP3    H143034   5.698   0.366  14.620
 7181TIP3    H243035   5.686   0.386  14.470
 7182TIP3   OH243036   5.692   0.449  14.027
 7182TIP3    H143037   5.764   0.492  13.980
 7182TIP3    H243038   5.630   0.520  14.044
 7183TIP3   OH243039   6.801   0.785  15.029
 7183TIP3    H143040   6.841   0.728  14.964
 7183TIP3    H243041   6.737   0.729  15.073
 7184TIP3   OH243042   6.526   0.408  14.541
 7184TIP3    H143043   6.436   0.396  14.572
 7184TIP3    H243044   6.580   0.369  14.609
 7185TIP3   OH243045   5.948   0.571  14.408
 7185TIP3    H143046   5.875   0.598  14.353
 7185TIP3    H243047   5.973   0.485  14.375
 7186TIP3   OH243048   6.278   0.600  14.184
 7186TIP3    H143049   6.371   0.591  14.205
 7186TIP3    H243050   6.276   0.639  14.097
 7187TIP3   OH243051   6.902   0.336  14.858
 7187TIP3    H143052   6.868   0.341  14.947
 7187TIP3    H243053   6.828   0.303  14.806
 7188TIP3   OH243054   6.258   0.686  13.925
 7188TIP3    H143055   6.205   0.664  13.849
 7188TIP3    H243056   6.335   0.729  13.889
 7189TIP3   OH243057   7.259   1.914  15.488
 7189TIP3    H143058   7.269   1.981  15.420
 7189TIP3    H243059   7.348   1.888  15.509
 7190TIP3   OH243060   6.007   1.175  15.419
 7190TIP3    H143061   6.073   1.174  15.488
 7190TIP3    H243062   5.924   1.180  15.467
 7191TIP3   OH243063   6.581   0.711  14.717
 7191TIP3    H143064   6.650   0.664  14.670
 7191TIP3    H243065   6.554   0.652  14.787
 7192TIP3   OH243066   6.069   0.318  14.352
 7192TIP3    H143067   6.036   0.231  14.376
 7192TIP3    H243068   6.104   0.306  14.264
 7193TIP3   OH243069   6.476   0.572  14.939
 7193TIP3    H143070   6.393   0.619  14.950
 7193TIP3    H243071   6.527   0.596  15.016
 7194TIP3   OH243072   6.505   1.124  14.119
 7194TIP3    H143073   6.434   1.092  14.064
 7194TIP3    H243074   6.463   1.152  14.200
 7195TIP3   OH243075   7.183   1.058  14.982
 7195TIP3    H143076   7.263   1.046  14.932
 7195TIP3    H243077   7.113   1.051  14.917
 7196TIP3   OH243078   6.886   0.413  14.003
 7196TIP3    H143079   6.794   0.414  13.977
 7196TIP3    H243080   6.902   0.501  14.036
 7197TIP3   OH243081   6.654   1.175  15.241
 7197TIP3    H143082   6.721   1.152  15.306
 7197TIP3    H243083   6.626   1.263  15.266
 7198TIP3   OH243084   6.962   0.646  14.135
 7198TIP3    H143085   7.051   0.628  14.165
 7198TIP3    H243086   6.967   0.732  14.094
 7199TIP3   OH243087   6.032   1.071  14.661
 7199TIP3    H143088   6.089   1.063  14.584
 7199TIP3    H243089   6.076   1.020  14.729
 7200TIP3   OH243090   6.722   1.276  14.055
 7200TIP3    H143091   6.687   1.365  14.057
 7200TIP3    H243092   6.646   1.221  14.075
 7201TIP3   OH243093   5.744   0.912  15.222
 7201TIP3    H143094   5.722   0.872  15.306
 7201TIP3    H243095   5.672   0.888  15.164
 7202TIP3   OH243096   6.456   0.877  15.480
 7202TIP3    H143097   6.391   0.849  15.416
 7202TIP3    H243098   6.537   0.836  15.453
 7203TIP3   OH243099   6.850   1.441  15.259
 7203TIP3    H143100   6.756   1.454  15.248
 7203TIP3    H243101   6.867   1.465  15.350
 7204TIP3   OH243102   7.282   1.533  14.128
 7204TIP3    H143103   7.219   1.504  14.193
 7204TIP3    H243104   7.270   1.473  14.054
 7205TIP3   OH243105   6.988   1.029  14.785
 7205TIP3    H143106   6.893   1.019  14.779
 7205TIP3    H243107   7.022   0.957  14.732
 7206TIP3   OH243108   6.305   1.443  14.470
 7206TIP3    H143109   6.342   1.525  14.438
 7206TIP3    H243110   6.212   1.449  14.451
 7207TIP3   OH243111   5.858   0.891  13.922
 7207TIP3    H143112   5.904   0.959  13.972
 7207TIP3    H243113   5.767   0.897  13.950
 7208TIP3   OH243114   6.366   1.210  14.334
 7208TIP3    H143115   6.363   1.291  14.384
 7208TIP3    H243116   6.314   1.148  14.385
 7209TIP3   OH243117   6.482   1.611  15.040
 7209TIP3    H143118   6.540   1.684  15.019
 7209TIP3    H243119   6.533   1.555  15.099
 7210TIP3   OH243120   6.284   1.702  14.360
 7210TIP3    H143121   6.191   1.719  14.376
 7210TIP3    H243122   6.328   1.781  14.392
 7211TIP3   OH243123   6.778   1.242  15.001
 7211TIP3    H143124   6.737   1.214  15.083
 7211TIP3    H243125   6.852   1.182  14.989
 7212TIP3   OH243126   7.058   1.338  13.938
 7212TIP3    H143127   7.089   1.284  14.011
 7212TIP3    H243128   6.971   1.305  13.918
 7213TIP3   OH243129   7.081   1.628  15.230
 7213TIP3    H143130   6.997   1.614  15.187
 7213TIP3    H243131   7.118   1.706  15.187
 7214TIP3   OH243132   5.884   0.422  15.183
 7214TIP3    H143133   5.791   0.439  15.172
 7214TIP3    H243134   5.889   0.351  15.247
 7215TIP3   OH243135   7.186   1.193  14.131
 7215TIP3    H143136   7.150   1.124  14.186
 7215TIP3    H243137   7.273   1.209  14.167
 7216TIP3   OH243138   5.881   1.589  15.035
 7216TIP3    H143139   5.910   1.517  15.090
 7216TIP3    H243140   5.894   1.667  15.088
 7217TIP3   OH243141   6.435   1.417  13.778
 7217TIP3    H143142   6.444   1.333  13.733
 7217TIP3    H243143   6.399   1.395  13.864
 7218TIP3   OH243144   6.312   1.387  14.028
 7218TIP3    H143145   6.359   1.340  14.096
 7218TIP3    H243146   6.322   1.479  14.051
 7219TIP3   OH243147   5.960   1.099  14.082
 7219TIP3    H143148   5.892   1.149  14.127
 7219TIP3    H243149   6.008   1.164  14.031
 7220TIP3   OH243150   6.794   0.357  15.109
 7220TIP3    H143151   6.859   0.379  15.175
 7220TIP3    H243152   6.749   0.280  15.143
 7221TIP3   OH243153   6.869   0.284  14.244
 7221TIP3    H143154   6.875   0.322  14.156
 7221TIP3    H243155   6.904   0.351  14.302
 7222TIP3   OH243156   6.608   1.521  14.061
 7222TIP3    H143157   6.523   1.556  14.086
 7222TIP3    H243158   6.658   1.597  14.032
 7223TIP3   OH243159   6.526   0.539  14.296
 7223TIP3    H143160   6.602   0.596  14.294
 7223TIP3    H243161   6.525   0.503  14.385
 7224TIP3   OH243162   6.643   0.601  15.160
 7224TIP3    H143163   6.653   0.628  15.251
 7224TIP3    H243164   6.688   0.516  15.155
 7225TIP3   OH243165   6.628   0.212  14.357
 7225TIP3    H143166   6.620   0.286  14.417
 7225TIP3    H243167   6.716   0.222  14.319
 7226TIP3   OH243168   6.365   1.644  14.105
 7226TIP3    H143169   6.373   1.728  14.060
 7226TIP3    H243170   6.338   1.667  14.194
 7227TIP3   OH243171   6.209   0.353  14.073
 7227TIP3    H143172   6.207   0.442  14.110
 7227TIP3    H243173   6.295   0.319  14.097
 7228TIP3   OH243174   7.263   0.386  15.225
 7228TIP3    H143175   7.180   0.428  15.248
 7228TIP3    H243176   7.244   0.338  15.145
 7229TIP3   OH243177   7.067   0.784  14.669
 7229TIP3    H143178   6.983   0.747  14.639
 7229TIP3    H243179   7.089   0.733  14.747
 7230TIP3   OH243180   6.068   1.305  13.927
 7230TIP3    H143181   6.142   1.349  13.968
 7230TIP3    H243182   6.107   1.253  13.856
 7231TIP3   OH243183   5.859   0.613  13.889
 7231TIP3    H143184   5.868   0.708  13.902
 7231TIP3    H243185   5.883   0.599  13.798
 7232TIP3   OH243186   7.235   1.710  14.848
 7232TIP3    H143187   7.177   1.786  14.838
 7232TIP3    H243188   7.313   1.733  14.798
 7233TIP3   OH243189   5.937   0.130  14.699
 7233TIP3    H143190   5.951   0.136  14.605
 7233TIP3    H243191   5.973   0.044  14.724
 7234TIP3   OH243192   5.826   1.532  14.312
 7234TIP3    H143193   5.760   1.556  14.377
 7234TIP3    H243194   5.813   1.594  14.240
 7235TIP3   OH243195   5.828   1.807  15.536
 7235TIP3    H143196   5.885   1.804  15.613
 7235TIP3    H243197   5.824   1.716  15.506
 7236TIP3   OH243198   6.234   1.616  15.627
 7236TIP3    H143199   6.308   1.559  15.650
 7236TIP3    H243200   6.205   1.584  15.541
 7237TIP3   OH243201   6.635   1.606  13.755
 7237TIP3    H143202   6.569   1.539  13.771
 7237TIP3    H243203   6.711   1.558  13.722
 7238TIP3   OH243204   6.865   1.474  15.536
 7238TIP3    H143205   6.853   1.390  15.579
 7238TIP3    H243206   6.943   1.511  15.577
 7239TIP3   OH243207   7.070   1.575  13.796
 7239TIP3    H143208   7.086   1.492  13.842
 7239TIP3    H243209   7.139   1.579  13.730
 7240TIP3   OH243210   5.762   1.158  15.552
 7240TIP3    H143211   5.772   1.063  15.547
 7240TIP3    H243212   5.685   1.178  15.498
 7241TIP3   OH243213   6.196   1.134  13.756
 7241TIP3    H143214   6.221   1.083  13.834
 7241TIP3    H243215   6.279   1.150  13.710
 7242TIP3   OH243216   6.430   1.165  15.526
 7242TIP3    H143217   6.416   1.206  15.441
 7242TIP3    H243218   6.462   1.077  15.506
 7243TIP3   OH243219   6.814   1.267  13.797
 7243TIP3    H143220   6.771   1.262  13.883
 7243TIP3    H243221   6.791   1.184  13.755
 7244TIP3   OH243222   6.952   1.187  15.294
 7244TIP3    H143223   7.043   1.189  15.265
 7244TIP3    H243224   6.918   1.274  15.273
 7245TIP3   OH243225   5.840   0.895  15.516
 7245TIP3    H143226   5.924   0.884  15.471
 7245TIP3    H243227   5.860   0.878  15.608
 7246TIP3   OH243228   6.300   1.001  13.979
 7246TIP3    H143229   6.256   0.954  14.051
 7246TIP3    H243230   6.354   0.935  13.936
 7247TIP3   OH243231   6.272   0.794  15.282
 7247TIP3    H143232   6.191   0.846  15.277
 7247TIP3    H243233   6.329   0.831  15.215
 7248TIP3   OH243234   6.468   0.834  13.828
 7248TIP3    H143235   6.466   0.863  13.737
 7248TIP3    H243236   6.561   0.818  13.846
 7249TIP3   OH243237   6.762   1.012  15.573
 7249TIP3    H143238   6.838   0.979  15.526
 7249TIP3    H243239   6.728   0.936  15.621
 7250TIP3   OH243240   6.306   0.530  15.349
 7250TIP3    H143241   6.317   0.477  15.270
 7250TIP3    H243242   6.300   0.620  15.317
 7251TIP3   OH243243   6.335   0.388  15.108
 7251TIP3    H143244   6.391   0.430  15.042
 7251TIP3    H243245   6.249   0.385  15.068
 7252TIP3   OH243246   6.450   0.906  15.111
 7252TIP3    H143247   6.541   0.929  15.128
 7252TIP3    H243248   6.416   0.980  15.061
 7253TIP3   OH243249   6.908   0.654  15.583
 7253TIP3    H143250   6.921   0.570  15.628
 7253TIP3    H243251   6.995   0.675  15.548
 7254TIP3   OH243252   7.006   0.965  15.443
 7254TIP3    H143253   6.979   1.044  15.396
 7254TIP3    H243254   7.102   0.969  15.443
 7255TIP3   OH243255   6.139   0.575  15.567
 7255TIP3    H143256   6.057   0.529  15.551
 7255TIP3    H243257   6.185   0.573  15.483
 7256TIP3   OH243258   6.381   0.134  15.203
 7256TIP3    H143259   6.366   0.224  15.172
 7256TIP3    H243260   6.311   0.083  15.163
 7257TIP3   OH243261   6.532   0.482  15.508
 7257TIP3    H143262   6.498   0.445  15.590
 7257TIP3    H243263   6.455   0.490  15.452
 7258TIP3   OH243264   6.784   0.417  15.402
 7258TIP3    H143265   6.698   0.426  15.442
 7258TIP3    H243266   6.841   0.390  15.474
 7259TIP3   OH243267   6.966   0.349  15.596
 7259TIP3    H143268   6.968   0.254  15.589
 7259TIP3    H243269   6.938   0.367  15.686
 7260TIP3   OH243270   5.911   0.413  15.563
 7260TIP3    H143271   5.917   0.352  15.490
 7260TIP3    H243272   5.911   0.357  15.641
 7261TIP3   OH243273   6.427   0.082  15.469
 7261TIP3    H143274   6.375   0.006  15.493
 7261TIP3    H243275   6.407   0.096  15.376
 7262TIP3   OH243276   6.456   0.158  15.738
 7262TIP3    H143277   6.477   0.112  15.656
 7262TIP3    H243278   6.404   0.233  15.709
 7263TIP3   OH243279   6.436   1.880  13.982
 7263TIP3    H143280   6.527   1.851  13.979
 7263TIP3    H243281   6.430   1.945  13.912
 7264TIP3   OH243282   5.803   1.359  13.884
 7264TIP3    H143283   5.897   1.351  13.901
 7264TIP3    H243284   5.785   1.290  13.819
 7265TIP3   OH243285   5.656   1.839  14.433
 7265TIP3    H143286   5.607   1.807  14.358
 7265TIP3    H243287   5.674   1.761  14.486
 7266TIP3   OH243288   5.724   1.620  14.592
 7266TIP3    H143289   5.710   1.536  14.636
 7266TIP3    H243290   5.779   1.670  14.653
 7267TIP3   OH243291   7.233   1.316  15.709
 7267TIP3    H143292   7.165   1.287  15.769
 7267TIP3    H243293   7.308   1.336  15.766
 7268TIP3   OH243294   7.251   1.432  15.121
 7268TIP3    H143295   7.196   1.498  15.165
 7268TIP3    H243296   7.221   1.432  15.030
 7269TIP3   OH243297   7.304   0.646  13.830
 7269TIP3    H143298   7.260   0.698  13.762
 7269TIP3    H243299   7.280   0.556  13.811
 7270TIP3   OH243300   7.185   0.784  14.416
 7270TIP3    H143301   7.189   0.689  14.404
 7270TIP3    H243302   7.160   0.795  14.508
 7271TIP3   OH243303   5.712   0.980  14.851
 7271TIP3    H143304   5.722   0.968  14.757
 7271TIP3    H243305   5.795   0.949  14.888
 7272TIP3   OH243306   7.276   1.016  15.424
 7272TIP3    H143307   7.336   0.957  15.378
 7272TIP3    H243308   7.256   1.085  15.360
 7273TIP3   OH243309   7.243   0.384  13.816
 7273TIP3    H143310   7.295   0.306  13.836
 7273TIP3    H243311   7.163   0.350  13.776
 7274TIP3   OH243312   7.208   0.534  14.260
 7274TIP3    H143313   7.211   0.443  14.289
 7274TIP3    H243314   7.271   0.539  14.189
 7275TIP3   OH243315   7.269   0.467  14.808
 7275TIP3    H143316   7.357   0.434  14.788
 7275TIP3    H243317   7.282   0.560  14.827
 7276TIP3   OH243318   7.273   0.714  15.132
 7276TIP3    H143319   7.179   0.733  15.138
 7276TIP3    H243320   7.291   0.708  15.038
 7277TIP3   OH243321   5.684   0.494  15.419
 7277TIP3    H143322   5.762   0.485  15.475
 7277TIP3    H243323   5.637   0.412  15.430
 7278TIP3   OH243324   7.201   0.268  14.323
 7278TIP3    H143325   7.238   0.257  14.411
 7278TIP3    H243326   7.154   0.186  14.307
 7279TIP3   OH243327   5.818   0.370  14.762
 7279TIP3    H143328   5.855   0.282  14.751
 7279TIP3    H243329   5.894   0.428  14.766
 7280TIP3   OH243330   5.630   0.657  14.798
 7280TIP3    H143331   5.702   0.654  14.736
 7280TIP3    H243332   5.662   0.711  14.870
 7281TIP3   OH243333   5.678   0.272  14.233
 7281TIP3    H143334   5.585   0.270  14.255
 7281TIP3    H243335   5.687   0.344  14.171
 7282TIP3   OH243336   7.149   1.723  14.435
 7282TIP3    H143337   7.223   1.671  14.468
 7282TIP3    H243338   7.151   1.802  14.488
 7283TIP3   OH243339   5.730   0.108  15.104
 7283TIP3    H143340   5.647   0.096  15.150
 7283TIP3    H243341   5.710   0.172  15.036
 7284TIP3   OH243342   5.883   1.523  15.489
 7284TIP3    H143343   5.795   1.508  15.455
 7284TIP3    H243344   5.880   1.488  15.578
 7285TIP3   OH243345   6.221   1.597  15.123
 7285TIP3    H143346   6.192   1.686  15.102
 7285TIP3    H243347   6.314   1.596  15.101
 7286TIP3   OH243348   6.591   1.710  15.403
 7286TIP3    H143349   6.605   1.682  15.493
 7286TIP3    H243350   6.671   1.759  15.381
 7287TIP3   OH243351   6.825   1.847  15.354
 7287TIP3    H143352   6.890   1.814  15.292
 7287TIP3    H243353   6.877   1.871  15.431
 7288TIP3   OH243354   5.903   1.866  15.141
 7288TIP3    H143355   5.829   1.916  15.106
 7288TIP3    H243356   5.924   1.908  15.224
 7289TIP3   OH243357   6.170   1.859  15.058
 7289TIP3    H143358   6.077   1.869  15.078
 7289TIP3    H243359   6.180   1.903  14.973
 7290TIP3   OH243360   6.634   1.826  14.964
 7290TIP3    H143361   6.604   1.860  14.880
 7290TIP3    H243362   6.645   1.904  15.019
 7291TIP3   OH243363   6.889   1.744  15.038
 7291TIP3    H143364   6.799   1.766  15.015
 7291TIP3    H243365   6.943   1.806  14.989
 7292TIP3   OH243366   7.213   1.828  15.104
 7292TIP3    H143367   7.156   1.887  15.054
 7292TIP3    H243368   7.248   1.768  15.038
 7293TIP3   OH243369   5.888   1.737  14.795
 7293TIP3    H143370   5.887   1.692  14.880
 7293TIP3    H243371   5.965   1.702  14.750
 7294TIP3   OH243372   6.097   1.606  14.680
 7294TIP3    H143373   6.085   1.514  14.702
 7294TIP3    H243374   6.184   1.628  14.713
 7295TIP3   OH243375   6.352   1.634  14.794
 7295TIP3    H143376   6.363   1.543  14.764
 7295TIP3    H243377   6.391   1.635  14.881
 7296TIP3   OH243378   6.688   0.246  14.702
 7296TIP3    H143379   6.616   0.187  14.726
 7296TIP3    H243380   6.753   0.189  14.661
 7297TIP3   OH243381   7.130   0.023  14.753
 7297TIP3    H143382   7.204   0.023  14.693
 7297TIP3    H243383   7.056   0.054  14.701
 7298TIP3   OH243384   5.990   0.059  14.435
 7298TIP3    H143385   5.921   0.035  14.373
 7298TIP3    H243386   6.000  -0.019  14.490
 7299TIP3   OH243387   5.811   0.150  13.985
 7299TIP3    H143388   5.883   0.189  13.935
 7299TIP3    H243389   5.780   0.222  14.041
 7300TIP3   OH243390   6.411   0.092  14.474
 7300TIP3    H143391   6.491   0.120  14.429
 7300TIP3    H243392   6.430   0.103  14.567
 7301TIP3   OH243393   6.907   0.119  14.594
 7301TIP3    H143394   6.965   0.186  14.559
 7301TIP3    H243395   6.918   0.044  14.535
 7302TIP3   OH243396   7.043   0.069  14.208
 7302TIP3    H143397   6.973   0.134  14.203
 7302TIP3    H243398   7.073   0.058  14.117
 7303TIP3   OH243399   5.791   1.714  14.109
 7303TIP3    H143400   5.719   1.709  14.046
 7303TIP3    H243401   5.820   1.805  14.104
 7304TIP3   OH243402   6.024   0.282  13.871
 7304TIP3    H143403   6.076   0.230  13.810
 7304TIP3    H243404   6.085   0.304  13.941
 7305TIP3   OH243405   6.467   0.311  14.154
 7305TIP3    H143406   6.514   0.246  14.206
 7305TIP3    H243407   6.485   0.394  14.198
 7306TIP3   OH243408   6.690   1.775  13.962
 7306TIP3    H143409   6.783   1.794  13.951
 7306TIP3    H243410   6.666   1.727  13.883
 7307TIP3   OH243411   5.929   0.212  15.374
 7307TIP3    H143412   5.883   0.139  15.332
 7307TIP3    H243413   5.996   0.170  15.428
 7308TIP3   OH243414   6.133   0.133  15.559
 7308TIP3    H143415   6.212   0.185  15.544
 7308TIP3    H243416   6.165   0.047  15.584
 7309TIP3   OH243417   6.006   1.751  13.818
 7309TIP3    H143418   5.986   1.741  13.911
 7309TIP3    H243419   6.081   1.692  13.803
 7310TIP3   OH243420   6.976   0.079  15.566
 7310TIP3    H143421   7.027   0.020  15.621
 7310TIP3    H243422   6.920   0.022  15.514
 7311TIP3   OH243423   7.218   1.641  15.466
 7311TIP3    H143424   7.175   1.622  15.382
 7311TIP3    H243425   7.237   1.735  15.463
 7312TIP3   OH243426   1.195   2.921  14.420
 7312TIP3    H143427   1.183   3.015  14.408
 7312TIP3    H243428   1.127   2.882  14.366
 7313TIP3   OH243429   1.076   2.834  14.825
 7313TIP3    H143430   1.103   2.789  14.905
 7313TIP3    H243431   1.028   2.767  14.776
 7314TIP3   OH243432   0.298   2.749  14.938
 7314TIP3    H143433   0.305   2.678  15.002
 7314TIP3    H243434   0.388   2.769  14.914
 7315TIP3   OH243435   1.459   3.137  14.650
 7315TIP3    H143436   1.422   3.061  14.695
 7315TIP3    H243437   1.476   3.200  14.721
 7316TIP3   OH243438   0.419   3.239  14.751
 7316TIP3    H143439   0.394   3.150  14.727
 7316TIP3    H243440   0.513   3.234  14.768
 7317TIP3   OH243441   0.105   2.575  14.343
 7317TIP3    H143442   0.038   2.641  14.360
 7317TIP3    H243443   0.076   2.498  14.393
 7318TIP3   OH243444   0.150   2.822  14.602
 7318TIP3    H143445   0.179   2.731  14.611
 7318TIP3    H243446   0.231   2.872  14.594
 7319TIP3   OH243447   1.201   3.597  14.689
 7319TIP3    H143448   1.232   3.551  14.611
 7319TIP3    H243449   1.184   3.527  14.752
 7320TIP3   OH243450   0.913   3.083  14.828
 7320TIP3    H143451   0.953   3.003  14.794
 7320TIP3    H243452   0.980   3.120  14.886
 7321TIP3   OH243453   1.811   2.206  14.921
 7321TIP3    H143454   1.820   2.278  14.984
 7321TIP3    H243455   1.862   2.234  14.845
 7322TIP3   OH243456   1.228   2.501  14.840
 7322TIP3    H143457   1.235   2.407  14.853
 7322TIP3    H243458   1.215   2.511  14.746
 7323TIP3   OH243459   0.590   2.303  14.567
 7323TIP3    H143460   0.602   2.389  14.527
 7323TIP3    H243461   0.539   2.254  14.502
 7324TIP3   OH243462   1.354   2.338  14.415
 7324TIP3    H143463   1.393   2.305  14.496
 7324TIP3    H243464   1.427   2.375  14.366
 7325TIP3   OH243465   0.230   2.559  14.663
 7325TIP3    H143466   0.297   2.514  14.714
 7325TIP3    H243467   0.244   2.528  14.573
 7326TIP3   OH243468   0.704   2.713  14.631
 7326TIP3    H143469   0.791   2.682  14.658
 7326TIP3    H243470   0.674   2.648  14.569
 7327TIP3   OH243471   1.830   2.381  15.136
 7327TIP3    H143472   1.758   2.442  15.120
 7327TIP3    H243473   1.857   2.399  15.226
 7328TIP3   OH243474   0.432   2.225  14.999
 7328TIP3    H143475   0.409   2.279  14.924
 7328TIP3    H243476   0.360   2.238  15.062
 7329TIP3   OH243477   1.161   3.177  14.319
 7329TIP3    H143478   1.141   3.169  14.226
 7329TIP3    H243479   1.114   3.256  14.347
 7330TIP3   OH243480   0.690   3.003  14.974
 7330TIP3    H143481   0.638   3.074  15.011
 7330TIP3    H243482   0.759   3.048  14.924
 7331TIP3   OH243483   1.441   2.283  14.668
 7331TIP3    H143484   1.373   2.256  14.730
 7331TIP3    H243485   1.498   2.341  14.718
 7332TIP3   OH243486   0.418   2.383  14.773
 7332TIP3    H143487   0.476   2.439  14.825
 7332TIP3    H243488   0.474   2.348  14.705
 7333TIP3   OH243489   0.535   3.205  15.092
 7333TIP3    H143490   0.541   3.300  15.082
 7333TIP3    H243491   0.444   3.189  15.115
 7334TIP3   OH243492   0.120   3.161  14.172
 7334TIP3    H143493   0.120   3.198  14.084
 7334TIP3    H243494   0.151   3.231  14.229
 7335TIP3   OH243495   1.484   3.344  14.847
 7335TIP3    H143496   1.389   3.348  14.859
 7335TIP3    H243497   1.508   3.432  14.818
 7336TIP3   OH243498   1.562   2.097  15.006
 7336TIP3    H143499   1.494   2.145  14.959
 7336TIP3    H243500   1.644   2.126  14.966
 7337TIP3   OH243501   0.790   1.913  14.751
 7337TIP3    H143502   0.762   1.821  14.751
 7337TIP3    H243503   0.712   1.962  14.776
 7338TIP3   OH243504   1.314   3.496  14.455
 7338TIP3    H143505   1.356   3.412  14.440
 7338TIP3    H243506   1.387   3.559  14.461
 7339TIP3   OH243507   1.419   3.252  14.403
 7339TIP3    H143508   1.340   3.208  14.370
 7339TIP3    H243509   1.442   3.204  14.482
 7340TIP3   OH243510   1.602   3.123  15.198
 7340TIP3    H143511   1.593   3.061  15.125
 7340TIP3    H243512   1.618   3.207  15.156
 7341TIP3   OH243513   1.045   2.825  14.205
 7341TIP3    H143514   0.975   2.885  14.178
 7341TIP3    H243515   1.110   2.832  14.135
 7342TIP3   OH243516   1.072   2.715  13.853
 7342TIP3    H143517   1.127   2.737  13.928
 7342TIP3    H243518   1.121   2.648  13.806
 7343TIP3   OH243519   1.757   2.774  15.018
 7343TIP3    H143520   1.686   2.837  15.012
 7343TIP3    H243521   1.821   2.803  14.953
 7344TIP3   OH243522   1.412   2.850  14.269
 7344TIP3    H143523   1.345   2.875  14.333
 7344TIP3    H243524   1.478   2.803  14.321
 7345TIP3   OH243525   1.369   2.654  15.225
 7345TIP3    H143526   1.368   2.726  15.288
 7345TIP3    H243527   1.303   2.677  15.160
 7346TIP3   OH243528   0.564   2.896  14.465
 7346TIP3    H143529   0.539   2.854  14.383
 7346TIP3    H243530   0.619   2.831  14.509
 7347TIP3   OH243531   0.704   3.257  14.735
 7347TIP3    H143532   0.702   3.266  14.640
 7347TIP3    H243533   0.780   3.201  14.752
 7348TIP3   OH243534   0.556   2.800  14.847
 7348TIP3    H143535   0.612   2.776  14.773
 7348TIP3    H243536   0.604   2.868  14.892
 7349TIP3   OH243537   1.217   3.368  14.906
 7349TIP3    H143538   1.204   3.434  14.973
 7349TIP3    H243539   1.179   3.288  14.942
 7350TIP3   OH243540   0.697   3.226  15.317
 7350TIP3    H143541   0.636   3.287  15.359
 7350TIP3    H243542   0.652   3.199  15.237
 7351TIP3   OH243543   1.275   2.781  14.039
 7351TIP3    H143544   1.327   2.816  14.112
 7351TIP3    H243545   1.329   2.794  13.962
 7352TIP3   OH243546   0.412   2.833  15.264
 7352TIP3    H143547   0.402   2.906  15.324
 7352TIP3    H243548   0.326   2.824  15.223
 7353TIP3   OH243549   1.058   3.428  14.377
 7353TIP3    H143550   1.142   3.458  14.413
 7353TIP3    H243551   1.022   3.505  14.333
 7354TIP3   OH243552   0.505   3.421  15.381
 7354TIP3    H143553   0.519   3.447  15.290
 7354TIP3    H243554   0.410   3.424  15.393
 7355TIP3   OH243555   1.639   1.924  14.038
 7355TIP3    H143556   1.555   1.948  14.076
 7355TIP3    H243557   1.673   2.006  14.003
 7356TIP3   OH243558   0.477   2.800  14.212
 7356TIP3    H143559   0.414   2.861  14.174
 7356TIP3    H243560   0.435   2.714  14.204
 7357TIP3   OH243561   1.786   3.368  13.901
 7357TIP3    H143562   1.795   3.463  13.901
 7357TIP3    H243563   1.876   3.336  13.891
 7358TIP3   OH243564   0.168   3.028  15.085
 7358TIP3    H143565   0.134   3.006  14.998
 7358TIP3    H243566   0.155   2.948  15.136
 7359TIP3   OH243567   0.098   3.345  14.739
 7359TIP3    H143568   0.180   3.305  14.767
 7359TIP3    H243569   0.031   3.302  14.792
 7360TIP3   OH243570   1.851   3.451  15.419
 7360TIP3    H143571   1.848   3.358  15.396
 7360TIP3    H243572   1.765   3.471  15.454
 7361TIP3   OH243573   0.937   3.352  15.268
 7361TIP3    H143574   0.931   3.436  15.313
 7361TIP3    H243575   0.853   3.310  15.283
 7362TIP3   OH243576   1.026   3.688  14.245
 7362TIP3    H143577   1.004   3.693  14.153
 7362TIP3    H243578   0.995   3.770  14.283
 7363TIP3   OH243579   0.372   3.591  14.438
 7363TIP3    H143580   0.389   3.558  14.526
 7363TIP3    H243581   0.318   3.523  14.397
 7364TIP3   OH243582   1.314   3.663  13.926
 7364TIP3    H143583   1.361   3.590  13.887
 7364TIP3    H243584   1.325   3.652  14.020
 7365TIP3   OH243585   1.294   3.638  14.202
 7365TIP3    H143586   1.200   3.651  14.220
 7365TIP3    H243587   1.323   3.578  14.270
 7366TIP3   OH243588   1.504   2.514  15.432
 7366TIP3    H143589   1.462   2.554  15.355
 7366TIP3    H243590   1.524   2.425  15.404
 7367TIP3   OH243591   0.278   3.223  15.238
 7367TIP3    H143592   0.308   3.163  15.305
 7367TIP3    H243593   0.226   3.169  15.178
 7368TIP3   OH243594   0.542   2.026  14.833
 7368TIP3    H143595   0.468   2.018  14.773
 7368TIP3    H243596   0.518   2.098  14.891
 7369TIP3   OH243597   1.022   2.000  15.178
 7369TIP3    H143598   1.068   1.952  15.247
 7369TIP3    H243599   0.930   1.993  15.202
 7370TIP3   OH243600   1.317   2.375  15.232
 7370TIP3    H143601   1.253   2.359  15.302
 7370TIP3    H243602   1.318   2.470  15.221
 7371TIP3   OH243603   1.419   2.784  13.804
 7371TIP3    H143604   1.395   2.817  13.717
 7371TIP3    H243605   1.507   2.818  13.819
 7372TIP3   OH243606   0.976   2.231  13.902
 7372TIP3    H143607   0.919   2.228  13.979
 7372TIP3    H243608   0.939   2.166  13.842
 7373TIP3   OH243609   0.560   2.541  14.952
 7373TIP3    H143610   0.495   2.539  15.022
 7373TIP3    H243611   0.563   2.633  14.924
 7374TIP3   OH243612   0.596   2.550  14.442
 7374TIP3    H143613   0.501   2.538  14.443
 7374TIP3    H243614   0.621   2.534  14.351
 7375TIP3   OH243615   1.098   2.580  14.316
 7375TIP3    H143616   1.073   2.667  14.284
 7375TIP3    H243617   1.166   2.550  14.256
 7376TIP3   OH243618   1.025   2.582  15.428
 7376TIP3    H143619   0.972   2.511  15.465
 7376TIP3    H243620   1.112   2.571  15.467
 7377TIP3   OH243621   1.199   2.516  14.567
 7377TIP3    H143622   1.154   2.561  14.496
 7377TIP3    H243623   1.244   2.443  14.526
 7378TIP3   OH243624   0.345   2.537  15.126
 7378TIP3    H143625   0.339   2.588  15.207
 7378TIP3    H243626   0.300   2.455  15.146
 7379TIP3   OH243627   0.660   2.285  13.803
 7379TIP3    H143628   0.626   2.272  13.892
 7379TIP3    H243629   0.602   2.350  13.764
 7380TIP3   OH243630   0.062   2.345  14.487
 7380TIP3    H143631   0.084   2.318  14.576
 7380TIP3    H243632   0.063   2.264  14.436
 7381TIP3   OH243633   0.053   2.401  14.070
 7381TIP3    H143634   0.141   2.435  14.054
 7381TIP3    H243635   0.004   2.420  13.990
 7382TIP3   OH243636   1.157   2.670  15.040
 7382TIP3    H143637   1.190   2.614  14.969
 7382TIP3    H243638   1.089   2.618  15.082
 7383TIP3   OH243639   0.869   2.258  14.525
 7383TIP3    H143640   0.780   2.263  14.558
 7383TIP3    H243641   0.920   2.222  14.597
 7384TIP3   OH243642   0.342   2.465  14.420
 7384TIP3    H143643   0.266   2.498  14.371
 7384TIP3    H243644   0.352   2.375  14.391
 7385TIP3   OH243645   0.628   2.476  14.178
 7385TIP3    H143646   0.723   2.466  14.188
 7385TIP3    H243647   0.616   2.516  14.092
 7386TIP3   OH243648   1.231   2.224  14.842
 7386TIP3    H143649   1.190   2.225  14.929
 7386TIP3    H243650   1.166   2.181  14.787
 7387TIP3   OH243651   0.581   2.569  13.926
 7387TIP3    H143652   0.524   2.543  13.854
 7387TIP3    H243653   0.656   2.612  13.884
 7388TIP3   OH243654   1.587   3.790  15.497
 7388TIP3    H143655   1.610   3.824  15.411
 7388TIP3    H243656   1.659   3.818  15.554
 7389TIP3   OH243657   0.341   3.045  15.441
 7389TIP3    H143658   0.410   3.042  15.508
 7389TIP3    H243659   0.259   3.049  15.490
 7390TIP3   OH243660   0.940   2.598  14.727
 7390TIP3    H143661   1.007   2.546  14.682
 7390TIP3    H243662   0.906   2.539  14.795
 7391TIP3   OH243663   0.426   2.202  14.362
 7391TIP3    H143664   0.378   2.123  14.387
 7391TIP3    H243665   0.448   2.188  14.270
 7392TIP3   OH243666   0.822   2.451  14.938
 7392TIP3    H143667   0.736   2.492  14.949
 7392TIP3    H243668   0.871   2.477  15.016
 7393TIP3   OH243669   0.848   3.007  14.128
 7393TIP3    H143670   0.776   2.973  14.075
 7393TIP3    H243671   0.805   3.037  14.208
 7394TIP3   OH243672   1.568   2.970  14.968
 7394TIP3    H143673   1.630   3.025  14.921
 7394TIP3    H243674   1.498   2.952  14.905
 7395TIP3   OH243675   1.228   2.281  13.996
 7395TIP3    H143676   1.138   2.278  13.963
 7395TIP3    H243677   1.238   2.370  14.029
 7396TIP3   OH243678   1.021   3.065  15.263
 7396TIP3    H143679   1.052   3.026  15.345
 7396TIP3    H243680   0.991   3.153  15.288
 7397TIP3   OH243681   1.299   2.516  14.132
 7397TIP3    H143682   1.387   2.499  14.165
 7397TIP3    H243683   1.303   2.604  14.096
 7398TIP3   OH243684   0.397   2.969  14.673
 7398TIP3    H143685   0.453   2.955  14.596
 7398TIP3    H243686   0.434   2.911  14.740
 7399TIP3   OH243687   1.060   3.161  14.055
 7399TIP3    H143688   1.027   3.251  14.059
 7399TIP3    H243689   0.984   3.107  14.078
 7400TIP3   OH243690   0.143   2.787  15.222
 7400TIP3    H143691   0.146   2.762  15.315
 7400TIP3    H243692   0.073   2.733  15.185
 7401TIP3   OH243693   0.809   2.766  15.462
 7401TIP3    H143694   0.745   2.733  15.399
 7401TIP3    H243695   0.891   2.721  15.439
 7402TIP3   OH243696   1.220   3.339  15.263
 7402TIP3    H143697   1.127   3.342  15.240
 7402TIP3    H243698   1.221   3.351  15.358
 7403TIP3   OH243699   1.752   2.551  14.069
 7403TIP3    H143700   1.711   2.530  13.985
 7403TIP3    H243701   1.778   2.643  14.060
 7404TIP3   OH243702   1.824   3.182  15.358
 7404TIP3    H143703   1.735   3.158  15.334
 7404TIP3    H243704   1.877   3.154  15.283
 7405TIP3   OH243705   1.639   3.402  14.145
 7405TIP3    H143706   1.587   3.328  14.177
 7405TIP3    H243707   1.677   3.370  14.062
 7406TIP3   OH243708   1.363   2.904  14.783
 7406TIP3    H143709   1.267   2.894  14.781
 7406TIP3    H243710   1.395   2.827  14.735
 7407TIP3   OH243711   0.637   3.329  14.473
 7407TIP3    H143712   0.663   3.413  14.435
 7407TIP3    H243713   0.542   3.331  14.473
 7408TIP3   OH243714   0.173   2.799  13.906
 7408TIP3    H143715   0.232   2.857  13.954
 7408TIP3    H243716   0.090   2.805  13.953
 7409TIP3   OH243717   0.707   3.099  14.338
 7409TIP3    H143718   0.695   3.181  14.387
 7409TIP3    H243719   0.657   3.035  14.388
 7410TIP3   OH243720   0.834   3.499  15.041
 7410TIP3    H143721   0.890   3.574  15.020
 7410TIP3    H243722   0.888   3.443  15.097
 7411TIP3   OH243723   0.637   3.586  14.362
 7411TIP3    H143724   0.545   3.603  14.380
 7411TIP3    H243725   0.683   3.663  14.397
 7412TIP3   OH243726   1.122   3.123  15.011
 7412TIP3    H143727   1.087   3.102  15.098
 7412TIP3    H243728   1.185   3.054  14.993
 7413TIP3   OH243729   1.422   3.215  13.916
 7413TIP3    H143730   1.445   3.163  13.993
 7413TIP3    H243731   1.334   3.184  13.892
 7414TIP3   OH243732   1.428   3.525  15.231
 7414TIP3    H143733   1.348   3.473  15.224
 7414TIP3    H243734   1.417   3.595  15.167
 7415TIP3   OH243735   1.819   3.641  13.918
 7415TIP3    H143736   1.858   3.708  13.861
 7415TIP3    H243737   1.746   3.686  13.961
 7416TIP3   OH243738   0.219   2.275  15.181
 7416TIP3    H143739   0.128   2.303  15.189
 7416TIP3    H243740   0.219   2.183  15.207
 7417TIP3   OH243741   1.521   3.059  14.118
 7417TIP3    H143742   1.476   2.997  14.176
 7417TIP3    H243743   1.613   3.049  14.140
 7418TIP3   OH243744   0.211   3.526  15.026
 7418TIP3    H143745   0.204   3.449  15.083
 7418TIP3    H243746   0.227   3.598  15.087
 7419TIP3   OH243747   0.786   3.299  13.778
 7419TIP3    H143748   0.790   3.214  13.734
 7419TIP3    H243749   0.750   3.279  13.865
 7420TIP3   OH243750   0.668   3.274  14.030
 7420TIP3    H143751   0.706   3.227  14.105
 7420TIP3    H243752   0.676   3.367  14.054
 7421TIP3   OH243753   0.305   2.976  14.078
 7421TIP3    H143754   0.238   3.022  14.128
 7421TIP3    H243755   0.355   3.045  14.034
 7422TIP3   OH243756   1.117   2.242  15.091
 7422TIP3    H143757   1.191   2.264  15.147
 7422TIP3    H243758   1.084   2.159  15.126
 7423TIP3   OH243759   1.208   2.169  14.249
 7423TIP3    H143760   1.214   2.208  14.162
 7423TIP3    H243761   1.250   2.232  14.307
 7424TIP3   OH243762   0.959   3.412  14.066
 7424TIP3    H143763   0.873   3.446  14.088
 7424TIP3    H243764   1.009   3.489  14.038
 7425TIP3   OH243765   0.881   2.412  14.293
 7425TIP3    H143766   0.954   2.473  14.300
 7425TIP3    H243767   0.875   2.370  14.379
 7426TIP3   OH243768   0.988   2.488  15.159
 7426TIP3    H143769   0.998   2.507  15.252
 7426TIP3    H243770   1.024   2.400  15.148
 7427TIP3   OH243771   0.967   2.070  14.341
 7427TIP3    H143772   0.941   2.139  14.402
 7427TIP3    H243773   1.054   2.095  14.311
 7428TIP3   OH243774   0.715   3.533  14.105
 7428TIP3    H143775   0.722   3.618  14.062
 7428TIP3    H243776   0.687   3.554  14.194
 7429TIP3   OH243777   0.556   2.229  14.061
 7429TIP3    H143778   0.553   2.315  14.102
 7429TIP3    H243779   0.643   2.195  14.083
 7430TIP3   OH243780   1.567   2.279  15.283
 7430TIP3    H143781   1.475   2.294  15.262
 7430TIP3    H243782   1.609   2.267  15.198
 7431TIP3   OH243783   1.439   2.655  14.660
 7431TIP3    H143784   1.355   2.613  14.637
 7431TIP3    H243785   1.481   2.593  14.719
 7432TIP3   OH243786   0.419   3.194  13.942
 7432TIP3    H143787   0.495   3.238  13.981
 7432TIP3    H243788   0.456   3.144  13.869
 7433TIP3   OH243789   0.231   2.528  13.886
 7433TIP3    H143790   0.231   2.622  13.899
 7433TIP3    H243791   0.146   2.509  13.847
 7434TIP3   OH243792   1.566   3.611  14.825
 7434TIP3    H143793   1.551   3.684  14.765
 7434TIP3    H243794   1.660   3.609  14.838
 7435TIP3   OH243795   0.295   2.007  14.703
 7435TIP3    H143796   0.301   1.997  14.608
 7435TIP3    H243797   0.256   1.925  14.733
 7436TIP3   OH243798   0.201   3.406  14.309
 7436TIP3    H143799   0.120   3.423  14.357
 7436TIP3    H243800   0.196   3.462  14.232
 7437TIP3   OH243801   0.171   3.694  15.517
 7437TIP3    H143802   0.228   3.682  15.593
 7437TIP3    H243803   0.174   3.609  15.472
 7438TIP3   OH243804   0.588   3.495  15.631
 7438TIP3    H143805   0.661   3.435  15.648
 7438TIP3    H243806   0.561   3.476  15.542
 7439TIP3   OH243807   0.986   3.488  13.754
 7439TIP3    H143808   0.919   3.421  13.770
 7439TIP3    H243809   1.062   3.439  13.724
 7440TIP3   OH243810   1.217   3.367  15.536
 7440TIP3    H143811   1.210   3.281  15.577
 7440TIP3    H243812   1.292   3.408  15.580
 7441TIP3   OH243813   1.438   3.458  13.793
 7441TIP3    H143814   1.448   3.378  13.844
 7441TIP3    H243815   1.512   3.458  13.733
 7442TIP3   OH243816   0.098   3.066  15.583
 7442TIP3    H143817   0.058   2.989  15.545
 7442TIP3    H243818   0.026   3.127  15.597
 7443TIP3   OH243819   0.549   3.023  13.772
 7443TIP3    H143820   0.572   2.973  13.850
 7443TIP3    H243821   0.632   3.035  13.726
 7444TIP3   OH243822   0.771   3.045  15.516
 7444TIP3    H143823   0.756   3.089  15.432
 7444TIP3    H243824   0.798   2.957  15.492
 7445TIP3   OH243825   1.175   3.144  13.807
 7445TIP3    H143826   1.126   3.142  13.890
 7445TIP3    H243827   1.144   3.068  13.759
 7446TIP3   OH243828   1.349   3.086  15.301
 7446TIP3    H143829   1.437   3.103  15.269
 7446TIP3    H243830   1.300   3.165  15.277
 7447TIP3   OH243831   0.133   2.717  15.484
 7447TIP3    H143832   0.118   2.622  15.481
 7447TIP3    H243833   0.170   2.732  15.571
 7448TIP3   OH243834   0.640   2.885  13.994
 7448TIP3    H143835   0.593   2.841  14.065
 7448TIP3    H243836   0.687   2.814  13.949
 7449TIP3   OH243837   0.632   2.668  15.267
 7449TIP3    H143838   0.555   2.725  15.265
 7449TIP3    H243839   0.690   2.703  15.200
 7450TIP3   OH243840   0.794   2.717  13.833
 7450TIP3    H143841   0.790   2.744  13.741
 7450TIP3    H243842   0.887   2.711  13.853
 7451TIP3   OH243843   1.127   2.905  15.540
 7451TIP3    H143844   1.206   2.869  15.501
 7451TIP3    H243845   1.092   2.834  15.594
 7452TIP3   OH243846   1.672   2.899  13.786
 7452TIP3    H143847   1.676   2.881  13.692
 7452TIP3    H243848   1.669   2.995  13.792
 7453TIP3   OH243849   0.656   2.406  15.342
 7453TIP3    H143850   0.664   2.349  15.265
 7453TIP3    H243851   0.650   2.494  15.306
 7454TIP3   OH243852   0.685   2.253  15.105
 7454TIP3    H143853   0.738   2.297  15.039
 7454TIP3    H243854   0.598   2.247  15.067
 7455TIP3   OH243855   0.808   2.788  15.099
 7455TIP3    H143856   0.900   2.811  15.110
 7455TIP3    H243857   0.769   2.864  15.058
 7456TIP3   OH243858   1.255   2.528  15.591
 7456TIP3    H143859   1.253   2.453  15.651
 7456TIP3    H243860   1.344   2.528  15.557
 7457TIP3   OH243861   1.396   2.856  15.438
 7457TIP3    H143862   1.373   2.938  15.395
 7457TIP3    H243863   1.491   2.854  15.436
 7458TIP3   OH243864   0.486   2.454  15.562
 7458TIP3    H143865   0.404   2.408  15.543
 7458TIP3    H243866   0.534   2.452  15.480
 7459TIP3   OH243867   0.744   1.992  15.187
 7459TIP3    H143868   0.724   2.082  15.161
 7459TIP3    H243869   0.680   1.939  15.139
 7460TIP3   OH243870   0.874   2.368  15.510
 7460TIP3    H143871   0.830   2.343  15.592
 7460TIP3    H243872   0.803   2.374  15.446
 7461TIP3   OH243873   1.129   2.297  15.409
 7461TIP3    H143874   1.044   2.302  15.452
 7461TIP3    H243875   1.186   2.255  15.474
 7462TIP3   OH243876   1.314   2.187  15.590
 7462TIP3    H143877   1.310   2.092  15.593
 7462TIP3    H243878   1.274   2.216  15.672
 7463TIP3   OH243879   0.272   2.278  15.513
 7463TIP3    H143880   0.279   2.210  15.446
 7463TIP3    H243881   0.281   2.230  15.596
 7464TIP3   OH243882   0.742   1.906  15.447
 7464TIP3    H143883   0.798   1.828  15.438
 7464TIP3    H243884   0.737   1.942  15.358
 7465TIP3   OH243885   0.808   2.062  15.668
 7465TIP3    H143886   0.794   2.009  15.589
 7465TIP3    H243887   0.751   2.138  15.656
 7466TIP3   OH243888   0.790   3.773  13.987
 7466TIP3    H143889   0.879   3.740  13.974
 7466TIP3    H243890   0.778   3.837  13.917
 7467TIP3   OH243891   0.150   3.223  13.899
 7467TIP3    H143892   0.241   3.244  13.920
 7467TIP3    H243893   0.157   3.155  13.832
 7468TIP3   OH243894   0.043   3.775  14.383
 7468TIP3    H143895  -0.032   3.753  14.328
 7468TIP3    H243896   0.055   3.698  14.439
 7469TIP3   OH243897   0.069   3.552  14.562
 7469TIP3    H143898   0.068   3.465  14.602
 7469TIP3    H243899   0.124   3.604  14.621
 7470TIP3   OH243900   1.831   3.613  14.899
 7470TIP3    H143901   1.828   3.623  14.994
 7470TIP3    H243902   1.908   3.662  14.872
 7471TIP3   OH243903   1.782   3.580  15.176
 7471TIP3    H143904   1.728   3.509  15.140
 7471TIP3    H243905   1.814   3.546  15.259
 7472TIP3   OH243906   1.642   3.164  15.747
 7472TIP3    H143907   1.554   3.187  15.778
 7472TIP3    H243908   1.688   3.247  15.739
 7473TIP3   OH243909   1.785   3.004  14.191
 7473TIP3    H143910   1.855   3.070  14.194
 7473TIP3    H243911   1.804   2.946  14.264
 7474TIP3   OH243912   1.837   2.804  14.379
 7474TIP3    H143913   1.752   2.772  14.409
 7474TIP3    H243914   1.888   2.815  14.460
 7475TIP3   OH243915   1.801   3.106  14.897
 7475TIP3    H143916   1.853   3.037  14.857
 7475TIP3    H243917   1.827   3.186  14.852
 7476TIP3   OH243918   1.616   3.377  15.089
 7476TIP3    H143919   1.544   3.419  15.135
 7476TIP3    H243920   1.582   3.359  15.002
 7477TIP3   OH243921   1.819   2.809  14.001
 7477TIP3    H143922   1.767   2.836  13.925
 7477TIP3    H243923   1.803   2.878  14.066
 7478TIP3   OH243924   1.654   2.505  13.817
 7478TIP3    H143925   1.632   2.563  13.744
 7478TIP3    H243926   1.636   2.417  13.784
 7479TIP3   OH243927   1.582   2.687  14.423
 7479TIP3    H143928   1.576   2.599  14.388
 7479TIP3    H243929   1.539   2.682  14.508
 7480TIP3   OH243930   0.078   2.884  14.857
 7480TIP3    H143931   0.086   2.885  14.761
 7480TIP3    H243932   0.159   2.844  14.887
 7481TIP3   OH243933   1.683   2.859  15.426
 7481TIP3    H143934   1.715   2.770  15.443
 7481TIP3    H243935   1.744   2.894  15.361
 7482TIP3   OH243936   1.757   2.606  15.480
 7482TIP3    H143937   1.673   2.566  15.458
 7482TIP3    H243938   1.822   2.542  15.451
 7483TIP3   OH243939   1.589   2.254  13.721
 7483TIP3    H143940   1.626   2.208  13.797
 7483TIP3    H243941   1.495   2.234  13.724
 7484TIP3   OH243942   1.563   2.443  14.251
 7484TIP3    H143943   1.591   2.351  14.255
 7484TIP3    H243944   1.626   2.486  14.194
 7485TIP3   OH243945   1.584   2.469  14.818
 7485TIP3    H143946   1.677   2.478  14.797
 7485TIP3    H243947   1.579   2.488  14.912
 7486TIP3   OH243948   1.610   2.553  15.087
 7486TIP3    H143949   1.531   2.588  15.128
 7486TIP3    H243950   1.662   2.631  15.065
 7487TIP3   OH243951   0.069   2.451  15.436
 7487TIP3    H143952   0.137   2.392  15.469
 7487TIP3    H243953   0.029   2.403  15.364
 7488TIP3   OH243954   1.837   1.982  15.608
 7488TIP3    H143955   1.910   1.922  15.590
 7488TIP3    H243956   1.841   2.047  15.538
 7489TIP3   OH243957   1.627   2.171  14.270
 7489TIP3    H143958   1.646   2.132  14.356
 7489TIP3    H243959   1.559   2.114  14.233
 7490TIP3   OH243960   0.157   2.245  14.733
 7490TIP3    H143961   0.198   2.159  14.729
 7490TIP3    H243962   0.230   2.305  14.750
 7491TIP3   OH243963   0.023   2.604  14.856
 7491TIP3    H143964   0.094   2.581  14.795
 7491TIP3    H243965   0.026   2.700  14.860
 7492TIP3   OH243966   1.785   2.148  15.396
 7492TIP3    H143967   1.706   2.203  15.392
 7492TIP3    H243968   1.770   2.080  15.330
 7493TIP3   OH243969   1.753   2.142  13.915
 7493TIP3    H143970   1.808   2.086  13.861
 7493TIP3    H243971   1.814   2.207  13.951
 7494TIP3   OH243972   0.113   2.171  14.215
 7494TIP3    H143973   0.030   2.153  14.259
 7494TIP3    H243974   0.096   2.249  14.163
 7495TIP3   OH243975   1.506   3.684  14.447
 7495TIP3    H143976   1.576   3.677  14.383
 7495TIP3    H243977   1.542   3.738  14.517
 7496TIP3   OH243978   0.067   2.020  15.118
 7496TIP3    H143979  -0.001   1.953  15.125
 7496TIP3    H243980   0.026   2.089  15.065
 7497TIP3   OH243981   0.225   3.424  15.424
 7497TIP3    H143982   0.224   3.361  15.351
 7497TIP3    H243983   0.183   3.377  15.496
 7498TIP3   OH243984   0.571   3.481  15.119
 7498TIP3    H143985   0.540   3.568  15.094
 7498TIP3    H243986   0.664   3.482  15.096
 7499TIP3   OH243987   0.935   3.595  15.406
 7499TIP3    H143988   0.949   3.565  15.496
 7499TIP3    H243989   1.013   3.645  15.384
 7500TIP3   OH243990   1.167   3.735  15.362
 7500TIP3    H143991   1.232   3.689  15.309
 7500TIP3    H243992   1.215   3.763  15.440
 7501TIP3   OH243993   1.696   1.950  15.225
 7501TIP3    H143994   1.631   1.976  15.159
 7501TIP3    H243995   1.711   1.857  15.208
 7502TIP3   OH243996   0.256   3.779  15.145
 7502TIP3    H143997   0.176   3.821  15.113
 7502TIP3    H243998   0.275   3.821  15.228
 7503TIP3   OH243999   0.519   3.745  15.058
 7503TIP3    H144000   0.427   3.757  15.082
 7503TIP3    H244001   0.527   3.789  14.973
 7504TIP3   OH244002   0.972   3.724  14.959
 7504TIP3    H144003   0.923   3.759  14.885
 7504TIP3    H244004   0.983   3.798  15.018
 7505TIP3   OH244005   1.197   3.599  15.057
 7505TIP3    H144006   1.120   3.641  15.017
 7505TIP3    H244007   1.269   3.658  15.035
 7506TIP3   OH244008   1.441   3.732  15.037
 7506TIP3    H144009   1.467   3.823  15.025
 7506TIP3    H244010   1.479   3.686  14.962
 7507TIP3   OH244011   0.219   3.642  14.780
 7507TIP3    H144012   0.207   3.606  14.868
 7507TIP3    H244013   0.296   3.597  14.746
 7508TIP3   OH244014   0.438   3.506  14.691
 7508TIP3    H144015   0.424   3.415  14.715
 7508TIP3    H244016   0.525   3.527  14.727
 7509TIP3   OH244017   0.699   3.530  14.798
 7509TIP3    H144018   0.708   3.441  14.764
 7509TIP3    H244019   0.738   3.527  14.885
 7510TIP3   OH244020   1.027   2.094  14.690
 7510TIP3    H144021   0.964   2.025  14.712
 7510TIP3    H244022   1.100   2.048  14.648
 7511TIP3   OH244023   1.526   1.948  14.683
 7511TIP3    H144024   1.586   2.004  14.633
 7511TIP3    H244025   1.439   1.986  14.667
 7512TIP3   OH244026   1.709   2.047  14.504
 7512TIP3    H144027   1.772   1.979  14.482
 7512TIP3    H244028   1.763   2.124  14.521
 7513TIP3   OH244029   0.300   1.966  14.431
 7513TIP3    H144030   0.213   1.953  14.394
 7513TIP3    H244031   0.341   1.880  14.424
 7514TIP3   OH244032   0.162   1.970  14.031
 7514TIP3    H144033   0.229   2.007  13.974
 7514TIP3    H244034   0.157   2.030  14.105
 7515TIP3   OH244035   0.761   1.921  14.466
 7515TIP3    H144036   0.830   1.971  14.423
 7515TIP3    H244037   0.781   1.929  14.559
 7516TIP3   OH244038   1.248   1.960  14.591
 7516TIP3    H144039   1.283   1.939  14.504
 7516TIP3    H244040   1.232   1.874  14.631
 7517TIP3   OH244041   1.420   2.000  14.187
 7517TIP3    H144042   1.344   2.055  14.204
 7517TIP3    H244043   1.388   1.910  14.198
 7518TIP3   OH244044   0.156   3.581  14.101
 7518TIP3    H144045   0.067   3.548  14.092
 7518TIP3    H244046   0.150   3.673  14.078
 7519TIP3   OH244047   0.365   2.112  13.887
 7519TIP3    H144048   0.418   2.060  13.827
 7519TIP3    H244049   0.427   2.148  13.950
 7520TIP3   OH244050   0.822   2.200  14.130
 7520TIP3    H144051   0.855   2.125  14.180
 7520TIP3    H244052   0.843   2.276  14.185
 7521TIP3   OH244053   1.040   3.661  13.958
 7521TIP3    H144054   1.133   3.680  13.947
 7521TIP3    H244055   1.016   3.611  13.880
 7522TIP3   OH244056   1.699   3.647  14.251
 7522TIP3    H144057   1.681   3.559  14.219
 7522TIP3    H244058   1.685   3.704  14.175
 7523TIP3   OH244059   0.296   2.023  15.390
 7523TIP3    H144060   0.236   1.959  15.428
 7523TIP3    H244061   0.378   2.010  15.438
 7524TIP3   OH244062   0.493   1.946  15.565
 7524TIP3    H144063   0.580   1.926  15.530
 7524TIP3    H244064   0.468   1.867  15.612
 7525TIP3   OH244065   0.356   3.643  13.820
 7525TIP3    H144066   0.325   3.623  13.908
 7525TIP3    H244067   0.429   3.584  13.806
 7526TIP3   OH244068   1.332   1.910  15.586
 7526TIP3    H144069   1.325   1.862  15.668
 7526TIP3    H244070   1.424   1.902  15.561
 7527TIP3   OH244071   1.588   3.517  15.460
 7527TIP3    H144072   1.532   3.507  15.383
 7527TIP3    H244073   1.582   3.610  15.482
 7528TIP3   OH244074   3.082   2.920  14.419
 7528TIP3    H144075   3.069   3.014  14.407
 7528TIP3    H244076   3.012   2.880  14.366
 7529TIP3   OH244077   2.964   2.830  14.824
 7529TIP3    H144078   2.991   2.785  14.904
 7529TIP3    H244079   2.914   2.764  14.776
 7530TIP3   OH244080   2.149   2.781  14.990
 7530TIP3    H144081   2.170   2.692  15.017
 7530TIP3    H244082   2.195   2.837  15.052
 7531TIP3   OH244083   3.344   3.136  14.651
 7531TIP3    H144084   3.306   3.060  14.695
 7531TIP3    H244085   3.361   3.199  14.720
 7532TIP3   OH244086   2.327   3.229  14.765
 7532TIP3    H144087   2.293   3.143  14.743
 7532TIP3    H244088   2.422   3.218  14.767
 7533TIP3   OH244089   1.962   2.573  14.275
 7533TIP3    H144090   1.932   2.657  14.311
 7533TIP3    H244091   1.896   2.549  14.211
 7534TIP3   OH244092   2.029   2.816  14.589
 7534TIP3    H144093   2.056   2.726  14.609
 7534TIP3    H244094   2.108   2.869  14.601
 7535TIP3   OH244095   3.087   3.591  14.694
 7535TIP3    H144096   3.115   3.547  14.614
 7535TIP3    H244097   3.076   3.521  14.758
 7536TIP3   OH244098   2.812   3.081  14.819
 7536TIP3    H144099   2.851   2.998  14.790
 7536TIP3    H244100   2.877   3.119  14.877
 7537TIP3   OH244101   3.697   2.218  14.931
 7537TIP3    H144102   3.709   2.290  14.993
 7537TIP3    H244103   3.746   2.244  14.854
 7538TIP3   OH244104   3.113   2.501  14.838
 7538TIP3    H144105   3.120   2.406  14.852
 7538TIP3    H244106   3.101   2.509  14.743
 7539TIP3   OH244107   2.466   2.296  14.560
 7539TIP3    H144108   2.469   2.383  14.520
 7539TIP3    H244109   2.409   2.245  14.503
 7540TIP3   OH244110   3.241   2.336  14.414
 7540TIP3    H144111   3.279   2.304  14.496
 7540TIP3    H244112   3.314   2.374  14.366
 7541TIP3   OH244113   2.098   2.555  14.657
 7541TIP3    H144114   2.164   2.513  14.711
 7541TIP3    H244115   2.115   2.522  14.568
 7542TIP3   OH244116   2.592   2.708  14.602
 7542TIP3    H144117   2.675   2.671  14.633
 7542TIP3    H244118   2.552   2.639  14.550
 7543TIP3   OH244119   3.731   2.397  15.142
 7543TIP3    H144120   3.650   2.446  15.127
 7543TIP3    H244121   3.748   2.408  15.236
 7544TIP3   OH244122   2.325   2.217  14.985
 7544TIP3    H144123   2.302   2.278  14.915
 7544TIP3    H244124   2.251   2.219  15.045
 7545TIP3   OH244125   3.045   3.176  14.318
 7545TIP3    H144126   3.025   3.168  14.225
 7545TIP3    H244127   2.999   3.254  14.346
 7546TIP3   OH244128   2.589   2.990  14.956
 7546TIP3    H144129   2.539   3.061  14.998
 7546TIP3    H244130   2.660   3.035  14.910
 7547TIP3   OH244131   3.328   2.286  14.669
 7547TIP3    H144132   3.260   2.258  14.730
 7547TIP3    H244133   3.385   2.344  14.720
 7548TIP3   OH244134   2.299   2.387  14.766
 7548TIP3    H144135   2.354   2.446  14.818
 7548TIP3    H244136   2.359   2.351  14.700
 7549TIP3   OH244137   2.441   3.187  15.082
 7549TIP3    H144138   2.431   3.280  15.061
 7549TIP3    H244139   2.352   3.155  15.093
 7550TIP3   OH244140   2.000   3.184  14.164
 7550TIP3    H144141   1.992   3.229  14.080
 7550TIP3    H244142   2.023   3.253  14.226
 7551TIP3   OH244143   3.368   3.343  14.845
 7551TIP3    H144144   3.273   3.351  14.856
 7551TIP3    H244145   3.397   3.430  14.819
 7552TIP3   OH244146   3.446   2.117  15.019
 7552TIP3    H144147   3.380   2.162  14.967
 7552TIP3    H244148   3.530   2.143  14.980
 7553TIP3   OH244149   2.681   1.909  14.748
 7553TIP3    H144150   2.656   1.817  14.748
 7553TIP3    H244151   2.601   1.955  14.774
 7554TIP3   OH244152   3.197   3.499  14.456
 7554TIP3    H144153   3.240   3.414  14.441
 7554TIP3    H244154   3.269   3.562  14.460
 7555TIP3   OH244155   3.301   3.253  14.405
 7555TIP3    H144156   3.223   3.209  14.372
 7555TIP3    H244157   3.325   3.205  14.483
 7556TIP3   OH244158   3.475   3.127  15.192
 7556TIP3    H144159   3.466   3.068  15.117
 7556TIP3    H244160   3.492   3.213  15.153
 7557TIP3   OH244161   2.931   2.823  14.204
 7557TIP3    H144162   2.861   2.883  14.178
 7557TIP3    H244163   2.997   2.832  14.136
 7558TIP3   OH244164   2.959   2.719  13.851
 7558TIP3    H144165   3.013   2.741  13.927
 7558TIP3    H244166   3.007   2.648  13.807
 7559TIP3   OH244167   3.644   2.787  15.039
 7559TIP3    H144168   3.571   2.847  15.028
 7559TIP3    H244169   3.705   2.809  14.969
 7560TIP3   OH244170   3.299   2.848  14.268
 7560TIP3    H144171   3.231   2.874  14.331
 7560TIP3    H244172   3.364   2.803  14.321
 7561TIP3   OH244173   3.257   2.655  15.234
 7561TIP3    H144174   3.250   2.727  15.297
 7561TIP3    H244175   3.194   2.677  15.165
 7562TIP3   OH244176   2.443   2.901  14.467
 7562TIP3    H144177   2.416   2.862  14.384
 7562TIP3    H244178   2.500   2.836  14.507
 7563TIP3   OH244179   2.605   3.253  14.727
 7563TIP3    H144180   2.602   3.262  14.632
 7563TIP3    H244181   2.681   3.197  14.743
 7564TIP3   OH244182   2.450   2.795  14.823
 7564TIP3    H144183   2.506   2.772  14.749
 7564TIP3    H244184   2.499   2.861  14.871
 7565TIP3   OH244185   3.101   3.375  14.900
 7565TIP3    H144186   3.087   3.439  14.970
 7565TIP3    H244187   3.067   3.293  14.935
 7566TIP3   OH244188   2.586   3.226  15.312
 7566TIP3    H144189   2.512   3.272  15.351
 7566TIP3    H244190   2.553   3.194  15.228
 7567TIP3   OH244191   3.162   2.781  14.038
 7567TIP3    H144192   3.214   2.816  14.110
 7567TIP3    H244193   3.216   2.794  13.960
 7568TIP3   OH244194   2.262   2.922  15.208
 7568TIP3    H144195   2.260   2.986  15.279
 7568TIP3    H244196   2.244   2.838  15.250
 7569TIP3   OH244197   2.943   3.427  14.377
 7569TIP3    H144198   3.026   3.458  14.413
 7569TIP3    H244199   2.906   3.503  14.333
 7570TIP3   OH244200   2.352   3.423  15.343
 7570TIP3    H144201   2.392   3.446  15.260
 7570TIP3    H244202   2.282   3.361  15.321
 7571TIP3   OH244203   3.522   1.923  14.038
 7571TIP3    H144204   3.439   1.947  14.077
 7571TIP3    H244205   3.558   2.005  14.004
 7572TIP3   OH244206   2.356   2.810  14.211
 7572TIP3    H144207   2.295   2.876  14.178
 7572TIP3    H244208   2.308   2.727  14.203
 7573TIP3   OH244209   3.677   3.374  13.905
 7573TIP3    H144210   3.693   3.467  13.916
 7573TIP3    H244211   3.764   3.336  13.893
 7574TIP3   OH244212   1.954   3.092  15.134
 7574TIP3    H144213   1.900   3.093  15.055
 7574TIP3    H244214   1.954   3.000  15.162
 7575TIP3   OH244215   1.905   3.354  14.814
 7575TIP3    H144216   1.983   3.359  14.868
 7575TIP3    H244217   1.854   3.432  14.837
 7576TIP3   OH244218   3.730   3.396  15.404
 7576TIP3    H144219   3.713   3.302  15.398
 7576TIP3    H244220   3.648   3.433  15.436
 7577TIP3   OH244221   2.827   3.355  15.275
 7577TIP3    H144222   2.816   3.442  15.315
 7577TIP3    H244223   2.742   3.313  15.286
 7578TIP3   OH244224   2.913   3.690  14.246
 7578TIP3    H144225   2.887   3.694  14.154
 7578TIP3    H244226   2.877   3.770  14.285
 7579TIP3   OH244227   2.255   3.581  14.437
 7579TIP3    H144228   2.270   3.547  14.525
 7579TIP3    H244229   2.197   3.516  14.396
 7580TIP3   OH244230   3.199   3.666  13.922
 7580TIP3    H144231   3.248   3.593  13.883
 7580TIP3    H244232   3.210   3.655  14.016
 7581TIP3   OH244233   3.179   3.640  14.199
 7581TIP3    H144234   3.086   3.653  14.218
 7581TIP3    H244235   3.209   3.577  14.265
 7582TIP3   OH244236   3.433   2.525  15.415
 7582TIP3    H144237   3.370   2.562  15.354
 7582TIP3    H244238   3.440   2.433  15.390
 7583TIP3   OH244239   2.175   3.239  15.208
 7583TIP3    H144240   2.197   3.187  15.286
 7583TIP3    H244241   2.100   3.192  15.170
 7584TIP3   OH244242   2.432   2.015  14.826
 7584TIP3    H144243   2.356   2.005  14.769
 7584TIP3    H244244   2.410   2.090  14.882
 7585TIP3   OH244245   2.907   1.999  15.180
 7585TIP3    H144246   2.953   1.951  15.250
 7585TIP3    H244247   2.815   1.991  15.203
 7586TIP3   OH244248   3.197   2.380  15.246
 7586TIP3    H144249   3.134   2.362  15.315
 7586TIP3    H244250   3.198   2.476  15.240
 7587TIP3   OH244251   3.302   2.780  13.797
 7587TIP3    H144252   3.284   2.813  13.709
 7587TIP3    H244253   3.389   2.814  13.818
 7588TIP3   OH244254   2.859   2.233  13.904
 7588TIP3    H144255   2.802   2.230  13.980
 7588TIP3    H244256   2.824   2.167  13.845
 7589TIP3   OH244257   2.439   2.547  14.943
 7589TIP3    H144258   2.365   2.542  15.004
 7589TIP3    H244259   2.437   2.638  14.912
 7590TIP3   OH244260   2.440   2.541  14.439
 7590TIP3    H144261   2.345   2.533  14.439
 7590TIP3    H244262   2.466   2.526  14.348
 7591TIP3   OH244263   2.980   2.577  14.315
 7591TIP3    H144264   2.956   2.664  14.284
 7591TIP3    H244265   3.049   2.548  14.256
 7592TIP3   OH244266   2.911   2.578  15.437
 7592TIP3    H144267   2.855   2.509  15.473
 7592TIP3    H244268   2.995   2.567  15.482
 7593TIP3   OH244269   3.086   2.515  14.566
 7593TIP3    H144270   3.039   2.559  14.495
 7593TIP3    H244271   3.132   2.443  14.523
 7594TIP3   OH244272   2.207   2.518  15.090
 7594TIP3    H144273   2.202   2.559  15.177
 7594TIP3    H244274   2.171   2.430  15.103
 7595TIP3   OH244275   2.547   2.280  13.801
 7595TIP3    H144276   2.513   2.268  13.889
 7595TIP3    H244277   2.487   2.343  13.761
 7596TIP3   OH244278   1.890   2.246  14.517
 7596TIP3    H144279   1.950   2.256  14.590
 7596TIP3    H244280   1.946   2.238  14.440
 7597TIP3   OH244281   1.923   2.338  14.014
 7597TIP3    H144282   1.991   2.379  13.962
 7597TIP3    H244283   1.864   2.410  14.038
 7598TIP3   OH244284   3.052   2.669  15.040
 7598TIP3    H144285   3.084   2.613  14.969
 7598TIP3    H244286   2.984   2.617  15.084
 7599TIP3   OH244287   2.749   2.257  14.523
 7599TIP3    H144288   2.658   2.261  14.554
 7599TIP3    H244289   2.798   2.222  14.597
 7600TIP3   OH244290   2.177   2.461  14.411
 7600TIP3    H144291   2.105   2.489  14.354
 7600TIP3    H244292   2.195   2.371  14.382
 7601TIP3   OH244293   2.503   2.472  14.181
 7601TIP3    H144294   2.597   2.466  14.198
 7601TIP3    H244295   2.496   2.512  14.095
 7602TIP3   OH244296   3.117   2.224  14.844
 7602TIP3    H144297   3.079   2.224  14.932
 7602TIP3    H244298   3.051   2.181  14.789
 7603TIP3   OH244299   2.472   2.563  13.925
 7603TIP3    H144300   2.419   2.537  13.849
 7603TIP3    H244301   2.546   2.610  13.888
 7604TIP3   OH244302   3.475   3.784  15.491
 7604TIP3    H144303   3.499   3.821  15.406
 7604TIP3    H244304   3.550   3.802  15.547
 7605TIP3   OH244305   2.234   3.092  15.431
 7605TIP3    H144306   2.297   3.062  15.496
 7605TIP3    H244307   2.149   3.085  15.476
 7606TIP3   OH244308   2.820   2.596  14.724
 7606TIP3    H144309   2.890   2.541  14.686
 7606TIP3    H244310   2.785   2.543  14.795
 7607TIP3   OH244311   2.280   2.196  14.369
 7607TIP3    H144312   2.230   2.118  14.395
 7607TIP3    H244313   2.314   2.174  14.282
 7608TIP3   OH244314   2.704   2.461  14.942
 7608TIP3    H144315   2.618   2.501  14.952
 7608TIP3    H244316   2.752   2.487  15.021
 7609TIP3   OH244317   2.733   3.004  14.128
 7609TIP3    H144318   2.661   2.973  14.073
 7609TIP3    H244319   2.691   3.036  14.207
 7610TIP3   OH244320   3.453   2.972  14.966
 7610TIP3    H144321   3.516   3.024  14.917
 7610TIP3    H244322   3.383   2.953  14.903
 7611TIP3   OH244323   3.113   2.287  13.990
 7611TIP3    H144324   3.022   2.283  13.962
 7611TIP3    H244325   3.123   2.374  14.027
 7612TIP3   OH244326   2.907   3.072  15.254
 7612TIP3    H144327   2.932   3.029  15.336
 7612TIP3    H244328   2.878   3.159  15.280
 7613TIP3   OH244329   3.184   2.516  14.132
 7613TIP3    H144330   3.272   2.499  14.167
 7613TIP3    H244331   3.189   2.605  14.098
 7614TIP3   OH244332   2.269   2.955  14.678
 7614TIP3    H144333   2.327   2.947  14.602
 7614TIP3    H244334   2.308   2.897  14.744
 7615TIP3   OH244335   2.943   3.161  14.054
 7615TIP3    H144336   2.910   3.251  14.059
 7615TIP3    H244337   2.868   3.107  14.078
 7616TIP3   OH244338   1.919   2.838  15.244
 7616TIP3    H144339   1.987   2.780  15.277
 7616TIP3    H244340   1.877   2.788  15.174
 7617TIP3   OH244341   2.696   2.764  15.467
 7617TIP3    H144342   2.630   2.725  15.411
 7617TIP3    H244343   2.777   2.718  15.446
 7618TIP3   OH244344   3.108   3.344  15.277
 7618TIP3    H144345   3.014   3.348  15.258
 7618TIP3    H244346   3.115   3.360  15.371
 7619TIP3   OH244347   3.638   2.554  14.071
 7619TIP3    H144348   3.595   2.533  13.988
 7619TIP3    H244349   3.666   2.645  14.062
 7620TIP3   OH244350   3.689   3.112  15.358
 7620TIP3    H144351   3.604   3.125  15.315
 7620TIP3    H244352   3.751   3.103  15.286
 7621TIP3   OH244353   3.517   3.406  14.140
 7621TIP3    H144354   3.470   3.329  14.172
 7621TIP3    H244355   3.561   3.376  14.061
 7622TIP3   OH244356   3.248   2.903  14.783
 7622TIP3    H144357   3.152   2.892  14.782
 7622TIP3    H244358   3.281   2.827  14.736
 7623TIP3   OH244359   2.525   3.330  14.470
 7623TIP3    H144360   2.547   3.414  14.431
 7623TIP3    H244361   2.429   3.333  14.479
 7624TIP3   OH244362   2.084   2.781  13.932
 7624TIP3    H144363   2.129   2.848  13.983
 7624TIP3    H244364   1.993   2.786  13.959
 7625TIP3   OH244365   2.590   3.099  14.336
 7625TIP3    H144366   2.580   3.182  14.383
 7625TIP3    H244367   2.540   3.036  14.386
 7626TIP3   OH244368   2.724   3.494  15.036
 7626TIP3    H144369   2.777   3.571  15.016
 7626TIP3    H244370   2.782   3.439  15.089
 7627TIP3   OH244371   2.519   3.586  14.360
 7627TIP3    H144372   2.427   3.602  14.378
 7627TIP3    H244373   2.564   3.663  14.395
 7628TIP3   OH244374   3.016   3.127  15.005
 7628TIP3    H144375   2.978   3.106  15.090
 7628TIP3    H244376   3.078   3.055  14.988
 7629TIP3   OH244377   3.306   3.214  13.917
 7629TIP3    H144378   3.330   3.162  13.994
 7629TIP3    H244379   3.219   3.183  13.894
 7630TIP3   OH244380   3.315   3.527  15.220
 7630TIP3    H144381   3.233   3.478  15.216
 7630TIP3    H244382   3.301   3.599  15.158
 7631TIP3   OH244383   3.722   3.641  13.951
 7631TIP3    H144384   3.776   3.718  13.966
 7631TIP3    H244385   3.632   3.674  13.959
 7632TIP3   OH244386   2.104   2.256  15.151
 7632TIP3    H144387   2.012   2.282  15.144
 7632TIP3    H244388   2.104   2.187  15.217
 7633TIP3   OH244389   3.408   3.058  14.118
 7633TIP3    H144390   3.363   2.996  14.177
 7633TIP3    H244391   3.500   3.049  14.140
 7634TIP3   OH244392   2.089   3.441  15.014
 7634TIP3    H144393   2.147   3.374  15.051
 7634TIP3    H244394   2.039   3.473  15.088
 7635TIP3   OH244395   2.673   3.299  13.778
 7635TIP3    H144396   2.676   3.214  13.734
 7635TIP3    H244397   2.633   3.280  13.864
 7636TIP3   OH244398   2.542   3.275  14.024
 7636TIP3    H144399   2.572   3.227  14.101
 7636TIP3    H244400   2.552   3.367  14.048
 7637TIP3   OH244401   2.185   2.990  14.087
 7637TIP3    H144402   2.117   3.041  14.130
 7637TIP3    H244403   2.233   3.055  14.034
 7638TIP3   OH244404   3.007   2.241  15.095
 7638TIP3    H144405   3.077   2.264  15.156
 7638TIP3    H244406   2.972   2.159  15.130
 7639TIP3   OH244407   3.093   2.172  14.245
 7639TIP3    H144408   3.100   2.212  14.159
 7639TIP3    H244409   3.136   2.234  14.304
 7640TIP3   OH244410   2.842   3.412  14.065
 7640TIP3    H144411   2.754   3.444  14.087
 7640TIP3    H244412   2.890   3.491  14.038
 7641TIP3   OH244413   2.757   2.415  14.294
 7641TIP3    H144414   2.832   2.474  14.301
 7641TIP3    H244415   2.753   2.371  14.379
 7642TIP3   OH244416   2.879   2.493  15.162
 7642TIP3    H144417   2.884   2.508  15.256
 7642TIP3    H244418   2.911   2.403  15.150
 7643TIP3   OH244419   2.853   2.071  14.341
 7643TIP3    H144420   2.827   2.139  14.402
 7643TIP3    H244421   2.939   2.098  14.310
 7644TIP3   OH244422   2.596   3.532  14.103
 7644TIP3    H144423   2.604   3.617  14.060
 7644TIP3    H244424   2.568   3.553  14.192
 7645TIP3   OH244425   2.441   2.228  14.056
 7645TIP3    H144426   2.435   2.312  14.100
 7645TIP3    H244427   2.526   2.194  14.081
 7646TIP3   OH244428   3.445   2.274  15.272
 7646TIP3    H144429   3.353   2.301  15.263
 7646TIP3    H244430   3.463   2.223  15.193
 7647TIP3   OH244431   3.326   2.655  14.661
 7647TIP3    H144432   3.242   2.613  14.639
 7647TIP3    H244433   3.368   2.594  14.721
 7648TIP3   OH244434   2.296   3.190  13.926
 7648TIP3    H144435   2.370   3.237  13.965
 7648TIP3    H244436   2.335   3.138  13.856
 7649TIP3   OH244437   2.068   2.512  13.858
 7649TIP3    H144438   2.092   2.596  13.897
 7649TIP3    H244439   2.027   2.534  13.774
 7650TIP3   OH244440   3.458   3.606  14.831
 7650TIP3    H144441   3.445   3.681  14.773
 7650TIP3    H244442   3.552   3.603  14.845
 7651TIP3   OH244443   2.182   1.993  14.707
 7651TIP3    H144444   2.171   1.985  14.613
 7651TIP3    H244445   2.147   1.911  14.743
 7652TIP3   OH244446   2.060   3.413  14.320
 7652TIP3    H144447   2.004   3.440  14.394
 7652TIP3    H244448   2.040   3.476  14.251
 7653TIP3   OH244449   2.015   3.670  15.529
 7653TIP3    H144450   2.010   3.651  15.623
 7653TIP3    H244451   1.961   3.603  15.488
 7654TIP3   OH244452   2.460   3.499  15.589
 7654TIP3    H144453   2.529   3.458  15.641
 7654TIP3    H244454   2.460   3.451  15.507
 7655TIP3   OH244455   2.873   3.488  13.752
 7655TIP3    H144456   2.807   3.421  13.769
 7655TIP3    H244457   2.949   3.438  13.723
 7656TIP3   OH244458   3.127   3.374  15.553
 7656TIP3    H144459   3.108   3.287  15.587
 7656TIP3    H244460   3.209   3.399  15.595
 7657TIP3   OH244461   3.326   3.458  13.794
 7657TIP3    H144462   3.332   3.379  13.848
 7657TIP3    H244463   3.402   3.454  13.737
 7658TIP3   OH244464   1.985   3.108  15.573
 7658TIP3    H144465   1.995   3.013  15.574
 7658TIP3    H244466   1.917   3.124  15.507
 7659TIP3   OH244467   2.428   3.016  13.761
 7659TIP3    H144468   2.451   2.969  13.842
 7659TIP3    H244469   2.512   3.032  13.718
 7660TIP3   OH244470   2.651   3.041  15.517
 7660TIP3    H144471   2.642   3.081  15.431
 7660TIP3    H244472   2.678   2.951  15.499
 7661TIP3   OH244473   3.059   3.146  13.806
 7661TIP3    H144474   3.010   3.145  13.889
 7661TIP3    H244475   3.026   3.070  13.758
 7662TIP3   OH244476   3.229   3.089  15.309
 7662TIP3    H144477   3.316   3.104  15.272
 7662TIP3    H244478   3.180   3.168  15.287
 7663TIP3   OH244479   2.056   2.848  15.566
 7663TIP3    H144480   2.090   2.794  15.494
 7663TIP3    H244481   2.082   2.801  15.645
 7664TIP3   OH244482   2.521   2.889  13.991
 7664TIP3    H144483   2.473   2.849  14.064
 7664TIP3    H244484   2.568   2.816  13.951
 7665TIP3   OH244485   2.512   2.644  15.298
 7665TIP3    H144486   2.419   2.665  15.303
 7665TIP3    H244487   2.543   2.692  15.221
 7666TIP3   OH244488   2.680   2.719  13.837
 7666TIP3    H144489   2.675   2.747  13.746
 7666TIP3    H244490   2.774   2.714  13.856
 7667TIP3   OH244491   3.004   2.903  15.552
 7667TIP3    H144492   3.081   2.865  15.510
 7667TIP3    H244493   2.968   2.831  15.605
 7668TIP3   OH244494   3.552   2.902  13.793
 7668TIP3    H144495   3.559   2.883  13.699
 7668TIP3    H244496   3.551   2.997  13.799
 7669TIP3   OH244497   2.561   2.380  15.340
 7669TIP3    H144498   2.563   2.328  15.260
 7669TIP3    H244499   2.549   2.470  15.310
 7670TIP3   OH244500   2.577   2.246  15.094
 7670TIP3    H144501   2.627   2.298  15.031
 7670TIP3    H244502   2.489   2.241  15.056
 7671TIP3   OH244503   2.661   2.775  15.109
 7671TIP3    H144504   2.755   2.788  15.119
 7671TIP3    H244505   2.631   2.849  15.057
 7672TIP3   OH244506   3.129   2.519  15.617
 7672TIP3    H144507   3.119   2.449  15.682
 7672TIP3    H244508   3.221   2.514  15.591
 7673TIP3   OH244509   3.271   2.857  15.443
 7673TIP3    H144510   3.248   2.939  15.399
 7673TIP3    H244511   3.366   2.853  15.440
 7674TIP3   OH244512   2.387   2.484  15.548
 7674TIP3    H144513   2.320   2.540  15.509
 7674TIP3    H244514   2.438   2.454  15.473
 7675TIP3   OH244515   2.627   1.987  15.183
 7675TIP3    H144516   2.611   2.077  15.154
 7675TIP3    H244517   2.558   1.935  15.140
 7676TIP3   OH244518   2.762   2.366  15.525
 7676TIP3    H144519   2.714   2.344  15.605
 7676TIP3    H244520   2.695   2.362  15.456
 7677TIP3   OH244521   3.014   2.293  15.422
 7677TIP3    H144522   2.929   2.300  15.466
 7677TIP3    H244523   3.071   2.253  15.489
 7678TIP3   OH244524   3.200   2.194  15.608
 7678TIP3    H144525   3.195   2.098  15.609
 7678TIP3    H244526   3.165   2.220  15.693
 7679TIP3   OH244527   2.120   2.282  15.561
 7679TIP3    H144528   2.158   2.245  15.480
 7679TIP3    H244529   2.135   2.214  15.627
 7680TIP3   OH244530   2.627   1.912  15.448
 7680TIP3    H144531   2.681   1.833  15.441
 7680TIP3    H244532   2.622   1.944  15.358
 7681TIP3   OH244533   2.689   2.070  15.671
 7681TIP3    H144534   2.677   2.016  15.593
 7681TIP3    H244535   2.631   2.145  15.658
 7682TIP3   OH244536   2.676   3.771  13.986
 7682TIP3    H144537   2.765   3.738  13.973
 7682TIP3    H244538   2.663   3.835  13.917
 7683TIP3   OH244539   2.035   3.252  13.867
 7683TIP3    H144540   2.126   3.240  13.895
 7683TIP3    H244541   2.018   3.178  13.809
 7684TIP3   OH244542   1.895   3.730  14.426
 7684TIP3    H144543   1.838   3.703  14.354
 7684TIP3    H244544   1.911   3.649  14.475
 7685TIP3   OH244545   1.964   3.506  14.576
 7685TIP3    H144546   1.927   3.430  14.622
 7685TIP3    H244547   2.011   3.554  14.643
 7686TIP3   OH244548   3.724   3.601  14.904
 7686TIP3    H144549   3.724   3.612  14.999
 7686TIP3    H244550   3.803   3.645  14.874
 7687TIP3   OH244551   3.665   3.583  15.183
 7687TIP3    H144552   3.615   3.511  15.144
 7687TIP3    H244553   3.714   3.543  15.255
 7688TIP3   OH244554   3.515   3.164  15.722
 7688TIP3    H144555   3.426   3.195  15.742
 7688TIP3    H244556   3.568   3.243  15.722
 7689TIP3   OH244557   3.672   3.004  14.192
 7689TIP3    H144558   3.743   3.068  14.196
 7689TIP3    H244559   3.691   2.945  14.265
 7690TIP3   OH244560   3.723   2.803  14.380
 7690TIP3    H144561   3.637   2.772  14.410
 7690TIP3    H244562   3.773   2.816  14.461
 7691TIP3   OH244563   3.693   3.098  14.897
 7691TIP3    H144564   3.745   3.030  14.854
 7691TIP3    H244565   3.724   3.180  14.859
 7692TIP3   OH244566   3.503   3.378  15.086
 7692TIP3    H144567   3.432   3.425  15.130
 7692TIP3    H244568   3.471   3.362  14.998
 7693TIP3   OH244569   3.707   2.811  14.001
 7693TIP3    H144570   3.653   2.837  13.927
 7693TIP3    H244571   3.692   2.879  14.067
 7694TIP3   OH244572   3.532   2.507  13.823
 7694TIP3    H144573   3.505   2.561  13.749
 7694TIP3    H244574   3.520   2.417  13.793
 7695TIP3   OH244575   3.468   2.688  14.425
 7695TIP3    H144576   3.463   2.599  14.390
 7695TIP3    H244577   3.425   2.683  14.510
 7696TIP3   OH244578   1.941   2.875  14.842
 7696TIP3    H144579   1.961   2.859  14.749
 7696TIP3    H244580   2.021   2.850  14.888
 7697TIP3   OH244581   3.550   2.869  15.432
 7697TIP3    H144582   3.603   2.793  15.407
 7697TIP3    H244583   3.597   2.944  15.396
 7698TIP3   OH244584   3.684   2.634  15.381
 7698TIP3    H144585   3.597   2.594  15.390
 7698TIP3    H244586   3.745   2.565  15.407
 7699TIP3   OH244587   3.474   2.255  13.725
 7699TIP3    H144588   3.509   2.207  13.800
 7699TIP3    H244589   3.380   2.236  13.727
 7700TIP3   OH244590   3.448   2.443  14.251
 7700TIP3    H144591   3.478   2.352  14.254
 7700TIP3    H244592   3.512   2.487  14.195
 7701TIP3   OH244593   3.474   2.470  14.820
 7701TIP3    H144594   3.566   2.481  14.798
 7701TIP3    H244595   3.469   2.490  14.914
 7702TIP3   OH244596   3.500   2.556  15.088
 7702TIP3    H144597   3.421   2.586  15.131
 7702TIP3    H244598   3.552   2.636  15.075
 7703TIP3   OH244599   1.913   2.394  15.399
 7703TIP3    H144600   1.996   2.398  15.447
 7703TIP3    H244601   1.880   2.306  15.416
 7704TIP3   OH244602   3.722   1.980  15.601
 7704TIP3    H144603   3.793   1.917  15.587
 7704TIP3    H244604   3.732   2.044  15.531
 7705TIP3   OH244605   3.513   2.171  14.269
 7705TIP3    H144606   3.533   2.132  14.355
 7705TIP3    H244607   3.445   2.114  14.233
 7706TIP3   OH244608   2.057   2.239  14.739
 7706TIP3    H144609   2.095   2.151  14.738
 7706TIP3    H244610   2.131   2.298  14.752
 7707TIP3   OH244611   1.857   2.520  14.806
 7707TIP3    H144612   1.928   2.520  14.743
 7707TIP3    H244613   1.885   2.582  14.874
 7708TIP3   OH244614   3.675   2.158  15.395
 7708TIP3    H144615   3.592   2.202  15.412
 7708TIP3    H244616   3.654   2.092  15.329
 7709TIP3   OH244617   3.638   2.141  13.918
 7709TIP3    H144618   3.693   2.085  13.865
 7709TIP3    H244619   3.697   2.208  13.953
 7710TIP3   OH244620   1.919   2.160  14.222
 7710TIP3    H144621   1.825   2.155  14.239
 7710TIP3    H244622   1.928   2.229  14.155
 7711TIP3   OH244623   3.384   3.693  14.444
 7711TIP3    H144624   3.451   3.682  14.376
 7711TIP3    H244625   3.429   3.739  14.515
 7712TIP3   OH244626   1.916   1.982  15.046
 7712TIP3    H144627   1.848   1.975  15.112
 7712TIP3    H244628   1.890   2.056  14.991
 7713TIP3   OH244629   2.115   3.386  15.532
 7713TIP3    H144630   2.024   3.363  15.513
 7713TIP3    H244631   2.145   3.318  15.592
 7714TIP3   OH244632   2.459   3.471  15.098
 7714TIP3    H144633   2.431   3.560  15.075
 7714TIP3    H244634   2.552   3.469  15.078
 7715TIP3   OH244635   2.816   3.600  15.411
 7715TIP3    H144636   2.834   3.565  15.498
 7715TIP3    H244637   2.895   3.649  15.387
 7716TIP3   OH244638   3.049   3.736  15.361
 7716TIP3    H144639   3.112   3.694  15.303
 7716TIP3    H244640   3.100   3.764  15.437
 7717TIP3   OH244641   3.585   1.948  15.231
 7717TIP3    H144642   3.514   1.966  15.169
 7717TIP3    H244643   3.606   1.856  15.218
 7718TIP3   OH244644   2.167   3.780  15.161
 7718TIP3    H144645   2.086   3.803  15.116
 7718TIP3    H244646   2.166   3.832  15.241
 7719TIP3   OH244647   2.415   3.739  15.054
 7719TIP3    H144648   2.326   3.753  15.088
 7719TIP3    H244649   2.416   3.785  14.970
 7720TIP3   OH244650   2.854   3.725  14.959
 7720TIP3    H144651   2.805   3.759  14.884
 7720TIP3    H244652   2.866   3.800  15.016
 7721TIP3   OH244653   3.079   3.602  15.058
 7721TIP3    H144654   3.002   3.643  15.017
 7721TIP3    H244655   3.151   3.660  15.034
 7722TIP3   OH244656   3.320   3.736  15.031
 7722TIP3    H144657   3.350   3.826  15.022
 7722TIP3    H244658   3.363   3.689  14.960
 7723TIP3   OH244659   2.111   3.618  14.797
 7723TIP3    H144660   2.103   3.567  14.878
 7723TIP3    H244661   2.190   3.585  14.755
 7724TIP3   OH244662   2.328   3.493  14.690
 7724TIP3    H144663   2.318   3.402  14.718
 7724TIP3    H244664   2.416   3.518  14.721
 7725TIP3   OH244665   2.592   3.526  14.790
 7725TIP3    H144666   2.602   3.438  14.755
 7725TIP3    H244667   2.631   3.522  14.877
 7726TIP3   OH244668   2.911   2.096  14.689
 7726TIP3    H144669   2.849   2.026  14.711
 7726TIP3    H244670   2.984   2.052  14.648
 7727TIP3   OH244671   3.413   1.951  14.684
 7727TIP3    H144672   3.473   2.007  14.634
 7727TIP3    H244673   3.326   1.989  14.668
 7728TIP3   OH244674   3.597   2.047  14.503
 7728TIP3    H144675   3.660   1.978  14.482
 7728TIP3    H244676   3.651   2.124  14.520
 7729TIP3   OH244677   2.145   1.961  14.435
 7729TIP3    H144678   2.053   1.942  14.418
 7729TIP3    H244679   2.190   1.877  14.421
 7730TIP3   OH244680   2.063   1.980  14.055
 7730TIP3    H144681   2.113   2.038  13.997
 7730TIP3    H244682   2.020   2.040  14.116
 7731TIP3   OH244683   2.645   1.921  14.463
 7731TIP3    H144684   2.715   1.971  14.422
 7731TIP3    H244685   2.665   1.926  14.557
 7732TIP3   OH244686   3.135   1.966  14.590
 7732TIP3    H144687   3.170   1.944  14.504
 7732TIP3    H244688   3.117   1.882  14.631
 7733TIP3   OH244689   3.304   2.001  14.186
 7733TIP3    H144690   3.228   2.057  14.203
 7733TIP3    H244691   3.272   1.912  14.199
 7734TIP3   OH244692   2.013   3.589  14.116
 7734TIP3    H144693   1.938   3.587  14.056
 7734TIP3    H244694   2.051   3.676  14.104
 7735TIP3   OH244695   2.243   2.128  13.880
 7735TIP3    H144696   2.293   2.068  13.825
 7735TIP3    H244697   2.307   2.160  13.944
 7736TIP3   OH244698   2.706   2.200  14.132
 7736TIP3    H144699   2.740   2.127  14.184
 7736TIP3    H244700   2.723   2.277  14.185
 7737TIP3   OH244701   2.925   3.660  13.957
 7737TIP3    H144702   3.018   3.678  13.946
 7737TIP3    H244703   2.901   3.610  13.879
 7738TIP3   OH244704   3.572   3.653  14.245
 7738TIP3    H144705   3.557   3.563  14.214
 7738TIP3    H244706   3.563   3.707  14.166
 7739TIP3   OH244707   2.157   2.023  15.371
 7739TIP3    H144708   2.099   1.964  15.420
 7739TIP3    H244709   2.242   2.014  15.413
 7740TIP3   OH244710   2.366   1.949  15.541
 7740TIP3    H144711   2.456   1.933  15.513
 7740TIP3    H244712   2.342   1.870  15.591
 7741TIP3   OH244713   2.228   3.636  13.803
 7741TIP3    H144714   2.205   3.642  13.895
 7741TIP3    H244715   2.303   3.576  13.801
 7742TIP3   OH244716   3.216   1.917  15.590
 7742TIP3    H144717   3.208   1.868  15.671
 7742TIP3    H244718   3.308   1.907  15.564
 7743TIP3   OH244719   3.475   3.513  15.442
 7743TIP3    H144720   3.422   3.509  15.363
 7743TIP3    H244721   3.482   3.607  15.461
 7744TIP3   OH244722   4.968   2.917  14.417
 7744TIP3    H144723   4.957   3.012  14.406
 7744TIP3    H244724   4.898   2.879  14.364
 7745TIP3   OH244725   4.847   2.828  14.822
 7745TIP3    H144726   4.875   2.786  14.904
 7745TIP3    H244727   4.796   2.760  14.777
 7746TIP3   OH244728   4.060   2.755  14.945
 7746TIP3    H144729   4.073   2.684  15.008
 7746TIP3    H244730   4.148   2.777  14.915
 7747TIP3   OH244731   5.231   3.137  14.647
 7747TIP3    H144732   5.194   3.062  14.692
 7747TIP3    H244733   5.248   3.201  14.716
 7748TIP3   OH244734   4.201   3.231  14.743
 7748TIP3    H144735   4.168   3.143  14.721
 7748TIP3    H244736   4.295   3.218  14.757
 7749TIP3   OH244737   3.847   2.572  14.277
 7749TIP3    H144738   3.817   2.656  14.313
 7749TIP3    H244739   3.781   2.549  14.211
 7750TIP3   OH244740   3.908   2.818  14.592
 7750TIP3    H144741   3.940   2.730  14.609
 7750TIP3    H244742   3.985   2.874  14.601
 7751TIP3   OH244743   4.966   3.603  14.686
 7751TIP3    H144744   4.998   3.552  14.611
 7751TIP3    H244745   4.945   3.538  14.753
 7752TIP3   OH244746   4.693   3.076  14.830
 7752TIP3    H144747   4.735   2.996  14.798
 7752TIP3    H244748   4.755   3.113  14.892
 7753TIP3   OH244749   5.594   2.232  14.927
 7753TIP3    H144750   5.603   2.309  14.983
 7753TIP3    H244751   5.651   2.250  14.852
 7754TIP3   OH244752   4.993   2.500  14.836
 7754TIP3    H144753   5.004   2.406  14.850
 7754TIP3    H244754   4.982   2.509  14.741
 7755TIP3   OH244755   4.348   2.300  14.562
 7755TIP3    H144756   4.352   2.386  14.520
 7755TIP3    H244757   4.292   2.248  14.504
 7756TIP3   OH244758   5.127   2.337  14.415
 7756TIP3    H144759   5.167   2.306  14.497
 7756TIP3    H244760   5.199   2.376  14.366
 7757TIP3   OH244761   3.985   2.558  14.653
 7757TIP3    H144762   4.051   2.516  14.708
 7757TIP3    H244763   4.003   2.524  14.565
 7758TIP3   OH244764   4.457   2.705  14.625
 7758TIP3    H144765   4.544   2.672  14.649
 7758TIP3    H244766   4.422   2.638  14.565
 7759TIP3   OH244767   5.619   2.404  15.146
 7759TIP3    H144768   5.536   2.451  15.131
 7759TIP3    H244769   5.639   2.421  15.238
 7760TIP3   OH244770   4.210   2.228  14.991
 7760TIP3    H144771   4.188   2.286  14.918
 7760TIP3    H244772   4.137   2.237  15.052
 7761TIP3   OH244773   4.935   3.173  14.314
 7761TIP3    H144774   4.912   3.168  14.221
 7761TIP3    H244775   4.888   3.249  14.347
 7762TIP3   OH244776   4.460   3.002  14.963
 7762TIP3    H144777   4.413   3.075  15.001
 7762TIP3    H244778   4.534   3.042  14.916
 7763TIP3   OH244779   5.218   2.284  14.667
 7763TIP3    H144780   5.149   2.257  14.728
 7763TIP3    H244781   5.273   2.343  14.719
 7764TIP3   OH244782   4.186   2.393  14.770
 7764TIP3    H144783   4.242   2.450  14.821
 7764TIP3    H244784   4.243   2.356  14.703
 7765TIP3   OH244785   4.319   3.207  15.084
 7765TIP3    H144786   4.328   3.302  15.075
 7765TIP3    H244787   4.227   3.195  15.108
 7766TIP3   OH244788   3.889   3.181  14.175
 7766TIP3    H144789   3.881   3.237  14.098
 7766TIP3    H244790   3.914   3.241  14.246
 7767TIP3   OH244791   5.256   3.342  14.843
 7767TIP3    H144792   5.162   3.344  14.858
 7767TIP3    H244793   5.279   3.432  14.819
 7768TIP3   OH244794   5.341   2.144  15.009
 7768TIP3    H144795   5.273   2.182  14.954
 7768TIP3    H244796   5.424   2.171  14.969
 7769TIP3   OH244797   4.561   1.916  14.748
 7769TIP3    H144798   4.532   1.825  14.747
 7769TIP3    H244799   4.485   1.965  14.776
 7770TIP3   OH244800   5.081   3.494  14.457
 7770TIP3    H144801   5.123   3.410  14.441
 7770TIP3    H244802   5.153   3.556  14.461
 7771TIP3   OH244803   5.191   3.252  14.399
 7771TIP3    H144804   5.113   3.207  14.366
 7771TIP3    H244805   5.214   3.205  14.479
 7772TIP3   OH244806   5.365   3.124  15.195
 7772TIP3    H144807   5.356   3.066  15.120
 7772TIP3    H244808   5.378   3.211  15.156
 7773TIP3   OH244809   4.815   2.822  14.203
 7773TIP3    H144810   4.746   2.883  14.177
 7773TIP3    H244811   4.882   2.831  14.135
 7774TIP3   OH244812   4.844   2.716  13.852
 7774TIP3    H144813   4.900   2.739  13.927
 7774TIP3    H244814   4.894   2.649  13.805
 7775TIP3   OH244815   5.531   2.786  15.036
 7775TIP3    H144816   5.458   2.846  15.026
 7775TIP3    H244817   5.592   2.811  14.966
 7776TIP3   OH244818   5.186   2.847  14.268
 7776TIP3    H144819   5.118   2.872  14.331
 7776TIP3    H244820   5.251   2.802  14.321
 7777TIP3   OH244821   5.141   2.648  15.233
 7777TIP3    H144822   5.137   2.722  15.294
 7777TIP3    H244823   5.079   2.670  15.164
 7778TIP3   OH244824   4.331   2.900  14.462
 7778TIP3    H144825   4.307   2.860  14.378
 7778TIP3    H244826   4.384   2.833  14.506
 7779TIP3   OH244827   4.484   3.249  14.728
 7779TIP3    H144828   4.484   3.262  14.633
 7779TIP3    H244829   4.562   3.195  14.744
 7780TIP3   OH244830   4.316   2.804  14.840
 7780TIP3    H144831   4.370   2.777  14.766
 7780TIP3    H244832   4.367   2.873  14.883
 7781TIP3   OH244833   4.992   3.355  14.910
 7781TIP3    H144834   4.977   3.427  14.971
 7781TIP3    H244835   4.949   3.279  14.951
 7782TIP3   OH244836   4.470   3.224  15.318
 7782TIP3    H144837   4.406   3.282  15.361
 7782TIP3    H244838   4.428   3.199  15.236
 7783TIP3   OH244839   5.047   2.780  14.039
 7783TIP3    H144840   5.099   2.815  14.111
 7783TIP3    H244841   5.101   2.793  13.961
 7784TIP3   OH244842   4.135   2.807  15.284
 7784TIP3    H144843   4.146   2.896  15.319
 7784TIP3    H244844   4.048   2.808  15.243
 7785TIP3   OH244845   4.827   3.419  14.379
 7785TIP3    H144846   4.909   3.454  14.414
 7785TIP3    H244847   4.787   3.492  14.332
 7786TIP3   OH244848   4.266   3.403  15.382
 7786TIP3    H144849   4.276   3.437  15.294
 7786TIP3    H244850   4.172   3.408  15.400
 7787TIP3   OH244851   5.411   1.922  14.041
 7787TIP3    H144852   5.328   1.949  14.081
 7787TIP3    H244853   5.447   2.003  14.004
 7788TIP3   OH244854   4.243   2.809  14.207
 7788TIP3    H144855   4.184   2.877  14.175
 7788TIP3    H244856   4.195   2.727  14.196
 7789TIP3   OH244857   5.559   3.367  13.900
 7789TIP3    H144858   5.567   3.462  13.900
 7789TIP3    H244859   5.648   3.335  13.888
 7790TIP3   OH244860   3.840   3.064  15.136
 7790TIP3    H144861   3.788   3.073  15.056
 7790TIP3    H244862   3.855   2.970  15.145
 7791TIP3   OH244863   3.811   3.343  14.823
 7791TIP3    H144864   3.899   3.345  14.862
 7791TIP3    H244865   3.768   3.421  14.859
 7792TIP3   OH244866   5.612   3.399  15.406
 7792TIP3    H144867   5.595   3.305  15.401
 7792TIP3    H244868   5.531   3.437  15.440
 7793TIP3   OH244869   4.709   3.356  15.274
 7793TIP3    H144870   4.701   3.440  15.317
 7793TIP3    H244871   4.625   3.312  15.290
 7794TIP3   OH244872   4.802   3.692  14.245
 7794TIP3    H144873   4.770   3.696  14.155
 7794TIP3    H244874   4.767   3.770  14.287
 7795TIP3   OH244875   4.133   3.592  14.446
 7795TIP3    H144876   4.159   3.560  14.532
 7795TIP3    H244877   4.084   3.521  14.406
 7796TIP3   OH244878   5.092   3.664  13.925
 7796TIP3    H144879   5.138   3.589  13.888
 7796TIP3    H244880   5.100   3.653  14.020
 7797TIP3   OH244881   5.068   3.640  14.201
 7797TIP3    H144882   4.975   3.653  14.217
 7797TIP3    H244883   5.096   3.580  14.270
 7798TIP3   OH244884   5.331   2.523  15.414
 7798TIP3    H144885   5.258   2.561  15.365
 7798TIP3    H244886   5.336   2.433  15.383
 7799TIP3   OH244887   4.062   3.219  15.190
 7799TIP3    H144888   4.087   3.180  15.274
 7799TIP3    H244889   3.983   3.172  15.165
 7800TIP3   OH244890   4.315   2.024  14.832
 7800TIP3    H144891   4.239   2.012  14.775
 7800TIP3    H244892   4.291   2.097  14.889
 7801TIP3   OH244893   4.808   1.970  15.181
 7801TIP3    H144894   4.843   1.941  15.266
 7801TIP3    H244895   4.713   1.975  15.195
 7802TIP3   OH244896   5.077   2.375  15.242
 7802TIP3    H144897   5.017   2.358  15.314
 7802TIP3    H244898   5.085   2.471  15.240
 7803TIP3   OH244899   5.189   2.783  13.801
 7803TIP3    H144900   5.168   2.817  13.714
 7803TIP3    H244901   5.278   2.815  13.818
 7804TIP3   OH244902   4.746   2.229  13.904
 7804TIP3    H144903   4.686   2.227  13.979
 7804TIP3    H244904   4.710   2.164  13.843
 7805TIP3   OH244905   4.330   2.548  14.949
 7805TIP3    H144906   4.265   2.546  15.020
 7805TIP3    H244907   4.331   2.639  14.920
 7806TIP3   OH244908   4.325   2.544  14.440
 7806TIP3    H144909   4.230   2.535  14.437
 7806TIP3    H244910   4.353   2.530  14.349
 7807TIP3   OH244911   4.865   2.575  14.312
 7807TIP3    H144912   4.841   2.663  14.281
 7807TIP3    H244913   4.935   2.547  14.254
 7808TIP3   OH244914   4.793   2.578  15.432
 7808TIP3    H144915   4.739   2.508  15.468
 7808TIP3    H244916   4.876   2.571  15.479
 7809TIP3   OH244917   4.969   2.515  14.564
 7809TIP3    H144918   4.923   2.560  14.493
 7809TIP3    H244919   5.016   2.443  14.521
 7810TIP3   OH244920   4.118   2.545  15.125
 7810TIP3    H144921   4.116   2.591  15.208
 7810TIP3    H244922   4.075   2.461  15.142
 7811TIP3   OH244923   4.432   2.279  13.800
 7811TIP3    H144924   4.398   2.268  13.889
 7811TIP3    H244925   4.373   2.342  13.759
 7812TIP3   OH244926   3.778   2.245  14.519
 7812TIP3    H144927   3.836   2.256  14.595
 7812TIP3    H244928   3.838   2.243  14.444
 7813TIP3   OH244929   3.807   2.340  14.014
 7813TIP3    H144930   3.876   2.381  13.962
 7813TIP3    H244931   3.749   2.412  14.038
 7814TIP3   OH244932   4.934   2.667  15.041
 7814TIP3    H144933   4.964   2.611  14.969
 7814TIP3    H244934   4.866   2.616  15.084
 7815TIP3   OH244935   4.630   2.259  14.522
 7815TIP3    H144936   4.540   2.264  14.555
 7815TIP3    H244937   4.681   2.226  14.597
 7816TIP3   OH244938   4.063   2.460  14.409
 7816TIP3    H144939   3.991   2.489  14.353
 7816TIP3    H244940   4.082   2.371  14.380
 7817TIP3   OH244941   4.389   2.473  14.182
 7817TIP3    H144942   4.483   2.466  14.198
 7817TIP3    H244943   4.382   2.513  14.095
 7818TIP3   OH244944   5.006   2.224  14.841
 7818TIP3    H144945   4.972   2.220  14.930
 7818TIP3    H244946   4.938   2.185  14.786
 7819TIP3   OH244947   4.358   2.561  13.924
 7819TIP3    H144948   4.306   2.536  13.848
 7819TIP3    H244949   4.432   2.609  13.888
 7820TIP3   OH244950   5.354   3.781  15.491
 7820TIP3    H144951   5.378   3.821  15.407
 7820TIP3    H244952   5.430   3.794  15.547
 7821TIP3   OH244953   4.117   3.056  15.420
 7821TIP3    H144954   4.184   3.055  15.488
 7821TIP3    H244955   4.034   3.062  15.467
 7822TIP3   OH244956   4.698   2.595  14.724
 7822TIP3    H144957   4.769   2.545  14.684
 7822TIP3    H244958   4.668   2.540  14.797
 7823TIP3   OH244959   4.165   2.195  14.370
 7823TIP3    H144960   4.116   2.117  14.395
 7823TIP3    H244961   4.199   2.174  14.283
 7824TIP3   OH244962   4.592   2.454  14.945
 7824TIP3    H144963   4.507   2.498  14.955
 7824TIP3    H244964   4.642   2.481  15.022
 7825TIP3   OH244965   4.620   3.005  14.128
 7825TIP3    H144966   4.548   2.976  14.072
 7825TIP3    H244967   4.577   3.040  14.206
 7826TIP3   OH244968   5.341   2.973  14.966
 7826TIP3    H144969   5.403   3.027  14.918
 7826TIP3    H244970   5.271   2.955  14.903
 7827TIP3   OH244971   4.997   2.278  13.999
 7827TIP3    H144972   4.908   2.277  13.965
 7827TIP3    H244973   5.009   2.368  14.030
 7828TIP3   OH244974   4.780   3.057  15.276
 7828TIP3    H144975   4.812   3.016  15.356
 7828TIP3    H244976   4.758   3.146  15.303
 7829TIP3   OH244977   5.071   2.514  14.131
 7829TIP3    H144978   5.159   2.499  14.165
 7829TIP3    H244979   5.074   2.603  14.095
 7830TIP3   OH244980   4.149   2.955  14.663
 7830TIP3    H144981   4.207   2.949  14.587
 7830TIP3    H244982   4.193   2.904  14.731
 7831TIP3   OH244983   4.825   3.170  14.054
 7831TIP3    H144984   4.790   3.259  14.061
 7831TIP3    H244985   4.751   3.114  14.078
 7832TIP3   OH244986   3.860   2.796  15.219
 7832TIP3    H144987   3.838   2.758  15.305
 7832TIP3    H244988   3.787   2.771  15.163
 7833TIP3   OH244989   4.574   2.763  15.461
 7833TIP3    H144990   4.511   2.729  15.397
 7833TIP3    H244991   4.656   2.719  15.439
 7834TIP3   OH244992   4.989   3.339  15.273
 7834TIP3    H144993   4.895   3.345  15.256
 7834TIP3    H244994   4.998   3.356  15.367
 7835TIP3   OH244995   5.521   2.553  14.070
 7835TIP3    H144996   5.478   2.531  13.986
 7835TIP3    H244997   5.548   2.644  14.060
 7836TIP3   OH244998   5.578   3.118  15.362
 7836TIP3    H144999   5.493   3.130  15.319
 7836TIP3    H245000   5.640   3.108  15.290
 7837TIP3   OH245001   5.415   3.401  14.150
 7837TIP3    H145002   5.361   3.331  14.186
 7837TIP3    H245003   5.448   3.366  14.067
 7838TIP3   OH245004   5.137   2.905  14.782
 7838TIP3    H145005   5.041   2.896  14.783
 7838TIP3    H245006   5.167   2.827  14.735
 7839TIP3   OH245007   4.406   3.333  14.470
 7839TIP3    H145008   4.427   3.417  14.430
 7839TIP3    H245009   4.311   3.335  14.482
 7840TIP3   OH245010   3.971   2.783  13.927
 7840TIP3    H145011   4.016   2.850  13.978
 7840TIP3    H245012   3.880   2.788  13.955
 7841TIP3   OH245013   4.476   3.103  14.334
 7841TIP3    H145014   4.464   3.186  14.381
 7841TIP3    H245015   4.426   3.040  14.386
 7842TIP3   OH245016   4.606   3.494  15.043
 7842TIP3    H145017   4.660   3.570  15.023
 7842TIP3    H245018   4.660   3.441  15.101
 7843TIP3   OH245019   4.398   3.588  14.357
 7843TIP3    H145020   4.306   3.612  14.366
 7843TIP3    H245021   4.446   3.664  14.391
 7844TIP3   OH245022   4.888   3.118  15.026
 7844TIP3    H145023   4.848   3.098  15.111
 7844TIP3    H245024   4.965   3.061  15.023
 7845TIP3   OH245025   5.191   3.213  13.917
 7845TIP3    H145026   5.216   3.160  13.993
 7845TIP3    H245027   5.104   3.183  13.894
 7846TIP3   OH245028   5.196   3.526  15.225
 7846TIP3    H145029   5.114   3.478  15.219
 7846TIP3    H245030   5.185   3.600  15.164
 7847TIP3   OH245031   5.596   3.640  13.923
 7847TIP3    H145032   5.659   3.711  13.909
 7847TIP3    H245033   5.517   3.683  13.956
 7848TIP3   OH245034   3.993   2.288  15.156
 7848TIP3    H145035   3.904   2.321  15.140
 7848TIP3    H245036   3.980   2.209  15.209
 7849TIP3   OH245037   5.294   3.054  14.115
 7849TIP3    H145038   5.250   2.992  14.174
 7849TIP3    H245039   5.386   3.046  14.138
 7850TIP3   OH245040   4.000   3.480  15.041
 7850TIP3    H145041   4.026   3.404  15.093
 7850TIP3    H245042   4.016   3.555  15.098
 7851TIP3   OH245043   4.560   3.298  13.774
 7851TIP3    H145044   4.564   3.212  13.733
 7851TIP3    H245045   4.518   3.283  13.859
 7852TIP3   OH245046   4.425   3.281  14.018
 7852TIP3    H145047   4.456   3.236  14.096
 7852TIP3    H245048   4.431   3.375  14.039
 7853TIP3   OH245049   4.072   2.991  14.084
 7853TIP3    H145050   4.004   3.041  14.130
 7853TIP3    H245051   4.118   3.056  14.032
 7854TIP3   OH245052   4.901   2.222  15.092
 7854TIP3    H145053   4.966   2.258  15.152
 7854TIP3    H245054   4.870   2.142  15.135
 7855TIP3   OH245055   4.979   2.168  14.253
 7855TIP3    H145056   4.984   2.206  14.166
 7855TIP3    H245057   5.022   2.232  14.310
 7856TIP3   OH245058   4.719   3.421  14.070
 7856TIP3    H145059   4.631   3.454  14.087
 7856TIP3    H245060   4.769   3.497  14.041
 7857TIP3   OH245061   4.643   2.414  14.292
 7857TIP3    H145062   4.718   2.473  14.298
 7857TIP3    H245063   4.638   2.372  14.378
 7858TIP3   OH245064   4.762   2.489  15.165
 7858TIP3    H145065   4.769   2.516  15.257
 7858TIP3    H245066   4.795   2.399  15.164
 7859TIP3   OH245067   4.736   2.071  14.342
 7859TIP3    H145068   4.708   2.141  14.402
 7859TIP3    H245069   4.822   2.099  14.312
 7860TIP3   OH245070   4.472   3.539  14.095
 7860TIP3    H145071   4.475   3.622  14.048
 7860TIP3    H245072   4.437   3.562  14.181
 7861TIP3   OH245073   4.324   2.229  14.055
 7861TIP3    H145074   4.318   2.314  14.099
 7861TIP3    H245075   4.410   2.195  14.080
 7862TIP3   OH245076   5.331   2.282  15.263
 7862TIP3    H145077   5.237   2.303  15.257
 7862TIP3    H245078   5.352   2.244  15.178
 7863TIP3   OH245079   5.211   2.653  14.661
 7863TIP3    H145080   5.127   2.613  14.641
 7863TIP3    H245081   5.252   2.592  14.723
 7864TIP3   OH245082   4.179   3.192  13.924
 7864TIP3    H145083   4.250   3.242  13.963
 7864TIP3    H245084   4.221   3.139  13.855
 7865TIP3   OH245085   3.956   2.512  13.861
 7865TIP3    H145086   3.979   2.597  13.898
 7865TIP3    H245087   3.924   2.532  13.773
 7866TIP3   OH245088   5.338   3.609  14.828
 7866TIP3    H145089   5.325   3.682  14.767
 7866TIP3    H245090   5.432   3.608  14.846
 7867TIP3   OH245091   4.067   1.994  14.709
 7867TIP3    H145092   4.057   1.987  14.614
 7867TIP3    H245093   4.037   1.910  14.742
 7868TIP3   OH245094   3.952   3.391  14.353
 7868TIP3    H145095   3.898   3.427  14.424
 7868TIP3    H245096   3.937   3.450  14.280
 7869TIP3   OH245097   3.945   3.698  15.532
 7869TIP3    H145098   4.001   3.693  15.609
 7869TIP3    H245099   3.949   3.610  15.493
 7870TIP3   OH245100   4.349   3.502  15.628
 7870TIP3    H145101   4.425   3.446  15.648
 7870TIP3    H245102   4.320   3.472  15.542
 7871TIP3   OH245103   4.763   3.483  13.750
 7871TIP3    H145104   4.696   3.417  13.768
 7871TIP3    H245105   4.839   3.433  13.720
 7872TIP3   OH245106   5.008   3.375  15.547
 7872TIP3    H145107   4.987   3.290  15.584
 7872TIP3    H245108   5.084   3.405  15.597
 7873TIP3   OH245109   5.212   3.456  13.795
 7873TIP3    H145110   5.220   3.376  13.846
 7873TIP3    H245111   5.287   3.454  13.735
 7874TIP3   OH245112   3.871   3.045  15.555
 7874TIP3    H145113   3.882   2.950  15.544
 7874TIP3    H245114   3.800   3.068  15.495
 7875TIP3   OH245115   4.314   3.019  13.760
 7875TIP3    H145116   4.336   2.972  13.840
 7875TIP3    H245117   4.398   3.033  13.716
 7876TIP3   OH245118   4.534   3.044  15.521
 7876TIP3    H145119   4.525   3.090  15.438
 7876TIP3    H245120   4.564   2.957  15.497
 7877TIP3   OH245121   4.944   3.146  13.808
 7877TIP3    H145122   4.893   3.148  13.889
 7877TIP3    H245123   4.911   3.070  13.760
 7878TIP3   OH245124   5.106   3.083  15.280
 7878TIP3    H145125   5.197   3.102  15.255
 7878TIP3    H245126   5.061   3.167  15.272
 7879TIP3   OH245127   3.952   2.783  15.508
 7879TIP3    H145128   4.033   2.771  15.459
 7879TIP3    H245129   3.977   2.767  15.599
 7880TIP3   OH245130   4.408   2.891  13.989
 7880TIP3    H145131   4.361   2.849  14.061
 7880TIP3    H245132   4.457   2.819  13.948
 7881TIP3   OH245133   4.385   2.669  15.270
 7881TIP3    H145134   4.305   2.722  15.270
 7881TIP3    H245135   4.441   2.711  15.205
 7882TIP3   OH245136   4.566   2.718  13.837
 7882TIP3    H145137   4.562   2.744  13.745
 7882TIP3    H245138   4.660   2.712  13.856
 7883TIP3   OH245139   4.878   2.909  15.526
 7883TIP3    H145140   4.962   2.874  15.494
 7883TIP3    H245141   4.848   2.844  15.589
 7884TIP3   OH245142   5.442   2.898  13.785
 7884TIP3    H145143   5.448   2.880  13.692
 7884TIP3    H245144   5.439   2.994  13.791
 7885TIP3   OH245145   4.424   2.406  15.341
 7885TIP3    H145146   4.434   2.350  15.265
 7885TIP3    H245147   4.414   2.494  15.305
 7886TIP3   OH245148   4.460   2.251  15.105
 7886TIP3    H145149   4.512   2.299  15.041
 7886TIP3    H245150   4.373   2.245  15.065
 7887TIP3   OH245151   4.565   2.794  15.110
 7887TIP3    H145152   4.655   2.819  15.131
 7887TIP3    H245153   4.531   2.867  15.058
 7888TIP3   OH245154   5.006   2.536  15.616
 7888TIP3    H145155   5.008   2.462  15.677
 7888TIP3    H245156   5.086   2.584  15.635
 7889TIP3   OH245157   5.154   2.857  15.423
 7889TIP3    H145158   5.126   2.936  15.378
 7889TIP3    H245159   5.250   2.861  15.422
 7890TIP3   OH245160   4.251   2.452  15.561
 7890TIP3    H145161   4.175   2.398  15.541
 7890TIP3    H245162   4.304   2.449  15.481
 7891TIP3   OH245163   4.526   1.986  15.172
 7891TIP3    H145164   4.504   2.077  15.152
 7891TIP3    H245165   4.456   1.934  15.134
 7892TIP3   OH245166   4.639   2.366  15.513
 7892TIP3    H145167   4.596   2.340  15.594
 7892TIP3    H245168   4.568   2.373  15.449
 7893TIP3   OH245169   4.895   2.285  15.420
 7893TIP3    H145170   4.810   2.297  15.463
 7893TIP3    H245171   4.953   2.255  15.489
 7894TIP3   OH245172   5.086   2.197  15.607
 7894TIP3    H145173   5.079   2.102  15.617
 7894TIP3    H245174   5.052   2.232  15.690
 7895TIP3   OH245175   4.043   2.269  15.520
 7895TIP3    H145176   4.046   2.200  15.454
 7895TIP3    H245177   4.051   2.223  15.604
 7896TIP3   OH245178   4.515   1.914  15.440
 7896TIP3    H145179   4.575   1.839  15.437
 7896TIP3    H245180   4.511   1.944  15.349
 7897TIP3   OH245181   4.578   2.062  15.668
 7897TIP3    H145182   4.563   2.011  15.588
 7897TIP3    H245183   4.520   2.138  15.659
 7898TIP3   OH245184   4.568   3.769  13.968
 7898TIP3    H145185   4.657   3.736  13.957
 7898TIP3    H245186   4.558   3.834  13.898
 7899TIP3   OH245187   3.919   3.250  13.862
 7899TIP3    H145188   4.009   3.239  13.893
 7899TIP3    H245189   3.903   3.174  13.806
 7900TIP3   OH245190   3.758   3.732  14.433
 7900TIP3    H145191   3.707   3.701  14.358
 7900TIP3    H245192   3.782   3.652  14.480
 7901TIP3   OH245193   3.839   3.509  14.584
 7901TIP3    H145194   3.805   3.434  14.634
 7901TIP3    H245195   3.891   3.558  14.648
 7902TIP3   OH245196   5.601   3.612  14.913
 7902TIP3    H145197   5.593   3.606  15.008
 7902TIP3    H245198   5.664   3.683  14.899
 7903TIP3   OH245199   5.548   3.573  15.183
 7903TIP3    H145200   5.495   3.501  15.151
 7903TIP3    H245201   5.593   3.537  15.260
 7904TIP3   OH245202   5.399   3.148  15.762
 7904TIP3    H145203   5.310   3.163  15.793
 7904TIP3    H245204   5.437   3.236  15.756
 7905TIP3   OH245205   5.559   3.005  14.190
 7905TIP3    H145206   5.629   3.069  14.194
 7905TIP3    H245207   5.577   2.945  14.263
 7906TIP3   OH245208   5.608   2.805  14.379
 7906TIP3    H145209   5.523   2.774  14.410
 7906TIP3    H245210   5.659   2.818  14.459
 7907TIP3   OH245211   5.580   3.104  14.898
 7907TIP3    H145212   5.633   3.038  14.852
 7907TIP3    H245213   5.609   3.187  14.862
 7908TIP3   OH245214   5.381   3.375  15.089
 7908TIP3    H145215   5.310   3.422  15.132
 7908TIP3    H245216   5.349   3.360  15.000
 7909TIP3   OH245217   5.590   2.809  14.000
 7909TIP3    H145218   5.539   2.836  13.924
 7909TIP3    H245219   5.575   2.879  14.064
 7910TIP3   OH245220   5.416   2.507  13.820
 7910TIP3    H145221   5.397   2.564  13.746
 7910TIP3    H245222   5.403   2.418  13.787
 7911TIP3   OH245223   5.355   2.688  14.426
 7911TIP3    H145224   5.350   2.599  14.391
 7911TIP3    H245225   5.311   2.683  14.511
 7912TIP3   OH245226   3.828   2.858  14.850
 7912TIP3    H145227   3.839   2.849  14.756
 7912TIP3    H245228   3.911   2.830  14.887
 7913TIP3   OH245229   5.432   2.874  15.418
 7913TIP3    H145230   5.488   2.799  15.399
 7913TIP3    H245231   5.482   2.950  15.388
 7914TIP3   OH245232   5.575   2.641  15.381
 7914TIP3    H145233   5.489   2.600  15.392
 7914TIP3    H245234   5.637   2.574  15.409
 7915TIP3   OH245235   5.360   2.254  13.722
 7915TIP3    H145236   5.398   2.207  13.796
 7915TIP3    H245237   5.266   2.234  13.726
 7916TIP3   OH245238   5.335   2.442  14.253
 7916TIP3    H145239   5.366   2.352  14.258
 7916TIP3    H245240   5.397   2.486  14.196
 7917TIP3   OH245241   5.358   2.467  14.823
 7917TIP3    H145242   5.450   2.479  14.800
 7917TIP3    H245243   5.353   2.490  14.916
 7918TIP3   OH245244   5.385   2.557  15.087
 7918TIP3    H145245   5.308   2.585  15.135
 7918TIP3    H245246   5.436   2.637  15.075
 7919TIP3   OH245247   3.817   2.392  15.413
 7919TIP3    H145248   3.902   2.369  15.451
 7919TIP3    H245249   3.765   2.312  15.419
 7920TIP3   OH245250   5.609   1.971  15.602
 7920TIP3    H145251   5.683   1.911  15.591
 7920TIP3    H245252   5.625   2.041  15.538
 7921TIP3   OH245253   5.403   2.169  14.277
 7921TIP3    H145254   5.418   2.130  14.363
 7921TIP3    H245255   5.334   2.114  14.238
 7922TIP3   OH245256   3.943   2.241  14.744
 7922TIP3    H145257   3.980   2.153  14.743
 7922TIP3    H245258   4.018   2.299  14.756
 7923TIP3   OH245259   3.745   2.527  14.803
 7923TIP3    H145260   3.816   2.524  14.739
 7923TIP3    H245261   3.772   2.595  14.865
 7924TIP3   OH245262   5.562   2.183  15.430
 7924TIP3    H145263   5.491   2.212  15.487
 7924TIP3    H245264   5.517   2.144  15.355
 7925TIP3   OH245265   5.524   2.138  13.915
 7925TIP3    H145266   5.580   2.083  13.861
 7925TIP3    H245267   5.583   2.205  13.950
 7926TIP3   OH245268   3.805   2.154  14.215
 7926TIP3    H145269   3.711   2.151  14.235
 7926TIP3    H245270   3.813   2.225  14.151
 7927TIP3   OH245271   5.274   3.680  14.442
 7927TIP3    H145272   5.348   3.675  14.382
 7927TIP3    H245273   5.306   3.730  14.517
 7928TIP3   OH245274   3.808   2.000  15.062
 7928TIP3    H145275   3.737   1.985  15.124
 7928TIP3    H245276   3.777   2.070  15.006
 7929TIP3   OH245277   3.999   3.422  15.475
 7929TIP3    H145278   3.908   3.404  15.451
 7929TIP3    H245279   4.011   3.378  15.559
 7930TIP3   OH245280   4.344   3.482  15.123
 7930TIP3    H145281   4.315   3.570  15.099
 7930TIP3    H245282   4.437   3.481  15.103
 7931TIP3   OH245283   4.709   3.600  15.406
 7931TIP3    H145284   4.722   3.566  15.495
 7931TIP3    H245285   4.788   3.649  15.387
 7932TIP3   OH245286   4.944   3.737  15.367
 7932TIP3    H145287   5.015   3.691  15.320
 7932TIP3    H245288   4.985   3.767  15.448
 7933TIP3   OH245289   5.455   1.992  15.244
 7933TIP3    H145290   5.390   2.019  15.180
 7933TIP3    H245291   5.469   1.899  15.227
 7934TIP3   OH245292   4.036   3.753  15.142
 7934TIP3    H145293   3.958   3.793  15.102
 7934TIP3    H245294   4.048   3.800  15.224
 7935TIP3   OH245295   4.298   3.745  15.055
 7935TIP3    H145296   4.205   3.752  15.080
 7935TIP3    H245297   4.303   3.787  14.970
 7936TIP3   OH245298   4.741   3.721  14.961
 7936TIP3    H145299   4.690   3.758  14.889
 7936TIP3    H245300   4.753   3.793  15.022
 7937TIP3   OH245301   4.968   3.593  15.045
 7937TIP3    H145302   4.890   3.637  15.013
 7937TIP3    H245303   5.039   3.656  15.031
 7938TIP3   OH245304   5.206   3.736  15.035
 7938TIP3    H145305   5.231   3.828  15.023
 7938TIP3    H245306   5.249   3.690  14.963
 7939TIP3   OH245307   3.995   3.619  14.801
 7939TIP3    H145308   3.995   3.576  14.887
 7939TIP3    H245309   4.073   3.586  14.757
 7940TIP3   OH245310   4.213   3.499  14.693
 7940TIP3    H145311   4.202   3.406  14.713
 7940TIP3    H245312   4.301   3.520  14.726
 7941TIP3   OH245313   4.475   3.522  14.798
 7941TIP3    H145314   4.484   3.433  14.764
 7941TIP3    H245315   4.512   3.519  14.886
 7942TIP3   OH245316   4.791   2.103  14.692
 7942TIP3    H145317   4.729   2.033  14.714
 7942TIP3    H245318   4.865   2.057  14.653
 7943TIP3   OH245319   5.277   1.962  14.722
 7943TIP3    H145320   5.340   2.008  14.666
 7943TIP3    H245321   5.191   1.989  14.690
 7944TIP3   OH245322   5.467   2.024  14.514
 7944TIP3    H145323   5.534   1.962  14.489
 7944TIP3    H245324   5.514   2.105  14.535
 7945TIP3   OH245325   4.033   1.959  14.437
 7945TIP3    H145326   3.940   1.941  14.420
 7945TIP3    H245327   4.076   1.875  14.425
 7946TIP3   OH245328   3.949   1.976  14.048
 7946TIP3    H145329   4.000   2.034  13.991
 7946TIP3    H245330   3.905   2.035  14.109
 7947TIP3   OH245331   4.529   1.920  14.463
 7947TIP3    H145332   4.598   1.972  14.422
 7947TIP3    H245333   4.546   1.928  14.557
 7948TIP3   OH245334   5.019   1.978  14.595
 7948TIP3    H145335   5.039   1.967  14.502
 7948TIP3    H245336   5.000   1.890  14.627
 7949TIP3   OH245337   5.195   2.001  14.193
 7949TIP3    H145338   5.119   2.058  14.207
 7949TIP3    H245339   5.160   1.912  14.200
 7950TIP3   OH245340   3.922   3.555  14.142
 7950TIP3    H145341   3.854   3.580  14.079
 7950TIP3    H245342   3.993   3.618  14.127
 7951TIP3   OH245343   4.129   2.126  13.877
 7951TIP3    H145344   4.181   2.069  13.821
 7951TIP3    H245345   4.192   2.160  13.941
 7952TIP3   OH245346   4.589   2.199  14.131
 7952TIP3    H145347   4.623   2.126  14.183
 7952TIP3    H245348   4.608   2.277  14.183
 7953TIP3   OH245349   4.817   3.657  13.952
 7953TIP3    H145350   4.911   3.675  13.944
 7953TIP3    H245351   4.796   3.604  13.876
 7954TIP3   OH245352   5.475   3.648  14.251
 7954TIP3    H145353   5.456   3.559  14.221
 7954TIP3    H245354   5.457   3.703  14.174
 7955TIP3   OH245355   4.049   2.020  15.382
 7955TIP3    H145356   3.990   1.958  15.425
 7955TIP3    H245357   4.134   2.005  15.423
 7956TIP3   OH245358   4.258   1.949  15.546
 7956TIP3    H145359   4.347   1.929  15.515
 7956TIP3    H245360   4.233   1.872  15.597
 7957TIP3   OH245361   4.136   3.666  13.785
 7957TIP3    H145362   4.134   3.696  13.876
 7957TIP3    H245363   4.210   3.606  13.781
 7958TIP3   OH245364   5.102   1.920  15.608
 7958TIP3    H145365   5.092   1.874  15.691
 7958TIP3    H245366   5.194   1.909  15.585
 7959TIP3   OH245367   5.358   3.510  15.450
 7959TIP3    H145368   5.302   3.505  15.373
 7959TIP3    H245369   5.362   3.603  15.471
 7960TIP3   OH245370   6.849   2.930  14.415
 7960TIP3    H145371   6.835   3.024  14.405
 7960TIP3    H245372   6.785   2.890  14.356
 7961TIP3   OH245373   6.707   2.826  14.813
 7961TIP3    H145374   6.736   2.787  14.896
 7961TIP3    H245375   6.663   2.754  14.768
 7962TIP3   OH245376   5.945   2.756  14.942
 7962TIP3    H145377   5.957   2.687  15.007
 7962TIP3    H245378   6.033   2.778  14.913
 7963TIP3   OH245379   7.094   3.148  14.652
 7963TIP3    H145380   7.060   3.068  14.691
 7963TIP3    H245381   7.119   3.202  14.726
 7964TIP3   OH245382   6.095   3.231  14.729
 7964TIP3    H145383   6.060   3.143  14.713
 7964TIP3    H245384   6.187   3.216  14.750
 7965TIP3   OH245385   5.725   2.569  14.278
 7965TIP3    H145386   5.698   2.654  14.313
 7965TIP3    H245387   5.661   2.549  14.210
 7966TIP3   OH245388   5.794   2.821  14.589
 7966TIP3    H145389   5.824   2.731  14.606
 7966TIP3    H245390   5.873   2.874  14.599
 7967TIP3   OH245391   6.839   3.577  14.703
 7967TIP3    H145392   6.860   3.525  14.625
 7967TIP3    H245393   6.838   3.513  14.774
 7968TIP3   OH245394   6.575   3.076  14.825
 7968TIP3    H145395   6.611   2.992  14.798
 7968TIP3    H245396   6.645   3.115  14.879
 7969TIP3   OH245397   6.865   2.509  14.836
 7969TIP3    H145398   6.877   2.414  14.846
 7969TIP3    H245399   6.846   2.521  14.743
 7970TIP3   OH245400   6.211   2.306  14.568
 7970TIP3    H145401   6.222   2.390  14.523
 7970TIP3    H245402   6.162   2.252  14.506
 7971TIP3   OH245403   6.961   2.343  14.407
 7971TIP3    H145404   7.006   2.297  14.478
 7971TIP3    H245405   7.032   2.380  14.354
 7972TIP3   OH245406   5.864   2.559  14.651
 7972TIP3    H145407   5.930   2.519  14.708
 7972TIP3    H245408   5.883   2.524  14.564
 7973TIP3   OH245409   6.336   2.703  14.624
 7973TIP3    H145410   6.421   2.668  14.650
 7973TIP3    H245411   6.301   2.638  14.563
 7974TIP3   OH245412   6.090   2.225  14.990
 7974TIP3    H145413   6.070   2.285  14.918
 7974TIP3    H245414   6.019   2.239  15.053
 7975TIP3   OH245415   6.816   3.187  14.314
 7975TIP3    H145416   6.798   3.175  14.221
 7975TIP3    H245417   6.758   3.258  14.341
 7976TIP3   OH245418   6.347   3.001  14.965
 7976TIP3    H145419   6.300   3.075  15.003
 7976TIP3    H245420   6.421   3.041  14.919
 7977TIP3   OH245421   7.098   2.225  14.612
 7977TIP3    H145422   7.039   2.182  14.674
 7977TIP3    H245423   7.136   2.298  14.661
 7978TIP3   OH245424   6.059   2.398  14.777
 7978TIP3    H145425   6.117   2.455  14.827
 7978TIP3    H245426   6.114   2.362  14.708
 7979TIP3   OH245427   6.203   3.208  15.082
 7979TIP3    H145428   6.213   3.303  15.075
 7979TIP3    H245429   6.111   3.195  15.105
 7980TIP3   OH245430   5.775   3.183  14.168
 7980TIP3    H145431   5.768   3.231  14.085
 7980TIP3    H245432   5.799   3.250  14.232
 7981TIP3   OH245433   7.146   3.347  14.857
 7981TIP3    H145434   7.051   3.353  14.867
 7981TIP3    H245435   7.174   3.437  14.839
 7982TIP3   OH245436   7.263   2.204  14.971
 7982TIP3    H145437   7.193   2.145  14.945
 7982TIP3    H245438   7.303   2.232  14.889
 7983TIP3   OH245439   6.442   1.907  14.743
 7983TIP3    H145440   6.419   1.814  14.745
 7983TIP3    H245441   6.365   1.952  14.776
 7984TIP3   OH245442   6.938   3.475  14.464
 7984TIP3    H145443   6.977   3.389  14.447
 7984TIP3    H245444   7.012   3.533  14.478
 7985TIP3   OH245445   7.079   3.253  14.395
 7985TIP3    H145446   7.002   3.207  14.360
 7985TIP3    H245447   7.097   3.208  14.478
 7986TIP3   OH245448   7.231   3.058  15.224
 7986TIP3    H145449   7.218   3.013  15.141
 7986TIP3    H245450   7.260   3.146  15.199
 7987TIP3   OH245451   6.709   2.836  14.192
 7987TIP3    H145452   6.638   2.894  14.163
 7987TIP3    H245453   6.774   2.841  14.123
 7988TIP3   OH245454   6.750   2.695  13.850
 7988TIP3    H145455   6.807   2.722  13.922
 7988TIP3    H245456   6.803   2.634  13.799
 7989TIP3   OH245457   7.071   2.871  14.265
 7989TIP3    H145458   7.002   2.895  14.327
 7989TIP3    H245459   7.125   2.807  14.312
 7990TIP3   OH245460   7.003   2.657  15.222
 7990TIP3    H145461   6.989   2.723  15.290
 7990TIP3    H245462   6.937   2.677  15.156
 7991TIP3   OH245463   6.221   2.900  14.459
 7991TIP3    H145464   6.196   2.859  14.376
 7991TIP3    H245465   6.270   2.833  14.505
 7992TIP3   OH245466   6.377   3.252  14.729
 7992TIP3    H145467   6.380   3.261  14.634
 7992TIP3    H245468   6.451   3.195  14.750
 7993TIP3   OH245469   6.201   2.806  14.841
 7993TIP3    H145470   6.254   2.777  14.767
 7993TIP3    H245471   6.254   2.873  14.884
 7994TIP3   OH245472   6.873   3.376  14.903
 7994TIP3    H145473   6.859   3.437  14.975
 7994TIP3    H245474   6.838   3.293  14.934
 7995TIP3   OH245475   6.354   3.225  15.316
 7995TIP3    H145476   6.289   3.281  15.359
 7995TIP3    H245477   6.312   3.199  15.234
 7996TIP3   OH245478   6.945   2.791  14.033
 7996TIP3    H145479   6.991   2.825  14.110
 7996TIP3    H245480   6.994   2.825  13.958
 7997TIP3   OH245481   6.018   2.809  15.287
 7997TIP3    H145482   6.030   2.898  15.321
 7997TIP3    H245483   5.931   2.810  15.246
 7998TIP3   OH245484   6.682   3.424  14.377
 7998TIP3    H145485   6.764   3.448  14.420
 7998TIP3    H245486   6.654   3.503  14.331
 7999TIP3   OH245487   6.148   3.401  15.384
 7999TIP3    H145488   6.157   3.436  15.295
 7999TIP3    H245489   6.054   3.403  15.401
 8000TIP3   OH245490   7.246   2.057  13.949
 8000TIP3    H145491   7.188   2.033  14.021
 8000TIP3    H245492   7.330   2.016  13.971
 8001TIP3   OH245493   6.135   2.806  14.205
 8001TIP3    H145494   6.072   2.871  14.173
 8001TIP3    H245495   6.092   2.722  14.190
 8002TIP3   OH245496   5.724   3.068  15.137
 8002TIP3    H145497   5.671   3.076  15.058
 8002TIP3    H245498   5.739   2.974  15.147
 8003TIP3   OH245499   5.691   3.358  14.833
 8003TIP3    H145500   5.771   3.364  14.884
 8003TIP3    H245501   5.641   3.436  14.856
 8004TIP3   OH245502   6.590   3.356  15.266
 8004TIP3    H145503   6.586   3.440  15.312
 8004TIP3    H245504   6.507   3.313  15.285
 8005TIP3   OH245505   6.673   3.685  14.248
 8005TIP3    H145506   6.655   3.689  14.154
 8005TIP3    H245507   6.641   3.768  14.282
 8006TIP3   OH245508   6.023   3.588  14.438
 8006TIP3    H145509   6.044   3.557  14.526
 8006TIP3    H245510   5.968   3.519  14.401
 8007TIP3   OH245511   6.958   3.657  13.937
 8007TIP3    H145512   7.001   3.584  13.891
 8007TIP3    H245513   6.970   3.637  14.029
 8008TIP3   OH245514   6.938   3.616  14.211
 8008TIP3    H145515   6.845   3.633  14.228
 8008TIP3    H245516   6.963   3.552  14.277
 8009TIP3   OH245517   7.165   2.583  15.472
 8009TIP3    H145518   7.147   2.601  15.380
 8009TIP3    H245519   7.246   2.532  15.472
 8010TIP3   OH245520   5.947   3.221  15.188
 8010TIP3    H145521   5.972   3.184  15.272
 8010TIP3    H245522   5.867   3.174  15.163
 8011TIP3   OH245523   6.196   2.018  14.834
 8011TIP3    H145524   6.123   2.013  14.772
 8011TIP3    H245525   6.176   2.094  14.888
 8012TIP3   OH245526   6.670   2.004  15.176
 8012TIP3    H145527   6.715   1.955  15.244
 8012TIP3    H245528   6.577   1.994  15.197
 8013TIP3   OH245529   7.015   2.382  15.265
 8013TIP3    H145530   6.944   2.363  15.326
 8013TIP3    H245531   7.005   2.475  15.245
 8014TIP3   OH245532   7.080   2.880  13.812
 8014TIP3    H145533   7.043   2.856  13.726
 8014TIP3    H245534   7.152   2.939  13.791
 8015TIP3   OH245535   6.617   2.238  13.907
 8015TIP3    H145536   6.565   2.230  13.987
 8015TIP3    H245537   6.584   2.168  13.851
 8016TIP3   OH245538   6.212   2.551  14.951
 8016TIP3    H145539   6.148   2.550  15.023
 8016TIP3    H245540   6.215   2.642  14.923
 8017TIP3   OH245541   6.203   2.547  14.437
 8017TIP3    H145542   6.108   2.535  14.432
 8017TIP3    H245543   6.234   2.531  14.348
 8018TIP3   OH245544   6.742   2.589  14.303
 8018TIP3    H145545   6.724   2.677  14.270
 8018TIP3    H245546   6.813   2.556  14.247
 8019TIP3   OH245547   6.679   2.586  15.430
 8019TIP3    H145548   6.631   2.513  15.469
 8019TIP3    H245549   6.768   2.578  15.466
 8020TIP3   OH245550   6.834   2.534  14.562
 8020TIP3    H145551   6.790   2.582  14.492
 8020TIP3    H245552   6.869   2.456  14.519
 8021TIP3   OH245553   6.001   2.551  15.127
 8021TIP3    H145554   5.999   2.598  15.211
 8021TIP3    H245555   5.959   2.467  15.146
 8022TIP3   OH245556   6.312   2.278  13.798
 8022TIP3    H145557   6.282   2.268  13.889
 8022TIP3    H245558   6.253   2.344  13.761
 8023TIP3   OH245559   5.645   2.226  14.527
 8023TIP3    H145560   5.704   2.247  14.600
 8023TIP3    H245561   5.700   2.233  14.449
 8024TIP3   OH245562   5.689   2.338  14.015
 8024TIP3    H145563   5.759   2.378  13.963
 8024TIP3    H245564   5.631   2.410  14.038
 8025TIP3   OH245565   6.791   2.676  15.036
 8025TIP3    H145566   6.826   2.620  14.966
 8025TIP3    H245567   6.728   2.620  15.081
 8026TIP3   OH245568   6.497   2.324  14.547
 8026TIP3    H145569   6.407   2.305  14.575
 8026TIP3    H245570   6.547   2.247  14.573
 8027TIP3   OH245571   5.943   2.458  14.408
 8027TIP3    H145572   5.870   2.486  14.352
 8027TIP3    H245573   5.963   2.369  14.378
 8028TIP3   OH245574   6.270   2.475  14.180
 8028TIP3    H145575   6.363   2.468  14.200
 8028TIP3    H245576   6.267   2.515  14.093
 8029TIP3   OH245577   6.899   2.240  14.870
 8029TIP3    H145578   6.846   2.245  14.950
 8029TIP3    H245579   6.938   2.153  14.872
 8030TIP3   OH245580   6.248   2.566  13.923
 8030TIP3    H145581   6.196   2.542  13.845
 8030TIP3    H245582   6.326   2.609  13.887
 8031TIP3   OH245583   7.257   3.817  15.491
 8031TIP3    H145584   7.266   3.891  15.431
 8031TIP3    H245585   7.347   3.789  15.508
 8032TIP3   OH245586   6.002   3.061  15.419
 8032TIP3    H145587   6.070   3.057  15.486
 8032TIP3    H245588   5.920   3.068  15.468
 8033TIP3   OH245589   6.569   2.587  14.723
 8033TIP3    H145590   6.617   2.529  14.664
 8033TIP3    H245591   6.543   2.531  14.796
 8034TIP3   OH245592   6.047   2.196  14.364
 8034TIP3    H145593   5.997   2.117  14.387
 8034TIP3    H245594   6.090   2.173  14.282
 8035TIP3   OH245595   6.468   2.447  14.947
 8035TIP3    H145596   6.385   2.494  14.956
 8035TIP3    H245597   6.520   2.476  15.023
 8036TIP3   OH245598   6.508   3.012  14.117
 8036TIP3    H145599   6.436   2.978  14.063
 8036TIP3    H245600   6.465   3.042  14.197
 8037TIP3   OH245601   7.181   2.950  14.978
 8037TIP3    H145602   7.262   2.929  14.932
 8037TIP3    H245603   7.113   2.938  14.912
 8038TIP3   OH245604   6.874   2.294  13.981
 8038TIP3    H145605   6.782   2.291  13.954
 8038TIP3    H245606   6.885   2.381  14.017
 8039TIP3   OH245607   6.661   3.072  15.239
 8039TIP3    H145608   6.713   3.043  15.313
 8039TIP3    H245609   6.635   3.162  15.263
 8040TIP3   OH245610   6.948   2.523  14.124
 8040TIP3    H145611   7.034   2.497  14.158
 8040TIP3    H245612   6.961   2.611  14.089
 8041TIP3   OH245613   6.038   2.954  14.660
 8041TIP3    H145614   6.096   2.947  14.584
 8041TIP3    H245615   6.081   2.904  14.728
 8042TIP3   OH245616   6.724   3.163  14.050
 8042TIP3    H145617   6.690   3.253  14.053
 8042TIP3    H245618   6.648   3.108  14.070
 8043TIP3   OH245619   5.745   2.799  15.218
 8043TIP3    H145620   5.719   2.763  15.303
 8043TIP3    H245621   5.675   2.774  15.158
 8044TIP3   OH245622   6.460   2.764  15.466
 8044TIP3    H145623   6.396   2.731  15.404
 8044TIP3    H245624   6.542   2.721  15.441
 8045TIP3   OH245625   6.873   3.347  15.263
 8045TIP3    H145626   6.780   3.354  15.242
 8045TIP3    H245627   6.877   3.358  15.358
 8046TIP3   OH245628   7.262   3.410  14.145
 8046TIP3    H145629   7.212   3.371  14.217
 8046TIP3    H245630   7.248   3.351  14.071
 8047TIP3   OH245631   6.991   2.908  14.778
 8047TIP3    H145632   6.896   2.897  14.773
 8047TIP3    H245633   7.026   2.832  14.731
 8048TIP3   OH245634   6.301   3.330  14.470
 8048TIP3    H145635   6.322   3.415  14.431
 8048TIP3    H245636   6.209   3.336  14.494
 8049TIP3   OH245637   5.856   2.779  13.931
 8049TIP3    H145638   5.901   2.846  13.982
 8049TIP3    H245639   5.764   2.785  13.958
 8050TIP3   OH245640   6.362   3.103  14.326
 8050TIP3    H145641   6.354   3.184  14.377
 8050TIP3    H245642   6.315   3.037  14.378
 8051TIP3   OH245643   6.488   3.500  15.042
 8051TIP3    H145644   6.544   3.575  15.022
 8051TIP3    H245645   6.542   3.444  15.099
 8052TIP3   OH245646   6.287   3.589  14.360
 8052TIP3    H145647   6.194   3.600  14.379
 8052TIP3    H245648   6.329   3.667  14.396
 8053TIP3   OH245649   6.787   3.127  15.000
 8053TIP3    H145650   6.744   3.104  15.082
 8053TIP3    H245651   6.861   3.065  14.993
 8054TIP3   OH245652   7.055   3.222  13.939
 8054TIP3    H145653   7.089   3.170  14.011
 8054TIP3    H245654   6.965   3.191  13.927
 8055TIP3   OH245655   7.096   3.522  15.208
 8055TIP3    H145656   7.012   3.475  15.203
 8055TIP3    H245657   7.087   3.594  15.146
 8056TIP3   OH245658   5.878   2.294  15.158
 8056TIP3    H145659   5.790   2.328  15.143
 8056TIP3    H245660   5.866   2.222  15.220
 8057TIP3   OH245661   7.191   3.083  14.129
 8057TIP3    H145662   7.154   3.012  14.183
 8057TIP3    H245663   7.279   3.095  14.164
 8058TIP3   OH245664   5.884   3.472  15.031
 8058TIP3    H145665   5.911   3.397  15.084
 8058TIP3    H245666   5.895   3.548  15.089
 8059TIP3   OH245667   6.433   3.301  13.778
 8059TIP3    H145668   6.441   3.217  13.733
 8059TIP3    H245669   6.398   3.278  13.864
 8060TIP3   OH245670   6.312   3.273  14.030
 8060TIP3    H145671   6.347   3.223  14.104
 8060TIP3    H245672   6.325   3.365  14.055
 8061TIP3   OH245673   5.958   2.987  14.086
 8061TIP3    H145674   5.891   3.038  14.132
 8061TIP3    H245675   6.006   3.051  14.035
 8062TIP3   OH245676   6.775   2.253  15.117
 8062TIP3    H145677   6.845   2.262  15.182
 8062TIP3    H245678   6.736   2.168  15.136
 8063TIP3   OH245679   6.859   2.161  14.223
 8063TIP3    H145680   6.865   2.205  14.138
 8063TIP3    H245681   6.884   2.229  14.286
 8064TIP3   OH245682   6.615   3.410  14.062
 8064TIP3    H145683   6.528   3.441  14.087
 8064TIP3    H245684   6.660   3.488  14.029
 8065TIP3   OH245685   6.521   2.426  14.293
 8065TIP3    H145686   6.597   2.484  14.294
 8065TIP3    H245687   6.513   2.396  14.383
 8066TIP3   OH245688   6.634   2.491  15.166
 8066TIP3    H145689   6.649   2.516  15.257
 8066TIP3    H245690   6.679   2.407  15.156
 8067TIP3   OH245691   6.633   2.044  14.329
 8067TIP3    H145692   6.642   2.065  14.422
 8067TIP3    H245693   6.713   2.078  14.289
 8068TIP3   OH245694   6.370   3.531  14.106
 8068TIP3    H145695   6.376   3.617  14.064
 8068TIP3    H245696   6.342   3.550  14.196
 8069TIP3   OH245697   6.216   2.227  14.058
 8069TIP3    H145698   6.211   2.312  14.102
 8069TIP3    H245699   6.301   2.192  14.085
 8070TIP3   OH245700   7.281   2.308  15.230
 8070TIP3    H145701   7.191   2.331  15.255
 8070TIP3    H245702   7.272   2.274  15.141
 8071TIP3   OH245703   7.067   2.662  14.656
 8071TIP3    H145704   6.981   2.632  14.627
 8071TIP3    H245705   7.101   2.589  14.708
 8072TIP3   OH245706   6.069   3.190  13.928
 8072TIP3    H145707   6.144   3.232  13.969
 8072TIP3    H245708   6.107   3.136  13.858
 8073TIP3   OH245709   5.838   2.509  13.862
 8073TIP3    H145710   5.861   2.595  13.898
 8073TIP3    H245711   5.811   2.528  13.772
 8074TIP3   OH245712   7.238   3.612  14.825
 8074TIP3    H145713   7.219   3.684  14.764
 8074TIP3    H245714   7.332   3.597  14.816
 8075TIP3   OH245715   5.949   2.000  14.705
 8075TIP3    H145716   5.941   1.994  14.610
 8075TIP3    H245717   5.921   1.914  14.737
 8076TIP3   OH245718   5.832   3.411  14.328
 8076TIP3    H145719   5.776   3.441  14.400
 8076TIP3    H245720   5.814   3.473  14.257
 8077TIP3   OH245721   5.841   3.692  15.520
 8077TIP3    H145722   5.894   3.689  15.599
 8077TIP3    H245723   5.845   3.603  15.485
 8078TIP3   OH245724   6.233   3.495  15.630
 8078TIP3    H145725   6.308   3.439  15.649
 8078TIP3    H245726   6.204   3.468  15.543
 8079TIP3   OH245727   6.633   3.491  13.757
 8079TIP3    H145728   6.568   3.423  13.772
 8079TIP3    H245729   6.709   3.445  13.722
 8080TIP3   OH245730   6.872   3.361  15.539
 8080TIP3    H145731   6.860   3.276  15.581
 8080TIP3    H245732   6.949   3.398  15.581
 8081TIP3   OH245733   7.070   3.457  13.794
 8081TIP3    H145734   7.086   3.374  13.839
 8081TIP3    H245735   7.139   3.462  13.728
 8082TIP3   OH245736   5.760   3.058  15.564
 8082TIP3    H145737   5.770   2.963  15.556
 8082TIP3    H245738   5.687   3.080  15.505
 8083TIP3   OH245739   6.197   3.016  13.760
 8083TIP3    H145740   6.222   2.966  13.837
 8083TIP3    H245741   6.280   3.032  13.714
 8084TIP3   OH245742   6.426   3.047  15.519
 8084TIP3    H145743   6.416   3.090  15.434
 8084TIP3    H245744   6.459   2.960  15.498
 8085TIP3   OH245745   6.805   3.153  13.788
 8085TIP3    H145746   6.765   3.147  13.874
 8085TIP3    H245747   6.783   3.070  13.745
 8086TIP3   OH245748   6.964   3.084  15.292
 8086TIP3    H145749   7.057   3.081  15.268
 8086TIP3    H245750   6.936   3.173  15.271
 8087TIP3   OH245751   5.836   2.795  15.517
 8087TIP3    H145752   5.916   2.777  15.469
 8087TIP3    H245753   5.856   2.770  15.608
 8088TIP3   OH245754   6.299   2.886  13.984
 8088TIP3    H145755   6.253   2.845  14.058
 8088TIP3    H245756   6.351   2.816  13.946
 8089TIP3   OH245757   6.270   2.670  15.276
 8089TIP3    H145758   6.190   2.723  15.275
 8089TIP3    H245759   6.325   2.709  15.209
 8090TIP3   OH245760   6.466   2.714  13.840
 8090TIP3    H145761   6.461   2.743  13.749
 8090TIP3    H245762   6.559   2.700  13.856
 8091TIP3   OH245763   6.756   2.902  15.564
 8091TIP3    H145764   6.830   2.868  15.514
 8091TIP3    H245765   6.727   2.828  15.617
 8092TIP3   OH245766   6.315   2.406  15.343
 8092TIP3    H145767   6.324   2.350  15.266
 8092TIP3    H245768   6.305   2.494  15.308
 8093TIP3   OH245769   6.339   2.250  15.107
 8093TIP3    H145770   6.394   2.297  15.044
 8093TIP3    H245771   6.253   2.245  15.064
 8094TIP3   OH245772   6.447   2.788  15.108
 8094TIP3    H145773   6.541   2.801  15.117
 8094TIP3    H245774   6.416   2.865  15.060
 8095TIP3   OH245775   6.915   2.539  15.589
 8095TIP3    H145776   6.926   2.454  15.632
 8095TIP3    H245777   7.001   2.559  15.551
 8096TIP3   OH245778   6.996   2.851  15.428
 8096TIP3    H145779   6.973   2.932  15.383
 8096TIP3    H245780   7.091   2.854  15.436
 8097TIP3   OH245781   6.144   2.454  15.561
 8097TIP3    H145782   6.066   2.401  15.542
 8097TIP3    H245783   6.196   2.450  15.481
 8098TIP3   OH245784   6.390   1.988  15.185
 8098TIP3    H145785   6.374   2.079  15.159
 8098TIP3    H245786   6.322   1.938  15.140
 8099TIP3   OH245787   6.534   2.367  15.512
 8099TIP3    H145788   6.490   2.343  15.593
 8099TIP3    H245789   6.463   2.374  15.447
 8100TIP3   OH245790   6.798   2.302  15.414
 8100TIP3    H145791   6.710   2.307  15.453
 8100TIP3    H245792   6.850   2.254  15.479
 8101TIP3   OH245793   6.967   2.181  15.598
 8101TIP3    H145794   6.962   2.085  15.597
 8101TIP3    H245795   6.924   2.206  15.680
 8102TIP3   OH245796   5.936   2.267  15.514
 8102TIP3    H145797   5.940   2.194  15.452
 8102TIP3    H245798   5.941   2.226  15.600
 8103TIP3   OH245799   6.397   1.906  15.445
 8103TIP3    H145800   6.452   1.828  15.436
 8103TIP3    H245801   6.390   1.941  15.357
 8104TIP3   OH245802   6.462   2.062  15.666
 8104TIP3    H145803   6.448   2.009  15.588
 8104TIP3    H245804   6.406   2.138  15.654
 8105TIP3   OH245805   6.439   3.779  13.995
 8105TIP3    H145806   6.527   3.742  13.983
 8105TIP3    H245807   6.427   3.838  13.921
 8106TIP3   OH245808   5.811   3.256  13.862
 8106TIP3    H145809   5.900   3.241  13.892
 8106TIP3    H245810   5.791   3.180  13.807
 8107TIP3   OH245811   5.661   3.734  14.431
 8107TIP3    H145812   5.604   3.703  14.361
 8107TIP3    H245813   5.677   3.656  14.485
 8108TIP3   OH245814   5.731   3.512  14.583
 8108TIP3    H145815   5.695   3.436  14.629
 8108TIP3    H245816   5.781   3.559  14.650
 8109TIP3   OH245817   7.228   3.202  15.712
 8109TIP3    H145818   7.161   3.167  15.771
 8109TIP3    H245819   7.304   3.218  15.767
 8110TIP3   OH245820   7.257   3.312  15.116
 8110TIP3    H145821   7.214   3.388  15.156
 8110TIP3    H245822   7.226   3.312  15.026
 8111TIP3   OH245823   7.305   2.482  13.817
 8111TIP3    H145824   7.261   2.538  13.753
 8111TIP3    H245825   7.282   2.393  13.791
 8112TIP3   OH245826   7.190   2.670  14.406
 8112TIP3    H145827   7.179   2.578  14.385
 8112TIP3    H245828   7.162   2.677  14.498
 8113TIP3   OH245829   5.713   2.860  14.847
 8113TIP3    H145830   5.725   2.852  14.753
 8113TIP3    H245831   5.797   2.833  14.885
 8114TIP3   OH245832   7.265   2.897  15.446
 8114TIP3    H145833   7.331   2.829  15.435
 8114TIP3    H245834   7.269   2.947  15.365
 8115TIP3   OH245835   7.234   2.230  13.733
 8115TIP3    H145836   7.250   2.168  13.803
 8115TIP3    H245837   7.140   2.224  13.717
 8116TIP3   OH245838   7.184   2.419  14.256
 8116TIP3    H145839   7.204   2.331  14.289
 8116TIP3    H245840   7.258   2.440  14.198
 8117TIP3   OH245841   7.169   2.428  14.784
 8117TIP3    H145842   7.244   2.481  14.810
 8117TIP3    H245843   7.125   2.407  14.867
 8118TIP3   OH245844   7.281   2.630  15.132
 8118TIP3    H145845   7.185   2.639  15.135
 8118TIP3    H245846   7.299   2.606  15.041
 8119TIP3   OH245847   5.718   2.406  15.414
 8119TIP3    H145848   5.802   2.376  15.447
 8119TIP3    H245849   5.659   2.331  15.427
 8120TIP3   OH245850   7.214   2.160  14.352
 8120TIP3    H145851   7.171   2.158  14.437
 8120TIP3    H245852   7.167   2.094  14.300
 8121TIP3   OH245853   5.819   2.243  14.747
 8121TIP3    H145854   5.862   2.158  14.740
 8121TIP3    H245855   5.891   2.305  14.760
 8122TIP3   OH245856   5.628   2.532  14.805
 8122TIP3    H145857   5.700   2.530  14.741
 8122TIP3    H245858   5.650   2.605  14.863
 8123TIP3   OH245859   5.688   2.158  14.222
 8123TIP3    H145860   5.594   2.154  14.239
 8123TIP3    H245861   5.698   2.226  14.155
 8124TIP3   OH245862   7.156   3.627  14.488
 8124TIP3    H145863   7.237   3.580  14.508
 8124TIP3    H245864   7.159   3.705  14.544
 8125TIP3   OH245865   5.680   2.017  15.073
 8125TIP3    H145866   5.617   2.021  15.144
 8125TIP3    H245867   5.659   2.093  15.018
 8126TIP3   OH245868   5.880   3.413  15.472
 8126TIP3    H145869   5.790   3.404  15.442
 8126TIP3    H245870   5.880   3.375  15.560
 8127TIP3   OH245871   6.227   3.482  15.124
 8127TIP3    H145872   6.197   3.570  15.101
 8127TIP3    H245873   6.321   3.483  15.103
 8128TIP3   OH245874   6.593   3.597  15.403
 8128TIP3    H145875   6.606   3.567  15.493
 8128TIP3    H245876   6.672   3.648  15.383
 8129TIP3   OH245877   6.826   3.739  15.362
 8129TIP3    H145878   6.888   3.693  15.305
 8129TIP3    H245879   6.878   3.766  15.437
 8130TIP3   OH245880   5.916   3.757  15.135
 8130TIP3    H145881   5.837   3.794  15.097
 8130TIP3    H245882   5.928   3.805  15.218
 8131TIP3   OH245883   6.180   3.745  15.056
 8131TIP3    H145884   6.087   3.752  15.080
 8131TIP3    H245885   6.186   3.788  14.971
 8132TIP3   OH245886   6.624   3.727  14.963
 8132TIP3    H145887   6.575   3.762  14.889
 8132TIP3    H245888   6.635   3.802  15.022
 8133TIP3   OH245889   6.847   3.600  15.062
 8133TIP3    H145890   6.771   3.643  15.022
 8133TIP3    H245891   6.921   3.656  15.038
 8134TIP3   OH245892   7.083   3.733  15.020
 8134TIP3    H145893   7.103   3.826  15.006
 8134TIP3    H245894   7.139   3.687  14.956
 8135TIP3   OH245895   5.888   3.622  14.793
 8135TIP3    H145896   5.877   3.578  14.877
 8135TIP3    H245897   5.968   3.583  14.756
 8136TIP3   OH245898   6.106   3.498  14.685
 8136TIP3    H145899   6.092   3.406  14.705
 8136TIP3    H245900   6.191   3.519  14.722
 8137TIP3   OH245901   6.363   3.525  14.794
 8137TIP3    H145902   6.375   3.435  14.762
 8137TIP3    H245903   6.398   3.523  14.883
 8138TIP3   OH245904   6.623   2.083  14.605
 8138TIP3    H145905   6.578   2.026  14.668
 8138TIP3    H245906   6.714   2.055  14.609
 8139TIP3   OH245907   7.161   1.939  14.597
 8139TIP3    H145908   7.228   2.008  14.590
 8139TIP3    H245909   7.129   1.947  14.687
 8140TIP3   OH245910   5.913   1.961  14.434
 8140TIP3    H145911   5.821   1.942  14.416
 8140TIP3    H245912   5.957   1.877  14.420
 8141TIP3   OH245913   5.840   1.979  14.057
 8141TIP3    H145914   5.891   2.035  13.999
 8141TIP3    H245915   5.796   2.040  14.116
 8142TIP3   OH245916   6.400   1.929  14.454
 8142TIP3    H145917   6.470   1.972  14.405
 8142TIP3    H245918   6.425   1.937  14.545
 8143TIP3   OH245919   6.869   1.966  14.580
 8143TIP3    H145920   6.964   1.966  14.572
 8143TIP3    H245921   6.849   1.886  14.628
 8144TIP3   OH245922   7.078   1.995  14.179
 8144TIP3    H145923   6.997   2.046  14.185
 8144TIP3    H245924   7.050   1.904  14.183
 8145TIP3   OH245925   5.793   3.580  14.115
 8145TIP3    H145926   5.715   3.566  14.061
 8145TIP3    H245927   5.812   3.673  14.107
 8146TIP3   OH245928   6.019   2.125  13.881
 8146TIP3    H145929   6.069   2.069  13.822
 8146TIP3    H245930   6.083   2.158  13.944
 8147TIP3   OH245931   6.479   2.198  14.146
 8147TIP3    H145932   6.519   2.128  14.197
 8147TIP3    H245933   6.496   2.278  14.196
 8148TIP3   OH245934   6.686   3.665  13.960
 8148TIP3    H145935   6.780   3.681  13.951
 8148TIP3    H245936   6.662   3.616  13.882
 8149TIP3   OH245937   5.936   2.011  15.382
 8149TIP3    H145938   5.878   1.951  15.429
 8149TIP3    H245939   6.022   1.999  15.423
 8150TIP3   OH245940   6.143   1.943  15.551
 8150TIP3    H145941   6.232   1.925  15.520
 8150TIP3    H245942   6.119   1.868  15.604
 8151TIP3   OH245943   5.996   3.623  13.818
 8151TIP3    H145944   5.969   3.596  13.906
 8151TIP3    H245945   6.073   3.569  13.800
 8152TIP3   OH245946   6.991   1.902  15.579
 8152TIP3    H145947   6.988   1.855  15.662
 8152TIP3    H245948   7.084   1.901  15.554
 8153TIP3   OH245949   7.204   3.546  15.459
 8153TIP3    H145950   7.175   3.528  15.370
 8153TIP3    H245951   7.227   3.639  15.459
 8154TIP3   OH245952   1.192   4.802  14.420
 8154TIP3    H145953   1.174   4.896  14.415
 8154TIP3    H245954   1.126   4.762  14.364
 8155TIP3   OH245955   1.077   4.718  14.827
 8155TIP3    H145956   1.107   4.673  14.905
 8155TIP3    H245957   1.030   4.651  14.777
 8156TIP3   OH245958   0.298   4.634  14.936
 8156TIP3    H145959   0.309   4.561  14.997
 8156TIP3    H245960   0.387   4.655  14.908
 8157TIP3   OH245961   1.459   5.026  14.644
 8157TIP3    H145962   1.422   4.949  14.686
 8157TIP3    H245963   1.475   5.087  14.716
 8158TIP3   OH245964   0.413   5.121  14.746
 8158TIP3    H145965   0.389   5.032  14.721
 8158TIP3    H245966   0.507   5.116  14.764
 8159TIP3   OH245967   0.116   4.479  14.325
 8159TIP3    H145968   0.077   4.557  14.365
 8159TIP3    H245969   0.042   4.422  14.304
 8160TIP3   OH245970   0.158   4.711  14.598
 8160TIP3    H145971   0.185   4.621  14.615
 8160TIP3    H245972   0.238   4.762  14.604
 8161TIP3   OH245973   1.200   5.478  14.684
 8161TIP3    H145974   1.228   5.430  14.605
 8161TIP3    H245975   1.185   5.409  14.749
 8162TIP3   OH245976   0.912   4.969  14.828
 8162TIP3    H145977   0.954   4.891  14.791
 8162TIP3    H245978   0.979   5.006  14.886
 8163TIP3   OH245979   1.819   4.092  14.944
 8163TIP3    H145980   1.823   4.172  14.997
 8163TIP3    H245981   1.882   4.107  14.874
 8164TIP3   OH245982   1.226   4.385  14.838
 8164TIP3    H145983   1.235   4.291  14.849
 8164TIP3    H245984   1.219   4.398  14.743
 8165TIP3   OH245985   0.589   4.188  14.566
 8165TIP3    H145986   0.600   4.275  14.527
 8165TIP3    H245987   0.538   4.139  14.501
 8166TIP3   OH245988   1.357   4.222  14.416
 8166TIP3    H145989   1.402   4.190  14.494
 8166TIP3    H245990   1.427   4.257  14.361
 8167TIP3   OH245991   0.219   4.446  14.672
 8167TIP3    H145992   0.289   4.408  14.725
 8167TIP3    H245993   0.233   4.412  14.584
 8168TIP3   OH245994   0.703   4.596  14.631
 8168TIP3    H145995   0.790   4.565  14.655
 8168TIP3    H245996   0.670   4.531  14.569
 8169TIP3   OH245997   1.839   4.287  15.144
 8169TIP3    H145998   1.764   4.342  15.121
 8169TIP3    H245999   1.853   4.303  15.237
 8170TIP3   OH246000   0.434   4.117  15.002
 8170TIP3    H146001   0.412   4.173  14.927
 8170TIP3    H246002   0.365   4.134  15.066
 8171TIP3   OH246003   1.109   5.050  14.334
 8171TIP3    H146004   1.113   5.055  14.239
 8171TIP3    H246005   1.079   5.137  14.361
 8172TIP3   OH246006   0.690   4.889  14.971
 8172TIP3    H146007   0.639   4.961  15.008
 8172TIP3    H246008   0.760   4.931  14.922
 8173TIP3   OH246009   1.445   4.159  14.671
 8173TIP3    H146010   1.373   4.138  14.731
 8173TIP3    H246011   1.500   4.219  14.720
 8174TIP3   OH246012   0.424   4.276  14.774
 8174TIP3    H146013   0.482   4.331  14.825
 8174TIP3    H246014   0.479   4.240  14.704
 8175TIP3   OH246015   0.541   5.093  15.091
 8175TIP3    H146016   0.550   5.187  15.079
 8175TIP3    H246017   0.451   5.081  15.121
 8176TIP3   OH246018   0.122   5.038  14.168
 8176TIP3    H146019   0.122   5.075  14.079
 8176TIP3    H246020   0.148   5.110  14.224
 8177TIP3   OH246021   1.484   5.225  14.849
 8177TIP3    H146022   1.389   5.231  14.859
 8177TIP3    H246023   1.510   5.313  14.821
 8178TIP3   OH246024   1.567   3.993  15.018
 8178TIP3    H146025   1.500   4.037  14.964
 8178TIP3    H246026   1.650   4.020  14.979
 8179TIP3   OH246027   0.791   3.799  14.752
 8179TIP3    H146028   0.763   3.708  14.751
 8179TIP3    H246029   0.714   3.848  14.780
 8180TIP3   OH246030   1.309   5.372  14.449
 8180TIP3    H146031   1.351   5.288  14.432
 8180TIP3    H246032   1.381   5.434  14.458
 8181TIP3   OH246033   1.445   5.144  14.393
 8181TIP3    H146034   1.457   5.079  14.325
 8181TIP3    H246035   1.453   5.096  14.475
 8182TIP3   OH246036   1.596   5.007  15.197
 8182TIP3    H146037   1.586   4.949  15.121
 8182TIP3    H246038   1.608   5.094  15.159
 8183TIP3   OH246039   1.043   4.707  14.203
 8183TIP3    H146040   0.977   4.771  14.177
 8183TIP3    H246041   1.111   4.715  14.136
 8184TIP3   OH246042   1.072   4.599  13.853
 8184TIP3    H146043   1.127   4.622  13.928
 8184TIP3    H246044   1.122   4.532  13.806
 8185TIP3   OH246045   1.764   4.675  15.023
 8185TIP3    H146046   1.691   4.736  15.014
 8185TIP3    H246047   1.824   4.698  14.952
 8186TIP3   OH246048   1.412   4.733  14.269
 8186TIP3    H146049   1.344   4.756  14.333
 8186TIP3    H246050   1.477   4.683  14.318
 8187TIP3   OH246051   1.371   4.541  15.229
 8187TIP3    H146052   1.363   4.614  15.291
 8187TIP3    H246053   1.307   4.561  15.161
 8188TIP3   OH246054   0.565   4.782  14.463
 8188TIP3    H146055   0.539   4.741  14.381
 8188TIP3    H246056   0.621   4.717  14.506
 8189TIP3   OH246057   0.700   5.140  14.734
 8189TIP3    H146058   0.700   5.151  14.639
 8189TIP3    H246059   0.777   5.086  14.751
 8190TIP3   OH246060   0.555   4.688  14.843
 8190TIP3    H146061   0.611   4.663  14.770
 8190TIP3    H246062   0.604   4.757  14.888
 8191TIP3   OH246063   1.218   5.251  14.906
 8191TIP3    H146064   1.204   5.319  14.972
 8191TIP3    H246065   1.178   5.172  14.943
 8192TIP3   OH246066   0.697   5.112  15.320
 8192TIP3    H146067   0.635   5.171  15.362
 8192TIP3    H246068   0.655   5.087  15.238
 8193TIP3   OH246069   1.275   4.665  14.039
 8193TIP3    H146070   1.327   4.697  14.112
 8193TIP3    H246071   1.330   4.677  13.962
 8194TIP3   OH246072   0.395   4.714  15.266
 8194TIP3    H146073   0.386   4.789  15.325
 8194TIP3    H246074   0.333   4.731  15.196
 8195TIP3   OH246075   1.046   5.319  14.382
 8195TIP3    H146076   1.136   5.338  14.411
 8195TIP3    H246077   1.019   5.398  14.336
 8196TIP3   OH246078   0.499   5.298  15.385
 8196TIP3    H146079   0.512   5.328  15.295
 8196TIP3    H246080   0.404   5.300  15.397
 8197TIP3   OH246081   1.637   3.811  14.034
 8197TIP3    H146082   1.554   3.835  14.075
 8197TIP3    H246083   1.674   3.894  14.003
 8198TIP3   OH246084   0.476   4.684  14.212
 8198TIP3    H146085   0.417   4.748  14.172
 8198TIP3    H246086   0.432   4.601  14.202
 8199TIP3   OH246087   1.784   5.256  13.896
 8199TIP3    H146088   1.793   5.352  13.896
 8199TIP3    H246089   1.873   5.224  13.883
 8200TIP3   OH246090   0.171   4.876  15.105
 8200TIP3    H146091   0.139   4.864  15.016
 8200TIP3    H246092   0.134   4.803  15.154
 8201TIP3   OH246093   0.112   5.240  14.744
 8201TIP3    H146094   0.198   5.201  14.760
 8201TIP3    H246095   0.054   5.200  14.810
 8202TIP3   OH246096   1.849   5.294  15.407
 8202TIP3    H146097   1.833   5.200  15.397
 8202TIP3    H246098   1.766   5.328  15.440
 8203TIP3   OH246099   0.939   5.238  15.275
 8203TIP3    H146100   0.931   5.324  15.316
 8203TIP3    H246101   0.854   5.197  15.289
 8204TIP3   OH246102   1.027   5.575  14.245
 8204TIP3    H146103   1.005   5.579  14.152
 8204TIP3    H246104   0.994   5.657  14.281
 8205TIP3   OH246105   0.360   5.472  14.437
 8205TIP3    H146106   0.379   5.439  14.524
 8205TIP3    H246107   0.299   5.408  14.400
 8206TIP3   OH246108   1.315   5.547  13.925
 8206TIP3    H146109   1.362   5.472  13.888
 8206TIP3    H246110   1.326   5.537  14.020
 8207TIP3   OH246111   1.295   5.526  14.202
 8207TIP3    H146112   1.202   5.538  14.220
 8207TIP3    H246113   1.324   5.464  14.269
 8208TIP3   OH246114   1.547   4.417  15.417
 8208TIP3    H146115   1.484   4.455  15.357
 8208TIP3    H246116   1.555   4.325  15.389
 8209TIP3   OH246117   0.291   5.094  15.220
 8209TIP3    H146118   0.314   5.046  15.300
 8209TIP3    H246119   0.237   5.032  15.171
 8210TIP3   OH246120   0.545   3.913  14.841
 8210TIP3    H146121   0.472   3.905  14.779
 8210TIP3    H246122   0.521   3.986  14.897
 8211TIP3   OH246123   1.017   3.888  15.179
 8211TIP3    H146124   1.062   3.839  15.248
 8211TIP3    H246125   0.924   3.879  15.200
 8212TIP3   OH246126   1.314   4.267  15.242
 8212TIP3    H146127   1.250   4.250  15.311
 8212TIP3    H246128   1.317   4.362  15.234
 8213TIP3   OH246129   1.418   4.668  13.802
 8213TIP3    H146130   1.397   4.703  13.715
 8213TIP3    H246131   1.506   4.698  13.820
 8214TIP3   OH246132   0.972   4.116  13.903
 8214TIP3    H146133   0.915   4.114  13.979
 8214TIP3    H246134   0.936   4.051  13.843
 8215TIP3   OH246135   0.567   4.432  14.952
 8215TIP3    H146136   0.502   4.432  15.022
 8215TIP3    H246137   0.570   4.523  14.923
 8216TIP3   OH246138   0.581   4.435  14.446
 8216TIP3    H146139   0.486   4.423  14.449
 8216TIP3    H246140   0.604   4.420  14.354
 8217TIP3   OH246141   1.096   4.462  14.315
 8217TIP3    H146142   1.072   4.549  14.282
 8217TIP3    H246143   1.164   4.432  14.255
 8218TIP3   OH246144   1.021   4.466  15.428
 8218TIP3    H146145   0.968   4.394  15.463
 8218TIP3    H246146   1.106   4.456  15.471
 8219TIP3   OH246147   1.206   4.404  14.565
 8219TIP3    H146148   1.160   4.449  14.494
 8219TIP3    H246149   1.252   4.332  14.522
 8220TIP3   OH246150   0.351   4.433  15.125
 8220TIP3    H146151   0.349   4.485  15.205
 8220TIP3    H246152   0.309   4.350  15.148
 8221TIP3   OH246153   0.659   4.168  13.803
 8221TIP3    H146154   0.626   4.160  13.892
 8221TIP3    H246155   0.604   4.234  13.762
 8222TIP3   OH246156   0.060   4.172  14.491
 8222TIP3    H146157   0.103   4.167  14.576
 8222TIP3    H246158   0.123   4.135  14.430
 8223TIP3   OH246159   0.058   4.295  14.063
 8223TIP3    H146160   0.145   4.329  14.044
 8223TIP3    H246161   0.007   4.311  13.984
 8224TIP3   OH246162   1.163   4.553  15.040
 8224TIP3    H146163   1.195   4.498  14.969
 8224TIP3    H246164   1.093   4.502  15.081
 8225TIP3   OH246165   0.868   4.142  14.524
 8225TIP3    H146166   0.779   4.147  14.558
 8225TIP3    H246167   0.919   4.108  14.597
 8226TIP3   OH246168   0.325   4.345  14.435
 8226TIP3    H146169   0.255   4.383  14.382
 8226TIP3    H246170   0.343   4.261  14.394
 8227TIP3   OH246171   0.622   4.362  14.183
 8227TIP3    H146172   0.716   4.353  14.197
 8227TIP3    H246173   0.614   4.402  14.097
 8228TIP3   OH246174   1.232   4.109  14.846
 8228TIP3    H146175   1.192   4.112  14.933
 8228TIP3    H246176   1.166   4.067  14.791
 8229TIP3   OH246177   0.584   4.451  13.928
 8229TIP3    H146178   0.526   4.427  13.855
 8229TIP3    H246179   0.658   4.495  13.887
 8230TIP3   OH246180   1.595   5.669  15.497
 8230TIP3    H146181   1.619   5.707  15.412
 8230TIP3    H246182   1.668   5.691  15.554
 8231TIP3   OH246183   0.336   4.927  15.442
 8231TIP3    H146184   0.404   4.929  15.509
 8231TIP3    H246185   0.254   4.936  15.491
 8232TIP3   OH246186   0.940   4.482  14.725
 8232TIP3    H146187   1.011   4.434  14.681
 8232TIP3    H246188   0.909   4.421  14.792
 8233TIP3   OH246189   0.423   4.093  14.358
 8233TIP3    H146190   0.380   4.011  14.383
 8233TIP3    H246191   0.447   4.080  14.266
 8234TIP3   OH246192   0.824   4.332  14.937
 8234TIP3    H146193   0.739   4.376  14.947
 8234TIP3    H246194   0.874   4.360  15.014
 8235TIP3   OH246195   0.850   4.893  14.127
 8235TIP3    H146196   0.779   4.860  14.073
 8235TIP3    H246197   0.808   4.925  14.206
 8236TIP3   OH246198   1.570   4.861  14.964
 8236TIP3    H146199   1.633   4.915  14.915
 8236TIP3    H246200   1.500   4.842  14.902
 8237TIP3   OH246201   1.225   4.162  13.995
 8237TIP3    H146202   1.135   4.161  13.963
 8237TIP3    H246203   1.237   4.251  14.028
 8238TIP3   OH246204   1.015   4.950  15.265
 8238TIP3    H146205   1.047   4.913  15.347
 8238TIP3    H246206   0.990   5.040  15.287
 8239TIP3   OH246207   1.293   4.395  14.128
 8239TIP3    H146208   1.381   4.370  14.158
 8239TIP3    H246209   1.304   4.485  14.096
 8240TIP3   OH246210   0.395   4.849  14.669
 8240TIP3    H146211   0.450   4.839  14.592
 8240TIP3    H246212   0.438   4.796  14.736
 8241TIP3   OH246213   1.062   5.048  14.051
 8241TIP3    H146214   1.029   5.138  14.057
 8241TIP3    H246215   0.987   4.994  14.076
 8242TIP3   OH246216   0.102   4.647  15.246
 8242TIP3    H146217   0.142   4.608  15.323
 8242TIP3    H246218   0.051   4.576  15.207
 8243TIP3   OH246219   0.806   4.650  15.464
 8243TIP3    H146220   0.742   4.619  15.400
 8243TIP3    H246221   0.888   4.607  15.440
 8244TIP3   OH246222   1.220   5.226  15.274
 8244TIP3    H146223   1.126   5.232  15.256
 8244TIP3    H246224   1.227   5.242  15.369
 8245TIP3   OH246225   1.752   4.440  14.073
 8245TIP3    H146226   1.714   4.420  13.988
 8245TIP3    H246227   1.783   4.530  14.065
 8246TIP3   OH246228   1.813   5.013  15.360
 8246TIP3    H146229   1.727   5.022  15.318
 8246TIP3    H246230   1.874   4.998  15.287
 8247TIP3   OH246231   1.645   5.288  14.142
 8247TIP3    H146232   1.594   5.213  14.172
 8247TIP3    H246233   1.683   5.259  14.059
 8248TIP3   OH246234   1.367   4.790  14.781
 8248TIP3    H146235   1.272   4.781  14.777
 8248TIP3    H246236   1.401   4.713  14.735
 8249TIP3   OH246237   0.638   5.216  14.473
 8249TIP3    H146238   0.666   5.300  14.436
 8249TIP3    H246239   0.542   5.219  14.468
 8250TIP3   OH246240   0.175   4.689  13.901
 8250TIP3    H146241   0.234   4.744  13.952
 8250TIP3    H246242   0.088   4.705  13.938
 8251TIP3   OH246243   0.702   4.988  14.331
 8251TIP3    H146244   0.696   5.068  14.383
 8251TIP3    H246245   0.655   4.922  14.383
 8252TIP3   OH246246   0.837   5.381  15.042
 8252TIP3    H146247   0.891   5.457  15.020
 8252TIP3    H246248   0.893   5.326  15.096
 8253TIP3   OH246249   0.629   5.473  14.362
 8253TIP3    H146250   0.536   5.489  14.380
 8253TIP3    H246251   0.673   5.551  14.398
 8254TIP3   OH246252   1.119   5.009  15.013
 8254TIP3    H146253   1.084   4.987  15.100
 8254TIP3    H246254   1.183   4.941  14.995
 8255TIP3   OH246255   1.420   5.100  13.934
 8255TIP3    H146256   1.433   5.060  14.020
 8255TIP3    H246257   1.334   5.070  13.906
 8256TIP3   OH246258   1.426   5.415  15.228
 8256TIP3    H146259   1.345   5.366  15.221
 8256TIP3    H246260   1.417   5.486  15.165
 8257TIP3   OH246261   1.817   5.529  13.914
 8257TIP3    H146262   1.846   5.595  13.851
 8257TIP3    H246263   1.746   5.571  13.962
 8258TIP3   OH246264   0.231   4.183  15.195
 8258TIP3    H146265   0.159   4.224  15.243
 8258TIP3    H246266   0.215   4.089  15.204
 8259TIP3   OH246267   1.508   4.975  14.171
 8259TIP3    H146268   1.470   4.893  14.202
 8259TIP3    H246269   1.603   4.958  14.169
 8260TIP3   OH246270   0.223   5.395  15.029
 8260TIP3    H146271   0.227   5.317  15.085
 8260TIP3    H246272   0.244   5.467  15.088
 8261TIP3   OH246273   0.785   5.185  13.778
 8261TIP3    H146274   0.790   5.101  13.734
 8261TIP3    H246275   0.751   5.165  13.865
 8262TIP3   OH246276   0.668   5.160  14.031
 8262TIP3    H146277   0.706   5.112  14.105
 8262TIP3    H246278   0.678   5.252  14.055
 8263TIP3   OH246279   0.311   4.860  14.074
 8263TIP3    H146280   0.243   4.906  14.124
 8263TIP3    H246281   0.360   4.930  14.031
 8264TIP3   OH246282   1.119   4.129  15.096
 8264TIP3    H146283   1.191   4.151  15.154
 8264TIP3    H246284   1.084   4.047  15.130
 8265TIP3   OH246285   1.209   4.054  14.251
 8265TIP3    H146286   1.216   4.093  14.164
 8265TIP3    H246287   1.253   4.117  14.308
 8266TIP3   OH246288   0.959   5.299  14.065
 8266TIP3    H146289   0.873   5.332  14.090
 8266TIP3    H246290   1.008   5.376  14.037
 8267TIP3   OH246291   0.875   4.299  14.294
 8267TIP3    H146292   0.950   4.359  14.299
 8267TIP3    H246293   0.873   4.256  14.379
 8268TIP3   OH246294   0.988   4.375  15.157
 8268TIP3    H146295   0.997   4.395  15.251
 8268TIP3    H246296   1.026   4.287  15.148
 8269TIP3   OH246297   0.967   3.955  14.340
 8269TIP3    H146298   0.941   4.024  14.401
 8269TIP3    H246299   1.055   3.981  14.311
 8270TIP3   OH246300   0.715   5.419  14.108
 8270TIP3    H146301   0.722   5.504  14.064
 8270TIP3    H246302   0.684   5.440  14.196
 8271TIP3   OH246303   0.554   4.116  14.062
 8271TIP3    H146304   0.552   4.203  14.102
 8271TIP3    H246305   0.641   4.082  14.084
 8272TIP3   OH246306   1.563   4.168  15.278
 8272TIP3    H146307   1.471   4.190  15.265
 8272TIP3    H246308   1.591   4.134  15.193
 8273TIP3   OH246309   1.446   4.539  14.665
 8273TIP3    H146310   1.365   4.500  14.632
 8273TIP3    H246311   1.483   4.473  14.723
 8274TIP3   OH246312   0.420   5.081  13.939
 8274TIP3    H146313   0.495   5.125  13.979
 8274TIP3    H246314   0.457   5.031  13.867
 8275TIP3   OH246315   0.232   4.418  13.883
 8275TIP3    H146316   0.231   4.513  13.895
 8275TIP3    H246317   0.149   4.399  13.840
 8276TIP3   OH246318   1.567   5.491  14.831
 8276TIP3    H146319   1.553   5.564  14.771
 8276TIP3    H246320   1.662   5.490  14.845
 8277TIP3   OH246321   0.304   3.895  14.706
 8277TIP3    H146322   0.306   3.885  14.611
 8277TIP3    H246323   0.266   3.812  14.738
 8278TIP3   OH246324   0.183   5.302  14.289
 8278TIP3    H146325   0.088   5.295  14.289
 8278TIP3    H246326   0.203   5.359  14.215
 8279TIP3   OH246327   0.171   5.584  15.524
 8279TIP3    H146328   0.226   5.578  15.603
 8279TIP3    H246329   0.173   5.496  15.488
 8280TIP3   OH246330   0.572   5.382  15.638
 8280TIP3    H146331   0.650   5.329  15.656
 8280TIP3    H246332   0.547   5.358  15.549
 8281TIP3   OH246333   0.986   5.374  13.754
 8281TIP3    H146334   0.920   5.307  13.771
 8281TIP3    H246335   1.063   5.325  13.724
 8282TIP3   OH246336   1.237   5.256  15.550
 8282TIP3    H146337   1.222   5.170  15.588
 8282TIP3    H246338   1.315   5.289  15.594
 8283TIP3   OH246339   1.438   5.339  13.796
 8283TIP3    H146340   1.449   5.260  13.850
 8283TIP3    H246341   1.512   5.338  13.736
 8284TIP3   OH246342   0.088   4.954  15.580
 8284TIP3    H146343   0.050   4.881  15.532
 8284TIP3    H246344   0.014   5.009  15.604
 8285TIP3   OH246345   0.548   4.907  13.772
 8285TIP3    H146346   0.572   4.857  13.850
 8285TIP3    H246347   0.630   4.920  13.725
 8286TIP3   OH246348   0.770   4.933  15.520
 8286TIP3    H146349   0.758   4.979  15.437
 8286TIP3    H246350   0.800   4.846  15.495
 8287TIP3   OH246351   1.180   5.030  13.806
 8287TIP3    H146352   1.130   5.029  13.888
 8287TIP3    H246353   1.149   4.953  13.758
 8288TIP3   OH246354   1.339   4.972  15.293
 8288TIP3    H146355   1.428   4.988  15.262
 8288TIP3    H246356   1.293   5.054  15.277
 8289TIP3   OH246357   0.216   4.586  15.488
 8289TIP3    H146358   0.306   4.614  15.472
 8289TIP3    H246359   0.199   4.611  15.579
 8290TIP3   OH246360   0.641   4.770  13.994
 8290TIP3    H146361   0.595   4.726  14.065
 8290TIP3    H246362   0.689   4.700  13.949
 8291TIP3   OH246363   0.625   4.556  15.269
 8291TIP3    H146364   0.548   4.613  15.266
 8291TIP3    H246365   0.684   4.592  15.203
 8292TIP3   OH246366   0.794   4.601  13.835
 8292TIP3    H146367   0.791   4.628  13.743
 8292TIP3    H246368   0.888   4.595  13.855
 8293TIP3   OH246369   1.113   4.793  15.537
 8293TIP3    H146370   1.194   4.757  15.499
 8293TIP3    H246371   1.082   4.724  15.596
 8294TIP3   OH246372   1.670   4.784  13.793
 8294TIP3    H146373   1.678   4.764  13.699
 8294TIP3    H246374   1.666   4.879  13.797
 8295TIP3   OH246375   0.660   4.293  15.340
 8295TIP3    H146376   0.668   4.236  15.263
 8295TIP3    H246377   0.651   4.381  15.303
 8296TIP3   OH246378   0.688   4.137  15.106
 8296TIP3    H146379   0.742   4.181  15.040
 8296TIP3    H246380   0.601   4.134  15.067
 8297TIP3   OH246381   0.803   4.677  15.106
 8297TIP3    H146382   0.896   4.699  15.117
 8297TIP3    H246383   0.766   4.753  15.060
 8298TIP3   OH246384   1.240   4.414  15.601
 8298TIP3    H146385   1.237   4.338  15.659
 8298TIP3    H246386   1.332   4.438  15.597
 8299TIP3   OH246387   1.381   4.742  15.429
 8299TIP3    H146388   1.355   4.823  15.385
 8299TIP3    H246389   1.477   4.744  15.428
 8300TIP3   OH246390   0.495   4.346  15.561
 8300TIP3    H146391   0.413   4.299  15.544
 8300TIP3    H246392   0.544   4.340  15.479
 8301TIP3   OH246393   0.737   3.874  15.186
 8301TIP3    H146394   0.721   3.965  15.159
 8301TIP3    H246395   0.668   3.824  15.141
 8302TIP3   OH246396   0.873   4.250  15.511
 8302TIP3    H146397   0.827   4.226  15.592
 8302TIP3    H246398   0.803   4.257  15.446
 8303TIP3   OH246399   1.128   4.179  15.415
 8303TIP3    H146400   1.043   4.185  15.458
 8303TIP3    H246401   1.185   4.138  15.481
 8304TIP3   OH246402   1.321   4.075  15.596
 8304TIP3    H146403   1.310   3.980  15.598
 8304TIP3    H246404   1.280   4.105  15.678
 8305TIP3   OH246405   0.288   4.166  15.515
 8305TIP3    H146406   0.291   4.096  15.450
 8305TIP3    H246407   0.292   4.121  15.600
 8306TIP3   OH246408   0.739   3.791  15.446
 8306TIP3    H146409   0.793   3.712  15.438
 8306TIP3    H246410   0.733   3.825  15.357
 8307TIP3   OH246411   0.807   3.947  15.666
 8307TIP3    H146412   0.792   3.893  15.588
 8307TIP3    H246413   0.749   4.022  15.655
 8308TIP3   OH246414   0.791   5.658  13.989
 8308TIP3    H146415   0.880   5.625  13.975
 8308TIP3    H246416   0.779   5.722  13.918
 8309TIP3   OH246417   0.149   5.104  13.898
 8309TIP3    H146418   0.241   5.124  13.916
 8309TIP3    H246419   0.152   5.044  13.824
 8310TIP3   OH246420   0.029   5.672  14.397
 8310TIP3    H146421  -0.034   5.632  14.337
 8310TIP3    H246422   0.048   5.604  14.461
 8311TIP3   OH246423   0.068   5.461  14.582
 8311TIP3    H146424   0.071   5.368  14.606
 8311TIP3    H246425   0.126   5.504  14.644
 8312TIP3   OH246426   1.832   5.494  14.907
 8312TIP3    H146427   1.829   5.499  15.002
 8312TIP3    H246428   1.905   5.551  14.882
 8313TIP3   OH246429   1.775   5.467  15.182
 8313TIP3    H146430   1.723   5.394  15.147
 8313TIP3    H246431   1.823   5.428  15.255
 8314TIP3   OH246432   1.625   5.032  15.762
 8314TIP3    H146433   1.536   5.050  15.792
 8314TIP3    H246434   1.665   5.118  15.752
 8315TIP3   OH246435   1.779   4.913  14.183
 8315TIP3    H146436   1.854   4.972  14.178
 8315TIP3    H246437   1.786   4.872  14.269
 8316TIP3   OH246438   1.796   4.780  14.420
 8316TIP3    H146439   1.724   4.717  14.422
 8316TIP3    H246440   1.864   4.740  14.473
 8317TIP3   OH246441   1.816   4.982  14.895
 8317TIP3    H146442   1.865   4.918  14.843
 8317TIP3    H246443   1.842   5.067  14.858
 8318TIP3   OH246444   1.611   5.259  15.094
 8318TIP3    H146445   1.540   5.308  15.137
 8318TIP3    H246446   1.579   5.244  15.005
 8319TIP3   OH246447   1.821   4.700  14.009
 8319TIP3    H146448   1.769   4.725  13.932
 8319TIP3    H246449   1.806   4.771  14.072
 8320TIP3   OH246450   1.656   4.397  13.818
 8320TIP3    H146451   1.631   4.452  13.744
 8320TIP3    H246452   1.640   4.307  13.787
 8321TIP3   OH246453   1.590   4.588  14.425
 8321TIP3    H146454   1.662   4.526  14.413
 8321TIP3    H246455   1.553   4.566  14.511
 8322TIP3   OH246456   0.077   4.765  14.854
 8322TIP3    H146457   0.084   4.771  14.759
 8322TIP3    H246458   0.158   4.723  14.882
 8323TIP3   OH246459   1.659   4.760  15.423
 8323TIP3    H146460   1.716   4.686  15.402
 8323TIP3    H246461   1.700   4.835  15.381
 8324TIP3   OH246462   1.798   4.526  15.382
 8324TIP3    H146463   1.710   4.489  15.391
 8324TIP3    H246464   1.856   4.456  15.410
 8325TIP3   OH246465   1.588   4.144  13.722
 8325TIP3    H146466   1.626   4.100  13.798
 8325TIP3    H246467   1.495   4.124  13.727
 8326TIP3   OH246468   1.545   4.302  14.219
 8326TIP3    H146469   1.585   4.216  14.228
 8326TIP3    H246470   1.614   4.357  14.184
 8327TIP3   OH246471   1.580   4.346  14.828
 8327TIP3    H146472   1.672   4.358  14.806
 8327TIP3    H246473   1.573   4.371  14.920
 8328TIP3   OH246474   1.614   4.450  15.089
 8328TIP3    H146475   1.535   4.485  15.130
 8328TIP3    H246476   1.666   4.527  15.067
 8329TIP3   OH246477   0.050   4.264  15.414
 8329TIP3    H146478   0.139   4.261  15.449
 8329TIP3    H246479  -0.005   4.230  15.485
 8330TIP3   OH246480   1.829   3.880  15.603
 8330TIP3    H146481   1.895   3.814  15.581
 8330TIP3    H246482   1.835   3.943  15.531
 8331TIP3   OH246483   1.636   4.042  14.266
 8331TIP3    H146484   1.657   4.010  14.353
 8331TIP3    H246485   1.564   3.986  14.237
 8332TIP3   OH246486   0.181   4.137  14.740
 8332TIP3    H146487   0.216   4.048  14.738
 8332TIP3    H246488   0.258   4.193  14.751
 8333TIP3   OH246489   0.000   4.489  14.849
 8333TIP3    H146490   0.071   4.469  14.788
 8333TIP3    H246491   0.001   4.584  14.858
 8334TIP3   OH246492   1.791   4.048  15.394
 8334TIP3    H146493   1.710   4.094  15.415
 8334TIP3    H246494   1.766   3.986  15.325
 8335TIP3   OH246495   1.752   4.032  13.914
 8335TIP3    H146496   1.810   3.975  13.864
 8335TIP3    H246497   1.810   4.096  13.955
 8336TIP3   OH246498   0.125   4.066  14.209
 8336TIP3    H146499   0.039   4.049  14.246
 8336TIP3    H246500   0.112   4.142  14.153
 8337TIP3   OH246501   1.499   5.564  14.447
 8337TIP3    H146502   1.570   5.556  14.384
 8337TIP3    H246503   1.535   5.614  14.520
 8338TIP3   OH246504   7.371   3.930  15.097
 8338TIP3    H146505   7.323   3.980  15.164
 8338TIP3    H246506   7.314   3.932  15.020
 8339TIP3   OH246507   0.222   5.308  15.451
 8339TIP3    H146508   0.178   5.256  15.383
 8339TIP3    H246509   0.197   5.266  15.533
 8340TIP3   OH246510   0.576   5.367  15.125
 8340TIP3    H146511   0.546   5.453  15.098
 8340TIP3    H246512   0.669   5.365  15.103
 8341TIP3   OH246513   0.939   5.483  15.407
 8341TIP3    H146514   0.955   5.451  15.496
 8341TIP3    H246515   1.018   5.533  15.386
 8342TIP3   OH246516   1.172   5.623  15.364
 8342TIP3    H146517   1.239   5.578  15.313
 8342TIP3    H246518   1.219   5.654  15.442
 8343TIP3   OH246519   1.690   3.844  15.230
 8343TIP3    H146520   1.630   3.877  15.164
 8343TIP3    H246521   1.701   3.751  15.208
 8344TIP3   OH246522   0.273   5.649  15.138
 8344TIP3    H146523   0.191   5.682  15.101
 8344TIP3    H246524   0.283   5.697  15.220
 8345TIP3   OH246525   0.533   5.629  15.053
 8345TIP3    H146526   0.441   5.637  15.077
 8345TIP3    H246527   0.539   5.674  14.969
 8346TIP3   OH246528   0.971   5.608  14.960
 8346TIP3    H146529   0.922   5.644  14.886
 8346TIP3    H246530   0.983   5.682  15.019
 8347TIP3   OH246531   1.195   5.482  15.055
 8347TIP3    H146532   1.118   5.525  15.017
 8347TIP3    H246533   1.268   5.542  15.035
 8348TIP3   OH246534   1.437   5.620  15.036
 8348TIP3    H146535   1.466   5.710  15.025
 8348TIP3    H246536   1.478   5.573  14.963
 8349TIP3   OH246537   0.232   5.532  14.791
 8349TIP3    H146538   0.216   5.490  14.876
 8349TIP3    H246539   0.307   5.484  14.755
 8350TIP3   OH246540   0.440   5.389  14.688
 8350TIP3    H146541   0.426   5.297  14.712
 8350TIP3    H246542   0.527   5.409  14.724
 8351TIP3   OH246543   0.700   5.414  14.799
 8351TIP3    H146544   0.709   5.324  14.765
 8351TIP3    H246545   0.739   5.411  14.886
 8352TIP3   OH246546   1.025   3.983  14.694
 8352TIP3    H146547   0.963   3.913  14.714
 8352TIP3    H246548   1.098   3.938  14.652
 8353TIP3   OH246549   1.531   3.844  14.683
 8353TIP3    H146550   1.596   3.895  14.634
 8353TIP3    H246551   1.448   3.891  14.669
 8354TIP3   OH246552   1.721   3.931  14.504
 8354TIP3    H146553   1.785   3.865  14.479
 8354TIP3    H246554   1.774   4.008  14.526
 8355TIP3   OH246555   0.300   3.857  14.433
 8355TIP3    H146556   0.210   3.848  14.402
 8355TIP3    H246557   0.338   3.770  14.423
 8356TIP3   OH246558   0.162   3.856  14.030
 8356TIP3    H146559   0.229   3.890  13.970
 8356TIP3    H246560   0.161   3.919  14.102
 8357TIP3   OH246561   0.761   3.806  14.466
 8357TIP3    H146562   0.830   3.856  14.422
 8357TIP3    H246563   0.781   3.814  14.559
 8358TIP3   OH246564   1.245   3.851  14.594
 8358TIP3    H146565   1.285   3.833  14.509
 8358TIP3    H246566   1.232   3.765  14.633
 8359TIP3   OH246567   1.420   3.882  14.189
 8359TIP3    H146568   1.346   3.939  14.206
 8359TIP3    H246569   1.386   3.794  14.200
 8360TIP3   OH246570   0.173   5.478  14.074
 8360TIP3    H146571   0.082   5.454  14.057
 8360TIP3    H246572   0.175   5.574  14.065
 8361TIP3   OH246573   0.366   3.997  13.884
 8361TIP3    H146574   0.422   3.949  13.823
 8361TIP3    H246575   0.428   4.034  13.948
 8362TIP3   OH246576   0.820   4.085  14.132
 8362TIP3    H146577   0.856   4.012  14.183
 8362TIP3    H246578   0.840   4.163  14.184
 8363TIP3   OH246579   1.041   5.547  13.958
 8363TIP3    H146580   1.134   5.565  13.947
 8363TIP3    H246581   1.016   5.497  13.880
 8364TIP3   OH246582   1.698   5.531  14.255
 8364TIP3    H146583   1.682   5.442  14.222
 8364TIP3    H246584   1.682   5.588  14.180
 8365TIP3   OH246585   0.288   3.911  15.389
 8365TIP3    H146586   0.231   3.845  15.429
 8365TIP3    H246587   0.373   3.898  15.431
 8366TIP3   OH246588   0.490   3.839  15.563
 8366TIP3    H146589   0.576   3.816  15.527
 8366TIP3    H246590   0.462   3.760  15.609
 8367TIP3   OH246591   0.354   5.525  13.823
 8367TIP3    H146592   0.320   5.500  13.909
 8367TIP3    H246593   0.429   5.468  13.809
 8368TIP3   OH246594   1.324   3.798  15.586
 8368TIP3    H146595   1.317   3.752  15.670
 8368TIP3    H246596   1.416   3.790  15.561
 8369TIP3   OH246597   1.592   5.399  15.450
 8369TIP3    H146598   1.536   5.395  15.372
 8369TIP3    H246599   1.597   5.492  15.471
 8370TIP3   OH246600   3.070   4.805  14.446
 8370TIP3    H146601   3.018   4.794  14.367
 8370TIP3    H246602   3.036   4.740  14.507
 8371TIP3   OH246603   2.964   4.701  14.806
 8371TIP3    H146604   2.984   4.670  14.894
 8371TIP3    H246605   2.908   4.632  14.769
 8372TIP3   OH246606   2.185   4.648  14.930
 8372TIP3    H146607   2.196   4.575  14.992
 8372TIP3    H246608   2.274   4.669  14.901
 8373TIP3   OH246609   3.259   5.016  14.681
 8373TIP3    H146610   3.267   4.934  14.730
 8373TIP3    H246611   3.302   5.081  14.736
 8374TIP3   OH246612   2.340   5.137  14.762
 8374TIP3    H146613   2.306   5.050  14.741
 8374TIP3    H246614   2.433   5.124  14.777
 8375TIP3   OH246615   1.833   4.468  14.348
 8375TIP3    H146616   1.926   4.489  14.352
 8375TIP3    H246617   1.816   4.451  14.255
 8376TIP3   OH246618   2.014   4.665  14.577
 8376TIP3    H146619   2.024   4.577  14.614
 8376TIP3    H246620   2.055   4.660  14.492
 8377TIP3   OH246621   3.072   5.507  14.676
 8377TIP3    H146622   3.106   5.434  14.624
 8377TIP3    H246623   3.026   5.466  14.749
 8378TIP3   OH246624   2.827   4.957  14.821
 8378TIP3    H146625   2.858   4.869  14.799
 8378TIP3    H246626   2.887   4.986  14.890
 8379TIP3   OH246627   3.699   4.099  14.929
 8379TIP3    H146628   3.712   4.172  14.989
 8379TIP3    H246629   3.753   4.121  14.853
 8380TIP3   OH246630   3.112   4.390  14.835
 8380TIP3    H146631   3.120   4.296  14.852
 8380TIP3    H246632   3.095   4.396  14.741
 8381TIP3   OH246633   2.469   4.197  14.554
 8381TIP3    H146634   2.459   4.283  14.512
 8381TIP3    H246635   2.421   4.137  14.497
 8382TIP3   OH246636   3.242   4.219  14.411
 8382TIP3    H146637   3.279   4.188  14.494
 8382TIP3    H246638   3.317   4.253  14.363
 8383TIP3   OH246639   2.073   4.407  14.669
 8383TIP3    H146640   2.158   4.384  14.708
 8383TIP3    H246641   2.075   4.365  14.582
 8384TIP3   OH246642   2.570   4.590  14.616
 8384TIP3    H146643   2.653   4.550  14.640
 8384TIP3    H246644   2.530   4.527  14.556
 8385TIP3   OH246645   3.732   4.280  15.138
 8385TIP3    H146646   3.650   4.329  15.125
 8385TIP3    H246647   3.752   4.293  15.231
 8386TIP3   OH246648   2.319   4.113  14.991
 8386TIP3    H146649   2.301   4.168  14.914
 8386TIP3    H246650   2.244   4.130  15.049
 8387TIP3   OH246651   2.988   5.088  14.326
 8387TIP3    H146652   2.978   5.069  14.232
 8387TIP3    H246653   2.944   5.172  14.338
 8388TIP3   OH246654   2.588   4.891  14.963
 8388TIP3    H146655   2.534   4.962  14.998
 8388TIP3    H246656   2.656   4.935  14.912
 8389TIP3   OH246657   3.325   4.180  14.668
 8389TIP3    H146658   3.260   4.150  14.731
 8389TIP3    H246659   3.387   4.232  14.720
 8390TIP3   OH246660   2.302   4.273  14.768
 8390TIP3    H146661   2.360   4.331  14.818
 8390TIP3    H246662   2.356   4.242  14.695
 8391TIP3   OH246663   2.437   5.091  15.082
 8391TIP3    H146664   2.443   5.186  15.073
 8391TIP3    H246665   2.344   5.075  15.101
 8392TIP3   OH246666   2.002   5.081  14.153
 8392TIP3    H146667   1.996   5.126  14.069
 8392TIP3    H246668   2.026   5.149  14.216
 8393TIP3   OH246669   3.362   5.230  14.837
 8393TIP3    H146670   3.268   5.235  14.857
 8393TIP3    H246671   3.387   5.320  14.817
 8394TIP3   OH246672   3.452   3.997  15.020
 8394TIP3    H146673   3.384   4.040  14.968
 8394TIP3    H246674   3.534   4.023  14.978
 8395TIP3   OH246675   2.676   3.799  14.749
 8395TIP3    H146676   2.650   3.707  14.747
 8395TIP3    H246677   2.597   3.846  14.776
 8396TIP3   OH246678   3.188   5.336  14.487
 8396TIP3    H146679   3.231   5.261  14.446
 8396TIP3    H246680   3.252   5.408  14.478
 8397TIP3   OH246681   3.307   5.103  14.400
 8397TIP3    H146682   3.336   5.077  14.312
 8397TIP3    H246683   3.384   5.089  14.455
 8398TIP3   OH246684   3.478   5.019  15.196
 8398TIP3    H146685   3.473   4.958  15.122
 8398TIP3    H246686   3.492   5.104  15.156
 8399TIP3   OH246687   2.946   4.732  14.210
 8399TIP3    H146688   2.868   4.782  14.184
 8399TIP3    H246689   2.999   4.727  14.131
 8400TIP3   OH246690   2.963   4.588  13.853
 8400TIP3    H146691   3.021   4.610  13.926
 8400TIP3    H246692   3.011   4.520  13.805
 8401TIP3   OH246693   3.651   4.668  15.045
 8401TIP3    H146694   3.579   4.731  15.035
 8401TIP3    H246695   3.712   4.691  14.975
 8402TIP3   OH246696   3.292   4.750  14.272
 8402TIP3    H146697   3.224   4.765  14.337
 8402TIP3    H246698   3.355   4.694  14.316
 8403TIP3   OH246699   3.257   4.538  15.231
 8403TIP3    H146700   3.253   4.611  15.293
 8403TIP3    H246701   3.194   4.561  15.162
 8404TIP3   OH246702   2.449   4.797  14.469
 8404TIP3    H146703   2.415   4.761  14.387
 8404TIP3    H246704   2.490   4.722  14.512
 8405TIP3   OH246705   2.622   5.144  14.732
 8405TIP3    H146706   2.608   5.150  14.638
 8405TIP3    H246707   2.695   5.083  14.742
 8406TIP3   OH246708   2.454   4.670  14.859
 8406TIP3    H146709   2.489   4.659  14.770
 8406TIP3    H246710   2.494   4.752  14.889
 8407TIP3   OH246711   3.099   5.224  14.903
 8407TIP3    H146712   3.085   5.302  14.958
 8407TIP3    H246713   3.060   5.152  14.952
 8408TIP3   OH246714   2.588   5.107  15.314
 8408TIP3    H146715   2.523   5.163  15.357
 8408TIP3    H246716   2.547   5.081  15.232
 8409TIP3   OH246717   3.166   4.660  14.039
 8409TIP3    H146718   3.214   4.701  14.111
 8409TIP3    H246719   3.219   4.676  13.961
 8410TIP3   OH246720   2.235   4.685  15.293
 8410TIP3    H146721   2.250   4.775  15.323
 8410TIP3    H246722   2.149   4.688  15.251
 8411TIP3   OH246723   2.922   5.341  14.401
 8411TIP3    H146724   3.010   5.357  14.435
 8411TIP3    H246725   2.901   5.421  14.352
 8412TIP3   OH246726   2.382   5.281  15.380
 8412TIP3    H146727   2.388   5.316  15.291
 8412TIP3    H246728   2.289   5.282  15.399
 8413TIP3   OH246729   3.511   3.812  14.020
 8413TIP3    H146730   3.430   3.839  14.063
 8413TIP3    H246731   3.550   3.894  13.989
 8414TIP3   OH246732   2.361   4.720  14.210
 8414TIP3    H146733   2.303   4.784  14.170
 8414TIP3    H246734   2.303   4.651  14.240
 8415TIP3   OH246735   3.680   5.265  13.898
 8415TIP3    H146736   3.691   5.360  13.890
 8415TIP3    H246737   3.769   5.230  13.890
 8416TIP3   OH246738   1.955   4.946  15.136
 8416TIP3    H146739   1.905   4.957  15.055
 8416TIP3    H246740   1.968   4.852  15.144
 8417TIP3   OH246741   1.920   5.238  14.832
 8417TIP3    H146742   2.001   5.246  14.882
 8417TIP3    H246743   1.870   5.316  14.854
 8418TIP3   OH246744   3.728   5.284  15.407
 8418TIP3    H146745   3.714   5.189  15.406
 8418TIP3    H246746   3.648   5.319  15.446
 8419TIP3   OH246747   2.822   5.245  15.268
 8419TIP3    H146748   2.815   5.328  15.315
 8419TIP3    H246749   2.739   5.200  15.285
 8420TIP3   OH246750   2.927   5.582  14.252
 8420TIP3    H146751   2.903   5.580  14.160
 8420TIP3    H246752   2.887   5.662  14.286
 8421TIP3   OH246753   2.253   5.477  14.434
 8421TIP3    H146754   2.269   5.445  14.522
 8421TIP3    H246755   2.196   5.411  14.394
 8422TIP3   OH246756   3.204   5.548  13.926
 8422TIP3    H146757   3.249   5.473  13.887
 8422TIP3    H246758   3.216   5.537  14.021
 8423TIP3   OH246759   3.196   5.533  14.204
 8423TIP3    H146760   3.104   5.536  14.229
 8423TIP3    H246761   3.242   5.512  14.285
 8424TIP3   OH246762   3.435   4.410  15.418
 8424TIP3    H146763   3.367   4.446  15.360
 8424TIP3    H246764   3.441   4.318  15.392
 8425TIP3   OH246765   2.178   5.102  15.186
 8425TIP3    H146766   2.202   5.064  15.271
 8425TIP3    H246767   2.099   5.054  15.160
 8426TIP3   OH246768   2.427   3.907  14.835
 8426TIP3    H146769   2.353   3.895  14.776
 8426TIP3    H246770   2.402   3.981  14.890
 8427TIP3   OH246771   2.902   3.891  15.176
 8427TIP3    H146772   2.946   3.843  15.246
 8427TIP3    H246773   2.809   3.885  15.197
 8428TIP3   OH246774   3.195   4.266  15.240
 8428TIP3    H146775   3.134   4.248  15.311
 8428TIP3    H246776   3.202   4.361  15.237
 8429TIP3   OH246777   3.314   4.684  13.812
 8429TIP3    H146778   3.281   4.710  13.726
 8429TIP3    H246779   3.404   4.716  13.814
 8430TIP3   OH246780   2.867   4.109  13.903
 8430TIP3    H146781   2.808   4.110  13.978
 8430TIP3    H246782   2.828   4.045  13.843
 8431TIP3   OH246783   2.448   4.419  14.958
 8431TIP3    H146784   2.378   4.421  15.023
 8431TIP3    H246785   2.455   4.509  14.927
 8432TIP3   OH246786   2.430   4.439  14.431
 8432TIP3    H146787   2.342   4.474  14.419
 8432TIP3    H246788   2.457   4.411  14.343
 8433TIP3   OH246789   2.985   4.480  14.320
 8433TIP3    H146790   2.961   4.565  14.283
 8433TIP3    H246791   3.049   4.444  14.258
 8434TIP3   OH246792   2.906   4.464  15.430
 8434TIP3    H146793   2.853   4.392  15.465
 8434TIP3    H246794   2.990   4.455  15.476
 8435TIP3   OH246795   3.087   4.397  14.562
 8435TIP3    H146796   3.040   4.436  14.488
 8435TIP3    H246797   3.133   4.322  14.524
 8436TIP3   OH246798   2.228   4.439  15.120
 8436TIP3    H146799   2.216   4.494  15.198
 8436TIP3    H246800   2.182   4.358  15.140
 8437TIP3   OH246801   2.552   4.164  13.799
 8437TIP3    H146802   2.519   4.155  13.888
 8437TIP3    H246803   2.492   4.226  13.758
 8438TIP3   OH246804   1.892   4.132  14.555
 8438TIP3    H146805   1.936   4.135  14.639
 8438TIP3    H246806   1.952   4.176  14.495
 8439TIP3   OH246807   1.924   4.225  14.022
 8439TIP3    H146808   1.994   4.266  13.971
 8439TIP3    H246809   1.871   4.298  14.054
 8440TIP3   OH246810   3.052   4.561  15.036
 8440TIP3    H146811   3.082   4.502  14.967
 8440TIP3    H246812   2.982   4.512  15.081
 8441TIP3   OH246813   2.751   4.153  14.522
 8441TIP3    H146814   2.660   4.161  14.549
 8441TIP3    H246815   2.795   4.113  14.597
 8442TIP3   OH246816   2.118   4.249  14.444
 8442TIP3    H146817   2.126   4.329  14.392
 8442TIP3    H246818   2.184   4.190  14.408
 8443TIP3   OH246819   2.510   4.349  14.184
 8443TIP3    H146820   2.605   4.350  14.197
 8443TIP3    H246821   2.496   4.392  14.100
 8444TIP3   OH246822   3.116   4.112  14.842
 8444TIP3    H146823   3.077   4.114  14.929
 8444TIP3    H246824   3.051   4.069  14.787
 8445TIP3   OH246825   2.479   4.438  13.927
 8445TIP3    H146826   2.422   4.417  13.853
 8445TIP3    H246827   2.551   4.488  13.888
 8446TIP3   OH246828   3.479   5.667  15.499
 8446TIP3    H146829   3.504   5.705  15.415
 8446TIP3    H246830   3.552   5.687  15.557
 8447TIP3   OH246831   2.229   4.940  15.420
 8447TIP3    H146832   2.297   4.938  15.487
 8447TIP3    H246833   2.147   4.952  15.469
 8448TIP3   OH246834   2.813   4.475  14.717
 8448TIP3    H146835   2.872   4.414  14.672
 8448TIP3    H246836   2.778   4.425  14.791
 8449TIP3   OH246837   2.311   4.059  14.369
 8449TIP3    H146838   2.257   3.984  14.392
 8449TIP3    H246839   2.332   4.046  14.276
 8450TIP3   OH246840   2.711   4.341  14.939
 8450TIP3    H146841   2.623   4.377  14.952
 8450TIP3    H246842   2.760   4.368  15.016
 8451TIP3   OH246843   2.733   4.890  14.130
 8451TIP3    H146844   2.659   4.857  14.078
 8451TIP3    H246845   2.693   4.920  14.212
 8452TIP3   OH246846   3.460   4.856  14.975
 8452TIP3    H146847   3.522   4.907  14.923
 8452TIP3    H246848   3.393   4.829  14.912
 8453TIP3   OH246849   3.120   4.172  13.984
 8453TIP3    H146850   3.029   4.160  13.956
 8453TIP3    H246851   3.121   4.258  14.025
 8454TIP3   OH246852   2.886   4.939  15.277
 8454TIP3    H146853   2.919   4.899  15.357
 8454TIP3    H246854   2.860   5.027  15.304
 8455TIP3   OH246855   3.181   4.399  14.137
 8455TIP3    H146856   3.270   4.380  14.168
 8455TIP3    H246857   3.188   4.486  14.097
 8456TIP3   OH246858   2.281   4.883  14.674
 8456TIP3    H146859   2.338   4.860  14.601
 8456TIP3    H246860   2.209   4.820  14.669
 8457TIP3   OH246861   2.940   5.046  14.051
 8457TIP3    H146862   2.908   5.136  14.053
 8457TIP3    H246863   2.863   4.992  14.069
 8458TIP3   OH246864   1.967   4.672  15.213
 8458TIP3    H146865   1.929   4.631  15.290
 8458TIP3    H246866   1.904   4.656  15.143
 8459TIP3   OH246867   2.687   4.647  15.468
 8459TIP3    H146868   2.623   4.617  15.404
 8459TIP3    H246869   2.769   4.603  15.442
 8460TIP3   OH246870   3.102   5.223  15.266
 8460TIP3    H146871   3.007   5.229  15.251
 8460TIP3    H246872   3.112   5.239  15.360
 8461TIP3   OH246873   3.651   4.438  14.069
 8461TIP3    H146874   3.622   4.409  13.983
 8461TIP3    H246875   3.668   4.532  14.059
 8462TIP3   OH246876   3.692   4.999  15.360
 8462TIP3    H146877   3.607   5.015  15.319
 8462TIP3    H246878   3.753   4.992  15.287
 8463TIP3   OH246879   3.529   5.273  14.131
 8463TIP3    H146880   3.472   5.196  14.129
 8463TIP3    H246881   3.580   5.267  14.050
 8464TIP3   OH246882   3.256   4.766  14.795
 8464TIP3    H146883   3.163   4.748  14.810
 8464TIP3    H246884   3.289   4.688  14.750
 8465TIP3   OH246885   2.527   5.212  14.476
 8465TIP3    H146886   2.543   5.297  14.436
 8465TIP3    H246887   2.432   5.208  14.488
 8466TIP3   OH246888   2.087   4.669  13.933
 8466TIP3    H146889   2.136   4.731  13.986
 8466TIP3    H246890   1.998   4.673  13.968
 8467TIP3   OH246891   2.619   4.982  14.357
 8467TIP3    H146892   2.597   5.066  14.397
 8467TIP3    H246893   2.561   4.919  14.400
 8468TIP3   OH246894   2.719   5.386  15.042
 8468TIP3    H146895   2.776   5.460  15.021
 8468TIP3    H246896   2.771   5.332  15.102
 8469TIP3   OH246897   2.519   5.468  14.364
 8469TIP3    H146898   2.426   5.486  14.379
 8469TIP3    H246899   2.565   5.544  14.399
 8470TIP3   OH246900   3.011   4.988  15.034
 8470TIP3    H146901   2.956   4.973  15.112
 8470TIP3    H246902   3.096   4.952  15.057
 8471TIP3   OH246903   3.318   5.100  13.930
 8471TIP3    H146904   3.327   5.056  14.015
 8471TIP3    H246905   3.233   5.072  13.896
 8472TIP3   OH246906   3.303   5.419  15.229
 8472TIP3    H146907   3.224   5.367  15.219
 8472TIP3    H246908   3.295   5.489  15.165
 8473TIP3   OH246909   3.711   5.538  13.906
 8473TIP3    H146910   3.738   5.602  13.840
 8473TIP3    H246911   3.642   5.582  13.955
 8474TIP3   OH246912   2.099   4.185  15.153
 8474TIP3    H146913   2.014   4.223  15.132
 8474TIP3    H246914   2.079   4.101  15.195
 8475TIP3   OH246915   3.406   4.982  14.170
 8475TIP3    H146916   3.362   4.901  14.196
 8475TIP3    H246917   3.499   4.959  14.170
 8476TIP3   OH246918   2.112   5.360  15.033
 8476TIP3    H146919   2.142   5.284  15.083
 8476TIP3    H246920   2.127   5.435  15.091
 8477TIP3   OH246921   2.677   5.183  13.774
 8477TIP3    H146922   2.679   5.099  13.729
 8477TIP3    H246923   2.633   5.164  13.858
 8478TIP3   OH246924   2.544   5.166  14.017
 8478TIP3    H146925   2.566   5.115  14.094
 8478TIP3    H246926   2.556   5.257  14.044
 8479TIP3   OH246927   2.192   4.891  14.074
 8479TIP3    H146928   2.121   4.936  14.119
 8479TIP3    H246929   2.233   4.958  14.020
 8480TIP3   OH246930   3.004   4.132  15.091
 8480TIP3    H146931   3.075   4.156  15.150
 8480TIP3    H246932   2.969   4.050  15.127
 8481TIP3   OH246933   3.089   4.058  14.242
 8481TIP3    H146934   3.099   4.097  14.156
 8481TIP3    H246935   3.135   4.118  14.301
 8482TIP3   OH246936   2.851   5.299  14.079
 8482TIP3    H146937   2.762   5.329  14.099
 8482TIP3    H246938   2.895   5.376  14.044
 8483TIP3   OH246939   2.772   4.303  14.289
 8483TIP3    H146940   2.842   4.367  14.301
 8483TIP3    H246941   2.762   4.261  14.374
 8484TIP3   OH246942   2.879   4.382  15.158
 8484TIP3    H146943   2.886   4.401  15.251
 8484TIP3    H246944   2.915   4.294  15.148
 8485TIP3   OH246945   2.850   3.959  14.343
 8485TIP3    H146946   2.825   4.029  14.402
 8485TIP3    H246947   2.936   3.985  14.309
 8486TIP3   OH246948   2.604   5.417  14.109
 8486TIP3    H146949   2.610   5.502  14.066
 8486TIP3    H246950   2.572   5.437  14.196
 8487TIP3   OH246951   2.443   4.109  14.053
 8487TIP3    H146952   2.433   4.193  14.098
 8487TIP3    H246953   2.530   4.079  14.079
 8488TIP3   OH246954   3.444   4.164  15.269
 8488TIP3    H146955   3.353   4.189  15.257
 8488TIP3    H246956   3.466   4.113  15.191
 8489TIP3   OH246957   3.329   4.530  14.657
 8489TIP3    H146958   3.248   4.482  14.639
 8489TIP3    H246959   3.378   4.473  14.716
 8490TIP3   OH246960   2.297   5.092  13.911
 8490TIP3    H146961   2.371   5.138  13.950
 8490TIP3    H246962   2.335   5.034  13.846
 8491TIP3   OH246963   2.074   4.396  13.864
 8491TIP3    H146964   2.103   4.475  13.909
 8491TIP3    H246965   2.020   4.429  13.792
 8492TIP3   OH246966   3.451   5.493  14.826
 8492TIP3    H146967   3.438   5.561  14.761
 8492TIP3    H246968   3.545   5.493  14.843
 8493TIP3   OH246969   2.181   3.879  14.709
 8493TIP3    H146970   2.173   3.875  14.614
 8493TIP3    H246971   2.145   3.796  14.740
 8494TIP3   OH246972   2.061   5.310  14.312
 8494TIP3    H146973   2.000   5.334  14.382
 8494TIP3    H246974   2.043   5.373  14.242
 8495TIP3   OH246975   2.046   5.581  15.528
 8495TIP3    H146976   2.110   5.566  15.597
 8495TIP3    H246977   2.031   5.495  15.489
 8496TIP3   OH246978   2.468   5.379  15.622
 8496TIP3    H146979   2.543   5.324  15.643
 8496TIP3    H246980   2.440   5.350  15.535
 8497TIP3   OH246981   2.873   5.375  13.757
 8497TIP3    H146982   2.806   5.308  13.768
 8497TIP3    H246983   2.949   5.327  13.723
 8498TIP3   OH246984   3.123   5.258  15.539
 8498TIP3    H146985   3.098   5.174  15.577
 8498TIP3    H246986   3.198   5.287  15.591
 8499TIP3   OH246987   3.325   5.342  13.795
 8499TIP3    H146988   3.342   5.262  13.845
 8499TIP3    H246989   3.396   5.345  13.730
 8500TIP3   OH246990   1.985   4.942  15.566
 8500TIP3    H146991   1.994   4.848  15.557
 8500TIP3    H246992   1.917   4.966  15.504
 8501TIP3   OH246993   2.430   4.907  13.761
 8501TIP3    H146994   2.451   4.858  13.840
 8501TIP3    H246995   2.514   4.919  13.717
 8502TIP3   OH246996   2.653   4.929  15.520
 8502TIP3    H146997   2.642   4.973  15.435
 8502TIP3    H246998   2.681   4.841  15.497
 8503TIP3   OH246999   3.079   5.025  13.816
 8503TIP3    H147000   3.022   5.027  13.893
 8503TIP3    H247001   3.048   4.951  13.765
 8504TIP3   OH247002   3.217   4.966  15.262
 8504TIP3    H147003   3.309   4.988  15.246
 8504TIP3    H247004   3.172   5.051  15.263
 8505TIP3   OH247005   2.063   4.679  15.528
 8505TIP3    H147006   2.137   4.662  15.470
 8505TIP3    H247007   2.096   4.658  15.616
 8506TIP3   OH247008   2.525   4.775  13.989
 8506TIP3    H147009   2.471   4.738  14.059
 8506TIP3    H247010   2.567   4.699  13.949
 8507TIP3   OH247011   2.496   4.558  15.279
 8507TIP3    H147012   2.413   4.605  15.275
 8507TIP3    H247013   2.551   4.600  15.213
 8508TIP3   OH247014   2.683   4.598  13.836
 8508TIP3    H147015   2.677   4.628  13.745
 8508TIP3    H247016   2.776   4.590  13.853
 8509TIP3   OH247017   2.993   4.792  15.526
 8509TIP3    H147018   3.077   4.760  15.495
 8509TIP3    H247019   2.964   4.727  15.589
 8510TIP3   OH247020   3.569   4.785  13.773
 8510TIP3    H147021   3.571   4.768  13.679
 8510TIP3    H247022   3.568   4.880  13.780
 8511TIP3   OH247023   2.543   4.293  15.337
 8511TIP3    H147024   2.551   4.239  15.259
 8511TIP3    H247025   2.531   4.382  15.303
 8512TIP3   OH247026   2.571   4.140  15.100
 8512TIP3    H147027   2.624   4.186  15.036
 8512TIP3    H247028   2.483   4.137  15.061
 8513TIP3   OH247029   2.679   4.687  15.125
 8513TIP3    H147030   2.766   4.719  15.149
 8513TIP3    H247031   2.645   4.754  15.065
 8514TIP3   OH247032   3.120   4.414  15.611
 8514TIP3    H147033   3.121   4.337  15.668
 8514TIP3    H247034   3.208   4.452  15.621
 8515TIP3   OH247035   3.267   4.747  15.421
 8515TIP3    H147036   3.240   4.824  15.371
 8515TIP3    H247037   3.363   4.752  15.421
 8516TIP3   OH247038   2.375   4.343  15.559
 8516TIP3    H147039   2.294   4.296  15.537
 8516TIP3    H247040   2.425   4.344  15.477
 8517TIP3   OH247041   2.623   3.879  15.182
 8517TIP3    H147042   2.606   3.969  15.154
 8517TIP3    H247043   2.559   3.827  15.135
 8518TIP3   OH247044   2.754   4.248  15.511
 8518TIP3    H147045   2.707   4.225  15.591
 8518TIP3    H247046   2.686   4.257  15.445
 8519TIP3   OH247047   3.012   4.176  15.415
 8519TIP3    H147048   2.927   4.184  15.460
 8519TIP3    H247049   3.070   4.139  15.481
 8520TIP3   OH247050   3.202   4.073  15.596
 8520TIP3    H147051   3.195   3.978  15.598
 8520TIP3    H247052   3.166   4.103  15.679
 8521TIP3   OH247053   2.159   4.168  15.520
 8521TIP3    H147054   2.160   4.100  15.453
 8521TIP3    H247055   2.167   4.121  15.603
 8522TIP3   OH247056   2.618   3.793  15.440
 8522TIP3    H147057   2.678   3.719  15.434
 8522TIP3    H247058   2.617   3.830  15.352
 8523TIP3   OH247059   2.685   3.940  15.669
 8523TIP3    H147060   2.674   3.894  15.586
 8523TIP3    H247061   2.633   4.020  15.660
 8524TIP3   OH247062   2.680   5.657  13.992
 8524TIP3    H147063   2.769   5.625  13.978
 8524TIP3    H247064   2.666   5.719  13.920
 8525TIP3   OH247065   2.035   5.146  13.858
 8525TIP3    H147066   2.126   5.135  13.884
 8525TIP3    H247067   2.016   5.069  13.804
 8526TIP3   OH247068   1.890   5.618  14.429
 8526TIP3    H147069   1.832   5.587  14.359
 8526TIP3    H247070   1.909   5.539  14.481
 8527TIP3   OH247071   1.960   5.396  14.580
 8527TIP3    H147072   1.926   5.317  14.621
 8527TIP3    H247073   2.007   5.441  14.650
 8528TIP3   OH247074   3.715   5.492  14.910
 8528TIP3    H147075   3.710   5.491  15.006
 8528TIP3    H247076   3.786   5.554  14.891
 8529TIP3   OH247077   3.663   5.461  15.185
 8529TIP3    H147078   3.607   5.391  15.151
 8529TIP3    H247079   3.707   5.421  15.260
 8530TIP3   OH247080   3.510   5.032  15.754
 8530TIP3    H147081   3.422   5.051  15.786
 8530TIP3    H247082   3.551   5.118  15.743
 8531TIP3   OH247083   3.668   4.892  14.193
 8531TIP3    H147084   3.741   4.954  14.191
 8531TIP3    H247085   3.691   4.830  14.263
 8532TIP3   OH247086   3.720   4.691  14.380
 8532TIP3    H147087   3.636   4.655  14.410
 8532TIP3    H247088   3.773   4.699  14.460
 8533TIP3   OH247089   3.688   4.987  14.888
 8533TIP3    H147090   3.747   4.920  14.853
 8533TIP3    H247091   3.724   5.070  14.855
 8534TIP3   OH247092   3.490   5.269  15.086
 8534TIP3    H147093   3.418   5.314  15.131
 8534TIP3    H247094   3.456   5.253  14.998
 8535TIP3   OH247095   3.702   4.698  13.997
 8535TIP3    H147096   3.657   4.727  13.918
 8535TIP3    H247097   3.685   4.767  14.061
 8536TIP3   OH247098   3.601   4.390  13.799
 8536TIP3    H147099   3.559   4.451  13.738
 8536TIP3    H247100   3.562   4.305  13.777
 8537TIP3   OH247101   3.457   4.574  14.414
 8537TIP3    H147102   3.458   4.486  14.375
 8537TIP3    H247103   3.420   4.561  14.501
 8538TIP3   OH247104   1.948   4.738  14.832
 8538TIP3    H147105   1.959   4.726  14.738
 8538TIP3    H247106   2.033   4.715  14.869
 8539TIP3   OH247107   3.546   4.759  15.418
 8539TIP3    H147108   3.599   4.682  15.396
 8539TIP3    H247109   3.600   4.833  15.390
 8540TIP3   OH247110   3.681   4.522  15.376
 8540TIP3    H147111   3.596   4.481  15.392
 8540TIP3    H247112   3.745   4.455  15.400
 8541TIP3   OH247113   3.508   4.147  13.696
 8541TIP3    H147114   3.546   4.099  13.769
 8541TIP3    H247115   3.414   4.127  13.700
 8542TIP3   OH247116   3.450   4.332  14.243
 8542TIP3    H147117   3.474   4.239  14.251
 8542TIP3    H247118   3.519   4.370  14.189
 8543TIP3   OH247119   3.479   4.358  14.819
 8543TIP3    H147120   3.572   4.368  14.798
 8543TIP3    H247121   3.474   4.377  14.913
 8544TIP3   OH247122   3.501   4.440  15.086
 8544TIP3    H147123   3.424   4.470  15.134
 8544TIP3    H247124   3.556   4.519  15.078
 8545TIP3   OH247125   1.929   4.285  15.416
 8545TIP3    H147126   2.015   4.262  15.451
 8545TIP3    H247127   1.879   4.204  15.419
 8546TIP3   OH247128   3.720   3.851  15.595
 8546TIP3    H147129   3.796   3.793  15.585
 8546TIP3    H247130   3.735   3.921  15.532
 8547TIP3   OH247131   3.497   4.060  14.277
 8547TIP3    H147132   3.516   4.019  14.361
 8547TIP3    H247133   3.434   4.001  14.236
 8548TIP3   OH247134   2.050   4.113  14.784
 8548TIP3    H147135   2.095   4.032  14.762
 8548TIP3    H247136   2.116   4.181  14.771
 8549TIP3   OH247137   1.846   4.418  14.823
 8549TIP3    H147138   1.918   4.400  14.763
 8549TIP3    H247139   1.864   4.505  14.858
 8550TIP3   OH247140   3.677   4.049  15.410
 8550TIP3    H147141   3.600   4.087  15.451
 8550TIP3    H247142   3.642   3.995  15.339
 8551TIP3   OH247143   3.642   4.040  13.908
 8551TIP3    H147144   3.692   3.965  13.878
 8551TIP3    H247145   3.703   4.089  13.963
 8552TIP3   OH247146   1.912   4.002  14.182
 8552TIP3    H147147   1.823   4.010  14.216
 8552TIP3    H247148   1.929   4.087  14.141
 8553TIP3   OH247149   3.365   5.534  14.432
 8553TIP3    H147150   3.445   5.534  14.379
 8553TIP3    H247151   3.386   5.590  14.506
 8554TIP3   OH247152   1.926   3.876  15.076
 8554TIP3    H147153   1.851   3.862  15.134
 8554TIP3    H247154   1.899   3.946  15.017
 8555TIP3   OH247155   2.118   5.289  15.472
 8555TIP3    H147156   2.027   5.283  15.443
 8555TIP3    H247157   2.115   5.263  15.564
 8556TIP3   OH247158   2.457   5.367  15.121
 8556TIP3    H147159   2.426   5.455  15.099
 8556TIP3    H247160   2.550   5.368  15.100
 8557TIP3   OH247161   2.827   5.486  15.405
 8557TIP3    H147162   2.838   5.452  15.494
 8557TIP3    H247163   2.908   5.534  15.388
 8558TIP3   OH247164   3.067   5.618  15.369
 8558TIP3    H147165   3.138   5.566  15.331
 8558TIP3    H247166   3.104   5.656  15.448
 8559TIP3   OH247167   3.578   3.847  15.232
 8559TIP3    H147168   3.519   3.875  15.162
 8559TIP3    H247169   3.598   3.756  15.213
 8560TIP3   OH247170   2.149   5.637  15.140
 8560TIP3    H147171   2.072   5.676  15.099
 8560TIP3    H247172   2.160   5.685  15.222
 8561TIP3   OH247173   2.412   5.631  15.055
 8561TIP3    H147174   2.320   5.638  15.080
 8561TIP3    H247175   2.417   5.675  14.970
 8562TIP3   OH247176   2.862   5.608  14.954
 8562TIP3    H147177   2.805   5.647  14.888
 8562TIP3    H247178   2.873   5.678  15.019
 8563TIP3   OH247179   3.088   5.471  15.023
 8563TIP3    H147180   3.009   5.520  15.001
 8563TIP3    H247181   3.158   5.536  15.018
 8564TIP3   OH247182   3.323   5.621  15.034
 8564TIP3    H147183   3.348   5.713  15.024
 8564TIP3    H247184   3.367   5.576  14.962
 8565TIP3   OH247185   2.111   5.508  14.796
 8565TIP3    H147186   2.106   5.462  14.880
 8565TIP3    H247187   2.191   5.475  14.755
 8566TIP3   OH247188   2.334   5.396  14.687
 8566TIP3    H147189   2.323   5.305  14.714
 8566TIP3    H247190   2.421   5.421  14.718
 8567TIP3   OH247191   2.596   5.417  14.793
 8567TIP3    H147192   2.608   5.328  14.759
 8567TIP3    H247193   2.625   5.412  14.884
 8568TIP3   OH247194   2.911   3.983  14.687
 8568TIP3    H147195   2.848   3.914  14.709
 8568TIP3    H247196   2.984   3.936  14.646
 8569TIP3   OH247197   3.407   3.840  14.696
 8569TIP3    H147198   3.465   3.894  14.643
 8569TIP3    H247199   3.319   3.870  14.673
 8570TIP3   OH247200   3.584   3.934  14.508
 8570TIP3    H147201   3.648   3.867  14.484
 8570TIP3    H247202   3.637   4.011  14.529
 8571TIP3   OH247203   2.155   3.840  14.437
 8571TIP3    H147204   2.063   3.829  14.414
 8571TIP3    H247205   2.194   3.753  14.423
 8572TIP3   OH247206   2.083   3.842  14.034
 8572TIP3    H147207   2.129   3.906  13.979
 8572TIP3    H247208   2.026   3.896  14.089
 8573TIP3   OH247209   2.648   3.802  14.464
 8573TIP3    H147210   2.715   3.857  14.421
 8573TIP3    H247211   2.666   3.812  14.557
 8574TIP3   OH247212   3.135   3.843  14.593
 8574TIP3    H147213   3.173   3.819  14.509
 8574TIP3    H247214   3.117   3.759  14.636
 8575TIP3   OH247215   3.300   3.887  14.182
 8575TIP3    H147216   3.222   3.940  14.199
 8575TIP3    H247217   3.271   3.797  14.195
 8576TIP3   OH247218   2.021   5.486  14.103
 8576TIP3    H147219   1.947   5.483  14.042
 8576TIP3    H247220   2.049   5.578  14.102
 8577TIP3   OH247221   2.248   4.011  13.873
 8577TIP3    H147222   2.302   3.957  13.814
 8577TIP3    H247223   2.310   4.045  13.937
 8578TIP3   OH247224   2.710   4.087  14.129
 8578TIP3    H147225   2.740   4.016  14.185
 8578TIP3    H247226   2.728   4.166  14.180
 8579TIP3   OH247227   2.930   5.544  13.963
 8579TIP3    H147228   3.022   5.564  13.949
 8579TIP3    H247229   2.903   5.495  13.885
 8580TIP3   OH247230   3.578   5.517  14.253
 8580TIP3    H147231   3.564   5.430  14.215
 8580TIP3    H247232   3.569   5.577  14.179
 8581TIP3   OH247233   2.155   3.903  15.410
 8581TIP3    H147234   2.089   3.844  15.447
 8581TIP3    H247235   2.236   3.878  15.455
 8582TIP3   OH247236   2.367   3.783  15.552
 8582TIP3    H147237   2.451   3.794  15.508
 8582TIP3    H247238   2.387   3.732  15.631
 8583TIP3   OH247239   2.232   5.517  13.813
 8583TIP3    H147240   2.204   5.505  13.904
 8583TIP3    H247241   2.307   5.458  13.804
 8584TIP3   OH247242   3.212   3.794  15.580
 8584TIP3    H147243   3.210   3.746  15.663
 8584TIP3    H247244   3.304   3.790  15.553
 8585TIP3   OH247245   3.473   5.396  15.452
 8585TIP3    H147246   3.414   5.393  15.376
 8585TIP3    H247247   3.478   5.488  15.475
 8586TIP3   OH247248   4.969   4.806  14.417
 8586TIP3    H147249   4.957   4.900  14.406
 8586TIP3    H247250   4.899   4.766  14.365
 8587TIP3   OH247251   4.842   4.714  14.825
 8587TIP3    H147252   4.872   4.672  14.906
 8587TIP3    H247253   4.793   4.646  14.779
 8588TIP3   OH247254   4.057   4.636  14.946
 8588TIP3    H147255   4.070   4.567  15.011
 8588TIP3    H247256   4.145   4.660  14.918
 8589TIP3   OH247257   5.229   5.027  14.651
 8589TIP3    H147258   5.193   4.949  14.695
 8589TIP3    H247259   5.247   5.088  14.722
 8590TIP3   OH247260   4.210   5.115  14.726
 8590TIP3    H147261   4.174   5.027  14.713
 8590TIP3    H247262   4.301   5.100  14.751
 8591TIP3   OH247263   3.851   4.459  14.274
 8591TIP3    H147264   3.824   4.543  14.312
 8591TIP3    H247265   3.780   4.436  14.214
 8592TIP3   OH247266   3.906   4.699  14.591
 8592TIP3    H147267   3.937   4.610  14.607
 8592TIP3    H247268   3.984   4.753  14.602
 8593TIP3   OH247269   4.968   5.483  14.700
 8593TIP3    H147270   4.996   5.435  14.622
 8593TIP3    H247271   4.955   5.415  14.767
 8594TIP3   OH247272   4.694   4.962  14.833
 8594TIP3    H147273   4.734   4.880  14.804
 8594TIP3    H247274   4.758   5.000  14.894
 8595TIP3   OH247275   5.575   4.105  14.937
 8595TIP3    H147276   5.589   4.171  15.005
 8595TIP3    H247277   5.617   4.141  14.859
 8596TIP3   OH247278   4.995   4.387  14.838
 8596TIP3    H147279   5.004   4.293  14.853
 8596TIP3    H247280   4.981   4.395  14.744
 8597TIP3   OH247281   4.343   4.174  14.553
 8597TIP3    H147282   4.346   4.261  14.513
 8597TIP3    H247283   4.293   4.121  14.492
 8598TIP3   OH247284   5.124   4.223  14.416
 8598TIP3    H147285   5.163   4.191  14.497
 8598TIP3    H247286   5.196   4.262  14.368
 8599TIP3   OH247287   3.986   4.438  14.645
 8599TIP3    H147288   4.052   4.397  14.700
 8599TIP3    H247289   4.001   4.400  14.558
 8600TIP3   OH247290   4.455   4.590  14.627
 8600TIP3    H147291   4.541   4.556  14.651
 8600TIP3    H247292   4.417   4.522  14.571
 8601TIP3   OH247293   5.617   4.281  15.147
 8601TIP3    H147294   5.533   4.327  15.134
 8601TIP3    H247295   5.636   4.292  15.240
 8602TIP3   OH247296   4.210   4.110  14.986
 8602TIP3    H147297   4.187   4.167  14.913
 8602TIP3    H247298   4.137   4.120  15.048
 8603TIP3   OH247299   4.934   5.061  14.315
 8603TIP3    H147300   4.914   5.053  14.222
 8603TIP3    H247301   4.886   5.139  14.344
 8604TIP3   OH247302   4.462   4.885  14.966
 8604TIP3    H147303   4.415   4.959  15.005
 8604TIP3    H247304   4.536   4.925  14.921
 8605TIP3   OH247305   5.217   4.172  14.667
 8605TIP3    H147306   5.148   4.145  14.728
 8605TIP3    H247307   5.272   4.230  14.719
 8606TIP3   OH247308   4.184   4.273  14.763
 8606TIP3    H147309   4.243   4.330  14.813
 8606TIP3    H247310   4.240   4.233  14.696
 8607TIP3   OH247311   4.318   5.092  15.083
 8607TIP3    H147312   4.327   5.187  15.076
 8607TIP3    H247313   4.227   5.078  15.108
 8608TIP3   OH247314   3.883   5.069  14.162
 8608TIP3    H147315   3.882   5.109  14.075
 8608TIP3    H247316   3.906   5.141  14.221
 8609TIP3   OH247317   5.252   5.233  14.848
 8609TIP3    H147318   5.157   5.238  14.858
 8609TIP3    H247319   5.279   5.322  14.825
 8610TIP3   OH247320   5.324   3.995  15.009
 8610TIP3    H147321   5.259   4.043  14.957
 8610TIP3    H247322   5.408   4.025  14.975
 8611TIP3   OH247323   4.563   3.794  14.751
 8611TIP3    H147324   4.537   3.702  14.751
 8611TIP3    H247325   4.483   3.841  14.776
 8612TIP3   OH247326   5.077   5.388  14.462
 8612TIP3    H147327   5.121   5.304  14.448
 8612TIP3    H247328   5.148   5.452  14.464
 8613TIP3   OH247329   5.187   5.146  14.407
 8613TIP3    H147330   5.111   5.099  14.372
 8613TIP3    H247331   5.212   5.098  14.485
 8614TIP3   OH247332   5.365   5.016  15.192
 8614TIP3    H147333   5.358   4.957  15.116
 8614TIP3    H247334   5.381   5.102  15.154
 8615TIP3   OH247335   4.817   4.709  14.203
 8615TIP3    H147336   4.747   4.770  14.176
 8615TIP3    H247337   4.884   4.717  14.135
 8616TIP3   OH247338   4.850   4.605  13.850
 8616TIP3    H147339   4.905   4.626  13.926
 8616TIP3    H247340   4.898   4.537  13.803
 8617TIP3   OH247341   5.530   4.671  15.038
 8617TIP3    H147342   5.458   4.733  15.027
 8617TIP3    H247343   5.592   4.692  14.967
 8618TIP3   OH247344   5.188   4.735  14.270
 8618TIP3    H147345   5.120   4.760  14.332
 8618TIP3    H247346   5.253   4.689  14.322
 8619TIP3   OH247347   5.144   4.537  15.232
 8619TIP3    H147348   5.141   4.608  15.296
 8619TIP3    H247349   5.080   4.562  15.166
 8620TIP3   OH247350   4.336   4.787  14.462
 8620TIP3    H147351   4.312   4.745  14.380
 8620TIP3    H247352   4.386   4.719  14.509
 8621TIP3   OH247353   4.494   5.136  14.731
 8621TIP3    H147354   4.498   5.144  14.636
 8621TIP3    H247355   4.568   5.080  14.754
 8622TIP3   OH247356   4.313   4.691  14.842
 8622TIP3    H147357   4.368   4.663  14.768
 8622TIP3    H247358   4.366   4.757  14.887
 8623TIP3   OH247359   4.983   5.254  14.903
 8623TIP3    H147360   4.975   5.321  14.971
 8623TIP3    H247361   4.948   5.175  14.942
 8624TIP3   OH247362   4.472   5.113  15.316
 8624TIP3    H147363   4.408   5.169  15.360
 8624TIP3    H247364   4.429   5.086  15.235
 8625TIP3   OH247365   5.049   4.668  14.041
 8625TIP3    H147366   5.101   4.702  14.113
 8625TIP3    H247367   5.104   4.681  13.963
 8626TIP3   OH247368   4.148   4.707  15.279
 8626TIP3    H147369   4.154   4.794  15.319
 8626TIP3    H247370   4.060   4.704  15.241
 8627TIP3   OH247371   4.828   5.310  14.374
 8627TIP3    H147372   4.908   5.342  14.415
 8627TIP3    H247373   4.793   5.387  14.327
 8628TIP3   OH247374   4.265   5.287  15.384
 8628TIP3    H147375   4.269   5.321  15.294
 8628TIP3    H247376   4.172   5.288  15.405
 8629TIP3   OH247377   5.409   3.810  14.034
 8629TIP3    H147378   5.325   3.833  14.073
 8629TIP3    H247379   5.442   3.893  13.999
 8630TIP3   OH247380   4.250   4.695  14.209
 8630TIP3    H147381   4.185   4.757  14.177
 8630TIP3    H247382   4.211   4.609  14.195
 8631TIP3   OH247383   5.553   5.261  13.902
 8631TIP3    H147384   5.570   5.356  13.902
 8631TIP3    H247385   5.639   5.221  13.903
 8632TIP3   OH247386   3.837   4.953  15.133
 8632TIP3    H147387   3.785   4.956  15.053
 8632TIP3    H247388   3.854   4.860  15.148
 8633TIP3   OH247389   3.807   5.238  14.827
 8633TIP3    H147390   3.887   5.242  14.879
 8633TIP3    H247391   3.757   5.315  14.854
 8634TIP3   OH247392   5.621   5.286  15.408
 8634TIP3    H147393   5.605   5.191  15.403
 8634TIP3    H247394   5.540   5.321  15.445
 8635TIP3   OH247395   4.709   5.246  15.265
 8635TIP3    H147396   4.703   5.328  15.314
 8635TIP3    H247397   4.627   5.201  15.285
 8636TIP3   OH247398   4.796   5.566  14.239
 8636TIP3    H147399   4.771   5.569  14.147
 8636TIP3    H247400   4.759   5.646  14.277
 8637TIP3   OH247401   4.134   5.472  14.434
 8637TIP3    H147402   4.154   5.438  14.522
 8637TIP3    H247403   4.079   5.404  14.395
 8638TIP3   OH247404   5.085   5.546  13.923
 8638TIP3    H147405   5.133   5.472  13.885
 8638TIP3    H247406   5.095   5.535  14.017
 8639TIP3   OH247407   5.065   5.526  14.199
 8639TIP3    H147408   4.972   5.532  14.218
 8639TIP3    H247409   5.099   5.464  14.263
 8640TIP3   OH247410   5.323   4.405  15.424
 8640TIP3    H147411   5.257   4.432  15.361
 8640TIP3    H247412   5.324   4.309  15.419
 8641TIP3   OH247413   4.061   5.106  15.188
 8641TIP3    H147414   4.087   5.070  15.273
 8641TIP3    H247415   3.982   5.057  15.165
 8642TIP3   OH247416   4.315   3.904  14.830
 8642TIP3    H147417   4.239   3.893  14.772
 8642TIP3    H247418   4.292   3.979  14.885
 8643TIP3   OH247419   4.792   3.884  15.179
 8643TIP3    H147420   4.838   3.839  15.250
 8643TIP3    H247421   4.700   3.879  15.204
 8644TIP3   OH247422   5.092   4.264  15.250
 8644TIP3    H147423   5.021   4.249  15.313
 8644TIP3    H247424   5.094   4.360  15.239
 8645TIP3   OH247425   5.192   4.675  13.805
 8645TIP3    H147426   5.170   4.705  13.717
 8645TIP3    H247427   5.280   4.709  13.821
 8646TIP3   OH247428   4.743   4.124  13.898
 8646TIP3    H147429   4.690   4.118  13.977
 8646TIP3    H247430   4.708   4.057  13.839
 8647TIP3   OH247431   4.328   4.431  14.942
 8647TIP3    H147432   4.264   4.426  15.013
 8647TIP3    H247433   4.328   4.523  14.915
 8648TIP3   OH247434   4.318   4.427  14.447
 8648TIP3    H147435   4.224   4.410  14.439
 8648TIP3    H247436   4.351   4.421  14.358
 8649TIP3   OH247437   4.867   4.464  14.316
 8649TIP3    H147438   4.843   4.551  14.283
 8649TIP3    H247439   4.936   4.435  14.256
 8650TIP3   OH247440   4.789   4.473  15.428
 8650TIP3    H147441   4.734   4.404  15.465
 8650TIP3    H247442   4.873   4.463  15.472
 8651TIP3   OH247443   4.967   4.401  14.567
 8651TIP3    H147444   4.923   4.446  14.495
 8651TIP3    H247445   5.013   4.328  14.525
 8652TIP3   OH247446   4.119   4.425  15.122
 8652TIP3    H147447   4.139   4.459  15.209
 8652TIP3    H247448   4.076   4.341  15.138
 8653TIP3   OH247449   4.430   4.166  13.797
 8653TIP3    H147450   4.402   4.153  13.887
 8653TIP3    H247451   4.374   4.236  13.764
 8654TIP3   OH247452   3.761   4.138  14.531
 8654TIP3    H147453   3.829   4.142  14.599
 8654TIP3    H247454   3.808   4.116  14.451
 8655TIP3   OH247455   3.825   4.205  14.040
 8655TIP3    H147456   3.910   4.208  13.995
 8655TIP3    H247457   3.797   4.296  14.044
 8656TIP3   OH247458   4.933   4.555  15.042
 8656TIP3    H147459   4.965   4.499  14.971
 8656TIP3    H247460   4.866   4.502  15.086
 8657TIP3   OH247461   4.631   4.146  14.526
 8657TIP3    H147462   4.540   4.144  14.555
 8657TIP3    H247463   4.681   4.109  14.599
 8658TIP3   OH247464   4.063   4.329  14.403
 8658TIP3    H147465   3.992   4.359  14.347
 8658TIP3    H247466   4.082   4.241  14.372
 8659TIP3   OH247467   4.398   4.384  14.190
 8659TIP3    H147468   4.491   4.368  14.205
 8659TIP3    H247469   4.393   4.417  14.101
 8660TIP3   OH247470   5.006   4.109  14.839
 8660TIP3    H147471   4.972   4.108  14.928
 8660TIP3    H247472   4.938   4.068  14.786
 8661TIP3   OH247473   4.363   4.462  13.929
 8661TIP3    H147474   4.311   4.435  13.853
 8661TIP3    H247475   4.439   4.505  13.891
 8662TIP3   OH247476   5.365   5.665  15.505
 8662TIP3    H147477   5.394   5.693  15.418
 8662TIP3    H247478   5.439   5.685  15.562
 8663TIP3   OH247479   4.126   4.949  15.423
 8663TIP3    H147480   4.191   4.943  15.492
 8663TIP3    H247481   4.042   4.951  15.469
 8664TIP3   OH247482   4.697   4.481  14.724
 8664TIP3    H147483   4.767   4.431  14.683
 8664TIP3    H247484   4.667   4.426  14.796
 8665TIP3   OH247485   4.165   4.064  14.350
 8665TIP3    H147486   4.111   3.995  14.387
 8665TIP3    H247487   4.195   4.030  14.266
 8666TIP3   OH247488   4.592   4.340  14.943
 8666TIP3    H147489   4.507   4.383  14.954
 8666TIP3    H247490   4.642   4.366  15.021
 8667TIP3   OH247491   4.622   4.892  14.126
 8667TIP3    H147492   4.550   4.861  14.070
 8667TIP3    H247493   4.578   4.926  14.204
 8668TIP3   OH247494   5.346   4.863  14.963
 8668TIP3    H147495   5.408   4.916  14.913
 8668TIP3    H247496   5.276   4.843  14.901
 8669TIP3   OH247497   4.996   4.170  13.994
 8669TIP3    H147498   4.906   4.168  13.962
 8669TIP3    H247499   5.007   4.258  14.029
 8670TIP3   OH247500   4.790   4.944  15.272
 8670TIP3    H147501   4.819   4.896  15.349
 8670TIP3    H247502   4.760   5.029  15.307
 8671TIP3   OH247503   5.069   4.402  14.132
 8671TIP3    H147504   5.156   4.384  14.168
 8671TIP3    H247505   5.075   4.491  14.098
 8672TIP3   OH247506   4.149   4.838  14.661
 8672TIP3    H147507   4.208   4.831  14.586
 8672TIP3    H247508   4.191   4.787  14.730
 8673TIP3   OH247509   4.832   5.047  14.052
 8673TIP3    H147510   4.798   5.136  14.057
 8673TIP3    H247511   4.758   4.992  14.076
 8674TIP3   OH247512   3.869   4.695  15.230
 8674TIP3    H147513   3.866   4.664  15.321
 8674TIP3    H247514   3.794   4.654  15.188
 8675TIP3   OH247515   4.579   4.661  15.436
 8675TIP3    H147516   4.517   4.620  15.375
 8675TIP3    H247517   4.661   4.613  15.422
 8676TIP3   OH247518   4.990   5.227  15.260
 8676TIP3    H147519   4.896   5.230  15.241
 8676TIP3    H247520   4.995   5.242  15.355
 8677TIP3   OH247521   5.522   4.438  14.074
 8677TIP3    H147522   5.479   4.417  13.991
 8677TIP3    H247523   5.548   4.529  14.065
 8678TIP3   OH247524   5.577   5.003  15.360
 8678TIP3    H147525   5.491   5.017  15.319
 8678TIP3    H247526   5.637   4.992  15.287
 8679TIP3   OH247527   5.402   5.293  14.143
 8679TIP3    H147528   5.358   5.215  14.178
 8679TIP3    H247529   5.443   5.264  14.062
 8680TIP3   OH247530   5.136   4.792  14.782
 8680TIP3    H147531   5.041   4.782  14.784
 8680TIP3    H247532   5.168   4.714  14.737
 8681TIP3   OH247533   4.414   5.218  14.472
 8681TIP3    H147534   4.430   5.303  14.431
 8681TIP3    H247535   4.323   5.223  14.503
 8682TIP3   OH247536   3.969   4.672  13.929
 8682TIP3    H147537   4.020   4.736  13.980
 8682TIP3    H247538   3.879   4.684  13.959
 8683TIP3   OH247539   4.473   4.992  14.328
 8683TIP3    H147540   4.464   5.072  14.379
 8683TIP3    H247541   4.427   4.926  14.379
 8684TIP3   OH247542   4.605   5.386  15.041
 8684TIP3    H147543   4.663   5.459  15.021
 8684TIP3    H247544   4.655   5.330  15.100
 8685TIP3   OH247545   4.398   5.474  14.357
 8685TIP3    H147546   4.305   5.486  14.374
 8685TIP3    H247547   4.439   5.553  14.392
 8686TIP3   OH247548   4.895   5.010  15.022
 8686TIP3    H147549   4.856   4.990  15.107
 8686TIP3    H247550   4.968   4.949  15.014
 8687TIP3   OH247551   5.187   5.101  13.922
 8687TIP3    H147552   5.213   5.049  13.999
 8687TIP3    H247553   5.100   5.068  13.899
 8688TIP3   OH247554   5.196   5.415  15.232
 8688TIP3    H147555   5.118   5.360  15.224
 8688TIP3    H247556   5.182   5.486  15.169
 8689TIP3   OH247557   5.601   5.534  13.931
 8689TIP3    H147558   5.668   5.603  13.926
 8689TIP3    H247559   5.522   5.580  13.958
 8690TIP3   OH247560   3.995   4.170  15.155
 8690TIP3    H147561   3.906   4.200  15.140
 8690TIP3    H247562   3.986   4.094  15.212
 8691TIP3   OH247563   5.295   4.947  14.122
 8691TIP3    H147564   5.251   4.884  14.179
 8691TIP3    H247565   5.388   4.935  14.141
 8692TIP3   OH247566   3.998   5.354  15.032
 8692TIP3    H147567   4.024   5.277  15.083
 8692TIP3    H247568   4.010   5.428  15.092
 8693TIP3   OH247569   4.555   5.184  13.781
 8693TIP3    H147570   4.560   5.099  13.737
 8693TIP3    H247571   4.518   5.164  13.867
 8694TIP3   OH247572   4.428   5.163  14.031
 8694TIP3    H147573   4.456   5.115  14.109
 8694TIP3    H247574   4.440   5.255  14.053
 8695TIP3   OH247575   4.074   4.875  14.089
 8695TIP3    H147576   4.006   4.926  14.133
 8695TIP3    H247577   4.123   4.939  14.038
 8696TIP3   OH247578   4.904   4.120  15.090
 8696TIP3    H147579   4.967   4.148  15.157
 8696TIP3    H247580   4.864   4.042  15.127
 8697TIP3   OH247581   4.979   4.056  14.249
 8697TIP3    H147582   4.984   4.096  14.162
 8697TIP3    H247583   5.022   4.118  14.307
 8698TIP3   OH247584   4.728   5.297  14.061
 8698TIP3    H147585   4.642   5.330  14.085
 8698TIP3    H247586   4.776   5.374  14.031
 8699TIP3   OH247587   4.645   4.302  14.298
 8699TIP3    H147588   4.721   4.360  14.305
 8699TIP3    H247589   4.640   4.259  14.383
 8700TIP3   OH247590   4.762   4.375  15.164
 8700TIP3    H147591   4.768   4.400  15.256
 8700TIP3    H247592   4.797   4.285  15.161
 8701TIP3   OH247593   4.740   3.956  14.347
 8701TIP3    H147594   4.713   4.025  14.408
 8701TIP3    H247595   4.826   3.983  14.316
 8702TIP3   OH247596   4.487   5.423  14.103
 8702TIP3    H147597   4.493   5.509  14.061
 8702TIP3    H247598   4.455   5.441  14.191
 8703TIP3   OH247599   4.342   4.144  14.057
 8703TIP3    H147600   4.341   4.221  14.114
 8703TIP3    H247601   4.420   4.096  14.084
 8704TIP3   OH247602   5.336   4.140  15.256
 8704TIP3    H147603   5.248   4.178  15.258
 8704TIP3    H247604   5.338   4.087  15.177
 8705TIP3   OH247605   5.210   4.542  14.662
 8705TIP3    H147606   5.125   4.500  14.644
 8705TIP3    H247607   5.253   4.481  14.723
 8706TIP3   OH247608   4.184   5.076  13.930
 8706TIP3    H147609   4.259   5.121  13.970
 8706TIP3    H247610   4.222   5.024  13.859
 8707TIP3   OH247611   3.897   4.418  13.847
 8707TIP3    H147612   3.946   4.494  13.881
 8707TIP3    H247613   3.805   4.446  13.849
 8708TIP3   OH247614   5.339   5.499  14.834
 8708TIP3    H147615   5.325   5.572  14.774
 8708TIP3    H247616   5.432   5.502  14.855
 8709TIP3   OH247617   4.062   3.879  14.714
 8709TIP3    H147618   4.051   3.871  14.620
 8709TIP3    H247619   4.029   3.796  14.749
 8710TIP3   OH247620   3.937   5.305  14.313
 8710TIP3    H147621   3.883   5.335  14.386
 8710TIP3    H247622   3.922   5.370  14.243
 8711TIP3   OH247623   3.939   5.582  15.532
 8711TIP3    H147624   3.998   5.575  15.608
 8711TIP3    H247625   3.934   5.493  15.498
 8712TIP3   OH247626   4.348   5.393  15.627
 8712TIP3    H147627   4.421   5.335  15.651
 8712TIP3    H247628   4.318   5.359  15.542
 8713TIP3   OH247629   4.757   5.370  13.751
 8713TIP3    H147630   4.691   5.303  13.769
 8713TIP3    H247631   4.834   5.320  13.722
 8714TIP3   OH247632   4.996   5.263  15.531
 8714TIP3    H147633   4.976   5.177  15.568
 8714TIP3    H247634   5.071   5.294  15.582
 8715TIP3   OH247635   5.212   5.341  13.794
 8715TIP3    H147636   5.218   5.262  13.848
 8715TIP3    H247637   5.290   5.338  13.739
 8716TIP3   OH247638   3.880   4.926  15.550
 8716TIP3    H147639   3.888   4.831  15.540
 8716TIP3    H247640   3.805   4.949  15.495
 8717TIP3   OH247641   4.314   4.905  13.761
 8717TIP3    H147642   4.337   4.857  13.840
 8717TIP3    H247643   4.398   4.919  13.716
 8718TIP3   OH247644   4.535   4.931  15.517
 8718TIP3    H147645   4.524   4.980  15.435
 8718TIP3    H247646   4.565   4.844  15.490
 8719TIP3   OH247647   4.941   5.034  13.801
 8719TIP3    H147648   4.893   5.030  13.884
 8719TIP3    H247649   4.912   4.956  13.754
 8720TIP3   OH247650   5.112   4.971  15.289
 8720TIP3    H147651   5.201   4.990  15.261
 8720TIP3    H247652   5.063   5.052  15.274
 8721TIP3   OH247653   3.959   4.661  15.502
 8721TIP3    H147654   4.046   4.649  15.465
 8721TIP3    H247655   3.971   4.649  15.596
 8722TIP3   OH247656   4.409   4.779  13.989
 8722TIP3    H147657   4.364   4.737  14.062
 8722TIP3    H247658   4.459   4.708  13.948
 8723TIP3   OH247659   4.377   4.549  15.259
 8723TIP3    H147660   4.303   4.610  15.265
 8723TIP3    H247661   4.435   4.588  15.195
 8724TIP3   OH247662   4.573   4.611  13.837
 8724TIP3    H147663   4.569   4.637  13.745
 8724TIP3    H247664   4.666   4.604  13.856
 8725TIP3   OH247665   4.880   4.792  15.522
 8725TIP3    H147666   4.965   4.757  15.494
 8725TIP3    H247667   4.847   4.727  15.584
 8726TIP3   OH247668   5.445   4.787  13.789
 8726TIP3    H147669   5.452   4.769  13.696
 8726TIP3    H247670   5.441   4.883  13.795
 8727TIP3   OH247671   4.414   4.289  15.340
 8727TIP3    H147672   4.430   4.233  15.264
 8727TIP3    H247673   4.406   4.377  15.302
 8728TIP3   OH247674   4.457   4.138  15.104
 8728TIP3    H147675   4.513   4.184  15.040
 8728TIP3    H247676   4.372   4.131  15.061
 8729TIP3   OH247677   4.564   4.669  15.105
 8729TIP3    H147678   4.655   4.689  15.126
 8729TIP3    H247679   4.532   4.747  15.058
 8730TIP3   OH247680   5.011   4.424  15.598
 8730TIP3    H147681   5.012   4.347  15.656
 8730TIP3    H247682   5.101   4.455  15.598
 8731TIP3   OH247683   5.156   4.742  15.430
 8731TIP3    H147684   5.130   4.823  15.385
 8731TIP3    H247685   5.251   4.743  15.429
 8732TIP3   OH247686   4.246   4.343  15.557
 8732TIP3    H147687   4.169   4.288  15.539
 8732TIP3    H247688   4.301   4.334  15.480
 8733TIP3   OH247689   4.511   3.876  15.186
 8733TIP3    H147690   4.494   3.967  15.161
 8733TIP3    H247691   4.443   3.825  15.142
 8734TIP3   OH247692   4.632   4.264  15.510
 8734TIP3    H147693   4.598   4.239  15.596
 8734TIP3    H247694   4.556   4.265  15.452
 8735TIP3   OH247695   4.873   4.184  15.390
 8735TIP3    H147696   4.791   4.196  15.439
 8735TIP3    H247697   4.929   4.135  15.450
 8736TIP3   OH247698   5.049   4.063  15.558
 8736TIP3    H147699   5.061   3.970  15.578
 8736TIP3    H247700   5.043   4.106  15.643
 8737TIP3   OH247701   4.041   4.156  15.518
 8737TIP3    H147702   4.045   4.084  15.455
 8737TIP3    H247703   4.052   4.115  15.603
 8738TIP3   OH247704   4.512   3.796  15.448
 8738TIP3    H147705   4.567   3.718  15.441
 8738TIP3    H247706   4.507   3.829  15.358
 8739TIP3   OH247707   4.576   3.955  15.668
 8739TIP3    H147708   4.561   3.904  15.588
 8739TIP3    H247709   4.520   4.032  15.657
 8740TIP3   OH247710   4.569   5.668  13.991
 8740TIP3    H147711   4.654   5.628  13.973
 8740TIP3    H247712   4.555   5.729  13.920
 8741TIP3   OH247713   3.924   5.138  13.874
 8741TIP3    H147714   4.016   5.125  13.899
 8741TIP3    H247715   3.905   5.066  13.813
 8742TIP3   OH247716   3.771   5.614  14.427
 8742TIP3    H147717   3.713   5.581  14.358
 8742TIP3    H247718   3.790   5.537  14.481
 8743TIP3   OH247719   3.847   5.396  14.581
 8743TIP3    H147720   3.816   5.318  14.628
 8743TIP3    H247721   3.896   5.445  14.647
 8744TIP3   OH247722   5.598   5.535  14.912
 8744TIP3    H147723   5.610   5.513  15.004
 8744TIP3    H247724   5.687   5.539  14.876
 8745TIP3   OH247725   5.564   5.459  15.186
 8745TIP3    H147726   5.508   5.393  15.145
 8745TIP3    H247727   5.603   5.415  15.261
 8746TIP3   OH247728   5.401   5.036  15.764
 8746TIP3    H147729   5.312   5.062  15.787
 8746TIP3    H247730   5.446   5.119  15.748
 8747TIP3   OH247731   5.559   4.884  14.192
 8747TIP3    H147732   5.630   4.948  14.195
 8747TIP3    H247733   5.577   4.825  14.265
 8748TIP3   OH247734   5.610   4.684  14.380
 8748TIP3    H147735   5.525   4.654  14.411
 8748TIP3    H247736   5.661   4.700  14.460
 8749TIP3   OH247737   5.589   4.990  14.890
 8749TIP3    H147738   5.635   4.914  14.856
 8749TIP3    H247739   5.635   5.065  14.854
 8750TIP3   OH247740   5.386   5.269  15.090
 8750TIP3    H147741   5.315   5.314  15.137
 8750TIP3    H247742   5.351   5.253  15.003
 8751TIP3   OH247743   5.595   4.692  13.999
 8751TIP3    H147744   5.544   4.721  13.924
 8751TIP3    H247745   5.582   4.760  14.065
 8752TIP3   OH247746   5.427   4.389  13.822
 8752TIP3    H147747   5.414   4.452  13.751
 8752TIP3    H247748   5.406   4.304  13.783
 8753TIP3   OH247749   5.354   4.573  14.427
 8753TIP3    H147750   5.347   4.484  14.394
 8753TIP3    H247751   5.310   4.570  14.512
 8754TIP3   OH247752   3.831   4.753  14.852
 8754TIP3    H147753   3.841   4.735  14.758
 8754TIP3    H247754   3.912   4.720  14.891
 8755TIP3   OH247755   5.434   4.757  15.420
 8755TIP3    H147756   5.487   4.680  15.399
 8755TIP3    H247757   5.485   4.830  15.386
 8756TIP3   OH247758   5.568   4.520  15.379
 8756TIP3    H147759   5.483   4.479  15.393
 8756TIP3    H247760   5.632   4.453  15.406
 8757TIP3   OH247761   5.359   4.140  13.713
 8757TIP3    H147762   5.396   4.097  13.790
 8757TIP3    H247763   5.265   4.122  13.718
 8758TIP3   OH247764   5.330   4.329  14.253
 8758TIP3    H147765   5.359   4.238  14.256
 8758TIP3    H247766   5.395   4.373  14.198
 8759TIP3   OH247767   5.359   4.358  14.819
 8759TIP3    H147768   5.452   4.367  14.798
 8759TIP3    H247769   5.354   4.377  14.913
 8760TIP3   OH247770   5.385   4.441  15.086
 8760TIP3    H147771   5.308   4.469  15.134
 8760TIP3    H247772   5.438   4.520  15.076
 8761TIP3   OH247773   3.820   4.282  15.406
 8761TIP3    H147774   3.904   4.260  15.446
 8761TIP3    H247775   3.767   4.204  15.416
 8762TIP3   OH247776   5.605   3.825  15.584
 8762TIP3    H147777   5.687   3.777  15.566
 8762TIP3    H247778   5.616   3.908  15.538
 8763TIP3   OH247779   5.398   4.058  14.268
 8763TIP3    H147780   5.417   4.020  14.354
 8763TIP3    H247781   5.330   4.001  14.231
 8764TIP3   OH247782   3.938   4.124  14.747
 8764TIP3    H147783   3.976   4.036  14.744
 8764TIP3    H247784   4.014   4.182  14.754
 8765TIP3   OH247785   3.750   4.415  14.803
 8765TIP3    H147786   3.818   4.411  14.736
 8765TIP3    H247787   3.790   4.461  14.876
 8766TIP3   OH247788   5.554   4.058  15.427
 8766TIP3    H147789   5.494   4.087  15.495
 8766TIP3    H247790   5.500   4.045  15.350
 8767TIP3   OH247791   5.518   4.032  13.912
 8767TIP3    H147792   5.571   3.978  13.854
 8767TIP3    H247793   5.579   4.097  13.947
 8768TIP3   OH247794   3.781   4.048  14.259
 8768TIP3    H147795   3.685   4.053  14.259
 8768TIP3    H247796   3.807   4.105  14.187
 8769TIP3   OH247797   5.259   5.589  14.443
 8769TIP3    H147798   5.331   5.574  14.381
 8769TIP3    H247799   5.302   5.623  14.521
 8770TIP3   OH247800   3.809   3.885  15.068
 8770TIP3    H147801   3.740   3.878  15.134
 8770TIP3    H247802   3.778   3.953  15.008
 8771TIP3   OH247803   3.999   5.297  15.480
 8771TIP3    H147804   3.907   5.284  15.455
 8771TIP3    H247805   4.007   5.256  15.566
 8772TIP3   OH247806   4.342   5.367  15.120
 8772TIP3    H147807   4.313   5.455  15.099
 8772TIP3    H247808   4.436   5.367  15.101
 8773TIP3   OH247809   4.712   5.486  15.406
 8773TIP3    H147810   4.722   5.451  15.494
 8773TIP3    H247811   4.793   5.534  15.389
 8774TIP3   OH247812   4.949   5.622  15.367
 8774TIP3    H147813   5.015   5.565  15.327
 8774TIP3    H247814   4.991   5.655  15.446
 8775TIP3   OH247815   5.458   3.835  15.227
 8775TIP3    H147816   5.390   3.854  15.161
 8775TIP3    H247817   5.479   3.743  15.214
 8776TIP3   OH247818   4.033   5.643  15.134
 8776TIP3    H147819   3.954   5.682  15.096
 8776TIP3    H247820   4.043   5.688  15.219
 8777TIP3   OH247821   4.296   5.631  15.055
 8777TIP3    H147822   4.204   5.638  15.080
 8777TIP3    H247823   4.302   5.674  14.970
 8778TIP3   OH247824   4.744   5.612  14.958
 8778TIP3    H147825   4.688   5.649  14.889
 8778TIP3    H247826   4.751   5.682  15.023
 8779TIP3   OH247827   4.974   5.489  15.047
 8779TIP3    H147828   4.896   5.531  15.012
 8779TIP3    H247829   5.044   5.553  15.034
 8780TIP3   OH247830   5.214   5.632  15.042
 8780TIP3    H147831   5.242   5.722  15.028
 8780TIP3    H247832   5.257   5.582  14.972
 8781TIP3   OH247833   4.001   5.504  14.796
 8781TIP3    H147834   3.994   5.459  14.880
 8781TIP3    H247835   4.080   5.467  14.756
 8782TIP3   OH247836   4.218   5.382  14.683
 8782TIP3    H147837   4.205   5.290  14.704
 8782TIP3    H247838   4.303   5.404  14.721
 8783TIP3   OH247839   4.476   5.409  14.795
 8783TIP3    H147840   4.488   5.319  14.763
 8783TIP3    H247841   4.511   5.408  14.884
 8784TIP3   OH247842   4.792   3.983  14.689
 8784TIP3    H147843   4.732   3.912  14.714
 8784TIP3    H247844   4.866   3.938  14.649
 8785TIP3   OH247845   5.297   3.835  14.677
 8785TIP3    H147846   5.357   3.893  14.630
 8785TIP3    H247847   5.210   3.875  14.665
 8786TIP3   OH247848   5.483   3.937  14.501
 8786TIP3    H147849   5.546   3.867  14.482
 8786TIP3    H247850   5.538   4.013  14.518
 8787TIP3   OH247851   4.018   3.848  14.446
 8787TIP3    H147852   3.928   3.829  14.421
 8787TIP3    H247853   4.067   3.770  14.420
 8788TIP3   OH247854   3.837   3.872  14.043
 8788TIP3    H147855   3.930   3.848  14.045
 8788TIP3    H247856   3.821   3.914  14.128
 8789TIP3   OH247857   4.536   3.799  14.465
 8789TIP3    H147858   4.604   3.852  14.424
 8789TIP3    H247859   4.553   3.805  14.559
 8790TIP3   OH247860   5.017   3.854  14.591
 8790TIP3    H147861   5.047   3.833  14.502
 8790TIP3    H247862   5.001   3.769  14.631
 8791TIP3   OH247863   5.192   3.887  14.186
 8791TIP3    H147864   5.115   3.942  14.203
 8791TIP3    H247865   5.160   3.797  14.199
 8792TIP3   OH247866   3.904   5.487  14.107
 8792TIP3    H147867   3.835   5.488  14.040
 8792TIP3    H247868   3.936   5.577  14.109
 8793TIP3   OH247869   4.116   4.062  13.924
 8793TIP3    H147870   4.105   3.973  13.957
 8793TIP3    H247871   4.192   4.096  13.971
 8794TIP3   OH247872   4.603   4.088  14.132
 8794TIP3    H147873   4.630   4.013  14.186
 8794TIP3    H247874   4.620   4.164  14.188
 8795TIP3   OH247875   4.811   5.545  13.951
 8795TIP3    H147876   4.905   5.560  13.941
 8795TIP3    H247877   4.786   5.493  13.875
 8796TIP3   OH247878   5.457   5.539  14.252
 8796TIP3    H147879   5.441   5.449  14.221
 8796TIP3    H247880   5.449   5.593  14.173
 8797TIP3   OH247881   4.050   3.907  15.381
 8797TIP3    H147882   3.992   3.844  15.424
 8797TIP3    H247883   4.135   3.893  15.422
 8798TIP3   OH247884   4.255   3.834  15.550
 8798TIP3    H147885   4.344   3.817  15.521
 8798TIP3    H247886   4.231   3.758  15.603
 8799TIP3   OH247887   4.112   5.506  13.808
 8799TIP3    H147888   4.087   5.496  13.900
 8799TIP3    H247889   4.189   5.450  13.798
 8800TIP3   OH247890   5.096   3.792  15.595
 8800TIP3    H147891   5.092   3.747  15.679
 8800TIP3    H247892   5.188   3.786  15.569
 8801TIP3   OH247893   5.368   5.392  15.454
 8801TIP3    H147894   5.306   5.389  15.381
 8801TIP3    H247895   5.364   5.482  15.486
 8802TIP3   OH247896   6.862   4.755  14.465
 8802TIP3    H147897   6.871   4.823  14.532
 8802TIP3    H247898   6.778   4.774  14.423
 8803TIP3   OH247899   6.741   4.713  14.812
 8803TIP3    H147900   6.758   4.670  14.896
 8803TIP3    H247901   6.681   4.653  14.766
 8804TIP3   OH247902   5.941   4.635  14.942
 8804TIP3    H147903   5.956   4.567  15.008
 8804TIP3    H247904   6.029   4.660  14.914
 8805TIP3   OH247905   7.095   5.041  14.645
 8805TIP3    H147906   7.066   4.961  14.688
 8805TIP3    H247907   7.119   5.101  14.716
 8806TIP3   OH247908   6.042   5.112  14.755
 8806TIP3    H147909   6.022   5.026  14.717
 8806TIP3    H247910   6.135   5.109  14.775
 8807TIP3   OH247911   5.736   4.456  14.273
 8807TIP3    H147912   5.709   4.538  14.314
 8807TIP3    H247913   5.663   4.433  14.215
 8808TIP3   OH247914   5.793   4.703  14.590
 8808TIP3    H147915   5.824   4.614  14.609
 8808TIP3    H247916   5.869   4.759  14.602
 8809TIP3   OH247917   6.832   5.473  14.718
 8809TIP3    H147918   6.853   5.423  14.639
 8809TIP3    H247919   6.825   5.408  14.787
 8810TIP3   OH247920   6.558   4.974  14.828
 8810TIP3    H147921   6.597   4.911  14.767
 8810TIP3    H247922   6.630   5.000  14.886
 8811TIP3   OH247923   6.898   4.378  14.835
 8811TIP3    H147924   6.898   4.283  14.845
 8811TIP3    H247925   6.874   4.392  14.743
 8812TIP3   OH247926   6.237   4.187  14.575
 8812TIP3    H147927   6.243   4.272  14.533
 8812TIP3    H247928   6.177   4.137  14.520
 8813TIP3   OH247929   6.977   4.229  14.413
 8813TIP3    H147930   7.017   4.184  14.488
 8813TIP3    H247931   7.051   4.259  14.361
 8814TIP3   OH247932   5.872   4.445  14.650
 8814TIP3    H147933   5.937   4.405  14.708
 8814TIP3    H247934   5.893   4.410  14.563
 8815TIP3   OH247935   6.342   4.593  14.634
 8815TIP3    H147936   6.431   4.564  14.654
 8815TIP3    H247937   6.308   4.527  14.574
 8816TIP3   OH247938   6.093   4.110  14.990
 8816TIP3    H147939   6.072   4.172  14.920
 8816TIP3    H247940   6.022   4.119  15.053
 8817TIP3   OH247941   6.804   5.096  14.348
 8817TIP3    H147942   6.749   5.019  14.336
 8817TIP3    H247943   6.742   5.170  14.350
 8818TIP3   OH247944   6.343   4.884  14.975
 8818TIP3    H147945   6.292   4.958  15.009
 8818TIP3    H247946   6.413   4.925  14.924
 8819TIP3   OH247947   7.079   4.122  14.645
 8819TIP3    H147948   7.009   4.110  14.710
 8819TIP3    H247949   7.150   4.164  14.693
 8820TIP3   OH247950   6.071   4.284  14.775
 8820TIP3    H147951   6.124   4.343  14.829
 8820TIP3    H247952   6.132   4.247  14.712
 8821TIP3   OH247953   6.197   5.090  15.089
 8821TIP3    H147954   6.209   5.184  15.075
 8821TIP3    H247955   6.105   5.081  15.111
 8822TIP3   OH247956   5.775   5.057  14.174
 8822TIP3    H147957   5.773   5.097  14.087
 8822TIP3    H247958   5.798   5.130  14.232
 8823TIP3   OH247959   7.132   5.234  14.853
 8823TIP3    H147960   7.038   5.238  14.866
 8823TIP3    H247961   7.159   5.324  14.835
 8824TIP3   OH247962   7.141   4.001  14.935
 8824TIP3    H147963   7.050   4.024  14.917
 8824TIP3    H247964   7.191   4.079  14.911
 8825TIP3   OH247965   6.445   3.796  14.747
 8825TIP3    H147966   6.422   3.703  14.749
 8825TIP3    H247967   6.366   3.841  14.777
 8826TIP3   OH247968   6.922   5.365  14.482
 8826TIP3    H147969   6.950   5.275  14.463
 8826TIP3    H247970   7.003   5.416  14.481
 8827TIP3   OH247971   7.072   5.148  14.392
 8827TIP3    H147972   6.989   5.111  14.362
 8827TIP3    H247973   7.091   5.102  14.473
 8828TIP3   OH247974   7.225   4.958  15.215
 8828TIP3    H147975   7.214   4.909  15.134
 8828TIP3    H247976   7.254   5.045  15.187
 8829TIP3   OH247977   6.712   4.650  14.117
 8829TIP3    H147978   6.672   4.716  14.174
 8829TIP3    H247979   6.801   4.681  14.103
 8830TIP3   OH247980   6.710   4.570  13.850
 8830TIP3    H147981   6.722   4.590  13.943
 8830TIP3    H247982   6.792   4.527  13.824
 8831TIP3   OH247983   7.072   4.766  14.281
 8831TIP3    H147984   6.997   4.773  14.340
 8831TIP3    H247985   7.129   4.702  14.324
 8832TIP3   OH247986   7.006   4.532  15.230
 8832TIP3    H147987   6.992   4.603  15.293
 8832TIP3    H247988   6.944   4.549  15.160
 8833TIP3   OH247989   6.210   4.782  14.466
 8833TIP3    H147990   6.206   4.749  14.376
 8833TIP3    H247991   6.273   4.725  14.510
 8834TIP3   OH247992   6.320   5.114  14.759
 8834TIP3    H147993   6.330   5.156  14.674
 8834TIP3    H247994   6.404   5.073  14.776
 8835TIP3   OH247995   6.196   4.694  14.844
 8835TIP3    H147996   6.250   4.667  14.770
 8835TIP3    H247997   6.247   4.761  14.889
 8836TIP3   OH247998   6.863   5.259  14.912
 8836TIP3    H147999   6.855   5.318  14.987
 8836TIP3    H248000   6.825   5.177  14.942
 8837TIP3   OH248001   6.356   5.110  15.317
 8837TIP3    H148002   6.293   5.168  15.359
 8837TIP3    H248003   6.312   5.083  15.236
 8838TIP3   OH248004   6.982   4.660  14.044
 8838TIP3    H148005   7.021   4.708  14.117
 8838TIP3    H248006   7.021   4.698  13.965
 8839TIP3   OH248007   6.023   4.694  15.280
 8839TIP3    H148008   6.034   4.782  15.315
 8839TIP3    H248009   5.935   4.694  15.241
 8840TIP3   OH248010   6.664   5.343  14.390
 8840TIP3    H148011   6.748   5.356  14.434
 8840TIP3    H248012   6.653   5.421  14.336
 8841TIP3   OH248013   6.152   5.289  15.380
 8841TIP3    H148014   6.156   5.321  15.290
 8841TIP3    H248015   6.059   5.287  15.401
 8842TIP3   OH248016   7.244   3.931  13.947
 8842TIP3    H148017   7.185   3.902  14.017
 8842TIP3    H248018   7.329   3.895  13.971
 8843TIP3   OH248019   6.132   4.688  14.201
 8843TIP3    H148020   6.079   4.759  14.165
 8843TIP3    H248021   6.069   4.623  14.231
 8844TIP3   OH248022   5.722   4.950  15.136
 8844TIP3    H148023   5.673   4.958  15.055
 8844TIP3    H248024   5.737   4.856  15.145
 8845TIP3   OH248025   5.775   5.194  14.814
 8845TIP3    H148026   5.863   5.164  14.790
 8845TIP3    H248027   5.789   5.247  14.893
 8846TIP3   OH248028   6.589   5.245  15.257
 8846TIP3    H148029   6.585   5.328  15.303
 8846TIP3    H248030   6.506   5.202  15.278
 8847TIP3   OH248031   6.681   5.587  14.243
 8847TIP3    H148032   6.659   5.588  14.150
 8847TIP3    H248033   6.646   5.669  14.277
 8848TIP3   OH248034   6.024   5.470  14.440
 8848TIP3    H148035   6.045   5.437  14.527
 8848TIP3    H248036   5.979   5.397  14.397
 8849TIP3   OH248037   6.962   5.547  13.928
 8849TIP3    H148038   6.999   5.470  13.884
 8849TIP3    H248039   6.967   5.526  14.021
 8850TIP3   OH248040   6.940   5.496  14.199
 8850TIP3    H148041   6.848   5.513  14.222
 8850TIP3    H248042   6.963   5.419  14.252
 8851TIP3   OH248043   7.170   4.449  15.452
 8851TIP3    H148044   7.131   4.479  15.370
 8851TIP3    H248045   7.250   4.403  15.425
 8852TIP3   OH248046   5.939   5.110  15.189
 8852TIP3    H148047   5.967   5.072  15.272
 8852TIP3    H248048   5.862   5.058  15.164
 8853TIP3   OH248049   6.201   3.906  14.832
 8853TIP3    H148050   6.124   3.895  14.775
 8853TIP3    H248051   6.178   3.980  14.888
 8854TIP3   OH248052   6.674   3.893  15.180
 8854TIP3    H148053   6.719   3.844  15.249
 8854TIP3    H248054   6.581   3.885  15.202
 8855TIP3   OH248055   6.997   4.247  15.249
 8855TIP3    H148056   6.932   4.233  15.317
 8855TIP3    H248057   7.002   4.342  15.239
 8856TIP3   OH248058   7.096   4.767  13.817
 8856TIP3    H148059   7.060   4.747  13.730
 8856TIP3    H248060   7.152   4.843  13.803
 8857TIP3   OH248061   6.603   4.135  13.888
 8857TIP3    H148062   6.557   4.129  13.972
 8857TIP3    H248063   6.580   4.055  13.842
 8858TIP3   OH248064   6.217   4.437  14.953
 8858TIP3    H148065   6.154   4.435  15.024
 8858TIP3    H248066   6.218   4.529  14.925
 8859TIP3   OH248067   6.216   4.427  14.448
 8859TIP3    H148068   6.122   4.417  14.438
 8859TIP3    H248069   6.250   4.426  14.358
 8860TIP3   OH248070   6.757   4.440  14.289
 8860TIP3    H148071   6.730   4.520  14.244
 8860TIP3    H248072   6.835   4.411  14.242
 8861TIP3   OH248073   6.679   4.467  15.424
 8861TIP3    H148074   6.629   4.396  15.464
 8861TIP3    H248075   6.766   4.460  15.463
 8862TIP3   OH248076   6.847   4.428  14.569
 8862TIP3    H148077   6.816   4.497  14.511
 8862TIP3    H248078   6.875   4.357  14.510
 8863TIP3   OH248079   6.003   4.431  15.126
 8863TIP3    H148080   6.002   4.477  15.210
 8863TIP3    H248081   5.961   4.347  15.145
 8864TIP3   OH248082   6.315   4.180  13.776
 8864TIP3    H148083   6.350   4.248  13.835
 8864TIP3    H248084   6.273   4.229  13.706
 8865TIP3   OH248085   5.669   4.131  14.511
 8865TIP3    H148086   5.724   4.142  14.589
 8865TIP3    H248087   5.731   4.118  14.439
 8866TIP3   OH248088   5.692   4.230  14.009
 8866TIP3    H148089   5.757   4.275  13.955
 8866TIP3    H248090   5.632   4.299  14.037
 8867TIP3   OH248091   6.810   4.549  15.030
 8867TIP3    H148092   6.846   4.490  14.963
 8867TIP3    H248093   6.742   4.497  15.072
 8868TIP3   OH248094   6.517   4.133  14.534
 8868TIP3    H148095   6.428   4.143  14.568
 8868TIP3    H248096   6.566   4.097  14.607
 8869TIP3   OH248097   5.956   4.348  14.404
 8869TIP3    H148098   5.880   4.373  14.352
 8869TIP3    H248099   5.970   4.255  14.384
 8870TIP3   OH248100   6.318   4.400  14.192
 8870TIP3    H148101   6.399   4.364  14.226
 8870TIP3    H248102   6.342   4.485  14.155
 8871TIP3   OH248103   6.880   4.098  14.846
 8871TIP3    H148104   6.845   4.110  14.934
 8871TIP3    H248105   6.809   4.058  14.797
 8872TIP3   OH248106   6.215   4.445  13.864
 8872TIP3    H148107   6.184   4.461  13.775
 8872TIP3    H248108   6.293   4.499  13.873
 8873TIP3   OH248109   7.257   5.696  15.492
 8873TIP3    H148110   7.269   5.788  15.469
 8873TIP3    H248111   7.344   5.666  15.518
 8874TIP3   OH248112   6.005   4.944  15.414
 8874TIP3    H148113   6.072   4.942  15.483
 8874TIP3    H248114   5.922   4.948  15.461
 8875TIP3   OH248115   6.586   4.485  14.721
 8875TIP3    H148116   6.657   4.438  14.677
 8875TIP3    H248117   6.557   4.425  14.790
 8876TIP3   OH248118   6.055   4.079  14.386
 8876TIP3    H148119   6.002   4.002  14.408
 8876TIP3    H248120   6.113   4.048  14.316
 8877TIP3   OH248121   6.476   4.337  14.937
 8877TIP3    H148122   6.392   4.382  14.948
 8877TIP3    H248123   6.527   4.362  15.015
 8878TIP3   OH248124   6.483   4.974  14.067
 8878TIP3    H148125   6.421   4.906  14.039
 8878TIP3    H248126   6.516   4.943  14.152
 8879TIP3   OH248127   7.183   4.835  14.976
 8879TIP3    H148128   7.265   4.815  14.930
 8879TIP3    H248129   7.116   4.831  14.909
 8880TIP3   OH248130   6.864   4.162  13.997
 8880TIP3    H148131   6.779   4.178  13.955
 8880TIP3    H248132   6.895   4.249  14.022
 8881TIP3   OH248133   6.656   4.951  15.251
 8881TIP3    H148134   6.700   4.919  15.329
 8881TIP3    H248135   6.629   5.040  15.274
 8882TIP3   OH248136   6.972   4.393  14.116
 8882TIP3    H148137   7.057   4.377  14.157
 8882TIP3    H248138   6.977   4.482  14.083
 8883TIP3   OH248139   6.027   4.841  14.663
 8883TIP3    H148140   6.086   4.834  14.588
 8883TIP3    H248141   6.073   4.796  14.734
 8884TIP3   OH248142   6.743   5.070  13.995
 8884TIP3    H148143   6.723   5.157  14.028
 8884TIP3    H248144   6.668   5.016  14.021
 8885TIP3   OH248145   5.747   4.683  15.219
 8885TIP3    H148146   5.728   4.647  15.306
 8885TIP3    H248147   5.673   4.655  15.165
 8886TIP3   OH248148   6.460   4.648  15.463
 8886TIP3    H148149   6.395   4.614  15.402
 8886TIP3    H248150   6.542   4.606  15.437
 8887TIP3   OH248151   6.872   5.229  15.255
 8887TIP3    H148152   6.778   5.236  15.234
 8887TIP3    H248153   6.876   5.245  15.349
 8888TIP3   OH248154   7.256   5.267  14.223
 8888TIP3    H148155   7.198   5.235  14.292
 8888TIP3    H248156   7.233   5.215  14.146
 8889TIP3   OH248157   7.000   4.806  14.768
 8889TIP3    H148158   6.908   4.784  14.780
 8889TIP3    H248159   7.037   4.730  14.722
 8890TIP3   OH248160   6.341   5.271  14.531
 8890TIP3    H148161   6.340   5.338  14.462
 8890TIP3    H248162   6.350   5.188  14.484
 8891TIP3   OH248163   5.859   4.647  13.928
 8891TIP3    H148164   5.907   4.715  13.974
 8891TIP3    H248165   5.768   4.660  13.954
 8892TIP3   OH248166   6.355   5.020  14.427
 8892TIP3    H148167   6.437   4.981  14.397
 8892TIP3    H248168   6.297   4.946  14.441
 8893TIP3   OH248169   6.484   5.367  15.017
 8893TIP3    H148170   6.537   5.445  15.001
 8893TIP3    H248171   6.536   5.315  15.079
 8894TIP3   OH248172   6.287   5.489  14.354
 8894TIP3    H148173   6.194   5.491  14.376
 8894TIP3    H248174   6.323   5.569  14.392
 8895TIP3   OH248175   6.772   5.008  15.006
 8895TIP3    H148176   6.731   4.986  15.090
 8895TIP3    H248177   6.847   4.948  14.999
 8896TIP3   OH248178   7.025   5.098  13.954
 8896TIP3    H148179   7.069   5.051  14.025
 8896TIP3    H248180   6.932   5.085  13.971
 8897TIP3   OH248181   7.098   5.404  15.209
 8897TIP3    H148182   7.015   5.356  15.206
 8897TIP3    H248183   7.085   5.478  15.150
 8898TIP3   OH248184   5.881   4.174  15.160
 8898TIP3    H148185   5.792   4.204  15.146
 8898TIP3    H248186   5.873   4.103  15.224
 8899TIP3   OH248187   7.189   4.972  14.133
 8899TIP3    H148188   7.149   4.907  14.191
 8899TIP3    H248189   7.280   4.978  14.163
 8900TIP3   OH248190   5.868   5.353  15.041
 8900TIP3    H148191   5.897   5.276  15.090
 8900TIP3    H248192   5.882   5.426  15.101
 8901TIP3   OH248193   6.435   5.198  13.758
 8901TIP3    H148194   6.448   5.109  13.725
 8901TIP3    H248195   6.390   5.185  13.842
 8902TIP3   OH248196   6.309   5.179  14.004
 8902TIP3    H148197   6.371   5.115  14.040
 8902TIP3    H248198   6.332   5.261  14.047
 8903TIP3   OH248199   5.960   4.868  14.077
 8903TIP3    H148200   5.894   4.916  14.127
 8903TIP3    H248201   6.006   4.936  14.027
 8904TIP3   OH248202   6.786   4.132  15.100
 8904TIP3    H148203   6.860   4.150  15.158
 8904TIP3    H248204   6.747   4.052  15.135
 8905TIP3   OH248205   6.857   4.040  14.243
 8905TIP3    H148206   6.859   4.081  14.157
 8905TIP3    H248207   6.894   4.107  14.302
 8906TIP3   OH248208   6.646   5.311  14.074
 8906TIP3    H148209   6.557   5.326  14.108
 8906TIP3    H248210   6.669   5.394  14.032
 8907TIP3   OH248211   6.537   4.282  14.303
 8907TIP3    H148212   6.616   4.336  14.303
 8907TIP3    H248213   6.536   4.243  14.391
 8908TIP3   OH248214   6.643   4.372  15.158
 8908TIP3    H148215   6.652   4.397  15.249
 8908TIP3    H248216   6.685   4.286  15.152
 8909TIP3   OH248217   6.613   3.951  14.340
 8909TIP3    H148218   6.590   4.020  14.403
 8909TIP3    H248219   6.699   3.978  14.307
 8910TIP3   OH248220   6.387   5.421  14.109
 8910TIP3    H148221   6.388   5.506  14.065
 8910TIP3    H248222   6.353   5.439  14.196
 8911TIP3   OH248223   6.205   4.183  14.064
 8911TIP3    H148224   6.226   4.262  14.114
 8911TIP3    H248225   6.284   4.130  14.070
 8912TIP3   OH248226   7.230   4.090  15.270
 8912TIP3    H148227   7.145   4.130  15.252
 8912TIP3    H248228   7.282   4.160  15.309
 8913TIP3   OH248229   7.081   4.557  14.669
 8913TIP3    H148230   6.998   4.519  14.640
 8913TIP3    H248231   7.107   4.503  14.744
 8914TIP3   OH248232   6.063   5.082  13.925
 8914TIP3    H148233   6.138   5.128  13.964
 8914TIP3    H248234   6.102   5.030  13.854
 8915TIP3   OH248235   5.871   4.378  13.850
 8915TIP3    H148236   5.869   4.470  13.878
 8915TIP3    H248237   5.814   4.376  13.773
 8916TIP3   OH248238   7.229   5.497  14.828
 8916TIP3    H148239   7.212   5.565  14.762
 8916TIP3    H248240   7.321   5.474  14.816
 8917TIP3   OH248241   5.954   3.879  14.709
 8917TIP3    H148242   5.942   3.870  14.615
 8917TIP3    H248243   5.921   3.798  14.746
 8918TIP3   OH248244   5.827   5.293  14.325
 8918TIP3    H148245   5.778   5.326  14.401
 8918TIP3    H248246   5.814   5.360  14.258
 8919TIP3   OH248247   5.814   5.584  15.513
 8919TIP3    H148248   5.879   5.570  15.582
 8919TIP3    H248249   5.795   5.496  15.481
 8920TIP3   OH248250   6.235   5.389  15.624
 8920TIP3    H148251   6.308   5.332  15.647
 8920TIP3    H248252   6.206   5.358  15.538
 8921TIP3   OH248253   6.637   5.382  13.752
 8921TIP3    H148254   6.569   5.315  13.761
 8921TIP3    H248255   6.714   5.334  13.720
 8922TIP3   OH248256   6.867   5.259  15.526
 8922TIP3    H148257   6.848   5.174  15.564
 8922TIP3    H248258   6.944   5.290  15.575
 8923TIP3   OH248259   7.064   5.330  13.804
 8923TIP3    H148260   7.071   5.246  13.848
 8923TIP3    H248261   7.135   5.329  13.740
 8924TIP3   OH248262   5.763   4.929  15.550
 8924TIP3    H148263   5.769   4.834  15.541
 8924TIP3    H248264   5.688   4.953  15.495
 8925TIP3   OH248265   6.192   4.905  13.758
 8925TIP3    H148266   6.216   4.860  13.839
 8925TIP3    H248267   6.275   4.922  13.714
 8926TIP3   OH248268   6.423   4.931  15.520
 8926TIP3    H148269   6.413   4.976  15.436
 8926TIP3    H248270   6.455   4.844  15.497
 8927TIP3   OH248271   6.765   5.045  13.722
 8927TIP3    H148272   6.755   5.050  13.817
 8927TIP3    H248273   6.756   4.952  13.701
 8928TIP3   OH248274   6.964   4.965  15.293
 8928TIP3    H148275   7.055   4.969  15.264
 8928TIP3    H248276   6.928   5.052  15.273
 8929TIP3   OH248277   5.838   4.664  15.505
 8929TIP3    H148278   5.922   4.651  15.460
 8929TIP3    H248279   5.859   4.656  15.598
 8930TIP3   OH248280   6.294   4.780  13.985
 8930TIP3    H148281   6.254   4.739  14.062
 8930TIP3    H248282   6.349   4.712  13.947
 8931TIP3   OH248283   6.272   4.554  15.271
 8931TIP3    H148284   6.192   4.607  15.270
 8931TIP3    H248285   6.329   4.594  15.206
 8932TIP3   OH248286   6.437   4.595  13.833
 8932TIP3    H148287   6.435   4.628  13.744
 8932TIP3    H248288   6.530   4.582  13.852
 8933TIP3   OH248289   6.755   4.782  15.548
 8933TIP3    H148290   6.835   4.749  15.506
 8933TIP3    H248291   6.728   4.712  15.607
 8934TIP3   OH248292   6.321   4.291  15.337
 8934TIP3    H148293   6.328   4.236  15.259
 8934TIP3    H248294   6.308   4.379  15.303
 8935TIP3   OH248295   6.344   4.137  15.101
 8935TIP3    H148296   6.396   4.185  15.036
 8935TIP3    H248297   6.257   4.132  15.062
 8936TIP3   OH248298   6.454   4.675  15.110
 8936TIP3    H148299   6.544   4.702  15.130
 8936TIP3    H248300   6.417   4.749  15.062
 8937TIP3   OH248301   6.916   4.421  15.585
 8937TIP3    H148302   6.924   4.339  15.632
 8937TIP3    H248303   7.002   4.436  15.546
 8938TIP3   OH248304   7.009   4.736  15.431
 8938TIP3    H148305   6.983   4.816  15.386
 8938TIP3    H248306   7.105   4.739  15.432
 8939TIP3   OH248307   6.152   4.339  15.556
 8939TIP3    H148308   6.070   4.291  15.542
 8939TIP3    H248309   6.199   4.329  15.473
 8940TIP3   OH248310   6.395   3.876  15.185
 8940TIP3    H148311   6.377   3.967  15.159
 8940TIP3    H248312   6.326   3.825  15.142
 8941TIP3   OH248313   6.534   4.250  15.511
 8941TIP3    H148314   6.489   4.227  15.593
 8941TIP3    H248315   6.463   4.257  15.447
 8942TIP3   OH248316   6.794   4.180  15.417
 8942TIP3    H148317   6.706   4.187  15.454
 8942TIP3    H248318   6.846   4.139  15.486
 8943TIP3   OH248319   6.977   4.080  15.607
 8943TIP3    H148320   6.969   3.984  15.603
 8943TIP3    H248321   6.933   4.104  15.688
 8944TIP3   OH248322   5.937   4.160  15.513
 8944TIP3    H148323   5.939   4.084  15.454
 8944TIP3    H248324   5.935   4.122  15.601
 8945TIP3   OH248325   6.397   3.792  15.446
 8945TIP3    H148326   6.451   3.714  15.437
 8945TIP3    H248327   6.390   3.827  15.357
 8946TIP3   OH248328   6.460   3.946  15.670
 8946TIP3    H148329   6.446   3.893  15.591
 8946TIP3    H248330   6.404   4.022  15.659
 8947TIP3   OH248331   6.439   5.663  13.981
 8947TIP3    H148332   6.528   5.630  13.971
 8947TIP3    H248333   6.428   5.727  13.911
 8948TIP3   OH248334   5.793   5.124  13.898
 8948TIP3    H148335   5.888   5.125  13.908
 8948TIP3    H248336   5.776   5.062  13.828
 8949TIP3   OH248337   5.654   5.613  14.432
 8949TIP3    H148338   5.597   5.582  14.362
 8949TIP3    H248339   5.673   5.534  14.484
 8950TIP3   OH248340   5.729   5.392  14.586
 8950TIP3    H148341   5.705   5.309  14.627
 8950TIP3    H248342   5.774   5.441  14.655
 8951TIP3   OH248343   7.222   5.086  15.719
 8951TIP3    H148344   7.154   5.061  15.782
 8951TIP3    H248345   7.296   5.110  15.774
 8952TIP3   OH248346   7.258   5.202  15.102
 8952TIP3    H148347   7.216   5.276  15.146
 8952TIP3    H248348   7.220   5.202  15.014
 8953TIP3   OH248349   7.306   4.367  13.812
 8953TIP3    H148350   7.261   4.423  13.750
 8953TIP3    H248351   7.282   4.278  13.786
 8954TIP3   OH248352   7.197   4.561  14.415
 8954TIP3    H148353   7.189   4.468  14.395
 8954TIP3    H248354   7.171   4.568  14.507
 8955TIP3   OH248355   5.713   4.748  14.848
 8955TIP3    H148356   5.724   4.736  14.754
 8955TIP3    H248357   5.795   4.716  14.886
 8956TIP3   OH248358   7.280   4.787  15.418
 8956TIP3    H148359   7.338   4.727  15.371
 8956TIP3    H248360   7.262   4.857  15.354
 8957TIP3   OH248361   7.235   4.113  13.734
 8957TIP3    H148362   7.254   4.049  13.803
 8957TIP3    H248363   7.140   4.106  13.722
 8958TIP3   OH248364   7.212   4.310  14.263
 8958TIP3    H148365   7.224   4.222  14.297
 8958TIP3    H248366   7.269   4.315  14.187
 8959TIP3   OH248367   7.271   4.220  14.819
 8959TIP3    H148368   7.358   4.189  14.793
 8959TIP3    H248369   7.283   4.313  14.838
 8960TIP3   OH248370   7.274   4.469  15.129
 8960TIP3    H148371   7.180   4.491  15.136
 8960TIP3    H248372   7.291   4.464  15.035
 8961TIP3   OH248373   5.710   4.283  15.414
 8961TIP3    H148374   5.795   4.257  15.450
 8961TIP3    H248375   5.654   4.207  15.431
 8962TIP3   OH248376   7.213   4.041  14.312
 8962TIP3    H148377   7.229   4.008  14.401
 8962TIP3    H248378   7.164   3.971  14.269
 8963TIP3   OH248379   5.835   4.130  14.731
 8963TIP3    H148380   5.872   4.042  14.737
 8963TIP3    H248381   5.908   4.188  14.753
 8964TIP3   OH248382   5.633   4.403  14.802
 8964TIP3    H148383   5.704   4.407  14.738
 8964TIP3    H248384   5.663   4.459  14.874
 8965TIP3   OH248385   5.682   4.038  14.207
 8965TIP3    H148386   5.590   4.039  14.233
 8965TIP3    H248387   5.690   4.112  14.147
 8966TIP3   OH248388   7.152   5.503  14.483
 8966TIP3    H148389   7.234   5.457  14.500
 8966TIP3    H248390   7.156   5.580  14.540
 8967TIP3   OH248391   5.681   3.876  15.056
 8967TIP3    H148392   5.618   3.871  15.128
 8967TIP3    H248393   5.653   3.952  15.005
 8968TIP3   OH248394   5.889   5.288  15.480
 8968TIP3    H148395   5.798   5.279  15.454
 8968TIP3    H248396   5.893   5.250  15.567
 8969TIP3   OH248397   6.227   5.366  15.114
 8969TIP3    H148398   6.201   5.457  15.096
 8969TIP3    H248399   6.317   5.361  15.082
 8970TIP3   OH248400   6.591   5.483  15.401
 8970TIP3    H148401   6.604   5.451  15.490
 8970TIP3    H248402   6.670   5.534  15.382
 8971TIP3   OH248403   6.821   5.626  15.356
 8971TIP3    H148404   6.881   5.574  15.302
 8971TIP3    H248405   6.874   5.654  15.431
 8972TIP3   OH248406   5.918   5.646  15.135
 8972TIP3    H148407   5.841   5.691  15.101
 8972TIP3    H248408   5.935   5.686  15.220
 8973TIP3   OH248409   6.182   5.633  15.056
 8973TIP3    H148410   6.089   5.638  15.077
 8973TIP3    H248411   6.189   5.672  14.968
 8974TIP3   OH248412   6.623   5.602  14.963
 8974TIP3    H148413   6.577   5.639  14.888
 8974TIP3    H248414   6.633   5.676  15.023
 8975TIP3   OH248415   6.853   5.491  15.068
 8975TIP3    H148416   6.775   5.527  15.027
 8975TIP3    H248417   6.924   5.550  15.040
 8976TIP3   OH248418   7.093   5.628  15.028
 8976TIP3    H148419   7.105   5.720  15.005
 8976TIP3    H248420   7.141   5.580  14.960
 8977TIP3   OH248421   5.872   5.508  14.809
 8977TIP3    H148422   5.870   5.462  14.893
 8977TIP3    H248423   5.949   5.474  14.764
 8978TIP3   OH248424   6.086   5.386  14.697
 8978TIP3    H148425   6.076   5.292  14.711
 8978TIP3    H248426   6.178   5.403  14.717
 8979TIP3   OH248427   6.364   5.432  14.759
 8979TIP3    H148428   6.376   5.372  14.686
 8979TIP3    H248429   6.397   5.384  14.835
 8980TIP3   OH248430   6.670   3.972  14.704
 8980TIP3    H148431   6.601   3.907  14.720
 8980TIP3    H248432   6.741   3.922  14.665
 8981TIP3   OH248433   7.158   3.833  14.667
 8981TIP3    H148434   7.193   3.921  14.681
 8981TIP3    H248435   7.063   3.845  14.660
 8982TIP3   OH248436   5.917   3.844  14.436
 8982TIP3    H148437   5.824   3.824  14.423
 8982TIP3    H248438   5.961   3.759  14.426
 8983TIP3   OH248439   5.799   3.847  14.043
 8983TIP3    H148440   5.856   3.907  13.994
 8983TIP3    H248441   5.757   3.902  14.109
 8984TIP3   OH248442   6.398   3.816  14.463
 8984TIP3    H148443   6.471   3.861  14.421
 8984TIP3    H248444   6.420   3.818  14.556
 8985TIP3   OH248445   6.882   3.826  14.604
 8985TIP3    H148446   6.889   3.806  14.511
 8985TIP3    H248447   6.865   3.741  14.645
 8986TIP3   OH248448   7.065   3.858  14.177
 8986TIP3    H148449   6.987   3.912  14.186
 8986TIP3    H248450   7.033   3.768  14.186
 8987TIP3   OH248451   5.797   5.475  14.122
 8987TIP3    H148452   5.719   5.463  14.067
 8987TIP3    H248453   5.820   5.567  14.109
 8988TIP3   OH248454   6.051   4.027  13.864
 8988TIP3    H148455   6.083   3.960  13.804
 8988TIP3    H248456   6.105   4.017  13.943
 8989TIP3   OH248457   6.462   4.089  14.123
 8989TIP3    H148458   6.489   4.006  14.163
 8989TIP3    H248459   6.491   4.156  14.185
 8990TIP3   OH248460   6.689   5.559  13.952
 8990TIP3    H148461   6.782   5.575  13.941
 8990TIP3    H248462   6.664   5.508  13.875
 8991TIP3   OH248463   5.940   3.910  15.376
 8991TIP3    H148464   5.880   3.848  15.418
 8991TIP3    H248465   6.024   3.895  15.420
 8992TIP3   OH248466   6.141   3.835  15.551
 8992TIP3    H148467   6.230   3.812  15.521
 8992TIP3    H248468   6.114   3.760  15.603
 8993TIP3   OH248469   5.945   5.429  13.815
 8993TIP3    H148470   5.937   5.422  13.911
 8993TIP3    H248471   6.038   5.440  13.799
 8994TIP3   OH248472   6.992   3.802  15.583
 8994TIP3    H148473   6.988   3.750  15.664
 8994TIP3    H248474   7.084   3.799  15.557
 8995TIP3   OH248475   7.227   5.421  15.452
 8995TIP3    H148476   7.188   5.407  15.366
 8995TIP3    H248477   7.237   5.516  15.458
 8996TIP3   OH248478   1.167   6.658  14.437
 8996TIP3    H148479   1.156   6.753  14.439
 8996TIP3    H248480   1.109   6.628  14.367
 8997TIP3   OH248481   1.075   6.593  14.826
 8997TIP3    H148482   1.105   6.546  14.904
 8997TIP3    H248483   1.031   6.527  14.773
 8998TIP3   OH248484   0.294   6.517  14.950
 8998TIP3    H148485   0.302   6.443  15.012
 8998TIP3    H248486   0.384   6.535  14.923
 8999TIP3   OH248487   1.429   6.915  14.672
 8999TIP3    H148488   1.407   6.838  14.724
 8999TIP3    H248489   1.461   6.979  14.736
 9000TIP3   OH248490   0.413   6.979  14.773
 9000TIP3    H148491   0.375   6.897  14.742
 9000TIP3    H248492   0.507   6.971  14.754
 9001TIP3   OH248493   0.112   6.362  14.323
 9001TIP3    H148494   0.070   6.438  14.363
 9001TIP3    H248495   0.040   6.303  14.304
 9002TIP3   OH248496   0.147   6.591  14.604
 9002TIP3    H148497   0.175   6.501  14.617
 9002TIP3    H248498   0.228   6.642  14.608
 9003TIP3   OH248499   0.913   6.829  14.829
 9003TIP3    H148500   0.957   6.750  14.797
 9003TIP3    H248501   0.978   6.872  14.884
 9004TIP3   OH248502   1.814   5.984  14.930
 9004TIP3    H148503   1.824   6.057  14.992
 9004TIP3    H248504   1.863   6.010  14.853
 9005TIP3   OH248505   1.223   6.269  14.838
 9005TIP3    H148506   1.234   6.174  14.851
 9005TIP3    H248507   1.208   6.278  14.744
 9006TIP3   OH248508   0.589   6.074  14.566
 9006TIP3    H148509   0.600   6.160  14.527
 9006TIP3    H248510   0.538   6.024  14.502
 9007TIP3   OH248511   1.351   6.112  14.417
 9007TIP3    H148512   1.392   6.080  14.498
 9007TIP3    H248513   1.424   6.148  14.366
 9008TIP3   OH248514   0.217   6.330  14.671
 9008TIP3    H148515   0.286   6.292  14.726
 9008TIP3    H248516   0.235   6.297  14.583
 9009TIP3   OH248517   0.698   6.477  14.636
 9009TIP3    H148518   0.786   6.446  14.658
 9009TIP3    H248519   0.666   6.413  14.572
 9010TIP3   OH248520   1.843   6.163  15.141
 9010TIP3    H148521   1.766   6.218  15.125
 9010TIP3    H248522   1.863   6.177  15.234
 9011TIP3   OH248523   0.426   5.997  15.001
 9011TIP3    H148524   0.405   6.055  14.928
 9011TIP3    H248525   0.352   6.005  15.060
 9012TIP3   OH248526   1.128   6.923  14.377
 9012TIP3    H148527   1.221   6.944  14.377
 9012TIP3    H248528   1.084   7.007  14.379
 9013TIP3   OH248529   0.699   6.753  14.987
 9013TIP3    H148530   0.644   6.828  15.010
 9013TIP3    H248531   0.769   6.791  14.933
 9014TIP3   OH248532   1.442   6.057  14.670
 9014TIP3    H148533   1.376   6.029  14.732
 9014TIP3    H248534   1.501   6.113  14.721
 9015TIP3   OH248535   0.421   6.158  14.772
 9015TIP3    H148536   0.478   6.212  14.826
 9015TIP3    H248537   0.477   6.123  14.704
 9016TIP3   OH248538   0.523   6.965  15.048
 9016TIP3    H148539   0.486   6.981  14.961
 9016TIP3    H248540   0.449   6.974  15.107
 9017TIP3   OH248541   0.105   6.883  14.179
 9017TIP3    H148542   0.119   6.933  14.098
 9017TIP3    H248543   0.129   6.943  14.249
 9018TIP3   OH248544   1.490   7.135  14.844
 9018TIP3    H148545   1.401   7.135  14.879
 9018TIP3    H248546   1.496   7.215  14.792
 9019TIP3   OH248547   1.565   5.880  15.017
 9019TIP3    H148548   1.497   5.924  14.966
 9019TIP3    H248549   1.647   5.908  14.976
 9020TIP3   OH248550   0.792   5.684  14.751
 9020TIP3    H148551   0.764   5.593  14.751
 9020TIP3    H248552   0.714   5.733  14.778
 9021TIP3   OH248553   1.332   7.260  14.421
 9021TIP3    H148554   1.338   7.165  14.426
 9021TIP3    H248555   1.419   7.289  14.393
 9022TIP3   OH248556   1.391   6.993  14.414
 9022TIP3    H148557   1.477   6.988  14.371
 9022TIP3    H248558   1.407   6.960  14.503
 9023TIP3   OH248559   1.598   6.922  15.195
 9023TIP3    H148560   1.592   6.863  15.120
 9023TIP3    H248561   1.616   7.008  15.155
 9024TIP3   OH248562   1.042   6.597  14.195
 9024TIP3    H148563   0.985   6.670  14.172
 9024TIP3    H248564   1.114   6.603  14.134
 9025TIP3   OH248565   1.071   6.484  13.853
 9025TIP3    H148566   1.126   6.510  13.927
 9025TIP3    H248567   1.122   6.416  13.808
 9026TIP3   OH248568   1.754   6.560  15.052
 9026TIP3    H148569   1.686   6.626  15.038
 9026TIP3    H248570   1.822   6.581  14.987
 9027TIP3   OH248571   1.392   6.604  14.284
 9027TIP3    H148572   1.325   6.627  14.348
 9027TIP3    H248573   1.462   6.564  14.335
 9028TIP3   OH248574   1.370   6.418  15.232
 9028TIP3    H148575   1.368   6.492  15.292
 9028TIP3    H248576   1.307   6.441  15.163
 9029TIP3   OH248577   0.556   6.657  14.465
 9029TIP3    H148578   0.535   6.617  14.380
 9029TIP3    H248579   0.613   6.593  14.508
 9030TIP3   OH248580   0.684   6.951  14.716
 9030TIP3    H148581   0.694   6.977  14.624
 9030TIP3    H248582   0.766   6.907  14.738
 9031TIP3   OH248583   0.551   6.567  14.850
 9031TIP3    H148584   0.606   6.543  14.775
 9031TIP3    H248585   0.603   6.631  14.897
 9032TIP3   OH248586   1.253   7.106  14.981
 9032TIP3    H148587   1.236   7.121  15.074
 9032TIP3    H248588   1.207   7.025  14.961
 9033TIP3   OH248589   0.681   6.977  15.288
 9033TIP3    H148590   0.619   7.035  15.332
 9033TIP3    H248591   0.641   6.960  15.202
 9034TIP3   OH248592   1.274   6.553  14.038
 9034TIP3    H148593   1.323   6.588  14.112
 9034TIP3    H248594   1.328   6.572  13.961
 9035TIP3   OH248595   0.412   6.631  15.252
 9035TIP3    H148596   0.400   6.698  15.318
 9035TIP3    H248597   0.343   6.647  15.188
 9036TIP3   OH248598   1.055   7.191  14.368
 9036TIP3    H148599   1.140   7.232  14.385
 9036TIP3    H248600   1.041   7.206  14.274
 9037TIP3   OH248601   0.502   7.168  15.376
 9037TIP3    H148602   0.506   7.215  15.293
 9037TIP3    H248603   0.409   7.170  15.400
 9038TIP3   OH248604   1.638   5.695  14.040
 9038TIP3    H148605   1.554   5.721  14.079
 9038TIP3    H248606   1.675   5.776  14.005
 9039TIP3   OH248607   0.485   6.564  14.207
 9039TIP3    H148608   0.424   6.627  14.167
 9039TIP3    H248609   0.447   6.478  14.188
 9040TIP3   OH248610   1.753   7.161  13.847
 9040TIP3    H148611   1.754   7.237  13.906
 9040TIP3    H248612   1.843   7.129  13.847
 9041TIP3   OH248613   0.169   6.771  15.102
 9041TIP3    H148614   0.133   6.758  15.014
 9041TIP3    H248615   0.145   6.692  15.150
 9042TIP3   OH248616   0.161   7.158  14.788
 9042TIP3    H148617   0.230   7.093  14.796
 9042TIP3    H248618   0.111   7.149  14.869
 9043TIP3   OH248619   1.859   7.171  15.433
 9043TIP3    H148620   1.846   7.076  15.431
 9043TIP3    H248621   1.770   7.208  15.429
 9044TIP3   OH248622   0.922   7.109  15.287
 9044TIP3    H148623   0.901   7.183  15.343
 9044TIP3    H248624   0.842   7.056  15.286
 9045TIP3   OH248625   1.556   6.297  15.416
 9045TIP3    H148626   1.486   6.333  15.361
 9045TIP3    H248627   1.561   6.205  15.391
 9046TIP3   OH248628   0.301   6.983  15.210
 9046TIP3    H148629   0.319   6.949  15.298
 9046TIP3    H248630   0.244   6.917  15.171
 9047TIP3   OH248631   0.547   5.801  14.838
 9047TIP3    H148632   0.475   5.792  14.776
 9047TIP3    H248633   0.520   5.871  14.897
 9048TIP3   OH248634   1.020   5.771  15.179
 9048TIP3    H148635   1.067   5.725  15.248
 9048TIP3    H248636   0.928   5.763  15.203
 9049TIP3   OH248637   1.309   6.146  15.240
 9049TIP3    H148638   1.249   6.129  15.313
 9049TIP3    H248639   1.318   6.241  15.238
 9050TIP3   OH248640   1.415   6.549  13.796
 9050TIP3    H148641   1.399   6.589  13.710
 9050TIP3    H248642   1.502   6.580  13.821
 9051TIP3   OH248643   0.975   6.002  13.904
 9051TIP3    H148644   0.916   5.999  13.979
 9051TIP3    H248645   0.939   5.936  13.844
 9052TIP3   OH248646   0.563   6.310  14.951
 9052TIP3    H148647   0.502   6.307  15.024
 9052TIP3    H248648   0.563   6.401  14.922
 9053TIP3   OH248649   0.581   6.321  14.445
 9053TIP3    H148650   0.486   6.308  14.448
 9053TIP3    H248651   0.604   6.306  14.353
 9054TIP3   OH248652   1.094   6.349  14.307
 9054TIP3    H148653   1.069   6.436  14.273
 9054TIP3    H248654   1.166   6.321  14.251
 9055TIP3   OH248655   1.031   6.348  15.432
 9055TIP3    H148656   0.974   6.279  15.466
 9055TIP3    H248657   1.114   6.335  15.477
 9056TIP3   OH248658   1.192   6.290  14.566
 9056TIP3    H148659   1.152   6.341  14.496
 9056TIP3    H248660   1.238   6.219  14.521
 9057TIP3   OH248661   0.340   6.296  15.123
 9057TIP3    H148662   0.382   6.324  15.204
 9057TIP3    H248663   0.288   6.220  15.148
 9058TIP3   OH248664   0.661   6.054  13.804
 9058TIP3    H148665   0.627   6.045  13.893
 9058TIP3    H248666   0.606   6.120  13.763
 9059TIP3   OH248667   0.060   6.071  14.485
 9059TIP3    H148668   0.101   6.058  14.571
 9059TIP3    H248669   0.120   6.028  14.424
 9060TIP3   OH248670   0.055   6.181  14.064
 9060TIP3    H148671   0.142   6.214  14.044
 9060TIP3    H248672   0.004   6.199  13.986
 9061TIP3   OH248673   1.159   6.435  15.042
 9061TIP3    H148674   1.193   6.379  14.971
 9061TIP3    H248675   1.093   6.380  15.085
 9062TIP3   OH248676   0.869   6.028  14.524
 9062TIP3    H148677   0.780   6.033  14.558
 9062TIP3    H248678   0.920   5.993  14.597
 9063TIP3   OH248679   0.324   6.232  14.433
 9063TIP3    H148680   0.254   6.269  14.380
 9063TIP3    H248681   0.342   6.147  14.394
 9064TIP3   OH248682   0.622   6.248  14.182
 9064TIP3    H148683   0.716   6.239  14.196
 9064TIP3    H248684   0.615   6.289  14.096
 9065TIP3   OH248685   1.233   5.992  14.845
 9065TIP3    H148686   1.193   5.995  14.932
 9065TIP3    H248687   1.168   5.950  14.789
 9066TIP3   OH248688   0.583   6.340  13.928
 9066TIP3    H148689   0.529   6.314  13.854
 9066TIP3    H248690   0.658   6.386  13.889
 9067TIP3   OH248691   0.354   6.825  15.443
 9067TIP3    H148692   0.414   6.823  15.518
 9067TIP3    H248693   0.267   6.825  15.482
 9068TIP3   OH248694   0.937   6.362  14.722
 9068TIP3    H148695   1.006   6.316  14.674
 9068TIP3    H248696   0.908   6.300  14.789
 9069TIP3   OH248697   0.422   5.977  14.360
 9069TIP3    H148698   0.378   5.895  14.384
 9069TIP3    H248699   0.448   5.965  14.269
 9070TIP3   OH248700   0.823   6.215  14.937
 9070TIP3    H148701   0.737   6.257  14.947
 9070TIP3    H248702   0.871   6.240  15.015
 9071TIP3   OH248703   0.863   6.805  14.118
 9071TIP3    H148704   0.795   6.760  14.069
 9071TIP3    H248705   0.825   6.821  14.204
 9072TIP3   OH248706   1.573   6.756  14.975
 9072TIP3    H148707   1.636   6.804  14.921
 9072TIP3    H248708   1.503   6.731  14.914
 9073TIP3   OH248709   1.227   6.051  13.999
 9073TIP3    H148710   1.137   6.051  13.964
 9073TIP3    H248711   1.241   6.141  14.028
 9074TIP3   OH248712   1.034   6.826  15.274
 9074TIP3    H148713   1.059   6.778  15.353
 9074TIP3    H248714   0.999   6.909  15.307
 9075TIP3   OH248715   1.302   6.288  14.129
 9075TIP3    H148716   1.390   6.273  14.164
 9075TIP3    H248717   1.305   6.377  14.094
 9076TIP3   OH248718   0.386   6.719  14.672
 9076TIP3    H148719   0.441   6.711  14.594
 9076TIP3    H248720   0.432   6.666  14.738
 9077TIP3   OH248721   1.078   6.950  14.004
 9077TIP3    H148722   1.069   7.035  14.047
 9077TIP3    H248723   1.015   6.894  14.050
 9078TIP3   OH248724   0.119   6.540  15.238
 9078TIP3    H148725   0.164   6.497  15.311
 9078TIP3    H248726   0.067   6.471  15.197
 9079TIP3   OH248727   0.826   6.541  15.434
 9079TIP3    H148728   0.799   6.544  15.342
 9079TIP3    H248729   0.907   6.490  15.434
 9080TIP3   OH248730   1.199   7.121  15.255
 9080TIP3    H148731   1.103   7.115  15.252
 9080TIP3    H248732   1.220   7.121  15.348
 9081TIP3   OH248733   1.754   6.317  14.069
 9081TIP3    H148734   1.706   6.296  13.989
 9081TIP3    H248735   1.787   6.406  14.056
 9082TIP3   OH248736   1.807   6.876  15.367
 9082TIP3    H148737   1.727   6.903  15.324
 9082TIP3    H248738   1.870   6.865  15.296
 9083TIP3   OH248739   1.520   7.180  14.092
 9083TIP3    H148740   1.550   7.111  14.152
 9083TIP3    H248741   1.600   7.223  14.063
 9084TIP3   OH248742   1.362   6.671  14.799
 9084TIP3    H148743   1.268   6.662  14.787
 9084TIP3    H248744   1.399   6.597  14.752
 9085TIP3   OH248745   0.668   7.089  14.472
 9085TIP3    H148746   0.736   7.152  14.446
 9085TIP3    H248747   0.586   7.134  14.455
 9086TIP3   OH248748   0.188   6.572  13.890
 9086TIP3    H148749   0.248   6.626  13.942
 9086TIP3    H248750   0.104   6.579  13.935
 9087TIP3   OH248751   0.713   6.850  14.339
 9087TIP3    H148752   0.700   6.933  14.385
 9087TIP3    H248753   0.658   6.788  14.387
 9088TIP3   OH248754   0.829   7.226  15.029
 9088TIP3    H148755   0.886   7.303  15.024
 9088TIP3    H248756   0.865   7.174  15.101
 9089TIP3   OH248757   0.576   0.002  14.307
 9089TIP3    H148758   0.492   0.028  14.346
 9089TIP3    H248759   0.642   0.039  14.365
 9090TIP3   OH248760   1.123   6.862  15.013
 9090TIP3    H148761   1.093   6.845  15.102
 9090TIP3    H248762   1.178   6.786  14.992
 9091TIP3   OH248763   1.353   6.940  13.913
 9091TIP3    H148764   1.400   6.894  13.983
 9091TIP3    H248765   1.263   6.947  13.945
 9092TIP3   OH248766   1.411   7.298  15.222
 9092TIP3    H148767   1.336   7.238  15.230
 9092TIP3    H248768   1.374   7.378  15.185
 9093TIP3   OH248769   0.207   6.041  15.181
 9093TIP3    H148770   0.112   6.054  15.185
 9093TIP3    H248771   0.223   5.964  15.235
 9094TIP3   OH248772   1.479   6.805  14.113
 9094TIP3    H148773   1.456   6.743  14.182
 9094TIP3    H248774   1.544   6.863  14.153
 9095TIP3   OH248775   0.270   7.248  15.092
 9095TIP3    H148776   0.249   7.164  15.134
 9095TIP3    H248777   0.187   7.296  15.092
 9096TIP3   OH248778   0.798   7.060  13.756
 9096TIP3    H148779   0.812   6.976  13.712
 9096TIP3    H248780   0.769   7.037  13.844
 9097TIP3   OH248781   0.696   7.026  14.010
 9097TIP3    H148782   0.750   6.970  14.066
 9097TIP3    H248783   0.710   7.114  14.044
 9098TIP3   OH248784   0.316   6.738  14.073
 9098TIP3    H148785   0.245   6.776  14.125
 9098TIP3    H248786   0.362   6.814  14.037
 9099TIP3   OH248787   1.116   6.014  15.093
 9099TIP3    H148788   1.189   6.039  15.150
 9099TIP3    H248789   1.084   5.932  15.129
 9100TIP3   OH248790   1.206   5.941  14.252
 9100TIP3    H148791   1.213   5.980  14.165
 9100TIP3    H248792   1.249   6.004  14.310
 9101TIP3   OH248793   0.997   7.211  14.096
 9101TIP3    H148794   0.907   7.241  14.104
 9101TIP3    H248795   1.021   7.230  14.005
 9102TIP3   OH248796   0.875   6.185  14.293
 9102TIP3    H148797   0.949   6.245  14.297
 9102TIP3    H248798   0.874   6.142  14.379
 9103TIP3   OH248799   0.986   6.257  15.161
 9103TIP3    H148800   0.999   6.275  15.254
 9103TIP3    H248801   1.023   6.170  15.148
 9104TIP3   OH248802   0.965   5.840  14.340
 9104TIP3    H148803   0.939   5.909  14.402
 9104TIP3    H248804   1.052   5.866  14.311
 9105TIP3   OH248805   0.731   7.287  14.090
 9105TIP3    H148806   0.715   7.358  14.029
 9105TIP3    H248807   0.673   7.305  14.164
 9106TIP3   OH248808   0.555   6.002  14.063
 9106TIP3    H148809   0.552   6.089  14.103
 9106TIP3    H248810   0.641   5.968  14.084
 9107TIP3   OH248811   1.561   6.050  15.274
 9107TIP3    H148812   1.468   6.071  15.262
 9107TIP3    H248813   1.588   6.011  15.191
 9108TIP3   OH248814   1.437   6.424  14.674
 9108TIP3    H148815   1.353   6.384  14.652
 9108TIP3    H248816   1.480   6.361  14.731
 9109TIP3   OH248817   0.424   6.965  13.946
 9109TIP3    H148818   0.501   7.010  13.982
 9109TIP3    H248819   0.458   6.914  13.873
 9110TIP3   OH248820   0.233   6.297  13.886
 9110TIP3    H148821   0.242   6.393  13.889
 9110TIP3    H248822   0.150   6.283  13.841
 9111TIP3   OH248823   0.305   5.782  14.705
 9111TIP3    H148824   0.306   5.768  14.610
 9111TIP3    H248825   0.272   5.700  14.741
 9112TIP3   OH248826   0.153   7.085  14.358
 9112TIP3    H148827   0.098   7.094  14.436
 9112TIP3    H248828   0.162   7.174  14.323
 9113TIP3   OH248829   0.626   7.255  15.602
 9113TIP3    H148830   0.682   7.186  15.638
 9113TIP3    H248831   0.574   7.210  15.535
 9114TIP3   OH248832   1.021   7.223  13.823
 9114TIP3    H148833   0.949   7.168  13.792
 9114TIP3    H248834   1.094   7.202  13.765
 9115TIP3   OH248835   1.243   7.134  15.524
 9115TIP3    H148836   1.203   7.053  15.555
 9115TIP3    H248837   1.322   7.144  15.577
 9116TIP3   OH248838   1.472   7.214  13.814
 9116TIP3    H148839   1.455   7.185  13.903
 9116TIP3    H248840   1.566   7.200  13.802
 9117TIP3   OH248841   0.102   6.823  15.548
 9117TIP3    H148842   0.045   6.766  15.497
 9117TIP3    H248843   0.044   6.889  15.585
 9118TIP3   OH248844   0.549   6.792  13.773
 9118TIP3    H148845   0.579   6.747  13.852
 9118TIP3    H248846   0.628   6.802  13.720
 9119TIP3   OH248847   0.757   6.810  15.502
 9119TIP3    H148848   0.739   6.851  15.418
 9119TIP3    H248849   0.791   6.723  15.479
 9120TIP3   OH248850   1.087   6.938  13.725
 9120TIP3    H148851   1.081   6.936  13.820
 9120TIP3    H248852   1.094   6.846  13.700
 9121TIP3   OH248853   1.347   6.854  15.289
 9121TIP3    H148854   1.434   6.882  15.261
 9121TIP3    H248855   1.288   6.922  15.257
 9122TIP3   OH248856   0.182   6.439  15.491
 9122TIP3    H148857   0.131   6.359  15.483
 9122TIP3    H248858   0.130   6.495  15.549
 9123TIP3   OH248859   0.657   6.663  13.998
 9123TIP3    H148860   0.610   6.618  14.069
 9123TIP3    H248861   0.701   6.593  13.950
 9124TIP3   OH248862   0.584   6.420  15.233
 9124TIP3    H148863   0.525   6.493  15.248
 9124TIP3    H248864   0.663   6.460  15.197
 9125TIP3   OH248865   0.795   6.488  13.834
 9125TIP3    H148866   0.790   6.511  13.741
 9125TIP3    H248867   0.888   6.482  13.853
 9126TIP3   OH248868   1.115   6.667  15.527
 9126TIP3    H148869   1.200   6.636  15.497
 9126TIP3    H248870   1.086   6.601  15.590
 9127TIP3   OH248871   1.666   6.662  13.795
 9127TIP3    H148872   1.671   6.652  13.700
 9127TIP3    H248873   1.651   6.756  13.809
 9128TIP3   OH248874   0.666   6.174  15.323
 9128TIP3    H148875   0.676   6.114  15.250
 9128TIP3    H248876   0.648   6.259  15.282
 9129TIP3   OH248877   0.685   6.015  15.096
 9129TIP3    H148878   0.737   6.058  15.028
 9129TIP3    H248879   0.596   6.013  15.061
 9130TIP3   OH248880   0.806   6.557  15.151
 9130TIP3    H148881   0.898   6.555  15.127
 9130TIP3    H248882   0.769   6.628  15.098
 9131TIP3   OH248883   1.238   6.299  15.619
 9131TIP3    H148884   1.242   6.223  15.678
 9131TIP3    H248885   1.320   6.345  15.635
 9132TIP3   OH248886   1.387   6.623  15.425
 9132TIP3    H148887   1.362   6.705  15.381
 9132TIP3    H248888   1.483   6.624  15.424
 9133TIP3   OH248889   0.462   6.243  15.499
 9133TIP3    H148890   0.400   6.171  15.487
 9133TIP3    H248891   0.531   6.224  15.435
 9134TIP3   OH248892   0.741   5.759  15.190
 9134TIP3    H148893   0.724   5.848  15.160
 9134TIP3    H248894   0.676   5.705  15.144
 9135TIP3   OH248895   0.867   6.142  15.510
 9135TIP3    H148896   0.816   6.120  15.587
 9135TIP3    H248897   0.803   6.148  15.439
 9136TIP3   OH248898   1.127   6.062  15.421
 9136TIP3    H148899   1.042   6.069  15.465
 9136TIP3    H248900   1.186   6.028  15.489
 9137TIP3   OH248901   1.317   5.966  15.606
 9137TIP3    H148902   1.311   5.870  15.608
 9137TIP3    H248903   1.283   5.994  15.691
 9138TIP3   OH248904   0.284   6.036  15.495
 9138TIP3    H148905   0.285   5.956  15.444
 9138TIP3    H248906   0.286   6.007  15.586
 9139TIP3   OH248907   0.748   5.684  15.454
 9139TIP3    H148908   0.802   5.605  15.446
 9139TIP3    H248909   0.740   5.717  15.364
 9140TIP3   OH248910   0.795   5.853  15.676
 9140TIP3    H148911   0.791   5.797  15.598
 9140TIP3    H248912   0.736   5.925  15.657
 9141TIP3   OH248913   0.151   7.012  13.941
 9141TIP3    H148914   0.246   7.018  13.942
 9141TIP3    H248915   0.131   6.959  13.865
 9142TIP3   OH248916   0.030   7.338  14.619
 9142TIP3    H148917   0.065   7.264  14.668
 9142TIP3    H248918   0.094   7.408  14.635
 9143TIP3   OH248919   1.616   6.902  15.782
 9143TIP3    H148920   1.525   6.921  15.806
 9143TIP3    H248921   1.653   6.987  15.760
 9144TIP3   OH248922   1.819   6.732  14.192
 9144TIP3    H148923   1.765   6.805  14.222
 9144TIP3    H248924   1.824   6.673  14.267
 9145TIP3   OH248925   1.833   6.542  14.392
 9145TIP3    H148926   1.743   6.523  14.419
 9145TIP3    H248927   1.877   6.568  14.473
 9146TIP3   OH248928   1.817   6.875  14.898
 9146TIP3    H148929   1.864   6.803  14.858
 9146TIP3    H248930   1.848   6.953  14.852
 9147TIP3   OH248931   1.617   7.176  15.085
 9147TIP3    H148932   1.537   7.211  15.126
 9147TIP3    H248933   1.591   7.160  14.994
 9148TIP3   OH248934   1.840   6.564  13.983
 9148TIP3    H148935   1.780   6.595  13.916
 9148TIP3    H248936   1.832   6.628  14.054
 9149TIP3   OH248937   1.642   6.273  13.823
 9149TIP3    H148938   1.625   6.335  13.753
 9149TIP3    H248939   1.628   6.187  13.784
 9150TIP3   OH248940   1.573   6.452  14.434
 9150TIP3    H148941   1.567   6.364  14.398
 9150TIP3    H248942   1.531   6.445  14.520
 9151TIP3   OH248943   0.074   6.649  14.861
 9151TIP3    H148944   0.084   6.653  14.766
 9151TIP3    H248945   0.154   6.606  14.891
 9152TIP3   OH248946   1.664   6.640  15.423
 9152TIP3    H148947   1.718   6.565  15.397
 9152TIP3    H248948   1.713   6.716  15.393
 9153TIP3   OH248949   1.803   6.407  15.374
 9153TIP3    H148950   1.717   6.366  15.388
 9153TIP3    H248951   1.866   6.340  15.398
 9154TIP3   OH248952   1.588   6.020  13.723
 9154TIP3    H148953   1.624   5.976  13.800
 9154TIP3    H248954   1.494   6.002  13.727
 9155TIP3   OH248955   1.562   6.212  14.255
 9155TIP3    H148956   1.593   6.122  14.258
 9155TIP3    H248957   1.626   6.257  14.200
 9156TIP3   OH248958   1.589   6.237  14.825
 9156TIP3    H148959   1.680   6.249  14.800
 9156TIP3    H248960   1.586   6.260  14.918
 9157TIP3   OH248961   1.616   6.327  15.089
 9157TIP3    H148962   1.537   6.355  15.135
 9157TIP3    H248963   1.668   6.407  15.080
 9158TIP3   OH248964   0.059   6.196  15.468
 9158TIP3    H148965   0.141   6.147  15.461
 9158TIP3    H248966   0.000   6.138  15.517
 9159TIP3   OH248967   1.838   5.748  15.607
 9159TIP3    H148968   1.910   5.687  15.590
 9159TIP3    H248969   1.847   5.814  15.538
 9160TIP3   OH248970   1.630   5.940  14.272
 9160TIP3    H148971   1.648   5.901  14.357
 9160TIP3    H248972   1.561   5.885  14.234
 9161TIP3   OH248973   0.179   6.022  14.734
 9161TIP3    H148974   0.214   5.933  14.733
 9161TIP3    H248975   0.256   6.078  14.747
 9162TIP3   OH248976  -0.005   6.376  14.842
 9162TIP3    H148977   0.068   6.356  14.783
 9162TIP3    H248978   0.001   6.471  14.856
 9163TIP3   OH248979   1.790   5.931  15.411
 9163TIP3    H148980   1.711   5.972  15.447
 9163TIP3    H248981   1.757   5.878  15.337
 9164TIP3   OH248982   1.756   5.909  13.916
 9164TIP3    H148983   1.810   5.853  13.861
 9164TIP3    H248984   1.816   5.976  13.949
 9165TIP3   OH248985   0.128   5.957  14.212
 9165TIP3    H148986   0.041   5.936  14.245
 9165TIP3    H248987   0.114   6.033  14.155
 9166TIP3   OH248988   7.368   5.747  15.074
 9166TIP3    H148989   7.299   5.699  15.120
 9166TIP3    H248990   7.322   5.816  15.026
 9167TIP3   OH248991   0.249   7.192  15.484
 9167TIP3    H148992   0.153   7.200  15.477
 9167TIP3    H248993   0.262   7.144  15.565
 9168TIP3   OH248994   0.536   7.292  15.129
 9168TIP3    H148995   0.444   7.286  15.105
 9168TIP3    H248996   0.583   7.244  15.060
 9169TIP3   OH248997   1.693   5.733  15.231
 9169TIP3    H148998   1.632   5.762  15.164
 9169TIP3    H248999   1.708   5.641  15.212
 9170TIP3   OH249000   0.441   7.231  14.639
 9170TIP3    H149001   0.406   7.149  14.674
 9170TIP3    H249002   0.523   7.244  14.686
 9171TIP3   OH249003   0.674   7.211  14.803
 9171TIP3    H149004   0.682   7.120  14.774
 9171TIP3    H249005   0.724   7.215  14.884
 9172TIP3   OH249006   1.027   5.866  14.692
 9172TIP3    H149007   0.964   5.797  14.712
 9172TIP3    H249008   1.100   5.821  14.650
 9173TIP3   OH249009   1.523   5.721  14.687
 9173TIP3    H149010   1.584   5.774  14.636
 9173TIP3    H249011   1.437   5.758  14.669
 9174TIP3   OH249012   1.708   5.813  14.506
 9174TIP3    H149013   1.772   5.746  14.482
 9174TIP3    H249014   1.761   5.891  14.524
 9175TIP3   OH249015   0.295   5.740  14.432
 9175TIP3    H149016   0.204   5.734  14.402
 9175TIP3    H249017   0.329   5.652  14.422
 9176TIP3   OH249018   0.167   5.752  14.030
 9176TIP3    H149019   0.233   5.786  13.970
 9176TIP3    H249020   0.166   5.815  14.102
 9177TIP3   OH249021   0.756   5.693  14.466
 9177TIP3    H149022   0.826   5.740  14.421
 9177TIP3    H249023   0.778   5.698  14.558
 9178TIP3   OH249024   1.247   5.732  14.592
 9178TIP3    H149025   1.283   5.714  14.505
 9178TIP3    H249026   1.232   5.646  14.631
 9179TIP3   OH249027   1.420   5.772  14.188
 9179TIP3    H149028   1.344   5.828  14.205
 9179TIP3    H249029   1.387   5.683  14.200
 9180TIP3   OH249030   0.148   0.000  14.249
 9180TIP3    H149031   0.090  -0.049  14.192
 9180TIP3    H249032   0.140   0.091  14.221
 9181TIP3   OH249033   0.368   5.886  13.883
 9181TIP3    H149034   0.423   5.836  13.823
 9181TIP3    H249035   0.430   5.922  13.947
 9182TIP3   OH249036   0.820   5.971  14.132
 9182TIP3    H149037   0.855   5.898  14.182
 9182TIP3    H249038   0.840   6.048  14.184
 9183TIP3   OH249039   0.287   5.788  15.377
 9183TIP3    H149040   0.229   5.725  15.420
 9183TIP3    H249041   0.372   5.774  15.419
 9184TIP3   OH249042   0.490   5.722  15.552
 9184TIP3    H149043   0.580   5.704  15.524
 9184TIP3    H249044   0.466   5.646  15.604
 9185TIP3   OH249045   1.331   5.687  15.586
 9185TIP3    H149046   1.325   5.637  15.668
 9185TIP3    H249047   1.423   5.679  15.561
 9186TIP3   OH249048   1.609   7.288  15.427
 9186TIP3    H149049   1.541   7.282  15.360
 9186TIP3    H249050   1.612   7.381  15.450
 9187TIP3   OH249051   3.079   6.669  14.429
 9187TIP3    H149052   3.073   6.764  14.416
 9187TIP3    H249053   3.008   6.633  14.376
 9188TIP3   OH249054   2.965   6.590  14.819
 9188TIP3    H149055   2.992   6.545  14.900
 9188TIP3    H249056   2.915   6.524  14.771
 9189TIP3   OH249057   2.177   6.524  14.949
 9189TIP3    H149058   2.187   6.457  15.016
 9189TIP3    H249059   2.267   6.547  14.926
 9190TIP3   OH249060   3.353   6.897  14.636
 9190TIP3    H149061   3.310   6.824  14.679
 9190TIP3    H249062   3.360   6.965  14.703
 9191TIP3   OH249063   2.329   6.963  14.783
 9191TIP3    H149064   2.284   6.888  14.746
 9191TIP3    H249065   2.418   6.956  14.750
 9192TIP3   OH249066   1.958   6.322  14.279
 9192TIP3    H149067   1.925   6.401  14.321
 9192TIP3    H249068   1.895   6.305  14.209
 9193TIP3   OH249069   2.014   6.585  14.604
 9193TIP3    H149070   2.047   6.496  14.615
 9193TIP3    H249071   2.092   6.640  14.608
 9194TIP3   OH249072   2.813   6.828  14.830
 9194TIP3    H149073   2.855   6.747  14.802
 9194TIP3    H249074   2.876   6.869  14.890
 9195TIP3   OH249075   3.689   5.990  14.934
 9195TIP3    H149076   3.703   6.059  14.999
 9195TIP3    H249077   3.727   6.024  14.854
 9196TIP3   OH249078   3.114   6.272  14.838
 9196TIP3    H149079   3.121   6.177  14.852
 9196TIP3    H249080   3.099   6.280  14.744
 9197TIP3   OH249081   2.464   6.071  14.560
 9197TIP3    H149082   2.466   6.157  14.519
 9197TIP3    H249083   2.408   6.018  14.503
 9198TIP3   OH249084   3.243   6.107  14.419
 9198TIP3    H149085   3.283   6.075  14.499
 9198TIP3    H249086   3.316   6.145  14.370
 9199TIP3   OH249087   2.098   6.326  14.653
 9199TIP3    H149088   2.164   6.285  14.708
 9199TIP3    H249089   2.116   6.292  14.565
 9200TIP3   OH249090   2.574   6.471  14.626
 9200TIP3    H149091   2.661   6.438  14.648
 9200TIP3    H249092   2.538   6.405  14.566
 9201TIP3   OH249093   3.730   6.169  15.144
 9201TIP3    H149094   3.648   6.216  15.130
 9201TIP3    H249095   3.749   6.181  15.237
 9202TIP3   OH249096   2.322   5.995  14.988
 9202TIP3    H149097   2.300   6.053  14.916
 9202TIP3    H249098   2.250   6.005  15.050
 9203TIP3   OH249099   3.039   6.917  14.322
 9203TIP3    H149100   3.022   6.924  14.228
 9203TIP3    H249101   3.009   7.000  14.358
 9204TIP3   OH249102   2.583   6.763  14.975
 9204TIP3    H149103   2.528   6.836  15.005
 9204TIP3    H249104   2.653   6.805  14.925
 9205TIP3   OH249105   3.331   6.049  14.671
 9205TIP3    H149106   3.260   6.025  14.731
 9205TIP3    H249107   3.385   6.110  14.722
 9206TIP3   OH249108   2.299   6.162  14.769
 9206TIP3    H149109   2.355   6.219  14.822
 9206TIP3    H249110   2.358   6.127  14.702
 9207TIP3   OH249111   2.405   6.970  15.053
 9207TIP3    H149112   2.373   6.976  14.963
 9207TIP3    H249113   2.325   6.974  15.107
 9208TIP3   OH249114   2.015   6.935  14.171
 9208TIP3    H149115   1.933   6.886  14.168
 9208TIP3    H249116   1.997   7.007  14.231
 9209TIP3   OH249117   3.363   7.117  14.816
 9209TIP3    H149118   3.274   7.116  14.853
 9209TIP3    H249119   3.367   7.199  14.766
 9210TIP3   OH249120   3.440   5.883  15.014
 9210TIP3    H149121   3.373   5.931  14.964
 9210TIP3    H249122   3.523   5.913  14.977
 9211TIP3   OH249123   2.678   5.686  14.752
 9211TIP3    H149124   2.653   5.594  14.751
 9211TIP3    H249125   2.599   5.733  14.778
 9212TIP3   OH249126   3.227   7.278  14.416
 9212TIP3    H149127   3.260   7.188  14.420
 9212TIP3    H249128   3.279   7.319  14.347
 9213TIP3   OH249129   3.347   7.032  14.391
 9213TIP3    H149130   3.338   6.967  14.321
 9213TIP3    H249131   3.350   6.980  14.471
 9214TIP3   OH249132   3.476   6.911  15.190
 9214TIP3    H149133   3.467   6.848  15.117
 9214TIP3    H249134   3.488   6.995  15.147
 9215TIP3   OH249135   2.924   6.592  14.208
 9215TIP3    H149136   2.859   6.660  14.185
 9215TIP3    H249137   2.990   6.599  14.139
 9216TIP3   OH249138   2.958   6.478  13.855
 9216TIP3    H149139   3.012   6.500  13.931
 9216TIP3    H249140   3.010   6.415  13.805
 9217TIP3   OH249141   3.647   6.560  15.040
 9217TIP3    H149142   3.573   6.620  15.030
 9217TIP3    H249143   3.705   6.582  14.967
 9218TIP3   OH249144   3.295   6.611  14.273
 9218TIP3    H149145   3.227   6.630  14.337
 9218TIP3    H249146   3.362   6.565  14.323
 9219TIP3   OH249147   3.260   6.418  15.228
 9219TIP3    H149148   3.256   6.489  15.291
 9219TIP3    H249149   3.195   6.441  15.162
 9220TIP3   OH249150   2.437   6.659  14.464
 9220TIP3    H149151   2.411   6.622  14.379
 9220TIP3    H249152   2.489   6.591  14.505
 9221TIP3   OH249153   2.594   6.949  14.701
 9221TIP3    H149154   2.600   6.954  14.605
 9221TIP3    H249155   2.675   6.905  14.728
 9222TIP3   OH249156   2.436   6.569  14.845
 9222TIP3    H149157   2.489   6.543  14.770
 9222TIP3    H249158   2.488   6.636  14.890
 9223TIP3   OH249159   3.126   7.106  14.950
 9223TIP3    H149160   3.086   7.158  15.019
 9223TIP3    H249161   3.089   7.018  14.962
 9224TIP3   OH249162   2.567   6.980  15.286
 9224TIP3    H149163   2.502   7.031  15.334
 9224TIP3    H249164   2.527   6.962  15.201
 9225TIP3   OH249165   3.154   6.547  14.046
 9225TIP3    H149166   3.207   6.579  14.119
 9225TIP3    H249167   3.207   6.565  13.968
 9226TIP3   OH249168   2.289   6.614  15.245
 9226TIP3    H149169   2.285   6.687  15.307
 9226TIP3    H249170   2.198   6.599  15.220
 9227TIP3   OH249171   2.962   7.177  14.368
 9227TIP3    H149172   3.039   7.229  14.388
 9227TIP3    H249173   2.929   7.214  14.286
 9228TIP3   OH249174   2.377   7.157  15.380
 9228TIP3    H149175   2.373   7.202  15.296
 9228TIP3    H249176   2.286   7.153  15.410
 9229TIP3   OH249177   3.534   5.697  14.044
 9229TIP3    H149178   3.449   5.723  14.080
 9229TIP3    H249179   3.568   5.777  14.004
 9230TIP3   OH249180   2.357   6.582  14.203
 9230TIP3    H149181   2.303   6.653  14.169
 9230TIP3    H249182   2.305   6.503  14.186
 9231TIP3   OH249183   3.645   7.172  13.839
 9231TIP3    H149184   3.637   7.228  13.916
 9231TIP3    H249185   3.736   7.142  13.841
 9232TIP3   OH249186   1.957   6.825  15.142
 9232TIP3    H149187   1.906   6.833  15.062
 9232TIP3    H249188   1.974   6.731  15.151
 9233TIP3   OH249189   1.972   7.115  14.818
 9233TIP3    H149190   2.064   7.090  14.809
 9233TIP3    H249191   1.969   7.169  14.897
 9234TIP3   OH249192   3.737   7.164  15.419
 9234TIP3    H149193   3.721   7.069  15.417
 9234TIP3    H249194   3.651   7.203  15.402
 9235TIP3   OH249195   2.809   7.112  15.297
 9235TIP3    H149196   2.789   7.189  15.350
 9235TIP3    H249197   2.726   7.063  15.294
 9236TIP3   OH249198   3.450   6.289  15.407
 9236TIP3    H149199   3.376   6.325  15.359
 9236TIP3    H249200   3.452   6.196  15.382
 9237TIP3   OH249201   2.172   6.984  15.207
 9237TIP3    H149202   2.200   6.941  15.287
 9237TIP3    H249203   2.095   6.934  15.178
 9238TIP3   OH249204   2.429   5.792  14.830
 9238TIP3    H149205   2.354   5.780  14.772
 9238TIP3    H249206   2.405   5.865  14.887
 9239TIP3   OH249207   2.909   5.762  15.180
 9239TIP3    H149208   2.955   5.718  15.251
 9239TIP3    H249209   2.817   5.758  15.204
 9240TIP3   OH249210   3.198   6.147  15.248
 9240TIP3    H149211   3.135   6.131  15.318
 9240TIP3    H249212   3.202   6.242  15.241
 9241TIP3   OH249213   3.303   6.577  13.821
 9241TIP3    H149214   3.282   6.595  13.729
 9241TIP3    H249215   3.395   6.602  13.830
 9242TIP3   OH249216   2.862   5.995  13.903
 9242TIP3    H149217   2.801   5.996  13.977
 9242TIP3    H249218   2.824   5.931  13.842
 9243TIP3   OH249219   2.440   6.314  14.956
 9243TIP3    H149220   2.376   6.313  15.027
 9243TIP3    H249221   2.442   6.405  14.926
 9244TIP3   OH249222   2.439   6.316  14.439
 9244TIP3    H149223   2.344   6.305  14.436
 9244TIP3    H249224   2.467   6.301  14.348
 9245TIP3   OH249225   2.981   6.346  14.315
 9245TIP3    H149226   2.955   6.432  14.282
 9245TIP3    H249227   3.050   6.318  14.254
 9246TIP3   OH249228   2.904   6.349  15.435
 9246TIP3    H149229   2.848   6.277  15.466
 9246TIP3    H249230   2.986   6.337  15.482
 9247TIP3   OH249231   3.086   6.285  14.566
 9247TIP3    H149232   3.039   6.331  14.496
 9247TIP3    H249233   3.131   6.213  14.522
 9248TIP3   OH249234   2.228   6.315  15.135
 9248TIP3    H149235   2.215   6.357  15.220
 9248TIP3    H249236   2.185   6.230  15.144
 9249TIP3   OH249237   2.551   6.050  13.801
 9249TIP3    H149238   2.515   6.040  13.889
 9249TIP3    H249239   2.491   6.111  13.758
 9250TIP3   OH249240   1.884   6.015  14.524
 9250TIP3    H149241   1.945   6.028  14.596
 9250TIP3    H249242   1.938   6.024  14.445
 9251TIP3   OH249243   1.926   6.108  14.008
 9251TIP3    H149244   1.995   6.150  13.957
 9251TIP3    H249245   1.866   6.179  14.031
 9252TIP3   OH249246   3.048   6.438  15.041
 9252TIP3    H149247   3.081   6.382  14.971
 9252TIP3    H249248   2.982   6.386  15.085
 9253TIP3   OH249249   2.744   6.031  14.525
 9253TIP3    H149250   2.653   6.036  14.554
 9253TIP3    H249251   2.792   5.998  14.601
 9254TIP3   OH249252   2.180   6.226  14.410
 9254TIP3    H149253   2.106   6.252  14.355
 9254TIP3    H249254   2.200   6.137  14.382
 9255TIP3   OH249255   2.506   6.244  14.182
 9255TIP3    H149256   2.600   6.237  14.196
 9255TIP3    H249257   2.497   6.284  14.096
 9256TIP3   OH249258   3.119   5.995  14.847
 9256TIP3    H149259   3.082   5.996  14.935
 9256TIP3    H249260   3.050   5.956  14.793
 9257TIP3   OH249261   2.472   6.332  13.926
 9257TIP3    H149262   2.419   6.305  13.851
 9257TIP3    H249263   2.545   6.380  13.888
 9258TIP3   OH249264   2.239   6.827  15.426
 9258TIP3    H149265   2.307   6.825  15.493
 9258TIP3    H249266   2.156   6.824  15.474
 9259TIP3   OH249267   2.816   6.362  14.722
 9259TIP3    H149268   2.882   6.306  14.681
 9259TIP3    H249269   2.783   6.310  14.795
 9260TIP3   OH249270   2.284   5.964  14.367
 9260TIP3    H149271   2.233   5.888  14.393
 9260TIP3    H249272   2.313   5.944  14.278
 9261TIP3   OH249273   2.705   6.229  14.943
 9261TIP3    H149274   2.619   6.270  14.955
 9261TIP3    H249275   2.755   6.255  15.020
 9262TIP3   OH249276   2.737   6.791  14.138
 9262TIP3    H149277   2.667   6.752  14.084
 9262TIP3    H249278   2.694   6.813  14.220
 9263TIP3   OH249279   3.455   6.746  14.967
 9263TIP3    H149280   3.515   6.801  14.916
 9263TIP3    H249281   3.384   6.725  14.906
 9264TIP3   OH249282   3.111   6.043  14.003
 9264TIP3    H149283   3.022   6.041  13.966
 9264TIP3    H249284   3.124   6.134  14.029
 9265TIP3   OH249285   2.916   6.834  15.281
 9265TIP3    H149286   2.934   6.784  15.361
 9265TIP3    H249287   2.877   6.916  15.313
 9266TIP3   OH249288   3.185   6.281  14.131
 9266TIP3    H149289   3.273   6.267  14.164
 9266TIP3    H249290   3.186   6.369  14.094
 9267TIP3   OH249291   2.261   6.715  14.669
 9267TIP3    H149292   2.316   6.708  14.591
 9267TIP3    H249293   2.304   6.659  14.734
 9268TIP3   OH249294   2.943   6.951  14.056
 9268TIP3    H149295   2.916   7.041  14.072
 9268TIP3    H249296   2.867   6.898  14.082
 9269TIP3   OH249297   2.010   6.562  15.242
 9269TIP3    H149298   2.042   6.523  15.324
 9269TIP3    H249299   1.924   6.522  15.229
 9270TIP3   OH249300   2.683   6.533  15.464
 9270TIP3    H149301   2.619   6.499  15.402
 9270TIP3    H249302   2.764   6.486  15.443
 9271TIP3   OH249303   3.086   7.113  15.260
 9271TIP3    H149304   2.990   7.111  15.262
 9271TIP3    H249305   3.112   7.112  15.352
 9272TIP3   OH249306   3.642   6.319  14.074
 9272TIP3    H149307   3.598   6.301  13.990
 9272TIP3    H249308   3.668   6.411  14.067
 9273TIP3   OH249309   3.685   6.882  15.362
 9273TIP3    H149310   3.602   6.900  15.319
 9273TIP3    H249311   3.748   6.872  15.290
 9274TIP3   OH249312   3.636   7.103  14.155
 9274TIP3    H149313   3.555   7.070  14.195
 9274TIP3    H249314   3.613   7.191  14.124
 9275TIP3   OH249315   3.250   6.672  14.781
 9275TIP3    H149316   3.155   6.662  14.780
 9275TIP3    H249317   3.283   6.594  14.735
 9276TIP3   OH249318   2.446   7.075  14.441
 9276TIP3    H149319   2.462   7.160  14.401
 9276TIP3    H249320   2.351   7.070  14.452
 9277TIP3   OH249321   2.108   6.551  13.929
 9277TIP3    H149322   2.147   6.626  13.975
 9277TIP3    H249323   2.015   6.555  13.951
 9278TIP3   OH249324   2.590   6.862  14.354
 9278TIP3    H149325   2.545   6.942  14.379
 9278TIP3    H249326   2.538   6.792  14.395
 9279TIP3   OH249327   2.701   7.213  15.047
 9279TIP3    H149328   2.683   7.301  15.081
 9279TIP3    H249329   2.755   7.172  15.113
 9280TIP3   OH249330   2.454  -0.014  14.323
 9280TIP3    H149331   2.369   0.019  14.352
 9280TIP3    H249332   2.518   0.036  14.374
 9281TIP3   OH249333   3.015   6.862  15.024
 9281TIP3    H149334   2.979   6.853  15.112
 9281TIP3    H249335   3.074   6.787  15.015
 9282TIP3   OH249336   3.296   6.992  13.940
 9282TIP3    H149337   3.313   6.946  14.022
 9282TIP3    H249338   3.212   6.957  13.910
 9283TIP3   OH249339   3.287   7.290  15.205
 9283TIP3    H149340   3.219   7.223  15.218
 9283TIP3    H249341   3.238   7.372  15.199
 9284TIP3   OH249342   2.107   6.059  15.153
 9284TIP3    H149343   2.018   6.090  15.137
 9284TIP3    H249344   2.096   5.990  15.219
 9285TIP3   OH249345   3.385   6.851  14.167
 9285TIP3    H149346   3.342   6.772  14.200
 9285TIP3    H249347   3.478   6.830  14.169
 9286TIP3   OH249348   2.145   7.228  15.048
 9286TIP3    H149349   2.125   7.162  15.115
 9286TIP3    H249350   2.084   7.299  15.066
 9287TIP3   OH249351   2.697   7.044  13.771
 9287TIP3    H149352   2.694   6.962  13.721
 9287TIP3    H249353   2.654   7.022  13.854
 9288TIP3   OH249354   2.566   7.031  14.015
 9288TIP3    H149355   2.588   6.978  14.091
 9288TIP3    H249356   2.577   7.121  14.044
 9289TIP3   OH249357   2.205   6.770  14.072
 9289TIP3    H149358   2.134   6.815  14.118
 9289TIP3    H249359   2.246   6.838  14.018
 9290TIP3   OH249360   3.009   6.007  15.097
 9290TIP3    H149361   3.077   6.033  15.160
 9290TIP3    H249362   2.974   5.925  15.132
 9291TIP3   OH249363   3.093   5.939  14.258
 9291TIP3    H149364   3.095   5.978  14.170
 9291TIP3    H249365   3.136   6.004  14.314
 9292TIP3   OH249366   2.868   7.219  14.094
 9292TIP3    H149367   2.777   7.249  14.102
 9292TIP3    H249368   2.891   7.235  14.003
 9293TIP3   OH249369   2.761   6.182  14.292
 9293TIP3    H149370   2.835   6.242  14.299
 9293TIP3    H249371   2.754   6.142  14.379
 9294TIP3   OH249372   2.879   6.259  15.163
 9294TIP3    H149373   2.883   6.279  15.256
 9294TIP3    H249374   2.911   6.170  15.155
 9295TIP3   OH249375   2.850   5.843  14.346
 9295TIP3    H149376   2.820   5.913  14.404
 9295TIP3    H249377   2.935   5.873  14.315
 9296TIP3   OH249378   2.599   7.293  14.093
 9296TIP3    H149379   2.571   7.365  14.038
 9296TIP3    H249380   2.548   7.303  14.174
 9297TIP3   OH249381   2.439   6.000  14.055
 9297TIP3    H149382   2.433   6.085  14.099
 9297TIP3    H249383   2.525   5.967  14.080
 9298TIP3   OH249384   3.445   6.038  15.259
 9298TIP3    H149385   3.354   6.068  15.257
 9298TIP3    H249386   3.454   5.984  15.180
 9299TIP3   OH249387   3.325   6.422  14.661
 9299TIP3    H149388   3.240   6.384  14.640
 9299TIP3    H249389   3.365   6.360  14.722
 9300TIP3   OH249390   2.305   6.976  13.918
 9300TIP3    H149391   2.383   7.014  13.959
 9300TIP3    H249392   2.340   6.921  13.848
 9301TIP3   OH249393   2.075   6.283  13.857
 9301TIP3    H149394   2.105   6.365  13.897
 9301TIP3    H249395   2.034   6.311  13.775
 9302TIP3   OH249396   2.181   5.766  14.708
 9302TIP3    H149397   2.171   5.759  14.614
 9302TIP3    H249398   2.145   5.685  14.743
 9303TIP3   OH249399   2.090   7.145  14.410
 9303TIP3    H149400   2.008   7.118  14.454
 9303TIP3    H249401   2.061   7.200  14.337
 9304TIP3   OH249402   2.520   7.267  15.582
 9304TIP3    H149403   2.574   7.201  15.625
 9304TIP3    H249404   2.469   7.218  15.518
 9305TIP3   OH249405   2.906   7.219  13.821
 9305TIP3    H149406   2.834   7.161  13.797
 9305TIP3    H249407   2.975   7.199  13.758
 9306TIP3   OH249408   3.163   7.107  15.520
 9306TIP3    H149409   3.126   7.028  15.560
 9306TIP3    H249410   3.236   7.129  15.577
 9307TIP3   OH249411   3.368   7.213  13.792
 9307TIP3    H149412   3.337   7.146  13.854
 9307TIP3    H249413   3.463   7.209  13.799
 9308TIP3   OH249414   2.003   6.814  15.570
 9308TIP3    H149415   2.003   6.727  15.609
 9308TIP3    H249416   1.925   6.815  15.515
 9309TIP3   OH249417   2.437   6.793  13.763
 9309TIP3    H149418   2.462   6.748  13.844
 9309TIP3    H249419   2.519   6.800  13.713
 9310TIP3   OH249420   2.667   6.820  15.497
 9310TIP3    H149421   2.642   6.852  15.411
 9310TIP3    H249422   2.685   6.727  15.484
 9311TIP3   OH249423   3.060   6.917  13.807
 9311TIP3    H149424   3.006   6.919  13.886
 9311TIP3    H249425   3.032   6.837  13.762
 9312TIP3   OH249426   3.225   6.844  15.287
 9312TIP3    H149427   3.311   6.876  15.258
 9312TIP3    H249428   3.165   6.915  15.266
 9313TIP3   OH249429   2.131   6.442  15.467
 9313TIP3    H149430   2.210   6.392  15.489
 9313TIP3    H249431   2.108   6.488  15.548
 9314TIP3   OH249432   2.535   6.665  13.995
 9314TIP3    H149433   2.479   6.624  14.061
 9314TIP3    H249434   2.578   6.592  13.951
 9315TIP3   OH249435   2.507   6.442  15.264
 9315TIP3    H149436   2.430   6.499  15.258
 9315TIP3    H249437   2.567   6.476  15.197
 9316TIP3   OH249438   2.680   6.488  13.836
 9316TIP3    H149439   2.676   6.513  13.744
 9316TIP3    H249440   2.774   6.478  13.854
 9317TIP3   OH249441   2.988   6.664  15.529
 9317TIP3    H149442   3.069   6.623  15.498
 9317TIP3    H249443   2.950   6.600  15.589
 9318TIP3   OH249444   3.564   6.663  13.795
 9318TIP3    H149445   3.567   6.644  13.702
 9318TIP3    H249446   3.556   6.758  13.800
 9319TIP3   OH249447   2.542   6.176  15.325
 9319TIP3    H149448   2.551   6.122  15.247
 9319TIP3    H249449   2.532   6.265  15.291
 9320TIP3   OH249450   2.575   6.019  15.094
 9320TIP3    H149451   2.626   6.068  15.030
 9320TIP3    H249452   2.488   6.014  15.056
 9321TIP3   OH249453   2.694   6.543  15.094
 9321TIP3    H149454   2.786   6.564  15.108
 9321TIP3    H249455   2.657   6.622  15.055
 9322TIP3   OH249456   3.113   6.305  15.622
 9322TIP3    H149457   3.117   6.229  15.680
 9322TIP3    H249458   3.192   6.355  15.642
 9323TIP3   OH249459   3.274   6.616  15.426
 9323TIP3    H149460   3.244   6.697  15.383
 9323TIP3    H249461   3.369   6.622  15.424
 9324TIP3   OH249462   2.341   6.244  15.510
 9324TIP3    H149463   2.276   6.174  15.506
 9324TIP3    H249464   2.404   6.222  15.441
 9325TIP3   OH249465   2.628   5.759  15.185
 9325TIP3    H149466   2.611   5.850  15.158
 9325TIP3    H249467   2.558   5.709  15.143
 9326TIP3   OH249468   2.748   6.135  15.505
 9326TIP3    H149469   2.698   6.112  15.583
 9326TIP3    H249470   2.681   6.142  15.436
 9327TIP3   OH249471   3.010   6.062  15.421
 9327TIP3    H149472   2.923   6.068  15.461
 9327TIP3    H249473   3.066   6.028  15.490
 9328TIP3   OH249474   3.204   5.969  15.607
 9328TIP3    H149475   3.196   5.874  15.611
 9328TIP3    H249476   3.168   5.999  15.690
 9329TIP3   OH249477   2.159   6.035  15.508
 9329TIP3    H149478   2.161   5.956  15.455
 9329TIP3    H249479   2.160   6.003  15.598
 9330TIP3   OH249480   2.629   5.683  15.450
 9330TIP3    H149481   2.684   5.604  15.442
 9330TIP3    H249482   2.622   5.716  15.361
 9331TIP3   OH249483   2.679   5.849  15.672
 9331TIP3    H149484   2.671   5.793  15.595
 9331TIP3    H249485   2.617   5.921  15.655
 9332TIP3   OH249486   2.023   7.042  13.833
 9332TIP3    H149487   2.088   7.026  13.902
 9332TIP3    H249488   2.010   6.956  13.793
 9333TIP3   OH249489   1.907   7.321  14.623
 9333TIP3    H149490   1.904   7.241  14.675
 9333TIP3    H249491   1.978   7.372  14.661
 9334TIP3   OH249492   3.509   6.903  15.769
 9334TIP3    H149493   3.416   6.918  15.786
 9334TIP3    H249494   3.545   6.990  15.751
 9335TIP3   OH249495   3.648   6.764  14.201
 9335TIP3    H149496   3.720   6.827  14.200
 9335TIP3    H249497   3.670   6.703  14.270
 9336TIP3   OH249498   3.718   6.568  14.381
 9336TIP3    H149499   3.633   6.534  14.410
 9336TIP3    H249500   3.768   6.580  14.462
 9337TIP3   OH249501   3.698   6.876  14.896
 9337TIP3    H149502   3.746   6.802  14.858
 9337TIP3    H249503   3.731   6.952  14.849
 9338TIP3   OH249504   3.484   7.152  15.062
 9338TIP3    H149505   3.415   7.204  15.104
 9338TIP3    H249506   3.451   7.135  14.974
 9339TIP3   OH249507   3.707   6.577  14.010
 9339TIP3    H149508   3.658   6.600  13.931
 9339TIP3    H249509   3.683   6.644  14.074
 9340TIP3   OH249510   3.540   6.290  13.824
 9340TIP3    H149511   3.531   6.345  13.746
 9340TIP3    H249512   3.514   6.203  13.794
 9341TIP3   OH249513   3.468   6.452  14.426
 9341TIP3    H149514   3.461   6.364  14.389
 9341TIP3    H249515   3.424   6.446  14.511
 9342TIP3   OH249516   1.942   6.628  14.863
 9342TIP3    H149517   1.951   6.617  14.768
 9342TIP3    H249518   2.026   6.599  14.898
 9343TIP3   OH249519   3.551   6.639  15.423
 9343TIP3    H149520   3.608   6.565  15.403
 9343TIP3    H249521   3.600   6.716  15.395
 9344TIP3   OH249522   3.695   6.407  15.385
 9344TIP3    H149523   3.608   6.367  15.392
 9344TIP3    H249524   3.755   6.337  15.411
 9345TIP3   OH249525   3.458   6.047  13.731
 9345TIP3    H149526   3.507   5.990  13.790
 9345TIP3    H249527   3.369   6.012  13.731
 9346TIP3   OH249528   3.451   6.214  14.254
 9346TIP3    H149529   3.480   6.123  14.257
 9346TIP3    H249530   3.514   6.258  14.197
 9347TIP3   OH249531   3.471   6.238  14.822
 9347TIP3    H149532   3.563   6.246  14.799
 9347TIP3    H249533   3.466   6.260  14.915
 9348TIP3   OH249534   3.502   6.328  15.085
 9348TIP3    H149535   3.423   6.354  15.133
 9348TIP3    H249536   3.552   6.409  15.076
 9349TIP3   OH249537   1.934   6.164  15.406
 9349TIP3    H149538   2.019   6.144  15.446
 9349TIP3    H249539   1.882   6.084  15.419
 9350TIP3   OH249540   3.723   5.746  15.603
 9350TIP3    H149541   3.794   5.683  15.590
 9350TIP3    H249542   3.735   5.811  15.534
 9351TIP3   OH249543   3.518   5.945  14.269
 9351TIP3    H149544   3.533   5.904  14.355
 9351TIP3    H249545   3.450   5.891  14.229
 9352TIP3   OH249546   2.055   6.012  14.744
 9352TIP3    H149547   2.094   5.925  14.741
 9352TIP3    H249548   2.130   6.071  14.755
 9353TIP3   OH249549   1.858   6.301  14.804
 9353TIP3    H149550   1.930   6.296  14.741
 9353TIP3    H249551   1.881   6.375  14.860
 9354TIP3   OH249552   3.676   5.940  15.415
 9354TIP3    H149553   3.602   5.973  15.467
 9354TIP3    H249554   3.635   5.899  15.339
 9355TIP3   OH249555   3.637   5.914  13.909
 9355TIP3    H149556   3.688   5.863  13.846
 9355TIP3    H249557   3.699   5.978  13.944
 9356TIP3   OH249558   1.920   5.936  14.222
 9356TIP3    H149559   1.826   5.930  14.238
 9356TIP3    H249560   1.929   6.002  14.154
 9357TIP3   OH249561   1.919   5.762  15.059
 9357TIP3    H149562   1.852   5.758  15.127
 9357TIP3    H249563   1.892   5.835  15.002
 9358TIP3   OH249564   2.126   7.188  15.503
 9358TIP3    H149565   2.042   7.190  15.456
 9358TIP3    H249566   2.105   7.147  15.587
 9359TIP3   OH249567   2.406   7.273  15.124
 9359TIP3    H149568   2.318   7.273  15.087
 9359TIP3    H249569   2.454   7.207  15.075
 9360TIP3   OH249570   3.579   5.727  15.233
 9360TIP3    H149571   3.510   5.746  15.170
 9360TIP3    H249572   3.600   5.634  15.220
 9361TIP3   OH249573   2.322   7.237  14.723
 9361TIP3    H149574   2.307   7.145  14.741
 9361TIP3    H249575   2.415   7.250  14.740
 9362TIP3   OH249576   2.592   7.209  14.795
 9362TIP3    H149577   2.597   7.120  14.760
 9362TIP3    H249578   2.632   7.203  14.882
 9363TIP3   OH249579   2.902   5.877  14.699
 9363TIP3    H149580   2.840   5.807  14.720
 9363TIP3    H249581   2.975   5.833  14.656
 9364TIP3   OH249582   3.400   5.702  14.654
 9364TIP3    H149583   3.465   5.758  14.613
 9364TIP3    H249584   3.319   5.753  14.652
 9365TIP3   OH249585   3.595   5.815  14.501
 9365TIP3    H149586   3.659   5.748  14.479
 9365TIP3    H249587   3.647   5.893  14.520
 9366TIP3   OH249588   2.147   5.733  14.437
 9366TIP3    H149589   2.054   5.716  14.418
 9366TIP3    H249590   2.190   5.649  14.421
 9367TIP3   OH249591   2.072   5.753  14.065
 9367TIP3    H149592   2.118   5.810  14.002
 9367TIP3    H249593   2.026   5.814  14.122
 9368TIP3   OH249594   2.649   5.684  14.466
 9368TIP3    H149595   2.715   5.740  14.424
 9368TIP3    H249596   2.665   5.696  14.560
 9369TIP3   OH249597   3.124   5.759  14.587
 9369TIP3    H149598   3.134   5.749  14.492
 9369TIP3    H249599   3.109   5.670  14.618
 9370TIP3   OH249600   3.309   5.781  14.181
 9370TIP3    H149601   3.235   5.838  14.199
 9370TIP3    H249602   3.273   5.692  14.184
 9371TIP3   OH249603   2.015   0.003  14.233
 9371TIP3    H149604   2.037   0.028  14.143
 9371TIP3    H249605   1.936   0.053  14.253
 9372TIP3   OH249606   2.243   5.898  13.879
 9372TIP3    H149607   2.294   5.840  13.822
 9372TIP3    H249608   2.307   5.932  13.941
 9373TIP3   OH249609   2.704   5.969  14.130
 9373TIP3    H149610   2.735   5.896  14.182
 9373TIP3    H249611   2.724   6.047  14.183
 9374TIP3   OH249612   2.165   5.784  15.382
 9374TIP3    H149613   2.105   5.723  15.426
 9374TIP3    H249614   2.249   5.771  15.426
 9375TIP3   OH249615   2.370   5.719  15.555
 9375TIP3    H149616   2.460   5.700  15.526
 9375TIP3    H249617   2.343   5.641  15.603
 9376TIP3   OH249618   3.216   5.691  15.593
 9376TIP3    H149619   3.208   5.643  15.676
 9376TIP3    H249620   3.308   5.680  15.568
 9377TIP3   OH249621   3.492   7.292  15.392
 9377TIP3    H149622   3.417   7.280  15.333
 9377TIP3    H249623   3.454   7.297  15.479
 9378TIP3   OH249624   4.902   6.673  14.503
 9378TIP3    H149625   4.881   6.766  14.492
 9378TIP3    H249626   4.881   6.654  14.594
 9379TIP3   OH249627   4.844   6.579  14.786
 9379TIP3    H149628   4.869   6.554  14.875
 9379TIP3    H249629   4.794   6.504  14.753
 9380TIP3   OH249630   4.052   6.535  14.961
 9380TIP3    H149631   4.057   6.457  15.015
 9380TIP3    H249632   4.133   6.582  14.978
 9381TIP3   OH249633   5.221   6.879  14.624
 9381TIP3    H149634   5.193   6.810  14.684
 9381TIP3    H249635   5.244   6.953  14.680
 9382TIP3   OH249636   4.158   6.972  14.741
 9382TIP3    H149637   4.132   6.884  14.713
 9382TIP3    H249638   4.250   6.962  14.768
 9383TIP3   OH249639   3.850   6.343  14.277
 9383TIP3    H149640   3.815   6.425  14.312
 9383TIP3    H249641   3.785   6.316  14.212
 9384TIP3   OH249642   3.900   6.580  14.592
 9384TIP3    H149643   3.928   6.490  14.608
 9384TIP3    H249644   3.980   6.632  14.603
 9385TIP3   OH249645   4.698   6.823  14.831
 9385TIP3    H149646   4.734   6.740  14.802
 9385TIP3    H249647   4.763   6.857  14.894
 9386TIP3   OH249648   5.576   5.987  14.924
 9386TIP3    H149649   5.591   6.058  14.987
 9386TIP3    H249650   5.638   6.006  14.853
 9387TIP3   OH249651   5.003   6.269  14.837
 9387TIP3    H149652   5.018   6.176  14.853
 9387TIP3    H249653   4.975   6.273  14.746
 9388TIP3   OH249654   4.342   6.075  14.563
 9388TIP3    H149655   4.342   6.159  14.517
 9388TIP3    H249656   4.287   6.018  14.509
 9389TIP3   OH249657   5.131   6.115  14.421
 9389TIP3    H149658   5.168   6.085  14.505
 9389TIP3    H249659   5.207   6.144  14.371
 9390TIP3   OH249660   3.981   6.324  14.652
 9390TIP3    H149661   4.046   6.282  14.708
 9390TIP3    H249662   3.999   6.290  14.564
 9391TIP3   OH249663   4.465   6.471  14.612
 9391TIP3    H149664   4.547   6.432  14.643
 9391TIP3    H249665   4.426   6.404  14.556
 9392TIP3   OH249666   5.611   6.163  15.139
 9392TIP3    H149667   5.530   6.211  15.126
 9392TIP3    H249668   5.626   6.166  15.234
 9393TIP3   OH249669   4.207   5.995  14.989
 9393TIP3    H149670   4.184   6.054  14.918
 9393TIP3    H249671   4.134   6.001  15.051
 9394TIP3   OH249672   4.915   6.863  14.278
 9394TIP3    H149673   4.897   6.891  14.188
 9394TIP3    H249674   4.909   6.944  14.329
 9395TIP3   OH249675   4.468   6.766  14.976
 9395TIP3    H149676   4.417   6.840  15.010
 9395TIP3    H249677   4.539   6.807  14.928
 9396TIP3   OH249678   5.226   6.067  14.670
 9396TIP3    H149679   5.165   6.039  14.738
 9396TIP3    H249680   5.290   6.121  14.716
 9397TIP3   OH249681   4.181   6.164  14.772
 9397TIP3    H149682   4.236   6.223  14.824
 9397TIP3    H249683   4.241   6.129  14.706
 9398TIP3   OH249684   4.321   6.978  15.083
 9398TIP3    H149685   4.330   7.073  15.083
 9398TIP3    H249686   4.230   6.962  15.111
 9399TIP3   OH249687   3.861   6.945  14.185
 9399TIP3    H149688   3.790   7.001  14.153
 9399TIP3    H249689   3.900   6.994  14.258
 9400TIP3   OH249690   5.256   7.107  14.799
 9400TIP3    H149691   5.172   7.109  14.846
 9400TIP3    H249692   5.259   7.191  14.753
 9401TIP3   OH249693   5.324   5.893  15.014
 9401TIP3    H149694   5.260   5.941  14.963
 9401TIP3    H249695   5.409   5.915  14.974
 9402TIP3   OH249696   4.557   5.679  14.744
 9402TIP3    H149697   4.535   5.586  14.748
 9402TIP3    H249698   4.479   5.724  14.775
 9403TIP3   OH249699   5.095   7.263  14.469
 9403TIP3    H149700   5.127   7.182  14.431
 9403TIP3    H249701   5.160   7.286  14.536
 9404TIP3   OH249702   5.191   7.024  14.391
 9404TIP3    H149703   5.225   6.972  14.318
 9404TIP3    H249704   5.206   6.969  14.468
 9405TIP3   OH249705   5.361   6.915  15.193
 9405TIP3    H149706   5.358   6.854  15.120
 9405TIP3    H249707   5.372   7.001  15.153
 9406TIP3   OH249708   4.784   6.623  14.111
 9406TIP3    H149709   4.728   6.700  14.118
 9406TIP3    H249710   4.744   6.570  14.042
 9407TIP3   OH249711   4.841   6.427  13.881
 9407TIP3    H149712   4.904   6.462  13.943
 9407TIP3    H249713   4.865   6.335  13.872
 9408TIP3   OH249714   5.534   6.560  15.037
 9408TIP3    H149715   5.464   6.624  15.027
 9408TIP3    H249716   5.594   6.578  14.965
 9409TIP3   OH249717   5.179   6.653  14.357
 9409TIP3    H149718   5.165   6.703  14.438
 9409TIP3    H249719   5.242   6.585  14.381
 9410TIP3   OH249720   5.141   6.422  15.227
 9410TIP3    H149721   5.138   6.491  15.293
 9410TIP3    H249722   5.079   6.450  15.160
 9411TIP3   OH249723   4.321   6.658  14.461
 9411TIP3    H149724   4.291   6.622  14.378
 9411TIP3    H249725   4.373   6.589  14.501
 9412TIP3   OH249726   4.461   6.962  14.719
 9412TIP3    H149727   4.459   6.974  14.624
 9412TIP3    H249728   4.544   6.916  14.736
 9413TIP3   OH249729   4.330   6.576  14.833
 9413TIP3    H149730   4.384   6.549  14.759
 9413TIP3    H249731   4.382   6.642  14.879
 9414TIP3   OH249732   5.034   7.087  14.962
 9414TIP3    H149733   5.013   7.125  15.048
 9414TIP3    H249734   4.984   7.006  14.960
 9415TIP3   OH249735   4.469   6.974  15.319
 9415TIP3    H149736   4.402   7.026  15.363
 9415TIP3    H249737   4.431   6.954  15.233
 9416TIP3   OH249738   5.105   6.535  14.091
 9416TIP3    H149739   5.179   6.573  14.138
 9416TIP3    H249740   5.118   6.562  14.000
 9417TIP3   OH249741   4.138   6.589  15.269
 9417TIP3    H149742   4.145   6.673  15.315
 9417TIP3    H249743   4.046   6.584  15.243
 9418TIP3   OH249744   4.867   7.124  14.367
 9418TIP3    H149745   4.932   7.178  14.411
 9418TIP3    H249746   4.828   7.182  14.302
 9419TIP3   OH249747   4.256   7.130  15.389
 9419TIP3    H149748   4.254   7.203  15.327
 9419TIP3    H249749   4.170   7.132  15.431
 9420TIP3   OH249750   5.404   5.705  14.031
 9420TIP3    H149751   5.318   5.728  14.065
 9420TIP3    H249752   5.437   5.785  13.991
 9421TIP3   OH249753   4.224   6.586  14.201
 9421TIP3    H149754   4.167   6.657  14.172
 9421TIP3    H249755   4.171   6.507  14.192
 9422TIP3   OH249756   5.547   7.162  13.908
 9422TIP3    H149757   5.562   7.246  13.864
 9422TIP3    H249758   5.632   7.119  13.907
 9423TIP3   OH249759   3.836   6.831  15.139
 9423TIP3    H149760   3.783   6.842  15.060
 9423TIP3    H249761   3.847   6.736  15.148
 9424TIP3   OH249762   3.912   7.108  14.800
 9424TIP3    H149763   3.986   7.051  14.778
 9424TIP3    H249764   3.938   7.150  14.882
 9425TIP3   OH249765   5.630   7.152  15.450
 9425TIP3    H149766   5.618   7.059  15.429
 9425TIP3    H249767   5.542   7.189  15.445
 9426TIP3   OH249768   4.707   7.116  15.318
 9426TIP3    H149769   4.717   7.163  15.401
 9426TIP3    H249770   4.621   7.075  15.325
 9427TIP3   OH249771   5.327   6.294  15.407
 9427TIP3    H149772   5.259   6.330  15.351
 9427TIP3    H249773   5.334   6.202  15.381
 9428TIP3   OH249774   4.064   6.972  15.190
 9428TIP3    H149775   4.090   6.941  15.276
 9428TIP3    H249776   3.983   6.924  15.171
 9429TIP3   OH249777   4.315   5.792  14.831
 9429TIP3    H149778   4.239   5.780  14.775
 9429TIP3    H249779   4.292   5.865  14.888
 9430TIP3   OH249780   4.794   5.770  15.181
 9430TIP3    H149781   4.842   5.723  15.249
 9430TIP3    H249782   4.702   5.762  15.207
 9431TIP3   OH249783   5.076   6.151  15.242
 9431TIP3    H149784   5.017   6.132  15.315
 9431TIP3    H249785   5.082   6.246  15.240
 9432TIP3   OH249786   5.157   6.603  13.830
 9432TIP3    H149787   5.167   6.578  13.738
 9432TIP3    H249788   5.235   6.656  13.848
 9433TIP3   OH249789   4.766   5.985  13.929
 9433TIP3    H149790   4.707   5.984  14.004
 9433TIP3    H249791   4.725   5.928  13.864
 9434TIP3   OH249792   4.320   6.324  14.948
 9434TIP3    H149793   4.254   6.322  15.017
 9434TIP3    H249794   4.318   6.414  14.916
 9435TIP3   OH249795   4.325   6.315  14.431
 9435TIP3    H149796   4.230   6.304  14.427
 9435TIP3    H249797   4.355   6.298  14.342
 9436TIP3   OH249798   4.907   6.390  14.302
 9436TIP3    H149799   4.826   6.339  14.305
 9436TIP3    H249800   4.967   6.337  14.249
 9437TIP3   OH249801   4.792   6.345  15.429
 9437TIP3    H149802   4.739   6.273  15.463
 9437TIP3    H249803   4.875   6.338  15.476
 9438TIP3   OH249804   4.977   6.295  14.565
 9438TIP3    H149805   4.943   6.354  14.497
 9438TIP3    H249806   5.023   6.227  14.517
 9439TIP3   OH249807   4.106   6.312  15.122
 9439TIP3    H149808   4.104   6.352  15.209
 9439TIP3    H249809   4.066   6.225  15.135
 9440TIP3   OH249810   4.455   6.070  13.801
 9440TIP3    H149811   4.415   6.048  13.885
 9440TIP3    H249812   4.391   6.126  13.758
 9441TIP3   OH249813   3.771   6.018  14.515
 9441TIP3    H149814   3.835   6.026  14.586
 9441TIP3    H249815   3.824   6.010  14.436
 9442TIP3   OH249816   3.811   6.106  14.015
 9442TIP3    H149817   3.883   6.147  13.967
 9442TIP3    H249818   3.752   6.178  14.035
 9443TIP3   OH249819   4.931   6.449  15.027
 9443TIP3    H149820   4.967   6.388  14.962
 9443TIP3    H249821   4.868   6.397  15.076
 9444TIP3   OH249822   4.628   6.088  14.558
 9444TIP3    H149823   4.535   6.076  14.574
 9444TIP3    H249824   4.669   6.009  14.591
 9445TIP3   OH249825   4.065   6.230  14.406
 9445TIP3    H149826   3.991   6.260  14.353
 9445TIP3    H249827   4.077   6.138  14.381
 9446TIP3   OH249828   4.408   6.252  14.177
 9446TIP3    H149829   4.503   6.257  14.169
 9446TIP3    H249830   4.375   6.290  14.096
 9447TIP3   OH249831   5.043   5.986  14.859
 9447TIP3    H149832   4.992   5.994  14.940
 9447TIP3    H249833   5.003   5.912  14.813
 9448TIP3   OH249834   4.342   6.344  13.930
 9448TIP3    H149835   4.285   6.312  13.860
 9448TIP3    H249836   4.417   6.382  13.885
 9449TIP3   OH249837   4.123   6.824  15.424
 9449TIP3    H149838   4.190   6.829  15.493
 9449TIP3    H249839   4.040   6.833  15.471
 9450TIP3   OH249840   4.691   6.346  14.720
 9450TIP3    H149841   4.716   6.272  14.665
 9450TIP3    H249842   4.659   6.306  14.801
 9451TIP3   OH249843   4.162   5.961  14.372
 9451TIP3    H149844   4.111   5.886  14.402
 9451TIP3    H249845   4.193   5.936  14.285
 9452TIP3   OH249846   4.583   6.233  14.949
 9452TIP3    H149847   4.498   6.276  14.961
 9452TIP3    H249848   4.635   6.261  15.025
 9453TIP3   OH249849   4.594   6.827  14.118
 9453TIP3    H149850   4.525   6.774  14.078
 9453TIP3    H249851   4.568   6.835  14.210
 9454TIP3   OH249852   5.353   6.756  14.968
 9454TIP3    H149853   5.415   6.810  14.919
 9454TIP3    H249854   5.283   6.737  14.905
 9455TIP3   OH249855   4.959   6.173  13.892
 9455TIP3    H149856   4.891   6.107  13.906
 9455TIP3    H249857   5.001   6.183  13.978
 9456TIP3   OH249858   4.806   6.844  15.288
 9456TIP3    H149859   4.816   6.792  15.368
 9456TIP3    H249860   4.770   6.927  15.319
 9457TIP3   OH249861   5.088   6.257  14.127
 9457TIP3    H149862   5.171   6.230  14.166
 9457TIP3    H249863   5.102   6.349  14.104
 9458TIP3   OH249864   4.141   6.704  14.666
 9458TIP3    H149865   4.199   6.698  14.591
 9458TIP3    H249866   4.184   6.652  14.734
 9459TIP3   OH249867   4.823   6.955  14.031
 9459TIP3    H149868   4.811   7.048  14.050
 9459TIP3    H249869   4.740   6.914  14.054
 9460TIP3   OH249870   3.861   6.563  15.222
 9460TIP3    H149871   3.836   6.524  15.306
 9460TIP3    H249872   3.790   6.540  15.162
 9461TIP3   OH249873   4.571   6.519  15.453
 9461TIP3    H149874   4.506   6.483  15.392
 9461TIP3    H249875   4.651   6.471  15.433
 9462TIP3   OH249876   4.967   7.149  15.225
 9462TIP3    H149877   4.872   7.149  15.238
 9462TIP3    H249878   5.003   7.116  15.307
 9463TIP3   OH249879   5.508   6.329  14.075
 9463TIP3    H149880   5.452   6.317  13.998
 9463TIP3    H249881   5.547   6.416  14.062
 9464TIP3   OH249882   5.573   6.884  15.362
 9464TIP3    H149883   5.489   6.904  15.320
 9464TIP3    H249884   5.634   6.875  15.289
 9465TIP3   OH249885   5.338   7.168  14.108
 9465TIP3    H149886   5.350   7.080  14.145
 9465TIP3    H249887   5.409   7.175  14.043
 9466TIP3   OH249888   5.143   6.668  14.788
 9466TIP3    H149889   5.049   6.654  14.799
 9466TIP3    H249890   5.176   6.586  14.753
 9467TIP3   OH249891   4.367   7.071  14.458
 9467TIP3    H149892   4.377   7.152  14.409
 9467TIP3    H249893   4.274   7.068  14.480
 9468TIP3   OH249894   3.968   6.550  13.935
 9468TIP3    H149895   4.010   6.623  13.980
 9468TIP3    H249896   3.877   6.553  13.963
 9469TIP3   OH249897   4.497   6.849  14.368
 9469TIP3    H149898   4.460   6.933  14.395
 9469TIP3    H249899   4.437   6.784  14.406
 9470TIP3   OH249900   4.612   7.218  15.035
 9470TIP3    H149901   4.601   7.298  15.088
 9470TIP3    H249902   4.660   7.158  15.093
 9471TIP3   OH249903   4.350  -0.023  14.325
 9471TIP3    H149904   4.264   0.010  14.352
 9471TIP3    H249905   4.412   0.027  14.377
 9472TIP3   OH249906   4.902   6.844  15.029
 9472TIP3    H149907   4.859   6.848  15.114
 9472TIP3    H249908   4.985   6.799  15.046
 9473TIP3   OH249909   5.168   6.904  13.947
 9473TIP3    H149910   5.206   6.894  14.035
 9473TIP3    H249911   5.100   6.970  13.958
 9474TIP3   OH249912   5.190   7.308  15.218
 9474TIP3    H149913   5.110   7.255  15.219
 9474TIP3    H249914   5.159   7.398  15.217
 9475TIP3   OH249915   3.990   6.054  15.154
 9475TIP3    H149916   3.901   6.087  15.141
 9475TIP3    H249917   3.979   5.980  15.213
 9476TIP3   OH249918   5.290   6.851  14.193
 9476TIP3    H149919   5.251   6.783  14.248
 9476TIP3    H249920   5.383   6.828  14.188
 9477TIP3   OH249921   4.031   7.212  15.041
 9477TIP3    H149922   4.023   7.139  15.102
 9477TIP3    H249923   3.955   7.267  15.060
 9478TIP3   OH249924   4.570   7.057  13.756
 9478TIP3    H149925   4.584   6.971  13.715
 9478TIP3    H249926   4.528   7.037  13.840
 9479TIP3   OH249927   4.444   7.039  13.999
 9479TIP3    H149928   4.493   6.981  14.058
 9479TIP3    H249929   4.458   7.127  14.034
 9480TIP3   OH249930   4.057   6.774  14.081
 9480TIP3    H149931   3.983   6.820  14.122
 9480TIP3    H249932   4.101   6.841  14.029
 9481TIP3   OH249933   4.896   6.008  15.088
 9481TIP3    H149934   4.961   6.038  15.152
 9481TIP3    H249935   4.859   5.929  15.127
 9482TIP3   OH249936   4.959   5.983  14.257
 9482TIP3    H149937   4.984   6.027  14.175
 9482TIP3    H249938   5.019   6.019  14.323
 9483TIP3   OH249939   4.752   7.215  14.079
 9483TIP3    H149940   4.664   7.250  14.092
 9483TIP3    H249941   4.775   7.240  13.989
 9484TIP3   OH249942   4.727   6.169  14.314
 9484TIP3    H149943   4.798   6.105  14.311
 9484TIP3    H249944   4.686   6.155  14.399
 9485TIP3   OH249945   4.769   6.267  15.158
 9485TIP3    H149946   4.774   6.284  15.252
 9485TIP3    H249947   4.800   6.177  15.147
 9486TIP3   OH249948   4.745   5.828  14.343
 9486TIP3    H149949   4.756   5.837  14.437
 9486TIP3    H249950   4.824   5.867  14.305
 9487TIP3   OH249951   4.486   7.295  14.089
 9487TIP3    H149952   4.459   7.373  14.040
 9487TIP3    H249953   4.438   7.302  14.172
 9488TIP3   OH249954   4.341   6.002  14.047
 9488TIP3    H149955   4.329   6.084  14.095
 9488TIP3    H249956   4.424   5.967  14.080
 9489TIP3   OH249957   5.326   6.048  15.260
 9489TIP3    H149958   5.234   6.073  15.253
 9489TIP3    H249959   5.342   5.990  15.186
 9490TIP3   OH249960   5.215   6.422  14.677
 9490TIP3    H149961   5.131   6.377  14.669
 9490TIP3    H249962   5.268   6.365  14.733
 9491TIP3   OH249963   4.175   6.972  13.925
 9491TIP3    H149964   4.251   7.016  13.963
 9491TIP3    H249965   4.211   6.918  13.855
 9492TIP3   OH249966   3.970   6.276  13.870
 9492TIP3    H149967   3.974   6.369  13.892
 9492TIP3    H249968   3.918   6.273  13.790
 9493TIP3   OH249969   4.068   5.762  14.711
 9493TIP3    H149970   4.056   5.753  14.616
 9493TIP3    H249971   4.034   5.680  14.747
 9494TIP3   OH249972   3.934   7.131  14.382
 9494TIP3    H149973   3.878   7.148  14.458
 9494TIP3    H249974   3.917   7.205  14.323
 9495TIP3   OH249975   4.360   7.205  15.713
 9495TIP3    H149976   4.423   7.266  15.753
 9495TIP3    H249977   4.391   7.195  15.623
 9496TIP3   OH249978   4.784   7.230  13.805
 9496TIP3    H149979   4.715   7.171  13.777
 9496TIP3    H249980   4.856   7.214  13.743
 9497TIP3   OH249981   5.059   7.058  15.461
 9497TIP3    H149982   5.014   7.002  15.523
 9497TIP3    H249983   5.112   7.117  15.515
 9498TIP3   OH249984   5.227   7.202  13.778
 9498TIP3    H149985   5.262   7.259  13.847
 9498TIP3    H249986   5.292   7.207  13.708
 9499TIP3   OH249987   3.876   6.820  15.556
 9499TIP3    H149988   3.888   6.725  15.550
 9499TIP3    H249989   3.801   6.839  15.500
 9500TIP3   OH249990   4.320   6.798  13.768
 9500TIP3    H149991   4.340   6.751  13.848
 9500TIP3    H249992   4.404   6.805  13.722
 9501TIP3   OH249993   4.540   6.790  15.514
 9501TIP3    H149994   4.523   6.835  15.431
 9501TIP3    H249995   4.559   6.699  15.488
 9502TIP3   OH249996   4.876   6.929  13.754
 9502TIP3    H149997   4.859   6.941  13.848
 9502TIP3    H249998   4.878   6.834  13.742
 9503TIP3   OH249999   5.112   6.820  15.265
 9503TIP3    H150000   5.195   6.864  15.247
 9503TIP3    H250001   5.055   6.890  15.297
 9504TIP3   OH250002   3.962   6.557  15.523
 9504TIP3    H150003   4.047   6.535  15.486
 9504TIP3    H250004   3.973   6.543  15.617
 9505TIP3   OH250005   4.412   6.659  13.999
 9505TIP3    H150006   4.351   6.621  14.063
 9505TIP3    H250007   4.448   6.583  13.954
 9506TIP3   OH250008   4.376   6.436  15.264
 9506TIP3    H150009   4.299   6.493  15.263
 9506TIP3    H250010   4.433   6.472  15.196
 9507TIP3   OH250011   4.565   6.479  13.838
 9507TIP3    H150012   4.559   6.504  13.745
 9507TIP3    H250013   4.656   6.451  13.849
 9508TIP3   OH250014   4.882   6.670  15.523
 9508TIP3    H150015   4.963   6.629  15.495
 9508TIP3    H250016   4.845   6.609  15.587
 9509TIP3   OH250017   5.427   6.682  13.805
 9509TIP3    H150018   5.443   6.661  13.713
 9509TIP3    H250019   5.425   6.778  13.808
 9510TIP3   OH250020   4.422   6.176  15.339
 9510TIP3    H150021   4.432   6.119  15.264
 9510TIP3    H250022   4.408   6.263  15.302
 9511TIP3   OH250023   4.455   6.024  15.104
 9511TIP3    H150024   4.507   6.074  15.040
 9511TIP3    H250025   4.369   6.016  15.064
 9512TIP3   OH250026   4.565   6.541  15.098
 9512TIP3    H150027   4.657   6.557  15.118
 9512TIP3    H250028   4.534   6.622  15.058
 9513TIP3   OH250029   5.008   6.302  15.607
 9513TIP3    H150030   4.998   6.231  15.671
 9513TIP3    H250031   5.102   6.317  15.602
 9514TIP3   OH250032   5.164   6.614  15.432
 9514TIP3    H150033   5.138   6.688  15.378
 9514TIP3    H250034   5.259   6.618  15.436
 9515TIP3   OH250035   4.250   6.229  15.555
 9515TIP3    H150036   4.174   6.173  15.538
 9515TIP3    H250037   4.304   6.221  15.476
 9516TIP3   OH250038   4.513   5.761  15.182
 9516TIP3    H150039   4.493   5.851  15.158
 9516TIP3    H250040   4.443   5.710  15.140
 9517TIP3   OH250041   4.637   6.136  15.512
 9517TIP3    H150042   4.598   6.111  15.595
 9517TIP3    H250043   4.564   6.141  15.451
 9518TIP3   OH250044   4.896   6.060  15.420
 9518TIP3    H150045   4.811   6.065  15.463
 9518TIP3    H250046   4.954   6.023  15.487
 9519TIP3   OH250047   5.091   5.968  15.603
 9519TIP3    H150048   5.084   5.873  15.608
 9519TIP3    H250049   5.055   5.999  15.686
 9520TIP3   OH250050   4.050   6.037  15.515
 9520TIP3    H150051   4.052   5.965  15.452
 9520TIP3    H250052   4.057   5.995  15.600
 9521TIP3   OH250053   4.515   5.680  15.444
 9521TIP3    H150054   4.570   5.603  15.439
 9521TIP3    H250055   4.510   5.712  15.354
 9522TIP3   OH250056   4.570   5.834  15.670
 9522TIP3    H150057   4.558   5.781  15.591
 9522TIP3    H250058   4.511   5.908  15.658
 9523TIP3   OH250059   3.910   7.051  13.833
 9523TIP3    H150060   3.987   7.033  13.888
 9523TIP3    H250061   3.895   6.969  13.786
 9524TIP3   OH250062   3.817   7.297  14.613
 9524TIP3    H150063   3.829   7.225  14.675
 9524TIP3    H250064   3.869   7.369  14.650
 9525TIP3   OH250065   5.430   6.948  15.762
 9525TIP3    H150066   5.339   6.968  15.786
 9525TIP3    H250067   5.471   7.033  15.751
 9526TIP3   OH250068   5.549   6.762  14.202
 9526TIP3    H150069   5.623   6.822  14.194
 9526TIP3    H250070   5.574   6.702  14.271
 9527TIP3   OH250071   5.603   6.566  14.386
 9527TIP3    H150072   5.521   6.532  14.422
 9527TIP3    H250073   5.660   6.578  14.462
 9528TIP3   OH250074   5.595   6.881  14.890
 9528TIP3    H150075   5.642   6.805  14.857
 9528TIP3    H250076   5.638   6.956  14.849
 9529TIP3   OH250077   5.369   7.158  15.065
 9529TIP3    H150078   5.294   7.207  15.100
 9529TIP3    H250079   5.347   7.142  14.973
 9530TIP3   OH250080   5.588   6.580  14.000
 9530TIP3    H150081   5.533   6.612  13.928
 9530TIP3    H250082   5.577   6.646  14.069
 9531TIP3   OH250083   5.373   6.318  13.830
 9531TIP3    H150084   5.436   6.368  13.778
 9531TIP3    H250085   5.373   6.231  13.789
 9532TIP3   OH250086   5.348   6.449  14.436
 9532TIP3    H150087   5.356   6.360  14.402
 9532TIP3    H250088   5.312   6.438  14.524
 9533TIP3   OH250089   3.827   6.637  14.848
 9533TIP3    H150090   3.836   6.620  14.754
 9533TIP3    H250091   3.909   6.607  14.887
 9534TIP3   OH250092   5.442   6.642  15.443
 9534TIP3    H150093   5.495   6.566  15.418
 9534TIP3    H250094   5.487   6.717  15.404
 9535TIP3   OH250095   5.575   6.409  15.384
 9535TIP3    H150096   5.489   6.368  15.388
 9535TIP3    H250097   5.636   6.338  15.406
 9536TIP3   OH250098   5.350   6.071  13.713
 9536TIP3    H150099   5.401   6.014  13.771
 9536TIP3    H250100   5.267   6.025  13.700
 9537TIP3   OH250101   5.336   6.201  14.253
 9537TIP3    H150102   5.368   6.111  14.258
 9537TIP3    H250103   5.401   6.247  14.201
 9538TIP3   OH250104   5.374   6.246  14.821
 9538TIP3    H150105   5.466   6.258  14.801
 9538TIP3    H250106   5.367   6.263  14.915
 9539TIP3   OH250107   5.388   6.330  15.086
 9539TIP3    H150108   5.309   6.359  15.131
 9539TIP3    H250109   5.440   6.410  15.076
 9540TIP3   OH250110   3.829   6.166  15.412
 9540TIP3    H150111   3.912   6.139  15.449
 9540TIP3    H250112   3.772   6.090  15.422
 9541TIP3   OH250113   5.611   5.752  15.602
 9541TIP3    H150114   5.680   5.687  15.585
 9541TIP3    H250115   5.620   5.816  15.532
 9542TIP3   OH250116   5.394   5.932  14.272
 9542TIP3    H150117   5.417   5.893  14.356
 9542TIP3    H250118   5.327   5.874  14.236
 9543TIP3   OH250119   3.947   6.011  14.728
 9543TIP3    H150120   3.983   5.922  14.734
 9543TIP3    H250121   4.021   6.068  14.749
 9544TIP3   OH250122   3.744   6.282  14.807
 9544TIP3    H150123   3.813   6.285  14.741
 9544TIP3    H250124   3.773   6.343  14.875
 9545TIP3   OH250125   5.559   5.936  15.406
 9545TIP3    H150126   5.481   5.970  15.450
 9545TIP3    H250127   5.525   5.880  15.337
 9546TIP3   OH250128   5.508   5.927  13.896
 9546TIP3    H150129   5.561   5.870  13.841
 9546TIP3    H250130   5.571   5.983  13.940
 9547TIP3   OH250131   3.807   5.937  14.228
 9547TIP3    H150132   3.713   5.930  14.242
 9547TIP3    H250133   3.816   6.000  14.157
 9548TIP3   OH250134   3.800   5.767  15.058
 9548TIP3    H150135   3.734   5.759  15.127
 9548TIP3    H250136   3.770   5.840  15.003
 9549TIP3   OH250137   4.006   7.155  15.501
 9549TIP3    H150138   3.924   7.170  15.455
 9549TIP3    H250139   3.981   7.135  15.591
 9550TIP3   OH250140   4.301   7.267  15.084
 9550TIP3    H150141   4.206   7.259  15.073
 9550TIP3    H250142   4.335   7.272  14.995
 9551TIP3   OH250143   5.467   5.716  15.239
 9551TIP3    H150144   5.393   5.724  15.180
 9551TIP3    H250145   5.499   5.627  15.227
 9552TIP3   OH250146   4.196   7.237  14.669
 9552TIP3    H150147   4.166   7.148  14.691
 9552TIP3    H250148   4.283   7.242  14.708
 9553TIP3   OH250149   4.441   7.215  14.824
 9553TIP3    H150150   4.446   7.127  14.785
 9553TIP3    H250151   4.505   7.214  14.895
 9554TIP3   OH250152   4.757   5.841  14.617
 9554TIP3    H150153   4.704   5.784  14.672
 9554TIP3    H250154   4.845   5.805  14.622
 9555TIP3   OH250155   5.302   5.726  14.685
 9555TIP3    H150156   5.369   5.776  14.638
 9555TIP3    H250157   5.223   5.780  14.676
 9556TIP3   OH250158   5.486   5.819  14.505
 9556TIP3    H150159   5.547   5.749  14.485
 9556TIP3    H250160   5.541   5.896  14.521
 9557TIP3   OH250161   4.028   5.728  14.440
 9557TIP3    H150162   3.936   5.710  14.419
 9557TIP3    H250163   4.072   5.645  14.424
 9558TIP3   OH250164   3.966   5.753  14.076
 9558TIP3    H150165   4.009   5.808  14.010
 9558TIP3    H250166   3.916   5.815  14.129
 9559TIP3   OH250167   4.513   5.700  14.458
 9559TIP3    H150168   4.585   5.749  14.419
 9559TIP3    H250169   4.531   5.702  14.552
 9560TIP3   OH250170   5.015   5.734  14.602
 9560TIP3    H150171   5.070   5.709  14.528
 9560TIP3    H250172   4.997   5.651  14.647
 9561TIP3   OH250173   5.176   5.779  14.180
 9561TIP3    H150174   5.097   5.827  14.204
 9561TIP3    H250175   5.153   5.687  14.193
 9562TIP3   OH250176   3.904   0.030  14.253
 9562TIP3    H150177   3.922   0.038  14.159
 9562TIP3    H250178   3.850   0.106  14.273
 9563TIP3   OH250179   4.136   5.892  13.886
 9563TIP3    H150180   4.183   5.830  13.829
 9563TIP3    H250181   4.204   5.927  13.944
 9564TIP3   OH250182   4.598   5.977  14.151
 9564TIP3    H150183   4.623   5.899  14.201
 9564TIP3    H250184   4.621   6.050  14.208
 9565TIP3   OH250185   4.049   5.787  15.379
 9565TIP3    H150186   3.989   5.727  15.423
 9565TIP3    H250187   4.134   5.771  15.420
 9566TIP3   OH250188   4.257   5.714  15.543
 9566TIP3    H150189   4.347   5.696  15.515
 9566TIP3    H250190   4.233   5.638  15.596
 9567TIP3   OH250191   5.101   5.690  15.592
 9567TIP3    H150192   5.092   5.643  15.675
 9567TIP3    H250193   5.193   5.678  15.567
 9568TIP3   OH250194   5.380   7.275  15.436
 9568TIP3    H150195   5.310   7.262  15.373
 9568TIP3    H250196   5.408   7.366  15.422
 9569TIP3   OH250197   6.835   6.670  14.426
 9569TIP3    H150198   6.824   6.765  14.421
 9569TIP3    H250199   6.774   6.634  14.362
 9570TIP3   OH250200   6.704   6.588  14.815
 9570TIP3    H150201   6.739   6.544  14.893
 9570TIP3    H250202   6.661   6.518  14.766
 9571TIP3   OH250203   5.941   6.519  14.948
 9571TIP3    H150204   5.955   6.449  15.013
 9571TIP3    H250205   6.029   6.541  14.917
 9572TIP3   OH250206   7.105   6.906  14.652
 9572TIP3    H150207   7.059   6.834  14.696
 9572TIP3    H250208   7.120   6.970  14.721
 9573TIP3   OH250209   6.044   6.971  14.730
 9573TIP3    H150210   6.016   6.885  14.700
 9573TIP3    H250211   6.138   6.962  14.746
 9574TIP3   OH250212   5.729   6.336  14.279
 9574TIP3    H150213   5.701   6.420  14.316
 9574TIP3    H250214   5.666   6.317  14.210
 9575TIP3   OH250215   5.787   6.578  14.591
 9575TIP3    H150216   5.818   6.489  14.608
 9575TIP3    H250217   5.866   6.632  14.598
 9576TIP3   OH250218   6.563   6.830  14.823
 9576TIP3    H150219   6.601   6.746  14.797
 9576TIP3    H250220   6.633   6.874  14.872
 9577TIP3   OH250221   6.887   6.262  14.836
 9577TIP3    H150222   6.894   6.168  14.851
 9577TIP3    H250223   6.865   6.270  14.743
 9578TIP3   OH250224   6.233   6.070  14.565
 9578TIP3    H150225   6.238   6.154  14.520
 9578TIP3    H250226   6.179   6.015  14.509
 9579TIP3   OH250227   6.986   6.102  14.421
 9579TIP3    H150228   7.027   6.053  14.492
 9579TIP3    H250229   7.058   6.131  14.367
 9580TIP3   OH250230   5.873   6.323  14.649
 9580TIP3    H150231   5.939   6.281  14.704
 9580TIP3    H250232   5.891   6.290  14.561
 9581TIP3   OH250233   6.337   6.468  14.626
 9581TIP3    H150234   6.424   6.435  14.649
 9581TIP3    H250235   6.302   6.403  14.565
 9582TIP3   OH250236   6.091   5.995  14.991
 9582TIP3    H150237   6.068   6.053  14.918
 9582TIP3    H250238   6.018   6.004  15.052
 9583TIP3   OH250239   6.775   6.919  14.332
 9583TIP3    H150240   6.784   6.934  14.238
 9583TIP3    H250241   6.743   7.003  14.367
 9584TIP3   OH250242   6.345   6.759  14.978
 9584TIP3    H150243   6.294   6.835  15.007
 9584TIP3    H250244   6.415   6.798  14.925
 9585TIP3   OH250245   7.085   5.995  14.655
 9585TIP3    H150246   7.015   5.986  14.720
 9585TIP3    H250247   7.155   6.042  14.701
 9586TIP3   OH250248   6.068   6.160  14.770
 9586TIP3    H150249   6.125   6.216  14.822
 9586TIP3    H250250   6.125   6.122  14.703
 9587TIP3   OH250251   6.197   6.973  15.080
 9587TIP3    H150252   6.204   7.068  15.068
 9587TIP3    H250253   6.107   6.959  15.110
 9588TIP3   OH250254   5.766   6.925  14.163
 9588TIP3    H150255   5.765   6.976  14.082
 9588TIP3    H250256   5.780   6.991  14.232
 9589TIP3   OH250257   7.122   7.108  14.847
 9589TIP3    H150258   7.034   7.108  14.884
 9589TIP3    H250259   7.132   7.195  14.808
 9590TIP3   OH250260   7.148   5.911  14.969
 9590TIP3    H150261   7.056   5.929  14.947
 9590TIP3    H250262   7.197   5.978  14.922
 9591TIP3   OH250263   6.449   5.695  14.749
 9591TIP3    H150264   6.426   5.602  14.746
 9591TIP3    H250265   6.369   5.739  14.778
 9592TIP3   OH250266   6.964   7.258  14.420
 9592TIP3    H150267   7.017   7.179  14.428
 9592TIP3    H250268   6.997   7.302  14.341
 9593TIP3   OH250269   7.122   7.036  14.409
 9593TIP3    H150270   7.131   6.970  14.341
 9593TIP3    H250271   7.119   6.985  14.491
 9594TIP3   OH250272   7.216   6.877  15.199
 9594TIP3    H150273   7.208   6.825  15.119
 9594TIP3    H250274   7.261   6.957  15.171
 9595TIP3   OH250275   6.703   6.596  14.190
 9595TIP3    H150276   6.643   6.667  14.165
 9595TIP3    H250277   6.772   6.599  14.124
 9596TIP3   OH250278   6.749   6.458  13.849
 9596TIP3    H150279   6.805   6.487  13.921
 9596TIP3    H250280   6.805   6.397  13.799
 9597TIP3   OH250281   7.058   6.621  14.273
 9597TIP3    H150282   6.989   6.642  14.335
 9597TIP3    H250283   7.115   6.560  14.320
 9598TIP3   OH250284   7.008   6.433  15.223
 9598TIP3    H150285   7.005   6.515  15.271
 9598TIP3    H250286   6.942   6.443  15.154
 9599TIP3   OH250287   6.213   6.658  14.455
 9599TIP3    H150288   6.191   6.619  14.370
 9599TIP3    H250289   6.265   6.591  14.500
 9600TIP3   OH250290   6.329   6.945  14.713
 9600TIP3    H150291   6.335   6.971  14.622
 9600TIP3    H250292   6.412   6.901  14.732
 9601TIP3   OH250293   6.196   6.571  14.841
 9601TIP3    H150294   6.251   6.544  14.767
 9601TIP3    H250295   6.249   6.637  14.887
 9602TIP3   OH250296   6.882   7.113  14.975
 9602TIP3    H150297   6.887   7.131  15.069
 9602TIP3    H250298   6.844   7.025  14.970
 9603TIP3   OH250299   6.356   6.979  15.309
 9603TIP3    H150300   6.292   7.038  15.348
 9603TIP3    H250301   6.317   6.951  15.226
 9604TIP3   OH250302   6.940   6.556  14.033
 9604TIP3    H150303   6.986   6.588  14.111
 9604TIP3    H250304   6.990   6.591  13.960
 9605TIP3   OH250305   6.022   6.590  15.285
 9605TIP3    H150306   6.027   6.679  15.321
 9605TIP3    H250307   5.935   6.586  15.244
 9606TIP3   OH250308   6.699   7.182  14.376
 9606TIP3    H150309   6.785   7.213  14.404
 9606TIP3    H250310   6.687   7.219  14.288
 9607TIP3   OH250311   6.158   7.164  15.364
 9607TIP3    H150312   6.156   7.201  15.276
 9607TIP3    H250313   6.067   7.163  15.392
 9608TIP3   OH250314   7.246   5.820  13.946
 9608TIP3    H150315   7.185   5.786  14.012
 9608TIP3    H250316   7.331   5.784  13.972
 9609TIP3   OH250317   6.138   6.573  14.196
 9609TIP3    H150318   6.076   6.636  14.160
 9609TIP3    H250319   6.103   6.488  14.170
 9610TIP3   OH250320   5.724   6.840  15.140
 9610TIP3    H150321   5.677   6.852  15.057
 9610TIP3    H250322   5.738   6.746  15.147
 9611TIP3   OH250323   5.784   7.082  14.792
 9611TIP3    H150324   5.867   7.039  14.769
 9611TIP3    H250325   5.804   7.130  14.872
 9612TIP3   OH250326   6.602   7.103  15.305
 9612TIP3    H150327   6.604   7.155  15.386
 9612TIP3    H250328   6.515   7.062  15.306
 9613TIP3   OH250329   7.162   6.343  15.471
 9613TIP3    H150330   7.131   6.371  15.385
 9613TIP3    H250331   7.239   6.290  15.452
 9614TIP3   OH250332   5.947   6.989  15.200
 9614TIP3    H150333   5.971   6.951  15.284
 9614TIP3    H250334   5.868   6.942  15.174
 9615TIP3   OH250335   6.198   5.794  14.830
 9615TIP3    H150336   6.122   5.781  14.774
 9615TIP3    H250337   6.172   5.866  14.888
 9616TIP3   OH250338   6.672   5.777  15.175
 9616TIP3    H150339   6.718   5.728  15.242
 9616TIP3    H250340   6.579   5.769  15.197
 9617TIP3   OH250341   7.013   6.151  15.256
 9617TIP3    H150342   6.948   6.131  15.324
 9617TIP3    H250343   7.007   6.246  15.245
 9618TIP3   OH250344   7.088   6.646  13.821
 9618TIP3    H150345   7.081   6.613  13.732
 9618TIP3    H250346   7.129   6.732  13.811
 9619TIP3   OH250347   6.625   6.012  13.907
 9619TIP3    H150348   6.564   6.007  13.980
 9619TIP3    H250349   6.598   5.942  13.848
 9620TIP3   OH250350   6.215   6.314  14.947
 9620TIP3    H150351   6.151   6.310  15.017
 9620TIP3    H250352   6.215   6.405  14.919
 9621TIP3   OH250353   6.209   6.312  14.436
 9621TIP3    H150354   6.114   6.300  14.432
 9621TIP3    H250355   6.239   6.298  14.346
 9622TIP3   OH250356   6.744   6.350  14.308
 9622TIP3    H150357   6.721   6.436  14.272
 9622TIP3    H250358   6.817   6.320  14.253
 9623TIP3   OH250359   6.681   6.348  15.426
 9623TIP3    H150360   6.632   6.275  15.465
 9623TIP3    H250361   6.767   6.343  15.468
 9624TIP3   OH250362   6.843   6.289  14.567
 9624TIP3    H150363   6.803   6.341  14.497
 9624TIP3    H250364   6.887   6.217  14.521
 9625TIP3   OH250365   6.003   6.306  15.123
 9625TIP3    H150366   6.027   6.338  15.210
 9625TIP3    H250367   5.958   6.223  15.139
 9626TIP3   OH250368   6.310   6.040  13.759
 9626TIP3    H150369   6.254   6.039  13.837
 9626TIP3    H250370   6.250   6.024  13.686
 9627TIP3   OH250371   5.664   6.021  14.517
 9627TIP3    H150372   5.718   6.030  14.596
 9627TIP3    H250373   5.728   6.012  14.446
 9628TIP3   OH250374   5.673   6.113  14.020
 9628TIP3    H150375   5.748   6.154  13.977
 9628TIP3    H250376   5.615   6.186  14.042
 9629TIP3   OH250377   6.800   6.434  15.028
 9629TIP3    H150378   6.840   6.377  14.962
 9629TIP3    H250379   6.740   6.377  15.076
 9630TIP3   OH250380   6.519   6.033  14.529
 9630TIP3    H150381   6.428   6.034  14.560
 9630TIP3    H250382   6.569   5.995  14.602
 9631TIP3   OH250383   5.949   6.224  14.406
 9631TIP3    H150384   5.877   6.251  14.349
 9631TIP3    H250385   5.970   6.135  14.379
 9632TIP3   OH250386   6.271   6.246  14.176
 9632TIP3    H150387   6.365   6.234  14.194
 9632TIP3    H250388   6.269   6.290  14.091
 9633TIP3   OH250389   6.885   5.983  14.857
 9633TIP3    H150390   6.848   5.994  14.945
 9633TIP3    H250391   6.814   5.945  14.805
 9634TIP3   OH250392   6.241   6.357  13.927
 9634TIP3    H150393   6.180   6.349  13.853
 9634TIP3    H250394   6.322   6.389  13.888
 9635TIP3   OH250395   6.008   6.834  15.429
 9635TIP3    H150396   6.074   6.824  15.497
 9635TIP3    H250397   5.924   6.840  15.476
 9636TIP3   OH250398   6.578   6.355  14.715
 9636TIP3    H150399   6.646   6.305  14.669
 9636TIP3    H250400   6.551   6.297  14.787
 9637TIP3   OH250401   6.050   5.959  14.376
 9637TIP3    H150402   6.000   5.881  14.402
 9637TIP3    H250403   6.096   5.933  14.297
 9638TIP3   OH250404   6.477   6.219  14.940
 9638TIP3    H150405   6.392   6.261  14.951
 9638TIP3    H250406   6.525   6.242  15.019
 9639TIP3   OH250407   6.519   6.803  14.114
 9639TIP3    H150408   6.452   6.759  14.063
 9639TIP3    H250409   6.478   6.819  14.199
 9640TIP3   OH250410   7.178   6.731  14.974
 9640TIP3    H150411   7.259   6.707  14.929
 9640TIP3    H250412   7.110   6.718  14.908
 9641TIP3   OH250413   6.880   6.055  13.998
 9641TIP3    H150414   6.790   6.056  13.965
 9641TIP3    H250415   6.894   6.144  14.031
 9642TIP3   OH250416   6.699   6.836  15.260
 9642TIP3    H150417   6.701   6.784  15.340
 9642TIP3    H250418   6.665   6.921  15.287
 9643TIP3   OH250419   6.956   6.290  14.134
 9643TIP3    H150420   7.043   6.271  14.170
 9643TIP3    H250421   6.965   6.376  14.094
 9644TIP3   OH250422   6.027   6.704  14.653
 9644TIP3    H150423   6.087   6.700  14.578
 9644TIP3    H250424   6.073   6.659  14.724
 9645TIP3   OH250425   6.740   6.951  14.046
 9645TIP3    H150426   6.711   7.042  14.057
 9645TIP3    H250427   6.663   6.899  14.066
 9646TIP3   OH250428   5.745   6.573  15.222
 9646TIP3    H150429   5.722   6.530  15.304
 9646TIP3    H250430   5.675   6.547  15.161
 9647TIP3   OH250431   6.464   6.526  15.444
 9647TIP3    H150432   6.403   6.489  15.380
 9647TIP3    H250433   6.547   6.481  15.428
 9648TIP3   OH250434   6.878   7.154  15.249
 9648TIP3    H150435   6.783   7.145  15.248
 9648TIP3    H250436   6.903   7.141  15.341
 9649TIP3   OH250437   7.323   7.173  14.100
 9649TIP3    H150438   7.273   7.109  14.151
 9649TIP3    H250439   7.375   7.119  14.039
 9650TIP3   OH250440   6.979   6.682  14.784
 9650TIP3    H150441   6.885   6.670  14.769
 9650TIP3    H250442   7.020   6.611  14.735
 9651TIP3   OH250443   6.300   7.083  14.471
 9651TIP3    H150444   6.356   7.156  14.443
 9651TIP3    H250445   6.211   7.113  14.454
 9652TIP3   OH250446   5.847   6.559  13.902
 9652TIP3    H150447   5.898   6.622  13.955
 9652TIP3    H250448   5.759   6.563  13.939
 9653TIP3   OH250449   6.370   6.853  14.334
 9653TIP3    H150450   6.354   6.935  14.381
 9653TIP3    H250451   6.316   6.788  14.380
 9654TIP3   OH250452   6.491   7.228  15.032
 9654TIP3    H150453   6.549   7.303  15.018
 9654TIP3    H250454   6.539   7.172  15.093
 9655TIP3   OH250455   6.226  -0.000  14.303
 9655TIP3    H150456   6.142   0.024  14.342
 9655TIP3    H250457   6.291   0.037  14.363
 9656TIP3   OH250458   6.784   6.857  14.996
 9656TIP3    H150459   6.753   6.834  15.083
 9656TIP3    H250460   6.846   6.788  14.974
 9657TIP3   OH250461   7.010   6.925  13.981
 9657TIP3    H150462   7.057   6.909  14.063
 9657TIP3    H250463   6.919   6.935  14.007
 9658TIP3   OH250464   7.123   7.301  15.198
 9658TIP3    H150465   7.047   7.244  15.214
 9658TIP3    H250466   7.086   7.377  15.152
 9659TIP3   OH250467   5.873   6.053  15.154
 9659TIP3    H150468   5.785   6.089  15.140
 9659TIP3    H250469   5.858   5.967  15.192
 9660TIP3   OH250470   7.170   6.860  14.197
 9660TIP3    H150471   7.139   6.774  14.223
 9660TIP3    H250472   7.266   6.851  14.193
 9661TIP3   OH250473   5.863   7.214  15.019
 9661TIP3    H150474   5.888   7.161  15.095
 9661TIP3    H250475   5.823   7.292  15.055
 9662TIP3   OH250476   6.449   7.065  13.750
 9662TIP3    H150477   6.460   6.978  13.710
 9662TIP3    H250478   6.421   7.046  13.839
 9663TIP3   OH250479   6.344   7.035  14.002
 9663TIP3    H150480   6.385   6.978  14.067
 9663TIP3    H250481   6.357   7.124  14.037
 9664TIP3   OH250482   5.963   6.751  14.070
 9664TIP3    H150483   5.894   6.797  14.117
 9664TIP3    H250484   6.010   6.821  14.023
 9665TIP3   OH250485   6.790   6.017  15.111
 9665TIP3    H150486   6.855   6.034  15.179
 9665TIP3    H250487   6.747   5.936  15.137
 9666TIP3   OH250488   6.860   5.926  14.242
 9666TIP3    H150489   6.868   5.968  14.157
 9666TIP3    H250490   6.900   5.989  14.303
 9667TIP3   OH250491   6.644   7.209  14.078
 9667TIP3    H150492   6.556   7.244  14.089
 9667TIP3    H250493   6.668   7.232  13.989
 9668TIP3   OH250494   6.523   6.184  14.294
 9668TIP3    H150495   6.598   6.244  14.296
 9668TIP3    H250496   6.522   6.143  14.381
 9669TIP3   OH250497   6.643   6.254  15.162
 9669TIP3    H150498   6.655   6.278  15.254
 9669TIP3    H250499   6.686   6.169  15.154
 9670TIP3   OH250500   6.615   5.846  14.341
 9670TIP3    H150501   6.592   5.917  14.401
 9670TIP3    H250502   6.701   5.870  14.307
 9671TIP3   OH250503   6.381   7.295  14.084
 9671TIP3    H150504   6.372   7.373  14.028
 9671TIP3    H250505   6.324   7.312  14.158
 9672TIP3   OH250506   6.204   6.009  14.024
 9672TIP3    H150507   6.199   6.091  14.073
 9672TIP3    H250508   6.290   5.973  14.048
 9673TIP3   OH250509   7.263   6.024  15.205
 9673TIP3    H150510   7.193   6.078  15.243
 9673TIP3    H250511   7.221   5.978  15.133
 9674TIP3   OH250512   7.074   6.442  14.673
 9674TIP3    H150513   6.994   6.395  14.650
 9674TIP3    H250514   7.113   6.391  14.744
 9675TIP3   OH250515   6.064   6.970  13.925
 9675TIP3    H150516   6.132   7.030  13.956
 9675TIP3    H250517   6.107   6.916  13.859
 9676TIP3   OH250518   5.847   6.277  13.892
 9676TIP3    H150519   5.862   6.372  13.894
 9676TIP3    H250520   5.897   6.246  13.817
 9677TIP3   OH250521   5.943   5.766  14.715
 9677TIP3    H150522   5.936   5.753  14.621
 9677TIP3    H250523   5.910   5.685  14.754
 9678TIP3   OH250524   5.791   7.125  14.355
 9678TIP3    H150525   5.757   7.152  14.441
 9678TIP3    H250526   5.793   7.206  14.304
 9679TIP3   OH250527   6.267   7.237  15.604
 9679TIP3    H150528   6.329   7.172  15.637
 9679TIP3    H250529   6.219   7.191  15.535
 9680TIP3   OH250530   6.675   7.223  13.805
 9680TIP3    H150531   6.599   7.170  13.779
 9680TIP3    H250532   6.746   7.193  13.749
 9681TIP3   OH250533   6.900   7.130  15.520
 9681TIP3    H150534   6.865   7.046  15.549
 9681TIP3    H250535   6.973   7.148  15.581
 9682TIP3   OH250536   7.134   7.194  13.752
 9682TIP3    H150537   7.142   7.248  13.831
 9682TIP3    H250538   7.177   7.246  13.684
 9683TIP3   OH250539   5.759   6.819  15.556
 9683TIP3    H150540   5.774   6.725  15.546
 9683TIP3    H250541   5.686   6.838  15.497
 9684TIP3   OH250542   6.205   6.796  13.768
 9684TIP3    H150543   6.232   6.748  13.847
 9684TIP3    H250544   6.284   6.805  13.716
 9685TIP3   OH250545   6.423   6.795  15.511
 9685TIP3    H150546   6.411   6.841  15.428
 9685TIP3    H250547   6.450   6.707  15.486
 9686TIP3   OH250548   6.748   6.928  13.751
 9686TIP3    H150549   6.750   6.922  13.847
 9686TIP3    H250550   6.748   6.836  13.722
 9687TIP3   OH250551   6.974   6.785  15.288
 9687TIP3    H150552   7.052   6.831  15.254
 9687TIP3    H250553   6.900   6.836  15.255
 9688TIP3   OH250554   5.845   6.561  15.513
 9688TIP3    H150555   5.922   6.542  15.460
 9688TIP3    H250556   5.874   6.544  15.603
 9689TIP3   OH250557   6.317   6.662  13.988
 9689TIP3    H150558   6.268   6.617  14.057
 9689TIP3    H250559   6.364   6.592  13.942
 9690TIP3   OH250560   6.251   6.431  15.264
 9690TIP3    H150561   6.179   6.494  15.270
 9690TIP3    H250562   6.312   6.470  15.201
 9691TIP3   OH250563   6.465   6.484  13.828
 9691TIP3    H150564   6.463   6.509  13.736
 9691TIP3    H250565   6.558   6.467  13.846
 9692TIP3   OH250566   6.757   6.659  15.549
 9692TIP3    H150567   6.847   6.635  15.531
 9692TIP3    H250568   6.724   6.590  15.607
 9693TIP3   OH250569   6.313   6.175  15.341
 9693TIP3    H150570   6.323   6.117  15.265
 9693TIP3    H250571   6.297   6.261  15.303
 9694TIP3   OH250572   6.340   6.024  15.105
 9694TIP3    H150573   6.394   6.065  15.038
 9694TIP3    H250574   6.254   6.015  15.064
 9695TIP3   OH250575   6.446   6.543  15.113
 9695TIP3    H150576   6.541   6.545  15.107
 9695TIP3    H250577   6.417   6.622  15.067
 9696TIP3   OH250578   6.905   6.303  15.597
 9696TIP3    H150579   6.913   6.232  15.661
 9696TIP3    H250580   6.994   6.315  15.563
 9697TIP3   OH250581   7.030   6.629  15.497
 9697TIP3    H150582   7.003   6.691  15.429
 9697TIP3    H250583   7.123   6.614  15.479
 9698TIP3   OH250584   6.138   6.223  15.555
 9698TIP3    H150585   6.063   6.169  15.533
 9698TIP3    H250586   6.195   6.218  15.478
 9699TIP3   OH250587   6.395   5.762  15.185
 9699TIP3    H150588   6.375   5.852  15.160
 9699TIP3    H250589   6.327   5.710  15.142
 9700TIP3   OH250590   6.533   6.133  15.508
 9700TIP3    H150591   6.492   6.106  15.591
 9700TIP3    H250592   6.460   6.139  15.447
 9701TIP3   OH250593   6.801   6.065  15.412
 9701TIP3    H150594   6.714   6.069  15.450
 9701TIP3    H250595   6.856   6.029  15.481
 9702TIP3   OH250596   6.972   5.968  15.611
 9702TIP3    H150597   6.964   5.873  15.611
 9702TIP3    H250598   6.935   5.996  15.695
 9703TIP3   OH250599   5.933   6.043  15.509
 9703TIP3    H150600   5.934   5.976  15.441
 9703TIP3    H250601   5.939   5.994  15.591
 9704TIP3   OH250602   6.402   5.683  15.447
 9704TIP3    H150603   6.454   5.603  15.439
 9704TIP3    H250604   6.396   5.716  15.358
 9705TIP3   OH250605   6.468   5.835  15.673
 9705TIP3    H150606   6.455   5.782  15.594
 9705TIP3    H250607   6.408   5.909  15.662
 9706TIP3   OH250608   5.791   7.015  13.891
 9706TIP3    H150609   5.886   7.014  13.903
 9706TIP3    H250610   5.774   6.951  13.822
 9707TIP3   OH250611   5.717   7.279  14.599
 9707TIP3    H150612   5.720   7.207  14.661
 9707TIP3    H250613   5.758   7.353  14.645
 9708TIP3   OH250614   7.266   6.992  15.682
 9708TIP3    H150615   7.191   6.953  15.727
 9708TIP3    H250616   7.335   6.995  15.748
 9709TIP3   OH250617   7.290   7.109  15.064
 9709TIP3    H150618   7.244   7.179  15.110
 9709TIP3    H250619   7.240   7.096  14.983
 9710TIP3   OH250620   7.301   6.258  13.816
 9710TIP3    H150621   7.259   6.313  13.750
 9710TIP3    H250622   7.278   6.169  13.791
 9711TIP3   OH250623   7.190   6.434  14.420
 9711TIP3    H150624   7.191   6.339  14.410
 9711TIP3    H250625   7.166   6.448  14.512
 9712TIP3   OH250626   5.718   6.639  14.850
 9712TIP3    H150627   5.727   6.620  14.756
 9712TIP3    H250628   5.799   6.605  14.888
 9713TIP3   OH250629   7.278   6.679  15.383
 9713TIP3    H150630   7.339   6.628  15.330
 9713TIP3    H250631   7.253   6.753  15.327
 9714TIP3   OH250632   7.234   6.003  13.739
 9714TIP3    H150633   7.251   5.937  13.806
 9714TIP3    H250634   7.140   5.997  13.723
 9715TIP3   OH250635   7.207   6.184  14.263
 9715TIP3    H150636   7.225   6.097  14.299
 9715TIP3    H250637   7.264   6.191  14.187
 9716TIP3   OH250638   7.274   6.106  14.821
 9716TIP3    H150639   7.360   6.075  14.792
 9716TIP3    H250640   7.286   6.200  14.837
 9717TIP3   OH250641   7.277   6.374  15.126
 9717TIP3    H150642   7.183   6.389  15.136
 9717TIP3    H250643   7.290   6.359  15.032
 9718TIP3   OH250644   5.704   6.167  15.412
 9718TIP3    H150645   5.790   6.142  15.447
 9718TIP3    H250646   5.651   6.087  15.421
 9719TIP3   OH250647   7.219   5.911  14.313
 9719TIP3    H150648   7.254   5.857  14.383
 9719TIP3    H250649   7.164   5.851  14.261
 9720TIP3   OH250650   5.819   6.012  14.750
 9720TIP3    H150651   5.856   5.924  14.747
 9720TIP3    H250652   5.894   6.070  14.759
 9721TIP3   OH250653   5.640   6.307  14.805
 9721TIP3    H150654   5.710   6.303  14.739
 9721TIP3    H250655   5.681   6.348  14.881
 9722TIP3   OH250656   5.684   5.920  14.214
 9722TIP3    H150657   5.592   5.917  14.237
 9722TIP3    H250658   5.691   5.993  14.152
 9723TIP3   OH250659   5.697   5.802  15.093
 9723TIP3    H150660   5.623   5.774  15.147
 9723TIP3    H250661   5.657   5.853  15.022
 9724TIP3   OH250662   5.909   7.168  15.485
 9724TIP3    H150663   5.815   7.161  15.466
 9724TIP3    H250664   5.917   7.142  15.576
 9725TIP3   OH250665   6.221   7.258  15.092
 9725TIP3    H150666   6.180   7.294  15.013
 9725TIP3    H250667   6.314   7.249  15.069
 9726TIP3   OH250668   6.082   7.237  14.661
 9726TIP3    H150669   6.054   7.147  14.680
 9726TIP3    H250670   6.169   7.244  14.700
 9727TIP3   OH250671   6.331   7.201  14.805
 9727TIP3    H150672   6.332   7.111  14.773
 9727TIP3    H250673   6.391   7.200  14.879
 9728TIP3   OH250674   6.672   5.870  14.702
 9728TIP3    H150675   6.603   5.807  14.722
 9728TIP3    H250676   6.741   5.818  14.660
 9729TIP3   OH250677   7.152   5.713  14.662
 9729TIP3    H150678   7.186   5.802  14.655
 9729TIP3    H250679   7.057   5.723  14.654
 9730TIP3   OH250680   5.914   5.724  14.443
 9730TIP3    H150681   5.822   5.703  14.424
 9730TIP3    H250682   5.960   5.641  14.431
 9731TIP3   OH250683   5.794   5.739  14.026
 9731TIP3    H150684   5.858   5.791  13.978
 9731TIP3    H250685   5.765   5.796  14.097
 9732TIP3   OH250686   6.397   5.714  14.466
 9732TIP3    H150687   6.472   5.754  14.422
 9732TIP3    H250688   6.422   5.711  14.558
 9733TIP3   OH250689   6.877   5.714  14.599
 9733TIP3    H150690   6.880   5.689  14.507
 9733TIP3    H250691   6.858   5.632  14.646
 9734TIP3   OH250692   7.063   5.740  14.172
 9734TIP3    H150693   6.984   5.793  14.183
 9734TIP3    H250694   7.033   5.650  14.181
 9735TIP3   OH250695   5.805   0.027  14.233
 9735TIP3    H150696   5.820   0.029  14.139
 9735TIP3    H250697   5.752   0.105  14.251
 9736TIP3   OH250698   5.994   5.888  13.884
 9736TIP3    H150699   6.038   5.823  13.829
 9736TIP3    H250700   6.063   5.923  13.940
 9737TIP3   OH250701   6.462   5.974  14.128
 9737TIP3    H150702   6.493   5.897  14.176
 9737TIP3    H250703   6.484   6.048  14.184
 9738TIP3   OH250704   5.936   5.792  15.375
 9738TIP3    H150705   5.875   5.731  15.416
 9738TIP3    H250706   6.019   5.775  15.419
 9739TIP3   OH250707   6.143   5.719  15.540
 9739TIP3    H150708   6.233   5.702  15.513
 9739TIP3    H250709   6.117   5.640  15.588
 9740TIP3   OH250710   6.987   5.690  15.572
 9740TIP3    H150711   6.979   5.642  15.654
 9740TIP3    H250712   7.080   5.686  15.550
 9741TIP3   OH250713   7.302   7.296  15.431
 9741TIP3    H150714   7.242   7.282  15.358
 9741TIP3    H250715   7.268   7.373  15.476
 9742TIP3   OH250716   1.064   0.799  15.728
 9742TIP3    H150717   1.113   0.820  15.808
 9742TIP3    H250718   1.123   0.742  15.678
 9743TIP3   OH250719   1.256   0.840  15.925
 9743TIP3    H150720   1.309   0.885  15.991
 9743TIP3    H250721   1.303   0.853  15.843
 9744TIP3   OH250722   1.675   0.002  15.929
 9744TIP3    H150723   1.675   0.030  16.020
 9744TIP3    H250724   1.699   0.080  15.880
 9745TIP3   OH250725   1.766   1.505  15.769
 9745TIP3    H150726   1.791   1.592  15.800
 9745TIP3    H250727   1.848   1.455  15.770
 9746TIP3   OH250728   1.319   1.760  15.822
 9746TIP3    H150729   1.368   1.685  15.787
 9746TIP3    H250730   1.355   1.773  15.910
 9747TIP3   OH250731   1.401   0.918  15.710
 9747TIP3    H150732   1.388   0.939  15.618
 9747TIP3    H250733   1.493   0.941  15.727
 9748TIP3   OH250734   0.948   0.390  15.819
 9748TIP3    H150735   0.957   0.365  15.911
 9748TIP3    H250736   0.901   0.317  15.779
 9749TIP3   OH250737   0.606   0.411  15.622
 9749TIP3    H150738   0.669   0.343  15.646
 9749TIP3    H250739   0.628   0.432  15.531
 9750TIP3   OH250740   0.099   0.376  15.966
 9750TIP3    H150741   0.164   0.403  15.901
 9750TIP3    H250742   0.047   0.455  15.982
 9751TIP3   OH250743   0.543   0.701  15.798
 9751TIP3    H150744   0.515   0.790  15.820
 9751TIP3    H250745   0.629   0.712  15.759
 9752TIP3   OH250746   1.214   0.470  15.798
 9752TIP3    H150747   1.121   0.449  15.807
 9752TIP3    H250748   1.244   0.485  15.888
 9753TIP3   OH250749   1.092   1.273  15.939
 9753TIP3    H150750   1.042   1.355  15.932
 9753TIP3    H250751   1.095   1.254  16.032
 9754TIP3   OH250752   1.792   0.647  15.918
 9754TIP3    H150753   1.744   0.642  15.835
 9754TIP3    H250754   1.827   0.737  15.920
 9755TIP3   OH250755   0.193   0.892  15.779
 9755TIP3    H150756   0.241   0.961  15.825
 9755TIP3    H250757   0.103   0.923  15.777
 9756TIP3   OH250758   1.387   1.264  15.893
 9756TIP3    H150759   1.376   1.298  15.982
 9756TIP3    H250760   1.301   1.274  15.853
 9757TIP3   OH250761   1.841   1.757  15.868
 9757TIP3    H150762   1.909   1.824  15.863
 9757TIP3    H250763   1.759   1.807  15.874
 9758TIP3   OH250764   0.780   1.409  15.659
 9758TIP3    H150765   0.784   1.323  15.617
 9758TIP3    H250766   0.739   1.393  15.744
 9759TIP3   OH250767   0.642   1.400  15.903
 9759TIP3    H150768   0.640   1.347  15.982
 9759TIP3    H250769   0.662   1.489  15.934
 9760TIP3   OH250770   0.316   1.096  15.911
 9760TIP3    H150771   0.380   1.092  15.982
 9760TIP3    H250772   0.332   1.180  15.869
 9761TIP3   OH250773   0.958   1.511  15.912
 9761TIP3    H150774   0.876   1.551  15.941
 9761TIP3    H250775   0.970   1.544  15.823
 9762TIP3   OH250776   0.727   1.647  15.986
 9762TIP3    H150777   0.733   1.726  15.933
 9762TIP3    H250778   0.719   1.679  16.076
 9763TIP3   OH250779   0.628   0.222  15.920
 9763TIP3    H150780   0.542   0.227  15.962
 9763TIP3    H250781   0.678   0.294  15.959
 9764TIP3   OH250782   0.398   1.335  15.790
 9764TIP3    H150783   0.470   1.384  15.829
 9764TIP3    H250784   0.439   1.279  15.724
 9765TIP3   OH250785   0.221   0.620  15.792
 9765TIP3    H150786   0.229   0.715  15.792
 9765TIP3    H250787   0.131   0.604  15.762
 9766TIP3   OH250788   0.992   1.584  15.642
 9766TIP3    H150789   0.924   1.516  15.635
 9766TIP3    H250790   1.071   1.542  15.607
 9767TIP3   OH250791   1.466   1.561  15.690
 9767TIP3    H150792   1.534   1.540  15.754
 9767TIP3    H250793   1.514   1.575  15.608
 9768TIP3   OH250794   0.534   1.136  15.656
 9768TIP3    H150795   0.560   1.081  15.730
 9768TIP3    H250796   0.615   1.149  15.606
 9769TIP3   OH250797   1.138   1.262  15.665
 9769TIP3    H150798   1.109   1.249  15.755
 9769TIP3    H250799   1.126   1.176  15.623
 9770TIP3   OH250800   0.656   0.973  15.857
 9770TIP3    H150801   0.695   0.935  15.935
 9770TIP3    H250802   0.705   0.935  15.784
 9771TIP3   OH250803   0.790   0.792  15.699
 9771TIP3    H150804   0.786   0.821  15.608
 9771TIP3    H250805   0.884   0.786  15.718
 9772TIP3   OH250806   1.666   1.009  15.701
 9772TIP3    H150807   1.671   0.992  15.607
 9772TIP3    H250808   1.656   1.104  15.708
 9773TIP3   OH250809   0.804   1.898  15.888
 9773TIP3    H150810   0.892   1.865  15.873
 9773TIP3    H250811   0.787   1.957  15.815
 9774TIP3   OH250812   0.128   1.326  15.842
 9774TIP3    H150813   0.213   1.369  15.831
 9774TIP3    H250814   0.135   1.246  15.791
 9775TIP3   OH250815   1.855   0.912  15.875
 9775TIP3    H150816   1.791   0.930  15.805
 9775TIP3    H250817   1.841   0.981  15.939
 9776TIP3   OH250818   1.661   0.643  15.681
 9776TIP3    H150819   1.622   0.684  15.604
 9776TIP3    H250820   1.651   0.549  15.666
 9777TIP3   OH250821   1.609   0.384  15.624
 9777TIP3    H150822   1.646   0.317  15.681
 9777TIP3    H250823   1.519   0.356  15.608
 9778TIP3   OH250824   1.769   0.223  15.794
 9778TIP3    H150825   1.820   0.175  15.729
 9778TIP3    H250826   1.829   0.288  15.828
 9779TIP3   OH250827   0.218   0.097  15.884
 9779TIP3    H150828   0.132   0.077  15.845
 9779TIP3    H250829   0.205   0.082  15.978
 9780TIP3   OH250830   0.339   0.304  15.752
 9780TIP3    H150831   0.396   0.250  15.698
 9780TIP3    H250832   0.296   0.241  15.811
 9781TIP3   OH250833   1.045   1.795  15.815
 9781TIP3    H150834   1.140   1.795  15.824
 9781TIP3    H250835   1.027   1.734  15.743
 9782TIP3   OH250836   0.362   1.746  15.715
 9782TIP3    H150837   0.349   1.736  15.810
 9782TIP3    H250838   0.435   1.688  15.695
 9783TIP3   OH250839   2.943   0.830  15.733
 9783TIP3    H150840   2.997   0.848  15.810
 9783TIP3    H250841   2.990   0.760  15.688
 9784TIP3   OH250842   3.147   0.845  15.919
 9784TIP3    H150843   3.197   0.902  15.978
 9784TIP3    H250844   3.199   0.842  15.839
 9785TIP3   OH250845   3.547   0.013  15.915
 9785TIP3    H150846   3.546   0.034  16.009
 9785TIP3    H250847   3.577   0.094  15.873
 9786TIP3   OH250848   3.642   1.502  15.772
 9786TIP3    H150849   3.665   1.593  15.788
 9786TIP3    H250850   3.721   1.453  15.796
 9787TIP3   OH250851   3.203   1.764  15.823
 9787TIP3    H150852   3.254   1.690  15.790
 9787TIP3    H250853   3.239   1.780  15.911
 9788TIP3   OH250854   3.294   0.871  15.685
 9788TIP3    H150855   3.278   0.913  15.600
 9788TIP3    H250856   3.377   0.908  15.715
 9789TIP3   OH250857   2.878   0.376  15.842
 9789TIP3    H150858   2.860   0.345  15.931
 9789TIP3    H250859   2.840   0.308  15.785
 9790TIP3   OH250860   2.541   0.355  15.672
 9790TIP3    H150861   2.495   0.337  15.754
 9790TIP3    H250862   2.492   0.429  15.634
 9791TIP3   OH250863   1.937   0.412  15.902
 9791TIP3    H150864   2.023   0.444  15.874
 9791TIP3    H250865   1.885   0.491  15.916
 9792TIP3   OH250866   2.450   0.674  15.836
 9792TIP3    H150867   2.405   0.638  15.760
 9792TIP3    H250868   2.535   0.703  15.802
 9793TIP3   OH250869   3.127   0.473  15.810
 9793TIP3    H150870   3.036   0.445  15.820
 9793TIP3    H250871   3.160   0.481  15.899
 9794TIP3   OH250872   2.974   1.275  15.935
 9794TIP3    H150873   2.923   1.356  15.929
 9794TIP3    H250874   2.971   1.251  16.027
 9795TIP3   OH250875   3.688   0.658  15.938
 9795TIP3    H150876   3.642   0.648  15.854
 9795TIP3    H250877   3.721   0.748  15.936
 9796TIP3   OH250878   2.108   0.869  15.778
 9796TIP3    H150879   2.151   0.944  15.819
 9796TIP3    H250880   2.016   0.876  15.807
 9797TIP3   OH250881   3.267   1.264  15.894
 9797TIP3    H150882   3.258   1.304  15.980
 9797TIP3    H250883   3.181   1.274  15.853
 9798TIP3   OH250884   3.715   1.759  15.834
 9798TIP3    H150885   3.786   1.821  15.849
 9798TIP3    H250886   3.638   1.802  15.871
 9799TIP3   OH250887   2.667   1.408  15.654
 9799TIP3    H150888   2.667   1.321  15.613
 9799TIP3    H250889   2.622   1.395  15.737
 9800TIP3   OH250890   2.523   1.400  15.889
 9800TIP3    H150891   2.517   1.334  15.958
 9800TIP3    H250892   2.542   1.482  15.935
 9801TIP3   OH250893   2.183   1.078  15.933
 9801TIP3    H150894   2.161   1.044  16.020
 9801TIP3    H250895   2.239   1.153  15.949
 9802TIP3   OH250896   2.840   1.512  15.911
 9802TIP3    H150897   2.756   1.549  15.942
 9802TIP3    H250898   2.849   1.545  15.822
 9803TIP3   OH250899   2.608   1.645  -0.012
 9803TIP3    H150900   2.610   1.724  -0.065
 9803TIP3    H250901   2.601   1.677   0.078
 9804TIP3   OH250902   2.395   0.346  15.918
 9804TIP3    H150903   2.349   0.430  15.915
 9804TIP3    H250904   2.474   0.364  15.969
 9805TIP3   OH250905   2.272   1.346  15.779
 9805TIP3    H150906   2.350   1.389  15.815
 9805TIP3    H250907   2.307   1.277  15.723
 9806TIP3   OH250908   2.135   0.598  15.808
 9806TIP3    H150909   2.133   0.693  15.796
 9806TIP3    H250910   2.131   0.562  15.719
 9807TIP3   OH250911   2.877   1.583  15.640
 9807TIP3    H150912   2.810   1.515  15.634
 9807TIP3    H250913   2.957   1.541  15.607
 9808TIP3   OH250914   3.353   1.564  15.693
 9808TIP3    H150915   3.420   1.545  15.759
 9808TIP3    H250916   3.402   1.576  15.612
 9809TIP3   OH250917   2.402   1.147  15.637
 9809TIP3    H150918   2.411   1.084  15.708
 9809TIP3    H250919   2.491   1.155  15.600
 9810TIP3   OH250920   3.027   1.266  15.662
 9810TIP3    H150921   2.994   1.253  15.751
 9810TIP3    H250922   3.009   1.183  15.618
 9811TIP3   OH250923   2.468   0.965  15.837
 9811TIP3    H150924   2.412   0.890  15.857
 9811TIP3    H250925   2.549   0.928  15.803
 9812TIP3   OH250926   2.672   0.814  15.735
 9812TIP3    H150927   2.659   0.834  15.643
 9812TIP3    H250928   2.768   0.815  15.746
 9813TIP3   OH250929   3.536   1.006  15.708
 9813TIP3    H150930   3.549   0.990  15.614
 9813TIP3    H250931   3.525   1.101  15.715
 9814TIP3   OH250932   2.688   1.899  15.889
 9814TIP3    H150933   2.776   1.865  15.872
 9814TIP3    H250934   2.671   1.959  15.816
 9815TIP3   OH250935   1.999   1.346  15.775
 9815TIP3    H150936   2.094   1.353  15.784
 9815TIP3    H250937   1.987   1.277  15.710
 9816TIP3   OH250938   3.741   0.920  15.870
 9816TIP3    H150939   3.673   0.938  15.805
 9816TIP3    H250940   3.730   0.988  15.936
 9817TIP3   OH250941   3.563   0.631  15.702
 9817TIP3    H150942   3.529   0.679  15.627
 9817TIP3    H250943   3.538   0.540  15.686
 9818TIP3   OH250944   3.478   0.379  15.627
 9818TIP3    H150945   3.517   0.319  15.690
 9818TIP3    H250946   3.387   0.350  15.619
 9819TIP3   OH250947   3.665   0.232  15.776
 9819TIP3    H150948   3.731   0.163  15.769
 9819TIP3    H250949   3.712   0.305  15.817
 9820TIP3   OH250950   2.105   0.074  15.920
 9820TIP3    H150951   2.070   0.142  15.863
 9820TIP3    H250952   2.057   0.083  16.002
 9821TIP3   OH250953   2.197   0.275  15.731
 9821TIP3    H150954   2.215   0.195  15.680
 9821TIP3    H250955   2.258   0.270  15.804
 9822TIP3   OH250956   2.928   1.797  15.811
 9822TIP3    H150957   3.023   1.797  15.822
 9822TIP3    H250958   2.912   1.733  15.742
 9823TIP3   OH250959   2.253   1.760  15.711
 9823TIP3    H150960   2.242   1.759  15.806
 9823TIP3    H250961   2.323   1.697  15.694
 9824TIP3   OH250962   4.828   0.823  15.726
 9824TIP3    H150963   4.874   0.845  15.808
 9824TIP3    H250964   4.882   0.753  15.688
 9825TIP3   OH250965   5.028   0.852  15.920
 9825TIP3    H150966   5.080   0.902  15.983
 9825TIP3    H250967   5.082   0.850  15.841
 9826TIP3   OH250968   5.389   0.045  15.924
 9826TIP3    H150969   5.330   0.086  15.987
 9826TIP3    H250970   5.438   0.118  15.887
 9827TIP3   OH250971   5.537   1.503  15.735
 9827TIP3    H150972   5.554   1.591  15.768
 9827TIP3    H250973   5.622   1.460  15.737
 9828TIP3   OH250974   5.084   1.768  15.839
 9828TIP3    H150975   5.143   1.698  15.809
 9828TIP3    H250976   5.110   1.783  15.930
 9829TIP3   OH250977   5.181   0.874  15.690
 9829TIP3    H150978   5.164   0.913  15.605
 9829TIP3    H250979   5.268   0.905  15.713
 9830TIP3   OH250980   4.756   0.379  15.803
 9830TIP3    H150981   4.746   0.363  15.897
 9830TIP3    H250982   4.717   0.302  15.762
 9831TIP3   OH250983   4.419   0.422  15.663
 9831TIP3    H150984   4.383   0.384  15.743
 9831TIP3    H250985   4.350   0.480  15.631
 9832TIP3   OH250986   3.823   0.423  15.900
 9832TIP3    H150987   3.912   0.452  15.879
 9832TIP3    H250988   3.777   0.503  15.923
 9833TIP3   OH250989   4.370   0.673  15.877
 9833TIP3    H150990   4.289   0.647  15.835
 9833TIP3    H250991   4.426   0.702  15.804
 9834TIP3   OH250992   5.016   0.460  15.819
 9834TIP3    H150993   4.923   0.438  15.817
 9834TIP3    H250994   5.036   0.469  15.913
 9835TIP3   OH250995   4.852   1.274  15.949
 9835TIP3    H150996   4.801   1.355  15.939
 9835TIP3    H250997   4.847   1.254  16.042
 9836TIP3   OH250998   5.555   0.648  15.922
 9836TIP3    H150999   5.514   0.638  15.836
 9836TIP3    H251000   5.587   0.738  15.923
 9837TIP3   OH251001   3.982   0.877  15.746
 9837TIP3    H151002   4.035   0.945  15.787
 9837TIP3    H251003   3.893   0.892  15.779
 9838TIP3   OH251004   5.157   1.313  15.863
 9838TIP3    H151005   5.132   1.321  15.955
 9838TIP3    H251006   5.076   1.293  15.817
 9839TIP3   OH251007   5.598   1.752  15.832
 9839TIP3    H151008   5.670   1.814  15.845
 9839TIP3    H251009   5.522   1.794  15.873
 9840TIP3   OH251010   4.547   1.406  15.643
 9840TIP3    H151011   4.536   1.323  15.596
 9840TIP3    H251012   4.501   1.392  15.726
 9841TIP3   OH251013   4.404   1.409  15.881
 9841TIP3    H151014   4.401   1.339  15.946
 9841TIP3    H251015   4.426   1.488  15.930
 9842TIP3   OH251016   4.085   1.069  15.912
 9842TIP3    H151017   4.055   1.058  16.002
 9842TIP3    H251018   4.099   1.163  15.903
 9843TIP3   OH251019   4.722   1.512  15.909
 9843TIP3    H151020   4.640   1.548  15.944
 9843TIP3    H251021   4.725   1.543  15.818
 9844TIP3   OH251022   4.494   1.644  -0.003
 9844TIP3    H151023   4.498   1.729  -0.047
 9844TIP3    H251024   4.486   1.665   0.090
 9845TIP3   OH251025   4.312   0.308  15.895
 9845TIP3    H151026   4.257   0.323  15.972
 9845TIP3    H251027   4.371   0.237  15.921
 9846TIP3   OH251028   4.142   1.339  15.802
 9846TIP3    H151029   4.216   1.393  15.831
 9846TIP3    H251030   4.181   1.274  15.743
 9847TIP3   OH251031   4.027   0.613  15.803
 9847TIP3    H151032   4.014   0.706  15.786
 9847TIP3    H251033   4.018   0.572  15.717
 9848TIP3   OH251034   4.760   1.578  15.635
 9848TIP3    H151035   4.691   1.513  15.627
 9848TIP3    H251036   4.839   1.533  15.607
 9849TIP3   OH251037   5.232   1.557  15.720
 9849TIP3    H151038   5.223   1.496  15.793
 9849TIP3    H251039   5.326   1.564  15.706
 9850TIP3   OH251040   4.282   1.144  15.671
 9850TIP3    H151041   4.305   1.083  15.740
 9850TIP3    H251042   4.361   1.154  15.619
 9851TIP3   OH251043   4.936   1.256  15.687
 9851TIP3    H151044   4.889   1.249  15.770
 9851TIP3    H251045   4.908   1.180  15.637
 9852TIP3   OH251046   4.388   0.969  15.853
 9852TIP3    H151047   4.343   0.900  15.901
 9852TIP3    H251048   4.457   0.923  15.804
 9853TIP3   OH251049   4.552   0.804  15.705
 9853TIP3    H151050   4.546   0.829  15.613
 9853TIP3    H251051   4.646   0.803  15.724
 9854TIP3   OH251052   5.428   0.999  15.694
 9854TIP3    H151053   5.436   0.992  15.598
 9854TIP3    H251054   5.423   1.093  15.710
 9855TIP3   OH251055   4.572   1.896  15.889
 9855TIP3    H151056   4.659   1.860  15.871
 9855TIP3    H251057   4.555   1.955  15.816
 9856TIP3   OH251058   3.870   1.339  15.832
 9856TIP3    H151059   3.964   1.353  15.821
 9856TIP3    H251060   3.846   1.279  15.761
 9857TIP3   OH251061   5.616   0.913  15.873
 9857TIP3    H151062   5.552   0.928  15.803
 9857TIP3    H251063   5.604   0.986  15.933
 9858TIP3   OH251064   5.437   0.619  15.680
 9858TIP3    H151065   5.399   0.668  15.606
 9858TIP3    H251066   5.420   0.527  15.658
 9859TIP3   OH251067   5.370   0.362  15.606
 9859TIP3    H151068   5.403   0.310  15.679
 9859TIP3    H251069   5.276   0.342  15.604
 9860TIP3   OH251070   5.540   0.231  15.790
 9860TIP3    H151071   5.596   0.176  15.735
 9860TIP3    H251072   5.600   0.293  15.832
 9861TIP3   OH251073   3.883   0.089  15.879
 9861TIP3    H151074   3.956   0.135  15.838
 9861TIP3    H251075   3.899   0.098  15.973
 9862TIP3   OH251076   4.095   0.229  15.745
 9862TIP3    H151077   4.134   0.172  15.678
 9862TIP3    H251078   4.168   0.255  15.800
 9863TIP3   OH251079   4.811   1.794  15.806
 9863TIP3    H151080   4.905   1.794  15.822
 9863TIP3    H251081   4.797   1.727  15.739
 9864TIP3   OH251082   4.136   1.769  15.717
 9864TIP3    H151083   4.125   1.767  15.813
 9864TIP3    H251084   4.204   1.704  15.700
 9865TIP3   OH251085   6.720   0.785  15.738
 9865TIP3    H151086   6.774   0.805  15.814
 9865TIP3    H251087   6.775   0.729  15.684
 9866TIP3   OH251088   6.913   0.846  15.927
 9866TIP3    H151089   6.954   0.899  15.995
 9866TIP3    H251090   6.963   0.866  15.847
 9867TIP3   OH251091   7.277   0.167  15.873
 9867TIP3    H151092   7.244   0.118  15.948
 9867TIP3    H251093   7.331   0.236  15.912
 9868TIP3   OH251094   6.981   1.762  15.827
 9868TIP3    H151095   7.020   1.682  15.792
 9868TIP3    H251096   6.995   1.757  15.921
 9869TIP3   OH251097   7.074   0.977  15.741
 9869TIP3    H151098   7.070   0.944  15.651
 9869TIP3    H251099   7.068   1.072  15.732
 9870TIP3   OH251100   6.619   0.366  15.836
 9870TIP3    H151101   6.613   0.359  15.931
 9870TIP3    H251102   6.574   0.289  15.802
 9871TIP3   OH251103   6.303   0.375  15.669
 9871TIP3    H151104   6.258   0.373  15.753
 9871TIP3    H251105   6.262   0.446  15.620
 9872TIP3   OH251106   5.704   0.415  15.916
 9872TIP3    H151107   5.790   0.449  15.891
 9872TIP3    H251108   5.650   0.493  15.928
 9873TIP3   OH251109   6.220   0.656  15.822
 9873TIP3    H151110   6.178   0.641  15.738
 9873TIP3    H251111   6.305   0.695  15.800
 9874TIP3   OH251112   6.875   0.460  15.827
 9874TIP3    H151113   6.783   0.436  15.823
 9874TIP3    H251114   6.893   0.474  15.920
 9875TIP3   OH251115   6.712   1.275  15.946
 9875TIP3    H151116   6.671   1.361  15.938
 9875TIP3    H251117   6.678   1.240  16.028
 9876TIP3   OH251118   5.873   0.872  15.790
 9876TIP3    H151119   5.915   0.948  15.832
 9876TIP3    H251120   5.781   0.878  15.815
 9877TIP3   OH251121   7.023   1.256  15.867
 9877TIP3    H151122   6.987   1.276  15.953
 9877TIP3    H251123   6.948   1.263  15.807
 9878TIP3   OH251124   6.434   1.411  15.663
 9878TIP3    H151125   6.437   1.325  15.621
 9878TIP3    H251126   6.391   1.395  15.747
 9879TIP3   OH251127   6.296   1.407  15.904
 9879TIP3    H151128   6.305   1.361  15.988
 9879TIP3    H251129   6.310   1.499  15.926
 9880TIP3   OH251130   5.946   1.092  15.931
 9880TIP3    H151131   5.958   1.084  16.026
 9880TIP3    H251132   5.989   1.175  15.909
 9881TIP3   OH251133   6.604   1.524  15.916
 9881TIP3    H151134   6.518   1.557  15.943
 9881TIP3    H251135   6.615   1.556  15.827
 9882TIP3   OH251136   6.370   1.661  15.974
 9882TIP3    H151137   6.385   1.745  15.931
 9882TIP3    H251138   6.340   1.684  16.062
 9883TIP3   OH251139   6.155   0.386  15.906
 9883TIP3    H151140   6.135   0.478  15.894
 9883TIP3    H251141   6.235   0.385  15.960
 9884TIP3   OH251142   6.048   1.327  15.802
 9884TIP3    H151143   6.121   1.372  15.845
 9884TIP3    H251144   6.089   1.274  15.734
 9885TIP3   OH251145   5.898   0.598  15.812
 9885TIP3    H151146   5.897   0.694  15.802
 9885TIP3    H251147   5.895   0.565  15.722
 9886TIP3   OH251148   6.641   1.589  15.645
 9886TIP3    H151149   6.570   1.525  15.641
 9886TIP3    H251150   6.716   1.545  15.606
 9887TIP3   OH251151   7.091   1.550  15.683
 9887TIP3    H151152   7.135   1.465  15.693
 9887TIP3    H251153   7.137   1.593  15.611
 9888TIP3   OH251154   6.181   1.150  15.637
 9888TIP3    H151155   6.193   1.093  15.713
 9888TIP3    H251156   6.268   1.159  15.599
 9889TIP3   OH251157   6.810   1.254  15.689
 9889TIP3    H151158   6.758   1.253  15.769
 9889TIP3    H251159   6.785   1.173  15.643
 9890TIP3   OH251160   6.249   0.984  15.849
 9890TIP3    H151161   6.189   0.914  15.875
 9890TIP3    H251162   6.328   0.938  15.820
 9891TIP3   OH251163   6.447   0.809  15.751
 9891TIP3    H151164   6.433   0.836  15.660
 9891TIP3    H251165   6.541   0.793  15.757
 9892TIP3   OH251166   6.467   1.907  15.892
 9892TIP3    H151167   6.555   1.874  15.876
 9892TIP3    H251168   6.448   1.963  15.816
 9893TIP3   OH251169   5.782   1.363  15.741
 9893TIP3    H151170   5.872   1.358  15.773
 9893TIP3    H251171   5.772   1.284  15.687
 9894TIP3   OH251172   7.287   0.635  15.743
 9894TIP3    H151173   7.252   0.684  15.668
 9894TIP3    H251174   7.266   0.543  15.723
 9895TIP3   OH251175   7.229   0.376  15.696
 9895TIP3    H151176   7.239   0.292  15.740
 9895TIP3    H251177   7.151   0.364  15.641
 9896TIP3   OH251178   5.800   0.027  15.906
 9896TIP3    H151179   5.845   0.092  15.853
 9896TIP3    H251180   5.798   0.065  15.994
 9897TIP3   OH251181   5.965   0.225  15.763
 9897TIP3    H151182   6.020   0.181  15.697
 9897TIP3    H251183   6.028   0.270  15.820
 9898TIP3   OH251184   6.706   1.802  15.814
 9898TIP3    H151185   6.802   1.802  15.818
 9898TIP3    H251186   6.684   1.740  15.745
 9899TIP3   OH251187   6.025   1.763  15.728
 9899TIP3    H151188   6.010   1.756  15.822
 9899TIP3    H251189   6.094   1.700  15.710
 9900TIP3   OH251190   1.074   2.689  15.725
 9900TIP3    H151191   1.123   2.701  15.806
 9900TIP3    H251192   1.127   2.627  15.674
 9901TIP3   OH251193   1.265   2.704  15.924
 9901TIP3    H151194   1.321   2.729  15.998
 9901TIP3    H251195   1.313   2.733  15.847
 9902TIP3   OH251196   1.626   1.914  15.937
 9902TIP3    H151197   1.608   1.927  16.030
 9902TIP3    H251198   1.650   2.000  15.905
 9903TIP3   OH251199   1.792   3.392  15.754
 9903TIP3    H151200   1.809   3.485  15.772
 9903TIP3    H251201   1.869   3.347  15.787
 9904TIP3   OH251202   1.314   3.658  15.828
 9904TIP3    H151203   1.360   3.584  15.790
 9904TIP3    H251204   1.350   3.666  15.917
 9905TIP3   OH251205   1.417   2.837  15.737
 9905TIP3    H151206   1.391   2.844  15.645
 9905TIP3    H251207   1.513   2.843  15.735
 9906TIP3   OH251208   0.937   2.234  15.854
 9906TIP3    H151209   0.855   2.269  15.888
 9906TIP3    H251210   0.909   2.166  15.792
 9907TIP3   OH251211   0.666   2.295  15.688
 9907TIP3    H151212   0.614   2.273  15.765
 9907TIP3    H251213   0.611   2.353  15.636
 9908TIP3   OH251214   0.044   2.234  15.877
 9908TIP3    H151215   0.131   2.258  15.844
 9908TIP3    H251216   0.019   2.308  15.933
 9909TIP3   OH251217   0.553   2.577  15.813
 9909TIP3    H151218   0.510   2.535  15.739
 9909TIP3    H251219   0.643   2.592  15.784
 9910TIP3   OH251220   1.195   2.324  15.797
 9910TIP3    H151221   1.104   2.297  15.812
 9910TIP3    H251222   1.228   2.344  15.885
 9911TIP3   OH251223   1.074   3.150  15.932
 9911TIP3    H151224   1.028   3.234  15.930
 9911TIP3    H251225   1.065   3.121  16.023
 9912TIP3   OH251226   1.804   2.529  15.953
 9912TIP3    H151227   1.751   2.520  15.874
 9912TIP3    H251228   1.839   2.618  15.948
 9913TIP3   OH251229   0.199   2.773  15.750
 9913TIP3    H151230   0.246   2.845  15.792
 9913TIP3    H251231   0.114   2.771  15.795
 9914TIP3   OH251232   1.394   3.217  15.848
 9914TIP3    H151233   1.365   3.211  15.939
 9914TIP3    H251234   1.319   3.186  15.797
 9915TIP3   OH251235   1.861   3.654  15.812
 9915TIP3    H151236   1.925   3.717  15.844
 9915TIP3    H251237   1.778   3.682  15.850
 9916TIP3   OH251238   0.784   3.290  15.655
 9916TIP3    H151239   0.786   3.205  15.610
 9916TIP3    H251240   0.742   3.272  15.739
 9917TIP3   OH251241   0.650   3.275  15.895
 9917TIP3    H151242   0.644   3.209  15.964
 9917TIP3    H251243   0.665   3.357  15.941
 9918TIP3   OH251244   0.305   2.977  15.900
 9918TIP3    H151245   0.342   2.964  15.987
 9918TIP3    H251246   0.338   3.063  15.872
 9919TIP3   OH251247   0.954   3.397  15.915
 9919TIP3    H151248   0.869   3.434  15.940
 9919TIP3    H251249   0.969   3.428  15.826
 9920TIP3   OH251250   0.718   3.527  15.980
 9920TIP3    H151251   0.704   3.593  15.912
 9920TIP3    H251252   0.721   3.578  16.061
 9921TIP3   OH251253   0.496   2.248  15.902
 9921TIP3    H151254   0.431   2.302  15.948
 9921TIP3    H251255   0.578   2.262  15.951
 9922TIP3   OH251256   0.399   3.222  15.796
 9922TIP3    H151257   0.475   3.267  15.831
 9922TIP3    H251258   0.434   3.168  15.725
 9923TIP3   OH251259   0.208   2.502  15.831
 9923TIP3    H151260   0.255   2.578  15.799
 9923TIP3    H251261   0.119   2.512  15.795
 9924TIP3   OH251262   0.988   3.471  15.646
 9924TIP3    H151263   0.920   3.405  15.638
 9924TIP3    H251264   1.066   3.431  15.607
 9925TIP3   OH251265   1.431   3.451  15.690
 9925TIP3    H151266   1.446   3.377  15.749
 9925TIP3    H251267   1.509   3.452  15.635
 9926TIP3   OH251268   0.528   3.036  15.642
 9926TIP3    H151269   0.540   2.971  15.711
 9926TIP3    H251270   0.614   3.041  15.599
 9927TIP3   OH251271   1.179   3.139  15.680
 9927TIP3    H151272   1.128   3.130  15.761
 9927TIP3    H251273   1.158   3.060  15.630
 9928TIP3   OH251274   0.597   2.853  15.837
 9928TIP3    H151275   0.543   2.775  15.847
 9928TIP3    H251276   0.680   2.820  15.802
 9929TIP3   OH251277   0.800   2.698  15.732
 9929TIP3    H151278   0.786   2.720  15.641
 9929TIP3    H251279   0.895   2.688  15.740
 9930TIP3   OH251280   1.687   2.905  15.699
 9930TIP3    H151281   1.696   2.883  15.607
 9930TIP3    H251282   1.676   3.000  15.701
 9931TIP3   OH251283   0.801   3.793  15.894
 9931TIP3    H151284   0.888   3.755  15.879
 9931TIP3    H251285   0.786   3.849  15.819
 9932TIP3   OH251286   0.128   3.213  15.836
 9932TIP3    H151287   0.215   3.253  15.828
 9932TIP3    H251288   0.134   3.132  15.784
 9933TIP3   OH251289   1.866   2.788  15.879
 9933TIP3    H151290   1.812   2.807  15.802
 9933TIP3    H251291   1.843   2.856  15.941
 9934TIP3   OH251292   1.662   2.523  15.727
 9934TIP3    H151293   1.698   2.569  15.651
 9934TIP3    H251294   1.624   2.443  15.691
 9935TIP3   OH251295   1.578   2.281  15.631
 9935TIP3    H151296   1.618   2.219  15.692
 9935TIP3    H251297   1.494   2.242  15.608
 9936TIP3   OH251298   1.742   2.135  15.814
 9936TIP3    H151299   1.779   2.074  15.750
 9936TIP3    H251300   1.814   2.195  15.835
 9937TIP3   OH251301   0.244   1.985  15.962
 9937TIP3    H151302   0.253   2.020  15.873
 9937TIP3    H251303   0.150   1.988  15.980
 9938TIP3   OH251304   0.336   2.112  15.726
 9938TIP3    H151305   0.389   2.051  15.674
 9938TIP3    H251306   0.398   2.153  15.785
 9939TIP3   OH251307   1.039   3.682  15.822
 9939TIP3    H151308   1.135   3.686  15.828
 9939TIP3    H251309   1.023   3.620  15.750
 9940TIP3   OH251310   0.368   3.638  15.712
 9940TIP3    H151311   0.356   3.634  15.807
 9940TIP3    H251312   0.439   3.577  15.695
 9941TIP3   OH251313   2.952   2.692  15.738
 9941TIP3    H151314   3.003   2.719  15.814
 9941TIP3    H251315   3.005   2.624  15.696
 9942TIP3   OH251316   3.136   2.776  15.926
 9942TIP3    H151317   3.193   2.803  15.998
 9942TIP3    H251318   3.182   2.804  15.847
 9943TIP3   OH251319   3.507   1.909  15.941
 9943TIP3    H151320   3.493   1.924  16.035
 9943TIP3    H251321   3.533   1.994  15.906
 9944TIP3   OH251322   3.655   3.394  15.756
 9944TIP3    H151323   3.677   3.483  15.784
 9944TIP3    H251324   3.737   3.346  15.765
 9945TIP3   OH251325   3.226   3.645  15.818
 9945TIP3    H151326   3.284   3.578  15.782
 9945TIP3    H251327   3.278   3.689  15.885
 9946TIP3   OH251328   3.294   2.882  15.729
 9946TIP3    H151329   3.273   2.872  15.636
 9946TIP3    H251330   3.389   2.874  15.733
 9947TIP3   OH251331   2.826   2.228  15.871
 9947TIP3    H151332   2.744   2.260  15.908
 9947TIP3    H251333   2.799   2.166  15.804
 9948TIP3   OH251334   2.535   2.297  15.683
 9948TIP3    H151335   2.479   2.267  15.754
 9948TIP3    H251336   2.482   2.359  15.634
 9949TIP3   OH251337   1.946   2.296  15.909
 9949TIP3    H151338   2.026   2.329  15.869
 9949TIP3    H251339   1.899   2.375  15.937
 9950TIP3   OH251340   2.442   2.565  15.851
 9950TIP3    H151341   2.377   2.530  15.790
 9950TIP3    H251342   2.521   2.576  15.798
 9951TIP3   OH251343   3.086   2.330  15.824
 9951TIP3    H151344   2.997   2.299  15.840
 9951TIP3    H251345   3.122   2.348  15.911
 9952TIP3   OH251346   2.976   3.193  15.946
 9952TIP3    H151347   2.905   3.257  15.939
 9952TIP3    H251348   2.954   3.141  16.024
 9953TIP3   OH251349   3.667   2.528  15.916
 9953TIP3    H151350   3.622   2.522  15.832
 9953TIP3    H251351   3.707   2.615  15.916
 9954TIP3   OH251352   2.122   2.727  15.810
 9954TIP3    H151353   2.165   2.805  15.844
 9954TIP3    H251354   2.029   2.738  15.833
 9955TIP3   OH251355   3.258   3.168  15.836
 9955TIP3    H151356   3.284   3.077  15.850
 9955TIP3    H251357   3.187   3.163  15.772
 9956TIP3   OH251358   3.700   3.647  15.843
 9956TIP3    H151359   3.772   3.710  15.846
 9956TIP3    H251360   3.625   3.694  15.878
 9957TIP3   OH251361   2.660   3.289  15.650
 9957TIP3    H151362   2.662   3.203  15.609
 9957TIP3    H251363   2.610   3.275  15.731
 9958TIP3   OH251364   2.502   3.289  15.882
 9958TIP3    H151365   2.499   3.220  15.948
 9958TIP3    H251366   2.519   3.369  15.932
 9959TIP3   OH251367   2.194   2.950  15.949
 9959TIP3    H151368   2.155   2.909  16.026
 9959TIP3    H251369   2.275   2.990  15.982
 9960TIP3   OH251370   2.806   3.405  15.914
 9960TIP3    H151371   2.723   3.444  15.942
 9960TIP3    H251372   2.821   3.440  15.826
 9961TIP3   OH251373   2.575   3.536  -0.015
 9961TIP3    H151374   2.597   3.618  -0.059
 9961TIP3    H251375   2.559   3.561   0.076
 9962TIP3   OH251376   2.375   2.228  15.902
 9962TIP3    H151377   2.321   2.304  15.923
 9962TIP3    H251378   2.457   2.244  15.949
 9963TIP3   OH251379   2.272   3.257  15.736
 9963TIP3    H151380   2.346   3.283  15.790
 9963TIP3    H251381   2.298   3.174  15.696
 9964TIP3   OH251382   2.158   2.453  15.792
 9964TIP3    H151383   2.146   2.547  15.780
 9964TIP3    H251384   2.154   2.416  15.704
 9965TIP3   OH251385   2.876   3.462  15.642
 9965TIP3    H151386   2.811   3.393  15.632
 9965TIP3    H251387   2.957   3.423  15.609
 9966TIP3   OH251388   3.384   3.451  15.691
 9966TIP3    H151389   3.466   3.436  15.737
 9966TIP3    H251390   3.409   3.469  15.601
 9967TIP3   OH251391   2.405   3.034  15.640
 9967TIP3    H151392   2.409   2.967  15.708
 9967TIP3    H251393   2.492   3.033  15.600
 9968TIP3   OH251394   3.038   3.147  15.673
 9968TIP3    H151395   2.992   3.140  15.756
 9968TIP3    H251396   3.020   3.064  15.628
 9969TIP3   OH251397   2.474   2.847  15.835
 9969TIP3    H151398   2.421   2.771  15.857
 9969TIP3    H251399   2.555   2.811  15.800
 9970TIP3   OH251400   2.678   2.691  15.737
 9970TIP3    H151401   2.665   2.711  15.644
 9970TIP3    H251402   2.773   2.683  15.746
 9971TIP3   OH251403   3.569   2.903  15.703
 9971TIP3    H151404   3.571   2.879  15.610
 9971TIP3    H251405   3.559   2.998  15.702
 9972TIP3   OH251406   2.693   3.767  15.883
 9972TIP3    H151407   2.783   3.737  15.872
 9972TIP3    H251408   2.680   3.830  15.812
 9973TIP3   OH251409   2.010   3.231  15.823
 9973TIP3    H151410   2.104   3.244  15.810
 9973TIP3    H251411   1.984   3.175  15.750
 9974TIP3   OH251412   3.746   2.790  15.877
 9974TIP3    H151413   3.686   2.817  15.808
 9974TIP3    H251414   3.735   2.855  15.946
 9975TIP3   OH251415   3.541   2.512  15.676
 9975TIP3    H151416   3.509   2.555  15.596
 9975TIP3    H251417   3.526   2.419  15.660
 9976TIP3   OH251418   3.475   2.256  15.608
 9976TIP3    H151419   3.511   2.202  15.679
 9976TIP3    H251420   3.384   2.229  15.602
 9977TIP3   OH251421   3.623   2.127  15.809
 9977TIP3    H151422   3.663   2.064  15.748
 9977TIP3    H251423   3.694   2.183  15.837
 9978TIP3   OH251424   2.023   1.970  15.904
 9978TIP3    H151425   2.081   2.000  15.834
 9978TIP3    H251426   2.012   2.047  15.960
 9979TIP3   OH251427   2.210   2.085  15.732
 9979TIP3    H151428   2.264   2.033  15.672
 9979TIP3    H251429   2.274   2.125  15.791
 9980TIP3   OH251430   2.942   3.668  15.820
 9980TIP3    H151431   3.037   3.671  15.832
 9980TIP3    H251432   2.929   3.608  15.747
 9981TIP3   OH251433   2.225   3.605  15.742
 9981TIP3    H151434   2.203   3.645  15.827
 9981TIP3    H251435   2.264   3.521  15.765
 9982TIP3   OH251436   4.831   2.713  15.731
 9982TIP3    H151437   4.883   2.736  15.808
 9982TIP3    H251438   4.879   2.642  15.689
 9983TIP3   OH251439   5.030   2.741  15.918
 9983TIP3    H151440   5.080   2.793  15.981
 9983TIP3    H251441   5.086   2.735  15.841
 9984TIP3   OH251442   5.393   1.902  15.942
 9984TIP3    H151443   5.377   1.918  16.036
 9984TIP3    H251444   5.421   1.987  15.908
 9985TIP3   OH251445   5.534   3.393  15.777
 9985TIP3    H151446   5.557   3.482  15.803
 9985TIP3    H251447   5.616   3.344  15.782
 9986TIP3   OH251448   5.076   3.637  15.833
 9986TIP3    H151449   5.133   3.569  15.797
 9986TIP3    H251450   5.098   3.640  15.926
 9987TIP3   OH251451   5.181   2.754  15.686
 9987TIP3    H151452   5.163   2.794  15.601
 9987TIP3    H251453   5.267   2.788  15.710
 9988TIP3   OH251454   4.722   2.227  15.856
 9988TIP3    H151455   4.643   2.257  15.901
 9988TIP3    H251456   4.690   2.163  15.792
 9989TIP3   OH251457   4.431   2.290  15.688
 9989TIP3    H151458   4.382   2.265  15.767
 9989TIP3    H251459   4.372   2.349  15.642
 9990TIP3   OH251460   3.815   2.296  15.912
 9990TIP3    H151461   3.901   2.330  15.887
 9990TIP3    H251462   3.761   2.373  15.926
 9991TIP3   OH251463   4.323   2.571  15.822
 9991TIP3    H151464   4.275   2.534  15.747
 9991TIP3    H251465   4.410   2.590  15.788
 9992TIP3   OH251466   4.977   2.338  15.819
 9992TIP3    H151467   4.889   2.304  15.832
 9992TIP3    H251468   5.009   2.356  15.907
 9993TIP3   OH251469   4.863   3.161  15.933
 9993TIP3    H151470   4.811   3.241  15.929
 9993TIP3    H251471   4.860   3.135  16.025
 9994TIP3   OH251472   5.560   2.534  15.919
 9994TIP3    H151473   5.520   2.522  15.833
 9994TIP3    H251474   5.589   2.625  15.920
 9995TIP3   OH251475   4.000   2.764  15.778
 9995TIP3    H151476   4.043   2.839  15.819
 9995TIP3    H251477   3.910   2.767  15.809
 9996TIP3   OH251478   5.156   3.135  15.899
 9996TIP3    H151479   5.147   3.178  15.984
 9996TIP3    H251480   5.070   3.144  15.858
 9997TIP3   OH251481   5.609   3.648  15.868
 9997TIP3    H151482   5.680   3.713  15.864
 9997TIP3    H251483   5.529   3.699  15.858
 9998TIP3   OH251484   4.548   3.292  15.656
 9998TIP3    H151485   4.549   3.206  15.615
 9998TIP3    H251486   4.500   3.280  15.738
 9999TIP3   OH251487   4.395   3.290  15.888
 9999TIP3    H151488   4.391   3.227  15.960
 9999TIP3    H251489   4.418   3.373  15.930
10000TIP3   OH251490   4.067   2.966  15.948
10000TIP3    H151491   4.033   2.917  16.022
10000TIP3    H251492   4.148   3.006  15.980
10001TIP3   OH251493   4.722   3.396  15.914
10001TIP3    H151494   4.638   3.433  15.941
10001TIP3    H251495   4.735   3.430  15.825
10002TIP3   OH251496   4.490   3.533  15.983
10002TIP3    H151497   4.488   3.612  15.930
10002TIP3    H251498   4.491   3.564  16.073
10003TIP3   OH251499   4.270   2.229  15.910
10003TIP3    H151500   4.218   2.303  15.940
10003TIP3    H251501   4.353   2.237  15.957
10004TIP3   OH251502   4.152   3.254  15.742
10004TIP3    H151503   4.224   3.293  15.791
10004TIP3    H251504   4.189   3.175  15.703
10005TIP3   OH251505   4.001   2.490  15.807
10005TIP3    H151506   4.016   2.584  15.798
10005TIP3    H251507   3.974   2.461  15.720
10006TIP3   OH251508   4.760   3.467  15.641
10006TIP3    H151509   4.694   3.398  15.635
10006TIP3    H251510   4.841   3.426  15.609
10007TIP3   OH251511   5.242   3.451  15.696
10007TIP3    H151512   5.313   3.437  15.759
10007TIP3    H251513   5.287   3.466  15.612
10008TIP3   OH251514   4.287   3.034  15.639
10008TIP3    H151515   4.297   2.973  15.712
10008TIP3    H251516   4.374   3.040  15.602
10009TIP3   OH251517   4.911   3.151  15.660
10009TIP3    H151518   4.881   3.139  15.750
10009TIP3    H251519   4.893   3.067  15.617
10010TIP3   OH251520   4.360   2.853  15.838
10010TIP3    H151521   4.310   2.774  15.857
10010TIP3    H251522   4.443   2.821  15.802
10011TIP3   OH251523   4.560   2.695  15.730
10011TIP3    H151524   4.547   2.717  15.638
10011TIP3    H251525   4.655   2.696  15.742
10012TIP3   OH251526   5.427   2.887  15.692
10012TIP3    H151527   5.435   2.882  15.597
10012TIP3    H251528   5.420   2.981  15.710
10013TIP3   OH251529   4.563   3.795  15.887
10013TIP3    H151530   4.649   3.753  15.879
10013TIP3    H251531   4.557   3.853  15.811
10014TIP3   OH251532   3.881   3.226  15.769
10014TIP3    H151533   3.976   3.244  15.771
10014TIP3    H251534   3.871   3.156  15.705
10015TIP3   OH251535   5.616   2.802  15.872
10015TIP3    H151536   5.554   2.817  15.801
10015TIP3    H251537   5.599   2.872  15.935
10016TIP3   OH251538   5.446   2.499  15.675
10016TIP3    H151539   5.406   2.546  15.602
10016TIP3    H251540   5.424   2.407  15.658
10017TIP3   OH251541   5.365   2.243  15.613
10017TIP3    H151542   5.392   2.194  15.691
10017TIP3    H251543   5.270   2.229  15.607
10018TIP3   OH251544   5.512   2.119  15.814
10018TIP3    H151545   5.555   2.057  15.756
10018TIP3    H251546   5.582   2.178  15.842
10019TIP3   OH251547   3.902   1.970  15.892
10019TIP3    H151548   3.962   2.004  15.825
10019TIP3    H251549   3.908   2.032  15.964
10020TIP3   OH251550   4.102   2.100  15.730
10020TIP3    H151551   4.153   2.039  15.677
10020TIP3    H251552   4.164   2.135  15.794
10021TIP3   OH251553   4.801   3.678  15.818
10021TIP3    H151554   4.896   3.682  15.828
10021TIP3    H251555   4.786   3.619  15.745
10022TIP3   OH251556   4.138   3.652  15.725
10022TIP3    H151557   4.126   3.650  15.820
10022TIP3    H251558   4.207   3.587  15.708
10023TIP3   OH251559   6.729   2.679  15.738
10023TIP3    H151560   6.785   2.704  15.811
10023TIP3    H251561   6.784   2.621  15.684
10024TIP3   OH251562   6.931   2.742  15.920
10024TIP3    H151563   6.980   2.790  15.986
10024TIP3    H251564   6.977   2.760  15.838
10025TIP3   OH251565   7.306   2.004  16.008
10025TIP3    H151566   7.222   1.976  15.970
10025TIP3    H251567   7.325   2.087  15.966
10026TIP3   OH251568   6.985   3.653  15.824
10026TIP3    H151569   7.025   3.573  15.789
10026TIP3    H251570   7.002   3.649  15.918
10027TIP3   OH251571   7.077   2.834  15.705
10027TIP3    H151572   7.042   2.815  15.619
10027TIP3    H251573   7.127   2.915  15.694
10028TIP3   OH251574   6.584   2.231  15.858
10028TIP3    H151575   6.503   2.267  15.893
10028TIP3    H251576   6.556   2.166  15.794
10029TIP3   OH251577   6.321   2.293  15.691
10029TIP3    H151578   6.267   2.267  15.766
10029TIP3    H251579   6.266   2.354  15.642
10030TIP3   OH251580   5.700   2.295  15.912
10030TIP3    H151581   5.783   2.328  15.877
10030TIP3    H251582   5.648   2.374  15.930
10031TIP3   OH251583   6.213   2.573  15.822
10031TIP3    H151584   6.165   2.537  15.748
10031TIP3    H251585   6.300   2.592  15.788
10032TIP3   OH251586   6.847   2.304  15.810
10032TIP3    H151587   6.754   2.282  15.820
10032TIP3    H251588   6.874   2.336  15.896
10033TIP3   OH251589   6.722   3.159  15.943
10033TIP3    H151590   6.677   3.242  15.937
10033TIP3    H251591   6.705   3.129  16.033
10034TIP3   OH251592   5.873   2.753  15.788
10034TIP3    H151593   5.921   2.824  15.829
10034TIP3    H251594   5.783   2.765  15.817
10035TIP3   OH251595   7.031   3.130  15.886
10035TIP3    H151596   6.994   3.159  15.970
10035TIP3    H251597   6.957   3.133  15.825
10036TIP3   OH251598   6.437   3.293  15.654
10036TIP3    H151599   6.439   3.208  15.611
10036TIP3    H251600   6.391   3.279  15.736
10037TIP3   OH251601   6.293   3.285  15.887
10037TIP3    H151602   6.293   3.216  15.954
10037TIP3    H251603   6.309   3.366  15.935
10038TIP3   OH251604   5.967   2.973  15.918
10038TIP3    H151605   5.951   2.988  16.011
10038TIP3    H251606   5.991   3.059  15.883
10039TIP3   OH251607   6.604   3.403  15.914
10039TIP3    H151608   6.519   3.438  15.943
10039TIP3    H251609   6.613   3.433  15.823
10040TIP3   OH251610   6.371   3.530  -0.010
10040TIP3    H151611   6.378   3.610  -0.062
10040TIP3    H251612   6.354   3.560   0.079
10041TIP3   OH251613   6.151   2.230  15.905
10041TIP3    H151614   6.087   2.292  15.939
10041TIP3    H251615   6.230   2.247  15.956
10042TIP3   OH251616   6.042   3.213  15.789
10042TIP3    H151617   6.116   3.263  15.825
10042TIP3    H251618   6.082   3.157  15.722
10043TIP3   OH251619   5.878   2.478  15.791
10043TIP3    H151620   5.893   2.573  15.792
10043TIP3    H251621   5.837   2.461  15.706
10044TIP3   OH251622   6.643   3.472  15.643
10044TIP3    H151623   6.573   3.407  15.636
10044TIP3    H251624   6.720   3.429  15.606
10045TIP3   OH251625   7.098   3.441  15.682
10045TIP3    H151626   7.141   3.356  15.689
10045TIP3    H251627   7.140   3.484  15.608
10046TIP3   OH251628   6.178   3.033  15.633
10046TIP3    H151629   6.190   2.972  15.705
10046TIP3    H251630   6.265   3.041  15.594
10047TIP3   OH251631   6.821   3.138  15.689
10047TIP3    H151632   6.769   3.138  15.769
10047TIP3    H251633   6.794   3.060  15.641
10048TIP3   OH251634   6.254   2.857  15.833
10048TIP3    H151635   6.196   2.783  15.852
10048TIP3    H251636   6.334   2.817  15.800
10049TIP3   OH251637   6.455   2.693  15.735
10049TIP3    H151638   6.444   2.719  15.644
10049TIP3    H251639   6.549   2.680  15.746
10050TIP3   OH251640   6.461   3.777  15.889
10050TIP3    H151641   6.551   3.747  15.873
10050TIP3    H251642   6.442   3.837  15.816
10051TIP3   OH251643   5.769   3.232  15.790
10051TIP3    H151644   5.865   3.238  15.792
10051TIP3    H251645   5.751   3.165  15.723
10052TIP3   OH251646   7.287   2.564  15.753
10052TIP3    H151647   7.244   2.630  15.699
10052TIP3    H251648   7.256   2.481  15.718
10053TIP3   OH251649   7.198   2.320  15.675
10053TIP3    H151650   7.252   2.257  15.722
10053TIP3    H251651   7.129   2.268  15.634
10054TIP3   OH251652   5.786   1.963  15.880
10054TIP3    H151653   5.849   2.003  15.819
10054TIP3    H251654   5.796   2.014  15.961
10055TIP3   OH251655   5.986   2.098  15.727
10055TIP3    H151656   6.040   2.039  15.674
10055TIP3    H251657   6.047   2.135  15.791
10056TIP3   OH251658   6.707   3.683  15.814
10056TIP3    H151659   6.803   3.686  15.817
10056TIP3    H251660   6.687   3.620  15.745
10057TIP3   OH251661   6.025   3.651  15.722
10057TIP3    H151662   6.010   3.654  15.817
10057TIP3    H251663   6.094   3.586  15.711
10058TIP3   OH251664   1.069   4.585  15.732
10058TIP3    H151665   1.123   4.605  15.808
10058TIP3    H251666   1.119   4.520  15.683
10059TIP3   OH251667   1.267   4.613  15.923
10059TIP3    H151668   1.317   4.668  15.983
10059TIP3    H251669   1.316   4.617  15.841
10060TIP3   OH251670   1.642   3.781  15.935
10060TIP3    H151671   1.614   3.791  16.026
10060TIP3    H251672   1.662   3.870  15.906
10061TIP3   OH251673   1.761   5.273  15.768
10061TIP3    H151674   1.784   5.363  15.789
10061TIP3    H251675   1.843   5.224  15.778
10062TIP3   OH251676   1.319   5.531  15.819
10062TIP3    H151677   1.370   5.458  15.786
10062TIP3    H251678   1.355   5.547  15.907
10063TIP3   OH251679   1.412   4.664  15.698
10063TIP3    H151680   1.391   4.696  15.611
10063TIP3    H251681   1.501   4.697  15.715
10064TIP3   OH251682   0.939   4.122  15.845
10064TIP3    H151683   0.856   4.164  15.867
10064TIP3    H251684   0.914   4.050  15.786
10065TIP3   OH251685   0.670   4.183  15.694
10065TIP3    H151686   0.616   4.162  15.771
10065TIP3    H251687   0.615   4.242  15.642
10066TIP3   OH251688   0.024   4.128  15.869
10066TIP3    H151689   0.115   4.148  15.849
10066TIP3    H251690  -0.003   4.196  15.930
10067TIP3   OH251691   0.551   4.463  15.811
10067TIP3    H151692   0.512   4.426  15.732
10067TIP3    H251693   0.642   4.482  15.787
10068TIP3   OH251694   1.197   4.212  15.802
10068TIP3    H151695   1.106   4.184  15.812
10068TIP3    H251696   1.227   4.230  15.891
10069TIP3   OH251697   1.068   5.040  15.929
10069TIP3    H151698   1.028   5.127  15.928
10069TIP3    H251699   1.039   5.001  16.011
10070TIP3   OH251700   1.787   4.415  15.917
10070TIP3    H151701   1.744   4.405  15.833
10070TIP3    H251702   1.821   4.504  15.917
10071TIP3   OH251703   0.190   4.668  15.753
10071TIP3    H151704   0.240   4.735  15.800
10071TIP3    H251705   0.099   4.685  15.777
10072TIP3   OH251706   1.380   5.025  15.897
10072TIP3    H151707   1.357   5.072  15.977
10072TIP3    H251708   1.305   5.037  15.840
10073TIP3   OH251709   1.837   5.526  15.841
10073TIP3    H151710   1.909   5.589  15.854
10073TIP3    H251711   1.760   5.571  15.874
10074TIP3   OH251712   0.783   5.180  15.659
10074TIP3    H151713   0.783   5.095  15.616
10074TIP3    H251714   0.742   5.164  15.745
10075TIP3   OH251715   0.651   5.167  15.904
10075TIP3    H151716   0.645   5.105  15.976
10075TIP3    H251717   0.668   5.251  15.946
10076TIP3   OH251718   0.304   4.863  15.905
10076TIP3    H151719   0.330   4.854  15.997
10076TIP3    H251720   0.339   4.949  15.879
10077TIP3   OH251721   0.957   5.290  15.918
10077TIP3    H151722   0.873   5.328  15.943
10077TIP3    H251723   0.974   5.324  15.830
10078TIP3   OH251724   0.722   5.421  15.984
10078TIP3    H151725   0.726   5.497  15.926
10078TIP3    H251726   0.722   5.459  16.073
10079TIP3   OH251727   0.494   4.144  15.904
10079TIP3    H151728   0.445   4.223  15.928
10079TIP3    H251729   0.569   4.144  15.963
10080TIP3   OH251730   0.402   5.108  15.801
10080TIP3    H151731   0.479   5.151  15.838
10080TIP3    H251732   0.437   5.054  15.729
10081TIP3   OH251733   0.198   4.400  15.837
10081TIP3    H151734   0.237   4.483  15.808
10081TIP3    H251735   0.113   4.397  15.794
10082TIP3   OH251736   0.995   5.355  15.645
10082TIP3    H151737   0.927   5.288  15.638
10082TIP3    H251738   1.074   5.313  15.611
10083TIP3   OH251739   1.475   5.334  15.691
10083TIP3    H151740   1.546   5.320  15.753
10083TIP3    H251741   1.519   5.349  15.607
10084TIP3   OH251742   0.525   4.922  15.641
10084TIP3    H151743   0.538   4.859  15.712
10084TIP3    H251744   0.611   4.929  15.599
10085TIP3   OH251745   1.169   5.026  15.676
10085TIP3    H151746   1.119   5.020  15.757
10085TIP3    H251747   1.146   4.948  15.627
10086TIP3   OH251748   0.595   4.741  15.838
10086TIP3    H151749   0.539   4.664  15.848
10086TIP3    H251750   0.677   4.706  15.804
10087TIP3   OH251751   0.796   4.584  15.734
10087TIP3    H151752   0.783   4.606  15.642
10087TIP3    H251753   0.891   4.578  15.744
10088TIP3   OH251754   1.669   4.775  15.696
10088TIP3    H151755   1.674   4.765  15.601
10088TIP3    H251756   1.658   4.870  15.709
10089TIP3   OH251757   0.802   5.674  15.887
10089TIP3    H151758   0.890   5.643  15.869
10089TIP3    H251759   0.784   5.738  15.819
10090TIP3   OH251760   0.131   5.102  15.832
10090TIP3    H151761   0.221   5.135  15.830
10090TIP3    H251762   0.132   5.026  15.773
10091TIP3   OH251763   1.857   4.678  15.873
10091TIP3    H151764   1.796   4.699  15.802
10091TIP3    H251765   1.844   4.748  15.937
10092TIP3   OH251766   1.665   4.388  15.676
10092TIP3    H151767   1.628   4.439  15.604
10092TIP3    H251768   1.649   4.297  15.653
10093TIP3   OH251769   1.596   4.133  15.606
10093TIP3    H151770   1.622   4.082  15.683
10093TIP3    H251771   1.504   4.112  15.593
10094TIP3   OH251772   1.744   4.015  15.823
10094TIP3    H151773   1.778   3.958  15.755
10094TIP3    H251774   1.815   4.078  15.840
10095TIP3   OH251775   0.230   3.894  15.970
10095TIP3    H151776   0.244   3.923  15.880
10095TIP3    H251777   0.135   3.889  15.979
10096TIP3   OH251778   0.335   4.001  15.732
10096TIP3    H151779   0.389   3.941  15.680
10096TIP3    H251780   0.396   4.042  15.793
10097TIP3   OH251781   1.043   5.571  15.812
10097TIP3    H151782   1.138   5.571  15.823
10097TIP3    H251783   1.027   5.508  15.742
10098TIP3   OH251784   0.365   5.542  15.729
10098TIP3    H151785   0.355   5.544  15.824
10098TIP3    H251786   0.432   5.475  15.713
10099TIP3   OH251787   2.949   4.593  15.731
10099TIP3    H151788   3.001   4.615  15.808
10099TIP3    H251789   2.999   4.524  15.687
10100TIP3   OH251790   3.147   4.622  15.922
10100TIP3    H151791   3.198   4.672  15.985
10100TIP3    H251792   3.199   4.623  15.842
10101TIP3   OH251793   3.480   3.794  15.940
10101TIP3    H151794   3.480   3.811  16.034
10101TIP3    H251795   3.515   3.874  15.901
10102TIP3   OH251796   3.648   5.271  15.750
10102TIP3    H151797   3.669   5.360  15.777
10102TIP3    H251798   3.732   5.225  15.749
10103TIP3   OH251799   3.200   5.537  15.826
10103TIP3    H151800   3.251   5.463  15.793
10103TIP3    H251801   3.231   5.549  15.916
10104TIP3   OH251802   3.291   4.654  15.689
10104TIP3    H151803   3.274   4.691  15.602
10104TIP3    H251804   3.379   4.685  15.712
10105TIP3   OH251805   2.822   4.112  15.856
10105TIP3    H151806   2.739   4.148  15.888
10105TIP3    H251807   2.796   4.045  15.793
10106TIP3   OH251808   2.544   4.172  15.688
10106TIP3    H151809   2.497   4.161  15.770
10106TIP3    H251810   2.492   4.234  15.638
10107TIP3   OH251811   1.941   4.186  15.905
10107TIP3    H151812   2.022   4.224  15.870
10107TIP3    H251813   1.886   4.261  15.925
10108TIP3   OH251814   2.441   4.443  15.818
10108TIP3    H151815   2.399   4.419  15.735
10108TIP3    H251816   2.529   4.471  15.793
10109TIP3   OH251817   3.084   4.204  15.809
10109TIP3    H151818   2.994   4.177  15.825
10109TIP3    H251819   3.121   4.220  15.896
10110TIP3   OH251820   2.982   5.051  15.929
10110TIP3    H151821   2.930   5.130  15.926
10110TIP3    H251822   2.979   5.024  16.021
10111TIP3   OH251823   3.676   4.420  15.916
10111TIP3    H151824   3.631   4.411  15.832
10111TIP3    H251825   3.706   4.511  15.918
10112TIP3   OH251826   2.118   4.639  15.799
10112TIP3    H151827   2.159   4.715  15.838
10112TIP3    H251828   2.025   4.646  15.822
10113TIP3   OH251829   3.271   5.038  15.895
10113TIP3    H151830   3.266   5.072  15.984
10113TIP3    H251831   3.182   5.044  15.861
10114TIP3   OH251832   3.716   5.525  15.833
10114TIP3    H151833   3.786   5.589  15.844
10114TIP3    H251834   3.639   5.567  15.871
10115TIP3   OH251835   2.668   5.177  15.654
10115TIP3    H151836   2.669   5.090  15.615
10115TIP3    H251837   2.621   5.165  15.737
10116TIP3   OH251838   2.519   5.173  15.887
10116TIP3    H151839   2.518   5.109  15.958
10116TIP3    H251840   2.539   5.256  15.931
10117TIP3   OH251841   2.195   4.869  15.922
10117TIP3    H151842   2.236   4.882  16.008
10117TIP3    H251843   2.212   4.951  15.875
10118TIP3   OH251844   2.842   5.285  15.911
10118TIP3    H151845   2.758   5.321  15.942
10118TIP3    H251846   2.850   5.318  15.822
10119TIP3   OH251847   2.609   5.417  15.984
10119TIP3    H151848   2.611   5.496  15.930
10119TIP3    H251849   2.601   5.449  16.074
10120TIP3   OH251850   2.362   4.137  15.907
10120TIP3    H151851   2.321   4.224  15.909
10120TIP3    H251852   2.442   4.148  15.960
10121TIP3   OH251853   2.269   5.103  15.784
10121TIP3    H151854   2.340   5.154  15.821
10121TIP3    H251855   2.311   5.047  15.718
10122TIP3   OH251856   2.122   4.364  15.787
10122TIP3    H151857   2.135   4.459  15.792
10122TIP3    H251858   2.091   4.348  15.698
10123TIP3   OH251859   2.878   5.352  15.639
10123TIP3    H151860   2.811   5.284  15.634
10123TIP3    H251861   2.957   5.310  15.606
10124TIP3   OH251862   3.348   5.335  15.694
10124TIP3    H151863   3.411   5.312  15.763
10124TIP3    H251864   3.401   5.347  15.616
10125TIP3   OH251865   2.406   4.917  15.635
10125TIP3    H151866   2.417   4.856  15.708
10125TIP3    H251867   2.493   4.925  15.596
10126TIP3   OH251868   3.018   5.039  15.653
10126TIP3    H151869   2.994   5.028  15.745
10126TIP3    H251870   3.002   4.953  15.614
10127TIP3   OH251871   2.474   4.738  15.837
10127TIP3    H151872   2.416   4.664  15.855
10127TIP3    H251873   2.555   4.698  15.804
10128TIP3   OH251874   2.677   4.579  15.737
10128TIP3    H151875   2.663   4.602  15.645
10128TIP3    H251876   2.772   4.577  15.748
10129TIP3   OH251877   3.543   4.772  15.692
10129TIP3    H151878   3.551   4.765  15.596
10129TIP3    H251879   3.534   4.865  15.708
10130TIP3   OH251880   2.685   5.672  15.886
10130TIP3    H151881   2.773   5.640  15.866
10130TIP3    H251882   2.666   5.735  15.816
10131TIP3   OH251883   1.995   5.112  15.792
10131TIP3    H151884   2.090   5.124  15.793
10131TIP3    H251885   1.979   5.047  15.723
10132TIP3   OH251886   3.729   4.689  15.875
10132TIP3    H151887   3.666   4.704  15.805
10132TIP3    H251888   3.712   4.758  15.939
10133TIP3   OH251889   3.552   4.388  15.676
10133TIP3    H151890   3.514   4.437  15.603
10133TIP3    H251891   3.537   4.296  15.654
10134TIP3   OH251892   3.481   4.132  15.596
10134TIP3    H151893   3.511   4.082  15.672
10134TIP3    H251894   3.387   4.113  15.590
10135TIP3   OH251895   3.614   4.000  15.802
10135TIP3    H151896   3.662   3.938  15.746
10135TIP3    H251897   3.682   4.057  15.838
10136TIP3   OH251898   2.031   3.864  15.883
10136TIP3    H151899   2.088   3.907  15.820
10136TIP3    H251900   2.014   3.931  15.950
10137TIP3   OH251901   2.223   3.987  15.721
10137TIP3    H151902   2.282   3.923  15.680
10137TIP3    H251903   2.277   4.031  15.786
10138TIP3   OH251904   2.925   5.571  15.805
10138TIP3    H151905   3.020   5.571  15.819
10138TIP3    H251906   2.911   5.504  15.738
10139TIP3   OH251907   2.248   5.518  15.705
10139TIP3    H151908   2.237   5.519  15.800
10139TIP3    H251909   2.322   5.460  15.690
10140TIP3   OH251910   4.826   4.591  15.721
10140TIP3    H151911   4.871   4.613  15.803
10140TIP3    H251912   4.880   4.524  15.681
10141TIP3   OH251913   5.015   4.631  15.922
10141TIP3    H151914   5.069   4.673  15.990
10141TIP3    H251915   5.068   4.637  15.843
10142TIP3   OH251916   5.381   3.796  15.893
10142TIP3    H151917   5.318   3.763  15.956
10142TIP3    H251918   5.392   3.889  15.915
10143TIP3   OH251919   5.541   5.272  15.742
10143TIP3    H151920   5.559   5.361  15.769
10143TIP3    H251921   5.626   5.228  15.743
10144TIP3   OH251922   5.084   5.544  15.828
10144TIP3    H151923   5.132   5.469  15.793
10144TIP3    H251924   5.117   5.553  15.918
10145TIP3   OH251925   5.176   4.684  15.707
10145TIP3    H151926   5.158   4.710  15.617
10145TIP3    H251927   5.269   4.705  15.720
10146TIP3   OH251928   4.767   4.115  15.814
10146TIP3    H151929   4.745   4.101  15.906
10146TIP3    H251930   4.710   4.054  15.767
10147TIP3   OH251931   4.424   4.178  15.685
10147TIP3    H151932   4.385   4.154  15.769
10147TIP3    H251933   4.363   4.243  15.648
10148TIP3   OH251934   3.805   4.176  15.907
10148TIP3    H151935   3.896   4.199  15.888
10148TIP3    H251936   3.761   4.261  15.919
10149TIP3   OH251937   4.351   4.446  15.848
10149TIP3    H151938   4.278   4.424  15.791
10149TIP3    H251939   4.418   4.481  15.788
10150TIP3   OH251940   5.018   4.216  15.785
10150TIP3    H151941   4.929   4.187  15.802
10150TIP3    H251942   5.063   4.205  15.868
10151TIP3   OH251943   4.871   5.050  15.921
10151TIP3    H151944   4.815   5.127  15.924
10151TIP3    H251945   4.867   5.014  16.009
10152TIP3   OH251946   5.587   4.420  15.917
10152TIP3    H151947   5.538   4.405  15.836
10152TIP3    H251948   5.606   4.514  15.915
10153TIP3   OH251949   3.982   4.658  15.775
10153TIP3    H151950   4.030   4.728  15.819
10153TIP3    H251951   3.893   4.665  15.808
10154TIP3   OH251952   5.153   5.102  15.866
10154TIP3    H151953   5.155   5.100  15.962
10154TIP3    H251954   5.064   5.077  15.843
10155TIP3   OH251955   5.610   5.526  15.827
10155TIP3    H151956   5.679   5.591  15.842
10155TIP3    H251957   5.531   5.566  15.864
10156TIP3   OH251958   4.543   5.178  15.657
10156TIP3    H151959   4.547   5.091  15.617
10156TIP3    H251960   4.497   5.164  15.740
10157TIP3   OH251961   4.395   5.176  15.893
10157TIP3    H151962   4.386   5.113  15.964
10157TIP3    H251963   4.420   5.258  15.936
10158TIP3   OH251964   4.062   4.852  15.951
10158TIP3    H151965   4.029   4.800  16.024
10158TIP3    H251966   4.147   4.885  15.981
10159TIP3   OH251967   4.721   5.280  15.912
10159TIP3    H151968   4.638   5.316  15.943
10159TIP3    H251969   4.729   5.311  15.822
10160TIP3   OH251970   4.491   5.416  -0.008
10160TIP3    H151971   4.498   5.499  -0.055
10160TIP3    H251972   4.488   5.442   0.084
10161TIP3   OH251973   4.315   4.022  15.908
10161TIP3    H151974   4.358   4.087  15.964
10161TIP3    H251975   4.375   3.947  15.907
10162TIP3   OH251976   4.161   5.134  15.743
10162TIP3    H151977   4.233   5.171  15.794
10162TIP3    H251978   4.196   5.053  15.707
10163TIP3   OH251979   3.991   4.385  15.809
10163TIP3    H151980   4.002   4.480  15.798
10163TIP3    H251981   3.955   4.355  15.726
10164TIP3   OH251982   4.756   5.350  15.641
10164TIP3    H151983   4.687   5.284  15.635
10164TIP3    H251984   4.834   5.308  15.605
10165TIP3   OH251985   5.206   5.330  15.700
10165TIP3    H151986   5.211   5.260  15.765
10165TIP3    H251987   5.292   5.330  15.658
10166TIP3   OH251988   4.295   4.910  15.647
10166TIP3    H151989   4.312   4.855  15.723
10166TIP3    H251990   4.380   4.919  15.604
10167TIP3   OH251991   4.901   5.039  15.646
10167TIP3    H151992   4.879   5.027  15.738
10167TIP3    H251993   4.889   4.953  15.606
10168TIP3   OH251994   4.420   4.757  15.855
10168TIP3    H151995   4.451   4.712  15.934
10168TIP3    H251996   4.458   4.707  15.783
10169TIP3   OH251997   4.550   4.574  15.696
10169TIP3    H151998   4.547   4.601  15.604
10169TIP3    H251999   4.644   4.572  15.717
10170TIP3   OH252000   5.437   4.778  15.692
10170TIP3    H152001   5.442   4.768  15.597
10170TIP3    H252002   5.428   4.872  15.706
10171TIP3   OH252003   4.573   5.669  15.892
10171TIP3    H152004   4.660   5.634  15.873
10171TIP3    H252005   4.554   5.728  15.820
10172TIP3   OH252006   3.888   5.128  15.741
10172TIP3    H152007   3.982   5.135  15.759
10172TIP3    H252008   3.879   5.049  15.688
10173TIP3   OH252009   5.621   4.690  15.873
10173TIP3    H152010   5.560   4.702  15.801
10173TIP3    H252011   5.597   4.756  15.938
10174TIP3   OH252012   5.451   4.400  15.680
10174TIP3    H152013   5.409   4.440  15.604
10174TIP3    H252014   5.430   4.307  15.673
10175TIP3   OH252015   5.376   4.141  15.621
10175TIP3    H152016   5.442   4.108  15.682
10175TIP3    H252017   5.294   4.100  15.650
10176TIP3   OH252018   5.598   4.061  15.752
10176TIP3    H152019   5.613   3.967  15.759
10176TIP3    H252020   5.647   4.099  15.825
10177TIP3   OH252021   3.892   3.853  15.870
10177TIP3    H152022   3.956   3.896  15.813
10177TIP3    H252023   3.921   3.872  15.959
10178TIP3   OH252024   4.104   3.989  15.730
10178TIP3    H152025   4.150   3.931  15.670
10178TIP3    H252026   4.168   4.009  15.798
10179TIP3   OH252027   4.810   5.566  15.809
10179TIP3    H152028   4.905   5.568  15.820
10179TIP3    H252029   4.795   5.500  15.742
10180TIP3   OH252030   4.136   5.541  15.725
10180TIP3    H152031   4.130   5.547  15.820
10180TIP3    H252032   4.203   5.475  15.709
10181TIP3   OH252033   6.733   4.569  15.733
10181TIP3    H152034   6.786   4.591  15.809
10181TIP3    H252035   6.789   4.510  15.682
10182TIP3   OH252036   6.933   4.630  15.921
10182TIP3    H152037   6.983   4.676  15.989
10182TIP3    H252038   6.975   4.656  15.839
10183TIP3   OH252039   7.286   3.894  15.992
10183TIP3    H152040   7.210   3.856  15.947
10183TIP3    H252041   7.300   3.978  15.949
10184TIP3   OH252042   6.987   5.550  15.810
10184TIP3    H152043   7.024   5.466  15.785
10184TIP3    H252044   7.056   5.593  15.861
10185TIP3   OH252045   7.063   4.745  15.711
10185TIP3    H152046   7.044   4.732  15.619
10185TIP3    H252047   7.083   4.839  15.718
10186TIP3   OH252048   6.586   4.120  15.855
10186TIP3    H152049   6.505   4.161  15.885
10186TIP3    H252050   6.557   4.053  15.793
10187TIP3   OH252051   6.323   4.181  15.693
10187TIP3    H152052   6.267   4.153  15.765
10187TIP3    H252053   6.269   4.242  15.643
10188TIP3   OH252054   5.767   4.210  15.921
10188TIP3    H152055   5.825   4.257  15.862
10188TIP3    H252056   5.694   4.270  15.937
10189TIP3   OH252057   6.213   4.464  15.854
10189TIP3    H152058   6.148   4.417  15.802
10189TIP3    H252059   6.290   4.469  15.798
10190TIP3   OH252060   6.851   4.195  15.820
10190TIP3    H152061   6.757   4.174  15.824
10190TIP3    H252062   6.875   4.215  15.910
10191TIP3   OH252063   6.746   5.047  15.925
10191TIP3    H152064   6.694   5.127  15.920
10191TIP3    H252065   6.732   5.015  16.014
10192TIP3   OH252066   5.876   4.666  15.776
10192TIP3    H152067   5.919   4.739  15.820
10192TIP3    H252068   5.786   4.668  15.809
10193TIP3   OH252069   7.029   5.016  15.902
10193TIP3    H152070   7.031   5.059  15.988
10193TIP3    H252071   6.937   5.022  15.875
10194TIP3   OH252072   6.429   5.180  15.656
10194TIP3    H152073   6.434   5.094  15.614
10194TIP3    H252074   6.385   5.163  15.739
10195TIP3   OH252075   6.286   5.170  15.895
10195TIP3    H152076   6.279   5.105  15.965
10195TIP3    H252077   6.307   5.252  15.940
10196TIP3   OH252078   5.950   4.860  15.953
10196TIP3    H152079   5.918   4.805  16.025
10196TIP3    H252080   6.037   4.888  15.982
10197TIP3   OH252081   6.600   5.279  15.907
10197TIP3    H152082   6.517   5.315  15.938
10197TIP3    H252083   6.611   5.314  15.819
10198TIP3   OH252084   6.372   5.417  -0.009
10198TIP3    H152085   6.384   5.497  -0.060
10198TIP3    H252086   6.373   5.447   0.082
10199TIP3   OH252087   6.153   4.117  15.903
10199TIP3    H152088   6.091   4.094  15.971
10199TIP3    H252089   6.227   4.155  15.950
10200TIP3   OH252090   6.051   5.138  15.748
10200TIP3    H152091   6.125   5.169  15.799
10200TIP3    H252092   6.083   5.060  15.703
10201TIP3   OH252093   5.892   4.392  15.759
10201TIP3    H152094   5.899   4.487  15.769
10201TIP3    H252095   5.835   4.380  15.683
10202TIP3   OH252096   6.638   5.357  15.641
10202TIP3    H152097   6.569   5.291  15.633
10202TIP3    H252098   6.715   5.316  15.602
10203TIP3   OH252099   7.092   5.328  15.669
10203TIP3    H152100   7.136   5.245  15.690
10203TIP3    H252101   7.145   5.366  15.598
10204TIP3   OH252102   6.174   4.918  15.633
10204TIP3    H152103   6.184   4.856  15.705
10204TIP3    H252104   6.262   4.925  15.596
10205TIP3   OH252105   6.783   5.035  15.649
10205TIP3    H152106   6.758   5.028  15.741
10205TIP3    H252107   6.766   4.949  15.613
10206TIP3   OH252108   6.252   4.740  15.833
10206TIP3    H152109   6.204   4.661  15.856
10206TIP3    H252110   6.336   4.709  15.798
10207TIP3   OH252111   6.457   4.581  15.734
10207TIP3    H152112   6.444   4.603  15.642
10207TIP3    H252113   6.552   4.569  15.743
10208TIP3   OH252114   6.463   5.663  15.889
10208TIP3    H152115   6.552   5.631  15.876
10208TIP3    H252116   6.448   5.724  15.817
10209TIP3   OH252117   5.779   5.130  15.741
10209TIP3    H152118   5.872   5.135  15.760
10209TIP3    H252119   5.769   5.052  15.687
10210TIP3   OH252120   7.287   4.422  15.727
10210TIP3    H152121   7.254   4.486  15.663
10210TIP3    H252122   7.266   4.337  15.688
10211TIP3   OH252123   7.240   4.170  15.621
10211TIP3    H152124   7.271   4.128  15.701
10211TIP3    H252125   7.152   4.135  15.608
10212TIP3   OH252126   5.782   3.867  15.899
10212TIP3    H152127   5.842   3.920  15.846
10212TIP3    H252128   5.754   3.925  15.970
10213TIP3   OH252129   5.980   3.991  15.728
10213TIP3    H152130   6.033   3.929  15.678
10213TIP3    H252131   6.042   4.034  15.787
10214TIP3   OH252132   6.708   5.563  15.821
10214TIP3    H152133   6.803   5.569  15.826
10214TIP3    H252134   6.692   5.502  15.748
10215TIP3   OH252135   6.013   5.532  15.699
10215TIP3    H152136   5.982   5.519  15.789
10215TIP3    H252137   6.084   5.469  15.689
10216TIP3   OH252138   1.056   6.472  15.732
10216TIP3    H152139   1.109   6.497  15.808
10216TIP3    H252140   1.106   6.401  15.691
10217TIP3   OH252141   1.258   6.513  15.917
10217TIP3    H152142   1.314   6.560  15.978
10217TIP3    H252143   1.311   6.506  15.837
10218TIP3   OH252144   1.627   5.677  15.943
10218TIP3    H152145   1.613   5.695  16.036
10218TIP3    H252146   1.650   5.762  15.905
10219TIP3   OH252147   1.738   7.146  15.743
10219TIP3    H152148   1.732   7.215  15.809
10219TIP3    H252149   1.832   7.129  15.734
10220TIP3   OH252150   1.409   6.521  15.686
10220TIP3    H152151   1.394   6.560  15.600
10220TIP3    H252152   1.496   6.552  15.711
10221TIP3   OH252153   0.946   6.000  15.877
10221TIP3    H152154   0.867   6.028  15.924
10221TIP3    H252155   0.912   5.944  15.806
10222TIP3   OH252156   0.636   6.079  15.662
10222TIP3    H152157   0.587   6.056  15.741
10222TIP3    H252158   0.581   6.144  15.618
10223TIP3   OH252159   0.037   6.029  15.864
10223TIP3    H152160   0.123   6.070  15.858
10223TIP3    H252161   0.055   5.941  15.897
10224TIP3   OH252162   0.538   6.363  15.782
10224TIP3    H152163   0.544   6.323  15.869
10224TIP3    H252164   0.628   6.387  15.761
10225TIP3   OH252165   1.206   6.098  15.823
10225TIP3    H152166   1.117   6.069  15.840
10225TIP3    H252167   1.242   6.118  15.910
10226TIP3   OH252168   1.090   6.960  15.905
10226TIP3    H152169   1.053   7.048  15.912
10226TIP3    H252170   1.078   6.923  15.993
10227TIP3   OH252171   1.781   6.303  15.924
10227TIP3    H152172   1.742   6.294  15.837
10227TIP3    H252173   1.819   6.390  15.925
10228TIP3   OH252174   0.234   6.545  15.768
10228TIP3    H152175   0.244   6.634  15.800
10228TIP3    H252176   0.198   6.497  15.843
10229TIP3   OH252177   1.365   6.899  15.911
10229TIP3    H152178   1.375   6.951  15.990
10229TIP3    H252179   1.277   6.919  15.880
10230TIP3   OH252180   0.797   7.044  15.655
10230TIP3    H152181   0.799   6.959  15.610
10230TIP3    H252182   0.755   7.025  15.739
10231TIP3   OH252183   0.644   7.056  15.888
10231TIP3    H152184   0.623   6.999  15.962
10231TIP3    H252185   0.666   7.140  15.928
10232TIP3   OH252186   0.272   6.766  15.934
10232TIP3    H152187   0.237   6.715  16.007
10232TIP3    H252188   0.361   6.788  15.960
10233TIP3   OH252189   0.970   7.215  15.925
10233TIP3    H152190   0.879   7.239  15.940
10233TIP3    H252191   0.985   7.230  15.832
10234TIP3   OH252192   0.715   7.307  -0.012
10234TIP3    H152193   0.684   7.387  -0.055
10234TIP3    H252194   0.706   7.326   0.082
10235TIP3   OH252195   0.510   6.002  15.895
10235TIP3    H152196   0.456   5.962  15.963
10235TIP3    H252197   0.592   6.024  15.940
10236TIP3   OH252198   0.391   7.046  15.729
10236TIP3    H152199   0.462   7.089  15.776
10236TIP3    H252200   0.427   6.963  15.701
10237TIP3   OH252201   0.218   6.245  15.735
10237TIP3    H152202   0.231   6.266  15.827
10237TIP3    H252203   0.124   6.260  15.720
10238TIP3   OH252204   1.004   7.231  15.657
10238TIP3    H152205   0.940   7.162  15.639
10238TIP3    H252206   1.082   7.204  15.609
10239TIP3   OH252207   1.453   7.193  15.698
10239TIP3    H152208   1.441   7.187  15.793
10239TIP3    H252209   1.547   7.186  15.685
10240TIP3   OH252210   0.532   6.812  15.660
10240TIP3    H152211   0.562   6.763  15.737
10240TIP3    H252212   0.609   6.815  15.603
10241TIP3   OH252213   1.108   6.925  15.626
10241TIP3    H152214   1.093   6.923  15.720
10241TIP3    H252215   1.106   6.833  15.599
10242TIP3   OH252216   0.669   6.661  15.861
10242TIP3    H152217   0.708   6.624  15.941
10242TIP3    H252218   0.704   6.607  15.790
10243TIP3   OH252219   0.784   6.468  15.701
10243TIP3    H152220   0.780   6.488  15.608
10243TIP3    H252221   0.878   6.463  15.720
10244TIP3   OH252222   1.655   6.648  15.696
10244TIP3    H152223   1.663   6.646  15.601
10244TIP3    H252224   1.642   6.741  15.717
10245TIP3   OH252225   0.143   6.993  15.852
10245TIP3    H152226   0.217   7.032  15.806
10245TIP3    H252227   0.173   6.904  15.873
10246TIP3   OH252228   1.844   6.571  15.876
10246TIP3    H152229   1.773   6.586  15.813
10246TIP3    H252230   1.837   6.644  15.938
10247TIP3   OH252231   1.669   6.275  15.677
10247TIP3    H152232   1.632   6.325  15.604
10247TIP3    H252233   1.653   6.184  15.655
10248TIP3   OH252234   1.594   6.020  15.600
10248TIP3    H152235   1.622   5.972  15.678
10248TIP3    H252236   1.500   6.004  15.594
10249TIP3   OH252237   1.733   5.898  15.809
10249TIP3    H152238   1.776   5.838  15.748
10249TIP3    H252239   1.802   5.959  15.835
10250TIP3   OH252240   0.137   5.771  15.891
10250TIP3    H152241   0.199   5.800  15.823
10250TIP3    H252242   0.191   5.721  15.952
10251TIP3   OH252243   0.333   5.881  15.721
10251TIP3    H152244   0.388   5.824  15.668
10251TIP3    H252245   0.395   5.925  15.780
10252TIP3   OH252246   2.927   6.471  15.739
10252TIP3    H152247   2.983   6.498  15.811
10252TIP3    H252248   2.975   6.401  15.696
10253TIP3   OH252249   3.139   6.512  15.912
10253TIP3    H152250   3.189   6.570  15.970
10253TIP3    H252251   3.195   6.502  15.835
10254TIP3   OH252252   3.510   5.676  15.941
10254TIP3    H152253   3.491   5.693  16.033
10254TIP3    H252254   3.535   5.762  15.906
10255TIP3   OH252255   3.627   7.155  15.740
10255TIP3    H152256   3.622   7.223  15.807
10255TIP3    H252257   3.720   7.131  15.739
10256TIP3   OH252258   3.297   6.510  15.684
10256TIP3    H152259   3.280   6.550  15.599
10256TIP3    H252260   3.382   6.544  15.711
10257TIP3   OH252261   2.829   6.001  15.868
10257TIP3    H152262   2.750   6.035  15.910
10257TIP3    H252263   2.796   5.942  15.800
10258TIP3   OH252264   2.520   6.075  15.660
10258TIP3    H152265   2.477   6.064  15.745
10258TIP3    H252266   2.467   6.141  15.615
10259TIP3   OH252267   1.925   6.065  15.911
10259TIP3    H152268   2.008   6.096  15.875
10259TIP3    H252269   1.878   6.145  15.935
10260TIP3   OH252270   2.472   6.280  15.876
10260TIP3    H152271   2.401   6.341  15.895
10260TIP3    H252272   2.529   6.327  15.816
10261TIP3   OH252273   3.088   6.102  15.822
10261TIP3    H152274   2.999   6.071  15.836
10261TIP3    H252275   3.122   6.119  15.909
10262TIP3   OH252276   2.975   6.952  15.911
10262TIP3    H152277   2.939   7.041  15.916
10262TIP3    H252278   2.951   6.913  15.995
10263TIP3   OH252279   3.674   6.303  15.920
10263TIP3    H152280   3.634   6.294  15.833
10263TIP3    H252281   3.702   6.395  15.923
10264TIP3   OH252282   2.063   6.565  15.709
10264TIP3    H152283   2.136   6.557  15.771
10264TIP3    H252284   1.985   6.562  15.765
10265TIP3   OH252285   3.251   6.908  15.879
10265TIP3    H152286   3.275   6.991  15.921
10265TIP3    H252287   3.156   6.912  15.872
10266TIP3   OH252288   2.693   7.057  15.650
10266TIP3    H152289   2.697   6.973  15.604
10266TIP3    H252290   2.646   7.038  15.731
10267TIP3   OH252291   2.540   7.043  15.880
10267TIP3    H152292   2.527   6.977  15.948
10267TIP3    H252293   2.561   7.123  15.928
10268TIP3   OH252294   2.124   6.809  15.975
10268TIP3    H152295   2.163   6.722  15.972
10268TIP3    H252296   2.177   6.861  15.914
10269TIP3   OH252297   2.864   7.213  15.918
10269TIP3    H152298   2.773   7.238  15.929
10269TIP3    H252299   2.883   7.229  15.826
10270TIP3   OH252300   2.603   7.299  15.971
10270TIP3    H152301   2.551   7.361  15.919
10270TIP3    H252302   2.573   7.312  16.061
10271TIP3   OH252303   2.371   6.011  15.905
10271TIP3    H152304   2.354   6.105  15.905
10271TIP3    H252305   2.456   6.002  15.950
10272TIP3   OH252306   2.273   6.972  15.799
10272TIP3    H152307   2.346   7.022  15.836
10272TIP3    H252308   2.312   6.921  15.728
10273TIP3   OH252309   2.109   6.246  15.787
10273TIP3    H152310   2.152   6.323  15.824
10273TIP3    H252311   2.060   6.279  15.712
10274TIP3   OH252312   2.925   7.216  15.646
10274TIP3    H152313   2.845   7.165  15.637
10274TIP3    H252314   2.991   7.164  15.599
10275TIP3   OH252315   3.356   7.209  15.693
10275TIP3    H152316   3.331   7.202  15.785
10275TIP3    H252317   3.451   7.200  15.693
10276TIP3   OH252318   2.426   6.818  15.629
10276TIP3    H152319   2.442   6.759  15.703
10276TIP3    H252320   2.510   6.824  15.584
10277TIP3   OH252321   3.014   6.916  15.636
10277TIP3    H152322   2.986   6.915  15.728
10277TIP3    H252323   2.998   6.827  15.605
10278TIP3   OH252324   2.489   6.651  15.837
10278TIP3    H152325   2.415   6.601  15.871
10278TIP3    H252326   2.549   6.584  15.803
10279TIP3   OH252327   2.653   6.453  15.734
10279TIP3    H152328   2.639   6.475  15.642
10279TIP3    H252329   2.748   6.452  15.745
10280TIP3   OH252330   3.541   6.644  15.696
10280TIP3    H152331   3.550   6.641  15.601
10280TIP3    H252332   3.532   6.737  15.716
10281TIP3   OH252333   2.013   7.050  15.718
10281TIP3    H152334   2.091   7.038  15.772
10281TIP3    H252335   2.003   6.966  15.673
10282TIP3   OH252336   3.727   6.575  15.885
10282TIP3    H152337   3.665   6.587  15.812
10282TIP3    H252338   3.704   6.644  15.947
10283TIP3   OH252339   3.562   6.270  15.673
10283TIP3    H152340   3.521   6.320  15.603
10283TIP3    H252341   3.542   6.179  15.653
10284TIP3   OH252342   3.483   6.015  15.601
10284TIP3    H152343   3.510   5.968  15.680
10284TIP3    H252344   3.388   6.001  15.596
10285TIP3   OH252345   3.625   5.896  15.811
10285TIP3    H152346   3.666   5.834  15.752
10285TIP3    H252347   3.696   5.954  15.838
10286TIP3   OH252348   2.030   5.736  15.906
10286TIP3    H152349   2.081   5.775  15.835
10286TIP3    H252350   2.012   5.810  15.965
10287TIP3   OH252351   2.208   5.870  15.731
10287TIP3    H152352   2.268   5.818  15.678
10287TIP3    H252353   2.264   5.915  15.794
10288TIP3   OH252354   4.833   6.477  15.730
10288TIP3    H152355   4.882   6.493  15.811
10288TIP3    H252356   4.882   6.408  15.685
10289TIP3   OH252357   5.031   6.496  15.922
10289TIP3    H152358   5.079   6.538  15.993
10289TIP3    H252359   5.082   6.513  15.843
10290TIP3   OH252360   5.401   5.674  15.935
10290TIP3    H152361   5.381   5.689  16.027
10290TIP3    H252362   5.424   5.761  15.901
10291TIP3   OH252363   5.527   7.208  15.768
10291TIP3    H152364   5.474   7.264  15.825
10291TIP3    H252365   5.564   7.268  15.703
10292TIP3   OH252366   5.185   6.579  15.712
10292TIP3    H152367   5.166   6.593  15.620
10292TIP3    H252368   5.276   6.607  15.723
10293TIP3   OH252369   4.719   6.012  15.833
10293TIP3    H152370   4.649   6.034  15.895
10293TIP3    H252371   4.681   5.942  15.779
10294TIP3   OH252372   4.423   6.063  15.684
10294TIP3    H152373   4.373   6.037  15.762
10294TIP3    H252374   4.366   6.126  15.640
10295TIP3   OH252375   3.817   6.067  15.911
10295TIP3    H152376   3.903   6.100  15.884
10295TIP3    H252377   3.766   6.146  15.928
10296TIP3   OH252378   4.322   6.347  15.843
10296TIP3    H152379   4.262   6.301  15.784
10296TIP3    H252380   4.402   6.357  15.792
10297TIP3   OH252381   4.973   6.113  15.810
10297TIP3    H152382   4.884   6.078  15.817
10297TIP3    H252383   4.998   6.135  15.899
10298TIP3   OH252384   4.900   6.895  15.924
10298TIP3    H152385   4.854   6.979  15.931
10298TIP3    H252386   4.850   6.835  15.979
10299TIP3   OH252387   5.554   6.300  15.911
10299TIP3    H152388   5.508   6.290  15.828
10299TIP3    H252389   5.596   6.386  15.905
10300TIP3   OH252390   3.986   6.543  15.797
10300TIP3    H152391   4.031   6.620  15.832
10300TIP3    H252392   3.896   6.550  15.830
10301TIP3   OH252393   5.174   6.998  15.851
10301TIP3    H152394   5.149   6.989  15.943
10301TIP3    H252395   5.099   6.964  15.803
10302TIP3   OH252396   4.620   7.023  15.636
10302TIP3    H152397   4.599   6.937  15.598
10302TIP3    H252398   4.582   7.020  15.724
10303TIP3   OH252399   4.491   7.013  15.885
10303TIP3    H152400   4.444   6.951  15.941
10303TIP3    H252401   4.425   7.076  15.858
10304TIP3   OH252402   4.076   6.777  15.908
10304TIP3    H152403   4.081   6.787  16.003
10304TIP3    H252404   4.107   6.861  15.873
10305TIP3   OH252405   4.741   7.115  15.928
10305TIP3    H152406   4.657   7.071  15.928
10305TIP3    H252407   4.723   7.203  15.895
10306TIP3   OH252408   4.396   0.080   0.056
10306TIP3    H152409   4.459   0.056  -0.012
10306TIP3    H252410   4.431   0.040   0.136
10307TIP3   OH252411   4.271   5.990  15.906
10307TIP3    H152412   4.206   5.991  15.976
10307TIP3    H252413   4.353   6.014  15.950
10308TIP3   OH252414   4.165   7.012  15.778
10308TIP3    H152415   4.216   7.093  15.766
10308TIP3    H252416   4.209   6.948  15.723
10309TIP3   OH252417   3.995   6.268  15.804
10309TIP3    H152418   4.004   6.363  15.803
10309TIP3    H252419   3.954   6.247  15.720
10310TIP3   OH252420   4.743   7.256  15.574
10310TIP3    H152421   4.720   7.309  15.651
10310TIP3    H252422   4.716   7.167  15.598
10311TIP3   OH252423   5.191   7.208  15.652
10311TIP3    H152424   5.202   7.154  15.730
10311TIP3    H252425   5.281   7.225  15.623
10312TIP3   OH252426   4.298   6.815  15.642
10312TIP3    H152427   4.303   6.750  15.713
10312TIP3    H252428   4.385   6.813  15.602
10313TIP3   OH252429   4.950   6.904  15.654
10313TIP3    H152430   4.913   6.900  15.742
10313TIP3    H252431   4.917   6.824  15.611
10314TIP3   OH252432   4.359   6.625  15.835
10314TIP3    H152433   4.305   6.549  15.858
10314TIP3    H252434   4.439   6.588  15.798
10315TIP3   OH252435   4.558   6.467  15.728
10315TIP3    H152436   4.546   6.483  15.634
10315TIP3    H252437   4.653   6.464  15.739
10316TIP3   OH252438   5.448   6.683  15.714
10316TIP3    H152439   5.452   6.660  15.622
10316TIP3    H252440   5.449   6.779  15.715
10317TIP3   OH252441   3.891   7.034  15.738
10317TIP3    H152442   3.982   7.028  15.768
10317TIP3    H252443   3.877   6.954  15.687
10318TIP3   OH252444   5.639   6.560  15.873
10318TIP3    H152445   5.579   6.589  15.804
10318TIP3    H252446   5.616   6.615  15.948
10319TIP3   OH252447   5.428   6.276  15.671
10319TIP3    H152448   5.397   6.317  15.590
10319TIP3    H252449   5.416   6.182  15.656
10320TIP3   OH252450   5.368   6.017  15.598
10320TIP3    H152451   5.399   5.968  15.675
10320TIP3    H252452   5.274   5.997  15.594
10321TIP3   OH252453   5.510   5.899  15.809
10321TIP3    H152454   5.553   5.837  15.749
10321TIP3    H252455   5.582   5.954  15.842
10322TIP3   OH252456   3.904   5.737  15.886
10322TIP3    H152457   3.963   5.771  15.819
10322TIP3    H252458   3.910   5.799  15.958
10323TIP3   OH252459   4.102   5.867  15.725
10323TIP3    H152460   4.154   5.806  15.672
10323TIP3    H252461   4.165   5.903  15.788
10324TIP3   OH252462   6.716   6.450  15.734
10324TIP3    H152463   6.766   6.469  15.814
10324TIP3    H252464   6.772   6.389  15.685
10325TIP3   OH252465   6.902   6.507  15.929
10325TIP3    H152466   6.958   6.523  16.005
10325TIP3    H252467   6.949   6.548  15.856
10326TIP3   OH252468   7.207   5.677  15.927
10326TIP3    H152469   7.201   5.696  16.021
10326TIP3    H252470   7.296   5.703  15.903
10327TIP3   OH252471   7.060   6.663  15.771
10327TIP3    H152472   7.055   6.648  15.676
10327TIP3    H252473   7.054   6.758  15.780
10328TIP3   OH252474   6.610   6.004  15.860
10328TIP3    H152475   6.531   6.037  15.902
10328TIP3    H252476   6.579   5.939  15.798
10329TIP3   OH252477   6.313   6.059  15.685
10329TIP3    H152478   6.261   6.025  15.758
10329TIP3    H252479   6.256   6.121  15.640
10330TIP3   OH252480   5.701   6.067  15.917
10330TIP3    H152481   5.791   6.095  15.901
10330TIP3    H252482   5.651   6.148  15.923
10331TIP3   OH252483   6.258   6.317  15.872
10331TIP3    H152484   6.180   6.286  15.826
10331TIP3    H252485   6.316   6.347  15.803
10332TIP3   OH252486   6.865   6.115  15.821
10332TIP3    H152487   6.777   6.082  15.833
10332TIP3    H252488   6.895   6.138  15.909
10333TIP3   OH252489   6.760   6.964  15.895
10333TIP3    H152490   6.719   7.050  15.903
10333TIP3    H252491   6.745   6.922  15.980
10334TIP3   OH252492   5.895   6.548  15.784
10334TIP3    H152493   5.934   6.626  15.823
10334TIP3    H252494   5.804   6.549  15.813
10335TIP3   OH252495   7.033   6.932  15.831
10335TIP3    H152496   7.065   7.003  15.886
10335TIP3    H252497   6.938   6.933  15.843
10336TIP3   OH252498   6.449   7.031  15.655
10336TIP3    H152499   6.453   6.945  15.614
10336TIP3    H252500   6.412   7.016  15.741
10337TIP3   OH252501   6.314   7.038  15.894
10337TIP3    H152502   6.297   6.985  15.972
10337TIP3    H252503   6.334   7.125  15.928
10338TIP3   OH252504   5.944   6.756  15.967
10338TIP3    H152505   5.916   6.690  16.030
10338TIP3    H252506   6.035   6.774  15.989
10339TIP3   OH252507   6.636   7.217  15.898
10339TIP3    H152508   6.545   7.238  15.917
10339TIP3    H252509   6.646   7.235  15.805
10340TIP3   OH252510   6.379  -0.034  15.943
10340TIP3    H152511   6.387   0.031  15.873
10340TIP3    H252512   6.334   0.012  16.013
10341TIP3   OH252513   6.162   5.964  15.903
10341TIP3    H152514   6.105   5.934  15.975
10341TIP3    H252515   6.244   5.988  15.946
10342TIP3   OH252516   6.070   7.017  15.746
10342TIP3    H152517   6.143   7.054  15.796
10342TIP3    H252518   6.105   6.935  15.709
10343TIP3   OH252519   5.896   6.274  15.818
10343TIP3    H152520   5.905   6.368  15.800
10343TIP3    H252521   5.882   6.235  15.732
10344TIP3   OH252522   6.648   7.218  15.618
10344TIP3    H152523   6.589   7.143  15.626
10344TIP3    H252524   6.731   7.179  15.589
10345TIP3   OH252525   7.097   7.214  15.698
10345TIP3    H152526   7.096   7.205  15.794
10345TIP3    H252527   7.171   7.160  15.670
10346TIP3   OH252528   6.183   6.789  15.643
10346TIP3    H152529   6.197   6.727  15.715
10346TIP3    H252530   6.267   6.793  15.597
10347TIP3   OH252531   6.756   6.924  15.618
10347TIP3    H152532   6.747   6.925  15.713
10347TIP3    H252533   6.749   6.832  15.594
10348TIP3   OH252534   6.271   6.619  15.846
10348TIP3    H152535   6.249   6.549  15.908
10348TIP3    H252536   6.341   6.583  15.792
10349TIP3   OH252537   6.444   6.453  15.712
10349TIP3    H152538   6.437   6.474  15.619
10349TIP3    H252539   6.538   6.445  15.728
10350TIP3   OH252540   5.800   7.020  15.742
10350TIP3    H152541   5.895   7.012  15.751
10350TIP3    H252542   5.776   6.948  15.683
10351TIP3   OH252543   7.283   6.312  15.737
10351TIP3    H152544   7.236   6.362  15.670
10351TIP3    H252545   7.263   6.220  15.717
10352TIP3   OH252546   7.236   6.055  15.632
10352TIP3    H152547   7.270   6.022  15.715
10352TIP3    H252548   7.147   6.019  15.626
10353TIP3   OH252549   5.803   5.728  15.879
10353TIP3    H152550   5.850   5.776  15.811
10353TIP3    H252551   5.850   5.749  15.960
10354TIP3   OH252552   5.986   5.871  15.715
10354TIP3    H152553   6.038   5.811  15.660
10354TIP3    H252554   6.048   5.902  15.781
10355TIP3   OH252555   1.194   1.035   0.652
10355TIP3    H152556   1.177   1.128   0.639
10355TIP3    H252557   1.129   0.991   0.597
10356TIP3   OH252558   1.071   0.945   1.055
10356TIP3    H152559   1.104   0.902   1.134
10356TIP3    H252560   1.030   0.875   1.005
10357TIP3   OH252561   0.321   0.893   1.216
10357TIP3    H152562   0.312   0.803   1.248
10357TIP3    H252563   0.403   0.893   1.168
10358TIP3   OH252564   1.458   1.254   0.878
10358TIP3    H152565   1.423   1.176   0.922
10358TIP3    H252566   1.476   1.316   0.949
10359TIP3   OH252567   0.405   1.350   0.984
10359TIP3    H152568   0.388   1.261   0.951
10359TIP3    H252569   0.499   1.352   1.001
10360TIP3   OH252570   0.093   0.681   0.559
10360TIP3    H152571   0.029   0.748   0.583
10360TIP3    H252572   0.068   0.605   0.612
10361TIP3   OH252573   0.159   0.947   0.830
10361TIP3    H152574   0.183   0.854   0.831
10361TIP3    H252575   0.241   0.993   0.815
10362TIP3   OH252576   1.200   1.709   0.917
10362TIP3    H152577   1.230   1.662   0.839
10362TIP3    H252578   1.185   1.640   0.982
10363TIP3   OH252579   0.910   1.189   1.067
10363TIP3    H152580   0.953   1.111   1.033
10363TIP3    H252581   0.975   1.230   1.124
10364TIP3   OH252582   1.835   0.318   1.172
10364TIP3    H152583   1.841   0.388   1.238
10364TIP3    H252584   1.894   0.346   1.102
10365TIP3   OH252585   1.229   0.613   1.064
10365TIP3    H152586   1.249   0.521   1.080
10365TIP3    H252587   1.207   0.617   0.971
10366TIP3   OH252588   0.560   0.434   0.808
10366TIP3    H152589   0.583   0.515   0.762
10366TIP3    H252590   0.517   0.380   0.742
10367TIP3   OH252591   1.366   0.439   0.649
10367TIP3    H152592   1.410   0.424   0.732
10367TIP3    H252593   1.431   0.484   0.595
10368TIP3   OH252594   0.236   0.684   0.880
10368TIP3    H152595   0.291   0.633   0.939
10368TIP3    H252596   0.260   0.654   0.792
10369TIP3   OH252597   0.707   0.828   0.859
10369TIP3    H152598   0.794   0.797   0.884
10369TIP3    H252599   0.675   0.763   0.796
10370TIP3   OH252600   1.839   0.503   1.377
10370TIP3    H152601   1.761   0.555   1.358
10370TIP3    H252602   1.847   0.506   1.473
10371TIP3   OH252603   0.418   0.335   1.238
10371TIP3    H152604   0.389   0.388   1.164
10371TIP3    H252605   0.342   0.333   1.297
10372TIP3   OH252606   1.154   1.289   0.547
10372TIP3    H152607   1.142   1.287   0.452
10372TIP3    H252608   1.107   1.367   0.576
10373TIP3   OH252609   0.693   1.107   1.216
10373TIP3    H152610   0.642   1.182   1.247
10373TIP3    H252611   0.764   1.146   1.166
10374TIP3   OH252612   1.459   0.411   0.901
10374TIP3    H152613   1.398   0.381   0.968
10374TIP3    H252614   1.519   0.470   0.946
10375TIP3   OH252615   0.400   0.507   1.019
10375TIP3    H152616   0.459   0.558   1.074
10375TIP3    H252617   0.456   0.470   0.951
10376TIP3   OH252618   0.542   1.319   1.315
10376TIP3    H152619   0.555   1.414   1.307
10376TIP3    H252620   0.451   1.310   1.341
10377TIP3   OH252621   0.101   1.264   0.384
10377TIP3    H152622   0.105   1.300   0.295
10377TIP3    H252623   0.132   1.334   0.440
10378TIP3   OH252624   1.481   1.457   1.078
10378TIP3    H152625   1.386   1.462   1.088
10378TIP3    H252626   1.507   1.545   1.052
10379TIP3   OH252627   1.575   0.263   1.258
10379TIP3    H152628   1.507   0.288   1.196
10379TIP3    H252629   1.657   0.280   1.212
10380TIP3   OH252630   0.818   0.111   0.961
10380TIP3    H152631   0.799   0.019   0.975
10380TIP3    H252632   0.749   0.158   1.008
10381TIP3   OH252633   1.311   1.607   0.683
10381TIP3    H152634   1.355   1.524   0.666
10381TIP3    H252635   1.383   1.671   0.685
10382TIP3   OH252636   1.416   1.362   0.628
10382TIP3    H152637   1.335   1.318   0.600
10382TIP3    H252638   1.441   1.317   0.709
10383TIP3   OH252639   1.600   1.240   1.425
10383TIP3    H152640   1.590   1.181   1.350
10383TIP3    H252641   1.614   1.326   1.386
10384TIP3   OH252642   1.056   0.933   0.430
10384TIP3    H152643   0.992   0.998   0.403
10384TIP3    H252644   1.128   0.943   0.368
10385TIP3   OH252645   1.050   0.808   0.111
10385TIP3    H152646   1.103   0.823   0.189
10385TIP3    H252647   1.113   0.812   0.039
10386TIP3   OH252648   1.761   0.903   1.269
10386TIP3    H152649   1.687   0.962   1.258
10386TIP3    H252650   1.820   0.924   1.197
10387TIP3   OH252651   1.418   0.977   0.503
10387TIP3    H152652   1.350   0.999   0.567
10387TIP3    H252653   1.483   0.927   0.552
10388TIP3   OH252654   1.371   0.761   1.460
10388TIP3    H152655   1.368   0.835   1.521
10388TIP3    H252656   1.308   0.783   1.392
10389TIP3   OH252657   0.570   1.011   0.690
10389TIP3    H152658   0.549   0.970   0.606
10389TIP3    H252659   0.625   0.947   0.735
10390TIP3   OH252660   0.690   1.369   0.961
10390TIP3    H152661   0.693   1.379   0.865
10390TIP3    H252662   0.767   1.315   0.981
10391TIP3   OH252663   0.558   0.918   1.070
10391TIP3    H152664   0.614   0.895   0.996
10391TIP3    H252665   0.609   0.983   1.119
10392TIP3   OH252666   1.213   1.479   1.133
10392TIP3    H152667   1.202   1.548   1.199
10392TIP3    H252668   1.174   1.402   1.173
10393TIP3   OH252669   0.698   1.341   1.547
10393TIP3    H152670   0.633   1.396   1.590
10393TIP3    H252671   0.656   1.312   1.466
10394TIP3   OH252672   1.286   0.911   0.271
10394TIP3    H152673   1.337   0.937   0.349
10394TIP3    H252674   1.331   0.954   0.198
10395TIP3   OH252675   0.383   0.931   1.497
10395TIP3    H152676   0.381   1.010   1.550
10395TIP3    H252677   0.357   0.960   1.409
10396TIP3   OH252678   1.055   1.543   0.605
10396TIP3    H152679   1.140   1.568   0.641
10396TIP3    H252680   1.022   1.622   0.562
10397TIP3   OH252681   0.485   1.508   1.613
10397TIP3    H152682   0.492   1.546   1.526
10397TIP3    H252683   0.392   1.509   1.633
10398TIP3   OH252684   1.664   0.067   0.189
10398TIP3    H152685   1.611   0.042   0.265
10398TIP3    H252686   1.680   0.161   0.202
10399TIP3   OH252687   0.486   0.915   0.435
10399TIP3    H152688   0.426   0.982   0.402
10399TIP3    H252689   0.434   0.835   0.437
10400TIP3   OH252690   1.757   1.467   0.137
10400TIP3    H152691   1.779   1.561   0.140
10400TIP3    H252692   1.842   1.424   0.122
10401TIP3   OH252693   0.129   1.117   1.353
10401TIP3    H152694   0.116   1.105   1.259
10401TIP3    H252695   0.123   1.029   1.390
10402TIP3   OH252696   0.130   1.406   1.078
10402TIP3    H152697   0.214   1.380   1.041
10402TIP3    H252698   0.152   1.471   1.144
10403TIP3   OH252699   1.849   1.522   1.632
10403TIP3    H152700   1.836   1.428   1.625
10403TIP3    H252701   1.765   1.555   1.665
10404TIP3   OH252702   0.936   1.470   1.493
10404TIP3    H152703   0.932   1.554   1.539
10404TIP3    H252704   0.853   1.427   1.513
10405TIP3   OH252705   1.031   1.804   0.486
10405TIP3    H152706   1.017   1.828   0.394
10405TIP3    H252707   1.005   1.882   0.535
10406TIP3   OH252708   0.364   1.699   0.666
10406TIP3    H152709   0.382   1.671   0.756
10406TIP3    H252710   0.296   1.639   0.635
10407TIP3   OH252711   1.336   1.754   0.133
10407TIP3    H152712   1.404   1.688   0.114
10407TIP3    H252713   1.336   1.761   0.228
10408TIP3   OH252714   1.300   1.762   0.417
10408TIP3    H152715   1.208   1.771   0.441
10408TIP3    H252716   1.337   1.703   0.482
10409TIP3   OH252717   1.553   0.643   1.657
10409TIP3    H152718   1.486   0.672   1.594
10409TIP3    H252719   1.563   0.549   1.640
10410TIP3   OH252720   0.285   1.337   1.418
10410TIP3    H152721   0.301   1.323   1.512
10410TIP3    H252722   0.227   1.265   1.393
10411TIP3   OH252723   0.592   0.172   1.100
10411TIP3    H152724   0.570   0.079   1.107
10411TIP3    H252725   0.523   0.217   1.148
10412TIP3   OH252726   1.003   0.132   1.436
10412TIP3    H152727   1.024   0.102   1.525
10412TIP3    H252728   0.908   0.139   1.436
10413TIP3   OH252729   1.308   0.489   1.476
10413TIP3    H152730   1.245   0.474   1.547
10413TIP3    H252731   1.317   0.584   1.471
10414TIP3   OH252732   1.422   1.021   0.055
10414TIP3    H152733   1.398   1.089  -0.008
10414TIP3    H252734   1.516   1.034   0.068
10415TIP3   OH252735   0.987   0.314   0.084
10415TIP3    H152736   0.901   0.329   0.122
10415TIP3    H252737   1.010   0.225   0.108
10416TIP3   OH252738   0.566   0.664   1.179
10416TIP3    H152739   0.577   0.691   1.270
10416TIP3    H252740   0.568   0.747   1.130
10417TIP3   OH252741   0.589   0.674   0.668
10417TIP3    H152742   0.494   0.661   0.664
10417TIP3    H252743   0.620   0.652   0.580
10418TIP3   OH252744   1.103   0.682   0.533
10418TIP3    H152745   1.079   0.771   0.505
10418TIP3    H252746   1.175   0.658   0.475
10419TIP3   OH252747   1.033   0.707   1.656
10419TIP3    H152748   0.975   0.641   1.694
10419TIP3    H252749   1.116   0.695   1.702
10420TIP3   OH252750   1.197   0.620   0.789
10420TIP3    H152751   1.154   0.662   0.715
10420TIP3    H252752   1.244   0.546   0.751
10421TIP3   OH252753   0.314   0.628   1.377
10421TIP3    H152754   0.407   0.605   1.374
10421TIP3    H252755   0.269   0.544   1.382
10422TIP3   OH252756   0.711   0.407   0.113
10422TIP3    H152757   0.645   0.358   0.162
10422TIP3    H252758   0.680   0.498   0.115
10423TIP3   OH252759   0.067   0.446   0.699
10423TIP3    H152760   0.088   0.435   0.792
10423TIP3    H252761   0.099   0.365   0.658
10424TIP3   OH252762   0.072   0.526   0.268
10424TIP3    H152763   0.156   0.572   0.260
10424TIP3    H252764   0.025   0.549   0.188
10425TIP3   OH252765   1.161   0.780   1.268
10425TIP3    H152766   1.194   0.725   1.196
10425TIP3    H252767   1.093   0.727   1.309
10426TIP3   OH252768   0.843   0.452   0.759
10426TIP3    H152769   0.760   0.425   0.798
10426TIP3    H252770   0.908   0.396   0.802
10427TIP3   OH252771   0.336   0.590   0.637
10427TIP3    H152772   0.258   0.616   0.589
10427TIP3    H252773   0.346   0.497   0.617
10428TIP3   OH252774   0.631   0.585   0.411
10428TIP3    H152775   0.725   0.572   0.423
10428TIP3    H252776   0.622   0.618   0.322
10429TIP3   OH252777   1.270   0.336   1.089
10429TIP3    H152778   1.216   0.339   1.168
10429TIP3    H252779   1.225   0.274   1.031
10430TIP3   OH252780   0.573   0.649   0.152
10430TIP3    H152781   0.479   0.653   0.134
10430TIP3    H252782   0.612   0.711   0.090
10431TIP3   OH252783   1.604   1.896   1.732
10431TIP3    H152784   1.629   1.928   1.645
10431TIP3    H252785   1.678   1.916   1.788
10432TIP3   OH252786   0.356   1.153   1.660
10432TIP3    H152787   0.422   1.155   1.730
10432TIP3    H252788   0.272   1.158   1.705
10433TIP3   OH252789   0.943   0.713   0.949
10433TIP3    H152790   0.997   0.660   0.889
10433TIP3    H252791   0.912   0.650   1.014
10434TIP3   OH252792   0.406   0.322   0.595
10434TIP3    H152793   0.385   0.233   0.621
10434TIP3    H252794   0.447   0.313   0.509
10435TIP3   OH252795   0.829   0.562   1.157
10435TIP3    H152796   0.741   0.599   1.169
10435TIP3    H252797   0.875   0.583   1.238
10436TIP3   OH252798   0.877   1.127   0.350
10436TIP3    H152799   0.805   1.086   0.302
10436TIP3    H252800   0.836   1.161   0.429
10437TIP3   OH252801   1.568   1.088   1.197
10437TIP3    H152802   1.631   1.141   1.148
10437TIP3    H252803   1.499   1.069   1.134
10438TIP3   OH252804   1.216   0.393   0.241
10438TIP3    H152805   1.144   0.395   0.178
10438TIP3    H252806   1.237   0.485   0.255
10439TIP3   OH252807   1.013   1.175   1.505
10439TIP3    H152808   1.049   1.138   1.585
10439TIP3    H252809   0.991   1.266   1.529
10440TIP3   OH252810   1.310   0.639   0.353
10440TIP3    H152811   1.399   0.613   0.376
10440TIP3    H252812   1.320   0.725   0.313
10441TIP3   OH252813   0.403   1.083   0.896
10441TIP3    H152814   0.459   1.072   0.819
10441TIP3    H252815   0.445   1.029   0.963
10442TIP3   OH252816   1.091   1.279   0.263
10442TIP3    H152817   1.045   1.363   0.271
10442TIP3    H252818   1.025   1.213   0.284
10443TIP3   OH252819   0.075   0.867   1.458
10443TIP3    H152820   0.014   0.905   1.522
10443TIP3    H252821   0.022   0.807   1.406
10444TIP3   OH252822   0.838   0.910   1.675
10444TIP3    H152823   0.816   0.922   1.582
10444TIP3    H252824   0.914   0.852   1.674
10445TIP3   OH252825   1.217   1.457   1.493
10445TIP3    H152826   1.125   1.462   1.469
10445TIP3    H252827   1.219   1.470   1.587
10446TIP3   OH252828   1.771   0.690   0.320
10446TIP3    H152829   1.715   0.651   0.253
10446TIP3    H252830   1.784   0.780   0.290
10447TIP3   OH252831   1.818   1.245   1.590
10447TIP3    H152832   1.730   1.253   1.553
10447TIP3    H252833   1.874   1.229   1.514
10448TIP3   OH252834   1.630   1.521   0.385
10448TIP3    H152835   1.583   1.447   0.423
10448TIP3    H252836   1.667   1.486   0.304
10449TIP3   OH252837   1.365   1.020   1.011
10449TIP3    H152838   1.269   1.012   1.010
10449TIP3    H252839   1.395   0.942   0.964
10450TIP3   OH252840   0.646   1.441   0.692
10450TIP3    H152841   0.679   1.526   0.661
10450TIP3    H252842   0.555   1.439   0.662
10451TIP3   OH252843   0.183   0.903   0.174
10451TIP3    H152844   0.234   0.967   0.223
10451TIP3    H252845   0.101   0.949   0.152
10452TIP3   OH252846   0.732   1.205   0.567
10452TIP3    H152847   0.719   1.290   0.610
10452TIP3    H252848   0.676   1.145   0.617
10453TIP3   OH252849   0.830   1.613   1.268
10453TIP3    H152850   0.886   1.688   1.247
10453TIP3    H252851   0.883   1.558   1.326
10454TIP3   OH252852   0.632   1.706   0.587
10454TIP3    H152853   0.539   1.719   0.606
10454TIP3    H252854   0.676   1.782   0.624
10455TIP3   OH252855   1.116   1.238   1.252
10455TIP3    H152856   1.079   1.217   1.338
10455TIP3    H252857   1.192   1.181   1.244
10456TIP3   OH252858   1.357   1.320   0.163
10456TIP3    H152859   1.415   1.271   0.221
10456TIP3    H252860   1.270   1.309   0.201
10457TIP3   OH252861   1.425   1.644   1.462
10457TIP3    H152862   1.345   1.592   1.453
10457TIP3    H252863   1.416   1.715   1.398
10458TIP3   OH252864   1.821   1.734   0.148
10458TIP3    H152865   1.839   1.746   0.055
10458TIP3    H252866   1.765   1.807   0.172
10459TIP3   OH252867   0.212   0.367   1.418
10459TIP3    H152868   0.116   0.370   1.413
10459TIP3    H252869   0.231   0.299   1.482
10460TIP3   OH252870   1.521   1.178   0.336
10460TIP3    H152871   1.477   1.120   0.398
10460TIP3    H252872   1.614   1.170   0.358
10461TIP3   OH252873   0.215   1.592   1.269
10461TIP3    H152874   0.245   1.523   1.328
10461TIP3    H252875   0.226   1.673   1.319
10462TIP3   OH252876   0.645   1.411   0.263
10462TIP3    H152877   0.729   1.370   0.286
10462TIP3    H252878   0.659   1.504   0.281
10463TIP3   OH252879   0.313   1.099   0.321
10463TIP3    H152880   0.237   1.139   0.363
10463TIP3    H252881   0.356   1.172   0.275
10464TIP3   OH252882   1.122   0.355   1.321
10464TIP3    H152883   1.191   0.383   1.381
10464TIP3    H252884   1.084   0.278   1.363
10465TIP3   OH252885   1.241   0.260   0.477
10465TIP3    H152886   1.234   0.298   0.389
10465TIP3    H252887   1.282   0.328   0.529
10466TIP3   OH252888   0.934   1.500   0.290
10466TIP3    H152889   0.865   1.558   0.321
10466TIP3    H252890   0.989   1.555   0.235
10467TIP3   OH252891   0.882   0.519   0.495
10467TIP3    H152892   0.961   0.573   0.499
10467TIP3    H252893   0.866   0.492   0.585
10468TIP3   OH252894   0.983   0.603   1.387
10468TIP3    H152895   0.996   0.626   1.480
10468TIP3    H252896   1.023   0.517   1.379
10469TIP3   OH252897   0.997   0.199   0.584
10469TIP3    H152898   1.012   0.237   0.671
10469TIP3    H252899   1.081   0.209   0.539
10470TIP3   OH252900   0.714   1.668   0.327
10470TIP3    H152901   0.719   1.754   0.284
10470TIP3    H252902   0.687   1.687   0.416
10471TIP3   OH252903   0.550   0.327   0.352
10471TIP3    H152904   0.562   0.420   0.375
10471TIP3    H252905   0.636   0.288   0.370
10472TIP3   OH252906   1.561   0.392   1.509
10472TIP3    H152907   1.469   0.417   1.500
10472TIP3    H252908   1.583   0.352   1.425
10473TIP3   OH252909   1.437   0.770   0.889
10473TIP3    H152910   1.354   0.726   0.873
10473TIP3    H252911   1.484   0.713   0.950
10474TIP3   OH252912   0.399   1.325   0.180
10474TIP3    H152913   0.467   1.375   0.225
10474TIP3    H252914   0.446   1.272   0.116
10475TIP3   OH252915   0.296   0.666   0.106
10475TIP3    H152916   0.256   0.749   0.131
10475TIP3    H252917   0.261   0.646   0.020
10476TIP3   OH252918   1.569   1.721   1.061
10476TIP3    H152919   1.556   1.794   1.001
10476TIP3    H252920   1.664   1.717   1.074
10477TIP3   OH252921   0.231   0.120   0.981
10477TIP3    H152922   0.302   0.066   0.947
10477TIP3    H252923   0.210   0.082   1.066
10478TIP3   OH252924   0.155   1.514   0.527
10478TIP3    H152925   0.060   1.506   0.512
10478TIP3    H252926   0.183   1.583   0.468
10479TIP3   OH252927   0.179   1.824   1.706
10479TIP3    H152928   0.232   1.795   1.780
10479TIP3    H252929   0.115   1.754   1.694
10480TIP3   OH252930   0.569   1.607   1.858
10480TIP3    H152931   0.647   1.558   1.885
10480TIP3    H252932   0.548   1.573   1.771
10481TIP3   OH252933   1.086   1.644   0.117
10481TIP3    H152934   1.060   1.602   0.035
10481TIP3    H252935   1.177   1.669   0.104
10482TIP3   OH252936   1.214   1.489   1.764
10482TIP3    H152937   1.201   1.406   1.809
10482TIP3    H252938   1.290   1.529   1.808
10483TIP3   OH252939   1.494   1.542   0.063
10483TIP3    H152940   1.445   1.467   0.099
10483TIP3    H252941   1.586   1.518   0.074
10484TIP3   OH252942   0.124   1.152   1.813
10484TIP3    H152943   0.136   1.093   1.888
10484TIP3    H252944   0.041   1.196   1.830
10485TIP3   OH252945   0.558   1.150   0.046
10485TIP3    H152946   0.599   1.106   0.120
10485TIP3    H252947   0.595   1.108  -0.032
10486TIP3   OH252948   0.776   1.177   1.758
10486TIP3    H152949   0.761   1.222   1.674
10486TIP3    H252950   0.812   1.092   1.733
10487TIP3   OH252951   1.338   1.202   1.505
10487TIP3    H152952   1.430   1.221   1.483
10487TIP3    H252953   1.294   1.287   1.494
10488TIP3   OH252954   0.195   0.835   1.785
10488TIP3    H152955   0.246   0.764   1.825
10488TIP3    H252956   0.182   0.898   1.856
10489TIP3   OH252957   0.670   0.982   0.232
10489TIP3    H152958   0.618   0.951   0.306
10489TIP3    H252959   0.707   0.902   0.195
10490TIP3   OH252960   0.595   0.760   1.433
10490TIP3    H152961   0.527   0.818   1.468
10490TIP3    H252962   0.673   0.814   1.427
10491TIP3   OH252963   0.787   0.800   0.032
10491TIP3    H152964   0.802   0.743  -0.044
10491TIP3    H252965   0.874   0.810   0.072
10492TIP3   OH252966   1.119   1.030   1.768
10492TIP3    H152967   1.201   0.995   1.731
10492TIP3    H252968   1.089   0.961   1.827
10493TIP3   OH252969   1.696   1.115  16.011
10493TIP3    H152970   1.672   1.131  15.920
10493TIP3    H252971   1.708   1.203  16.049
10494TIP3   OH252972   0.648   0.528   1.577
10494TIP3    H152973   0.661   0.464   1.507
10494TIP3    H252974   0.644   0.612   1.531
10495TIP3   OH252975   0.671   0.383   1.339
10495TIP3    H152976   0.728   0.403   1.265
10495TIP3    H252977   0.586   0.366   1.298
10496TIP3   OH252978   0.806   0.930   1.397
10496TIP3    H152979   0.900   0.937   1.382
10496TIP3    H252980   0.768   0.996   1.339
10497TIP3   OH252981   1.253   0.652   1.829
10497TIP3    H152982   1.279   0.560   1.836
10497TIP3    H252983   1.333   0.701   1.851
10498TIP3   OH252984   1.386   0.974   1.646
10498TIP3    H152985   1.359   1.054   1.600
10498TIP3    H252986   1.481   0.976   1.642
10499TIP3   OH252987   0.401   0.620   1.680
10499TIP3    H152988   0.357   0.546   1.720
10499TIP3    H252989   0.489   0.588   1.661
10500TIP3   OH252990   0.726   0.133   1.445
10500TIP3    H152991   0.703   0.220   1.412
10500TIP3    H252992   0.661   0.075   1.408
10501TIP3   OH252993   0.872   0.506   1.744
10501TIP3    H152994   0.857   0.449   1.820
10501TIP3    H252995   0.788   0.506   1.697
10502TIP3   OH252996   1.120   0.411   1.653
10502TIP3    H152997   1.032   0.426   1.688
10502TIP3    H252998   1.172   0.382   1.728
10503TIP3   OH252999   1.306   0.357   1.858
10503TIP3    H153000   1.307   0.264   1.836
10503TIP3    H253001   1.286   0.360   1.951
10504TIP3   OH253002   0.249   0.411   1.770
10504TIP3    H153003   0.245   0.330   1.719
10504TIP3    H253004   0.268   0.382   1.859
10505TIP3   OH253005   0.830  -0.006   1.654
10505TIP3    H153006   0.761  -0.032   1.715
10505TIP3    H253007   0.785   0.044   1.587
10506TIP3   OH253008   0.872   0.220   1.838
10506TIP3    H153009   0.877   0.134   1.797
10506TIP3    H253010   0.778   0.238   1.844
10507TIP3   OH253011   0.761   1.883   0.163
10507TIP3    H153012   0.851   1.900   0.190
10507TIP3    H253013   0.759   1.906   0.070
10508TIP3   OH253014   0.128   1.355   0.126
10508TIP3    H153015   0.223   1.361   0.139
10508TIP3    H253016   0.117   1.348   0.031
10509TIP3   OH253017   0.020   1.898   0.588
10509TIP3    H153018   0.033   1.859   0.501
10509TIP3    H253019   0.037   1.826   0.649
10510TIP3   OH253020   0.069   1.701   0.773
10510TIP3    H153021   0.057   1.607   0.762
10510TIP3    H253022   0.109   1.710   0.860
10511TIP3   OH253023   1.836   1.716   1.133
10511TIP3    H153024   1.836   1.724   1.228
10511TIP3    H253025   1.914   1.764   1.105
10512TIP3   OH253026   1.779   1.696   1.411
10512TIP3    H153027   1.725   1.626   1.373
10512TIP3    H253028   1.826   1.654   1.483
10513TIP3   OH253029   1.638   1.284   1.893
10513TIP3    H153030   1.553   1.295   1.936
10513TIP3    H253031   1.693   1.353   1.930
10514TIP3   OH253032   1.782   1.120   0.418
10514TIP3    H153033   1.851   1.187   0.422
10514TIP3    H253034   1.799   1.063   0.492
10515TIP3   OH253035   1.833   0.928   0.613
10515TIP3    H153036   1.748   0.894   0.642
10515TIP3    H253037   1.882   0.941   0.694
10516TIP3   OH253038   1.807   1.216   1.126
10516TIP3    H153039   1.859   1.147   1.085
10516TIP3    H253040   1.837   1.297   1.087
10517TIP3   OH253041   1.612   1.493   1.321
10517TIP3    H153042   1.540   1.539   1.366
10517TIP3    H253043   1.578   1.477   1.233
10518TIP3   OH253044   1.810   0.945   0.210
10518TIP3    H153045   1.763   0.989   0.139
10518TIP3    H253046   1.800   1.004   0.285
10519TIP3   OH253047   1.627   0.570   0.126
10519TIP3    H153048   1.670   0.600   0.046
10519TIP3    H253049   1.645   0.476   0.129
10520TIP3   OH253050   1.581   0.805   0.654
10520TIP3    H153051   1.575   0.717   0.617
10520TIP3    H253052   1.536   0.799   0.738
10521TIP3   OH253053   0.111   1.016   1.089
10521TIP3    H153054   0.123   1.012   0.994
10521TIP3    H253055   0.193   0.982   1.125
10522TIP3   OH253056   1.664   0.983   1.633
10522TIP3    H153057   1.721   0.908   1.617
10522TIP3    H253058   1.712   1.058   1.598
10523TIP3   OH253059   1.802   0.745   1.615
10523TIP3    H153060   1.713   0.715   1.630
10523TIP3    H253061   1.857   0.670   1.634
10524TIP3   OH253062   1.575   0.557   0.494
10524TIP3    H153063   1.605   0.466   0.499
10524TIP3    H253064   1.640   0.601   0.440
10525TIP3   OH253065   1.597   0.597   1.048
10525TIP3    H153066   1.689   0.613   1.027
10525TIP3    H253067   1.592   0.612   1.143
10526TIP3   OH253068   1.617   0.671   1.318
10526TIP3    H153069   1.538   0.699   1.364
10526TIP3    H253070   1.668   0.751   1.308
10527TIP3   OH253071   0.085   0.575   1.613
10527TIP3    H153072   0.128   0.515   1.674
10527TIP3    H253073   0.043   0.519   1.549
10528TIP3   OH253074   1.845   0.047   1.838
10528TIP3    H153075   1.863  -0.030   1.784
10528TIP3    H253076   1.830   0.118   1.776
10529TIP3   OH253077   1.652   0.287   0.520
10529TIP3    H153078   1.670   0.240   0.601
10529TIP3    H253079   1.590   0.231   0.473
10530TIP3   OH253080   0.147   0.386   0.958
10530TIP3    H153081   0.167   0.293   0.966
10530TIP3    H253082   0.228   0.431   0.984
10531TIP3   OH253083   0.036   0.744   1.077
10531TIP3    H153084   0.092   0.714   1.005
10531TIP3    H253085   0.051   0.839   1.081
10532TIP3   OH253086   1.774   0.241   1.652
10532TIP3    H153087   1.696   0.293   1.671
10532TIP3    H253088   1.754   0.199   1.568
10533TIP3   OH253089   1.767   0.330   0.145
10533TIP3    H153090   1.807   0.282   0.073
10533TIP3    H253091   1.837   0.385   0.180
10534TIP3   OH253092   0.094   0.279   0.396
10534TIP3    H153093   0.015   0.275   0.450
10534TIP3    H253094   0.096   0.368   0.362
10535TIP3   OH253095   1.498   1.801   0.668
10535TIP3    H153096   1.566   1.799   0.601
10535TIP3    H253097   1.537   1.848   0.741
10536TIP3   OH253098   0.060   0.087   1.287
10536TIP3    H153099   0.013   0.004   1.284
10536TIP3    H253100  -0.008   0.153   1.275
10537TIP3   OH253101   0.213   1.501   1.699
10537TIP3    H153102   0.124   1.527   1.676
10537TIP3    H253103   0.208   1.482   1.793
10538TIP3   OH253104   0.568   1.595   1.352
10538TIP3    H153105   0.537   1.683   1.330
10538TIP3    H253106   0.661   1.596   1.332
10539TIP3   OH253107   0.939   1.714   1.625
10539TIP3    H153108   0.948   1.682   1.715
10539TIP3    H253109   1.019   1.763   1.608
10540TIP3   OH253110   1.176   1.851   1.590
10540TIP3    H153111   1.241   1.797   1.545
10540TIP3    H253112   1.222   1.885   1.667
10541TIP3   OH253113   1.713   0.087   1.423
10541TIP3    H153114   1.657   0.140   1.366
10541TIP3    H253115   1.691  -0.004   1.400
10542TIP3   OH253116   0.242   1.861   1.366
10542TIP3    H153117   0.168   1.914   1.337
10542TIP3    H253118   0.258   1.889   1.456
10543TIP3   OH253119   0.511   1.857   1.286
10543TIP3    H153120   0.418   1.865   1.308
10543TIP3    H253121   0.521   1.903   1.203
10544TIP3   OH253122   0.970   1.838   1.188
10544TIP3    H153123   0.919   1.875   1.115
10544TIP3    H253124   0.981   1.911   1.249
10545TIP3   OH253125   1.197   1.712   1.279
10545TIP3    H153126   1.120   1.755   1.242
10545TIP3    H253127   1.269   1.773   1.262
10546TIP3   OH253128   1.439   1.849   1.267
10546TIP3    H153129   1.468   1.940   1.256
10546TIP3    H253130   1.481   1.802   1.195
10547TIP3   OH253131   0.195   1.736   1.024
10547TIP3    H153132   0.192   1.701   1.113
10547TIP3    H253133   0.277   1.702   0.988
10548TIP3   OH253134   0.424   1.621   0.926
10548TIP3    H153135   0.415   1.528   0.945
10548TIP3    H253136   0.511   1.644   0.958
10549TIP3   OH253137   0.689   1.643   1.027
10549TIP3    H153138   0.698   1.554   0.994
10549TIP3    H253139   0.730   1.641   1.113
10550TIP3   OH253140   1.020   0.265   0.856
10550TIP3    H153141   0.962   0.206   0.906
10550TIP3    H253142   1.103   0.218   0.852
10551TIP3   OH253143   1.507   0.013   0.892
10551TIP3    H153144   1.584   0.047   0.847
10551TIP3    H253145   1.450   0.089   0.902
10552TIP3   OH253146   1.723   0.124   0.752
10552TIP3    H153147   1.786   0.052   0.757
10552TIP3    H253148   1.777   0.203   0.765
10553TIP3   OH253149   0.350   0.058   0.649
10553TIP3    H153150   0.270   0.026   0.607
10553TIP3    H253151   0.357   0.006   0.729
10554TIP3   OH253152   0.140   0.176   0.146
10554TIP3    H153153   0.129   0.253   0.091
10554TIP3    H253154   0.132   0.209   0.235
10555TIP3   OH253155   0.755   0.123   0.691
10555TIP3    H153156   0.839   0.142   0.651
10555TIP3    H253157   0.772   0.123   0.785
10556TIP3   OH253158   1.266   0.159   0.807
10556TIP3    H153159   1.307   0.218   0.744
10556TIP3    H253160   1.272   0.072   0.767
10557TIP3   OH253161   1.476   0.108   0.414
10557TIP3    H153162   1.383   0.128   0.431
10557TIP3    H253163   1.479   0.013   0.410
10558TIP3   OH253164   0.156   1.733   0.365
10558TIP3    H153165   0.072   1.756   0.327
10558TIP3    H253166   0.212   1.809   0.350
10559TIP3   OH253167   0.425   0.259   0.109
10559TIP3    H153168   0.340   0.215   0.115
10559TIP3    H253169   0.449   0.277   0.200
10560TIP3   OH253170   0.820   0.265   0.385
10560TIP3    H153171   0.877   0.222   0.450
10560TIP3    H253172   0.841   0.358   0.392
10561TIP3   OH253173   1.030   1.890   0.223
10561TIP3    H153174   1.096   1.949   0.189
10561TIP3    H253175   1.049   1.805   0.182
10562TIP3   OH253176   1.689   1.777   0.467
10562TIP3    H153177   1.674   1.686   0.441
10562TIP3    H253178   1.687   1.826   0.386
10563TIP3   OH253179   0.247   0.177   1.622
10563TIP3    H153180   0.189   0.101   1.613
10563TIP3    H253181   0.322   0.143   1.671
10564TIP3   OH253182   0.469   0.149   1.799
10564TIP3    H153183   0.533   0.220   1.807
10564TIP3    H253184   0.520   0.069   1.813
10565TIP3   OH253185   0.338   1.731  -0.009
10565TIP3    H153186   0.307   1.822  -0.010
10565TIP3    H253187   0.352   1.711   0.084
10566TIP3   OH253188   1.314   0.092   1.792
10566TIP3    H153189   1.369   0.041   1.852
10566TIP3    H253190   1.262   0.026   1.746
10567TIP3   OH253191   1.597   1.624   1.683
10567TIP3    H153192   1.537   1.620   1.608
10567TIP3    H253193   1.596   1.716   1.709
10568TIP3   OH253194   3.083   1.033   0.651
10568TIP3    H153195   3.067   1.127   0.641
10568TIP3    H253196   3.016   0.991   0.598
10569TIP3   OH253197   2.960   0.944   1.051
10569TIP3    H153198   2.988   0.902   1.132
10569TIP3    H253199   2.911   0.876   1.004
10570TIP3   OH253200   2.170   0.867   1.171
10570TIP3    H153201   2.185   0.800   1.238
10570TIP3    H253202   2.258   0.891   1.142
10571TIP3   OH253203   3.344   1.253   0.879
10571TIP3    H153204   3.307   1.177   0.924
10571TIP3    H253205   3.362   1.315   0.949
10572TIP3   OH253206   2.317   1.347   0.967
10572TIP3    H153207   2.285   1.259   0.946
10572TIP3    H253208   2.411   1.335   0.981
10573TIP3   OH253209   1.953   0.686   0.530
10573TIP3    H153210   1.931   0.772   0.566
10573TIP3    H253211   1.891   0.673   0.458
10574TIP3   OH253212   2.023   0.936   0.820
10574TIP3    H153213   2.055   0.848   0.836
10574TIP3    H253214   2.100   0.992   0.830
10575TIP3   OH253215   3.084   1.711   0.918
10575TIP3    H153216   3.115   1.664   0.841
10575TIP3    H253217   3.069   1.643   0.984
10576TIP3   OH253218   2.806   1.192   1.059
10576TIP3    H153219   2.848   1.111   1.028
10576TIP3    H253220   2.870   1.229   1.119
10577TIP3   OH253221   3.723   0.321   1.165
10577TIP3    H153222   3.728   0.388   1.233
10577TIP3    H253223   3.784   0.350   1.098
10578TIP3   OH253224   3.112   0.621   1.064
10578TIP3    H153225   3.123   0.528   1.082
10578TIP3    H253226   3.095   0.626   0.970
10579TIP3   OH253227   2.459   0.419   0.794
10579TIP3    H153228   2.464   0.507   0.756
10579TIP3    H253229   2.412   0.367   0.728
10580TIP3   OH253230   3.251   0.439   0.650
10580TIP3    H153231   3.292   0.419   0.735
10580TIP3    H253232   3.320   0.484   0.601
10581TIP3   OH253233   2.103   0.677   0.878
10581TIP3    H153234   2.168   0.636   0.935
10581TIP3    H253235   2.123   0.642   0.791
10582TIP3   OH253236   2.573   0.825   0.858
10582TIP3    H153237   2.659   0.792   0.881
10582TIP3    H253238   2.536   0.758   0.801
10583TIP3   OH253239   3.723   0.503   1.376
10583TIP3    H153240   3.645   0.555   1.354
10583TIP3    H253241   3.731   0.512   1.471
10584TIP3   OH253242   2.312   0.355   1.235
10584TIP3    H153243   2.286   0.411   1.161
10584TIP3    H253244   2.242   0.366   1.299
10585TIP3   OH253245   3.042   1.289   0.550
10585TIP3    H153246   3.027   1.285   0.455
10585TIP3    H253247   2.994   1.366   0.579
10586TIP3   OH253248   2.575   1.116   1.193
10586TIP3    H153249   2.528   1.190   1.230
10586TIP3    H253250   2.649   1.156   1.146
10587TIP3   OH253251   3.336   0.398   0.905
10587TIP3    H153252   3.267   0.375   0.967
10587TIP3    H253253   3.392   0.458   0.952
10588TIP3   OH253254   2.295   0.509   1.002
10588TIP3    H153255   2.353   0.565   1.054
10588TIP3    H253256   2.352   0.469   0.936
10589TIP3   OH253257   2.432   1.322   1.311
10589TIP3    H153258   2.441   1.417   1.302
10589TIP3    H253259   2.341   1.309   1.337
10590TIP3   OH253260   1.992   1.302   0.396
10590TIP3    H153261   1.988   1.342   0.309
10590TIP3    H253262   2.017   1.373   0.455
10591TIP3   OH253263   3.370   1.455   1.079
10591TIP3    H153264   3.275   1.462   1.090
10591TIP3    H253265   3.397   1.543   1.053
10592TIP3   OH253266   3.462   0.270   1.257
10592TIP3    H153267   3.394   0.293   1.193
10592TIP3    H253268   3.544   0.285   1.210
10593TIP3   OH253269   2.687   0.109   0.962
10593TIP3    H153270   2.665   0.017   0.973
10593TIP3    H253271   2.613   0.156   1.001
10594TIP3   OH253272   3.197   1.609   0.685
10594TIP3    H153273   3.241   1.525   0.668
10594TIP3    H253274   3.268   1.673   0.685
10595TIP3   OH253275   3.302   1.363   0.629
10595TIP3    H153276   3.220   1.321   0.602
10595TIP3    H253277   3.326   1.318   0.710
10596TIP3   OH253278   3.491   1.234   1.429
10596TIP3    H153279   3.478   1.178   1.353
10596TIP3    H253280   3.504   1.322   1.393
10597TIP3   OH253281   2.939   0.933   0.434
10597TIP3    H153282   2.873   0.996   0.407
10597TIP3    H253283   3.008   0.941   0.368
10598TIP3   OH253284   2.947   0.791   0.108
10598TIP3    H153285   2.999   0.817   0.184
10598TIP3    H253286   3.008   0.797   0.034
10599TIP3   OH253287   3.643   0.902   1.265
10599TIP3    H153288   3.570   0.963   1.255
10599TIP3    H253289   3.703   0.924   1.194
10600TIP3   OH253290   3.304   0.973   0.501
10600TIP3    H153291   3.236   0.997   0.564
10600TIP3    H253292   3.369   0.925   0.552
10601TIP3   OH253293   3.256   0.766   1.459
10601TIP3    H153294   3.251   0.839   1.520
10601TIP3    H253295   3.193   0.787   1.390
10602TIP3   OH253296   2.449   1.016   0.690
10602TIP3    H153297   2.428   0.976   0.606
10602TIP3    H253298   2.501   0.951   0.736
10603TIP3   OH253299   2.600   1.365   0.954
10603TIP3    H153300   2.602   1.376   0.859
10603TIP3    H253301   2.676   1.310   0.974
10604TIP3   OH253302   2.427   0.922   1.071
10604TIP3    H153303   2.482   0.893   0.997
10604TIP3    H253304   2.478   0.989   1.115
10605TIP3   OH253305   3.103   1.478   1.135
10605TIP3    H153306   3.090   1.547   1.200
10605TIP3    H253307   3.064   1.400   1.173
10606TIP3   OH253308   2.586   1.339   1.542
10606TIP3    H153309   2.522   1.395   1.585
10606TIP3    H253310   2.545   1.313   1.460
10607TIP3   OH253311   3.168   0.906   0.272
10607TIP3    H153312   3.218   0.933   0.348
10607TIP3    H253313   3.210   0.950   0.198
10608TIP3   OH253314   2.245   0.919   1.518
10608TIP3    H153315   2.259   1.007   1.555
10608TIP3    H253316   2.155   0.921   1.486
10609TIP3   OH253317   2.942   1.541   0.607
10609TIP3    H153318   3.026   1.569   0.643
10609TIP3    H253319   2.908   1.619   0.563
10610TIP3   OH253320   2.382   1.513   1.610
10610TIP3    H153321   2.388   1.548   1.521
10610TIP3    H253322   2.288   1.511   1.628
10611TIP3   OH253323   3.539   0.061   0.184
10611TIP3    H153324   3.477   0.066   0.256
10611TIP3    H253325   3.578   0.149   0.180
10612TIP3   OH253326   2.367   0.925   0.431
10612TIP3    H153327   2.307   0.995   0.405
10612TIP3    H253328   2.316   0.845   0.422
10613TIP3   OH253329   3.645   1.499   0.135
10613TIP3    H153330   3.670   1.591   0.131
10613TIP3    H253331   3.727   1.451   0.126
10614TIP3   OH253332   1.956   1.178   1.365
10614TIP3    H153333   1.903   1.186   1.285
10614TIP3    H253334   1.969   1.084   1.377
10615TIP3   OH253335   1.924   1.460   1.049
10615TIP3    H153336   2.010   1.463   1.092
10615TIP3    H253337   1.879   1.538   1.082
10616TIP3   OH253338   3.741   1.535   1.635
10616TIP3    H153339   3.730   1.440   1.624
10616TIP3    H253340   3.656   1.565   1.666
10617TIP3   OH253341   2.823   1.471   1.496
10617TIP3    H153342   2.817   1.555   1.542
10617TIP3    H253343   2.740   1.428   1.513
10618TIP3   OH253344   2.918   1.806   0.486
10618TIP3    H153345   2.903   1.829   0.395
10618TIP3    H253346   2.890   1.883   0.535
10619TIP3   OH253347   2.255   1.702   0.664
10619TIP3    H153348   2.273   1.669   0.752
10619TIP3    H253349   2.199   1.635   0.624
10620TIP3   OH253350   3.221   1.756   0.130
10620TIP3    H153351   3.287   1.690   0.111
10620TIP3    H253352   3.221   1.763   0.226
10621TIP3   OH253353   3.187   1.768   0.415
10621TIP3    H153354   3.094   1.772   0.440
10621TIP3    H253355   3.227   1.711   0.480
10622TIP3   OH253356   3.432   0.644   1.655
10622TIP3    H153357   3.369   0.678   1.591
10622TIP3    H253358   3.443   0.552   1.632
10623TIP3   OH253359   2.179   1.330   1.423
10623TIP3    H153360   2.205   1.291   1.506
10623TIP3    H253361   2.100   1.282   1.397
10624TIP3   OH253362   2.442   0.184   1.063
10624TIP3    H153363   2.369   0.169   1.003
10624TIP3    H253364   2.402   0.232   1.136
10625TIP3   OH253365   2.888   0.138   1.459
10625TIP3    H153366   2.889   0.107   1.549
10625TIP3    H253367   2.796   0.145   1.437
10626TIP3   OH253368   3.193   0.494   1.486
10626TIP3    H153369   3.127   0.480   1.553
10626TIP3    H253370   3.198   0.590   1.476
10627TIP3   OH253371   3.301   1.027   0.057
10627TIP3    H153372   3.279   1.105   0.005
10627TIP3    H253373   3.393   1.039   0.080
10628TIP3   OH253374   2.885   0.294   0.116
10628TIP3    H153375   2.810   0.298   0.175
10628TIP3    H253376   2.915   0.204   0.121
10629TIP3   OH253377   2.441   0.665   1.180
10629TIP3    H153378   2.377   0.663   1.251
10629TIP3    H253379   2.442   0.756   1.151
10630TIP3   OH253380   2.437   0.666   0.677
10630TIP3    H153381   2.343   0.651   0.671
10630TIP3    H253382   2.469   0.653   0.588
10631TIP3   OH253383   2.986   0.684   0.538
10631TIP3    H153384   2.961   0.772   0.510
10631TIP3    H253385   3.058   0.660   0.480
10632TIP3   OH253386   2.910   0.706   1.657
10632TIP3    H153387   2.854   0.639   1.696
10632TIP3    H253388   2.994   0.697   1.702
10633TIP3   OH253389   3.088   0.624   0.791
10633TIP3    H153390   3.042   0.667   0.719
10633TIP3    H253391   3.134   0.551   0.750
10634TIP3   OH253392   2.233   0.668   1.359
10634TIP3    H153393   2.232   0.721   1.440
10634TIP3    H253394   2.190   0.586   1.384
10635TIP3   OH253395   2.594   0.439   0.079
10635TIP3    H153396   2.536   0.478   0.144
10635TIP3    H253397   2.648   0.512   0.049
10636TIP3   OH253398   1.887   0.342   0.765
10636TIP3    H153399   1.933   0.365   0.846
10636TIP3    H253400   1.911   0.412   0.704
10637TIP3   OH253401   1.966   0.493   0.256
10637TIP3    H153402   2.042   0.523   0.206
10637TIP3    H253403   1.916   0.572   0.274
10638TIP3   OH253404   3.048   0.785   1.269
10638TIP3    H153405   3.079   0.731   1.197
10638TIP3    H253406   2.981   0.733   1.311
10639TIP3   OH253407   2.753   0.416   0.756
10639TIP3    H153408   2.662   0.401   0.783
10639TIP3    H253409   2.806   0.378   0.826
10640TIP3   OH253410   2.181   0.572   0.637
10640TIP3    H153411   2.106   0.599   0.584
10640TIP3    H253412   2.202   0.484   0.605
10641TIP3   OH253413   2.510   0.600   0.424
10641TIP3    H153414   2.605   0.593   0.430
10641TIP3    H253415   2.494   0.635   0.336
10642TIP3   OH253416   3.128   0.347   1.083
10642TIP3    H153417   3.091   0.341   1.171
10642TIP3    H253418   3.058   0.316   1.026
10643TIP3   OH253419   2.429   0.655   0.169
10643TIP3    H153420   2.337   0.652   0.143
10643TIP3    H253421   2.474   0.698   0.095
10644TIP3   OH253422   3.489   1.897   1.731
10644TIP3    H153423   3.514   1.931   1.645
10644TIP3    H253424   3.564   1.918   1.787
10645TIP3   OH253425   2.246   1.167   1.656
10645TIP3    H153426   2.312   1.161   1.724
10645TIP3    H253427   2.164   1.178   1.704
10646TIP3   OH253428   2.814   0.714   0.951
10646TIP3    H153429   2.873   0.656   0.903
10646TIP3    H253430   2.782   0.660   1.024
10647TIP3   OH253431   2.295   0.317   0.584
10647TIP3    H153432   2.264   0.229   0.605
10647TIP3    H253433   2.332   0.309   0.496
10648TIP3   OH253434   2.706   0.579   1.172
10648TIP3    H153435   2.620   0.621   1.184
10648TIP3    H253436   2.756   0.604   1.250
10649TIP3   OH253437   2.760   1.124   0.349
10649TIP3    H153438   2.689   1.084   0.299
10649TIP3    H253439   2.718   1.159   0.428
10650TIP3   OH253440   3.454   1.090   1.197
10650TIP3    H153441   3.516   1.144   1.148
10650TIP3    H253442   3.384   1.072   1.135
10651TIP3   OH253443   3.129   0.399   0.217
10651TIP3    H153444   3.045   0.388   0.173
10651TIP3    H253445   3.132   0.491   0.242
10652TIP3   OH253446   2.899   1.181   1.501
10652TIP3    H153447   2.928   1.142   1.584
10652TIP3    H253448   2.873   1.270   1.524
10653TIP3   OH253449   3.194   0.638   0.361
10653TIP3    H153450   3.284   0.615   0.385
10653TIP3    H253451   3.201   0.724   0.320
10654TIP3   OH253452   2.265   1.072   0.889
10654TIP3    H153453   2.324   1.065   0.814
10654TIP3    H253454   2.308   1.021   0.958
10655TIP3   OH253455   2.977   1.277   0.268
10655TIP3    H153456   2.932   1.361   0.276
10655TIP3    H253457   2.910   1.212   0.288
10656TIP3   OH253458   1.971   0.910   1.455
10656TIP3    H153459   1.944   0.866   1.536
10656TIP3    H253460   1.902   0.888   1.392
10657TIP3   OH253461   2.700   0.896   1.683
10657TIP3    H153462   2.632   0.859   1.627
10657TIP3    H253463   2.779   0.847   1.661
10658TIP3   OH253464   3.104   1.456   1.497
10658TIP3    H153465   3.012   1.462   1.473
10658TIP3    H253466   3.105   1.468   1.592
10659TIP3   OH253467   3.652   0.688   0.325
10659TIP3    H153468   3.595   0.650   0.258
10659TIP3    H253469   3.666   0.778   0.296
10660TIP3   OH253470   3.712   1.261   1.592
10660TIP3    H153471   3.621   1.262   1.560
10660TIP3    H253472   3.764   1.238   1.515
10661TIP3   OH253473   3.515   1.532   0.384
10661TIP3    H153474   3.474   1.454   0.420
10661TIP3    H253475   3.553   1.503   0.301
10662TIP3   OH253476   3.249   1.020   1.013
10662TIP3    H153477   3.154   1.011   1.012
10662TIP3    H253478   3.281   0.942   0.966
10663TIP3   OH253479   2.535   1.442   0.690
10663TIP3    H153480   2.559   1.527   0.653
10663TIP3    H253481   2.440   1.441   0.688
10664TIP3   OH253482   2.086   0.917   0.160
10664TIP3    H153483   2.121   0.976   0.226
10664TIP3    H253484   1.991   0.920   0.172
10665TIP3   OH253485   2.617   1.206   0.567
10665TIP3    H153486   2.603   1.292   0.606
10665TIP3    H253487   2.559   1.147   0.616
10666TIP3   OH253488   2.718   1.612   1.270
10666TIP3    H153489   2.774   1.687   1.249
10666TIP3    H253490   2.772   1.557   1.328
10667TIP3   OH253491   2.520   1.706   0.584
10667TIP3    H153492   2.427   1.719   0.604
10667TIP3    H253493   2.563   1.783   0.623
10668TIP3   OH253494   3.007   1.237   1.250
10668TIP3    H153495   2.967   1.217   1.335
10668TIP3    H253496   3.081   1.177   1.244
10669TIP3   OH253497   3.243   1.319   0.165
10669TIP3    H153498   3.300   1.268   0.222
10669TIP3    H253499   3.156   1.309   0.203
10670TIP3   OH253500   3.313   1.641   1.461
10670TIP3    H153501   3.232   1.590   1.454
10670TIP3    H253502   3.302   1.712   1.397
10671TIP3   OH253503   3.720   1.766   0.168
10671TIP3    H153504   3.791   1.831   0.168
10671TIP3    H253505   3.640   1.818   0.173
10672TIP3   OH253506   2.113   0.418   1.414
10672TIP3    H153507   2.020   0.434   1.402
10672TIP3    H253508   2.117   0.348   1.479
10673TIP3   OH253509   3.408   1.168   0.329
10673TIP3    H153510   3.364   1.112   0.392
10673TIP3    H253511   3.500   1.165   0.354
10674TIP3   OH253512   2.114   1.597   1.267
10674TIP3    H153513   2.142   1.520   1.318
10674TIP3    H253514   2.131   1.671   1.325
10675TIP3   OH253515   2.523   1.413   0.268
10675TIP3    H153516   2.603   1.366   0.291
10675TIP3    H253517   2.543   1.505   0.284
10676TIP3   OH253518   2.185   1.112   0.330
10676TIP3    H153519   2.115   1.159   0.374
10676TIP3    H253520   2.231   1.179   0.279
10677TIP3   OH253521   3.015   0.348   1.332
10677TIP3    H153522   3.082   0.380   1.392
10677TIP3    H253523   2.975   0.274   1.378
10678TIP3   OH253524   3.133   0.272   0.462
10678TIP3    H153525   3.135   0.309   0.374
10678TIP3    H253526   3.172   0.340   0.517
10679TIP3   OH253527   2.824   1.500   0.293
10679TIP3    H153528   2.753   1.557   0.322
10679TIP3    H253529   2.877   1.555   0.236
10680TIP3   OH253530   2.765   0.524   0.500
10680TIP3    H153531   2.841   0.581   0.506
10680TIP3    H253532   2.754   0.490   0.589
10681TIP3   OH253533   2.876   0.607   1.392
10681TIP3    H153534   2.884   0.632   1.484
10681TIP3    H253535   2.910   0.517   1.388
10682TIP3   OH253536   2.884   0.219   0.573
10682TIP3    H153537   2.879   0.294   0.634
10682TIP3    H253538   2.973   0.224   0.538
10683TIP3   OH253539   2.605   1.668   0.326
10683TIP3    H153540   2.607   1.754   0.284
10683TIP3    H253541   2.575   1.686   0.415
10684TIP3   OH253542   2.444   0.343   0.342
10684TIP3    H153543   2.450   0.433   0.374
10684TIP3    H253544   2.534   0.311   0.340
10685TIP3   OH253545   3.444   0.394   1.512
10685TIP3    H153546   3.352   0.419   1.504
10685TIP3    H253547   3.466   0.358   1.426
10686TIP3   OH253548   3.326   0.770   0.891
10686TIP3    H153549   3.242   0.729   0.872
10686TIP3    H253550   3.369   0.710   0.952
10687TIP3   OH253551   2.284   1.317   0.170
10687TIP3    H153552   2.345   1.371   0.221
10687TIP3    H253553   2.340   1.268   0.110
10688TIP3   OH253554   2.158   0.652   0.092
10688TIP3    H153555   2.131   0.743   0.105
10688TIP3    H253556   2.145   0.635  -0.001
10689TIP3   OH253557   3.457   1.720   1.059
10689TIP3    H153558   3.445   1.793   0.998
10689TIP3    H253559   3.552   1.716   1.073
10690TIP3   OH253560   2.162   0.129   0.924
10690TIP3    H153561   2.178   0.137   0.830
10690TIP3    H253562   2.200   0.045   0.948
10691TIP3   OH253563   2.058   1.528   0.555
10691TIP3    H153564   2.006   1.555   0.630
10691TIP3    H253565   2.036   1.591   0.487
10692TIP3   OH253566   2.048   1.801   1.735
10692TIP3    H153567   2.112   1.785   1.804
10692TIP3    H253568   2.036   1.715   1.694
10693TIP3   OH253569   2.456   1.605   1.859
10693TIP3    H153570   2.537   1.559   1.881
10693TIP3    H253571   2.435   1.576   1.770
10694TIP3   OH253572   2.971   1.644   0.115
10694TIP3    H153573   2.943   1.601   0.034
10694TIP3    H253574   3.062   1.668   0.100
10695TIP3   OH253575   3.099   1.483   1.770
10695TIP3    H153576   3.090   1.400   1.816
10695TIP3    H253577   3.174   1.525   1.811
10696TIP3   OH253578   3.376   1.543   0.062
10696TIP3    H153579   3.334   1.466   0.101
10696TIP3    H253580   3.470   1.527   0.075
10697TIP3   OH253581   1.999   1.177   1.789
10697TIP3    H153582   2.003   1.081   1.785
10697TIP3    H253583   1.925   1.200   1.732
10698TIP3   OH253584   2.458   1.161   0.031
10698TIP3    H153585   2.498   1.113   0.104
10698TIP3    H253586   2.463   1.100  -0.042
10699TIP3   OH253587   2.665   1.171   1.747
10699TIP3    H153588   2.649   1.216   1.664
10699TIP3    H253589   2.694   1.083   1.722
10700TIP3   OH253590   3.226   1.202   1.507
10700TIP3    H153591   3.317   1.222   1.486
10700TIP3    H253592   3.180   1.286   1.496
10701TIP3   OH253593   2.069   0.910   1.766
10701TIP3    H153594   2.154   0.888   1.728
10701TIP3    H253595   2.081   0.897   1.860
10702TIP3   OH253596   2.555   0.985   0.224
10702TIP3    H153597   2.499   0.953   0.295
10702TIP3    H253598   2.586   0.906   0.180
10703TIP3   OH253599   2.501   0.793   1.509
10703TIP3    H153600   2.419   0.843   1.506
10703TIP3    H253601   2.554   0.830   1.438
10704TIP3   OH253602   2.672   0.781   0.058
10704TIP3    H153603   2.675   0.796  -0.036
10704TIP3    H253604   2.764   0.781   0.085
10705TIP3   OH253605   3.003   1.031   1.770
10705TIP3    H153606   3.082   0.998   1.728
10705TIP3    H253607   2.975   0.961   1.828
10706TIP3   OH253608   3.580   1.112  16.013
10706TIP3    H153609   3.548   1.121  15.924
10706TIP3    H253610   3.599   1.201  16.041
10707TIP3   OH253611   2.534   0.529   1.573
10707TIP3    H153612   2.545   0.476   1.494
10707TIP3    H253613   2.526   0.619   1.540
10708TIP3   OH253614   2.566   0.385   1.336
10708TIP3    H153615   2.620   0.426   1.268
10708TIP3    H253616   2.479   0.379   1.297
10709TIP3   OH253617   2.676   0.901   1.332
10709TIP3    H153618   2.769   0.920   1.349
10709TIP3    H253619   2.644   0.977   1.284
10710TIP3   OH253620   3.142   0.650   1.818
10710TIP3    H153621   3.164   0.557   1.825
10710TIP3    H253622   3.226   0.695   1.829
10711TIP3   OH253623   3.265   0.975   1.649
10711TIP3    H153624   3.239   1.054   1.603
10711TIP3    H253625   3.361   0.976   1.646
10712TIP3   OH253626   2.388   0.569   1.803
10712TIP3    H153627   2.299   0.538   1.787
10712TIP3    H253628   2.431   0.567   1.717
10713TIP3   OH253629   2.610   0.128   1.427
10713TIP3    H153630   2.592   0.217   1.399
10713TIP3    H253631   2.532   0.079   1.401
10714TIP3   OH253632   2.751   0.501   1.741
10714TIP3    H153633   2.725   0.450   1.818
10714TIP3    H253634   2.673   0.504   1.687
10715TIP3   OH253635   3.001   0.412   1.656
10715TIP3    H153636   2.912   0.425   1.689
10715TIP3    H253637   3.050   0.381   1.732
10716TIP3   OH253638   3.195   0.357   1.856
10716TIP3    H153639   3.201   0.263   1.838
10716TIP3    H253640   3.173   0.362   1.950
10717TIP3   OH253641   2.145   0.438   1.775
10717TIP3    H153642   2.149   0.363   1.716
10717TIP3    H253643   2.159   0.400   1.862
10718TIP3   OH253644   2.713  -0.001   1.647
10718TIP3    H153645   2.644  -0.029   1.708
10718TIP3    H253646   2.666   0.044   1.577
10719TIP3   OH253647   2.767   0.210   1.840
10719TIP3    H153648   2.767   0.125   1.796
10719TIP3    H253649   2.675   0.235   1.844
10720TIP3   OH253650   2.648   1.885   0.163
10720TIP3    H153651   2.739   1.899   0.189
10720TIP3    H253652   2.646   1.906   0.069
10721TIP3   OH253653   2.012   1.357   0.099
10721TIP3    H153654   2.105   1.354   0.122
10721TIP3    H253655   2.011   1.348   0.004
10722TIP3   OH253656   1.883   1.847   0.654
10722TIP3    H153657   1.830   1.819   0.579
10722TIP3    H253658   1.901   1.766   0.702
10723TIP3   OH253659   1.957   1.624   0.807
10723TIP3    H153660   1.924   1.547   0.853
10723TIP3    H253661   2.006   1.672   0.873
10724TIP3   OH253662   3.724   1.721   1.129
10724TIP3    H153663   3.727   1.730   1.225
10724TIP3    H253664   3.805   1.762   1.099
10725TIP3   OH253665   3.662   1.701   1.409
10725TIP3    H153666   3.611   1.629   1.371
10725TIP3    H253667   3.711   1.661   1.481
10726TIP3   OH253668   3.533   1.281   1.894
10726TIP3    H153669   3.447   1.294   1.934
10726TIP3    H253670   3.586   1.352   1.928
10727TIP3   OH253671   3.668   1.120   0.417
10727TIP3    H153672   3.737   1.186   0.421
10727TIP3    H253673   3.686   1.062   0.492
10728TIP3   OH253674   3.719   0.925   0.610
10728TIP3    H153675   3.634   0.893   0.640
10728TIP3    H253676   3.769   0.939   0.690
10729TIP3   OH253677   3.697   1.213   1.126
10729TIP3    H153678   3.746   1.143   1.083
10729TIP3    H253679   3.731   1.293   1.087
10730TIP3   OH253680   3.500   1.488   1.325
10730TIP3    H153681   3.429   1.536   1.368
10730TIP3    H253682   3.468   1.474   1.236
10731TIP3   OH253683   3.691   0.942   0.212
10731TIP3    H153684   3.645   0.987   0.141
10731TIP3    H253685   3.683   1.001   0.287
10732TIP3   OH253686   3.511   0.568   0.129
10732TIP3    H153687   3.564   0.601   0.056
10732TIP3    H253688   3.506   0.474   0.114
10733TIP3   OH253689   3.468   0.805   0.656
10733TIP3    H153690   3.462   0.716   0.621
10733TIP3    H253691   3.423   0.801   0.740
10734TIP3   OH253692   1.942   0.978   1.078
10734TIP3    H153693   1.952   0.967   0.984
10734TIP3    H253694   2.025   0.948   1.115
10735TIP3   OH253695   3.540   0.987   1.630
10735TIP3    H153696   3.601   0.915   1.613
10735TIP3    H253697   3.574   1.059   1.577
10736TIP3   OH253698   3.680   0.752   1.612
10736TIP3    H153699   3.592   0.719   1.628
10736TIP3    H253700   3.737   0.678   1.633
10737TIP3   OH253701   3.461   0.553   0.497
10737TIP3    H153702   3.492   0.462   0.496
10737TIP3    H253703   3.525   0.601   0.445
10738TIP3   OH253704   3.479   0.586   1.049
10738TIP3    H153705   3.570   0.602   1.026
10738TIP3    H253706   3.473   0.605   1.143
10739TIP3   OH253707   3.500   0.670   1.316
10739TIP3    H153708   3.420   0.699   1.360
10739TIP3    H253709   3.551   0.751   1.304
10740TIP3   OH253710   1.906   0.491   1.647
10740TIP3    H153711   1.989   0.483   1.695
10740TIP3    H253712   1.862   0.407   1.663
10741TIP3   OH253713   3.790   0.091   1.812
10741TIP3    H153714   3.762   0.001   1.795
10741TIP3    H253715   3.736   0.144   1.754
10742TIP3   OH253716   3.540   0.280   0.506
10742TIP3    H153717   3.555   0.233   0.588
10742TIP3    H253718   3.478   0.226   0.457
10743TIP3   OH253719   2.046   0.369   0.992
10743TIP3    H153720   2.082   0.281   0.979
10743TIP3    H253721   2.122   0.426   0.996
10744TIP3   OH253722   1.864   0.661   1.026
10744TIP3    H153723   1.937   0.657   0.965
10744TIP3    H253724   1.896   0.714   1.099
10745TIP3   OH253725   3.665   0.265   1.648
10745TIP3    H153726   3.582   0.309   1.666
10745TIP3    H253727   3.651   0.222   1.563
10746TIP3   OH253728   3.662   0.309   0.124
10746TIP3    H153729   3.718   0.284   0.050
10746TIP3    H253730   3.713   0.375   0.171
10747TIP3   OH253731   1.913   0.268   0.413
10747TIP3    H153732   1.824   0.279   0.446
10747TIP3    H253733   1.935   0.352   0.373
10748TIP3   OH253734   3.379   1.807   0.664
10748TIP3    H153735   3.450   1.806   0.600
10748TIP3    H253736   3.417   1.848   0.742
10749TIP3   OH253737   1.964   0.091   1.305
10749TIP3    H153738   1.886   0.082   1.360
10749TIP3    H253739   1.941   0.161   1.243
10750TIP3   OH253740   2.115   1.513   1.704
10750TIP3    H153741   2.025   1.506   1.672
10750TIP3    H253742   2.111   1.479   1.794
10751TIP3   OH253743   2.456   1.597   1.350
10751TIP3    H153744   2.428   1.685   1.327
10751TIP3    H253745   2.550   1.595   1.330
10752TIP3   OH253746   2.820   1.717   1.627
10752TIP3    H153747   2.831   1.685   1.717
10752TIP3    H253748   2.900   1.766   1.609
10753TIP3   OH253749   3.058   1.853   1.591
10753TIP3    H153750   3.123   1.800   1.544
10753TIP3    H253751   3.106   1.886   1.667
10754TIP3   OH253752   3.616   0.111   1.425
10754TIP3    H153753   3.549   0.148   1.369
10754TIP3    H253754   3.570   0.046   1.478
10755TIP3   OH253755   2.150   1.872   1.373
10755TIP3    H153756   2.072   1.911   1.333
10755TIP3    H253757   2.164   1.921   1.454
10756TIP3   OH253758   2.411   1.860   1.283
10756TIP3    H153759   2.319   1.868   1.308
10756TIP3    H253760   2.416   1.902   1.197
10757TIP3   OH253761   2.856   1.837   1.189
10757TIP3    H153762   2.807   1.873   1.115
10757TIP3    H253763   2.867   1.911   1.249
10758TIP3   OH253764   3.082   1.710   1.282
10758TIP3    H153765   3.005   1.754   1.245
10758TIP3    H253766   3.155   1.770   1.263
10759TIP3   OH253767   3.324   1.845   1.265
10759TIP3    H153768   3.355   1.935   1.256
10759TIP3    H253769   3.367   1.798   1.193
10760TIP3   OH253770   2.110   1.734   1.026
10760TIP3    H153771   2.109   1.692   1.112
10760TIP3    H253772   2.188   1.700   0.983
10761TIP3   OH253773   2.328   1.615   0.916
10761TIP3    H153774   2.316   1.521   0.935
10761TIP3    H253775   2.415   1.635   0.950
10762TIP3   OH253776   2.588   1.638   1.023
10762TIP3    H153777   2.599   1.549   0.990
10762TIP3    H253778   2.625   1.635   1.112
10763TIP3   OH253779   2.919   0.261   0.919
10763TIP3    H153780   2.851   0.198   0.943
10763TIP3    H253781   2.983   0.209   0.871
10764TIP3   OH253782   3.386   0.019   0.881
10764TIP3    H153783   3.464   0.054   0.838
10764TIP3    H253784   3.332   0.096   0.898
10765TIP3   OH253785   3.606   0.125   0.739
10765TIP3    H153786   3.666   0.050   0.737
10765TIP3    H253787   3.662   0.200   0.756
10766TIP3   OH253788   2.222   0.056   0.659
10766TIP3    H153789   2.156   0.035   0.592
10766TIP3    H253790   2.226  -0.023   0.713
10767TIP3   OH253791   2.004   0.140   0.174
10767TIP3    H153792   2.090   0.182   0.171
10767TIP3    H253793   1.958   0.185   0.245
10768TIP3   OH253794   2.652   0.119   0.688
10768TIP3    H153795   2.737   0.143   0.650
10768TIP3    H253796   2.667   0.120   0.782
10769TIP3   OH253797   3.132   0.157   0.779
10769TIP3    H153798   3.174   0.221   0.721
10769TIP3    H253799   3.150   0.072   0.738
10770TIP3   OH253800   3.358   0.103   0.398
10770TIP3    H153801   3.270   0.135   0.418
10770TIP3    H253802   3.358   0.012   0.430
10771TIP3   OH253803   2.003   1.708   0.358
10771TIP3    H153804   1.938   1.702   0.288
10771TIP3    H253805   2.037   1.797   0.352
10772TIP3   OH253806   2.252   0.251   0.161
10772TIP3    H153807   2.294   0.254   0.075
10772TIP3    H253808   2.320   0.282   0.221
10773TIP3   OH253809   2.718   0.283   0.365
10773TIP3    H153810   2.772   0.235   0.428
10773TIP3    H253811   2.730   0.375   0.388
10774TIP3   OH253812   2.916   1.888   0.223
10774TIP3    H153813   2.983   1.947   0.187
10774TIP3    H253814   2.935   1.804   0.182
10775TIP3   OH253815   3.573   1.786   0.466
10775TIP3    H153816   3.557   1.695   0.440
10775TIP3    H253817   3.566   1.836   0.384
10776TIP3   OH253818   2.149   0.215   1.613
10776TIP3    H153819   2.094   0.138   1.595
10776TIP3    H253820   2.223   0.180   1.663
10777TIP3   OH253821   2.361   0.152   1.787
10777TIP3    H153822   2.430   0.217   1.802
10777TIP3    H253823   2.404   0.068   1.803
10778TIP3   OH253824   2.225   1.767  -0.016
10778TIP3    H153825   2.154   1.829  -0.001
10778TIP3    H253826   2.238   1.724   0.069
10779TIP3   OH253827   3.224   0.087   1.806
10779TIP3    H153828   3.271   0.021   1.857
10779TIP3    H253829   3.151   0.040   1.767
10780TIP3   OH253830   3.484   1.625   1.683
10780TIP3    H153831   3.425   1.620   1.607
10780TIP3    H253832   3.483   1.718   1.707
10781TIP3   OH253833   4.975   1.050   0.640
10781TIP3    H153834   4.963   1.145   0.630
10781TIP3    H253835   4.896   1.012   0.602
10782TIP3   OH253836   4.908   0.921   1.027
10782TIP3    H153837   4.897   0.899   1.120
10782TIP3    H253838   4.822   0.902   0.989
10783TIP3   OH253839   4.057   0.869   1.169
10783TIP3    H153840   4.073   0.802   1.236
10783TIP3    H253841   4.144   0.894   1.139
10784TIP3   OH253842   5.248   1.253   0.853
10784TIP3    H153843   5.209   1.180   0.900
10784TIP3    H253844   5.263   1.319   0.921
10785TIP3   OH253845   4.147   1.341   0.990
10785TIP3    H153846   4.121   1.257   0.953
10785TIP3    H253847   4.243   1.337   0.993
10786TIP3   OH253848   3.833   0.677   0.536
10786TIP3    H153849   3.815   0.765   0.571
10786TIP3    H253850   3.772   0.667   0.463
10787TIP3   OH253851   3.905   0.931   0.817
10787TIP3    H153852   3.939   0.843   0.834
10787TIP3    H253853   3.982   0.987   0.827
10788TIP3   OH253854   4.932   1.716   0.898
10788TIP3    H153855   5.001   1.659   0.863
10788TIP3    H253856   4.854   1.661   0.902
10789TIP3   OH253857   4.690   1.202   1.080
10789TIP3    H153858   4.712   1.259   1.007
10789TIP3    H253859   4.769   1.198   1.133
10790TIP3   OH253860   5.595   0.312   1.160
10790TIP3    H153861   5.587   0.382   1.225
10790TIP3    H253862   5.657   0.345   1.096
10791TIP3   OH253863   5.006   0.618   1.074
10791TIP3    H153864   5.014   0.523   1.086
10791TIP3    H253865   4.977   0.628   0.983
10792TIP3   OH253866   4.350   0.420   0.793
10792TIP3    H153867   4.354   0.508   0.755
10792TIP3    H253868   4.296   0.370   0.732
10793TIP3   OH253869   5.136   0.451   0.667
10793TIP3    H153870   5.177   0.423   0.748
10793TIP3    H253871   5.206   0.493   0.617
10794TIP3   OH253872   3.987   0.672   0.880
10794TIP3    H153873   4.055   0.637   0.937
10794TIP3    H253874   4.010   0.640   0.793
10795TIP3   OH253875   4.455   0.823   0.854
10795TIP3    H153876   4.542   0.790   0.878
10795TIP3    H253877   4.421   0.758   0.794
10796TIP3   OH253878   5.555   0.495   1.359
10796TIP3    H153879   5.503   0.575   1.348
10796TIP3    H253880   5.605   0.510   1.439
10797TIP3   OH253881   4.198   0.363   1.240
10797TIP3    H153882   4.174   0.419   1.166
10797TIP3    H253883   4.126   0.374   1.302
10798TIP3   OH253884   4.955   1.308   0.529
10798TIP3    H153885   4.921   1.300   0.440
10798TIP3    H253886   4.913   1.387   0.563
10799TIP3   OH253887   4.456   1.114   1.195
10799TIP3    H153888   4.409   1.190   1.228
10799TIP3    H253889   4.531   1.151   1.148
10800TIP3   OH253890   5.225   0.371   0.912
10800TIP3    H153891   5.150   0.359   0.972
10800TIP3    H253892   5.279   0.437   0.955
10801TIP3   OH253893   4.186   0.511   1.002
10801TIP3    H153894   4.243   0.568   1.053
10801TIP3    H253895   4.243   0.471   0.937
10802TIP3   OH253896   4.314   1.323   1.313
10802TIP3    H153897   4.323   1.418   1.301
10802TIP3    H253898   4.223   1.311   1.340
10803TIP3   OH253899   3.878   1.298   0.397
10803TIP3    H153900   3.875   1.342   0.312
10803TIP3    H253901   3.902   1.368   0.458
10804TIP3   OH253902   5.282   1.445   1.061
10804TIP3    H153903   5.194   1.438   1.096
10804TIP3    H253904   5.289   1.536   1.032
10805TIP3   OH253905   5.336   0.222   1.225
10805TIP3    H153906   5.271   0.279   1.184
10805TIP3    H253907   5.419   0.251   1.189
10806TIP3   OH253908   4.565   0.114   0.967
10806TIP3    H153909   4.540   0.022   0.975
10806TIP3    H253910   4.490   0.162   1.003
10807TIP3   OH253911   5.144   1.590   0.770
10807TIP3    H153912   5.165   1.513   0.717
10807TIP3    H253913   5.189   1.663   0.726
10808TIP3   OH253914   5.218   1.370   0.602
10808TIP3    H153915   5.130   1.342   0.578
10808TIP3    H253916   5.237   1.322   0.683
10809TIP3   OH253917   5.378   1.238   1.431
10809TIP3    H153918   5.367   1.181   1.355
10809TIP3    H253919   5.384   1.326   1.394
10810TIP3   OH253920   4.815   0.926   0.440
10810TIP3    H153921   4.749   0.991   0.417
10810TIP3    H253922   4.881   0.934   0.371
10811TIP3   OH253923   4.828   0.786   0.105
10811TIP3    H153924   4.881   0.803   0.183
10811TIP3    H253925   4.889   0.796   0.032
10812TIP3   OH253926   5.525   0.895   1.238
10812TIP3    H153927   5.457   0.962   1.233
10812TIP3    H253928   5.597   0.929   1.185
10813TIP3   OH253929   5.186   0.962   0.496
10813TIP3    H153930   5.120   0.996   0.556
10813TIP3    H253931   5.251   0.920   0.552
10814TIP3   OH253932   5.131   0.763   1.458
10814TIP3    H153933   5.130   0.835   1.521
10814TIP3    H253934   5.063   0.786   1.395
10815TIP3   OH253935   4.326   1.015   0.689
10815TIP3    H153936   4.311   0.974   0.604
10815TIP3    H253937   4.382   0.952   0.736
10816TIP3   OH253938   4.416   1.356   0.942
10816TIP3    H153939   4.413   1.375   0.848
10816TIP3    H253940   4.505   1.380   0.969
10817TIP3   OH253941   4.311   0.923   1.067
10817TIP3    H153942   4.365   0.897   0.992
10817TIP3    H253943   4.361   0.992   1.110
10818TIP3   OH253944   5.049   1.436   1.195
10818TIP3    H153945   5.007   1.518   1.219
10818TIP3    H253946   4.981   1.369   1.208
10819TIP3   OH253947   4.467   1.333   1.544
10819TIP3    H153948   4.405   1.393   1.586
10819TIP3    H253949   4.427   1.310   1.461
10820TIP3   OH253950   5.048   0.870   0.279
10820TIP3    H153951   5.094   0.903   0.356
10820TIP3    H253952   5.087   0.917   0.205
10821TIP3   OH253953   4.125   0.911   1.523
10821TIP3    H153954   4.140   0.999   1.558
10821TIP3    H253955   4.035   0.915   1.489
10822TIP3   OH253956   4.837   1.546   0.594
10822TIP3    H153957   4.795   1.539   0.680
10822TIP3    H253958   4.812   1.633   0.563
10823TIP3   OH253959   4.269   1.512   1.615
10823TIP3    H153960   4.274   1.549   1.526
10823TIP3    H253961   4.175   1.508   1.634
10824TIP3   OH253962   5.438   0.047   0.259
10824TIP3    H153963   5.354   0.077   0.292
10824TIP3    H253964   5.478   0.124   0.218
10825TIP3   OH253965   4.249   0.923   0.427
10825TIP3    H153966   4.192   0.996   0.402
10825TIP3    H253967   4.195   0.845   0.418
10826TIP3   OH253968   5.526   1.496   0.138
10826TIP3    H153969   5.549   1.589   0.142
10826TIP3    H253970   5.610   1.452   0.123
10827TIP3   OH253971   3.839   1.175   1.368
10827TIP3    H153972   3.789   1.185   1.287
10827TIP3    H253973   3.852   1.080   1.376
10828TIP3   OH253974   3.836   1.442   1.040
10828TIP3    H153975   3.930   1.430   1.048
10828TIP3    H253976   3.816   1.517   1.096
10829TIP3   OH253977   5.626   1.526   1.642
10829TIP3    H153978   5.614   1.432   1.632
10829TIP3    H253979   5.541   1.558   1.672
10830TIP3   OH253980   4.709   1.458   1.502
10830TIP3    H153981   4.701   1.547   1.537
10830TIP3    H253982   4.622   1.420   1.515
10831TIP3   OH253983   4.803   1.809   0.479
10831TIP3    H153984   4.790   1.834   0.387
10831TIP3    H253985   4.773   1.885   0.529
10832TIP3   OH253986   4.137   1.696   0.671
10832TIP3    H153987   4.164   1.663   0.757
10832TIP3    H253988   4.089   1.624   0.631
10833TIP3   OH253989   5.108   1.754   0.129
10833TIP3    H153990   5.175   1.688   0.111
10833TIP3    H253991   5.106   1.761   0.225
10834TIP3   OH253992   5.073   1.765   0.412
10834TIP3    H153993   4.981   1.764   0.439
10834TIP3    H253994   5.118   1.718   0.482
10835TIP3   OH253995   5.300   0.622   1.641
10835TIP3    H153996   5.244   0.656   1.572
10835TIP3    H253997   5.315   0.531   1.617
10836TIP3   OH253998   4.063   1.325   1.427
10836TIP3    H153999   4.088   1.285   1.511
10836TIP3    H254000   3.984   1.279   1.401
10837TIP3   OH254001   4.319   0.189   1.065
10837TIP3    H154002   4.244   0.174   1.008
10837TIP3    H254003   4.284   0.240   1.138
10838TIP3   OH254004   4.778   0.129   1.452
10838TIP3    H154005   4.764   0.082   1.535
10838TIP3    H254006   4.690   0.144   1.418
10839TIP3   OH254007   5.097   0.484   1.457
10839TIP3    H154008   5.039   0.472   1.531
10839TIP3    H254009   5.098   0.579   1.442
10840TIP3   OH254010   5.184   1.016   0.082
10840TIP3    H154011   5.183   1.086   0.017
10840TIP3    H254012   5.235   1.051   0.155
10841TIP3   OH254013   4.767   0.344   0.084
10841TIP3    H154014   4.678   0.376   0.101
10841TIP3    H254015   4.763   0.251   0.106
10842TIP3   OH254016   4.330   0.669   1.179
10842TIP3    H154017   4.266   0.669   1.251
10842TIP3    H254018   4.329   0.759   1.147
10843TIP3   OH254019   4.327   0.663   0.671
10843TIP3    H154020   4.232   0.651   0.664
10843TIP3    H254021   4.359   0.649   0.581
10844TIP3   OH254022   4.873   0.678   0.540
10844TIP3    H154023   4.848   0.767   0.515
10844TIP3    H254024   4.943   0.655   0.477
10845TIP3   OH254025   4.806   0.704   1.658
10845TIP3    H154026   4.758   0.634   1.703
10845TIP3    H254027   4.893   0.702   1.697
10846TIP3   OH254028   4.949   0.621   0.804
10846TIP3    H154029   4.909   0.666   0.730
10846TIP3    H254030   5.005   0.554   0.764
10847TIP3   OH254031   4.121   0.670   1.360
10847TIP3    H154032   4.117   0.728   1.436
10847TIP3    H254033   4.075   0.591   1.387
10848TIP3   OH254034   4.507   0.446   0.086
10848TIP3    H154035   4.441   0.484   0.142
10848TIP3    H254036   4.481   0.471  -0.003
10849TIP3   OH254037   3.777   0.336   0.766
10849TIP3    H154038   3.825   0.355   0.847
10849TIP3    H254039   3.786   0.415   0.714
10850TIP3   OH254040   3.841   0.493   0.246
10850TIP3    H154041   3.914   0.529   0.197
10850TIP3    H254042   3.789   0.569   0.271
10851TIP3   OH254043   4.926   0.782   1.275
10851TIP3    H154044   4.959   0.730   1.203
10851TIP3    H254045   4.852   0.732   1.310
10852TIP3   OH254046   4.635   0.399   0.745
10852TIP3    H154047   4.544   0.399   0.775
10852TIP3    H254048   4.686   0.376   0.822
10853TIP3   OH254049   4.068   0.573   0.638
10853TIP3    H154050   3.990   0.598   0.587
10853TIP3    H254051   4.086   0.483   0.612
10854TIP3   OH254052   4.402   0.592   0.418
10854TIP3    H154053   4.497   0.585   0.420
10854TIP3    H254054   4.382   0.625   0.330
10855TIP3   OH254055   5.009   0.342   1.082
10855TIP3    H154056   4.970   0.340   1.170
10855TIP3    H254057   4.938   0.315   1.024
10856TIP3   OH254058   4.304   0.630   0.165
10856TIP3    H154059   4.210   0.631   0.146
10856TIP3    H254060   4.343   0.679   0.093
10857TIP3   OH254061   5.377   1.898   1.730
10857TIP3    H154062   5.403   1.932   1.644
10857TIP3    H254063   5.449   1.922   1.788
10858TIP3   OH254064   4.127   1.157   1.659
10858TIP3    H154065   4.195   1.156   1.727
10858TIP3    H254066   4.046   1.174   1.708
10859TIP3   OH254067   4.692   0.703   0.939
10859TIP3    H154068   4.771   0.662   0.904
10859TIP3    H254069   4.668   0.649   1.014
10860TIP3   OH254070   4.176   0.314   0.598
10860TIP3    H154071   4.144   0.225   0.611
10860TIP3    H254072   4.217   0.313   0.512
10861TIP3   OH254073   4.591   0.574   1.169
10861TIP3    H154074   4.507   0.620   1.176
10861TIP3    H254075   4.640   0.600   1.246
10862TIP3   OH254076   4.645   1.125   0.357
10862TIP3    H154077   4.574   1.088   0.305
10862TIP3    H254078   4.602   1.162   0.434
10863TIP3   OH254079   5.346   1.098   1.197
10863TIP3    H154080   5.407   1.158   1.153
10863TIP3    H254081   5.278   1.081   1.132
10864TIP3   OH254082   5.020   0.466   0.099
10864TIP3    H154083   4.933   0.428   0.101
10864TIP3    H254084   5.028   0.513   0.182
10865TIP3   OH254085   4.777   1.172   1.511
10865TIP3    H154086   4.808   1.148   1.598
10865TIP3    H254087   4.755   1.265   1.518
10866TIP3   OH254088   5.076   0.601   0.351
10866TIP3    H154089   5.164   0.591   0.389
10866TIP3    H254090   5.074   0.690   0.318
10867TIP3   OH254091   4.139   1.068   0.886
10867TIP3    H154092   4.199   1.068   0.811
10867TIP3    H254093   4.189   1.026   0.956
10868TIP3   OH254094   4.854   1.276   0.252
10868TIP3    H154095   4.808   1.359   0.261
10868TIP3    H254096   4.791   1.210   0.283
10869TIP3   OH254097   3.853   0.902   1.450
10869TIP3    H154098   3.820   0.861   1.530
10869TIP3    H254099   3.787   0.884   1.384
10870TIP3   OH254100   4.588   0.889   1.691
10870TIP3    H154101   4.520   0.860   1.631
10870TIP3    H254102   4.667   0.845   1.660
10871TIP3   OH254103   4.987   1.445   1.512
10871TIP3    H154104   4.895   1.452   1.488
10871TIP3    H254105   4.989   1.465   1.606
10872TIP3   OH254106   5.542   0.674   0.322
10872TIP3    H154107   5.488   0.634   0.253
10872TIP3    H254108   5.555   0.764   0.292
10873TIP3   OH254109   5.600   1.250   1.590
10873TIP3    H154110   5.511   1.256   1.556
10873TIP3    H254111   5.653   1.226   1.514
10874TIP3   OH254112   5.390   1.535   0.400
10874TIP3    H154113   5.346   1.468   0.453
10874TIP3    H254114   5.424   1.487   0.324
10875TIP3   OH254115   5.164   1.023   1.000
10875TIP3    H154116   5.069   1.010   1.009
10875TIP3    H254117   5.195   0.946   0.954
10876TIP3   OH254118   4.453   1.459   0.680
10876TIP3    H154119   4.533   1.480   0.728
10876TIP3    H254120   4.431   1.540   0.634
10877TIP3   OH254121   3.966   0.911   0.162
10877TIP3    H154122   4.004   0.975   0.222
10877TIP3    H254123   3.872   0.918   0.177
10878TIP3   OH254124   4.491   1.209   0.565
10878TIP3    H154125   4.480   1.297   0.601
10878TIP3    H254126   4.433   1.154   0.618
10879TIP3   OH254127   4.592   1.606   1.271
10879TIP3    H154128   4.648   1.679   1.246
10879TIP3    H254129   4.652   1.542   1.310
10880TIP3   OH254130   4.394   1.716   0.567
10880TIP3    H154131   4.304   1.720   0.598
10880TIP3    H254132   4.437   1.790   0.611
10881TIP3   OH254133   4.903   1.198   1.264
10881TIP3    H154134   4.854   1.185   1.346
10881TIP3    H254135   4.991   1.165   1.283
10882TIP3   OH254136   5.125   1.311   0.148
10882TIP3    H154137   5.179   1.264   0.211
10882TIP3    H254138   5.036   1.307   0.183
10883TIP3   OH254139   5.194   1.645   1.461
10883TIP3    H154140   5.113   1.596   1.448
10883TIP3    H254141   5.189   1.717   1.399
10884TIP3   OH254142   5.603   1.764   0.175
10884TIP3    H154143   5.673   1.829   0.184
10884TIP3    H254144   5.522   1.815   0.175
10885TIP3   OH254145   3.993   0.417   1.415
10885TIP3    H154146   3.901   0.439   1.397
10885TIP3    H254147   3.989   0.346   1.478
10886TIP3   OH254148   5.287   1.140   0.307
10886TIP3    H154149   5.242   1.095   0.379
10886TIP3    H254150   5.378   1.148   0.337
10887TIP3   OH254151   3.993   1.609   1.268
10887TIP3    H154152   4.025   1.533   1.317
10887TIP3    H254153   4.015   1.684   1.324
10888TIP3   OH254154   4.395   1.424   0.260
10888TIP3    H154155   4.473   1.375   0.284
10888TIP3    H254156   4.417   1.515   0.278
10889TIP3   OH254157   4.070   1.111   0.324
10889TIP3    H154158   4.002   1.160   0.370
10889TIP3    H254159   4.116   1.178   0.272
10890TIP3   OH254160   4.893   0.349   1.331
10890TIP3    H154161   4.969   0.377   1.381
10890TIP3    H254162   4.861   0.272   1.377
10891TIP3   OH254163   5.005   0.318   0.465
10891TIP3    H154164   4.989   0.385   0.398
10891TIP3    H254165   5.044   0.366   0.538
10892TIP3   OH254166   4.698   1.497   0.277
10892TIP3    H154167   4.632   1.556   0.315
10892TIP3    H254168   4.755   1.555   0.226
10893TIP3   OH254169   4.659   0.512   0.492
10893TIP3    H154170   4.731   0.574   0.502
10893TIP3    H254171   4.642   0.479   0.581
10894TIP3   OH254172   4.754   0.600   1.393
10894TIP3    H154173   4.771   0.627   1.483
10894TIP3    H254174   4.794   0.513   1.386
10895TIP3   OH254175   4.769   0.211   0.580
10895TIP3    H154176   4.747   0.286   0.635
10895TIP3    H254177   4.855   0.233   0.543
10896TIP3   OH254178   4.483   1.679   0.310
10896TIP3    H154179   4.493   1.768   0.275
10896TIP3    H254180   4.453   1.693   0.400
10897TIP3   OH254181   4.319   0.333   0.363
10897TIP3    H154182   4.332   0.427   0.379
10897TIP3    H254183   4.407   0.297   0.363
10898TIP3   OH254184   5.347   0.375   1.500
10898TIP3    H154185   5.260   0.397   1.467
10898TIP3    H254186   5.407   0.406   1.432
10899TIP3   OH254187   5.216   0.762   0.890
10899TIP3    H154188   5.122   0.746   0.896
10899TIP3    H254189   5.255   0.700   0.952
10900TIP3   OH254190   4.165   1.315   0.158
10900TIP3    H154191   4.224   1.370   0.210
10900TIP3    H254192   4.223   1.268   0.098
10901TIP3   OH254193   4.032   0.650   0.091
10901TIP3    H154194   4.009   0.741   0.109
10901TIP3    H254195   4.024   0.641  -0.004
10902TIP3   OH254196   5.345   1.725   1.064
10902TIP3    H154197   5.326   1.792   0.998
10902TIP3    H254198   5.440   1.726   1.074
10903TIP3   OH254199   4.079   0.131   0.919
10903TIP3    H154200   4.087   0.139   0.824
10903TIP3    H254201   4.105   0.042   0.939
10904TIP3   OH254202   3.940   1.516   0.564
10904TIP3    H154203   3.893   1.547   0.642
10904TIP3    H254204   3.924   1.583   0.498
10905TIP3   OH254205   3.928   1.800   1.728
10905TIP3    H154206   3.993   1.780   1.795
10905TIP3    H254207   3.906   1.715   1.689
10906TIP3   OH254208   4.339   1.606   1.864
10906TIP3    H154209   4.423   1.566   1.885
10906TIP3    H254210   4.319   1.576   1.775
10907TIP3   OH254211   4.856   1.644   0.110
10907TIP3    H154212   4.828   1.602   0.029
10907TIP3    H254213   4.948   1.665   0.096
10908TIP3   OH254214   4.985   1.488   1.783
10908TIP3    H154215   4.977   1.405   1.830
10908TIP3    H254216   5.062   1.530   1.822
10909TIP3   OH254217   5.262   1.540   0.057
10909TIP3    H154218   5.218   1.462   0.092
10909TIP3    H254219   5.354   1.526   0.076
10910TIP3   OH254220   3.881   1.174   1.793
10910TIP3    H154221   3.880   1.079   1.787
10910TIP3    H254222   3.811   1.203   1.735
10911TIP3   OH254223   4.365   1.177   0.031
10911TIP3    H154224   4.395   1.131   0.109
10911TIP3    H254225   4.372   1.113  -0.040
10912TIP3   OH254226   4.551   1.169   1.749
10912TIP3    H154227   4.533   1.215   1.667
10912TIP3    H254228   4.580   1.082   1.723
10913TIP3   OH254229   5.110   1.196   1.493
10913TIP3    H154230   5.202   1.218   1.476
10913TIP3    H254231   5.065   1.280   1.494
10914TIP3   OH254232   3.949   0.905   1.770
10914TIP3    H154233   4.033   0.892   1.726
10914TIP3    H254234   3.969   0.897   1.864
10915TIP3   OH254235   4.437   0.998   0.229
10915TIP3    H154236   4.382   0.963   0.299
10915TIP3    H254237   4.472   0.920   0.185
10916TIP3   OH254238   4.390   0.796   1.510
10916TIP3    H154239   4.307   0.842   1.507
10916TIP3    H254240   4.445   0.838   1.444
10917TIP3   OH254241   4.550   0.791   0.085
10917TIP3    H154242   4.535   0.747   0.001
10917TIP3    H254243   4.645   0.788   0.097
10918TIP3   OH254244   4.889   1.032   1.777
10918TIP3    H154245   4.965   0.998   1.731
10918TIP3    H254246   4.857   0.957   1.828
10919TIP3   OH254247   5.508   1.132   0.012
10919TIP3    H154248   5.469   1.167  -0.069
10919TIP3    H254249   5.522   1.209   0.067
10920TIP3   OH254250   4.453   0.535   1.567
10920TIP3    H154251   4.453   0.482   1.487
10920TIP3    H254252   4.435   0.624   1.537
10921TIP3   OH254253   4.455   0.384   1.332
10921TIP3    H154254   4.506   0.429   1.264
10921TIP3    H254255   4.366   0.383   1.297
10922TIP3   OH254256   4.571   0.919   1.350
10922TIP3    H154257   4.659   0.953   1.368
10922TIP3    H254258   4.532   0.986   1.293
10923TIP3   OH254259   5.054   0.685   1.823
10923TIP3    H154260   5.116   0.625   1.784
10923TIP3    H254261   5.107   0.757   1.858
10924TIP3   OH254262   5.147   0.975   1.646
10924TIP3    H154263   5.122   1.052   1.595
10924TIP3    H254264   5.243   0.976   1.646
10925TIP3   OH254265   4.297   0.555   1.797
10925TIP3    H154266   4.205   0.535   1.777
10925TIP3    H254267   4.340   0.560   1.711
10926TIP3   OH254268   4.500   0.123   1.408
10926TIP3    H154269   4.483   0.214   1.383
10926TIP3    H254270   4.420   0.076   1.382
10927TIP3   OH254271   4.660   0.479   1.739
10927TIP3    H154272   4.607   0.448   1.813
10927TIP3    H254273   4.597   0.498   1.670
10928TIP3   OH254274   4.920   0.421   1.651
10928TIP3    H154275   4.830   0.429   1.683
10928TIP3    H254276   4.969   0.388   1.727
10929TIP3   OH254277   5.066   0.322   1.867
10929TIP3    H154278   5.039   0.230   1.873
10929TIP3    H254279   5.045   0.359   1.953
10930TIP3   OH254280   4.039   0.453   1.766
10930TIP3    H154281   4.035   0.379   1.707
10930TIP3    H254282   4.059   0.415   1.852
10931TIP3   OH254283   4.591  -0.003   1.633
10931TIP3    H154284   4.518  -0.036   1.685
10931TIP3    H254285   4.550   0.042   1.559
10932TIP3   OH254286   4.593   0.129   1.883
10932TIP3    H154287   4.609   0.104   1.792
10932TIP3    H254288   4.539   0.207   1.878
10933TIP3   OH254289   4.539   1.905   0.163
10933TIP3    H154290   4.631   1.913   0.187
10933TIP3    H254291   4.537   1.916   0.068
10934TIP3   OH254292   3.891   1.366   0.111
10934TIP3    H154293   3.985   1.358   0.125
10934TIP3    H254294   3.880   1.357   0.016
10935TIP3   OH254295   3.769   1.846   0.655
10935TIP3    H154296   3.715   1.820   0.580
10935TIP3    H254297   3.785   1.764   0.702
10936TIP3   OH254298   3.840   1.622   0.808
10936TIP3    H154299   3.807   1.547   0.857
10936TIP3    H254300   3.891   1.672   0.872
10937TIP3   OH254301   5.611   1.737   1.148
10937TIP3    H154302   5.595   1.718   1.241
10937TIP3    H254303   5.653   1.823   1.148
10938TIP3   OH254304   5.552   1.679   1.412
10938TIP3    H154305   5.492   1.612   1.379
10938TIP3    H254306   5.593   1.639   1.489
10939TIP3   OH254307   5.427   1.277   1.886
10939TIP3    H154308   5.340   1.290   1.923
10939TIP3    H254309   5.479   1.350   1.920
10940TIP3   OH254310   5.544   1.112   0.411
10940TIP3    H154311   5.612   1.179   0.413
10940TIP3    H254312   5.562   1.058   0.488
10941TIP3   OH254313   5.602   0.922   0.609
10941TIP3    H154314   5.517   0.892   0.640
10941TIP3    H254315   5.652   0.940   0.688
10942TIP3   OH254316   5.588   1.226   1.135
10942TIP3    H154317   5.637   1.163   1.083
10942TIP3    H254318   5.613   1.312   1.100
10943TIP3   OH254319   5.378   1.488   1.320
10943TIP3    H154320   5.301   1.532   1.357
10943TIP3    H254321   5.355   1.472   1.229
10944TIP3   OH254322   5.585   0.932   0.211
10944TIP3    H154323   5.548   0.979   0.137
10944TIP3    H254324   5.570   0.990   0.286
10945TIP3   OH254325   5.403   0.545   0.124
10945TIP3    H154326   5.450   0.583   0.050
10945TIP3    H254327   5.314   0.532   0.092
10946TIP3   OH254328   5.352   0.801   0.654
10946TIP3    H154329   5.344   0.713   0.618
10946TIP3    H254330   5.308   0.796   0.739
10947TIP3   OH254331   3.825   0.969   1.075
10947TIP3    H154332   3.837   0.963   0.980
10947TIP3    H254333   3.909   0.944   1.112
10948TIP3   OH254334   5.422   0.986   1.641
10948TIP3    H154335   5.473   0.912   1.610
10948TIP3    H254336   5.465   1.063   1.603
10949TIP3   OH254337   5.545   0.748   1.584
10949TIP3    H154338   5.460   0.705   1.598
10949TIP3    H254339   5.598   0.722   1.659
10950TIP3   OH254340   5.340   0.549   0.494
10950TIP3    H154341   5.370   0.458   0.495
10950TIP3    H254342   5.408   0.596   0.445
10951TIP3   OH254343   5.357   0.572   1.051
10951TIP3    H154344   5.449   0.591   1.031
10951TIP3    H254345   5.346   0.602   1.141
10952TIP3   OH254346   5.361   0.687   1.307
10952TIP3    H154347   5.284   0.725   1.350
10952TIP3    H254348   5.418   0.762   1.289
10953TIP3   OH254349   3.795   0.507   1.647
10953TIP3    H154350   3.879   0.499   1.692
10953TIP3    H254351   3.752   0.423   1.662
10954TIP3   OH254352   5.702   0.053   1.737
10954TIP3    H154353   5.666  -0.017   1.683
10954TIP3    H254354   5.646   0.128   1.720
10955TIP3   OH254355   5.410   0.274   0.505
10955TIP3    H154356   5.434   0.222   0.582
10955TIP3    H254357   5.342   0.222   0.462
10956TIP3   OH254358   3.941   0.362   0.990
10956TIP3    H154359   3.985   0.278   0.977
10956TIP3    H254360   4.012   0.426   0.994
10957TIP3   OH254361   3.745   0.658   1.024
10957TIP3    H154362   3.822   0.653   0.966
10957TIP3    H254363   3.765   0.731   1.083
10958TIP3   OH254364   5.528   0.253   1.676
10958TIP3    H154365   5.469   0.298   1.737
10958TIP3    H254366   5.483   0.260   1.591
10959TIP3   OH254367   5.528   0.274   0.125
10959TIP3    H154368   5.608   0.283   0.073
10959TIP3    H254369   5.498   0.364   0.140
10960TIP3   OH254370   3.804   0.264   0.398
10960TIP3    H154371   3.715   0.270   0.433
10960TIP3    H254372   3.821   0.350   0.361
10961TIP3   OH254373   5.262   1.809   0.651
10961TIP3    H154374   5.335   1.808   0.589
10961TIP3    H254375   5.298   1.850   0.730
10962TIP3   OH254376   3.828   0.066   1.257
10962TIP3    H154377   3.762   0.067   1.326
10962TIP3    H254378   3.813   0.148   1.209
10963TIP3   OH254379   4.006   1.504   1.710
10963TIP3    H154380   3.916   1.504   1.676
10963TIP3    H254381   3.996   1.479   1.802
10964TIP3   OH254382   4.333   1.601   1.355
10964TIP3    H154383   4.308   1.690   1.331
10964TIP3    H254384   4.427   1.596   1.335
10965TIP3   OH254385   4.704   1.711   1.622
10965TIP3    H154386   4.715   1.684   1.713
10965TIP3    H254387   4.783   1.762   1.603
10966TIP3   OH254388   4.941   1.852   1.587
10966TIP3    H154389   5.006   1.802   1.538
10966TIP3    H254390   4.988   1.885   1.664
10967TIP3   OH254391   5.469   0.075   1.422
10967TIP3    H154392   5.418   0.136   1.370
10967TIP3    H254393   5.453  -0.011   1.382
10968TIP3   OH254394   4.037   1.875   1.371
10968TIP3    H154395   3.958   1.914   1.333
10968TIP3    H254396   4.051   1.923   1.453
10969TIP3   OH254397   4.298   1.864   1.282
10969TIP3    H154398   4.206   1.874   1.305
10969TIP3    H254399   4.306   1.903   1.195
10970TIP3   OH254400   4.741   1.826   1.193
10970TIP3    H154401   4.704   1.865   1.113
10970TIP3    H254402   4.755   1.900   1.252
10971TIP3   OH254403   4.974   1.696   1.270
10971TIP3    H154404   4.891   1.729   1.234
10971TIP3    H254405   5.040   1.758   1.239
10972TIP3   OH254406   5.226   1.854   1.274
10972TIP3    H154407   5.241   1.946   1.252
10972TIP3    H254408   5.263   1.805   1.201
10973TIP3   OH254409   3.995   1.736   1.024
10973TIP3    H154410   3.994   1.696   1.111
10973TIP3    H254411   4.074   1.701   0.982
10974TIP3   OH254412   4.212   1.609   0.922
10974TIP3    H154413   4.199   1.517   0.943
10974TIP3    H254414   4.300   1.628   0.954
10975TIP3   OH254415   4.468   1.674   1.024
10975TIP3    H154416   4.531   1.628   0.968
10975TIP3    H254417   4.491   1.647   1.113
10976TIP3   OH254418   4.800   0.259   0.923
10976TIP3    H154419   4.728   0.200   0.947
10976TIP3    H254420   4.859   0.204   0.872
10977TIP3   OH254421   5.290   0.020   0.884
10977TIP3    H154422   5.365   0.051   0.833
10977TIP3    H254423   5.256   0.099   0.927
10978TIP3   OH254424   5.503   0.119   0.731
10978TIP3    H154425   5.569   0.050   0.743
10978TIP3    H254426   5.551   0.200   0.747
10979TIP3   OH254427   4.103   0.048   0.651
10979TIP3    H154428   4.042   0.037   0.578
10979TIP3    H254429   4.094  -0.032   0.702
10980TIP3   OH254430   3.925   0.146   0.155
10980TIP3    H154431   4.012   0.186   0.150
10980TIP3    H254432   3.879   0.195   0.223
10981TIP3   OH254433   4.544   0.097   0.693
10981TIP3    H154434   4.624   0.135   0.656
10981TIP3    H254435   4.551   0.110   0.787
10982TIP3   OH254436   5.005   0.144   0.779
10982TIP3    H154437   5.066   0.209   0.746
10982TIP3    H254438   5.041   0.060   0.751
10983TIP3   OH254439   5.197   0.129   0.384
10983TIP3    H154440   5.129   0.191   0.409
10983TIP3    H254441   5.149   0.055   0.346
10984TIP3   OH254442   3.896   1.702   0.373
10984TIP3    H154443   3.823   1.691   0.312
10984TIP3    H254444   3.930   1.789   0.354
10985TIP3   OH254445   4.185   0.239   0.139
10985TIP3    H154446   4.247   0.171   0.113
10985TIP3    H254447   4.223   0.277   0.219
10986TIP3   OH254448   4.587   0.261   0.380
10986TIP3    H154449   4.646   0.221   0.444
10986TIP3    H254450   4.608   0.354   0.382
10987TIP3   OH254451   4.808   1.892   0.214
10987TIP3    H154452   4.884   1.945   0.188
10987TIP3    H254453   4.824   1.806   0.175
10988TIP3   OH254454   5.466   1.789   0.463
10988TIP3    H154455   5.445   1.698   0.441
10988TIP3    H254456   5.456   1.836   0.380
10989TIP3   OH254457   4.005   0.217   1.631
10989TIP3    H154458   3.925   0.175   1.661
10989TIP3    H254459   4.076   0.166   1.671
10990TIP3   OH254460   4.178   0.069   1.815
10990TIP3    H154461   4.259   0.020   1.827
10990TIP3    H254462   4.110   0.003   1.802
10991TIP3   OH254463   4.124   1.762  -0.008
10991TIP3    H154464   4.052   1.812   0.030
10991TIP3    H254465   4.154   1.705   0.063
10992TIP3   OH254466   5.004   0.052   1.846
10992TIP3    H154467   5.078   0.001   1.878
10992TIP3    H254468   5.002   0.036   1.752
10993TIP3   OH254469   5.370   1.626   1.679
10993TIP3    H154470   5.308   1.620   1.606
10993TIP3    H254471   5.369   1.718   1.704
10994TIP3   OH254472   6.858   1.045   0.647
10994TIP3    H154473   6.837   1.138   0.638
10994TIP3    H254474   6.793   1.000   0.593
10995TIP3   OH254475   6.716   0.951   1.038
10995TIP3    H154476   6.738   0.915   1.124
10995TIP3    H254477   6.669   0.881   0.993
10996TIP3   OH254478   5.943   0.873   1.183
10996TIP3    H154479   5.942   0.796   1.240
10996TIP3    H254480   6.029   0.914   1.199
10997TIP3   OH254481   7.116   1.252   0.924
10997TIP3    H154482   7.068   1.170   0.940
10997TIP3    H254483   7.098   1.272   0.832
10998TIP3   OH254484   6.090   1.322   1.018
10998TIP3    H154485   6.054   1.241   0.981
10998TIP3    H254486   6.110   1.301   1.109
10999TIP3   OH254487   5.715   0.671   0.544
10999TIP3    H154488   5.693   0.760   0.573
10999TIP3    H254489   5.660   0.658   0.466
11000TIP3   OH254490   5.796   0.936   0.814
11000TIP3    H154491   5.825   0.848   0.835
11000TIP3    H254492   5.874   0.991   0.827
11001TIP3   OH254493   6.801   1.709   0.908
11001TIP3    H154494   6.857   1.642   0.870
11001TIP3    H254495   6.809   1.696   1.003
11002TIP3   OH254496   6.595   1.216   1.093
11002TIP3    H154497   6.618   1.142   1.036
11002TIP3    H254498   6.665   1.218   1.159
11003TIP3   OH254499   6.889   0.624   1.077
11003TIP3    H154500   6.904   0.532   1.099
11003TIP3    H254501   6.862   0.622   0.985
11004TIP3   OH254502   6.237   0.417   0.797
11004TIP3    H154503   6.240   0.505   0.760
11004TIP3    H254504   6.186   0.366   0.733
11005TIP3   OH254505   6.976   0.466   0.635
11005TIP3    H154506   7.027   0.415   0.697
11005TIP3    H254507   7.042   0.503   0.575
11006TIP3   OH254508   5.868   0.678   0.886
11006TIP3    H154509   5.933   0.640   0.945
11006TIP3    H254510   5.889   0.642   0.800
11007TIP3   OH254511   6.357   0.819   0.850
11007TIP3    H154512   6.441   0.782   0.875
11007TIP3    H254513   6.318   0.752   0.793
11008TIP3   OH254514   6.085   0.356   1.241
11008TIP3    H154515   6.053   0.412   1.170
11008TIP3    H254516   6.017   0.362   1.308
11009TIP3   OH254517   6.825   1.304   0.555
11009TIP3    H154518   6.796   1.297   0.464
11009TIP3    H254519   6.786   1.386   0.587
11010TIP3   OH254520   6.361   1.114   1.199
11010TIP3    H154521   6.304   1.182   1.233
11010TIP3    H254522   6.438   1.160   1.166
11011TIP3   OH254523   7.126   0.321   0.809
11011TIP3    H154524   7.135   0.247   0.869
11011TIP3    H254525   7.160   0.396   0.859
11012TIP3   OH254526   6.064   0.508   1.004
11012TIP3    H154527   6.120   0.564   1.057
11012TIP3    H254528   6.123   0.469   0.939
11013TIP3   OH254529   6.193   1.315   1.293
11013TIP3    H154530   6.208   1.410   1.294
11013TIP3    H254531   6.108   1.304   1.334
11014TIP3   OH254532   5.754   1.288   0.379
11014TIP3    H154533   5.753   1.328   0.293
11014TIP3    H254534   5.788   1.356   0.437
11015TIP3   OH254535   7.125   1.532   1.061
11015TIP3    H154536   7.068   1.526   0.984
11015TIP3    H254537   7.162   1.620   1.057
11016TIP3   OH254538   7.167   0.275   1.203
11016TIP3    H154539   7.076   0.305   1.198
11016TIP3    H254540   7.176   0.215   1.128
11017TIP3   OH254541   6.450   0.111   0.973
11017TIP3    H154542   6.428   0.018   0.979
11017TIP3    H254543   6.374   0.156   1.011
11018TIP3   OH254544   7.008   1.551   0.812
11018TIP3    H154545   7.024   1.472   0.762
11018TIP3    H254546   7.040   1.622   0.756
11019TIP3   OH254547   7.074   1.324   0.661
11019TIP3    H154548   6.987   1.313   0.623
11019TIP3    H254549   7.134   1.295   0.592
11020TIP3   OH254550   7.265   1.250   1.482
11020TIP3    H154551   7.338   1.200   1.446
11020TIP3    H254552   7.255   1.324   1.422
11021TIP3   OH254553   6.722   0.939   0.426
11021TIP3    H154554   6.651   0.999   0.406
11021TIP3    H254555   6.788   0.956   0.358
11022TIP3   OH254556   6.706   0.786   0.107
11022TIP3    H154557   6.755   0.804   0.188
11022TIP3    H254558   6.770   0.798   0.037
11023TIP3   OH254559   7.082   0.998   0.498
11023TIP3    H154560   7.010   1.017   0.558
11023TIP3    H254561   7.133   0.931   0.543
11024TIP3   OH254562   6.981   0.769   1.458
11024TIP3    H154563   6.984   0.839   1.523
11024TIP3    H254564   6.916   0.796   1.394
11025TIP3   OH254565   6.213   1.007   0.704
11025TIP3    H154566   6.192   0.971   0.617
11025TIP3    H254567   6.268   0.940   0.744
11026TIP3   OH254568   6.407   1.383   0.896
11026TIP3    H154569   6.370   1.417   0.815
11026TIP3    H254570   6.381   1.291   0.899
11027TIP3   OH254571   6.221   0.915   1.071
11027TIP3    H154572   6.273   0.887   0.996
11027TIP3    H254573   6.275   0.982   1.114
11028TIP3   OH254574   6.764   1.454   1.152
11028TIP3    H154575   6.816   1.529   1.181
11028TIP3    H254576   6.800   1.380   1.200
11029TIP3   OH254577   6.356   1.334   1.533
11029TIP3    H154578   6.292   1.391   1.576
11029TIP3    H254579   6.311   1.304   1.454
11030TIP3   OH254580   6.961   0.911   0.268
11030TIP3    H154581   7.006   0.945   0.345
11030TIP3    H254582   7.007   0.950   0.194
11031TIP3   OH254583   6.044   0.955   1.471
11031TIP3    H154584   6.046   1.031   1.529
11031TIP3    H254585   5.951   0.944   1.450
11032TIP3   OH254586   6.728   1.556   0.607
11032TIP3    H154587   6.706   1.644   0.639
11032TIP3    H254588   6.686   1.551   0.521
11033TIP3   OH254589   6.153   1.506   1.608
11033TIP3    H154590   6.149   1.548   1.522
11033TIP3    H254591   6.061   1.499   1.636
11034TIP3   OH254592   7.250   0.022   0.117
11034TIP3    H154593   7.251  -0.039   0.191
11034TIP3    H254594   7.330   0.073   0.127
11035TIP3   OH254595   6.141   0.915   0.441
11035TIP3    H154596   6.084   0.988   0.417
11035TIP3    H254597   6.085   0.838   0.432
11036TIP3   OH254598   5.732   1.165   1.366
11036TIP3    H154599   5.678   1.181   1.289
11036TIP3    H254600   5.738   1.069   1.372
11037TIP3   OH254601   5.695   1.480   1.072
11037TIP3    H154602   5.771   1.491   1.130
11037TIP3    H254603   5.644   1.560   1.083
11038TIP3   OH254604   6.600   1.462   1.501
11038TIP3    H154605   6.593   1.543   1.552
11038TIP3    H254606   6.516   1.418   1.515
11039TIP3   OH254607   6.698   1.837   0.500
11039TIP3    H154608   6.679   1.847   0.407
11039TIP3    H254609   6.656   1.913   0.541
11040TIP3   OH254610   6.011   1.703   0.662
11040TIP3    H154611   6.015   1.670   0.752
11040TIP3    H254612   5.960   1.638   0.614
11041TIP3   OH254613   6.987   1.744   0.128
11041TIP3    H154614   7.052   1.675   0.114
11041TIP3    H254615   6.975   1.747   0.222
11042TIP3   OH254616   6.934   1.724   0.411
11042TIP3    H154617   6.846   1.740   0.444
11042TIP3    H254618   6.978   1.678   0.483
11043TIP3   OH254619   7.184   0.685   1.702
11043TIP3    H154620   7.139   0.685   1.617
11043TIP3    H254621   7.269   0.645   1.684
11044TIP3   OH254622   5.951   1.323   1.420
11044TIP3    H154623   5.973   1.293   1.508
11044TIP3    H254624   5.873   1.272   1.397
11045TIP3   OH254625   6.200   0.172   1.077
11045TIP3    H154626   6.127   0.165   1.016
11045TIP3    H254627   6.170   0.233   1.144
11046TIP3   OH254628   6.652   0.099   1.396
11046TIP3    H154629   6.683   0.028   1.452
11046TIP3    H254630   6.561   0.113   1.421
11047TIP3   OH254631   7.031   0.503   1.503
11047TIP3    H154632   6.954   0.470   1.549
11047TIP3    H254633   7.007   0.592   1.478
11048TIP3   OH254634   7.082   1.029   0.050
11048TIP3    H154635   7.108   1.028  -0.042
11048TIP3    H254636   7.066   1.122   0.069
11049TIP3   OH254637   6.654   0.313   0.112
11049TIP3    H154638   6.565   0.319   0.145
11049TIP3    H254639   6.676   0.220   0.118
11050TIP3   OH254640   6.203   0.664   1.185
11050TIP3    H154641   6.137   0.664   1.254
11050TIP3    H254642   6.205   0.754   1.153
11051TIP3   OH254643   6.212   0.661   0.676
11051TIP3    H154644   6.117   0.650   0.673
11051TIP3    H254645   6.240   0.648   0.586
11052TIP3   OH254646   6.747   0.693   0.541
11052TIP3    H154647   6.727   0.782   0.510
11052TIP3    H254648   6.820   0.665   0.486
11053TIP3   OH254649   6.680   0.699   1.656
11053TIP3    H154650   6.630   0.629   1.698
11053TIP3    H254651   6.767   0.694   1.695
11054TIP3   OH254652   6.835   0.632   0.807
11054TIP3    H154653   6.794   0.689   0.742
11054TIP3    H254654   6.877   0.563   0.755
11055TIP3   OH254655   5.985   0.655   1.359
11055TIP3    H154656   5.963   0.708   1.436
11055TIP3    H254657   5.958   0.566   1.383
11056TIP3   OH254658   6.366   0.410   0.085
11056TIP3    H154659   6.311   0.401   0.163
11056TIP3    H254660   6.380   0.504   0.077
11057TIP3   OH254661   5.654   0.345   0.763
11057TIP3    H154662   5.702   0.360   0.844
11057TIP3    H254663   5.657   0.429   0.717
11058TIP3   OH254664   5.745   0.485   0.261
11058TIP3    H154665   5.815   0.524   0.209
11058TIP3    H254666   5.683   0.556   0.276
11059TIP3   OH254667   6.782   0.797   1.260
11059TIP3    H154668   6.827   0.742   1.196
11059TIP3    H254669   6.724   0.736   1.306
11060TIP3   OH254670   6.529   0.396   0.757
11060TIP3    H154671   6.438   0.392   0.786
11060TIP3    H254672   6.580   0.368   0.833
11061TIP3   OH254673   5.951   0.572   0.646
11061TIP3    H154674   5.873   0.598   0.597
11061TIP3    H254675   5.971   0.483   0.615
11062TIP3   OH254676   6.283   0.593   0.422
11062TIP3    H154677   6.378   0.587   0.431
11062TIP3    H254678   6.269   0.628   0.334
11063TIP3   OH254679   6.899   0.353   1.130
11063TIP3    H154680   6.852   0.354   1.213
11063TIP3    H254681   6.837   0.317   1.067
11064TIP3   OH254682   6.214   0.647   0.164
11064TIP3    H154683   6.122   0.650   0.138
11064TIP3    H254684   6.258   0.702   0.100
11065TIP3   OH254685   7.226   1.914   1.771
11065TIP3    H154686   7.280   1.968   1.714
11065TIP3    H254687   7.245   1.945   1.860
11066TIP3   OH254688   6.024   1.167   1.656
11066TIP3    H154689   6.089   1.160   1.726
11066TIP3    H254690   5.940   1.178   1.702
11067TIP3   OH254691   6.588   0.706   0.953
11067TIP3    H154692   6.656   0.652   0.914
11067TIP3    H254693   6.554   0.653   1.025
11068TIP3   OH254694   6.070   0.314   0.590
11068TIP3    H154695   6.034   0.228   0.613
11068TIP3    H254696   6.097   0.305   0.499
11069TIP3   OH254697   6.469   0.578   1.173
11069TIP3    H154698   6.384   0.620   1.184
11069TIP3    H254699   6.518   0.604   1.251
11070TIP3   OH254700   6.530   1.124   0.369
11070TIP3    H154701   6.458   1.093   0.314
11070TIP3    H254702   6.488   1.156   0.449
11071TIP3   OH254703   7.211   1.118   1.165
11071TIP3    H154704   7.286   1.064   1.139
11071TIP3    H254705   7.135   1.073   1.127
11072TIP3   OH254706   6.896   0.415   0.208
11072TIP3    H154707   6.810   0.402   0.170
11072TIP3    H254708   6.894   0.505   0.242
11073TIP3   OH254709   6.673   1.168   1.526
11073TIP3    H154710   6.696   1.121   1.606
11073TIP3    H254711   6.653   1.257   1.555
11074TIP3   OH254712   6.951   0.648   0.355
11074TIP3    H154713   7.039   0.620   0.382
11074TIP3    H254714   6.963   0.737   0.322
11075TIP3   OH254715   6.037   1.061   0.911
11075TIP3    H154716   6.093   1.059   0.833
11075TIP3    H254717   6.080   1.002   0.973
11076TIP3   OH254718   6.737   1.287   0.286
11076TIP3    H154719   6.698   1.373   0.298
11076TIP3    H254720   6.666   1.226   0.304
11077TIP3   OH254721   5.767   0.900   1.466
11077TIP3    H154722   5.780   0.904   1.561
11077TIP3    H254723   5.688   0.848   1.454
11078TIP3   OH254724   6.469   0.891   1.685
11078TIP3    H154725   6.400   0.859   1.627
11078TIP3    H254726   6.547   0.842   1.659
11079TIP3   OH254727   6.885   1.456   1.479
11079TIP3    H154728   6.790   1.452   1.464
11079TIP3    H254729   6.893   1.471   1.573
11080TIP3   OH254730   7.251   1.501   0.396
11080TIP3    H154731   7.196   1.424   0.383
11080TIP3    H254732   7.274   1.530   0.307
11081TIP3   OH254733   7.007   1.004   1.009
11081TIP3    H154734   6.911   0.995   1.009
11081TIP3    H254735   7.038   0.924   0.966
11082TIP3   OH254736   6.265   1.495   0.689
11082TIP3    H154737   6.283   1.575   0.640
11082TIP3    H254738   6.228   1.434   0.625
11083TIP3   OH254739   5.868   0.905   0.187
11083TIP3    H154740   5.904   0.975   0.242
11083TIP3    H254741   5.773   0.916   0.193
11084TIP3   OH254742   6.382   1.196   0.590
11084TIP3    H154743   6.322   1.250   0.539
11084TIP3    H254744   6.325   1.137   0.639
11085TIP3   OH254745   6.513   1.581   1.261
11085TIP3    H154746   6.548   1.670   1.247
11085TIP3    H254747   6.558   1.550   1.340
11086TIP3   OH254748   6.270   1.734   0.553
11086TIP3    H154749   6.178   1.739   0.578
11086TIP3    H254750   6.311   1.808   0.597
11087TIP3   OH254751   6.795   1.203   1.282
11087TIP3    H154752   6.747   1.187   1.364
11087TIP3    H254753   6.883   1.169   1.299
11088TIP3   OH254754   7.000   1.287   0.151
11088TIP3    H154755   7.055   1.272   0.228
11088TIP3    H254756   6.911   1.294   0.185
11089TIP3   OH254757   7.097   1.653   1.471
11089TIP3    H154758   7.022   1.596   1.454
11089TIP3    H254759   7.090   1.722   1.404
11090TIP3   OH254760   5.907   0.393   1.445
11090TIP3    H154761   5.827   0.427   1.485
11090TIP3    H254762   5.927   0.314   1.495
11091TIP3   OH254763   7.166   1.227   0.370
11091TIP3    H154764   7.139   1.145   0.410
11091TIP3    H254765   7.262   1.225   0.372
11092TIP3   OH254766   5.888   1.565   1.264
11092TIP3    H154767   5.912   1.489   1.317
11092TIP3    H254768   5.883   1.637   1.327
11093TIP3   OH254769   6.364   1.406   0.192
11093TIP3    H154770   6.309   1.365   0.258
11093TIP3    H254771   6.374   1.497   0.222
11094TIP3   OH254772   5.968   1.112   0.351
11094TIP3    H154773   5.887   1.159   0.369
11094TIP3    H254774   6.037   1.177   0.366
11095TIP3   OH254775   6.760   0.350   1.368
11095TIP3    H154776   6.785   0.362   1.459
11095TIP3    H254777   6.722   0.263   1.365
11096TIP3   OH254778   6.870   0.288   0.451
11096TIP3    H154779   6.881   0.326   0.364
11096TIP3    H254780   6.898   0.358   0.511
11097TIP3   OH254781   6.626   1.533   0.354
11097TIP3    H154782   6.535   1.562   0.350
11097TIP3    H254783   6.667   1.572   0.277
11098TIP3   OH254784   6.539   0.516   0.504
11098TIP3    H154785   6.610   0.580   0.511
11098TIP3    H254786   6.529   0.481   0.593
11099TIP3   OH254787   6.639   0.606   1.392
11099TIP3    H154788   6.650   0.632   1.484
11099TIP3    H254789   6.677   0.518   1.387
11100TIP3   OH254790   6.642   0.203   0.582
11100TIP3    H154791   6.626   0.277   0.641
11100TIP3    H254792   6.726   0.224   0.540
11101TIP3   OH254793   6.383   1.660   0.309
11101TIP3    H154794   6.384   1.747   0.268
11101TIP3    H254795   6.335   1.673   0.391
11102TIP3   OH254796   6.212   0.344   0.326
11102TIP3    H154797   6.214   0.432   0.363
11102TIP3    H254798   6.297   0.306   0.350
11103TIP3   OH254799   7.277   0.397   1.433
11103TIP3    H154800   7.197   0.436   1.470
11103TIP3    H254801   7.248   0.354   1.353
11104TIP3   OH254802   7.101   0.753   0.898
11104TIP3    H154803   7.015   0.711   0.900
11104TIP3    H254804   7.157   0.694   0.948
11105TIP3   OH254805   6.039   1.386   0.142
11105TIP3    H154806   6.072   1.396   0.232
11105TIP3    H254807   6.097   1.320   0.103
11106TIP3   OH254808   5.936   0.649   0.100
11106TIP3    H154809   5.910   0.739   0.124
11106TIP3    H254810   5.914   0.642   0.007
11107TIP3   OH254811   7.252   1.774   1.052
11107TIP3    H154812   7.221   1.836   0.985
11107TIP3    H254813   7.347   1.775   1.043
11108TIP3   OH254814   5.957   0.128   0.932
11108TIP3    H154815   5.968   0.131   0.837
11108TIP3    H254816   5.979   0.038   0.955
11109TIP3   OH254817   5.900   1.492   0.510
11109TIP3    H154818   5.882   1.558   0.443
11109TIP3    H254819   5.983   1.453   0.483
11110TIP3   OH254820   5.805   1.796   1.727
11110TIP3    H154821   5.871   1.774   1.793
11110TIP3    H254822   5.769   1.712   1.699
11111TIP3   OH254823   6.222   1.601   1.861
11111TIP3    H154824   6.303   1.557   1.883
11111TIP3    H254825   6.202   1.572   1.772
11112TIP3   OH254826   6.735   1.634   0.128
11112TIP3    H154827   6.697   1.594   0.049
11112TIP3    H254828   6.824   1.657   0.103
11113TIP3   OH254829   6.887   1.491   1.748
11113TIP3    H154830   6.857   1.409   1.789
11113TIP3    H254831   6.959   1.520   1.804
11114TIP3   OH254832   7.135   1.527   0.063
11114TIP3    H154833   7.092   1.443   0.080
11114TIP3    H254834   7.202   1.506  -0.002
11115TIP3   OH254835   5.778   1.170   1.789
11115TIP3    H154836   5.779   1.075   1.781
11115TIP3    H254837   5.704   1.197   1.735
11116TIP3   OH254838   6.200   1.171   0.058
11116TIP3    H154839   6.246   1.129   0.130
11116TIP3    H254840   6.223   1.119  -0.019
11117TIP3   OH254841   6.436   1.170   1.744
11117TIP3    H154842   6.419   1.213   1.660
11117TIP3    H254843   6.463   1.081   1.719
11118TIP3   OH254844   7.000   1.191   1.489
11118TIP3    H154845   7.094   1.209   1.489
11118TIP3    H254846   6.959   1.278   1.485
11119TIP3   OH254847   5.829   0.902   1.735
11119TIP3    H154848   5.920   0.879   1.755
11119TIP3    H254849   5.778   0.832   1.776
11120TIP3   OH254850   6.327   0.990   0.234
11120TIP3    H154851   6.270   0.955   0.303
11120TIP3    H254852   6.353   0.912   0.183
11121TIP3   OH254853   6.274   0.799   1.501
11121TIP3    H154854   6.195   0.852   1.489
11121TIP3    H254855   6.333   0.827   1.431
11122TIP3   OH254856   6.434   0.786   0.047
11122TIP3    H154857   6.441   0.796  -0.048
11122TIP3    H254858   6.524   0.783   0.078
11123TIP3   OH254859   6.765   1.026   1.763
11123TIP3    H154860   6.849   0.999   1.726
11123TIP3    H254861   6.743   0.956   1.825
11124TIP3   OH254862   6.317   0.541   1.581
11124TIP3    H154863   6.319   0.484   1.505
11124TIP3    H254864   6.302   0.628   1.546
11125TIP3   OH254865   6.337   0.385   1.346
11125TIP3    H154866   6.390   0.429   1.280
11125TIP3    H254867   6.250   0.381   1.308
11126TIP3   OH254868   6.461   0.889   1.325
11126TIP3    H154869   6.555   0.902   1.334
11126TIP3    H254870   6.430   0.969   1.283
11127TIP3   OH254871   6.922   0.644   1.808
11127TIP3    H154872   6.934   0.550   1.826
11127TIP3    H254873   7.009   0.674   1.782
11128TIP3   OH254874   7.019   0.973   1.652
11128TIP3    H154875   7.005   1.050   1.597
11128TIP3    H254876   7.114   0.962   1.656
11129TIP3   OH254877   6.165   0.609   1.813
11129TIP3    H154878   6.084   0.559   1.804
11129TIP3    H254879   6.208   0.600   1.728
11130TIP3   OH254880   6.385   0.134   1.452
11130TIP3    H154881   6.371   0.224   1.423
11130TIP3    H254882   6.310   0.086   1.418
11131TIP3   OH254883   6.538   0.477   1.736
11131TIP3    H154884   6.500   0.452   1.821
11131TIP3    H254885   6.462   0.492   1.680
11132TIP3   OH254886   6.793   0.407   1.633
11132TIP3    H154887   6.705   0.422   1.669
11132TIP3    H254888   6.846   0.384   1.709
11133TIP3   OH254889   6.957   0.360   1.852
11133TIP3    H154890   6.964   0.266   1.832
11133TIP3    H254891   6.939   0.363   1.946
11134TIP3   OH254892   5.966   0.427   1.795
11134TIP3    H154893   5.936   0.370   1.724
11134TIP3    H254894   5.965   0.371   1.873
11135TIP3   OH254895   6.407   0.050   1.714
11135TIP3    H154896   6.480  -0.012   1.722
11135TIP3    H254897   6.409   0.077   1.622
11136TIP3   OH254898   6.436   0.163   1.959
11136TIP3    H154899   6.430   0.115   1.876
11136TIP3    H254900   6.394   0.247   1.942
11137TIP3   OH254901   6.416   1.893   0.164
11137TIP3    H154902   6.506   1.904   0.194
11137TIP3    H254903   6.419   1.913   0.071
11138TIP3   OH254904   5.769   1.365   0.098
11138TIP3    H154905   5.862   1.381   0.116
11138TIP3    H254906   5.766   1.345   0.004
11139TIP3   OH254907   5.657   1.862   0.650
11139TIP3    H154908   5.602   1.827   0.580
11139TIP3    H254909   5.677   1.786   0.706
11140TIP3   OH254910   5.728   1.667   0.832
11140TIP3    H154911   5.701   1.578   0.856
11140TIP3    H254912   5.779   1.697   0.907
11141TIP3   OH254913   7.246   1.270   1.918
11141TIP3    H154914   7.167   1.289   1.968
11141TIP3    H254915   7.311   1.332   1.951
11142TIP3   OH254916   7.221   1.457   1.304
11142TIP3    H154917   7.224   1.520   1.376
11142TIP3    H254918   7.163   1.498   1.239
11143TIP3   OH254919   7.282   0.595  16.019
11143TIP3    H154920   7.286   0.629  15.930
11143TIP3    H254921   7.188   0.589  16.038
11144TIP3   OH254922   7.187   0.785   0.637
11144TIP3    H154923   7.169   0.695   0.611
11144TIP3    H254924   7.164   0.789   0.730
11145TIP3   OH254925   5.722   0.987   1.073
11145TIP3    H154926   5.734   0.978   0.978
11145TIP3    H254927   5.804   0.954   1.111
11146TIP3   OH254928   7.293   0.974   1.676
11146TIP3    H154929   7.344   0.910   1.726
11146TIP3    H254930   7.338   1.057   1.690
11147TIP3   OH254931   7.188   0.538   0.466
11147TIP3    H154932   7.204   0.445   0.486
11147TIP3    H254933   7.268   0.567   0.423
11148TIP3   OH254934   7.226   0.495   0.995
11148TIP3    H154935   7.320   0.478   0.989
11148TIP3    H254936   7.202   0.466   1.083
11149TIP3   OH254937   7.253   0.706   1.321
11149TIP3    H154938   7.157   0.708   1.312
11149TIP3    H254939   7.285   0.704   1.231
11150TIP3   OH254940   5.696   0.466   1.600
11150TIP3    H154941   5.706   0.525   1.675
11150TIP3    H254942   5.644   0.393   1.634
11151TIP3   OH254943   7.210   0.270   0.546
11151TIP3    H154944   7.196   0.278   0.641
11151TIP3    H254945   7.159   0.193   0.521
11152TIP3   OH254946   5.817   0.361   0.988
11152TIP3    H154947   5.861   0.277   0.981
11152TIP3    H254948   5.888   0.425   0.995
11153TIP3   OH254949   5.620   0.657   1.028
11153TIP3    H154950   5.701   0.663   0.977
11153TIP3    H254951   5.624   0.732   1.088
11154TIP3   OH254952   5.681   0.253   0.399
11154TIP3    H154953   5.591   0.265   0.428
11154TIP3    H254954   5.704   0.337   0.358
11155TIP3   OH254955   7.104   1.762   0.664
11155TIP3    H154956   7.166   1.782   0.594
11155TIP3    H254957   7.128   1.821   0.735
11156TIP3   OH254958   5.716   0.094   1.296
11156TIP3    H154959   5.643   0.087   1.357
11156TIP3    H254960   5.692   0.168   1.239
11157TIP3   OH254961   5.893   1.488   1.710
11157TIP3    H154962   5.804   1.496   1.677
11157TIP3    H254963   5.883   1.465   1.803
11158TIP3   OH254964   6.242   1.583   1.331
11158TIP3    H154965   6.211   1.672   1.313
11158TIP3    H254966   6.335   1.586   1.312
11159TIP3   OH254967   6.594   1.712   1.622
11159TIP3    H154968   6.604   1.680   1.712
11159TIP3    H254969   6.675   1.759   1.604
11160TIP3   OH254970   6.833   1.846   1.587
11160TIP3    H154971   6.909   1.797   1.556
11160TIP3    H254972   6.862   1.885   1.669
11161TIP3   OH254973   5.926   1.886   1.366
11161TIP3    H154974   5.845   1.917   1.325
11161TIP3    H254975   5.932   1.934   1.448
11162TIP3   OH254976   6.182   1.846   1.272
11162TIP3    H154977   6.092   1.858   1.304
11162TIP3    H254978   6.186   1.899   1.192
11163TIP3   OH254979   6.625   1.831   1.191
11163TIP3    H154980   6.576   1.872   1.119
11163TIP3    H254981   6.637   1.901   1.255
11164TIP3   OH254982   6.866   1.700   1.209
11164TIP3    H154983   6.788   1.755   1.215
11164TIP3    H254984   6.939   1.758   1.230
11165TIP3   OH254985   7.092   1.847   1.265
11165TIP3    H154986   7.100   1.942   1.263
11165TIP3    H254987   7.153   1.816   1.198
11166TIP3   OH254988   5.920   1.731   1.031
11166TIP3    H154989   5.901   1.686   1.113
11166TIP3    H254990   5.987   1.677   0.989
11167TIP3   OH254991   6.105   1.569   0.903
11167TIP3    H154992   6.089   1.486   0.948
11167TIP3    H254993   6.153   1.544   0.825
11168TIP3   OH254994   6.378   1.659   0.992
11168TIP3    H154995   6.362   1.603   0.915
11168TIP3    H254996   6.292   1.667   1.034
11169TIP3   OH254997   6.692   0.255   0.946
11169TIP3    H154998   6.617   0.200   0.966
11169TIP3    H254999   6.757   0.196   0.908
11170TIP3   OH255000   7.151   0.111   0.982
11170TIP3    H155001   7.217   0.053   0.942
11170TIP3    H255002   7.067   0.071   0.960
11171TIP3   OH255003   5.990   0.053   0.661
11171TIP3    H155004   5.923   0.029   0.598
11171TIP3    H255005   6.001  -0.025   0.715
11172TIP3   OH255006   5.800   0.123   0.167
11172TIP3    H155007   5.884   0.169   0.158
11172TIP3    H255008   5.750   0.176   0.229
11173TIP3   OH255009   6.418   0.093   0.698
11173TIP3    H155010   6.501   0.118   0.659
11173TIP3    H255011   6.430   0.106   0.792
11174TIP3   OH255012   6.901   0.115   0.833
11174TIP3    H155013   6.948   0.183   0.785
11174TIP3    H255014   6.915   0.035   0.782
11175TIP3   OH255015   7.040   0.072   0.453
11175TIP3    H155016   6.971   0.137   0.443
11175TIP3    H255017   7.046   0.030   0.367
11176TIP3   OH255018   5.821   1.683   0.334
11176TIP3    H155019   5.733   1.672   0.297
11176TIP3    H255020   5.836   1.778   0.332
11177TIP3   OH255021   6.041   0.244   0.130
11177TIP3    H155022   6.068   0.294   0.053
11177TIP3    H255023   6.097   0.277   0.201
11178TIP3   OH255024   6.475   0.276   0.375
11178TIP3    H155025   6.527   0.224   0.437
11178TIP3    H255026   6.497   0.367   0.396
11179TIP3   OH255027   6.685   1.884   0.227
11179TIP3    H155028   6.743   1.941   0.177
11179TIP3    H255029   6.698   1.797   0.190
11180TIP3   OH255030   5.932   0.192   1.641
11180TIP3    H155031   5.857   0.139   1.667
11180TIP3    H255032   6.006   0.156   1.690
11181TIP3   OH255033   6.143   0.096   1.804
11181TIP3    H155034   6.227   0.108   1.761
11181TIP3    H255035   6.148   0.010   1.845
11182TIP3   OH255036   6.005   1.726   0.004
11182TIP3    H155037   5.943   1.775   0.059
11182TIP3    H255038   6.015   1.642   0.049
11183TIP3   OH255039   6.985   0.091   1.808
11183TIP3    H155040   7.042   0.072   1.882
11183TIP3    H255041   6.954   0.006   1.777
11184TIP3   OH255042   7.286   1.657   1.684
11184TIP3    H155043   7.224   1.642   1.613
11184TIP3    H255044   7.259   1.740   1.723
11185TIP3   OH255045   1.197   2.891   0.656
11185TIP3    H155046   1.176   2.984   0.654
11185TIP3    H255047   1.132   2.851   0.598
11186TIP3   OH255048   1.075   2.830   1.053
11186TIP3    H155049   1.105   2.788   1.134
11186TIP3    H255050   1.028   2.761   1.006
11187TIP3   OH255051   0.300   2.742   1.168
11187TIP3    H155052   0.311   2.674   1.234
11187TIP3    H255053   0.389   2.764   1.141
11188TIP3   OH255054   1.459   3.139   0.872
11188TIP3    H155055   1.423   3.062   0.916
11188TIP3    H255056   1.477   3.201   0.943
11189TIP3   OH255057   0.425   3.245   0.993
11189TIP3    H155058   0.403   3.158   0.959
11189TIP3    H255059   0.503   3.231   1.047
11190TIP3   OH255060   0.101   2.575   0.570
11190TIP3    H155061   0.029   2.636   0.584
11190TIP3    H255062   0.070   2.493   0.609
11191TIP3   OH255063   0.136   2.815   0.827
11191TIP3    H155064   0.161   2.723   0.840
11191TIP3    H255065   0.205   2.850   0.771
11192TIP3   OH255066   1.100   3.586   0.852
11192TIP3    H155067   1.168   3.535   0.809
11192TIP3    H255068   1.104   3.560   0.944
11193TIP3   OH255069   0.923   3.076   1.059
11193TIP3    H155070   0.963   2.994   1.029
11193TIP3    H255071   0.988   3.114   1.119
11194TIP3   OH255072   1.812   2.215   1.160
11194TIP3    H155073   1.827   2.287   1.221
11194TIP3    H255074   1.862   2.239   1.082
11195TIP3   OH255075   1.227   2.501   1.067
11195TIP3    H155076   1.236   2.407   1.081
11195TIP3    H255077   1.215   2.510   0.972
11196TIP3   OH255078   0.590   2.303   0.798
11196TIP3    H155079   0.602   2.390   0.758
11196TIP3    H255080   0.537   2.255   0.734
11197TIP3   OH255081   1.358   2.339   0.648
11197TIP3    H155082   1.397   2.308   0.729
11197TIP3    H255083   1.430   2.377   0.598
11198TIP3   OH255084   0.211   2.555   0.895
11198TIP3    H155085   0.281   2.518   0.948
11198TIP3    H255086   0.227   2.521   0.807
11199TIP3   OH255087   0.706   2.715   0.860
11199TIP3    H155088   0.792   2.682   0.887
11199TIP3    H255089   0.673   2.648   0.799
11200TIP3   OH255090   1.847   2.390   1.375
11200TIP3    H155091   1.767   2.441   1.360
11200TIP3    H255092   1.865   2.402   1.469
11201TIP3   OH255093   0.430   2.227   1.231
11201TIP3    H155094   0.400   2.284   1.160
11201TIP3    H255095   0.366   2.241   1.301
11202TIP3   OH255096   1.113   3.137   0.570
11202TIP3    H155097   1.127   3.152   0.477
11202TIP3    H255098   1.064   3.213   0.600
11203TIP3   OH255099   0.696   3.000   1.199
11203TIP3    H155100   0.647   3.074   1.234
11203TIP3    H255101   0.769   3.040   1.151
11204TIP3   OH255102   1.443   2.287   0.902
11204TIP3    H155103   1.377   2.260   0.964
11204TIP3    H255104   1.501   2.345   0.952
11205TIP3   OH255105   0.416   2.387   1.000
11205TIP3    H155106   0.472   2.442   1.055
11205TIP3    H255107   0.474   2.352   0.933
11206TIP3   OH255108   0.551   3.213   1.303
11206TIP3    H155109   0.559   3.308   1.305
11206TIP3    H255110   0.462   3.196   1.334
11207TIP3   OH255111   0.092   3.159   0.374
11207TIP3    H155112   0.103   3.194   0.286
11207TIP3    H255113   0.130   3.225   0.432
11208TIP3   OH255114   1.484   3.345   1.074
11208TIP3    H155115   1.389   3.348   1.084
11208TIP3    H255116   1.508   3.434   1.046
11209TIP3   OH255117   1.565   2.112   1.249
11209TIP3    H155118   1.497   2.153   1.196
11209TIP3    H255119   1.647   2.138   1.208
11210TIP3   OH255120   0.787   1.914   0.981
11210TIP3    H155121   0.759   1.822   0.980
11210TIP3    H255122   0.709   1.963   1.009
11211TIP3   OH255123   1.290   3.477   0.683
11211TIP3    H155124   1.336   3.395   0.666
11211TIP3    H255125   1.359   3.543   0.686
11212TIP3   OH255126   1.428   3.253   0.622
11212TIP3    H155127   1.454   3.192   0.554
11212TIP3    H255128   1.442   3.206   0.704
11213TIP3   OH255129   1.600   3.125   1.424
11213TIP3    H155130   1.589   3.066   1.350
11213TIP3    H255131   1.614   3.211   1.385
11214TIP3   OH255132   1.054   2.821   0.423
11214TIP3    H155133   0.991   2.889   0.401
11214TIP3    H255134   1.125   2.832   0.360
11215TIP3   OH255135   1.054   2.685   0.107
11215TIP3    H155136   1.107   2.704   0.184
11215TIP3    H255137   1.117   2.682   0.035
11216TIP3   OH255138   1.762   2.787   1.271
11216TIP3    H155139   1.688   2.847   1.259
11216TIP3    H255140   1.821   2.808   1.199
11217TIP3   OH255141   1.420   2.863   0.500
11217TIP3    H155142   1.348   2.874   0.562
11217TIP3    H255143   1.485   2.811   0.546
11218TIP3   OH255144   1.373   2.646   1.460
11218TIP3    H155145   1.369   2.720   1.521
11218TIP3    H255146   1.310   2.668   1.391
11219TIP3   OH255147   0.573   2.897   0.689
11219TIP3    H155148   0.548   2.853   0.607
11219TIP3    H255149   0.625   2.833   0.736
11220TIP3   OH255150   0.734   3.265   0.960
11220TIP3    H155151   0.715   3.250   0.868
11220TIP3    H255152   0.800   3.199   0.982
11221TIP3   OH255153   0.557   2.798   1.076
11221TIP3    H155154   0.612   2.774   1.002
11221TIP3    H255155   0.605   2.866   1.122
11222TIP3   OH255156   1.217   3.359   1.129
11222TIP3    H155157   1.205   3.429   1.193
11222TIP3    H255158   1.180   3.282   1.171
11223TIP3   OH255159   0.702   3.221   1.541
11223TIP3    H155160   0.636   3.277   1.583
11223TIP3    H255161   0.662   3.195   1.458
11224TIP3   OH255162   1.288   2.800   0.265
11224TIP3    H155163   1.338   2.827   0.343
11224TIP3    H255164   1.336   2.839   0.192
11225TIP3   OH255165   0.410   2.844   1.473
11225TIP3    H155166   0.401   2.908   1.544
11225TIP3    H255167   0.345   2.872   1.408
11226TIP3   OH255168   1.033   3.413   0.606
11226TIP3    H155169   1.127   3.420   0.623
11226TIP3    H255170   1.025   3.407   0.511
11227TIP3   OH255171   0.494   3.390   1.613
11227TIP3    H155172   0.501   3.430   1.526
11227TIP3    H255173   0.400   3.383   1.628
11228TIP3   OH255174   1.654   1.944   0.231
11228TIP3    H155175   1.576   1.974   0.278
11228TIP3    H255176   1.702   2.024   0.210
11229TIP3   OH255177   0.485   2.801   0.435
11229TIP3    H155178   0.423   2.866   0.401
11229TIP3    H255179   0.439   2.717   0.424
11230TIP3   OH255180   1.766   3.388   0.125
11230TIP3    H155181   1.794   3.480   0.122
11230TIP3    H255182   1.847   3.338   0.115
11231TIP3   OH255183   0.177   2.976   1.340
11231TIP3    H155184   0.138   2.965   1.253
11231TIP3    H255185   0.141   2.903   1.391
11232TIP3   OH255186   0.062   3.377   0.978
11232TIP3    H155187   0.135   3.335   1.023
11232TIP3    H255188  -0.016   3.333   1.012
11233TIP3   OH255189   1.847   3.405   1.632
11233TIP3    H155190   1.833   3.311   1.626
11233TIP3    H255191   1.763   3.439   1.665
11234TIP3   OH255192   0.936   3.360   1.490
11234TIP3    H155193   0.932   3.442   1.540
11234TIP3    H255194   0.854   3.315   1.511
11235TIP3   OH255195   1.021   3.716   0.507
11235TIP3    H155196   1.014   3.719   0.411
11235TIP3    H255197   1.016   3.808   0.534
11236TIP3   OH255198   0.383   3.563   0.654
11236TIP3    H155199   0.393   3.541   0.746
11236TIP3    H255200   0.321   3.499   0.620
11237TIP3   OH255201   1.332   3.646   0.134
11237TIP3    H155202   1.399   3.580   0.116
11237TIP3    H255203   1.329   3.653   0.229
11238TIP3   OH255204   1.294   3.659   0.419
11238TIP3    H155205   1.205   3.666   0.454
11238TIP3    H255206   1.344   3.615   0.489
11239TIP3   OH255207   1.555   2.525   1.652
11239TIP3    H155208   1.490   2.561   1.591
11239TIP3    H255209   1.562   2.432   1.627
11240TIP3   OH255210   0.304   3.203   1.425
11240TIP3    H155211   0.322   3.174   1.515
11240TIP3    H255212   0.248   3.134   1.389
11241TIP3   OH255213   0.538   2.024   1.068
11241TIP3    H155214   0.462   2.014   1.010
11241TIP3    H255215   0.515   2.099   1.124
11242TIP3   OH255216   1.020   2.001   1.409
11242TIP3    H155217   1.067   1.951   1.476
11242TIP3    H255218   0.928   1.990   1.432
11243TIP3   OH255219   1.309   2.373   1.476
11243TIP3    H155220   1.251   2.360   1.551
11243TIP3    H255221   1.318   2.468   1.469
11244TIP3   OH255222   1.435   2.890   0.047
11244TIP3    H155223   1.406   2.913  -0.041
11244TIP3    H255224   1.526   2.919   0.051
11245TIP3   OH255225   1.028   2.238   0.121
11245TIP3    H155226   0.955   2.219   0.179
11245TIP3    H255227   0.991   2.230   0.033
11246TIP3   OH255228   0.561   2.540   1.180
11246TIP3    H155229   0.499   2.540   1.253
11246TIP3    H255230   0.566   2.632   1.153
11247TIP3   OH255231   0.591   2.552   0.675
11247TIP3    H155232   0.496   2.540   0.677
11247TIP3    H255233   0.616   2.531   0.585
11248TIP3   OH255234   1.102   2.577   0.538
11248TIP3    H155235   1.075   2.661   0.502
11248TIP3    H255236   1.176   2.551   0.484
11249TIP3   OH255237   1.018   2.589   1.658
11249TIP3    H155238   0.969   2.515   1.693
11249TIP3    H255239   1.103   2.584   1.701
11250TIP3   OH255240   1.198   2.516   0.794
11250TIP3    H155241   1.155   2.562   0.722
11250TIP3    H255242   1.244   2.444   0.753
11251TIP3   OH255243   0.355   2.546   1.363
11251TIP3    H155244   0.357   2.602   1.440
11251TIP3    H255245   0.320   2.462   1.395
11252TIP3   OH255246   0.725   2.323   0.033
11252TIP3    H155247   0.691   2.288   0.115
11252TIP3    H255248   0.732   2.417   0.048
11253TIP3   OH255249   0.068   2.331   0.696
11253TIP3    H155250   0.096   2.298   0.781
11253TIP3    H255251   0.100   2.267   0.633
11254TIP3   OH255252   0.078   2.398   0.257
11254TIP3    H155253   0.167   2.425   0.234
11254TIP3    H255254   0.028   2.410   0.177
11255TIP3   OH255255   1.164   2.669   1.269
11255TIP3    H155256   1.196   2.613   1.198
11255TIP3    H255257   1.095   2.618   1.311
11256TIP3   OH255258   0.870   2.261   0.752
11256TIP3    H155259   0.781   2.266   0.786
11256TIP3    H255260   0.922   2.225   0.824
11257TIP3   OH255261   0.336   2.468   0.655
11257TIP3    H155262   0.262   2.501   0.605
11257TIP3    H255263   0.347   2.377   0.626
11258TIP3   OH255264   0.633   2.467   0.418
11258TIP3    H155265   0.728   2.459   0.427
11258TIP3    H255266   0.619   2.507   0.333
11259TIP3   OH255267   1.232   2.224   1.076
11259TIP3    H155268   1.191   2.226   1.163
11259TIP3    H255269   1.168   2.182   1.020
11260TIP3   OH255270   0.562   2.553   0.170
11260TIP3    H155271   0.472   2.543   0.140
11260TIP3    H255272   0.607   2.598   0.099
11261TIP3   OH255273   1.605   3.782   1.733
11261TIP3    H155274   1.629   3.817   1.647
11261TIP3    H255275   1.680   3.802   1.789
11262TIP3   OH255276   0.363   3.050   1.666
11262TIP3    H155277   0.426   3.072   1.735
11262TIP3    H255278   0.278   3.048   1.710
11263TIP3   OH255279   0.940   2.596   0.954
11263TIP3    H155280   1.008   2.547   0.909
11263TIP3    H255281   0.908   2.537   1.022
11264TIP3   OH255282   0.417   2.201   0.602
11264TIP3    H155283   0.370   2.122   0.629
11264TIP3    H255284   0.434   2.187   0.508
11265TIP3   OH255285   0.823   2.450   1.166
11265TIP3    H155286   0.737   2.491   1.177
11265TIP3    H255287   0.873   2.477   1.243
11266TIP3   OH255288   0.874   3.023   0.349
11266TIP3    H155289   0.808   2.973   0.301
11266TIP3    H255290   0.831   3.049   0.430
11267TIP3   OH255291   1.569   2.972   1.197
11267TIP3    H155292   1.633   3.025   1.148
11267TIP3    H255293   1.501   2.953   1.133
11268TIP3   OH255294   1.265   2.286   0.245
11268TIP3    H155295   1.185   2.277   0.193
11268TIP3    H255296   1.268   2.380   0.267
11269TIP3   OH255297   1.015   3.067   1.496
11269TIP3    H155298   1.047   3.028   1.577
11269TIP3    H255299   0.985   3.154   1.521
11270TIP3   OH255300   1.316   2.534   0.365
11270TIP3    H155301   1.404   2.510   0.393
11270TIP3    H255302   1.326   2.618   0.321
11271TIP3   OH255303   0.419   2.985   0.904
11271TIP3    H155304   0.467   2.963   0.824
11271TIP3    H255305   0.443   2.917   0.966
11272TIP3   OH255306   1.098   3.167   0.276
11272TIP3    H155307   1.062   3.254   0.291
11272TIP3    H255308   1.025   3.107   0.292
11273TIP3   OH255309   0.106   2.753   1.487
11273TIP3    H155310   0.150   2.717   1.564
11273TIP3    H255311   0.060   2.679   1.449
11274TIP3   OH255312   0.802   2.767   1.697
11274TIP3    H155313   0.737   2.733   1.636
11274TIP3    H255314   0.883   2.723   1.673
11275TIP3   OH255315   1.218   3.342   1.488
11275TIP3    H155316   1.125   3.346   1.466
11275TIP3    H255317   1.221   3.357   1.582
11276TIP3   OH255318   1.774   2.571   0.317
11276TIP3    H155319   1.709   2.536   0.256
11276TIP3    H255320   1.788   2.661   0.288
11277TIP3   OH255321   1.816   3.126   1.591
11277TIP3    H155322   1.728   3.135   1.554
11277TIP3    H255323   1.873   3.113   1.516
11278TIP3   OH255324   1.638   3.408   0.373
11278TIP3    H155325   1.588   3.329   0.393
11278TIP3    H255326   1.677   3.392   0.287
11279TIP3   OH255327   1.366   2.906   1.008
11279TIP3    H155328   1.271   2.897   1.008
11279TIP3    H255329   1.397   2.828   0.962
11280TIP3   OH255330   0.633   3.323   0.695
11280TIP3    H155331   0.643   3.411   0.659
11280TIP3    H255332   0.539   3.314   0.711
11281TIP3   OH255333   0.189   2.781   0.167
11281TIP3    H155334   0.236   2.847   0.218
11281TIP3    H255335   0.097   2.799   0.183
11282TIP3   OH255336   0.726   3.097   0.565
11282TIP3    H155337   0.702   3.179   0.609
11282TIP3    H255338   0.676   3.029   0.610
11283TIP3   OH255339   0.839   3.509   1.268
11283TIP3    H155340   0.899   3.581   1.250
11283TIP3    H255341   0.888   3.451   1.327
11284TIP3   OH255342   0.653   3.597   0.608
11284TIP3    H155343   0.558   3.595   0.614
11284TIP3    H255344   0.678   3.684   0.640
11285TIP3   OH255345   1.125   3.121   1.248
11285TIP3    H155346   1.085   3.102   1.333
11285TIP3    H255347   1.198   3.060   1.241
11286TIP3   OH255348   1.363   3.203   0.160
11286TIP3    H155349   1.417   3.165   0.229
11286TIP3    H255350   1.273   3.191   0.190
11287TIP3   OH255351   1.425   3.530   1.463
11287TIP3    H155352   1.346   3.478   1.452
11287TIP3    H255353   1.417   3.600   1.398
11288TIP3   OH255354   1.845   3.652   0.164
11288TIP3    H155355   1.914   3.718   0.168
11288TIP3    H255356   1.764   3.702   0.174
11289TIP3   OH255357   0.260   2.287   1.453
11289TIP3    H155358   0.178   2.316   1.492
11289TIP3    H255359   0.279   2.203   1.495
11290TIP3   OH255360   1.515   3.099   0.386
11290TIP3    H155361   1.471   3.020   0.420
11290TIP3    H255362   1.608   3.077   0.390
11291TIP3   OH255363   0.227   3.496   1.253
11291TIP3    H155364   0.231   3.408   1.292
11291TIP3    H255365   0.231   3.555   1.327
11292TIP3   OH255366   0.638   3.290   0.282
11292TIP3    H155367   0.701   3.231   0.324
11292TIP3    H255368   0.672   3.378   0.300
11293TIP3   OH255369   0.305   2.983   0.319
11293TIP3    H155370   0.229   3.026   0.358
11293TIP3    H255371   0.350   3.054   0.272
11294TIP3   OH255372   1.117   2.245   1.325
11294TIP3    H155373   1.190   2.267   1.382
11294TIP3    H255374   1.084   2.161   1.359
11295TIP3   OH255375   1.215   2.166   0.484
11295TIP3    H155376   1.227   2.207   0.398
11295TIP3    H255377   1.258   2.226   0.545
11296TIP3   OH255378   0.982   3.409   0.341
11296TIP3    H155379   0.894   3.448   0.342
11296TIP3    H255380   1.024   3.449   0.265
11297TIP3   OH255381   0.889   2.406   0.513
11297TIP3    H155382   0.963   2.466   0.521
11297TIP3    H255383   0.881   2.366   0.600
11298TIP3   OH255384   0.988   2.492   1.387
11298TIP3    H155385   0.995   2.512   1.480
11298TIP3    H255386   1.025   2.404   1.378
11299TIP3   OH255387   0.972   2.070   0.574
11299TIP3    H155388   0.945   2.141   0.631
11299TIP3    H255389   1.059   2.095   0.544
11300TIP3   OH255390   0.740   3.538   0.349
11300TIP3    H155391   0.733   3.614   0.290
11300TIP3    H255392   0.700   3.568   0.430
11301TIP3   OH255393   0.590   2.233   0.263
11301TIP3    H155394   0.579   2.309   0.320
11301TIP3    H255395   0.672   2.193   0.293
11302TIP3   OH255396   1.562   2.278   1.501
11302TIP3    H155397   1.470   2.300   1.491
11302TIP3    H255398   1.584   2.231   1.420
11303TIP3   OH255399   1.440   2.656   0.888
11303TIP3    H155400   1.357   2.614   0.867
11303TIP3    H255401   1.483   2.595   0.948
11304TIP3   OH255402   0.407   3.196   0.169
11304TIP3    H155403   0.470   3.249   0.220
11304TIP3    H255404   0.462   3.146   0.109
11305TIP3   OH255405   0.293   2.536   0.096
11305TIP3    H155406   0.255   2.621   0.117
11305TIP3    H255407   0.263   2.517   0.007
11306TIP3   OH255408   1.567   3.615   1.047
11306TIP3    H155409   1.559   3.688   0.985
11306TIP3    H255410   1.661   3.608   1.065
11307TIP3   OH255411   0.290   1.995   0.943
11307TIP3    H155412   0.290   1.985   0.848
11307TIP3    H255413   0.249   1.915   0.975
11308TIP3   OH255414   0.186   3.377   0.554
11308TIP3    H155415   0.108   3.357   0.606
11308TIP3    H255416   0.161   3.454   0.503
11309TIP3   OH255417   0.168   3.713   1.702
11309TIP3    H155418   0.225   3.682   1.772
11309TIP3    H255419   0.104   3.643   1.690
11310TIP3   OH255420   0.542   3.441   1.879
11310TIP3    H155421   0.636   3.430   1.891
11310TIP3    H255422   0.528   3.427   1.785
11311TIP3   OH255423   1.089   3.519   0.120
11311TIP3    H155424   1.056   3.479   0.039
11311TIP3    H255425   1.177   3.548   0.098
11312TIP3   OH255426   1.220   3.381   1.758
11312TIP3    H155427   1.201   3.296   1.799
11312TIP3    H255428   1.295   3.414   1.806
11313TIP3   OH255429   1.492   3.437   0.074
11313TIP3    H155430   1.451   3.354   0.098
11313TIP3    H255431   1.586   3.418   0.074
11314TIP3   OH255432   0.118   3.035   1.796
11314TIP3    H155433   0.069   2.968   1.749
11314TIP3    H255434   0.057   3.109   1.801
11315TIP3   OH255435   0.584   3.038   0.038
11315TIP3    H155436   0.623   2.988   0.110
11315TIP3    H255437   0.591   2.980  -0.038
11316TIP3   OH255438   0.753   3.043   1.752
11316TIP3    H155439   0.743   3.087   1.667
11316TIP3    H255440   0.783   2.955   1.730
11317TIP3   OH255441   1.340   3.088   1.510
11317TIP3    H155442   1.431   3.107   1.487
11317TIP3    H255443   1.294   3.170   1.496
11318TIP3   OH255444   0.214   2.686   1.731
11318TIP3    H155445   0.248   2.610   1.779
11318TIP3    H255446   0.224   2.759   1.792
11319TIP3   OH255447   0.679   2.865   0.233
11319TIP3    H155448   0.622   2.829   0.301
11319TIP3    H255449   0.708   2.789   0.183
11320TIP3   OH255450   0.624   2.670   1.498
11320TIP3    H155451   0.549   2.729   1.492
11320TIP3    H255452   0.687   2.703   1.433
11321TIP3   OH255453   0.785   2.674   0.045
11321TIP3    H155454   0.792   2.686  -0.050
11321TIP3    H255455   0.876   2.674   0.075
11322TIP3   OH255456   1.117   2.908   1.774
11322TIP3    H155457   1.195   2.871   1.731
11322TIP3    H255458   1.089   2.840   1.834
11323TIP3   OH255459   1.698   2.988  15.996
11323TIP3    H155460   1.682   2.986  15.902
11323TIP3    H255461   1.715   3.080  16.016
11324TIP3   OH255462   0.652   2.403   1.565
11324TIP3    H155463   0.664   2.348   1.487
11324TIP3    H255464   0.645   2.492   1.531
11325TIP3   OH255465   0.687   2.249   1.329
11325TIP3    H155466   0.740   2.294   1.263
11325TIP3    H255467   0.599   2.247   1.291
11326TIP3   OH255468   0.806   2.784   1.333
11326TIP3    H155469   0.897   2.806   1.349
11326TIP3    H255470   0.770   2.861   1.289
11327TIP3   OH255471   1.254   2.559   1.819
11327TIP3    H155472   1.277   2.467   1.810
11327TIP3    H255473   1.336   2.602   1.844
11328TIP3   OH255474   1.387   2.858   1.648
11328TIP3    H155475   1.360   2.938   1.604
11328TIP3    H255476   1.483   2.860   1.643
11329TIP3   OH255477   0.483   2.459   1.781
11329TIP3    H155478   0.406   2.402   1.777
11329TIP3    H255479   0.530   2.442   1.700
11330TIP3   OH255480   0.737   1.985   1.407
11330TIP3    H155481   0.721   2.076   1.382
11330TIP3    H255482   0.666   1.937   1.365
11331TIP3   OH255483   0.871   2.370   1.735
11331TIP3    H155484   0.830   2.345   1.818
11331TIP3    H255485   0.798   2.374   1.673
11332TIP3   OH255486   1.141   2.312   1.677
11332TIP3    H155487   1.049   2.311   1.706
11332TIP3    H255488   1.187   2.259   1.743
11333TIP3   OH255489   1.315   2.196   1.861
11333TIP3    H155490   1.313   2.102   1.848
11333TIP3    H255491   1.291   2.209   1.952
11334TIP3   OH255492   0.284   2.267   1.779
11334TIP3    H155493   0.291   2.191   1.721
11334TIP3    H255494   0.298   2.231   1.867
11335TIP3   OH255495   0.734   1.899   1.667
11335TIP3    H155496   0.792   1.823   1.661
11335TIP3    H255497   0.729   1.933   1.578
11336TIP3   OH255498   0.809   2.063   1.877
11336TIP3    H155499   0.787   2.008   1.802
11336TIP3    H255500   0.748   2.136   1.872
11337TIP3   OH255501   0.763   3.741   0.163
11337TIP3    H155502   0.852   3.763   0.192
11337TIP3    H255503   0.757   3.776   0.074
11338TIP3   OH255504   0.138   3.242   0.119
11338TIP3    H155505   0.234   3.239   0.127
11338TIP3    H255506   0.121   3.235   0.026
11339TIP3   OH255507   0.032   3.796   0.627
11339TIP3    H155508   0.034   3.760   0.538
11339TIP3    H255509   0.049   3.721   0.683
11340TIP3   OH255510   0.067   3.588   0.804
11340TIP3    H155511   0.055   3.500   0.840
11340TIP3    H255512   0.129   3.630   0.864
11341TIP3   OH255513   1.832   3.604   1.132
11341TIP3    H155514   1.828   3.610   1.227
11341TIP3    H255515   1.909   3.655   1.107
11342TIP3   OH255516   1.775   3.584   1.410
11342TIP3    H155517   1.722   3.512   1.375
11342TIP3    H255518   1.823   3.544   1.482
11343TIP3   OH255519   1.630   3.168   1.900
11343TIP3    H155520   1.548   3.180   1.947
11343TIP3    H255521   1.687   3.238   1.933
11344TIP3   OH255522   1.776   3.007   0.419
11344TIP3    H155523   1.848   3.071   0.421
11344TIP3    H255524   1.796   2.947   0.491
11345TIP3   OH255525   1.833   2.814   0.611
11345TIP3    H155526   1.750   2.777   0.639
11345TIP3    H255527   1.884   2.824   0.691
11346TIP3   OH255528   1.807   3.100   1.125
11346TIP3    H155529   1.860   3.031   1.084
11346TIP3    H255530   1.839   3.181   1.085
11347TIP3   OH255531   1.611   3.379   1.320
11347TIP3    H155532   1.539   3.422   1.366
11347TIP3    H255533   1.576   3.362   1.232
11348TIP3   OH255534   1.807   2.831   0.211
11348TIP3    H155535   1.759   2.872   0.139
11348TIP3    H255536   1.794   2.889   0.285
11349TIP3   OH255537   1.600   2.478   0.134
11349TIP3    H155538   1.662   2.492   0.063
11349TIP3    H255539   1.550   2.400   0.107
11350TIP3   OH255540   1.582   2.692   0.651
11350TIP3    H155541   1.577   2.603   0.616
11350TIP3    H255542   1.538   2.686   0.736
11351TIP3   OH255543   0.081   2.878   1.086
11351TIP3    H155544   0.088   2.880   0.991
11351TIP3    H255545   0.162   2.835   1.114
11352TIP3   OH255546   1.666   2.865   1.633
11352TIP3    H155547   1.723   2.790   1.617
11352TIP3    H255548   1.715   2.940   1.598
11353TIP3   OH255549   1.806   2.628   1.615
11353TIP3    H155550   1.719   2.592   1.629
11353TIP3    H255551   1.865   2.556   1.637
11354TIP3   OH255552   1.574   2.448   0.491
11354TIP3    H155553   1.598   2.355   0.491
11354TIP3    H255554   1.643   2.491   0.441
11355TIP3   OH255555   1.589   2.474   1.050
11355TIP3    H155556   1.681   2.484   1.027
11355TIP3    H255557   1.586   2.492   1.144
11356TIP3   OH255558   1.619   2.555   1.318
11356TIP3    H155559   1.539   2.584   1.362
11356TIP3    H255560   1.670   2.635   1.306
11357TIP3   OH255561   0.052   2.361   1.661
11357TIP3    H155562   0.138   2.352   1.703
11357TIP3    H255563  -0.008   2.314   1.719
11358TIP3   OH255564   1.858   1.967   1.838
11358TIP3    H155565   1.927   1.912   1.802
11358TIP3    H255566   1.849   2.039   1.775
11359TIP3   OH255567   1.635   2.176   0.498
11359TIP3    H155568   1.652   2.134   0.582
11359TIP3    H255569   1.569   2.119   0.456
11360TIP3   OH255570   0.174   2.246   0.946
11360TIP3    H155571   0.206   2.157   0.953
11360TIP3    H255572   0.250   2.301   0.963
11361TIP3   OH255573   0.003   2.601   1.085
11361TIP3    H155574   0.072   2.583   1.020
11361TIP3    H255575   0.006   2.697   1.095
11362TIP3   OH255576   1.782   2.156   1.655
11362TIP3    H155577   1.704   2.200   1.688
11362TIP3    H255578   1.752   2.109   1.577
11363TIP3   OH255579   1.792   2.164   0.136
11363TIP3    H155580   1.809   2.174   0.042
11363TIP3    H255581   1.851   2.227   0.178
11364TIP3   OH255582   0.130   2.197   0.448
11364TIP3    H155583   0.040   2.169   0.460
11364TIP3    H255584   0.126   2.261   0.377
11365TIP3   OH255585   1.470   3.681   0.663
11365TIP3    H155586   1.545   3.679   0.604
11365TIP3    H255587   1.500   3.731   0.739
11366TIP3   OH255588   7.367   2.029   1.318
11366TIP3    H155589   7.337   2.092   1.383
11366TIP3    H255590   7.305   2.037   1.245
11367TIP3   OH255591   0.228   3.373   1.702
11367TIP3    H155592   0.146   3.365   1.654
11367TIP3    H255593   0.202   3.380   1.794
11368TIP3   OH255594   0.577   3.484   1.354
11368TIP3    H155595   0.542   3.569   1.328
11368TIP3    H255596   0.670   3.489   1.334
11369TIP3   OH255597   0.941   3.604   1.624
11369TIP3    H155598   0.951   3.572   1.714
11369TIP3    H255599   1.023   3.650   1.606
11370TIP3   OH255600   1.183   3.734   1.593
11370TIP3    H155601   1.250   3.677   1.556
11370TIP3    H255602   1.224   3.773   1.670
11371TIP3   OH255603   1.694   1.959   1.466
11371TIP3    H155604   1.631   1.985   1.400
11371TIP3    H255605   1.713   1.867   1.446
11372TIP3   OH255606   0.267   3.801   1.361
11372TIP3    H155607   0.188   3.842   1.326
11372TIP3    H255608   0.281   3.845   1.446
11373TIP3   OH255609   0.523   3.744   1.279
11373TIP3    H155610   0.432   3.759   1.307
11373TIP3    H255611   0.531   3.795   1.198
11374TIP3   OH255612   0.982   3.733   1.179
11374TIP3    H155613   0.917   3.770   1.120
11374TIP3    H255614   0.993   3.798   1.248
11375TIP3   OH255615   1.200   3.594   1.271
11375TIP3    H155616   1.125   3.644   1.239
11375TIP3    H255617   1.274   3.654   1.263
11376TIP3   OH255618   1.440   3.729   1.263
11376TIP3    H155619   1.472   3.819   1.258
11376TIP3    H255620   1.482   3.684   1.190
11377TIP3   OH255621   0.241   3.643   1.016
11377TIP3    H155622   0.225   3.604   1.102
11377TIP3    H255623   0.316   3.595   0.981
11378TIP3   OH255624   0.452   3.503   0.914
11378TIP3    H155625   0.435   3.413   0.942
11378TIP3    H255626   0.538   3.523   0.951
11379TIP3   OH255627   0.715   3.531   1.020
11379TIP3    H155628   0.722   3.441   0.991
11379TIP3    H255629   0.747   3.530   1.110
11380TIP3   OH255630   1.029   2.098   0.919
11380TIP3    H155631   0.967   2.028   0.941
11380TIP3    H255632   1.102   2.053   0.876
11381TIP3   OH255633   1.524   1.950   0.916
11381TIP3    H155634   1.585   2.004   0.865
11381TIP3    H255635   1.438   1.987   0.897
11382TIP3   OH255636   1.707   2.045   0.734
11382TIP3    H155637   1.769   1.977   0.709
11382TIP3    H255638   1.761   2.122   0.751
11383TIP3   OH255639   0.282   1.967   0.670
11383TIP3    H155640   0.194   1.962   0.632
11383TIP3    H255641   0.319   1.880   0.654
11384TIP3   OH255642   0.251   1.983   0.323
11384TIP3    H155643   0.281   2.033   0.247
11384TIP3    H255644   0.210   2.048   0.380
11385TIP3   OH255645   0.758   1.923   0.694
11385TIP3    H155646   0.827   1.974   0.651
11385TIP3    H255647   0.778   1.931   0.787
11386TIP3   OH255648   1.248   1.961   0.819
11386TIP3    H155649   1.285   1.941   0.733
11386TIP3    H255650   1.232   1.876   0.859
11387TIP3   OH255651   1.436   2.005   0.400
11387TIP3    H155652   1.360   2.061   0.418
11387TIP3    H255653   1.403   1.916   0.409
11388TIP3   OH255654   0.113   3.606   0.428
11388TIP3    H155655   0.040   3.582   0.372
11388TIP3    H255656   0.161   3.673   0.379
11389TIP3   OH255657   0.342   2.176   0.149
11389TIP3    H155658   0.348   2.117   0.074
11389TIP3    H255659   0.433   2.188   0.177
11390TIP3   OH255660   0.852   2.194   0.341
11390TIP3    H155661   0.885   2.122   0.394
11390TIP3    H255662   0.869   2.272   0.393
11391TIP3   OH255663   1.030   3.760   0.235
11391TIP3    H155664   1.089   3.824   0.196
11391TIP3    H255665   1.051   3.678   0.191
11392TIP3   OH255666   1.677   3.660   0.473
11392TIP3    H155667   1.666   3.570   0.443
11392TIP3    H255668   1.673   3.713   0.393
11393TIP3   OH255669   0.303   2.046   1.612
11393TIP3    H155670   0.243   1.978   1.641
11393TIP3    H255671   0.386   2.025   1.654
11394TIP3   OH255672   0.492   1.954   1.795
11394TIP3    H155673   0.575   1.924   1.760
11394TIP3    H255674   0.454   1.875   1.835
11395TIP3   OH255675   0.343   3.645  -0.012
11395TIP3    H155676   0.306   3.733  -0.009
11395TIP3    H255677   0.346   3.618   0.080
11396TIP3   OH255678   1.337   1.924   1.809
11396TIP3    H155679   1.325   1.875   1.890
11396TIP3    H255680   1.429   1.911   1.786
11397TIP3   OH255681   1.595   3.509   1.686
11397TIP3    H155682   1.536   3.506   1.611
11397TIP3    H255683   1.597   3.601   1.712
11398TIP3   OH255684   3.077   2.927   0.655
11398TIP3    H155685   3.061   3.022   0.646
11398TIP3    H255686   3.009   2.887   0.600
11399TIP3   OH255687   2.955   2.827   1.052
11399TIP3    H155688   2.985   2.787   1.133
11399TIP3    H255689   2.907   2.758   1.007
11400TIP3   OH255690   2.172   2.755   1.175
11400TIP3    H155691   2.186   2.686   1.239
11400TIP3    H255692   2.260   2.778   1.145
11401TIP3   OH255693   3.353   3.133   0.900
11401TIP3    H155694   3.310   3.056   0.938
11401TIP3    H255695   3.360   3.195   0.973
11402TIP3   OH255696   2.320   3.231   0.959
11402TIP3    H155697   2.286   3.144   0.943
11402TIP3    H255698   2.412   3.217   0.983
11403TIP3   OH255699   1.971   2.585   0.515
11403TIP3    H155700   1.940   2.667   0.553
11403TIP3    H255701   1.905   2.562   0.450
11404TIP3   OH255702   2.022   2.818   0.820
11404TIP3    H155703   2.052   2.729   0.837
11404TIP3    H255704   2.101   2.872   0.829
11405TIP3   OH255705   3.076   3.603   0.908
11405TIP3    H155706   3.112   3.546   0.840
11405TIP3    H255707   3.059   3.545   0.982
11406TIP3   OH255708   2.809   3.075   1.063
11406TIP3    H155709   2.849   2.994   1.033
11406TIP3    H255710   2.873   3.112   1.125
11407TIP3   OH255711   3.698   2.215   1.161
11407TIP3    H155712   3.711   2.286   1.223
11407TIP3    H255713   3.753   2.238   1.086
11408TIP3   OH255714   3.105   2.499   1.064
11408TIP3    H155715   3.115   2.405   1.080
11408TIP3    H255716   3.093   2.506   0.969
11409TIP3   OH255717   2.463   2.299   0.794
11409TIP3    H155718   2.467   2.384   0.752
11409TIP3    H255719   2.408   2.246   0.736
11410TIP3   OH255720   3.244   2.336   0.648
11410TIP3    H155721   3.282   2.305   0.730
11410TIP3    H255722   3.319   2.373   0.600
11411TIP3   OH255723   2.099   2.559   0.882
11411TIP3    H155724   2.164   2.517   0.938
11411TIP3    H255725   2.116   2.523   0.794
11412TIP3   OH255726   2.572   2.707   0.856
11412TIP3    H155727   2.658   2.673   0.881
11412TIP3    H255728   2.536   2.639   0.798
11413TIP3   OH255729   3.731   2.390   1.376
11413TIP3    H155730   3.652   2.442   1.361
11413TIP3    H255731   3.750   2.402   1.469
11414TIP3   OH255732   2.324   2.224   1.217
11414TIP3    H155733   2.301   2.283   1.144
11414TIP3    H255734   2.253   2.236   1.280
11415TIP3   OH255735   3.019   3.181   0.558
11415TIP3    H155736   3.011   3.173   0.463
11415TIP3    H255737   2.984   3.268   0.578
11416TIP3   OH255738   2.577   3.000   1.195
11416TIP3    H155739   2.529   3.074   1.233
11416TIP3    H255740   2.652   3.039   1.151
11417TIP3   OH255741   3.328   2.286   0.903
11417TIP3    H155742   3.260   2.259   0.965
11417TIP3    H255743   3.386   2.343   0.953
11418TIP3   OH255744   2.297   2.392   0.998
11418TIP3    H155745   2.354   2.450   1.050
11418TIP3    H255746   2.355   2.355   0.932
11419TIP3   OH255747   2.433   3.207   1.310
11419TIP3    H155748   2.443   3.302   1.303
11419TIP3    H255749   2.342   3.194   1.338
11420TIP3   OH255750   1.989   3.184   0.396
11420TIP3    H155751   1.986   3.226   0.310
11420TIP3    H255752   2.016   3.253   0.456
11421TIP3   OH255753   3.369   3.355   1.075
11421TIP3    H155754   3.274   3.355   1.089
11421TIP3    H255755   3.390   3.445   1.051
11422TIP3   OH255756   3.452   2.107   1.248
11422TIP3    H155757   3.383   2.150   1.197
11422TIP3    H255758   3.534   2.135   1.207
11423TIP3   OH255759   2.677   1.909   0.976
11423TIP3    H155760   2.652   1.817   0.977
11423TIP3    H255761   2.598   1.956   1.003
11424TIP3   OH255762   3.204   3.489   0.682
11424TIP3    H155763   3.242   3.401   0.677
11424TIP3    H255764   3.279   3.546   0.697
11425TIP3   OH255765   3.382   3.280   0.678
11425TIP3    H155766   3.418   3.226   0.607
11425TIP3    H255767   3.363   3.218   0.748
11426TIP3   OH255768   3.487   3.124   1.428
11426TIP3    H155769   3.479   3.065   1.352
11426TIP3    H255770   3.501   3.210   1.390
11427TIP3   OH255771   2.935   2.824   0.435
11427TIP3    H155772   2.866   2.884   0.408
11427TIP3    H255773   2.998   2.825   0.363
11428TIP3   OH255774   2.939   2.689   0.108
11428TIP3    H155775   2.996   2.686   0.184
11428TIP3    H255776   2.997   2.707   0.034
11429TIP3   OH255777   3.648   2.785   1.274
11429TIP3    H155778   3.575   2.846   1.262
11429TIP3    H255779   3.708   2.806   1.203
11430TIP3   OH255780   3.290   2.842   0.509
11430TIP3    H155781   3.225   2.871   0.574
11430TIP3    H255782   3.357   2.798   0.561
11431TIP3   OH255783   3.258   2.646   1.460
11431TIP3    H155784   3.256   2.720   1.520
11431TIP3    H255785   3.196   2.668   1.392
11432TIP3   OH255786   2.454   2.901   0.690
11432TIP3    H155787   2.430   2.858   0.607
11432TIP3    H255788   2.504   2.835   0.737
11433TIP3   OH255789   2.605   3.248   0.960
11433TIP3    H155790   2.610   3.256   0.865
11433TIP3    H255791   2.680   3.193   0.984
11434TIP3   OH255792   2.428   2.807   1.070
11434TIP3    H155793   2.484   2.779   0.997
11434TIP3    H255794   2.481   2.873   1.115
11435TIP3   OH255795   3.103   3.354   1.132
11435TIP3    H155796   3.087   3.426   1.193
11435TIP3    H255797   3.064   3.277   1.174
11436TIP3   OH255798   2.588   3.225   1.542
11436TIP3    H155799   2.524   3.281   1.585
11436TIP3    H255800   2.547   3.198   1.461
11437TIP3   OH255801   3.165   2.761   0.280
11437TIP3    H155802   3.208   2.790   0.361
11437TIP3    H255803   3.220   2.796   0.210
11438TIP3   OH255804   2.250   2.809   1.519
11438TIP3    H155805   2.261   2.897   1.556
11438TIP3    H255806   2.161   2.809   1.484
11439TIP3   OH255807   2.950   3.456   0.575
11439TIP3    H155808   3.031   3.466   0.626
11439TIP3    H255809   2.918   3.546   0.564
11440TIP3   OH255810   2.382   3.398   1.608
11440TIP3    H155811   2.390   3.434   1.520
11440TIP3    H255812   2.288   3.398   1.626
11441TIP3   OH255813   3.523   1.952   0.228
11441TIP3    H155814   3.445   1.984   0.274
11441TIP3    H255815   3.573   2.031   0.208
11442TIP3   OH255816   2.366   2.809   0.434
11442TIP3    H155817   2.303   2.877   0.408
11442TIP3    H255818   2.317   2.727   0.427
11443TIP3   OH255819   3.671   3.403   0.085
11443TIP3    H155820   3.702   3.494   0.085
11443TIP3    H255821   3.751   3.351   0.076
11444TIP3   OH255822   1.955   3.066   1.365
11444TIP3    H155823   1.903   3.072   1.286
11444TIP3    H255824   1.969   2.973   1.378
11445TIP3   OH255825   1.926   3.347   1.050
11445TIP3    H155826   2.011   3.348   1.094
11445TIP3    H255827   1.880   3.424   1.084
11446TIP3   OH255828   3.745   3.417   1.647
11446TIP3    H155829   3.733   3.323   1.639
11446TIP3    H255830   3.658   3.451   1.671
11447TIP3   OH255831   2.824   3.361   1.494
11447TIP3    H155832   2.819   3.444   1.542
11447TIP3    H255833   2.741   3.317   1.514
11448TIP3   OH255834   2.915   3.710   0.466
11448TIP3    H155835   2.909   3.723   0.372
11448TIP3    H255836   2.888   3.793   0.505
11449TIP3   OH255837   2.258   3.586   0.663
11449TIP3    H155838   2.277   3.556   0.752
11449TIP3    H255839   2.204   3.516   0.626
11450TIP3   OH255840   3.232   3.675   0.163
11450TIP3    H155841   3.286   3.604   0.130
11450TIP3    H255842   3.226   3.659   0.257
11451TIP3   OH255843   3.185   3.647   0.441
11451TIP3    H155844   3.093   3.670   0.452
11451TIP3    H255845   3.202   3.581   0.508
11452TIP3   OH255846   3.440   2.525   1.654
11452TIP3    H155847   3.374   2.562   1.595
11452TIP3    H255848   3.448   2.433   1.627
11453TIP3   OH255849   2.180   3.217   1.422
11453TIP3    H155850   2.206   3.179   1.506
11453TIP3    H255851   2.101   3.169   1.398
11454TIP3   OH255852   2.429   2.019   1.058
11454TIP3    H155853   2.353   2.009   1.001
11454TIP3    H255854   2.407   2.094   1.114
11455TIP3   OH255855   2.906   2.002   1.408
11455TIP3    H155856   2.952   1.954   1.476
11455TIP3    H255857   2.813   1.993   1.431
11456TIP3   OH255858   3.193   2.373   1.473
11456TIP3    H155859   3.136   2.358   1.548
11456TIP3    H255860   3.203   2.468   1.469
11457TIP3   OH255861   3.334   2.879   0.093
11457TIP3    H155862   3.417   2.870   0.046
11457TIP3    H255863   3.353   2.942   0.162
11458TIP3   OH255864   2.922   2.219   0.142
11458TIP3    H155865   2.848   2.206   0.201
11458TIP3    H255866   2.885   2.210   0.055
11459TIP3   OH255867   2.442   2.549   1.175
11459TIP3    H155868   2.379   2.546   1.246
11459TIP3    H255869   2.444   2.641   1.148
11460TIP3   OH255870   2.439   2.545   0.674
11460TIP3    H155871   2.345   2.532   0.670
11460TIP3    H255872   2.469   2.527   0.585
11461TIP3   OH255873   2.989   2.572   0.535
11461TIP3    H155874   2.967   2.660   0.506
11461TIP3    H255875   3.058   2.543   0.476
11462TIP3   OH255876   2.905   2.588   1.657
11462TIP3    H155877   2.855   2.515   1.695
11462TIP3    H255878   2.990   2.584   1.701
11463TIP3   OH255879   3.080   2.512   0.793
11463TIP3    H155880   3.038   2.556   0.719
11463TIP3    H255881   3.130   2.441   0.753
11464TIP3   OH255882   2.233   2.546   1.354
11464TIP3    H155883   2.243   2.588   1.439
11464TIP3    H255884   2.192   2.462   1.372
11465TIP3   OH255885   2.603   2.316   0.030
11465TIP3    H155886   2.571   2.285   0.115
11465TIP3    H255887   2.604   2.411   0.038
11466TIP3   OH255888   1.887   2.245   0.745
11466TIP3    H155889   1.949   2.255   0.817
11466TIP3    H255890   1.941   2.238   0.667
11467TIP3   OH255891   1.957   2.365   0.244
11467TIP3    H155892   2.033   2.400   0.198
11467TIP3    H255893   1.903   2.442   0.262
11468TIP3   OH255894   3.050   2.668   1.268
11468TIP3    H155895   3.079   2.612   1.197
11468TIP3    H255896   2.981   2.619   1.311
11469TIP3   OH255897   2.749   2.262   0.752
11469TIP3    H155898   2.659   2.265   0.785
11469TIP3    H255899   2.799   2.225   0.825
11470TIP3   OH255900   2.181   2.456   0.641
11470TIP3    H155901   2.109   2.487   0.585
11470TIP3    H255902   2.197   2.367   0.612
11471TIP3   OH255903   2.507   2.470   0.420
11471TIP3    H155904   2.602   2.465   0.430
11471TIP3    H255905   2.494   2.511   0.334
11472TIP3   OH255906   3.115   2.222   1.073
11472TIP3    H155907   3.075   2.224   1.160
11472TIP3    H255908   3.050   2.179   1.017
11473TIP3   OH255909   2.431   2.554   0.170
11473TIP3    H155910   2.340   2.542   0.142
11473TIP3    H255911   2.475   2.593   0.094
11474TIP3   OH255912   3.487   3.784   1.729
11474TIP3    H155913   3.512   3.824   1.646
11474TIP3    H255914   3.559   3.807   1.788
11475TIP3   OH255915   2.245   3.056   1.657
11475TIP3    H155916   2.312   3.049   1.724
11475TIP3    H255917   2.163   3.066   1.705
11476TIP3   OH255918   2.812   2.594   0.952
11476TIP3    H155919   2.883   2.544   0.910
11476TIP3    H255920   2.782   2.538   1.023
11477TIP3   OH255921   2.280   2.190   0.603
11477TIP3    H155922   2.229   2.114   0.630
11477TIP3    H255923   2.316   2.166   0.518
11478TIP3   OH255924   2.703   2.454   1.170
11478TIP3    H155925   2.618   2.496   1.180
11478TIP3    H255926   2.754   2.482   1.247
11479TIP3   OH255927   2.745   3.010   0.353
11479TIP3    H155928   2.676   2.966   0.302
11479TIP3    H255929   2.699   3.043   0.431
11480TIP3   OH255930   3.460   2.973   1.198
11480TIP3    H155931   3.522   3.025   1.147
11480TIP3    H255932   3.390   2.952   1.136
11481TIP3   OH255933   3.150   2.367   0.098
11481TIP3    H155934   3.073   2.312   0.116
11481TIP3    H255935   3.168   2.410   0.182
11482TIP3   OH255936   2.895   3.064   1.505
11482TIP3    H155937   2.928   3.024   1.585
11482TIP3    H255938   2.874   3.154   1.531
11483TIP3   OH255939   3.197   2.492   0.353
11483TIP3    H155940   3.283   2.477   0.390
11483TIP3    H255941   3.201   2.582   0.318
11484TIP3   OH255942   2.266   2.954   0.888
11484TIP3    H155943   2.326   2.948   0.813
11484TIP3    H255944   2.309   2.904   0.957
11485TIP3   OH255945   2.955   3.164   0.278
11485TIP3    H155946   2.916   3.251   0.284
11485TIP3    H255947   2.883   3.105   0.299
11486TIP3   OH255948   1.972   2.801   1.458
11486TIP3    H155949   1.950   2.757   1.540
11486TIP3    H255950   1.903   2.775   1.397
11487TIP3   OH255951   2.698   2.777   1.679
11487TIP3    H155952   2.631   2.738   1.622
11487TIP3    H255953   2.777   2.727   1.661
11488TIP3   OH255954   3.103   3.340   1.491
11488TIP3    H155955   3.010   3.348   1.470
11488TIP3    H255956   3.107   3.356   1.586
11489TIP3   OH255957   3.654   2.568   0.315
11489TIP3    H155958   3.592   2.537   0.250
11489TIP3    H255959   3.671   2.659   0.290
11490TIP3   OH255960   3.705   3.135   1.595
11490TIP3    H155961   3.616   3.143   1.561
11490TIP3    H255962   3.759   3.120   1.518
11491TIP3   OH255963   3.513   3.422   0.306
11491TIP3    H155964   3.549   3.370   0.378
11491TIP3    H255965   3.576   3.412   0.235
11492TIP3   OH255966   3.248   2.901   1.017
11492TIP3    H155967   3.153   2.893   1.018
11492TIP3    H255968   3.279   2.822   0.971
11493TIP3   OH255969   2.529   3.333   0.698
11493TIP3    H155970   2.546   3.417   0.656
11493TIP3    H255971   2.438   3.337   0.726
11494TIP3   OH255972   2.082   2.804   0.160
11494TIP3    H155973   2.117   2.860   0.229
11494TIP3    H255974   1.987   2.804   0.175
11495TIP3   OH255975   2.595   3.104   0.558
11495TIP3    H155976   2.582   3.186   0.607
11495TIP3    H255977   2.548   3.038   0.609
11496TIP3   OH255978   2.720   3.500   1.270
11496TIP3    H155979   2.774   3.576   1.250
11496TIP3    H255980   2.772   3.447   1.330
11497TIP3   OH255981   2.523   3.589   0.579
11497TIP3    H155982   2.431   3.605   0.600
11497TIP3    H255983   2.569   3.664   0.618
11498TIP3   OH255984   3.008   3.117   1.256
11498TIP3    H155985   2.964   3.100   1.340
11498TIP3    H255986   3.088   3.066   1.261
11499TIP3   OH255987   3.211   3.188   0.184
11499TIP3    H155988   3.275   3.142   0.237
11499TIP3    H255989   3.127   3.171   0.227
11500TIP3   OH255990   3.310   3.528   1.459
11500TIP3    H155991   3.230   3.477   1.451
11500TIP3    H255992   3.302   3.598   1.394
11501TIP3   OH255993   3.729   3.664   0.161
11501TIP3    H155994   3.801   3.727   0.170
11501TIP3    H255995   3.650   3.716   0.173
11502TIP3   OH255996   2.115   2.290   1.390
11502TIP3    H155997   2.024   2.316   1.374
11502TIP3    H255998   2.109   2.220   1.455
11503TIP3   OH255999   3.381   3.023   0.324
11503TIP3    H156000   3.340   2.969   0.392
11503TIP3    H256001   3.473   3.029   0.350
11504TIP3   OH256002   2.114   3.485   1.264
11504TIP3    H156003   2.141   3.409   1.317
11504TIP3    H256004   2.130   3.560   1.321
11505TIP3   OH256005   2.523   3.291   0.266
11505TIP3    H156006   2.571   3.236   0.328
11505TIP3    H256007   2.554   3.380   0.284
11506TIP3   OH256008   2.185   2.996   0.331
11506TIP3    H156009   2.114   3.043   0.376
11506TIP3    H256010   2.229   3.064   0.280
11507TIP3   OH256011   3.001   2.245   1.322
11507TIP3    H156012   3.074   2.269   1.379
11507TIP3    H256013   2.969   2.162   1.357
11508TIP3   OH256014   3.090   2.189   0.472
11508TIP3    H156015   3.078   2.250   0.399
11508TIP3    H256016   3.138   2.239   0.538
11509TIP3   OH256017   2.860   3.417   0.317
11509TIP3    H156018   2.775   3.461   0.315
11509TIP3    H256019   2.892   3.431   0.406
11510TIP3   OH256020   2.765   2.411   0.517
11510TIP3    H156021   2.841   2.469   0.524
11510TIP3    H256022   2.758   2.370   0.603
11511TIP3   OH256023   2.873   2.494   1.388
11511TIP3    H156024   2.881   2.514   1.481
11511TIP3    H256025   2.909   2.406   1.379
11512TIP3   OH256026   2.855   2.073   0.574
11512TIP3    H156027   2.829   2.143   0.634
11512TIP3    H256028   2.941   2.101   0.541
11513TIP3   OH256029   2.615   3.545   0.323
11513TIP3    H156030   2.626   3.630   0.282
11513TIP3    H256031   2.582   3.564   0.411
11514TIP3   OH256032   2.464   2.233   0.269
11514TIP3    H156033   2.454   2.311   0.323
11514TIP3    H256034   2.547   2.195   0.298
11515TIP3   OH256035   3.448   2.282   1.502
11515TIP3    H156036   3.355   2.301   1.491
11515TIP3    H256037   3.474   2.239   1.421
11516TIP3   OH256038   3.322   2.653   0.895
11516TIP3    H156039   3.239   2.610   0.877
11516TIP3    H256040   3.367   2.593   0.955
11517TIP3   OH256041   2.281   3.204   0.169
11517TIP3    H156042   2.347   3.254   0.217
11517TIP3    H256043   2.332   3.154   0.105
11518TIP3   OH256044   2.159   2.539   0.087
11518TIP3    H156045   2.131   2.629   0.103
11518TIP3    H256046   2.152   2.529  -0.008
11519TIP3   OH256047   3.444   3.619   1.031
11519TIP3    H156048   3.429   3.695   0.974
11519TIP3    H256049   3.536   3.625   1.056
11520TIP3   OH256050   2.177   1.995   0.940
11520TIP3    H156051   2.168   1.985   0.845
11520TIP3    H256052   2.144   1.912   0.976
11521TIP3   OH256053   2.063   3.402   0.564
11521TIP3    H156054   2.012   3.430   0.640
11521TIP3    H256055   2.044   3.467   0.497
11522TIP3   OH256056   2.051   3.688   1.733
11522TIP3    H156057   2.113   3.675   1.805
11522TIP3    H256058   2.043   3.602   1.692
11523TIP3   OH256059   2.454   3.492   1.858
11523TIP3    H156060   2.536   3.448   1.882
11523TIP3    H256061   2.435   3.462   1.769
11524TIP3   OH256062   3.011   3.454   0.089
11524TIP3    H156063   2.970   3.444   0.175
11524TIP3    H256064   2.938   3.456   0.027
11525TIP3   OH256065   3.103   3.378   1.762
11525TIP3    H156066   3.088   3.295   1.807
11525TIP3    H256067   3.178   3.416   1.807
11526TIP3   OH256068   3.376   3.442   0.067
11526TIP3    H156069   3.398   3.427   0.159
11526TIP3    H256070   3.461   3.449   0.023
11527TIP3   OH256071   1.998   3.058   1.790
11527TIP3    H156072   2.003   2.963   1.785
11527TIP3    H256073   1.925   3.082   1.733
11528TIP3   OH256074   2.452   3.043   0.025
11528TIP3    H156075   2.491   3.000   0.101
11528TIP3    H256076   2.469   2.984  -0.048
11529TIP3   OH256077   2.665   3.054   1.746
11529TIP3    H156078   2.651   3.100   1.664
11529TIP3    H256079   2.694   2.967   1.720
11530TIP3   OH256080   3.223   3.085   1.497
11530TIP3    H156081   3.315   3.105   1.481
11530TIP3    H256082   3.178   3.170   1.492
11531TIP3   OH256083   2.070   2.790   1.765
11531TIP3    H156084   2.156   2.773   1.725
11531TIP3    H256085   2.086   2.782   1.859
11532TIP3   OH256086   2.546   2.872   0.222
11532TIP3    H156087   2.492   2.835   0.292
11532TIP3    H256088   2.580   2.795   0.175
11533TIP3   OH256089   2.493   2.665   1.502
11533TIP3    H156090   2.416   2.722   1.506
11533TIP3    H256091   2.550   2.705   1.437
11534TIP3   OH256092   2.667   2.678   0.053
11534TIP3    H156093   2.671   2.679  -0.043
11534TIP3    H256094   2.759   2.677   0.080
11535TIP3   OH256095   3.000   2.917   1.765
11535TIP3    H156096   3.081   2.882   1.727
11535TIP3    H256097   2.972   2.850   1.827
11536TIP3   OH256098   3.612   3.005  16.014
11536TIP3    H156099   3.590   3.031  15.924
11536TIP3    H256100   3.642   3.086  16.055
11537TIP3   OH256101   2.534   2.402   1.573
11537TIP3    H156102   2.547   2.347   1.496
11537TIP3    H256103   2.525   2.491   1.538
11538TIP3   OH256104   2.572   2.253   1.334
11538TIP3    H156105   2.627   2.299   1.270
11538TIP3    H256106   2.486   2.246   1.291
11539TIP3   OH256107   2.674   2.788   1.342
11539TIP3    H156108   2.764   2.809   1.365
11539TIP3    H256109   2.643   2.864   1.292
11540TIP3   OH256110   3.140   2.563   1.823
11540TIP3    H156111   3.178   2.475   1.821
11540TIP3    H256112   3.211   2.620   1.852
11541TIP3   OH256113   3.274   2.861   1.643
11541TIP3    H156114   3.245   2.939   1.596
11541TIP3    H256115   3.370   2.864   1.640
11542TIP3   OH256116   2.369   2.454   1.794
11542TIP3    H156117   2.290   2.402   1.781
11542TIP3    H256118   2.419   2.443   1.713
11543TIP3   OH256119   2.625   1.990   1.411
11543TIP3    H156120   2.608   2.081   1.387
11543TIP3    H256121   2.557   1.940   1.366
11544TIP3   OH256122   2.757   2.371   1.740
11544TIP3    H156123   2.722   2.343   1.825
11544TIP3    H256124   2.680   2.374   1.682
11545TIP3   OH256125   3.023   2.307   1.671
11545TIP3    H156126   2.933   2.311   1.704
11545TIP3    H256127   3.072   2.262   1.740
11546TIP3   OH256128   3.199   2.200   1.860
11546TIP3    H156129   3.197   2.105   1.846
11546TIP3    H256130   3.174   2.211   1.952
11547TIP3   OH256131   2.159   2.267   1.763
11547TIP3    H156132   2.164   2.189   1.709
11547TIP3    H256133   2.172   2.236   1.852
11548TIP3   OH256134   2.609   1.897   1.668
11548TIP3    H156135   2.668   1.822   1.662
11548TIP3    H256136   2.609   1.934   1.580
11549TIP3   OH256137   2.694   2.053   1.880
11549TIP3    H156138   2.669   2.001   1.803
11549TIP3    H256139   2.633   2.127   1.879
11550TIP3   OH256140   2.677   3.759   0.162
11550TIP3    H156141   2.772   3.759   0.175
11550TIP3    H256142   2.666   3.784   0.070
11551TIP3   OH256143   2.010   3.251   0.106
11551TIP3    H156144   2.103   3.240   0.126
11551TIP3    H256145   2.005   3.237   0.011
11552TIP3   OH256146   1.889   3.722   0.645
11552TIP3    H156147   1.828   3.695   0.577
11552TIP3    H256148   1.905   3.643   0.697
11553TIP3   OH256149   1.959   3.505   0.808
11553TIP3    H156150   1.925   3.430   0.857
11553TIP3    H256151   2.007   3.557   0.873
11554TIP3   OH256152   3.700   3.647   1.123
11554TIP3    H156153   3.698   3.630   1.217
11554TIP3    H256154   3.781   3.697   1.110
11555TIP3   OH256155   3.662   3.586   1.399
11555TIP3    H156156   3.612   3.509   1.371
11555TIP3    H256157   3.717   3.555   1.471
11556TIP3   OH256158   3.518   3.166   1.895
11556TIP3    H156159   3.435   3.180   1.939
11556TIP3    H256160   3.575   3.236   1.929
11557TIP3   OH256161   3.629   2.986   0.434
11557TIP3    H156162   3.652   3.074   0.466
11557TIP3    H256163   3.664   2.927   0.501
11558TIP3   OH256164   3.719   2.799   0.617
11558TIP3    H156165   3.636   2.766   0.650
11558TIP3    H256166   3.771   2.816   0.695
11559TIP3   OH256167   3.699   3.101   1.121
11559TIP3    H156168   3.748   3.026   1.086
11559TIP3    H256169   3.745   3.178   1.090
11560TIP3   OH256170   3.497   3.375   1.322
11560TIP3    H156171   3.428   3.423   1.368
11560TIP3    H256172   3.464   3.364   1.233
11561TIP3   OH256173   3.700   2.831   0.220
11561TIP3    H156174   3.662   2.882   0.149
11561TIP3    H256175   3.684   2.883   0.299
11562TIP3   OH256176   3.486   2.483   0.121
11562TIP3    H156177   3.545   2.493   0.046
11562TIP3    H256178   3.416   2.426   0.089
11563TIP3   OH256179   3.465   2.686   0.661
11563TIP3    H156180   3.462   2.597   0.626
11563TIP3    H256181   3.422   2.679   0.746
11564TIP3   OH256182   1.942   2.861   1.079
11564TIP3    H156183   1.953   2.849   0.984
11564TIP3    H256184   2.025   2.832   1.116
11565TIP3   OH256185   3.553   2.868   1.633
11565TIP3    H156186   3.610   2.793   1.616
11565TIP3    H256187   3.602   2.943   1.601
11566TIP3   OH256188   3.690   2.629   1.612
11566TIP3    H156189   3.603   2.594   1.630
11566TIP3    H256190   3.750   2.558   1.636
11567TIP3   OH256191   3.454   2.443   0.487
11567TIP3    H156192   3.484   2.352   0.487
11567TIP3    H256193   3.522   2.490   0.439
11568TIP3   OH256194   3.474   2.472   1.051
11568TIP3    H156195   3.567   2.483   1.027
11568TIP3    H256196   3.472   2.491   1.145
11569TIP3   OH256197   3.503   2.554   1.319
11569TIP3    H156198   3.424   2.582   1.365
11569TIP3    H256199   3.555   2.633   1.308
11570TIP3   OH256200   1.936   2.385   1.648
11570TIP3    H156201   2.019   2.361   1.688
11570TIP3    H256202   1.880   2.307   1.658
11571TIP3   OH256203   3.744   1.968   1.839
11571TIP3    H156204   3.812   1.912   1.801
11571TIP3    H256205   3.735   2.040   1.777
11572TIP3   OH256206   3.519   2.172   0.495
11572TIP3    H156207   3.539   2.131   0.579
11572TIP3    H256208   3.449   2.118   0.458
11573TIP3   OH256209   2.054   2.242   0.970
11573TIP3    H156210   2.091   2.154   0.969
11573TIP3    H256211   2.129   2.300   0.982
11574TIP3   OH256212   1.861   2.527   1.034
11574TIP3    H156213   1.929   2.523   0.967
11574TIP3    H256214   1.895   2.587   1.100
11575TIP3   OH256215   3.667   2.159   1.659
11575TIP3    H156216   3.590   2.202   1.697
11575TIP3    H256217   3.634   2.115   1.581
11576TIP3   OH256218   3.677   2.161   0.134
11576TIP3    H156219   3.702   2.172   0.043
11576TIP3    H256220   3.730   2.225   0.182
11577TIP3   OH256221   1.926   2.179   0.450
11577TIP3    H156222   1.831   2.174   0.458
11577TIP3    H256223   1.941   2.245   0.382
11578TIP3   OH256224   3.450   3.618   0.694
11578TIP3    H156225   3.484   3.650   0.611
11578TIP3    H256226   3.437   3.696   0.747
11579TIP3   OH256227   1.921   1.998   1.296
11579TIP3    H156228   1.851   1.991   1.361
11579TIP3    H256229   1.891   2.068   1.237
11580TIP3   OH256230   2.114   3.403   1.700
11580TIP3    H156231   2.024   3.393   1.670
11580TIP3    H256232   2.114   3.371   1.790
11581TIP3   OH256233   2.457   3.482   1.349
11581TIP3    H156234   2.429   3.570   1.326
11581TIP3    H256235   2.551   3.481   1.330
11582TIP3   OH256236   2.825   3.605   1.628
11582TIP3    H156237   2.834   3.572   1.717
11582TIP3    H256238   2.906   3.652   1.611
11583TIP3   OH256239   3.067   3.735   1.595
11583TIP3    H156240   3.135   3.680   1.556
11583TIP3    H256241   3.108   3.773   1.673
11584TIP3   OH256242   3.577   1.963   1.467
11584TIP3    H156243   3.518   1.993   1.398
11584TIP3    H256244   3.596   1.872   1.445
11585TIP3   OH256245   2.150   3.755   1.372
11585TIP3    H156246   2.071   3.794   1.333
11585TIP3    H256247   2.164   3.805   1.452
11586TIP3   OH256248   2.410   3.744   1.281
11586TIP3    H156249   2.319   3.753   1.308
11586TIP3    H256250   2.414   3.789   1.197
11587TIP3   OH256251   2.855   3.726   1.187
11587TIP3    H156252   2.806   3.766   1.115
11587TIP3    H256253   2.869   3.797   1.249
11588TIP3   OH256254   3.079   3.589   1.268
11588TIP3    H156255   3.002   3.639   1.239
11588TIP3    H256256   3.152   3.650   1.259
11589TIP3   OH256257   3.319   3.722   1.256
11589TIP3    H156258   3.352   3.812   1.255
11589TIP3    H256259   3.360   3.681   1.180
11590TIP3   OH256260   2.111   3.621   1.023
11590TIP3    H156261   2.108   3.580   1.109
11590TIP3    H256262   2.190   3.587   0.982
11591TIP3   OH256263   2.330   3.500   0.915
11591TIP3    H156264   2.317   3.407   0.935
11591TIP3    H256265   2.416   3.521   0.953
11592TIP3   OH256266   2.588   3.522   1.025
11592TIP3    H156267   2.599   3.432   0.995
11592TIP3    H256268   2.625   3.523   1.113
11593TIP3   OH256269   2.910   2.096   0.914
11593TIP3    H156270   2.849   2.026   0.937
11593TIP3    H256271   2.984   2.051   0.872
11594TIP3   OH256272   3.413   1.948   0.909
11594TIP3    H156273   3.476   2.002   0.861
11594TIP3    H256274   3.329   1.992   0.897
11595TIP3   OH256275   3.597   2.048   0.731
11595TIP3    H156276   3.658   1.978   0.708
11595TIP3    H256277   3.652   2.124   0.748
11596TIP3   OH256278   2.143   1.957   0.669
11596TIP3    H156279   2.052   1.939   0.647
11596TIP3    H256280   2.189   1.875   0.652
11597TIP3   OH256281   2.070   1.970   0.314
11597TIP3    H156282   2.127   2.017   0.254
11597TIP3    H256283   2.023   2.039   0.361
11598TIP3   OH256284   2.642   1.926   0.692
11598TIP3    H156285   2.713   1.976   0.651
11598TIP3    H256286   2.662   1.929   0.786
11599TIP3   OH256287   3.132   1.961   0.815
11599TIP3    H156288   3.177   1.937   0.734
11599TIP3    H256289   3.115   1.877   0.859
11600TIP3   OH256290   3.307   2.019   0.398
11600TIP3    H156291   3.229   2.072   0.417
11600TIP3    H256292   3.276   1.929   0.407
11601TIP3   OH256293   2.018   3.583   0.368
11601TIP3    H156294   1.946   3.572   0.306
11601TIP3    H256295   2.049   3.672   0.354
11602TIP3   OH256296   2.248   2.104   0.146
11602TIP3    H156297   2.283   2.096   0.057
11602TIP3    H256298   2.319   2.146   0.195
11603TIP3   OH256299   2.727   2.197   0.348
11603TIP3    H156300   2.758   2.125   0.404
11603TIP3    H256301   2.742   2.276   0.399
11604TIP3   OH256302   2.950   3.734   0.189
11604TIP3    H156303   3.018   3.801   0.178
11604TIP3    H256304   2.988   3.656   0.150
11605TIP3   OH256305   3.565   3.660   0.446
11605TIP3    H156306   3.548   3.579   0.398
11605TIP3    H256307   3.558   3.729   0.380
11606TIP3   OH256308   2.166   2.023   1.617
11606TIP3    H156309   2.109   1.954   1.651
11606TIP3    H256310   2.249   2.010   1.663
11607TIP3   OH256311   2.367   1.957   1.795
11607TIP3    H156312   2.451   1.932   1.759
11607TIP3    H256313   2.335   1.879   1.841
11608TIP3   OH256314   2.221   3.652   0.015
11608TIP3    H156315   2.192   3.738   0.046
11608TIP3    H256316   2.207   3.594   0.089
11609TIP3   OH256317   3.222   1.927   1.808
11609TIP3    H156318   3.211   1.878   1.889
11609TIP3    H256319   3.314   1.914   1.785
11610TIP3   OH256320   3.487   3.513   1.680
11610TIP3    H156321   3.425   3.508   1.607
11610TIP3    H256322   3.486   3.605   1.706
11611TIP3   OH256323   4.970   2.920   0.646
11611TIP3    H156324   4.953   3.014   0.638
11611TIP3    H256325   4.900   2.878   0.596
11612TIP3   OH256326   4.847   2.829   1.050
11612TIP3    H156327   4.876   2.788   1.132
11612TIP3    H256328   4.796   2.761   1.006
11613TIP3   OH256329   4.058   2.754   1.174
11613TIP3    H156330   4.072   2.686   1.240
11613TIP3    H256331   4.146   2.778   1.145
11614TIP3   OH256332   5.230   3.138   0.872
11614TIP3    H156333   5.194   3.062   0.918
11614TIP3    H256334   5.247   3.202   0.942
11615TIP3   OH256335   4.184   3.227   0.976
11615TIP3    H156336   4.159   3.139   0.947
11615TIP3    H256337   4.278   3.222   0.992
11616TIP3   OH256338   3.855   2.576   0.514
11616TIP3    H156339   3.825   2.657   0.554
11616TIP3    H256340   3.788   2.556   0.448
11617TIP3   OH256341   3.908   2.818   0.823
11617TIP3    H156342   3.940   2.729   0.839
11617TIP3    H256343   3.986   2.873   0.831
11618TIP3   OH256344   4.969   3.605   0.901
11618TIP3    H156345   5.005   3.552   0.830
11618TIP3    H256346   4.946   3.542   0.969
11619TIP3   OH256347   4.691   3.078   1.060
11619TIP3    H156348   4.733   2.999   1.028
11619TIP3    H256349   4.754   3.115   1.122
11620TIP3   OH256350   5.583   2.219   1.163
11620TIP3    H156351   5.595   2.288   1.228
11620TIP3    H256352   5.624   2.253   1.084
11621TIP3   OH256353   4.996   2.498   1.065
11621TIP3    H156354   5.004   2.403   1.080
11621TIP3    H256355   4.983   2.505   0.970
11622TIP3   OH256356   4.350   2.299   0.798
11622TIP3    H156357   4.355   2.384   0.755
11622TIP3    H256358   4.294   2.246   0.741
11623TIP3   OH256359   5.130   2.336   0.647
11623TIP3    H156360   5.168   2.304   0.729
11623TIP3    H256361   5.204   2.374   0.600
11624TIP3   OH256362   3.985   2.558   0.881
11624TIP3    H156363   4.050   2.517   0.938
11624TIP3    H256364   4.004   2.522   0.794
11625TIP3   OH256365   4.459   2.706   0.857
11625TIP3    H156366   4.545   2.673   0.882
11625TIP3    H256367   4.424   2.638   0.798
11626TIP3   OH256368   5.619   2.396   1.377
11626TIP3    H156369   5.538   2.444   1.360
11626TIP3    H256370   5.636   2.410   1.470
11627TIP3   OH256371   4.207   2.227   1.220
11627TIP3    H156372   4.184   2.286   1.148
11627TIP3    H256373   4.137   2.238   1.284
11628TIP3   OH256374   4.929   3.177   0.548
11628TIP3    H156375   4.911   3.173   0.454
11628TIP3    H256376   4.881   3.254   0.578
11629TIP3   OH256377   4.460   3.001   1.193
11629TIP3    H156378   4.413   3.075   1.231
11629TIP3    H256379   4.534   3.041   1.147
11630TIP3   OH256380   5.215   2.285   0.901
11630TIP3    H156381   5.147   2.257   0.961
11630TIP3    H256382   5.270   2.344   0.952
11631TIP3   OH256383   4.182   2.394   1.000
11631TIP3    H156384   4.238   2.451   1.053
11631TIP3    H256385   4.241   2.355   0.936
11632TIP3   OH256386   4.317   3.206   1.310
11632TIP3    H156387   4.326   3.301   1.304
11632TIP3    H256388   4.227   3.192   1.338
11633TIP3   OH256389   3.888   3.139   0.344
11633TIP3    H156390   3.875   3.187   0.261
11633TIP3    H256391   3.831   3.185   0.406
11634TIP3   OH256392   5.256   3.340   1.072
11634TIP3    H156393   5.162   3.342   1.088
11634TIP3    H256394   5.279   3.430   1.048
11635TIP3   OH256395   5.325   2.121   1.233
11635TIP3    H156396   5.262   2.162   1.175
11635TIP3    H256397   5.411   2.147   1.199
11636TIP3   OH256398   4.567   1.931   0.971
11636TIP3    H156399   4.541   1.839   0.978
11636TIP3    H256400   4.490   1.979   1.001
11637TIP3   OH256401   5.088   3.490   0.675
11637TIP3    H156402   5.132   3.406   0.660
11637TIP3    H256403   5.160   3.554   0.681
11638TIP3   OH256404   5.194   3.242   0.618
11638TIP3    H156405   5.109   3.205   0.595
11638TIP3    H256406   5.217   3.200   0.701
11639TIP3   OH256407   5.373   3.126   1.424
11639TIP3    H156408   5.361   3.067   1.350
11639TIP3    H256409   5.385   3.212   1.385
11640TIP3   OH256410   4.821   2.814   0.434
11640TIP3    H156411   4.756   2.880   0.407
11640TIP3    H256412   4.888   2.819   0.366
11641TIP3   OH256413   4.825   2.679   0.101
11641TIP3    H156414   4.877   2.686   0.181
11641TIP3    H256415   4.888   2.686   0.030
11642TIP3   OH256416   5.535   2.788   1.273
11642TIP3    H156417   5.461   2.847   1.262
11642TIP3    H256418   5.595   2.811   1.201
11643TIP3   OH256419   5.189   2.852   0.497
11643TIP3    H156420   5.121   2.879   0.560
11643TIP3    H256421   5.254   2.806   0.550
11644TIP3   OH256422   5.146   2.645   1.459
11644TIP3    H156423   5.142   2.719   1.520
11644TIP3    H256424   5.083   2.668   1.390
11645TIP3   OH256425   4.341   2.901   0.693
11645TIP3    H156426   4.322   2.859   0.609
11645TIP3    H256427   4.391   2.835   0.741
11646TIP3   OH256428   4.473   3.250   0.957
11646TIP3    H156429   4.475   3.261   0.862
11646TIP3    H256430   4.551   3.197   0.976
11647TIP3   OH256431   4.313   2.807   1.069
11647TIP3    H156432   4.369   2.778   0.997
11647TIP3    H256433   4.365   2.874   1.114
11648TIP3   OH256434   4.994   3.355   1.141
11648TIP3    H156435   4.978   3.427   1.201
11648TIP3    H256436   4.950   3.280   1.182
11649TIP3   OH256437   4.474   3.222   1.541
11649TIP3    H156438   4.411   3.279   1.584
11649TIP3    H256439   4.430   3.195   1.460
11650TIP3   OH256440   5.051   2.765   0.276
11650TIP3    H156441   5.101   2.796   0.352
11650TIP3    H256442   5.090   2.810   0.202
11651TIP3   OH256443   4.138   2.806   1.517
11651TIP3    H156444   4.150   2.892   1.557
11651TIP3    H256445   4.049   2.809   1.483
11652TIP3   OH256446   4.828   3.429   0.605
11652TIP3    H156447   4.913   3.457   0.638
11652TIP3    H256448   4.792   3.507   0.563
11653TIP3   OH256449   4.274   3.398   1.612
11653TIP3    H156450   4.274   3.433   1.523
11653TIP3    H256451   4.182   3.384   1.633
11654TIP3   OH256452   5.405   1.951   0.224
11654TIP3    H156453   5.327   1.983   0.271
11654TIP3    H256454   5.456   2.030   0.206
11655TIP3   OH256455   4.268   2.801   0.436
11655TIP3    H156456   4.211   2.870   0.402
11655TIP3    H256457   4.212   2.723   0.437
11656TIP3   OH256458   5.527   3.350   0.144
11656TIP3    H156459   5.541   3.445   0.146
11656TIP3    H256460   5.613   3.313   0.125
11657TIP3   OH256461   3.838   3.066   1.368
11657TIP3    H156462   3.787   3.071   1.287
11657TIP3    H256463   3.853   2.972   1.381
11658TIP3   OH256464   3.877   3.313   1.054
11658TIP3    H156465   3.965   3.286   1.027
11658TIP3    H256466   3.892   3.371   1.129
11659TIP3   OH256467   5.622   3.410   1.630
11659TIP3    H156468   5.610   3.315   1.627
11659TIP3    H256469   5.539   3.443   1.664
11660TIP3   OH256470   4.710   3.354   1.492
11660TIP3    H156471   4.704   3.437   1.539
11660TIP3    H256472   4.626   3.311   1.510
11661TIP3   OH256473   4.798   3.695   0.476
11661TIP3    H156474   4.787   3.727   0.387
11661TIP3    H256475   4.766   3.766   0.531
11662TIP3   OH256476   4.143   3.597   0.680
11662TIP3    H156477   4.161   3.566   0.769
11662TIP3    H256478   4.071   3.542   0.649
11663TIP3   OH256479   5.103   3.623   0.130
11663TIP3    H156480   5.172   3.560   0.111
11663TIP3    H256481   5.105   3.633   0.225
11664TIP3   OH256482   5.062   3.634   0.416
11664TIP3    H156483   4.970   3.646   0.438
11664TIP3    H256484   5.096   3.576   0.483
11665TIP3   OH256485   5.333   2.512   1.640
11665TIP3    H156486   5.263   2.551   1.586
11665TIP3    H256487   5.334   2.420   1.615
11666TIP3   OH256488   4.066   3.213   1.423
11666TIP3    H156489   4.087   3.182   1.511
11666TIP3    H256490   3.985   3.166   1.400
11667TIP3   OH256491   4.315   2.028   1.058
11667TIP3    H156492   4.239   2.015   1.001
11667TIP3    H256493   4.289   2.099   1.117
11668TIP3   OH256494   4.790   2.004   1.404
11668TIP3    H156495   4.834   1.955   1.472
11668TIP3    H256496   4.697   1.997   1.425
11669TIP3   OH256497   5.087   2.372   1.483
11669TIP3    H156498   5.025   2.358   1.554
11669TIP3    H256499   5.091   2.467   1.473
11670TIP3   OH256500   5.179   2.912   0.076
11670TIP3    H156501   5.179   2.978   0.008
11670TIP3    H256502   5.238   2.947   0.144
11671TIP3   OH256503   4.812   2.212   0.155
11671TIP3    H156504   4.740   2.203   0.217
11671TIP3    H256505   4.774   2.190   0.070
11672TIP3   OH256506   4.327   2.550   1.177
11672TIP3    H156507   4.264   2.548   1.250
11672TIP3    H256508   4.329   2.641   1.150
11673TIP3   OH256509   4.327   2.542   0.674
11673TIP3    H156510   4.232   2.530   0.671
11673TIP3    H256511   4.356   2.525   0.584
11674TIP3   OH256512   4.874   2.565   0.534
11674TIP3    H156513   4.852   2.653   0.505
11674TIP3    H256514   4.943   2.537   0.474
11675TIP3   OH256515   4.788   2.588   1.658
11675TIP3    H156516   4.737   2.516   1.695
11675TIP3    H256517   4.873   2.584   1.702
11676TIP3   OH256518   4.969   2.513   0.793
11676TIP3    H156519   4.924   2.556   0.720
11676TIP3    H256520   5.017   2.441   0.753
11677TIP3   OH256521   4.119   2.549   1.357
11677TIP3    H156522   4.123   2.595   1.441
11677TIP3    H256523   4.078   2.465   1.378
11678TIP3   OH256524   4.504   2.301   0.037
11678TIP3    H156525   4.478   2.264   0.121
11678TIP3    H256526   4.503   2.396   0.052
11679TIP3   OH256527   3.780   2.245   0.748
11679TIP3    H156528   3.833   2.256   0.828
11679TIP3    H256529   3.844   2.244   0.677
11680TIP3   OH256530   3.838   2.364   0.248
11680TIP3    H156531   3.914   2.401   0.203
11680TIP3    H256532   3.782   2.439   0.268
11681TIP3   OH256533   4.938   2.668   1.267
11681TIP3    H156534   4.968   2.611   1.196
11681TIP3    H256535   4.868   2.619   1.310
11682TIP3   OH256536   4.635   2.260   0.755
11682TIP3    H156537   4.546   2.262   0.789
11682TIP3    H256538   4.688   2.224   0.826
11683TIP3   OH256539   4.068   2.455   0.641
11683TIP3    H156540   3.997   2.484   0.584
11683TIP3    H256541   4.086   2.365   0.612
11684TIP3   OH256542   4.390   2.463   0.418
11684TIP3    H156543   4.484   2.460   0.433
11684TIP3    H256544   4.381   2.501   0.331
11685TIP3   OH256545   5.005   2.220   1.073
11685TIP3    H156546   4.966   2.223   1.161
11685TIP3    H256547   4.940   2.177   1.019
11686TIP3   OH256548   4.333   2.537   0.160
11686TIP3    H156549   4.243   2.540   0.126
11686TIP3    H256550   4.383   2.591   0.099
11687TIP3   OH256551   5.378   3.784   1.732
11687TIP3    H156552   5.404   3.818   1.647
11687TIP3    H256553   5.451   3.805   1.790
11688TIP3   OH256554   4.133   3.047   1.661
11688TIP3    H156555   4.200   3.044   1.730
11688TIP3    H256556   4.051   3.066   1.708
11689TIP3   OH256557   4.700   2.596   0.952
11689TIP3    H156558   4.770   2.544   0.912
11689TIP3    H256559   4.668   2.541   1.024
11690TIP3   OH256560   4.167   2.188   0.608
11690TIP3    H156561   4.116   2.111   0.633
11690TIP3    H256562   4.212   2.162   0.527
11691TIP3   OH256563   4.589   2.458   1.170
11691TIP3    H156564   4.504   2.500   1.182
11691TIP3    H256565   4.640   2.485   1.247
11692TIP3   OH256566   4.647   3.012   0.350
11692TIP3    H156567   4.576   2.972   0.299
11692TIP3    H256568   4.604   3.047   0.428
11693TIP3   OH256569   5.342   2.972   1.197
11693TIP3    H156570   5.404   3.026   1.149
11693TIP3    H256571   5.271   2.954   1.135
11694TIP3   OH256572   5.032   2.369   0.094
11694TIP3    H156573   4.957   2.312   0.115
11694TIP3    H256574   5.051   2.414   0.176
11695TIP3   OH256575   4.783   3.061   1.506
11695TIP3    H156576   4.810   3.022   1.589
11695TIP3    H256577   4.756   3.150   1.529
11696TIP3   OH256578   5.081   2.494   0.348
11696TIP3    H156579   5.168   2.479   0.386
11696TIP3    H256580   5.085   2.584   0.316
11697TIP3   OH256581   4.151   2.955   0.888
11697TIP3    H156582   4.210   2.949   0.814
11697TIP3    H256583   4.193   2.905   0.957
11698TIP3   OH256584   4.863   3.164   0.266
11698TIP3    H156585   4.817   3.248   0.274
11698TIP3    H256586   4.796   3.098   0.287
11699TIP3   OH256587   3.861   2.801   1.459
11699TIP3    H156588   3.842   2.761   1.544
11699TIP3    H256589   3.790   2.772   1.402
11700TIP3   OH256590   4.581   2.779   1.680
11700TIP3    H156591   4.514   2.740   1.626
11700TIP3    H256592   4.660   2.727   1.662
11701TIP3   OH256593   4.990   3.341   1.495
11701TIP3    H156594   4.897   3.344   1.472
11701TIP3    H256595   4.991   3.353   1.590
11702TIP3   OH256596   5.540   2.566   0.316
11702TIP3    H156597   5.479   2.531   0.251
11702TIP3    H256598   5.554   2.657   0.290
11703TIP3   OH256599   5.590   3.130   1.589
11703TIP3    H156600   5.501   3.139   1.554
11703TIP3    H256601   5.645   3.115   1.513
11704TIP3   OH256602   5.400   3.414   0.394
11704TIP3    H156603   5.355   3.344   0.440
11704TIP3    H256604   5.435   3.372   0.315
11705TIP3   OH256605   5.137   2.906   1.011
11705TIP3    H156606   5.042   2.898   1.013
11705TIP3    H256607   5.167   2.827   0.965
11706TIP3   OH256608   4.412   3.328   0.692
11706TIP3    H156609   4.437   3.412   0.654
11706TIP3    H256610   4.317   3.329   0.694
11707TIP3   OH256611   3.972   2.801   0.155
11707TIP3    H156612   4.018   2.856   0.219
11707TIP3    H256613   3.880   2.806   0.182
11708TIP3   OH256614   4.500   3.094   0.565
11708TIP3    H156615   4.483   3.180   0.604
11708TIP3    H256616   4.445   3.034   0.615
11709TIP3   OH256617   4.604   3.497   1.269
11709TIP3    H156618   4.659   3.573   1.249
11709TIP3    H256619   4.657   3.443   1.327
11710TIP3   OH256620   4.402   3.589   0.583
11710TIP3    H156621   4.310   3.603   0.609
11710TIP3    H256622   4.449   3.663   0.622
11711TIP3   OH256623   4.889   3.117   1.256
11711TIP3    H156624   4.849   3.098   1.341
11711TIP3    H256625   4.966   3.061   1.253
11712TIP3   OH256626   5.128   3.207   0.167
11712TIP3    H156627   5.184   3.154   0.224
11712TIP3    H256628   5.040   3.198   0.204
11713TIP3   OH256629   5.196   3.529   1.462
11713TIP3    H156630   5.116   3.476   1.454
11713TIP3    H256631   5.184   3.599   1.398
11714TIP3   OH256632   5.569   3.620   0.146
11714TIP3    H156633   5.590   3.638   0.054
11714TIP3    H256634   5.512   3.692   0.172
11715TIP3   OH256635   4.000   2.292   1.393
11715TIP3    H156636   3.909   2.317   1.378
11715TIP3    H256637   3.995   2.223   1.459
11716TIP3   OH256638   5.293   3.027   0.309
11716TIP3    H156639   5.250   2.977   0.378
11716TIP3    H256640   5.383   3.037   0.338
11717TIP3   OH256641   3.981   3.480   1.265
11717TIP3    H156642   4.017   3.411   1.321
11717TIP3    H256643   3.997   3.561   1.313
11718TIP3   OH256644   4.416   3.294   0.248
11718TIP3    H156645   4.494   3.248   0.278
11718TIP3    H256646   4.432   3.386   0.272
11719TIP3   OH256647   4.109   2.989   0.310
11719TIP3    H156648   4.029   3.032   0.341
11719TIP3    H256649   4.159   3.058   0.269
11720TIP3   OH256650   4.894   2.247   1.324
11720TIP3    H156651   4.966   2.267   1.385
11720TIP3    H256652   4.858   2.164   1.357
11721TIP3   OH256653   4.976   2.188   0.472
11721TIP3    H156654   4.963   2.248   0.399
11721TIP3    H256655   5.023   2.238   0.537
11722TIP3   OH256656   4.709   3.386   0.294
11722TIP3    H156657   4.637   3.438   0.328
11722TIP3    H256658   4.758   3.446   0.238
11723TIP3   OH256659   4.646   2.411   0.521
11723TIP3    H156660   4.723   2.468   0.526
11723TIP3    H256661   4.641   2.370   0.607
11724TIP3   OH256662   4.761   2.495   1.388
11724TIP3    H156663   4.767   2.515   1.481
11724TIP3    H256664   4.797   2.407   1.379
11725TIP3   OH256665   4.740   2.073   0.572
11725TIP3    H156666   4.714   2.140   0.636
11725TIP3    H256667   4.826   2.101   0.542
11726TIP3   OH256668   4.485   3.548   0.325
11726TIP3    H156669   4.494   3.635   0.284
11726TIP3    H256670   4.454   3.567   0.414
11727TIP3   OH256671   4.343   2.220   0.276
11727TIP3    H156672   4.333   2.303   0.323
11727TIP3    H256673   4.427   2.185   0.305
11728TIP3   OH256674   5.333   2.255   1.484
11728TIP3    H156675   5.244   2.288   1.486
11728TIP3    H256676   5.340   2.207   1.402
11729TIP3   OH256677   5.210   2.654   0.891
11729TIP3    H156678   5.125   2.614   0.871
11729TIP3    H256679   5.252   2.594   0.952
11730TIP3   OH256680   4.166   3.230   0.150
11730TIP3    H156681   4.232   3.276   0.203
11730TIP3    H256682   4.218   3.173   0.093
11731TIP3   OH256683   4.037   2.533   0.089
11731TIP3    H156684   4.013   2.624   0.108
11731TIP3    H256685   4.020   2.522  -0.004
11732TIP3   OH256686   5.335   3.607   1.058
11732TIP3    H156687   5.319   3.680   0.998
11732TIP3    H256688   5.429   3.608   1.072
11733TIP3   OH256689   4.063   1.997   0.941
11733TIP3    H156690   4.055   1.986   0.846
11733TIP3    H256691   4.032   1.914   0.977
11734TIP3   OH256692   3.926   3.465   0.579
11734TIP3    H156693   3.863   3.393   0.575
11734TIP3    H256694   3.940   3.490   0.487
11735TIP3   OH256695   3.895   3.664   1.739
11735TIP3    H156696   3.959   3.636   1.804
11735TIP3    H256697   3.850   3.584   1.714
11736TIP3   OH256698   4.340   3.513   1.854
11736TIP3    H156699   4.417   3.465   1.886
11736TIP3    H256700   4.322   3.475   1.768
11737TIP3   OH256701   4.841   3.544   0.116
11737TIP3    H156702   4.815   3.498   0.036
11737TIP3    H256703   4.935   3.557   0.106
11738TIP3   OH256704   4.988   3.370   1.767
11738TIP3    H156705   4.978   3.287   1.814
11738TIP3    H256706   5.064   3.412   1.809
11739TIP3   OH256707   5.268   3.420   0.055
11739TIP3    H156708   5.219   3.348   0.095
11739TIP3    H256709   5.360   3.398   0.071
11740TIP3   OH256710   3.884   3.055   1.792
11740TIP3    H156711   3.885   2.959   1.784
11740TIP3    H256712   3.812   3.083   1.736
11741TIP3   OH256713   4.327   3.042   0.033
11741TIP3    H156714   4.371   3.001   0.108
11741TIP3    H256715   4.348   2.986  -0.041
11742TIP3   OH256716   4.552   3.056   1.748
11742TIP3    H156717   4.535   3.101   1.665
11742TIP3    H256718   4.578   2.967   1.722
11743TIP3   OH256719   5.111   3.086   1.503
11743TIP3    H156720   5.202   3.107   1.483
11743TIP3    H256721   5.064   3.169   1.495
11744TIP3   OH256722   3.953   2.782   1.763
11744TIP3    H156723   4.041   2.774   1.726
11744TIP3    H256724   3.967   2.779   1.857
11745TIP3   OH256725   4.442   2.874   0.222
11745TIP3    H156726   4.393   2.836   0.295
11745TIP3    H256727   4.475   2.798   0.174
11746TIP3   OH256728   4.385   2.669   1.504
11746TIP3    H156729   4.306   2.722   1.505
11746TIP3    H256730   4.440   2.708   1.436
11747TIP3   OH256731   4.553   2.675   0.046
11747TIP3    H156732   4.558   2.682  -0.049
11747TIP3    H256733   4.644   2.673   0.075
11748TIP3   OH256734   4.883   2.920   1.766
11748TIP3    H156735   4.961   2.881   1.726
11748TIP3    H256736   4.852   2.853   1.828
11749TIP3   OH256737   5.494   3.015   0.013
11749TIP3    H156738   5.451   3.042  -0.068
11749TIP3    H256739   5.511   3.097   0.060
11750TIP3   OH256740   4.420   2.404   1.572
11750TIP3    H156741   4.432   2.350   1.493
11750TIP3    H256742   4.412   2.493   1.538
11751TIP3   OH256743   4.457   2.257   1.333
11751TIP3    H156744   4.511   2.302   1.268
11751TIP3    H256745   4.371   2.249   1.291
11752TIP3   OH256746   4.561   2.788   1.334
11752TIP3    H156747   4.650   2.811   1.359
11752TIP3    H256748   4.529   2.864   1.286
11753TIP3   OH256749   5.021   2.564   1.823
11753TIP3    H156750   5.057   2.475   1.823
11753TIP3    H256751   5.094   2.619   1.854
11754TIP3   OH256752   5.157   2.859   1.645
11754TIP3    H156753   5.129   2.938   1.599
11754TIP3    H256754   5.253   2.862   1.641
11755TIP3   OH256755   4.255   2.452   1.793
11755TIP3    H156756   4.175   2.402   1.779
11755TIP3    H256757   4.304   2.441   1.711
11756TIP3   OH256758   4.510   1.994   1.412
11756TIP3    H156759   4.492   2.085   1.388
11756TIP3    H256760   4.444   1.943   1.366
11757TIP3   OH256761   4.640   2.371   1.740
11757TIP3    H156762   4.603   2.342   1.824
11757TIP3    H256763   4.565   2.374   1.681
11758TIP3   OH256764   4.906   2.308   1.672
11758TIP3    H156765   4.816   2.312   1.704
11758TIP3    H256766   4.953   2.260   1.740
11759TIP3   OH256767   5.085   2.197   1.857
11759TIP3    H156768   5.081   2.102   1.844
11759TIP3    H256769   5.059   2.210   1.948
11760TIP3   OH256770   4.044   2.267   1.761
11760TIP3    H156771   4.049   2.187   1.708
11760TIP3    H256772   4.058   2.236   1.851
11761TIP3   OH256773   4.495   1.895   1.667
11761TIP3    H156774   4.552   1.819   1.658
11761TIP3    H256775   4.495   1.934   1.580
11762TIP3   OH256776   4.581   2.053   1.877
11762TIP3    H156777   4.556   2.000   1.801
11762TIP3    H256778   4.520   2.126   1.877
11763TIP3   OH256779   4.544   3.764   0.163
11763TIP3    H156780   4.632   3.792   0.190
11763TIP3    H256781   4.539   3.790   0.070
11764TIP3   OH256782   3.897   3.239   0.072
11764TIP3    H156783   3.988   3.243   0.101
11764TIP3    H256784   3.903   3.214  -0.020
11765TIP3   OH256785   3.784   3.703   0.621
11765TIP3    H156786   3.721   3.690   0.550
11765TIP3    H256787   3.834   3.622   0.624
11766TIP3   OH256788   3.728   3.476   0.878
11766TIP3    H156789   3.779   3.412   0.928
11766TIP3    H256790   3.750   3.560   0.916
11767TIP3   OH256791   5.600   3.614   1.137
11767TIP3    H156792   5.594   3.612   1.232
11767TIP3    H256793   5.666   3.681   1.118
11768TIP3   OH256794   5.548   3.578   1.410
11768TIP3    H156795   5.493   3.509   1.375
11768TIP3    H256796   5.594   3.538   1.483
11769TIP3   OH256797   5.414   3.169   1.894
11769TIP3    H156798   5.331   3.184   1.938
11769TIP3    H256799   5.472   3.237   1.928
11770TIP3   OH256800   5.552   3.008   0.415
11770TIP3    H156801   5.621   3.075   0.419
11770TIP3    H256802   5.568   2.952   0.490
11771TIP3   OH256803   5.604   2.815   0.611
11771TIP3    H156804   5.520   2.778   0.639
11771TIP3    H256805   5.654   2.825   0.691
11772TIP3   OH256806   5.579   3.104   1.127
11772TIP3    H156807   5.631   3.039   1.081
11772TIP3    H256808   5.608   3.188   1.091
11773TIP3   OH256809   5.381   3.378   1.318
11773TIP3    H156810   5.309   3.423   1.363
11773TIP3    H256811   5.347   3.362   1.230
11774TIP3   OH256812   5.576   2.825   0.213
11774TIP3    H156813   5.535   2.872   0.140
11774TIP3    H256814   5.566   2.885   0.288
11775TIP3   OH256815   5.378   2.476   0.120
11775TIP3    H156816   5.436   2.492   0.046
11775TIP3    H256817   5.303   2.430   0.082
11776TIP3   OH256818   5.354   2.690   0.655
11776TIP3    H156819   5.348   2.601   0.621
11776TIP3    H256820   5.309   2.685   0.740
11777TIP3   OH256821   3.827   2.859   1.081
11777TIP3    H156822   3.839   2.848   0.986
11777TIP3    H256823   3.910   2.830   1.119
11778TIP3   OH256824   5.435   2.867   1.632
11778TIP3    H156825   5.493   2.793   1.614
11778TIP3    H256826   5.482   2.943   1.596
11779TIP3   OH256827   5.576   2.631   1.610
11779TIP3    H156828   5.490   2.591   1.622
11779TIP3    H256829   5.638   2.564   1.637
11780TIP3   OH256830   5.339   2.442   0.486
11780TIP3    H156831   5.368   2.351   0.484
11780TIP3    H256832   5.407   2.490   0.438
11781TIP3   OH256833   5.358   2.470   1.052
11781TIP3    H156834   5.451   2.479   1.029
11781TIP3    H256835   5.354   2.491   1.145
11782TIP3   OH256836   5.390   2.557   1.317
11782TIP3    H156837   5.310   2.584   1.362
11782TIP3    H256838   5.441   2.637   1.308
11783TIP3   OH256839   3.822   2.387   1.647
11783TIP3    H156840   3.905   2.363   1.688
11783TIP3    H256841   3.766   2.310   1.660
11784TIP3   OH256842   5.630   1.977   1.835
11784TIP3    H156843   5.695   1.918   1.796
11784TIP3    H256844   5.619   2.046   1.770
11785TIP3   OH256845   5.404   2.171   0.490
11785TIP3    H156846   5.421   2.132   0.575
11785TIP3    H256847   5.333   2.118   0.453
11786TIP3   OH256848   3.937   2.242   0.979
11786TIP3    H156849   3.976   2.154   0.975
11786TIP3    H256850   4.012   2.301   0.989
11787TIP3   OH256851   3.745   2.531   1.031
11787TIP3    H156852   3.816   2.527   0.967
11787TIP3    H256853   3.776   2.592   1.098
11788TIP3   OH256854   5.544   2.174   1.661
11788TIP3    H156855   5.477   2.207   1.721
11788TIP3    H256856   5.499   2.164   1.577
11789TIP3   OH256857   5.567   2.158   0.137
11789TIP3    H156858   5.591   2.171   0.046
11789TIP3    H256859   5.617   2.224   0.185
11790TIP3   OH256860   3.806   2.151   0.426
11790TIP3    H156861   3.713   2.157   0.447
11790TIP3    H256862   3.824   2.228   0.372
11791TIP3   OH256863   5.278   3.680   0.670
11791TIP3    H156864   5.346   3.686   0.603
11791TIP3    H256865   5.309   3.736   0.741
11792TIP3   OH256866   3.806   2.000   1.299
11792TIP3    H156867   3.737   1.993   1.365
11792TIP3    H256868   3.776   2.069   1.239
11793TIP3   OH256869   4.016   3.364   1.706
11793TIP3    H156870   3.926   3.380   1.677
11793TIP3    H256871   4.011   3.370   1.801
11794TIP3   OH256872   4.341   3.480   1.347
11794TIP3    H156873   4.311   3.568   1.326
11794TIP3    H256874   4.434   3.481   1.328
11795TIP3   OH256875   4.711   3.597   1.624
11795TIP3    H156876   4.719   3.566   1.714
11795TIP3    H256877   4.791   3.647   1.608
11796TIP3   OH256878   4.947   3.736   1.592
11796TIP3    H156879   5.013   3.684   1.547
11796TIP3    H256880   4.992   3.771   1.670
11797TIP3   OH256881   5.463   1.939   1.459
11797TIP3    H156882   5.385   1.951   1.405
11797TIP3    H256883   5.487   1.848   1.446
11798TIP3   OH256884   4.028   3.745   1.365
11798TIP3    H156885   3.957   3.795   1.324
11798TIP3    H256886   4.040   3.786   1.451
11799TIP3   OH256887   4.293   3.743   1.283
11799TIP3    H156888   4.201   3.750   1.308
11799TIP3    H256889   4.299   3.789   1.200
11800TIP3   OH256890   4.743   3.723   1.187
11800TIP3    H156891   4.691   3.759   1.115
11800TIP3    H256892   4.753   3.796   1.248
11801TIP3   OH256893   4.970   3.595   1.275
11801TIP3    H156894   4.891   3.638   1.241
11801TIP3    H256895   5.040   3.658   1.261
11802TIP3   OH256896   5.210   3.736   1.268
11802TIP3    H156897   5.236   3.827   1.255
11802TIP3    H256898   5.250   3.689   1.195
11803TIP3   OH256899   3.982   3.628   1.027
11803TIP3    H156900   3.975   3.584   1.111
11803TIP3    H256901   4.056   3.586   0.984
11804TIP3   OH256902   4.204   3.499   0.929
11804TIP3    H156903   4.194   3.405   0.948
11804TIP3    H256904   4.291   3.521   0.964
11805TIP3   OH256905   4.469   3.523   1.026
11805TIP3    H156906   4.478   3.434   0.993
11805TIP3    H256907   4.507   3.521   1.113
11806TIP3   OH256908   4.801   2.096   0.914
11806TIP3    H156909   4.735   2.030   0.935
11806TIP3    H256910   4.872   2.046   0.873
11807TIP3   OH256911   5.294   1.943   0.904
11807TIP3    H156912   5.351   2.003   0.857
11807TIP3    H256913   5.205   1.976   0.890
11808TIP3   OH256914   5.475   2.054   0.730
11808TIP3    H156915   5.538   1.985   0.707
11808TIP3    H256916   5.529   2.131   0.747
11809TIP3   OH256917   4.030   1.953   0.669
11809TIP3    H156918   3.938   1.934   0.650
11809TIP3    H256919   4.074   1.868   0.659
11810TIP3   OH256920   3.922   1.955   0.255
11810TIP3    H156921   3.996   2.003   0.218
11810TIP3    H256922   3.881   2.016   0.316
11811TIP3   OH256923   4.518   1.932   0.686
11811TIP3    H156924   4.593   1.976   0.647
11811TIP3    H256925   4.538   1.931   0.780
11812TIP3   OH256926   5.022   1.956   0.811
11812TIP3    H156927   5.061   1.930   0.728
11812TIP3    H256928   4.991   1.874   0.850
11813TIP3   OH256929   5.190   2.017   0.395
11813TIP3    H156930   5.114   2.071   0.416
11813TIP3    H256931   5.159   1.927   0.406
11814TIP3   OH256932   3.936   3.574   0.329
11814TIP3    H156933   3.857   3.562   0.276
11814TIP3    H256934   3.959   3.666   0.319
11815TIP3   OH256935   4.136   2.089   0.140
11815TIP3    H156936   4.179   2.084   0.055
11815TIP3    H256937   4.200   2.131   0.197
11816TIP3   OH256938   4.610   2.198   0.352
11816TIP3    H156939   4.640   2.127   0.408
11816TIP3    H256940   4.623   2.277   0.403
11817TIP3   OH256941   4.818   3.799   0.212
11817TIP3    H156942   4.908   3.830   0.206
11817TIP3    H256943   4.819   3.712   0.172
11818TIP3   OH256944   5.469   3.670   0.468
11818TIP3    H156945   5.449   3.581   0.441
11818TIP3    H256946   5.457   3.722   0.388
11819TIP3   OH256947   4.051   2.023   1.616
11819TIP3    H156948   3.993   1.953   1.648
11819TIP3    H256949   4.133   2.009   1.663
11820TIP3   OH256950   4.252   1.956   1.792
11820TIP3    H156951   4.337   1.930   1.756
11820TIP3    H256952   4.219   1.878   1.836
11821TIP3   OH256953   4.123   3.641   0.003
11821TIP3    H156954   4.102   3.708   0.069
11821TIP3    H256955   4.128   3.559   0.052
11822TIP3   OH256956   5.106   1.923   1.806
11822TIP3    H156957   5.095   1.875   1.888
11822TIP3    H256958   5.199   1.911   1.783
11823TIP3   OH256959   5.371   3.512   1.681
11823TIP3    H156960   5.309   3.508   1.608
11823TIP3    H256961   5.370   3.604   1.708
11824TIP3   OH256962   6.861   2.934   0.649
11824TIP3    H156963   6.844   3.027   0.638
11824TIP3    H256964   6.794   2.891   0.595
11825TIP3   OH256965   6.725   2.826   1.044
11825TIP3    H156966   6.753   2.786   1.126
11825TIP3    H256967   6.673   2.759   1.001
11826TIP3   OH256968   5.946   2.768   1.179
11826TIP3    H156969   5.955   2.696   1.241
11826TIP3    H256970   6.036   2.793   1.158
11827TIP3   OH256971   7.087   3.165   0.866
11827TIP3    H156972   7.053   3.082   0.901
11827TIP3    H256973   7.111   3.215   0.944
11828TIP3   OH256974   6.096   3.228   0.957
11828TIP3    H156975   6.060   3.140   0.945
11828TIP3    H256976   6.188   3.213   0.979
11829TIP3   OH256977   5.740   2.585   0.516
11829TIP3    H156978   5.710   2.668   0.553
11829TIP3    H256979   5.674   2.562   0.451
11830TIP3   OH256980   5.794   2.819   0.819
11830TIP3    H156981   5.824   2.729   0.838
11830TIP3    H256982   5.872   2.873   0.831
11831TIP3   OH256983   6.809   3.677   0.920
11831TIP3    H156984   6.841   3.601   0.872
11831TIP3    H256985   6.760   3.640   0.994
11832TIP3   OH256986   6.581   3.077   1.054
11832TIP3    H156987   6.619   2.994   1.023
11832TIP3    H256988   6.644   3.109   1.119
11833TIP3   OH256989   6.901   2.490   1.066
11833TIP3    H156990   6.903   2.395   1.082
11833TIP3    H256991   6.874   2.498   0.975
11834TIP3   OH256992   6.234   2.301   0.792
11834TIP3    H156993   6.236   2.387   0.750
11834TIP3    H256994   6.177   2.249   0.736
11835TIP3   OH256995   6.998   2.339   0.648
11835TIP3    H156996   7.039   2.291   0.719
11835TIP3    H256997   7.070   2.359   0.588
11836TIP3   OH256998   5.870   2.560   0.885
11836TIP3    H156999   5.934   2.517   0.942
11836TIP3    H257000   5.887   2.525   0.798
11837TIP3   OH257001   6.349   2.707   0.847
11837TIP3    H157002   6.434   2.672   0.873
11837TIP3    H257003   6.312   2.641   0.789
11838TIP3   OH257004   6.095   2.226   1.219
11838TIP3    H157005   6.072   2.284   1.147
11838TIP3    H257006   6.023   2.236   1.282
11839TIP3   OH257007   6.827   3.190   0.543
11839TIP3    H157008   6.802   3.176   0.452
11839TIP3    H257009   6.771   3.261   0.573
11840TIP3   OH257010   6.351   3.003   1.192
11840TIP3    H157011   6.301   3.075   1.230
11840TIP3    H257012   6.423   3.046   1.145
11841TIP3   OH257013   7.086   2.231   0.882
11841TIP3    H157014   7.013   2.220   0.943
11841TIP3    H257015   7.154   2.274   0.934
11842TIP3   OH257016   6.071   2.393   1.000
11842TIP3    H157017   6.126   2.451   1.051
11842TIP3    H257018   6.129   2.357   0.933
11843TIP3   OH257019   6.203   3.205   1.308
11843TIP3    H157020   6.209   3.301   1.302
11843TIP3    H257021   6.112   3.189   1.335
11844TIP3   OH257022   5.764   3.190   0.393
11844TIP3    H157023   5.757   3.233   0.307
11844TIP3    H257024   5.787   3.261   0.453
11845TIP3   OH257025   7.145   3.349   1.081
11845TIP3    H157026   7.053   3.336   1.105
11845TIP3    H257027   7.152   3.443   1.064
11846TIP3   OH257028   7.138   2.113   1.169
11846TIP3    H157029   7.049   2.137   1.145
11846TIP3    H257030   7.190   2.191   1.149
11847TIP3   OH257031   6.456   1.929   0.976
11847TIP3    H157032   6.436   1.835   0.974
11847TIP3    H257033   6.375   1.971   1.005
11848TIP3   OH257034   6.929   3.479   0.764
11848TIP3    H157035   6.949   3.386   0.774
11848TIP3    H257036   7.008   3.517   0.726
11849TIP3   OH257037   7.092   3.245   0.603
11849TIP3    H157038   7.003   3.219   0.579
11849TIP3    H257039   7.105   3.210   0.691
11850TIP3   OH257040   7.231   3.087   1.438
11850TIP3    H157041   7.220   3.043   1.354
11850TIP3    H257042   7.261   3.176   1.416
11851TIP3   OH257043   6.717   2.827   0.434
11851TIP3    H157044   6.647   2.886   0.407
11851TIP3    H257045   6.781   2.830   0.363
11852TIP3   OH257046   6.721   2.684   0.102
11852TIP3    H157047   6.775   2.697   0.180
11852TIP3    H257048   6.781   2.696   0.028
11853TIP3   OH257049   7.078   2.875   0.493
11853TIP3    H157050   7.011   2.902   0.556
11853TIP3    H257051   7.130   2.810   0.541
11854TIP3   OH257052   7.013   2.642   1.458
11854TIP3    H157053   6.998   2.712   1.522
11854TIP3    H257054   6.951   2.660   1.388
11855TIP3   OH257055   6.221   2.902   0.688
11855TIP3    H157056   6.196   2.862   0.605
11855TIP3    H257057   6.273   2.834   0.732
11856TIP3   OH257058   6.381   3.253   0.955
11856TIP3    H157059   6.379   3.261   0.859
11856TIP3    H257060   6.456   3.196   0.972
11857TIP3   OH257061   6.209   2.805   1.067
11857TIP3    H157062   6.263   2.779   0.992
11857TIP3    H257063   6.260   2.873   1.110
11858TIP3   OH257064   6.889   3.340   1.160
11858TIP3    H157065   6.865   3.414   1.216
11858TIP3    H257066   6.839   3.266   1.195
11859TIP3   OH257067   6.355   3.222   1.541
11859TIP3    H157068   6.291   3.277   1.586
11859TIP3    H257069   6.311   3.195   1.460
11860TIP3   OH257070   6.946   2.788   0.270
11860TIP3    H157071   6.992   2.822   0.347
11860TIP3    H257072   6.991   2.829   0.196
11861TIP3   OH257073   6.030   2.810   1.506
11861TIP3    H157074   6.042   2.894   1.550
11861TIP3    H257075   5.939   2.811   1.476
11862TIP3   OH257076   6.699   3.422   0.614
11862TIP3    H157077   6.763   3.459   0.674
11862TIP3    H257078   6.660   3.497   0.570
11863TIP3   OH257079   6.153   3.396   1.613
11863TIP3    H157080   6.154   3.432   1.525
11863TIP3    H257081   6.060   3.392   1.636
11864TIP3   OH257082   7.273   1.879   0.296
11864TIP3    H157083   7.190   1.917   0.323
11864TIP3    H257084   7.294   1.922   0.214
11865TIP3   OH257085   6.130   2.812   0.431
11865TIP3    H157086   6.073   2.883   0.402
11865TIP3    H257087   6.074   2.734   0.429
11866TIP3   OH257088   5.727   3.062   1.364
11866TIP3    H157089   5.673   3.070   1.286
11866TIP3    H257090   5.741   2.968   1.375
11867TIP3   OH257091   5.688   3.358   1.060
11867TIP3    H157092   5.767   3.365   1.115
11867TIP3    H257093   5.637   3.436   1.081
11868TIP3   OH257094   6.589   3.355   1.491
11868TIP3    H157095   6.583   3.438   1.538
11868TIP3    H257096   6.506   3.311   1.509
11869TIP3   OH257097   6.681   3.695   0.486
11869TIP3    H157098   6.667   3.719   0.395
11869TIP3    H257099   6.651   3.771   0.536
11870TIP3   OH257100   6.028   3.582   0.659
11870TIP3    H157101   6.042   3.551   0.748
11870TIP3    H257102   5.968   3.519   0.620
11871TIP3   OH257103   6.996   3.652   0.126
11871TIP3    H157104   7.052   3.577   0.110
11871TIP3    H257105   6.980   3.650   0.220
11872TIP3   OH257106   6.933   3.616   0.405
11872TIP3    H157107   6.843   3.630   0.435
11872TIP3    H257108   6.963   3.539   0.454
11873TIP3   OH257109   7.180   2.556   1.684
11873TIP3    H157110   7.146   2.587   1.600
11873TIP3    H257111   7.259   2.507   1.661
11874TIP3   OH257112   5.951   3.213   1.420
11874TIP3    H157113   5.975   3.179   1.506
11874TIP3    H257114   5.871   3.165   1.397
11875TIP3   OH257115   6.205   2.023   1.061
11875TIP3    H157116   6.130   2.011   1.003
11875TIP3    H257117   6.181   2.096   1.117
11876TIP3   OH257118   6.678   1.996   1.406
11876TIP3    H157119   6.724   1.949   1.475
11876TIP3    H257120   6.586   1.991   1.430
11877TIP3   OH257121   6.994   2.360   1.483
11877TIP3    H157122   6.927   2.346   1.550
11877TIP3    H257123   6.998   2.455   1.473
11878TIP3   OH257124   7.092   2.915   0.071
11878TIP3    H157125   7.087   2.973  -0.005
11878TIP3    H257126   7.138   2.965   0.138
11879TIP3   OH257127   6.677   2.232   0.122
11879TIP3    H157128   6.601   2.223   0.180
11879TIP3    H257129   6.641   2.227   0.034
11880TIP3   OH257130   6.214   2.551   1.176
11880TIP3    H157131   6.148   2.549   1.246
11880TIP3    H257132   6.215   2.641   1.146
11881TIP3   OH257133   6.213   2.545   0.668
11881TIP3    H157134   6.118   2.535   0.667
11881TIP3    H257135   6.240   2.527   0.577
11882TIP3   OH257136   6.750   2.579   0.546
11882TIP3    H157137   6.730   2.668   0.515
11882TIP3    H257138   6.823   2.551   0.490
11883TIP3   OH257139   6.673   2.589   1.653
11883TIP3    H157140   6.622   2.518   1.693
11883TIP3    H257141   6.758   2.583   1.695
11884TIP3   OH257142   6.845   2.515   0.798
11884TIP3    H157143   6.799   2.560   0.728
11884TIP3    H257144   6.894   2.445   0.754
11885TIP3   OH257145   6.002   2.551   1.351
11885TIP3    H157146   5.998   2.598   1.434
11885TIP3    H257147   5.960   2.467   1.370
11886TIP3   OH257148   6.374   2.315   0.040
11886TIP3    H157149   6.350   2.278   0.124
11886TIP3    H257150   6.365   2.410   0.051
11887TIP3   OH257151   5.663   2.248   0.739
11887TIP3    H157152   5.723   2.255   0.813
11887TIP3    H257153   5.719   2.234   0.663
11888TIP3   OH257154   5.725   2.363   0.251
11888TIP3    H157155   5.800   2.401   0.205
11888TIP3    H257156   5.668   2.438   0.271
11889TIP3   OH257157   6.816   2.664   1.258
11889TIP3    H157158   6.851   2.605   1.192
11889TIP3    H257159   6.748   2.613   1.302
11890TIP3   OH257160   6.513   2.275   0.757
11890TIP3    H157161   6.422   2.278   0.786
11890TIP3    H257162   6.562   2.239   0.831
11891TIP3   OH257163   5.953   2.462   0.642
11891TIP3    H157164   5.880   2.493   0.588
11891TIP3    H257165   5.967   2.372   0.613
11892TIP3   OH257166   6.276   2.468   0.411
11892TIP3    H157167   6.371   2.465   0.422
11892TIP3    H257168   6.263   2.505   0.324
11893TIP3   OH257169   6.882   2.210   1.077
11893TIP3    H157170   6.845   2.220   1.165
11893TIP3    H257171   6.809   2.178   1.024
11894TIP3   OH257172   6.205   2.536   0.155
11894TIP3    H157173   6.112   2.531   0.134
11894TIP3    H257174   6.243   2.591   0.086
11895TIP3   OH257175   7.225   3.804   1.784
11895TIP3    H157176   7.295   3.852   1.739
11895TIP3    H257177   7.236   3.827   1.877
11896TIP3   OH257178   6.024   3.048   1.655
11896TIP3    H157179   6.087   3.048   1.726
11896TIP3    H257180   5.939   3.055   1.699
11897TIP3   OH257181   6.585   2.592   0.952
11897TIP3    H157182   6.651   2.537   0.909
11897TIP3    H257183   6.552   2.538   1.023
11898TIP3   OH257184   6.053   2.195   0.601
11898TIP3    H157185   6.002   2.118   0.628
11898TIP3    H257186   6.084   2.174   0.513
11899TIP3   OH257187   6.475   2.455   1.171
11899TIP3    H157188   6.390   2.499   1.181
11899TIP3    H257189   6.525   2.482   1.249
11900TIP3   OH257190   6.529   3.010   0.355
11900TIP3    H157191   6.459   2.967   0.306
11900TIP3    H257192   6.486   3.044   0.433
11901TIP3   OH257193   7.189   2.973   1.195
11901TIP3    H157194   7.268   2.943   1.150
11901TIP3    H257195   7.119   2.960   1.131
11902TIP3   OH257196   6.916   2.287   0.237
11902TIP3    H157197   6.835   2.275   0.188
11902TIP3    H257198   6.915   2.379   0.264
11903TIP3   OH257199   6.653   3.060   1.502
11903TIP3    H157200   6.680   3.024   1.586
11903TIP3    H257201   6.624   3.149   1.522
11904TIP3   OH257202   6.960   2.526   0.371
11904TIP3    H157203   7.048   2.497   0.396
11904TIP3    H257204   6.974   2.613   0.333
11905TIP3   OH257205   6.038   2.950   0.891
11905TIP3    H157206   6.096   2.945   0.816
11905TIP3    H257207   6.081   2.897   0.959
11906TIP3   OH257208   6.742   3.162   0.275
11906TIP3    H157209   6.699   3.247   0.281
11906TIP3    H257210   6.672   3.099   0.295
11907TIP3   OH257211   5.754   2.796   1.456
11907TIP3    H157212   5.735   2.760   1.542
11907TIP3    H257213   5.679   2.769   1.402
11908TIP3   OH257214   6.468   2.781   1.677
11908TIP3    H157215   6.398   2.743   1.624
11908TIP3    H257216   6.545   2.728   1.657
11909TIP3   OH257217   6.873   3.342   1.496
11909TIP3    H157218   6.780   3.347   1.472
11909TIP3    H257219   6.873   3.352   1.591
11910TIP3   OH257220   7.229   3.409   0.435
11910TIP3    H157221   7.185   3.346   0.492
11910TIP3    H257222   7.235   3.367   0.350
11911TIP3   OH257223   6.997   2.924   0.996
11911TIP3    H157224   6.902   2.910   1.003
11911TIP3    H257225   7.028   2.847   0.948
11912TIP3   OH257226   6.301   3.327   0.694
11912TIP3    H157227   6.318   3.412   0.652
11912TIP3    H257228   6.207   3.328   0.711
11913TIP3   OH257229   5.850   2.776   0.184
11913TIP3    H157230   5.887   2.850   0.232
11913TIP3    H257231   5.755   2.789   0.190
11914TIP3   OH257232   6.387   3.095   0.570
11914TIP3    H157233   6.368   3.180   0.609
11914TIP3    H257234   6.329   3.034   0.616
11915TIP3   OH257235   6.488   3.500   1.270
11915TIP3    H157236   6.548   3.572   1.250
11915TIP3    H257237   6.536   3.444   1.330
11916TIP3   OH257238   6.293   3.587   0.581
11916TIP3    H157239   6.200   3.599   0.600
11916TIP3    H257240   6.336   3.662   0.622
11917TIP3   OH257241   6.771   3.106   1.257
11917TIP3    H157242   6.727   3.089   1.341
11917TIP3    H257243   6.847   3.048   1.258
11918TIP3   OH257244   6.993   3.200   0.157
11918TIP3    H157245   7.052   3.153   0.216
11918TIP3    H257246   6.906   3.189   0.196
11919TIP3   OH257247   7.094   3.522   1.466
11919TIP3    H157248   7.016   3.467   1.461
11919TIP3    H257249   7.080   3.590   1.400
11920TIP3   OH257250   5.884   2.295   1.389
11920TIP3    H157251   5.793   2.322   1.372
11920TIP3    H257252   5.877   2.234   1.462
11921TIP3   OH257253   7.179   3.051   0.304
11921TIP3    H157254   7.147   2.999   0.378
11921TIP3    H257255   7.264   3.084   0.333
11922TIP3   OH257256   5.882   3.466   1.259
11922TIP3    H157257   5.910   3.390   1.309
11922TIP3    H257258   5.892   3.540   1.319
11923TIP3   OH257259   6.282   3.302   0.266
11923TIP3    H157260   6.352   3.248   0.301
11923TIP3    H257261   6.309   3.392   0.283
11924TIP3   OH257262   5.954   2.998   0.320
11924TIP3    H157263   5.885   3.048   0.365
11924TIP3    H257264   5.998   3.064   0.266
11925TIP3   OH257265   6.787   2.240   1.331
11925TIP3    H157266   6.859   2.260   1.390
11925TIP3    H257267   6.749   2.159   1.365
11926TIP3   OH257268   6.847   2.179   0.478
11926TIP3    H157269   6.867   2.216   0.392
11926TIP3    H257270   6.890   2.238   0.540
11927TIP3   OH257271   6.606   3.394   0.298
11927TIP3    H157272   6.529   3.447   0.320
11927TIP3    H257273   6.656   3.449   0.237
11928TIP3   OH257274   6.534   2.412   0.513
11928TIP3    H157275   6.608   2.473   0.521
11928TIP3    H257276   6.523   2.376   0.601
11929TIP3   OH257277   6.647   2.489   1.388
11929TIP3    H157278   6.651   2.516   1.480
11929TIP3    H257279   6.685   2.401   1.387
11930TIP3   OH257280   6.607   2.090   0.574
11930TIP3    H157281   6.579   2.160   0.634
11930TIP3    H257282   6.691   2.119   0.540
11931TIP3   OH257283   6.380   3.553   0.323
11931TIP3    H157284   6.379   3.640   0.283
11931TIP3    H257285   6.349   3.568   0.413
11932TIP3   OH257286   6.217   2.223   0.279
11932TIP3    H157287   6.209   2.307   0.323
11932TIP3    H257288   6.304   2.191   0.304
11933TIP3   OH257289   7.242   2.227   1.465
11933TIP3    H157290   7.153   2.261   1.461
11933TIP3    H257291   7.290   2.294   1.514
11934TIP3   OH257292   7.070   2.671   0.892
11934TIP3    H157293   6.987   2.630   0.865
11934TIP3    H257294   7.096   2.623   0.970
11935TIP3   OH257295   6.055   3.194   0.150
11935TIP3    H157296   6.110   3.252   0.202
11935TIP3    H257297   6.117   3.145   0.096
11936TIP3   OH257298   5.925   2.526   0.095
11936TIP3    H157299   5.899   2.613   0.125
11936TIP3    H257300   5.899   2.524   0.003
11937TIP3   OH257301   7.246   3.615   1.063
11937TIP3    H157302   7.258   3.681   0.995
11937TIP3    H257303   7.324   3.559   1.056
11938TIP3   OH257304   5.961   1.991   0.937
11938TIP3    H157305   5.944   1.982   0.843
11938TIP3    H257306   5.934   1.906   0.973
11939TIP3   OH257307   5.824   3.419   0.551
11939TIP3    H157308   5.772   3.446   0.626
11939TIP3    H257309   5.801   3.480   0.481
11940TIP3   OH257310   5.811   3.681   1.741
11940TIP3    H157311   5.875   3.661   1.809
11940TIP3    H257312   5.787   3.595   1.705
11941TIP3   OH257313   6.232   3.496   1.859
11941TIP3    H157314   6.309   3.444   1.882
11941TIP3    H257315   6.206   3.465   1.773
11942TIP3   OH257316   6.744   3.533   0.110
11942TIP3    H157317   6.708   3.490   0.032
11942TIP3    H257318   6.834   3.555   0.086
11943TIP3   OH257319   6.869   3.367   1.768
11943TIP3    H157320   6.860   3.285   1.815
11943TIP3    H257321   6.945   3.410   1.809
11944TIP3   OH257322   7.108   3.423   0.042
11944TIP3    H157323   7.067   3.346   0.081
11944TIP3    H257324   7.159   3.388  -0.031
11945TIP3   OH257325   5.775   3.045   1.777
11945TIP3    H157326   5.771   2.950   1.775
11945TIP3    H257327   5.699   3.074   1.727
11946TIP3   OH257328   6.256   3.049   0.033
11946TIP3    H157329   6.287   2.996   0.107
11946TIP3    H257330   6.252   2.987  -0.040
11947TIP3   OH257331   6.441   3.057   1.745
11947TIP3    H157332   6.418   3.100   1.663
11947TIP3    H257333   6.462   2.967   1.720
11948TIP3   OH257334   6.968   3.076   1.513
11948TIP3    H157335   7.060   3.088   1.487
11948TIP3    H257336   6.929   3.163   1.500
11949TIP3   OH257337   5.838   2.769   1.753
11949TIP3    H157338   5.930   2.757   1.728
11949TIP3    H257339   5.839   2.769   1.848
11950TIP3   OH257340   6.328   2.867   0.231
11950TIP3    H157341   6.267   2.835   0.297
11950TIP3    H257342   6.357   2.789   0.183
11951TIP3   OH257343   6.276   2.670   1.498
11951TIP3    H157344   6.195   2.721   1.497
11951TIP3    H257345   6.330   2.709   1.430
11952TIP3   OH257346   6.444   2.675   0.053
11952TIP3    H157347   6.447   2.685  -0.042
11952TIP3    H257348   6.536   2.673   0.080
11953TIP3   OH257349   6.764   2.917   1.778
11953TIP3    H157350   6.840   2.880   1.734
11953TIP3    H257351   6.734   2.848   1.838
11954TIP3   OH257352   6.311   2.405   1.566
11954TIP3    H157353   6.320   2.351   1.487
11954TIP3    H257354   6.301   2.494   1.532
11955TIP3   OH257355   6.346   2.249   1.329
11955TIP3    H157356   6.397   2.299   1.266
11955TIP3    H257357   6.258   2.245   1.291
11956TIP3   OH257358   6.455   2.789   1.330
11956TIP3    H157359   6.540   2.819   1.362
11956TIP3    H257360   6.420   2.864   1.282
11957TIP3   OH257361   6.916   2.540   1.801
11957TIP3    H157362   6.919   2.445   1.812
11957TIP3    H257363   7.003   2.563   1.770
11958TIP3   OH257364   7.011   2.849   1.654
11958TIP3    H157365   6.982   2.926   1.606
11958TIP3    H257366   7.106   2.854   1.654
11959TIP3   OH257367   6.144   2.454   1.787
11959TIP3    H157368   6.062   2.407   1.776
11959TIP3    H257369   6.190   2.442   1.704
11960TIP3   OH257370   6.396   1.983   1.403
11960TIP3    H157371   6.379   2.075   1.382
11960TIP3    H257372   6.326   1.935   1.359
11961TIP3   OH257373   6.528   2.369   1.735
11961TIP3    H157374   6.491   2.342   1.819
11961TIP3    H257375   6.452   2.375   1.676
11962TIP3   OH257376   6.786   2.299   1.650
11962TIP3    H157377   6.696   2.310   1.680
11962TIP3    H257378   6.830   2.255   1.722
11963TIP3   OH257379   6.954   2.207   1.851
11963TIP3    H157380   6.946   2.112   1.842
11963TIP3    H257381   6.932   2.225   1.942
11964TIP3   OH257382   5.933   2.267   1.757
11964TIP3    H157383   5.934   2.185   1.707
11964TIP3    H257384   5.944   2.240   1.848
11965TIP3   OH257385   6.382   1.893   1.664
11965TIP3    H157386   6.442   1.819   1.656
11965TIP3    H257387   6.379   1.930   1.575
11966TIP3   OH257388   6.465   2.053   1.874
11966TIP3    H157389   6.438   2.001   1.798
11966TIP3    H257390   6.404   2.127   1.874
11967TIP3   OH257391   6.413   3.775   0.161
11967TIP3    H157392   6.503   3.789   0.191
11967TIP3    H257393   6.416   3.790   0.067
11968TIP3   OH257394   5.780   3.246   0.089
11968TIP3    H157395   5.874   3.240   0.107
11968TIP3    H257396   5.774   3.243  -0.007
11969TIP3   OH257397   5.661   3.737   0.654
11969TIP3    H157398   5.606   3.713   0.580
11969TIP3    H257399   5.673   3.656   0.703
11970TIP3   OH257400   5.729   3.511   0.807
11970TIP3    H157401   5.694   3.435   0.853
11970TIP3    H257402   5.776   3.561   0.874
11971TIP3   OH257403   7.267   3.225   1.846
11971TIP3    H157404   7.190   3.210   1.901
11971TIP3    H257405   7.335   3.254   1.907
11972TIP3   OH257406   7.267   3.339   1.338
11972TIP3    H157407   7.216   3.405   1.386
11972TIP3    H257408   7.227   3.337   1.251
11973TIP3   OH257409   7.282   2.457  16.015
11973TIP3    H157410   7.292   2.510  15.936
11973TIP3    H257411   7.189   2.460  16.034
11974TIP3   OH257412   7.188   2.668   0.639
11974TIP3    H157413   7.169   2.576   0.624
11974TIP3    H257414   7.163   2.684   0.730
11975TIP3   OH257415   5.712   2.861   1.077
11975TIP3    H157416   5.724   2.851   0.983
11975TIP3    H257417   5.796   2.836   1.115
11976TIP3   OH257418   7.277   2.905   1.635
11976TIP3    H157419   7.334   2.846   1.585
11976TIP3    H257420   7.262   2.979   1.576
11977TIP3   OH257421   7.202   2.404   0.461
11977TIP3    H157422   7.218   2.312   0.486
11977TIP3    H257423   7.276   2.426   0.405
11978TIP3   OH257424   7.274   2.333   1.054
11978TIP3    H157425   7.358   2.303   1.020
11978TIP3    H257426   7.288   2.425   1.074
11979TIP3   OH257427   7.280   2.573   1.367
11979TIP3    H157428   7.187   2.594   1.372
11979TIP3    H257429   7.299   2.569   1.273
11980TIP3   OH257430   5.711   2.392   1.649
11980TIP3    H157431   5.794   2.366   1.690
11980TIP3    H257432   5.653   2.318   1.662
11981TIP3   OH257433   7.220   2.130   0.527
11981TIP3    H157434   7.265   2.059   0.573
11981TIP3    H257435   7.148   2.088   0.481
11982TIP3   OH257436   5.835   2.239   0.956
11982TIP3    H157437   5.872   2.151   0.961
11982TIP3    H257438   5.909   2.297   0.975
11983TIP3   OH257439   5.631   2.519   1.036
11983TIP3    H157440   5.702   2.520   0.971
11983TIP3    H257441   5.654   2.589   1.097
11984TIP3   OH257442   5.693   2.157   0.435
11984TIP3    H157443   5.599   2.158   0.450
11984TIP3    H257444   5.710   2.231   0.378
11985TIP3   OH257445   7.163   3.570   0.655
11985TIP3    H157446   7.190   3.530   0.573
11985TIP3    H257447   7.244   3.578   0.705
11986TIP3   OH257448   5.681   1.987   1.280
11986TIP3    H157449   5.616   1.981   1.350
11986TIP3    H257450   5.656   2.065   1.230
11987TIP3   OH257451   5.889   3.389   1.700
11987TIP3    H157452   5.800   3.389   1.663
11987TIP3    H257453   5.878   3.355   1.789
11988TIP3   OH257454   6.224   3.480   1.349
11988TIP3    H157455   6.193   3.567   1.327
11988TIP3    H257456   6.318   3.482   1.330
11989TIP3   OH257457   6.582   3.598   1.621
11989TIP3    H157458   6.592   3.568   1.711
11989TIP3    H257459   6.661   3.650   1.604
11990TIP3   OH257460   6.819   3.734   1.586
11990TIP3    H157461   6.887   3.677   1.550
11990TIP3    H257462   6.857   3.768   1.667
11991TIP3   OH257463   5.920   3.762   1.371
11991TIP3    H157464   5.842   3.799   1.331
11991TIP3    H257465   5.929   3.808   1.455
11992TIP3   OH257466   6.179   3.744   1.283
11992TIP3    H157467   6.088   3.752   1.312
11992TIP3    H257468   6.181   3.790   1.199
11993TIP3   OH257469   6.637   3.720   1.176
11993TIP3    H157470   6.570   3.753   1.116
11993TIP3    H257471   6.644   3.788   1.243
11994TIP3   OH257472   6.856   3.589   1.279
11994TIP3    H157473   6.780   3.636   1.245
11994TIP3    H257474   6.930   3.649   1.266
11995TIP3   OH257475   7.096   3.729   1.262
11995TIP3    H157476   7.088   3.819   1.230
11995TIP3    H257477   7.148   3.684   1.196
11996TIP3   OH257478   5.885   3.620   1.021
11996TIP3    H157479   5.875   3.574   1.105
11996TIP3    H257480   5.963   3.582   0.982
11997TIP3   OH257481   6.101   3.496   0.912
11997TIP3    H157482   6.089   3.403   0.932
11997TIP3    H257483   6.187   3.517   0.949
11998TIP3   OH257484   6.361   3.523   1.023
11998TIP3    H157485   6.371   3.434   0.990
11998TIP3    H257486   6.392   3.519   1.113
11999TIP3   OH257487   6.671   2.107   0.923
11999TIP3    H157488   6.603   2.043   0.944
11999TIP3    H257489   6.736   2.056   0.874
12000TIP3   OH257490   7.140   1.950   0.868
12000TIP3    H157491   7.168   2.042   0.868
12000TIP3    H257492   7.044   1.955   0.862
12001TIP3   OH257493   5.915   1.963   0.665
12001TIP3    H157494   5.822   1.950   0.648
12001TIP3    H257495   5.955   1.876   0.652
12002TIP3   OH257496   5.802   1.952   0.264
12002TIP3    H157497   5.875   2.000   0.225
12002TIP3    H257498   5.763   2.014   0.326
12003TIP3   OH257499   6.402   1.933   0.689
12003TIP3    H157500   6.467   1.987   0.645
12003TIP3    H257501   6.422   1.943   0.782
12004TIP3   OH257502   6.866   1.952   0.800
12004TIP3    H157503   6.877   1.939   0.706
12004TIP3    H257504   6.839   1.866   0.833
12005TIP3   OH257505   7.031   1.979   0.405
12005TIP3    H157506   6.956   2.038   0.417
12005TIP3    H257507   6.992   1.891   0.405
12006TIP3   OH257508   5.769   3.586   0.341
12006TIP3    H157509   5.691   3.584   0.284
12006TIP3    H257510   5.815   3.666   0.317
12007TIP3   OH257511   6.019   2.077   0.145
12007TIP3    H157512   6.069   2.051   0.068
12007TIP3    H257513   6.080   2.129   0.198
12008TIP3   OH257514   6.489   2.206   0.335
12008TIP3    H157515   6.519   2.133   0.389
12008TIP3    H257516   6.508   2.284   0.388
12009TIP3   OH257517   6.683   3.776   0.221
12009TIP3    H157518   6.738   3.840   0.176
12009TIP3    H257519   6.705   3.692   0.179
12010TIP3   OH257520   5.934   2.018   1.619
12010TIP3    H157521   5.876   1.949   1.649
12010TIP3    H257522   6.015   2.004   1.668
12011TIP3   OH257523   6.137   1.953   1.794
12011TIP3    H157524   6.222   1.923   1.759
12011TIP3    H257525   6.102   1.875   1.838
12012TIP3   OH257526   5.988   3.662  -0.003
12012TIP3    H157527   5.919   3.728   0.008
12012TIP3    H257528   5.983   3.610   0.077
12013TIP3   OH257529   6.957   1.931   1.820
12013TIP3    H157530   6.948   1.881   1.901
12013TIP3    H257531   7.048   1.921   1.795
12014TIP3   OH257532   7.276   3.549   1.684
12014TIP3    H157533   7.217   3.530   1.611
12014TIP3    H257534   7.244   3.632   1.720
12015TIP3   OH257535   1.202   4.808   0.651
12015TIP3    H157536   1.167   4.897   0.662
12015TIP3    H257537   1.138   4.765   0.594
12016TIP3   OH257538   1.083   4.709   1.047
12016TIP3    H157539   1.103   4.675   1.134
12016TIP3    H257540   1.031   4.640   1.005
12017TIP3   OH257541   0.294   4.656   1.169
12017TIP3    H157542   0.299   4.573   1.217
12017TIP3    H257543   0.382   4.693   1.178
12018TIP3   OH257544   1.367   5.031   0.893
12018TIP3    H157545   1.366   4.942   0.929
12018TIP3    H257546   1.425   5.080   0.951
12019TIP3   OH257547   0.407   5.105   0.969
12019TIP3    H157548   0.385   5.015   0.944
12019TIP3    H257549   0.497   5.099   1.001
12020TIP3   OH257550   0.118   4.523   0.568
12020TIP3    H157551   0.137   4.590   0.633
12020TIP3    H257552   0.023   4.518   0.564
12021TIP3   OH257553   0.179   4.679   0.792
12021TIP3    H157554   0.197   4.594   0.834
12021TIP3    H257555   0.251   4.735   0.819
12022TIP3   OH257556   1.168   5.499   0.885
12022TIP3    H157557   1.248   5.449   0.872
12022TIP3    H257558   1.156   5.501   0.980
12023TIP3   OH257559   0.946   4.963   1.036
12023TIP3    H157560   0.977   4.875   1.015
12023TIP3    H257561   1.004   4.993   1.106
12024TIP3   OH257562   1.813   4.099   1.162
12024TIP3    H157563   1.826   4.169   1.226
12024TIP3    H257564   1.871   4.121   1.089
12025TIP3   OH257565   1.228   4.389   1.069
12025TIP3    H157566   1.235   4.295   1.084
12025TIP3    H257567   1.216   4.398   0.974
12026TIP3   OH257568   0.595   4.190   0.791
12026TIP3    H157569   0.596   4.277   0.752
12026TIP3    H257570   0.548   4.136   0.726
12027TIP3   OH257571   1.372   4.223   0.660
12027TIP3    H157572   1.414   4.181   0.735
12027TIP3    H257573   1.444   4.261   0.610
12028TIP3   OH257574   0.204   4.419   0.895
12028TIP3    H157575   0.288   4.378   0.918
12028TIP3    H257576   0.168   4.362   0.827
12029TIP3   OH257577   0.712   4.598   0.846
12029TIP3    H157578   0.795   4.562   0.876
12029TIP3    H257579   0.676   4.531   0.788
12030TIP3   OH257580   1.841   4.271   1.379
12030TIP3    H157581   1.770   4.333   1.362
12030TIP3    H257582   1.865   4.287   1.470
12031TIP3   OH257583   0.425   4.121   1.230
12031TIP3    H157584   0.397   4.175   1.156
12031TIP3    H257585   0.357   4.132   1.295
12032TIP3   OH257586   1.112   5.071   0.618
12032TIP3    H157587   1.135   5.055   0.527
12032TIP3    H257588   1.054   5.148   0.615
12033TIP3   OH257589   0.708   4.896   1.190
12033TIP3    H157590   0.652   4.963   1.229
12033TIP3    H257591   0.770   4.945   1.137
12034TIP3   OH257592   1.458   4.136   0.913
12034TIP3    H157593   1.379   4.132   0.968
12034TIP3    H257594   1.511   4.205   0.954
12035TIP3   OH257595   0.422   4.275   0.993
12035TIP3    H157596   0.476   4.333   1.047
12035TIP3    H257597   0.483   4.238   0.930
12036TIP3   OH257598   0.548   5.090   1.307
12036TIP3    H157599   0.556   5.185   1.303
12036TIP3    H257600   0.461   5.074   1.342
12037TIP3   OH257601   0.091   5.043   0.392
12037TIP3    H157602   0.110   5.083   0.307
12037TIP3    H257603   0.120   5.108   0.456
12038TIP3   OH257604   1.469   5.231   1.080
12038TIP3    H157605   1.374   5.241   1.073
12038TIP3    H257606   1.503   5.316   1.050
12039TIP3   OH257607   1.568   3.982   1.239
12039TIP3    H157608   1.501   4.039   1.202
12039TIP3    H257609   1.650   4.014   1.202
12040TIP3   OH257610   0.784   3.806   0.994
12040TIP3    H157611   0.754   3.715   0.998
12040TIP3    H257612   0.708   3.857   1.023
12041TIP3   OH257613   1.363   5.327   0.774
12041TIP3    H157614   1.402   5.257   0.721
12041TIP3    H257615   1.399   5.407   0.737
12042TIP3   OH257616   1.431   5.112   0.623
12042TIP3    H157617   1.461   5.074   0.541
12042TIP3    H257618   1.435   5.040   0.686
12043TIP3   OH257619   1.600   5.015   1.426
12043TIP3    H157620   1.593   4.955   1.351
12043TIP3    H257621   1.613   5.101   1.387
12044TIP3   OH257622   1.059   4.711   0.434
12044TIP3    H157623   0.989   4.771   0.409
12044TIP3    H257624   1.123   4.718   0.364
12045TIP3   OH257625   1.064   4.568   0.109
12045TIP3    H157626   1.119   4.589   0.184
12045TIP3    H257627   1.124   4.571   0.034
12046TIP3   OH257628   1.762   4.665   1.270
12046TIP3    H157629   1.690   4.727   1.262
12046TIP3    H257630   1.825   4.692   1.203
12047TIP3   OH257631   1.421   4.753   0.499
12047TIP3    H157632   1.351   4.770   0.561
12047TIP3    H257633   1.484   4.698   0.548
12048TIP3   OH257634   1.374   4.531   1.460
12048TIP3    H157635   1.374   4.606   1.519
12048TIP3    H257636   1.309   4.553   1.393
12049TIP3   OH257637   0.571   4.784   0.691
12049TIP3    H157638   0.545   4.742   0.609
12049TIP3    H257639   0.626   4.720   0.735
12050TIP3   OH257640   0.710   5.109   0.958
12050TIP3    H157641   0.701   5.132   0.865
12050TIP3    H257642   0.794   5.063   0.963
12051TIP3   OH257643   0.571   4.692   1.067
12051TIP3    H157644   0.626   4.666   0.993
12051TIP3    H257645   0.622   4.761   1.111
12052TIP3   OH257646   1.183   5.212   1.052
12052TIP3    H157647   1.180   5.294   1.101
12052TIP3    H257648   1.163   5.145   1.117
12053TIP3   OH257649   0.698   5.108   1.542
12053TIP3    H157650   0.634   5.163   1.586
12053TIP3    H257651   0.656   5.081   1.461
12054TIP3   OH257652   1.288   4.681   0.269
12054TIP3    H157653   1.337   4.711   0.346
12054TIP3    H257654   1.331   4.724   0.195
12055TIP3   OH257655   0.419   4.724   1.482
12055TIP3    H157656   0.413   4.798   1.542
12055TIP3    H257657   0.328   4.699   1.465
12056TIP3   OH257658   1.054   5.333   0.693
12056TIP3    H157659   1.068   5.406   0.754
12056TIP3    H257660   1.032   5.375   0.610
12057TIP3   OH257661   0.495   5.284   1.612
12057TIP3    H157662   0.505   5.317   1.522
12057TIP3    H257663   0.400   5.286   1.627
12058TIP3   OH257664   1.643   3.829   0.232
12058TIP3    H157665   1.565   3.861   0.277
12058TIP3    H257666   1.691   3.908   0.207
12059TIP3   OH257667   0.479   4.686   0.438
12059TIP3    H157668   0.420   4.755   0.406
12059TIP3    H257669   0.423   4.610   0.449
12060TIP3   OH257670   1.765   5.264   0.122
12060TIP3    H157671   1.789   5.356   0.120
12060TIP3    H257672   1.847   5.217   0.108
12061TIP3   OH257673   0.163   4.888   1.321
12061TIP3    H157674   0.099   4.897   1.251
12061TIP3    H257675   0.171   4.793   1.335
12062TIP3   OH257676   0.140   5.214   0.971
12062TIP3    H157677   0.225   5.170   0.977
12062TIP3    H257678   0.109   5.220   1.061
12063TIP3   OH257679   1.849   5.293   1.633
12063TIP3    H157680   1.835   5.199   1.628
12063TIP3    H257681   1.766   5.329   1.663
12064TIP3   OH257682   0.932   5.244   1.489
12064TIP3    H157683   0.931   5.327   1.538
12064TIP3    H257684   0.848   5.203   1.510
12065TIP3   OH257685   1.039   5.568   0.510
12065TIP3    H157686   1.024   5.598   0.421
12065TIP3    H257687   0.975   5.615   0.563
12066TIP3   OH257688   0.373   5.458   0.653
12066TIP3    H157689   0.382   5.440   0.746
12066TIP3    H257690   0.315   5.389   0.620
12067TIP3   OH257691   1.327   5.517   0.138
12067TIP3    H157692   1.397   5.456   0.113
12067TIP3    H257693   1.336   5.527   0.232
12068TIP3   OH257694   1.308   5.547   0.423
12068TIP3    H157695   1.217   5.541   0.454
12068TIP3    H257696   1.360   5.526   0.500
12069TIP3   OH257697   1.553   4.415   1.661
12069TIP3    H157698   1.487   4.451   1.602
12069TIP3    H257699   1.560   4.323   1.636
12070TIP3   OH257700   0.308   5.085   1.441
12070TIP3    H157701   0.326   5.045   1.526
12070TIP3    H257702   0.248   5.025   1.398
12071TIP3   OH257703   0.546   3.924   1.072
12071TIP3    H157704   0.476   3.916   1.007
12071TIP3    H257705   0.518   3.996   1.129
12072TIP3   OH257706   1.025   3.878   1.409
12072TIP3    H157707   1.072   3.833   1.479
12072TIP3    H257708   0.933   3.873   1.435
12073TIP3   OH257709   1.311   4.257   1.471
12073TIP3    H157710   1.251   4.242   1.544
12073TIP3    H257711   1.319   4.353   1.467
12074TIP3   OH257712   1.425   4.798   0.057
12074TIP3    H157713   1.397   4.872   0.003
12074TIP3    H257714   1.521   4.804   0.058
12075TIP3   OH257715   1.026   4.123   0.112
12075TIP3    H157716   0.949   4.115   0.169
12075TIP3    H257717   0.991   4.117   0.023
12076TIP3   OH257718   0.553   4.438   1.179
12076TIP3    H157719   0.487   4.439   1.248
12076TIP3    H257720   0.557   4.528   1.147
12077TIP3   OH257721   0.583   4.434   0.666
12077TIP3    H157722   0.489   4.419   0.662
12077TIP3    H257723   0.614   4.418   0.576
12078TIP3   OH257724   1.107   4.465   0.545
12078TIP3    H157725   1.081   4.551   0.514
12078TIP3    H257726   1.179   4.439   0.487
12079TIP3   OH257727   1.020   4.473   1.659
12079TIP3    H157728   0.969   4.402   1.696
12079TIP3    H257729   1.104   4.469   1.705
12080TIP3   OH257730   1.204   4.397   0.797
12080TIP3    H157731   1.158   4.440   0.725
12080TIP3    H257732   1.253   4.327   0.754
12081TIP3   OH257733   0.320   4.433   1.343
12081TIP3    H157734   0.266   4.492   1.396
12081TIP3    H257735   0.300   4.345   1.376
12082TIP3   OH257736   0.715   4.191   0.059
12082TIP3    H157737   0.707   4.140   0.140
12082TIP3    H257738   0.684   4.278   0.083
12083TIP3   OH257739   0.072   4.222   0.743
12083TIP3    H157740  -0.012   4.178   0.754
12083TIP3    H257741   0.103   4.193   0.658
12084TIP3   OH257742   0.083   4.290   0.263
12084TIP3    H157743   0.171   4.316   0.238
12084TIP3    H257744   0.032   4.297   0.182
12085TIP3   OH257745   1.165   4.556   1.272
12085TIP3    H157746   1.194   4.500   1.201
12085TIP3    H257747   1.093   4.508   1.314
12086TIP3   OH257748   0.869   4.157   0.749
12086TIP3    H157749   0.779   4.166   0.780
12086TIP3    H257750   0.917   4.124   0.824
12087TIP3   OH257751   0.330   4.352   0.616
12087TIP3    H157752   0.253   4.404   0.592
12087TIP3    H257753   0.310   4.264   0.586
12088TIP3   OH257754   0.640   4.363   0.407
12088TIP3    H157755   0.735   4.357   0.416
12088TIP3    H257756   0.626   4.395   0.317
12089TIP3   OH257757   1.230   4.113   1.069
12089TIP3    H157758   1.195   4.111   1.158
12089TIP3    H257759   1.161   4.077   1.014
12090TIP3   OH257760   0.572   4.414   0.146
12090TIP3    H157761   0.478   4.421   0.129
12090TIP3    H257762   0.611   4.480   0.088
12091TIP3   OH257763   1.605   5.669   1.730
12091TIP3    H157764   1.628   5.706   1.645
12091TIP3    H257765   1.679   5.690   1.786
12092TIP3   OH257766   0.359   4.927   1.670
12092TIP3    H157767   0.425   4.921   1.740
12092TIP3    H257768   0.275   4.926   1.716
12093TIP3   OH257769   0.938   4.477   0.957
12093TIP3    H157770   1.006   4.421   0.919
12093TIP3    H257771   0.902   4.425   1.029
12094TIP3   OH257772   0.467   4.059   0.586
12094TIP3    H157773   0.407   3.986   0.604
12094TIP3    H257774   0.468   4.065   0.490
12095TIP3   OH257775   0.816   4.343   1.174
12095TIP3    H157776   0.732   4.388   1.184
12095TIP3    H257777   0.867   4.371   1.250
12096TIP3   OH257778   0.872   4.901   0.362
12096TIP3    H157779   0.803   4.857   0.312
12096TIP3    H257780   0.827   4.934   0.440
12097TIP3   OH257781   1.572   4.856   1.200
12097TIP3    H157782   1.636   4.908   1.151
12097TIP3    H257783   1.504   4.836   1.136
12098TIP3   OH257784   1.263   4.176   0.235
12098TIP3    H157785   1.183   4.164   0.185
12098TIP3    H257786   1.264   4.269   0.256
12099TIP3   OH257787   1.005   4.956   1.479
12099TIP3    H157788   1.032   4.919   1.563
12099TIP3    H257789   0.969   5.042   1.501
12100TIP3   OH257790   1.316   4.417   0.368
12100TIP3    H157791   1.405   4.396   0.395
12100TIP3    H257792   1.324   4.501   0.323
12101TIP3   OH257793   0.391   4.829   0.897
12101TIP3    H157794   0.450   4.827   0.822
12101TIP3    H257795   0.436   4.780   0.965
12102TIP3   OH257796   1.105   5.050   0.331
12102TIP3    H157797   1.066   5.137   0.338
12102TIP3    H257798   1.031   4.990   0.332
12103TIP3   OH257799   0.154   4.624   1.474
12103TIP3    H157800   0.175   4.618   1.567
12103TIP3    H257801   0.061   4.649   1.472
12104TIP3   OH257802   0.814   4.666   1.678
12104TIP3    H157803   0.748   4.629   1.621
12104TIP3    H257804   0.893   4.614   1.662
12105TIP3   OH257805   1.213   5.229   1.488
12105TIP3    H157806   1.119   5.229   1.468
12105TIP3    H257807   1.218   5.239   1.583
12106TIP3   OH257808   1.771   4.456   0.317
12106TIP3    H157809   1.711   4.420   0.252
12106TIP3    H257810   1.786   4.547   0.290
12107TIP3   OH257811   1.818   5.012   1.592
12107TIP3    H157812   1.729   5.022   1.556
12107TIP3    H257813   1.873   5.001   1.515
12108TIP3   OH257814   1.640   5.287   0.369
12108TIP3    H157815   1.591   5.206   0.383
12108TIP3    H257816   1.683   5.274   0.284
12109TIP3   OH257817   1.364   4.781   1.013
12109TIP3    H157818   1.270   4.764   1.024
12109TIP3    H257819   1.397   4.703   0.968
12110TIP3   OH257820   0.631   5.210   0.707
12110TIP3    H157821   0.652   5.294   0.666
12110TIP3    H257822   0.539   5.217   0.730
12111TIP3   OH257823   0.191   4.670   0.174
12111TIP3    H157824   0.237   4.736   0.226
12111TIP3    H257825   0.098   4.686   0.193
12112TIP3   OH257826   0.726   4.985   0.576
12112TIP3    H157827   0.699   5.068   0.616
12112TIP3    H257828   0.672   4.920   0.620
12113TIP3   OH257829   0.837   5.381   1.257
12113TIP3    H157830   0.892   5.458   1.237
12113TIP3    H257831   0.887   5.333   1.324
12114TIP3   OH257832   0.640   5.464   0.589
12114TIP3    H157833   0.548   5.483   0.606
12114TIP3    H257834   0.687   5.538   0.629
12115TIP3   OH257835   1.136   5.006   1.239
12115TIP3    H157836   1.083   4.992   1.318
12115TIP3    H257837   1.219   4.963   1.258
12116TIP3   OH257838   1.359   5.096   0.177
12116TIP3    H157839   1.417   5.057   0.242
12116TIP3    H257840   1.272   5.090   0.217
12117TIP3   OH257841   1.414   5.420   1.465
12117TIP3    H157842   1.337   5.364   1.454
12117TIP3    H257843   1.406   5.485   1.395
12118TIP3   OH257844   1.834   5.528   0.164
12118TIP3    H157845   1.904   5.587   0.139
12118TIP3    H257846   1.759   5.585   0.181
12119TIP3   OH257847   0.239   4.169   1.445
12119TIP3    H157848   0.164   4.203   1.493
12119TIP3    H257849   0.268   4.093   1.496
12120TIP3   OH257850   1.521   4.985   0.386
12120TIP3    H157851   1.478   4.905   0.414
12120TIP3    H257852   1.615   4.965   0.390
12121TIP3   OH257853   0.217   5.390   1.260
12121TIP3    H157854   0.223   5.315   1.318
12121TIP3    H257855   0.231   5.466   1.317
12122TIP3   OH257856   0.647   5.182   0.251
12122TIP3    H157857   0.709   5.127   0.299
12122TIP3    H257858   0.672   5.271   0.275
12123TIP3   OH257859   0.305   4.873   0.324
12123TIP3    H157860   0.231   4.914   0.371
12123TIP3    H257861   0.347   4.946   0.278
12124TIP3   OH257862   1.125   4.120   1.320
12124TIP3    H157863   1.194   4.149   1.379
12124TIP3    H257864   1.092   4.039   1.359
12125TIP3   OH257865   1.224   4.068   0.481
12125TIP3    H157866   1.235   4.109   0.395
12125TIP3    H257867   1.268   4.127   0.542
12126TIP3   OH257868   0.968   5.285   0.360
12126TIP3    H157869   0.885   5.331   0.368
12126TIP3    H257870   1.013   5.328   0.288
12127TIP3   OH257871   0.892   4.298   0.508
12127TIP3    H157872   0.966   4.358   0.519
12127TIP3    H257873   0.878   4.262   0.596
12128TIP3   OH257874   0.989   4.379   1.392
12128TIP3    H157875   0.994   4.405   1.484
12128TIP3    H257876   1.023   4.289   1.390
12129TIP3   OH257877   0.978   3.982   0.567
12129TIP3    H157878   0.948   4.052   0.624
12129TIP3    H257879   1.066   4.009   0.540
12130TIP3   OH257880   0.731   5.429   0.334
12130TIP3    H157881   0.727   5.513   0.290
12130TIP3    H257882   0.694   5.446   0.421
12131TIP3   OH257883   0.569   4.109   0.310
12131TIP3    H157884   0.568   4.198   0.346
12131TIP3    H257885   0.658   4.078   0.327
12132TIP3   OH257886   1.567   4.176   1.513
12132TIP3    H157887   1.474   4.187   1.494
12132TIP3    H257888   1.608   4.169   1.427
12133TIP3   OH257889   1.442   4.537   0.889
12133TIP3    H157890   1.358   4.496   0.868
12133TIP3    H257891   1.485   4.475   0.948
12134TIP3   OH257892   0.400   5.088   0.170
12134TIP3    H157893   0.463   5.144   0.216
12134TIP3    H257894   0.454   5.034   0.112
12135TIP3   OH257895   0.297   4.427   0.097
12135TIP3    H157896   0.260   4.512   0.123
12135TIP3    H257897   0.260   4.411   0.010
12136TIP3   OH257898   1.567   5.489   1.043
12136TIP3    H157899   1.553   5.559   0.979
12136TIP3    H257900   1.661   5.491   1.060
12137TIP3   OH257901   0.320   3.890   0.921
12137TIP3    H157902   0.322   3.877   0.826
12137TIP3    H257903   0.287   3.808   0.956
12138TIP3   OH257904   0.175   5.271   0.539
12138TIP3    H157905   0.122   5.312   0.607
12138TIP3    H257906   0.179   5.336   0.469
12139TIP3   OH257907   0.162   5.596   1.740
12139TIP3    H157908   0.221   5.583   1.814
12139TIP3    H257909   0.151   5.509   1.701
12140TIP3   OH257910   0.573   5.376   1.860
12140TIP3    H157911   0.652   5.328   1.882
12140TIP3    H257912   0.550   5.346   1.772
12141TIP3   OH257913   1.081   5.399   0.139
12141TIP3    H157914   1.051   5.362   0.056
12141TIP3    H257915   1.170   5.428   0.121
12142TIP3   OH257916   1.221   5.253   1.760
12142TIP3    H157917   1.207   5.172   1.809
12142TIP3    H257918   1.294   5.296   1.804
12143TIP3   OH257919   1.493   5.315   0.057
12143TIP3    H157920   1.453   5.238   0.097
12143TIP3    H257921   1.587   5.298   0.064
12144TIP3   OH257922   0.123   4.922   1.822
12144TIP3    H157923   0.129   4.852   1.887
12144TIP3    H257924   0.035   4.959   1.835
12145TIP3   OH257925   0.576   4.925   0.042
12145TIP3    H157926   0.615   4.876   0.114
12145TIP3    H257927   0.585   4.867  -0.034
12146TIP3   OH257928   0.780   4.941   1.748
12146TIP3    H157929   0.759   4.986   1.666
12146TIP3    H257930   0.805   4.853   1.721
12147TIP3   OH257931   1.335   4.971   1.488
12147TIP3    H157932   1.427   4.993   1.475
12147TIP3    H257933   1.290   5.056   1.487
12148TIP3   OH257934   0.211   4.612   1.741
12148TIP3    H157935   0.284   4.553   1.761
12148TIP3    H257936   0.190   4.652   1.825
12149TIP3   OH257937   0.673   4.755   0.238
12149TIP3    H157938   0.615   4.716   0.304
12149TIP3    H257939   0.705   4.680   0.187
12150TIP3   OH257940   0.637   4.554   1.487
12150TIP3    H157941   0.559   4.609   1.486
12150TIP3    H257942   0.696   4.594   1.423
12151TIP3   OH257943   0.790   4.574   0.053
12151TIP3    H157944   0.795   4.577  -0.043
12151TIP3    H257945   0.880   4.566   0.082
12152TIP3   OH257946   1.115   4.804   1.777
12152TIP3    H157947   1.191   4.764   1.735
12152TIP3    H257948   1.083   4.737   1.837
12153TIP3   OH257949   1.698   4.886  16.008
12153TIP3    H157950   1.670   4.905  15.918
12153TIP3    H257951   1.725   4.971  16.043
12154TIP3   OH257952   0.653   4.291   1.567
12154TIP3    H157953   0.663   4.236   1.489
12154TIP3    H257954   0.649   4.381   1.532
12155TIP3   OH257955   0.684   4.136   1.329
12155TIP3    H157956   0.735   4.188   1.267
12155TIP3    H257957   0.595   4.138   1.293
12156TIP3   OH257958   0.817   4.685   1.329
12156TIP3    H157959   0.899   4.721   1.365
12156TIP3    H257960   0.778   4.758   1.281
12157TIP3   OH257961   1.253   4.447   1.825
12157TIP3    H157962   1.294   4.360   1.828
12157TIP3    H257963   1.322   4.507   1.853
12158TIP3   OH257964   1.393   4.747   1.638
12158TIP3    H157965   1.362   4.825   1.591
12158TIP3    H257966   1.489   4.754   1.635
12159TIP3   OH257967   0.490   4.353   1.790
12159TIP3    H157968   0.409   4.302   1.784
12159TIP3    H257969   0.534   4.338   1.706
12160TIP3   OH257970   0.741   3.873   1.406
12160TIP3    H157971   0.724   3.965   1.383
12160TIP3    H257972   0.671   3.824   1.363
12161TIP3   OH257973   0.871   4.255   1.738
12161TIP3    H157974   0.834   4.229   1.822
12161TIP3    H257975   0.796   4.262   1.679
12162TIP3   OH257976   1.134   4.187   1.662
12162TIP3    H157977   1.045   4.196   1.696
12162TIP3    H257978   1.184   4.148   1.734
12163TIP3   OH257979   1.313   4.090   1.857
12163TIP3    H157980   1.312   3.995   1.845
12163TIP3    H257981   1.287   4.103   1.948
12164TIP3   OH257982   0.285   4.162   1.781
12164TIP3    H157983   0.290   4.085   1.726
12164TIP3    H257984   0.298   4.129   1.870
12165TIP3   OH257985   0.729   3.780   1.664
12165TIP3    H157986   0.792   3.709   1.657
12165TIP3    H257987   0.726   3.818   1.576
12166TIP3   OH257988   0.802   3.938   1.881
12166TIP3    H157989   0.780   3.890   1.802
12166TIP3    H257990   0.744   4.014   1.880
12167TIP3   OH257991   0.759   5.644   0.161
12167TIP3    H157992   0.847   5.662   0.196
12167TIP3    H257993   0.764   5.673   0.069
12168TIP3   OH257994   0.129   5.137   0.133
12168TIP3    H157995   0.224   5.133   0.140
12168TIP3    H257996   0.112   5.128   0.039
12169TIP3   OH257997   0.052   5.608   0.581
12169TIP3    H157998  -0.043   5.601   0.567
12169TIP3    H257999   0.072   5.538   0.642
12170TIP3   OH258000   0.078   5.408   0.783
12170TIP3    H158001   0.081   5.324   0.828
12170TIP3    H258002   0.122   5.469   0.843
12171TIP3   OH258003   1.830   5.494   1.131
12171TIP3    H158004   1.825   5.502   1.226
12171TIP3    H258005   1.904   5.550   1.106
12172TIP3   OH258006   1.772   5.473   1.407
12172TIP3    H158007   1.719   5.400   1.374
12172TIP3    H258008   1.822   5.435   1.479
12173TIP3   OH258009   1.642   5.051   1.889
12173TIP3    H158010   1.557   5.064   1.931
12173TIP3    H258011   1.697   5.120   1.926
12174TIP3   OH258012   1.780   4.894   0.422
12174TIP3    H158013   1.852   4.957   0.420
12174TIP3    H258014   1.802   4.834   0.493
12175TIP3   OH258015   1.836   4.699   0.612
12175TIP3    H158016   1.752   4.663   0.642
12175TIP3    H258017   1.887   4.709   0.692
12176TIP3   OH258018   1.803   4.988   1.120
12176TIP3    H158019   1.861   4.922   1.083
12176TIP3    H258020   1.837   5.071   1.088
12177TIP3   OH258021   1.602   5.269   1.323
12177TIP3    H158022   1.533   5.314   1.371
12177TIP3    H258023   1.565   5.253   1.236
12178TIP3   OH258024   1.802   4.715   0.214
12178TIP3    H158025   1.761   4.760   0.141
12178TIP3    H258026   1.793   4.776   0.288
12179TIP3   OH258027   1.613   4.359   0.123
12179TIP3    H158028   1.667   4.378   0.047
12179TIP3    H258029   1.557   4.286   0.096
12180TIP3   OH258030   1.580   4.580   0.652
12180TIP3    H158031   1.580   4.492   0.615
12180TIP3    H258032   1.538   4.571   0.737
12181TIP3   OH258033   0.074   4.765   1.048
12181TIP3    H158034   0.089   4.773   0.954
12181TIP3    H258035   0.160   4.740   1.083
12182TIP3   OH258036   1.672   4.754   1.631
12182TIP3    H158037   1.727   4.678   1.613
12182TIP3    H258038   1.726   4.829   1.605
12183TIP3   OH258039   1.805   4.512   1.608
12183TIP3    H158040   1.718   4.479   1.631
12183TIP3    H258041   1.865   4.442   1.633
12184TIP3   OH258042   1.578   4.335   0.493
12184TIP3    H158043   1.603   4.243   0.490
12184TIP3    H258044   1.645   4.380   0.441
12185TIP3   OH258045   1.587   4.350   1.047
12185TIP3    H158046   1.679   4.364   1.025
12185TIP3    H258047   1.581   4.372   1.140
12186TIP3   OH258048   1.616   4.435   1.317
12186TIP3    H158049   1.538   4.465   1.363
12186TIP3    H258050   1.668   4.515   1.304
12187TIP3   OH258051   0.049   4.240   1.656
12187TIP3    H158052   0.132   4.240   1.704
12187TIP3    H258053  -0.011   4.191   1.712
12188TIP3   OH258054   1.860   3.852   1.840
12188TIP3    H158055   1.928   3.796   1.802
12188TIP3    H258056   1.851   3.924   1.777
12189TIP3   OH258057   1.637   4.063   0.498
12189TIP3    H158058   1.660   4.019   0.579
12189TIP3    H258059   1.571   4.007   0.458
12190TIP3   OH258060   0.168   4.099   1.012
12190TIP3    H158061   0.232   4.036   0.979
12190TIP3    H258062   0.197   4.183   0.977
12191TIP3   OH258063   0.018   4.494   1.083
12191TIP3    H158064   0.089   4.468   1.024
12191TIP3    H258065   0.017   4.590   1.078
12192TIP3   OH258066   1.783   4.044   1.660
12192TIP3    H158067   1.707   4.087   1.698
12192TIP3    H258068   1.749   4.000   1.582
12193TIP3   OH258069   1.782   4.043   0.130
12193TIP3    H158070   1.792   4.054   0.035
12193TIP3    H258071   1.841   4.108   0.168
12194TIP3   OH258072   0.147   4.126   0.491
12194TIP3    H158073   0.072   4.068   0.485
12194TIP3    H258074   0.153   4.165   0.404
12195TIP3   OH258075   1.471   5.544   0.651
12195TIP3    H158076   1.550   5.546   0.596
12195TIP3    H258077   1.492   5.602   0.724
12196TIP3   OH258078   7.354   3.914   1.295
12196TIP3    H158079   7.303   3.841   1.331
12196TIP3    H258080   7.323   3.991   1.343
12197TIP3   OH258081   0.222   5.304   1.700
12197TIP3    H158082   0.142   5.263   1.666
12197TIP3    H258083   0.220   5.284   1.794
12198TIP3   OH258084   0.578   5.362   1.352
12198TIP3    H158085   0.543   5.448   1.330
12198TIP3    H258086   0.670   5.365   1.324
12199TIP3   OH258087   0.946   5.485   1.624
12199TIP3    H158088   0.953   5.454   1.714
12199TIP3    H258089   1.027   5.533   1.609
12200TIP3   OH258090   1.189   5.614   1.594
12200TIP3    H158091   1.262   5.560   1.563
12200TIP3    H258092   1.223   5.660   1.670
12201TIP3   OH258093   1.694   3.849   1.467
12201TIP3    H158094   1.634   3.880   1.399
12201TIP3    H258095   1.709   3.757   1.445
12202TIP3   OH258096   0.255   5.648   1.376
12202TIP3    H158097   0.174   5.689   1.346
12202TIP3    H258098   0.276   5.695   1.457
12203TIP3   OH258099   0.520   5.624   1.289
12203TIP3    H158100   0.427   5.635   1.308
12203TIP3    H258101   0.533   5.671   1.206
12204TIP3   OH258102   0.988   5.603   1.182
12204TIP3    H158103   0.933   5.643   1.115
12204TIP3    H258104   0.999   5.671   1.248
12205TIP3   OH258105   1.215   5.457   1.169
12205TIP3    H158106   1.135   5.507   1.187
12205TIP3    H258107   1.286   5.512   1.200
12206TIP3   OH258108   1.435   5.601   1.256
12206TIP3    H158109   1.464   5.693   1.258
12206TIP3    H258110   1.485   5.562   1.184
12207TIP3   OH258111   0.207   5.514   1.015
12207TIP3    H158112   0.204   5.477   1.103
12207TIP3    H258113   0.284   5.474   0.975
12208TIP3   OH258114   0.422   5.377   0.911
12208TIP3    H158115   0.407   5.286   0.936
12208TIP3    H258116   0.507   5.399   0.950
12209TIP3   OH258117   0.669   5.374   1.032
12209TIP3    H158118   0.689   5.282   1.011
12209TIP3    H258119   0.724   5.393   1.108
12210TIP3   OH258120   1.024   3.996   0.917
12210TIP3    H158121   0.969   3.928   0.955
12210TIP3    H258122   1.088   3.948   0.865
12211TIP3   OH258123   1.527   3.845   0.885
12211TIP3    H158124   1.603   3.875   0.836
12211TIP3    H258125   1.481   3.925   0.911
12212TIP3   OH258126   1.726   3.928   0.723
12212TIP3    H158127   1.787   3.859   0.697
12212TIP3    H258128   1.781   4.003   0.743
12213TIP3   OH258129   0.313   3.836   0.651
12213TIP3    H158130   0.226   3.846   0.613
12213TIP3    H258131   0.336   3.745   0.633
12214TIP3   OH258132   0.209   3.825   0.304
12214TIP3    H158133   0.254   3.904   0.272
12214TIP3    H258134   0.117   3.840   0.284
12215TIP3   OH258135   0.811   3.800   0.716
12215TIP3    H158136   0.844   3.877   0.670
12215TIP3    H258137   0.793   3.830   0.805
12216TIP3   OH258138   1.205   3.840   0.783
12216TIP3    H158139   1.290   3.836   0.739
12216TIP3    H258140   1.186   3.750   0.809
12217TIP3   OH258141   1.433   3.898   0.402
12217TIP3    H158142   1.360   3.957   0.419
12217TIP3    H258143   1.395   3.810   0.407
12218TIP3   OH258144   0.170   5.447   0.329
12218TIP3    H158145   0.083   5.429   0.295
12218TIP3    H258146   0.183   5.541   0.318
12219TIP3   OH258147   0.320   4.050   0.195
12219TIP3    H158148   0.322   4.012   0.107
12219TIP3    H258149   0.412   4.069   0.215
12220TIP3   OH258150   0.844   4.090   0.335
12220TIP3    H158151   0.886   4.021   0.386
12220TIP3    H258152   0.862   4.170   0.384
12221TIP3   OH258153   1.024   5.649   0.242
12221TIP3    H158154   1.086   5.711   0.204
12221TIP3    H258155   1.046   5.565   0.203
12222TIP3   OH258156   1.681   5.540   0.470
12222TIP3    H158157   1.671   5.451   0.437
12222TIP3    H258158   1.677   5.595   0.392
12223TIP3   OH258159   0.297   3.936   1.611
12223TIP3    H158160   0.238   3.866   1.640
12223TIP3    H258161   0.379   3.918   1.656
12224TIP3   OH258162   0.487   3.844   1.789
12224TIP3    H158163   0.571   3.814   1.754
12224TIP3    H258164   0.448   3.766   1.829
12225TIP3   OH258165   0.336   5.564   0.039
12225TIP3    H158166   0.283   5.599   0.110
12225TIP3    H258167   0.373   5.483   0.074
12226TIP3   OH258168   1.338   3.815   1.812
12226TIP3    H158169   1.327   3.766   1.894
12226TIP3    H258170   1.430   3.802   1.789
12227TIP3   OH258171   1.597   5.398   1.679
12227TIP3    H158172   1.533   5.395   1.608
12227TIP3    H258173   1.599   5.490   1.706
12228TIP3   OH258174   3.072   4.811   0.648
12228TIP3    H158175   3.057   4.904   0.634
12228TIP3    H258176   3.004   4.768   0.596
12229TIP3   OH258177   2.932   4.718   1.058
12229TIP3    H158178   2.973   4.675   1.134
12229TIP3    H258179   2.896   4.646   1.007
12230TIP3   OH258180   2.173   4.641   1.176
12230TIP3    H158181   2.185   4.569   1.238
12230TIP3    H258182   2.261   4.664   1.149
12231TIP3   OH258183   3.333   5.040   0.881
12231TIP3    H158184   3.300   4.962   0.927
12231TIP3    H258185   3.360   5.099   0.951
12232TIP3   OH258186   2.319   5.115   0.961
12232TIP3    H158187   2.287   5.027   0.943
12232TIP3    H258188   2.413   5.104   0.977
12233TIP3   OH258189   1.964   4.462   0.520
12233TIP3    H158190   1.938   4.547   0.556
12233TIP3    H258191   1.901   4.446   0.449
12234TIP3   OH258192   2.021   4.704   0.823
12234TIP3    H158193   2.051   4.615   0.841
12234TIP3    H258194   2.099   4.758   0.832
12235TIP3   OH258195   3.090   5.477   0.922
12235TIP3    H158196   3.118   5.431   0.843
12235TIP3    H258197   3.079   5.409   0.987
12236TIP3   OH258198   2.802   4.966   1.068
12236TIP3    H158199   2.839   4.881   1.043
12236TIP3    H258200   2.870   5.007   1.120
12237TIP3   OH258201   3.682   4.107   1.169
12237TIP3    H158202   3.687   4.158   1.249
12237TIP3    H258203   3.715   4.165   1.100
12238TIP3   OH258204   3.088   4.385   1.068
12238TIP3    H158205   3.104   4.291   1.082
12238TIP3    H258206   3.085   4.394   0.972
12239TIP3   OH258207   2.454   4.185   0.791
12239TIP3    H158208   2.462   4.272   0.752
12239TIP3    H258209   2.399   4.135   0.731
12240TIP3   OH258210   3.243   4.215   0.657
12240TIP3    H158211   3.286   4.177   0.733
12240TIP3    H258212   3.314   4.256   0.608
12241TIP3   OH258213   2.095   4.443   0.884
12241TIP3    H158214   2.161   4.404   0.941
12241TIP3    H258215   2.116   4.409   0.797
12242TIP3   OH258216   2.573   4.592   0.855
12242TIP3    H158217   2.659   4.557   0.880
12242TIP3    H258218   2.536   4.525   0.797
12243TIP3   OH258219   3.689   4.257   1.396
12243TIP3    H158220   3.639   4.334   1.368
12243TIP3    H258221   3.727   4.281   1.480
12244TIP3   OH258222   2.324   4.110   1.219
12244TIP3    H158223   2.302   4.171   1.149
12244TIP3    H258224   2.253   4.120   1.283
12245TIP3   OH258225   3.038   5.065   0.542
12245TIP3    H158226   3.023   5.062   0.448
12245TIP3    H258227   2.991   5.143   0.572
12246TIP3   OH258228   2.580   4.877   1.209
12246TIP3    H158229   2.530   4.952   1.242
12246TIP3    H258230   2.653   4.916   1.162
12247TIP3   OH258231   3.328   4.123   0.911
12247TIP3    H158232   3.249   4.119   0.964
12247TIP3    H258233   3.381   4.192   0.951
12248TIP3   OH258234   2.294   4.277   1.000
12248TIP3    H158235   2.351   4.336   1.050
12248TIP3    H258236   2.350   4.240   0.933
12249TIP3   OH258237   2.433   5.089   1.312
12249TIP3    H158238   2.443   5.184   1.300
12249TIP3    H258239   2.342   5.077   1.339
12250TIP3   OH258240   1.991   5.070   0.391
12250TIP3    H158241   1.989   5.113   0.306
12250TIP3    H258242   2.017   5.138   0.452
12251TIP3   OH258243   3.371   5.243   1.080
12251TIP3    H158244   3.276   5.249   1.087
12251TIP3    H258245   3.399   5.331   1.056
12252TIP3   OH258246   3.445   3.972   1.232
12252TIP3    H158247   3.379   4.038   1.210
12252TIP3    H258248   3.527   4.008   1.199
12253TIP3   OH258249   2.671   3.798   0.976
12253TIP3    H158250   2.648   3.705   0.979
12253TIP3    H258251   2.591   3.843   1.003
12254TIP3   OH258252   3.197   5.381   0.682
12254TIP3    H158253   3.240   5.297   0.665
12254TIP3    H258254   3.269   5.445   0.684
12255TIP3   OH258255   3.300   5.135   0.624
12255TIP3    H158256   3.218   5.093   0.598
12255TIP3    H258257   3.322   5.094   0.707
12256TIP3   OH258258   3.496   5.009   1.433
12256TIP3    H158259   3.480   4.954   1.357
12256TIP3    H258260   3.510   5.096   1.397
12257TIP3   OH258261   2.929   4.701   0.433
12257TIP3    H158262   2.868   4.769   0.404
12257TIP3    H258263   3.001   4.705   0.370
12258TIP3   OH258264   2.941   4.566   0.104
12258TIP3    H158265   2.990   4.580   0.184
12258TIP3    H258266   3.005   4.576   0.034
12259TIP3   OH258267   3.636   4.666   1.287
12259TIP3    H158268   3.572   4.737   1.276
12259TIP3    H258269   3.654   4.636   1.198
12260TIP3   OH258270   3.294   4.738   0.505
12260TIP3    H158271   3.227   4.766   0.567
12260TIP3    H258272   3.357   4.690   0.559
12261TIP3   OH258273   3.246   4.533   1.456
12261TIP3    H158274   3.244   4.605   1.519
12261TIP3    H258275   3.182   4.559   1.389
12262TIP3   OH258276   2.450   4.785   0.689
12262TIP3    H158277   2.430   4.745   0.604
12262TIP3    H258278   2.503   4.720   0.734
12263TIP3   OH258279   2.600   5.135   0.956
12263TIP3    H158280   2.608   5.144   0.861
12263TIP3    H258281   2.675   5.080   0.981
12264TIP3   OH258282   2.431   4.694   1.069
12264TIP3    H158283   2.486   4.668   0.996
12264TIP3    H258284   2.484   4.758   1.118
12265TIP3   OH258285   3.101   5.267   1.130
12265TIP3    H158286   3.092   5.329   1.203
12265TIP3    H258287   3.067   5.185   1.165
12266TIP3   OH258288   2.588   5.110   1.542
12266TIP3    H158289   2.524   5.166   1.585
12266TIP3    H258290   2.545   5.083   1.461
12267TIP3   OH258291   3.159   4.668   0.279
12267TIP3    H158292   3.209   4.695   0.356
12267TIP3    H258293   3.203   4.710   0.205
12268TIP3   OH258294   2.254   4.706   1.524
12268TIP3    H158295   2.262   4.794   1.560
12268TIP3    H258296   2.167   4.704   1.485
12269TIP3   OH258297   2.941   5.317   0.604
12269TIP3    H158298   3.025   5.343   0.640
12269TIP3    H258299   2.908   5.396   0.561
12270TIP3   OH258300   2.382   5.283   1.611
12270TIP3    H158301   2.386   5.317   1.522
12270TIP3    H258302   2.289   5.278   1.630
12271TIP3   OH258303   3.527   3.844   0.222
12271TIP3    H158304   3.449   3.874   0.269
12271TIP3    H258305   3.575   3.924   0.201
12272TIP3   OH258306   2.363   4.696   0.428
12272TIP3    H158307   2.306   4.767   0.399
12272TIP3    H258308   2.308   4.618   0.424
12273TIP3   OH258309   3.652   5.263   0.134
12273TIP3    H158310   3.674   5.356   0.130
12273TIP3    H258311   3.735   5.218   0.121
12274TIP3   OH258312   1.954   4.955   1.363
12274TIP3    H158313   1.902   4.958   1.283
12274TIP3    H258314   1.969   4.862   1.379
12275TIP3   OH258315   1.920   5.238   1.058
12275TIP3    H158316   2.003   5.243   1.104
12275TIP3    H258317   1.873   5.317   1.084
12276TIP3   OH258318   3.742   5.314   1.638
12276TIP3    H158319   3.740   5.219   1.626
12276TIP3    H258320   3.654   5.336   1.669
12277TIP3   OH258321   2.825   5.242   1.494
12277TIP3    H158322   2.818   5.325   1.541
12277TIP3    H258323   2.742   5.197   1.512
12278TIP3   OH258324   2.919   5.581   0.485
12278TIP3    H158325   2.903   5.604   0.394
12278TIP3    H258326   2.888   5.656   0.535
12279TIP3   OH258327   2.252   5.472   0.664
12279TIP3    H158328   2.273   5.440   0.752
12279TIP3    H258329   2.199   5.402   0.625
12280TIP3   OH258330   3.225   5.523   0.125
12280TIP3    H158331   3.292   5.457   0.108
12280TIP3    H258332   3.224   5.532   0.220
12281TIP3   OH258333   3.186   5.538   0.412
12281TIP3    H158334   3.094   5.545   0.436
12281TIP3    H258335   3.224   5.479   0.477
12282TIP3   OH258336   3.423   4.421   1.660
12282TIP3    H158337   3.366   4.445   1.587
12282TIP3    H258338   3.433   4.326   1.651
12283TIP3   OH258339   2.180   5.103   1.423
12283TIP3    H158340   2.204   5.066   1.508
12283TIP3    H258341   2.100   5.056   1.398
12284TIP3   OH258342   2.423   3.905   1.058
12284TIP3    H158343   2.346   3.898   1.001
12284TIP3    H258344   2.404   3.981   1.114
12285TIP3   OH258345   2.911   3.881   1.410
12285TIP3    H158346   2.960   3.835   1.478
12285TIP3    H258347   2.819   3.872   1.436
12286TIP3   OH258348   3.197   4.258   1.459
12286TIP3    H158349   3.142   4.241   1.535
12286TIP3    H258350   3.204   4.354   1.455
12287TIP3   OH258351   3.300   4.795   0.074
12287TIP3    H158352   3.305   4.862   0.005
12287TIP3    H258353   3.356   4.829   0.144
12288TIP3   OH258354   2.904   4.124   0.129
12288TIP3    H158355   2.831   4.108   0.188
12288TIP3    H258356   2.868   4.111   0.041
12289TIP3   OH258357   2.445   4.435   1.168
12289TIP3    H158358   2.385   4.433   1.242
12289TIP3    H258359   2.446   4.527   1.140
12290TIP3   OH258360   2.437   4.432   0.672
12290TIP3    H158361   2.342   4.421   0.670
12290TIP3    H258362   2.465   4.415   0.582
12291TIP3   OH258363   2.981   4.454   0.540
12291TIP3    H158364   2.959   4.543   0.511
12291TIP3    H258365   3.056   4.429   0.486
12292TIP3   OH258366   2.914   4.473   1.660
12292TIP3    H158367   2.862   4.402   1.698
12292TIP3    H258368   3.000   4.464   1.702
12293TIP3   OH258369   3.072   4.389   0.796
12293TIP3    H158370   3.034   4.436   0.722
12293TIP3    H258371   3.126   4.320   0.755
12294TIP3   OH258372   2.228   4.423   1.343
12294TIP3    H158373   2.280   4.450   1.419
12294TIP3    H258374   2.188   4.341   1.370
12295TIP3   OH258375   2.597   4.185   0.040
12295TIP3    H158376   2.593   4.138   0.123
12295TIP3    H258377   2.586   4.277   0.063
12296TIP3   OH258378   1.898   4.131   0.755
12296TIP3    H158379   1.946   4.143   0.836
12296TIP3    H258380   1.959   4.159   0.686
12297TIP3   OH258381   1.949   4.246   0.240
12297TIP3    H158382   2.025   4.281   0.195
12297TIP3    H258383   1.897   4.322   0.265
12298TIP3   OH258384   3.034   4.557   1.268
12298TIP3    H158385   3.066   4.502   1.197
12298TIP3    H258386   2.970   4.502   1.314
12299TIP3   OH258387   2.736   4.145   0.742
12299TIP3    H158388   2.646   4.151   0.776
12299TIP3    H258389   2.787   4.114   0.817
12300TIP3   OH258390   2.177   4.341   0.643
12300TIP3    H158391   2.107   4.372   0.586
12300TIP3    H258392   2.199   4.254   0.609
12301TIP3   OH258393   2.501   4.351   0.417
12301TIP3    H158394   2.594   4.345   0.436
12301TIP3    H258395   2.496   4.386   0.328
12302TIP3   OH258396   3.098   4.107   1.068
12302TIP3    H158397   3.064   4.109   1.157
12302TIP3    H258398   3.027   4.071   1.015
12303TIP3   OH258399   2.461   4.415   0.153
12303TIP3    H158400   2.373   4.428   0.118
12303TIP3    H258401   2.515   4.477   0.103
12304TIP3   OH258402   3.494   5.676   1.731
12304TIP3    H158403   3.522   5.700   1.643
12304TIP3    H258404   3.568   5.700   1.787
12305TIP3   OH258405   2.245   4.949   1.661
12305TIP3    H158406   2.313   4.940   1.728
12305TIP3    H258407   2.163   4.958   1.710
12306TIP3   OH258408   2.810   4.474   0.948
12306TIP3    H158409   2.886   4.433   0.909
12306TIP3    H258410   2.785   4.415   1.020
12307TIP3   OH258411   2.277   4.079   0.595
12307TIP3    H158412   2.228   4.000   0.620
12307TIP3    H258413   2.315   4.058   0.510
12308TIP3   OH258414   2.703   4.331   1.171
12308TIP3    H158415   2.619   4.377   1.179
12308TIP3    H258416   2.753   4.359   1.248
12309TIP3   OH258417   2.762   4.902   0.347
12309TIP3    H158418   2.690   4.861   0.299
12309TIP3    H258419   2.720   4.936   0.427
12310TIP3   OH258420   3.455   4.864   1.207
12310TIP3    H158421   3.525   4.900   1.152
12310TIP3    H258422   3.385   4.843   1.145
12311TIP3   OH258423   3.155   4.169   0.225
12311TIP3    H158424   3.068   4.162   0.185
12311TIP3    H258425   3.160   4.259   0.256
12312TIP3   OH258426   2.908   4.952   1.489
12312TIP3    H158427   2.940   4.914   1.571
12312TIP3    H258428   2.880   5.040   1.514
12313TIP3   OH258429   3.196   4.402   0.370
12313TIP3    H158430   3.283   4.382   0.405
12313TIP3    H258431   3.206   4.489   0.331
12314TIP3   OH258432   2.264   4.837   0.888
12314TIP3    H158433   2.324   4.832   0.813
12314TIP3    H258434   2.309   4.789   0.957
12315TIP3   OH258435   2.977   5.051   0.257
12315TIP3    H158436   2.932   5.134   0.266
12315TIP3    H258437   2.911   4.985   0.279
12316TIP3   OH258438   1.976   4.696   1.464
12316TIP3    H158439   1.966   4.657   1.550
12316TIP3    H258440   1.906   4.656   1.411
12317TIP3   OH258441   2.722   4.677   1.669
12317TIP3    H158442   2.692   4.681   1.578
12317TIP3    H258443   2.797   4.617   1.667
12318TIP3   OH258444   3.106   5.233   1.497
12318TIP3    H158445   3.014   5.234   1.472
12318TIP3    H258446   3.106   5.241   1.592
12319TIP3   OH258447   3.654   4.464   0.340
12319TIP3    H158448   3.600   4.426   0.271
12319TIP3    H258449   3.669   4.555   0.313
12320TIP3   OH258450   3.726   5.045   1.584
12320TIP3    H158451   3.634   5.032   1.563
12320TIP3    H258452   3.773   5.015   1.507
12321TIP3   OH258453   3.524   5.304   0.386
12321TIP3    H158454   3.484   5.228   0.427
12321TIP3    H258455   3.561   5.270   0.304
12322TIP3   OH258456   3.228   4.820   1.029
12322TIP3    H158457   3.133   4.813   1.020
12322TIP3    H258458   3.263   4.742   0.986
12323TIP3   OH258459   2.537   5.213   0.691
12323TIP3    H158460   2.559   5.298   0.653
12323TIP3    H258461   2.442   5.215   0.699
12324TIP3   OH258462   2.077   4.650   0.195
12324TIP3    H158463   2.118   4.728   0.233
12324TIP3    H258464   1.983   4.670   0.197
12325TIP3   OH258465   2.616   4.978   0.564
12325TIP3    H158466   2.602   5.064   0.604
12325TIP3    H258467   2.559   4.919   0.614
12326TIP3   OH258468   2.719   5.383   1.270
12326TIP3    H158469   2.776   5.457   1.249
12326TIP3    H258470   2.771   5.327   1.327
12327TIP3   OH258471   2.519   5.477   0.586
12327TIP3    H158472   2.426   5.491   0.605
12327TIP3    H258473   2.563   5.552   0.625
12328TIP3   OH258474   3.019   5.017   1.240
12328TIP3    H158475   2.983   4.991   1.324
12328TIP3    H258476   3.093   4.957   1.226
12329TIP3   OH258477   3.246   5.090   0.166
12329TIP3    H158478   3.298   5.034   0.224
12329TIP3    H258479   3.156   5.082   0.199
12330TIP3   OH258480   3.318   5.412   1.464
12330TIP3    H158481   3.239   5.359   1.460
12330TIP3    H258482   3.302   5.483   1.402
12331TIP3   OH258483   3.718   5.535   0.167
12331TIP3    H158484   3.786   5.602   0.165
12331TIP3    H258485   3.636   5.583   0.172
12332TIP3   OH258486   2.115   4.168   1.395
12332TIP3    H158487   2.023   4.192   1.382
12332TIP3    H258488   2.113   4.101   1.464
12333TIP3   OH258489   3.400   4.909   0.312
12333TIP3    H158490   3.359   4.861   0.385
12333TIP3    H258491   3.491   4.922   0.340
12334TIP3   OH258492   2.113   5.368   1.261
12334TIP3    H158493   2.143   5.294   1.314
12334TIP3    H258494   2.128   5.444   1.317
12335TIP3   OH258495   2.519   5.182   0.268
12335TIP3    H158496   2.598   5.135   0.294
12335TIP3    H258497   2.540   5.274   0.285
12336TIP3   OH258498   2.183   4.880   0.318
12336TIP3    H158499   2.113   4.928   0.363
12336TIP3    H258500   2.229   4.947   0.267
12337TIP3   OH258501   2.996   4.128   1.322
12337TIP3    H158502   3.073   4.154   1.373
12337TIP3    H258503   2.969   4.045   1.359
12338TIP3   OH258504   3.103   4.058   0.472
12338TIP3    H158505   3.119   4.099   0.387
12338TIP3    H258506   3.143   4.118   0.535
12339TIP3   OH258507   2.825   5.273   0.289
12339TIP3    H158508   2.753   5.327   0.320
12339TIP3    H258509   2.877   5.331   0.234
12340TIP3   OH258510   2.756   4.300   0.512
12340TIP3    H158511   2.833   4.356   0.519
12340TIP3    H258512   2.750   4.257   0.597
12341TIP3   OH258513   2.867   4.376   1.393
12341TIP3    H158514   2.881   4.395   1.485
12341TIP3    H258515   2.905   4.289   1.381
12342TIP3   OH258516   2.853   3.969   0.557
12342TIP3    H158517   2.824   4.034   0.620
12342TIP3    H258518   2.943   3.994   0.535
12343TIP3   OH258519   2.604   5.436   0.329
12343TIP3    H158520   2.605   5.521   0.285
12343TIP3    H258521   2.575   5.455   0.418
12344TIP3   OH258522   2.438   4.097   0.304
12344TIP3    H158523   2.433   4.187   0.337
12344TIP3    H258524   2.528   4.070   0.320
12345TIP3   OH258525   3.448   4.171   1.527
12345TIP3    H158526   3.362   4.187   1.488
12345TIP3    H258527   3.511   4.194   1.458
12346TIP3   OH258528   3.293   4.581   0.916
12346TIP3    H158529   3.242   4.502   0.896
12346TIP3    H258530   3.371   4.549   0.959
12347TIP3   OH258531   2.283   5.087   0.161
12347TIP3    H158532   2.338   5.144   0.216
12347TIP3    H258533   2.345   5.042   0.104
12348TIP3   OH258534   2.146   4.404   0.093
12348TIP3    H158535   2.125   4.490   0.129
12348TIP3    H258536   2.126   4.411  -0.000
12349TIP3   OH258537   3.458   5.508   1.065
12349TIP3    H158538   3.437   5.578   1.003
12349TIP3    H258539   3.552   5.517   1.080
12350TIP3   OH258540   2.173   3.884   0.937
12350TIP3    H158541   2.165   3.874   0.842
12350TIP3    H258542   2.141   3.800   0.971
12351TIP3   OH258543   2.057   5.286   0.562
12351TIP3    H158544   2.009   5.316   0.640
12351TIP3    H258545   2.039   5.352   0.496
12352TIP3   OH258546   2.045   5.568   1.734
12352TIP3    H158547   2.109   5.551   1.803
12352TIP3    H258548   2.028   5.482   1.695
12353TIP3   OH258549   2.457   5.378   1.859
12353TIP3    H158550   2.537   5.329   1.882
12353TIP3    H258551   2.436   5.348   1.770
12354TIP3   OH258552   2.971   5.422   0.113
12354TIP3    H158553   2.943   5.377   0.033
12354TIP3    H258554   3.063   5.443   0.099
12355TIP3   OH258555   3.101   5.253   1.770
12355TIP3    H158556   3.091   5.169   1.815
12355TIP3    H258557   3.177   5.294   1.811
12356TIP3   OH258558   3.383   5.310   0.063
12356TIP3    H158559   3.338   5.236   0.103
12356TIP3    H258560   3.476   5.292   0.076
12357TIP3   OH258561   1.998   4.942   1.791
12357TIP3    H158562   2.002   4.847   1.785
12357TIP3    H258563   1.925   4.968   1.735
12358TIP3   OH258564   2.468   4.934   0.033
12358TIP3    H158565   2.507   4.887   0.107
12358TIP3    H258566   2.474   4.873  -0.041
12359TIP3   OH258567   2.668   4.945   1.749
12359TIP3    H158568   2.651   4.988   1.666
12359TIP3    H258569   2.703   4.859   1.725
12360TIP3   OH258570   3.231   4.978   1.515
12360TIP3    H158571   3.323   4.995   1.493
12360TIP3    H258572   3.187   5.062   1.499
12361TIP3   OH258573   2.068   4.672   1.758
12361TIP3    H158574   2.154   4.659   1.719
12361TIP3    H258575   2.083   4.666   1.852
12362TIP3   OH258576   2.557   4.760   0.228
12362TIP3    H158577   2.501   4.725   0.298
12362TIP3    H258578   2.590   4.682   0.183
12363TIP3   OH258579   2.460   4.531   1.468
12363TIP3    H158580   2.398   4.599   1.496
12363TIP3    H258581   2.537   4.579   1.439
12364TIP3   OH258582   2.669   4.564   0.047
12364TIP3    H158583   2.677   4.576  -0.048
12364TIP3    H258584   2.760   4.560   0.078
12365TIP3   OH258585   3.008   4.804   1.771
12365TIP3    H158586   3.087   4.770   1.729
12365TIP3    H258587   2.981   4.733   1.830
12366TIP3   OH258588   3.608   4.904   0.013
12366TIP3    H158589   3.571   4.935  -0.070
12366TIP3    H258590   3.623   4.984   0.063
12367TIP3   OH258591   2.534   4.287   1.574
12367TIP3    H158592   2.550   4.227   1.501
12367TIP3    H258593   2.517   4.372   1.533
12368TIP3   OH258594   2.573   4.134   1.337
12368TIP3    H158595   2.628   4.180   1.274
12368TIP3    H258596   2.487   4.129   1.294
12369TIP3   OH258597   2.676   4.686   1.389
12369TIP3    H158598   2.769   4.683   1.369
12369TIP3    H258599   2.641   4.754   1.332
12370TIP3   OH258600   3.150   4.428   1.821
12370TIP3    H158601   3.166   4.334   1.827
12370TIP3    H258602   3.237   4.467   1.820
12371TIP3   OH258603   3.263   4.744   1.649
12371TIP3    H158604   3.241   4.826   1.604
12371TIP3    H258605   3.358   4.739   1.646
12372TIP3   OH258606   2.370   4.343   1.795
12372TIP3    H158607   2.290   4.292   1.782
12372TIP3    H258608   2.420   4.331   1.715
12373TIP3   OH258609   2.628   3.871   1.410
12373TIP3    H158610   2.612   3.962   1.387
12373TIP3    H258611   2.559   3.822   1.365
12374TIP3   OH258612   2.762   4.258   1.740
12374TIP3    H158613   2.731   4.229   1.826
12374TIP3    H258614   2.683   4.261   1.686
12375TIP3   OH258615   3.024   4.188   1.655
12375TIP3    H158616   2.935   4.194   1.691
12375TIP3    H258617   3.074   4.144   1.724
12376TIP3   OH258618   3.193   4.088   1.853
12376TIP3    H158619   3.196   3.993   1.844
12376TIP3    H258620   3.170   4.103   1.945
12377TIP3   OH258621   2.161   4.153   1.764
12377TIP3    H158622   2.167   4.074   1.711
12377TIP3    H258623   2.175   4.123   1.854
12378TIP3   OH258624   2.612   3.783   1.668
12378TIP3    H158625   2.673   3.709   1.664
12378TIP3    H258626   2.612   3.819   1.580
12379TIP3   OH258627   2.695   3.941   1.880
12379TIP3    H158628   2.672   3.889   1.803
12379TIP3    H258629   2.634   4.015   1.878
12380TIP3   OH258630   2.644   5.650   0.161
12380TIP3    H158631   2.734   5.668   0.188
12380TIP3    H258632   2.642   5.675   0.069
12381TIP3   OH258633   2.009   5.131   0.091
12381TIP3    H158634   2.102   5.127   0.112
12381TIP3    H258635   2.004   5.123  -0.004
12382TIP3   OH258636   1.883   5.611   0.653
12382TIP3    H158637   1.828   5.584   0.579
12382TIP3    H258638   1.902   5.530   0.700
12383TIP3   OH258639   1.959   5.389   0.809
12383TIP3    H158640   1.928   5.315   0.861
12383TIP3    H258641   2.008   5.443   0.870
12384TIP3   OH258642   3.720   5.551   1.138
12384TIP3    H158643   3.729   5.520   1.228
12384TIP3    H258644   3.808   5.548   1.102
12385TIP3   OH258645   3.690   5.451   1.400
12385TIP3    H158646   3.630   5.386   1.362
12385TIP3    H258647   3.723   5.409   1.479
12386TIP3   OH258648   3.525   5.066   1.893
12386TIP3    H158649   3.446   5.073   1.945
12386TIP3    H258650   3.585   5.131   1.931
12387TIP3   OH258651   3.658   4.911   0.407
12387TIP3    H158652   3.732   4.971   0.416
12387TIP3    H258653   3.667   4.852   0.482
12388TIP3   OH258654   3.692   4.720   0.597
12388TIP3    H158655   3.613   4.683   0.635
12388TIP3    H258656   3.760   4.706   0.663
12389TIP3   OH258657   3.696   4.976   1.117
12389TIP3    H158658   3.746   4.910   1.069
12389TIP3    H258659   3.717   5.059   1.073
12390TIP3   OH258660   3.504   5.262   1.323
12390TIP3    H158661   3.434   5.308   1.368
12390TIP3    H258662   3.470   5.246   1.235
12391TIP3   OH258663   3.694   4.717   0.218
12391TIP3    H158664   3.649   4.759   0.144
12391TIP3    H258665   3.683   4.778   0.290
12392TIP3   OH258666   3.516   4.359   0.133
12392TIP3    H158667   3.569   4.381   0.056
12392TIP3    H258668   3.474   4.276   0.110
12393TIP3   OH258669   3.458   4.594   0.677
12393TIP3    H158670   3.486   4.503   0.683
12393TIP3    H258671   3.437   4.620   0.767
12394TIP3   OH258672   1.943   4.751   1.082
12394TIP3    H158673   1.955   4.739   0.988
12394TIP3    H258674   2.026   4.721   1.121
12395TIP3   OH258675   3.537   4.757   1.619
12395TIP3    H158676   3.595   4.681   1.610
12395TIP3    H258677   3.561   4.814   1.546
12396TIP3   OH258678   3.678   4.522   1.623
12396TIP3    H158679   3.592   4.486   1.643
12396TIP3    H258680   3.739   4.452   1.645
12397TIP3   OH258681   3.446   4.317   0.486
12397TIP3    H158682   3.483   4.229   0.482
12397TIP3    H258683   3.515   4.374   0.452
12398TIP3   OH258684   3.444   4.333   1.052
12398TIP3    H158685   3.507   4.393   1.013
12398TIP3    H258686   3.448   4.352   1.146
12399TIP3   OH258687   3.484   4.435   1.323
12399TIP3    H158688   3.403   4.470   1.359
12399TIP3    H258689   3.538   4.513   1.308
12400TIP3   OH258690   1.938   4.271   1.647
12400TIP3    H158691   2.022   4.249   1.689
12400TIP3    H258692   1.883   4.195   1.661
12401TIP3   OH258693   3.733   3.864   1.842
12401TIP3    H158694   3.796   3.798   1.812
12401TIP3    H258695   3.733   3.930   1.773
12402TIP3   OH258696   3.531   4.051   0.496
12402TIP3    H158697   3.556   4.010   0.579
12402TIP3    H258698   3.459   3.996   0.464
12403TIP3   OH258699   2.049   4.128   0.987
12403TIP3    H158700   2.089   4.041   0.979
12403TIP3    H258701   2.124   4.187   0.996
12404TIP3   OH258702   1.856   4.417   1.033
12404TIP3    H158703   1.928   4.415   0.970
12404TIP3    H258704   1.885   4.478   1.101
12405TIP3   OH258705   3.663   4.039   1.646
12405TIP3    H158706   3.582   4.089   1.657
12405TIP3    H258707   3.647   3.985   1.569
12406TIP3   OH258708   3.675   4.058   0.128
12406TIP3    H158709   3.717   4.074   0.043
12406TIP3    H258710   3.720   4.117   0.188
12407TIP3   OH258711   1.919   4.033   0.418
12407TIP3    H158712   1.827   4.042   0.443
12407TIP3    H258713   1.936   4.111   0.364
12408TIP3   OH258714   3.383   5.576   0.666
12408TIP3    H158715   3.453   5.577   0.601
12408TIP3    H258716   3.421   5.621   0.742
12409TIP3   OH258717   1.919   3.878   1.293
12409TIP3    H158718   1.853   3.874   1.362
12409TIP3    H258719   1.891   3.950   1.237
12410TIP3   OH258720   2.116   5.277   1.708
12410TIP3    H158721   2.026   5.272   1.675
12410TIP3    H258722   2.109   5.247   1.799
12411TIP3   OH258723   2.456   5.366   1.349
12411TIP3    H158724   2.427   5.454   1.326
12411TIP3    H258725   2.549   5.365   1.329
12412TIP3   OH258726   2.819   5.486   1.627
12412TIP3    H158727   2.830   5.453   1.716
12412TIP3    H258728   2.898   5.537   1.610
12413TIP3   OH258729   3.054   5.626   1.588
12413TIP3    H158730   3.114   5.571   1.537
12413TIP3    H258731   3.107   5.655   1.663
12414TIP3   OH258732   3.585   3.852   1.454
12414TIP3    H158733   3.525   3.883   1.387
12414TIP3    H258734   3.599   3.760   1.432
12415TIP3   OH258735   2.149   5.638   1.370
12415TIP3    H158736   2.070   5.677   1.332
12415TIP3    H258737   2.162   5.687   1.451
12416TIP3   OH258738   2.410   5.630   1.283
12416TIP3    H158739   2.318   5.637   1.308
12416TIP3    H258740   2.416   5.673   1.197
12417TIP3   OH258741   2.861   5.608   1.190
12417TIP3    H158742   2.810   5.640   1.116
12417TIP3    H258743   2.868   5.683   1.250
12418TIP3   OH258744   3.095   5.498   1.289
12418TIP3    H158745   3.016   5.533   1.249
12418TIP3    H258746   3.164   5.560   1.265
12419TIP3   OH258747   3.344   5.635   1.280
12419TIP3    H158748   3.362   5.726   1.256
12419TIP3    H258749   3.381   5.584   1.208
12420TIP3   OH258750   2.111   5.508   1.020
12420TIP3    H158751   2.107   5.466   1.106
12420TIP3    H258752   2.191   5.472   0.980
12421TIP3   OH258753   2.329   5.384   0.914
12421TIP3    H158754   2.318   5.291   0.933
12421TIP3    H258755   2.416   5.405   0.949
12422TIP3   OH258756   2.589   5.408   1.023
12422TIP3    H158757   2.599   5.319   0.990
12422TIP3    H258758   2.625   5.405   1.112
12423TIP3   OH258759   2.881   3.992   0.922
12423TIP3    H158760   2.819   3.923   0.946
12423TIP3    H258761   2.951   3.946   0.875
12424TIP3   OH258762   3.402   3.846   0.861
12424TIP3    H158763   3.483   3.873   0.818
12424TIP3    H258764   3.366   3.927   0.898
12425TIP3   OH258765   3.623   3.907   0.717
12425TIP3    H158766   3.686   3.840   0.693
12425TIP3    H258767   3.676   3.984   0.737
12426TIP3   OH258768   2.145   3.840   0.664
12426TIP3    H158769   2.054   3.821   0.643
12426TIP3    H258770   2.191   3.757   0.652
12427TIP3   OH258771   2.042   3.839   0.256
12427TIP3    H158772   2.113   3.890   0.217
12427TIP3    H258773   1.998   3.901   0.315
12428TIP3   OH258774   2.652   3.805   0.688
12428TIP3    H158775   2.719   3.860   0.648
12428TIP3    H258776   2.667   3.812   0.782
12429TIP3   OH258777   3.087   3.858   0.806
12429TIP3    H158778   3.179   3.869   0.782
12429TIP3    H258779   3.082   3.770   0.845
12430TIP3   OH258780   3.321   3.889   0.414
12430TIP3    H158781   3.246   3.947   0.427
12430TIP3    H258782   3.286   3.801   0.423
12431TIP3   OH258783   2.008   5.471   0.372
12431TIP3    H158784   1.937   5.463   0.308
12431TIP3    H258785   2.046   5.557   0.355
12432TIP3   OH258786   2.251   3.975   0.133
12432TIP3    H158787   2.276   4.018   0.051
12432TIP3    H258788   2.311   4.009   0.198
12433TIP3   OH258789   2.714   4.090   0.338
12433TIP3    H158790   2.753   4.020   0.392
12433TIP3    H258791   2.732   4.170   0.387
12434TIP3   OH258792   2.912   5.665   0.223
12434TIP3    H158793   2.971   5.729   0.184
12434TIP3    H258794   2.934   5.582   0.181
12435TIP3   OH258795   3.576   5.560   0.465
12435TIP3    H158796   3.560   5.469   0.440
12435TIP3    H258797   3.564   5.609   0.384
12436TIP3   OH258798   2.167   3.910   1.614
12436TIP3    H158799   2.110   3.841   1.649
12436TIP3    H258800   2.250   3.897   1.660
12437TIP3   OH258801   2.367   3.843   1.792
12437TIP3    H158802   2.453   3.818   1.757
12437TIP3    H258803   2.337   3.765   1.839
12438TIP3   OH258804   2.218   5.538  -0.022
12438TIP3    H158805   2.152   5.607  -0.028
12438TIP3    H258806   2.243   5.536   0.070
12439TIP3   OH258807   3.222   3.813   1.815
12439TIP3    H158808   3.212   3.765   1.897
12439TIP3    H258809   3.314   3.801   1.791
12440TIP3   OH258810   3.486   5.402   1.686
12440TIP3    H158811   3.427   5.395   1.611
12440TIP3    H258812   3.481   5.494   1.711
12441TIP3   OH258813   4.971   4.811   0.646
12441TIP3    H158814   4.954   4.904   0.634
12441TIP3    H258815   4.900   4.767   0.598
12442TIP3   OH258816   4.850   4.719   1.053
12442TIP3    H158817   4.878   4.676   1.133
12442TIP3    H258818   4.798   4.652   1.007
12443TIP3   OH258819   4.051   4.658   1.166
12443TIP3    H158820   4.053   4.588   1.232
12443TIP3    H258821   4.144   4.673   1.145
12444TIP3   OH258822   5.228   5.025   0.874
12444TIP3    H158823   5.192   4.947   0.917
12444TIP3    H258824   5.242   5.087   0.945
12445TIP3   OH258825   4.205   5.139   1.008
12445TIP3    H158826   4.181   5.051   0.977
12445TIP3    H258827   4.300   5.136   1.017
12446TIP3   OH258828   3.861   4.455   0.540
12446TIP3    H158829   3.862   4.532   0.598
12446TIP3    H258830   3.785   4.469   0.484
12447TIP3   OH258831   3.905   4.654   0.759
12447TIP3    H158832   3.930   4.576   0.809
12447TIP3    H258833   3.904   4.724   0.824
12448TIP3   OH258834   4.978   5.492   0.945
12448TIP3    H158835   5.010   5.455   0.862
12448TIP3    H258836   4.966   5.416   1.002
12449TIP3   OH258837   4.690   4.970   1.058
12449TIP3    H158838   4.729   4.890   1.024
12449TIP3    H258839   4.755   5.006   1.118
12450TIP3   OH258840   5.578   4.103   1.162
12450TIP3    H158841   5.594   4.174   1.225
12450TIP3    H258842   5.613   4.135   1.080
12451TIP3   OH258843   4.999   4.386   1.064
12451TIP3    H158844   5.006   4.292   1.079
12451TIP3    H258845   4.987   4.394   0.969
12452TIP3   OH258846   4.357   4.186   0.791
12452TIP3    H158847   4.360   4.273   0.750
12452TIP3    H258848   4.299   4.135   0.734
12453TIP3   OH258849   5.134   4.218   0.651
12453TIP3    H158850   5.175   4.187   0.731
12453TIP3    H258851   5.206   4.256   0.600
12454TIP3   OH258852   4.000   4.426   0.887
12454TIP3    H158853   4.066   4.395   0.948
12454TIP3    H258854   4.026   4.392   0.802
12455TIP3   OH258855   4.465   4.596   0.855
12455TIP3    H158856   4.551   4.563   0.881
12455TIP3    H258857   4.431   4.529   0.795
12456TIP3   OH258858   5.618   4.281   1.376
12456TIP3    H158859   5.537   4.330   1.358
12456TIP3    H258860   5.633   4.292   1.470
12457TIP3   OH258861   4.203   4.104   1.227
12457TIP3    H158862   4.180   4.164   1.157
12457TIP3    H258863   4.135   4.119   1.294
12458TIP3   OH258864   4.930   5.066   0.543
12458TIP3    H158865   4.912   5.060   0.449
12458TIP3    H258866   4.884   5.145   0.571
12459TIP3   OH258867   4.467   4.882   1.198
12459TIP3    H158868   4.417   4.953   1.237
12459TIP3    H258869   4.537   4.926   1.150
12460TIP3   OH258870   5.220   4.162   0.904
12460TIP3    H158871   5.149   4.140   0.965
12460TIP3    H258872   5.274   4.224   0.953
12461TIP3   OH258873   4.201   4.270   1.007
12461TIP3    H158874   4.253   4.329   1.061
12461TIP3    H258875   4.261   4.237   0.941
12462TIP3   OH258876   4.321   5.085   1.317
12462TIP3    H158877   4.321   5.181   1.306
12462TIP3    H258878   4.232   5.065   1.347
12463TIP3   OH258879   3.879   5.076   0.402
12463TIP3    H158880   3.879   5.119   0.316
12463TIP3    H258881   3.906   5.144   0.463
12464TIP3   OH258882   5.247   5.227   1.075
12464TIP3    H158883   5.152   5.234   1.087
12464TIP3    H258884   5.275   5.315   1.050
12465TIP3   OH258885   5.330   3.998   1.246
12465TIP3    H158886   5.263   4.039   1.191
12465TIP3    H258887   5.413   4.026   1.207
12466TIP3   OH258888   4.562   3.796   0.979
12466TIP3    H158889   4.534   3.705   0.980
12466TIP3    H258890   4.485   3.845   1.008
12467TIP3   OH258891   5.084   5.379   0.713
12467TIP3    H158892   5.123   5.295   0.688
12467TIP3    H258893   5.152   5.444   0.696
12468TIP3   OH258894   5.189   5.138   0.624
12468TIP3    H158895   5.107   5.098   0.597
12468TIP3    H258896   5.212   5.092   0.705
12469TIP3   OH258897   5.374   5.013   1.422
12469TIP3    H158898   5.361   4.953   1.348
12469TIP3    H258899   5.387   5.098   1.382
12470TIP3   OH258900   4.817   4.705   0.438
12470TIP3    H158901   4.751   4.768   0.409
12470TIP3    H258902   4.884   4.707   0.370
12471TIP3   OH258903   4.813   4.574   0.106
12471TIP3    H158904   4.867   4.586   0.184
12471TIP3    H258905   4.874   4.583   0.033
12472TIP3   OH258906   5.533   4.675   1.267
12472TIP3    H158907   5.459   4.734   1.257
12472TIP3    H258908   5.592   4.697   1.194
12473TIP3   OH258909   5.187   4.744   0.494
12473TIP3    H158910   5.121   4.771   0.558
12473TIP3    H258911   5.251   4.693   0.545
12474TIP3   OH258912   5.148   4.533   1.457
12474TIP3    H158913   5.142   4.606   1.519
12474TIP3    H258914   5.084   4.555   1.389
12475TIP3   OH258915   4.345   4.793   0.695
12475TIP3    H158916   4.316   4.749   0.615
12475TIP3    H258917   4.391   4.725   0.744
12476TIP3   OH258918   4.486   5.151   0.962
12476TIP3    H158919   4.481   5.152   0.866
12476TIP3    H258920   4.558   5.091   0.981
12477TIP3   OH258921   4.320   4.686   1.075
12477TIP3    H158922   4.373   4.662   0.999
12477TIP3    H258923   4.370   4.754   1.119
12478TIP3   OH258924   4.982   5.262   1.138
12478TIP3    H158925   4.976   5.324   1.211
12478TIP3    H258926   4.946   5.180   1.172
12479TIP3   OH258927   4.473   5.115   1.547
12479TIP3    H158928   4.409   5.171   1.590
12479TIP3    H258929   4.428   5.084   1.468
12480TIP3   OH258930   5.040   4.668   0.275
12480TIP3    H158931   5.091   4.695   0.352
12480TIP3    H258932   5.088   4.704   0.201
12481TIP3   OH258933   4.153   4.714   1.490
12481TIP3    H158934   4.157   4.786   1.553
12481TIP3    H258935   4.060   4.708   1.466
12482TIP3   OH258936   4.837   5.319   0.602
12482TIP3    H158937   4.914   5.345   0.651
12482TIP3    H258938   4.808   5.399   0.557
12483TIP3   OH258939   4.269   5.296   1.613
12483TIP3    H158940   4.265   5.317   1.519
12483TIP3    H258941   4.177   5.283   1.638
12484TIP3   OH258942   5.395   3.818   0.238
12484TIP3    H158943   5.320   3.839   0.293
12484TIP3    H258944   5.401   3.892   0.177
12485TIP3   OH258945   4.247   4.698   0.441
12485TIP3    H158946   4.187   4.767   0.413
12485TIP3    H258947   4.192   4.621   0.454
12486TIP3   OH258948   5.541   5.263   0.134
12486TIP3    H158949   5.565   5.356   0.128
12486TIP3    H258950   5.624   5.216   0.121
12487TIP3   OH258951   3.844   4.948   1.357
12487TIP3    H158952   3.793   4.950   1.276
12487TIP3    H258953   3.859   4.855   1.374
12488TIP3   OH258954   3.849   5.194   1.009
12488TIP3    H158955   3.919   5.133   0.985
12488TIP3    H258956   3.881   5.236   1.089
12489TIP3   OH258957   5.624   5.292   1.637
12489TIP3    H158958   5.611   5.197   1.632
12489TIP3    H258959   5.542   5.326   1.673
12490TIP3   OH258960   4.712   5.233   1.485
12490TIP3    H158961   4.713   5.313   1.537
12490TIP3    H258962   4.628   5.192   1.507
12491TIP3   OH258963   4.806   5.572   0.475
12491TIP3    H158964   4.792   5.600   0.384
12491TIP3    H258965   4.779   5.647   0.528
12492TIP3   OH258966   4.138   5.472   0.669
12492TIP3    H158967   4.158   5.443   0.758
12492TIP3    H258968   4.082   5.403   0.633
12493TIP3   OH258969   5.106   5.524   0.128
12493TIP3    H158970   5.173   5.459   0.108
12493TIP3    H258971   5.103   5.529   0.223
12494TIP3   OH258972   5.077   5.538   0.407
12494TIP3    H158973   4.986   5.534   0.439
12494TIP3    H258974   5.129   5.504   0.480
12495TIP3   OH258975   5.333   4.405   1.642
12495TIP3    H158976   5.266   4.443   1.585
12495TIP3    H258977   5.338   4.313   1.614
12496TIP3   OH258978   4.071   5.086   1.434
12496TIP3    H158979   4.096   5.043   1.516
12496TIP3    H258980   3.993   5.038   1.405
12497TIP3   OH258981   4.320   3.909   1.065
12497TIP3    H158982   4.246   3.894   1.005
12497TIP3    H258983   4.291   3.981   1.121
12498TIP3   OH258984   4.794   3.886   1.408
12498TIP3    H158985   4.838   3.837   1.477
12498TIP3    H258986   4.701   3.879   1.428
12499TIP3   OH258987   5.083   4.261   1.479
12499TIP3    H158988   5.023   4.248   1.553
12499TIP3    H258989   5.089   4.356   1.469
12500TIP3   OH258990   5.201   4.775   0.078
12500TIP3    H158991   5.256   4.789   0.001
12500TIP3    H258992   5.243   4.825   0.147
12501TIP3   OH258993   4.730   4.069   0.085
12501TIP3    H158994   4.658   4.100   0.140
12501TIP3    H258995   4.766   3.995   0.134
12502TIP3   OH258996   4.328   4.435   1.188
12502TIP3    H158997   4.259   4.435   1.254
12502TIP3    H258998   4.330   4.525   1.155
12503TIP3   OH258999   4.340   4.432   0.668
12503TIP3    H159000   4.246   4.419   0.669
12503TIP3    H259001   4.367   4.416   0.578
12504TIP3   OH259002   4.875   4.456   0.539
12504TIP3    H159003   4.850   4.543   0.509
12504TIP3    H259004   4.947   4.430   0.481
12505TIP3   OH259005   4.783   4.477   1.657
12505TIP3    H159006   4.734   4.404   1.694
12505TIP3    H259007   4.868   4.474   1.701
12506TIP3   OH259008   4.975   4.398   0.792
12506TIP3    H159009   4.927   4.439   0.720
12506TIP3    H259010   5.022   4.326   0.751
12507TIP3   OH259011   4.111   4.445   1.353
12507TIP3    H159012   4.112   4.489   1.438
12507TIP3    H259013   4.069   4.361   1.371
12508TIP3   OH259014   4.422   4.196   0.083
12508TIP3    H159015   4.399   4.163   0.170
12508TIP3    H259016   4.397   4.288   0.085
12509TIP3   OH259017   3.779   4.126   0.741
12509TIP3    H159018   3.837   4.127   0.817
12509TIP3    H259019   3.809   4.199   0.687
12510TIP3   OH259020   3.833   4.255   0.261
12510TIP3    H159021   3.906   4.296   0.214
12510TIP3    H259022   3.784   4.329   0.297
12511TIP3   OH259023   4.941   4.556   1.266
12511TIP3    H159024   4.970   4.500   1.195
12511TIP3    H259025   4.872   4.506   1.310
12512TIP3   OH259026   4.634   4.149   0.747
12512TIP3    H159027   4.544   4.155   0.779
12512TIP3    H259028   4.684   4.116   0.822
12513TIP3   OH259029   4.086   4.337   0.642
12513TIP3    H159030   4.010   4.365   0.591
12513TIP3    H259031   4.101   4.247   0.616
12514TIP3   OH259032   4.393   4.356   0.408
12514TIP3    H159033   4.488   4.353   0.419
12514TIP3    H259034   4.380   4.400   0.324
12515TIP3   OH259035   5.004   4.110   1.075
12515TIP3    H159036   4.965   4.112   1.162
12515TIP3    H259037   4.937   4.070   1.020
12516TIP3   OH259038   4.306   4.442   0.153
12516TIP3    H159039   4.212   4.432   0.142
12516TIP3    H259040   4.335   4.488   0.074
12517TIP3   OH259041   5.372   5.671   1.732
12517TIP3    H159042   5.399   5.695   1.644
12517TIP3    H259043   5.446   5.695   1.788
12518TIP3   OH259044   4.142   4.940   1.665
12518TIP3    H159045   4.206   4.929   1.736
12518TIP3    H259046   4.057   4.934   1.709
12519TIP3   OH259047   4.704   4.485   0.956
12519TIP3    H159048   4.772   4.431   0.916
12519TIP3    H259049   4.669   4.431   1.027
12520TIP3   OH259050   4.179   4.077   0.595
12520TIP3    H159051   4.124   4.003   0.621
12520TIP3    H259052   4.213   4.054   0.509
12521TIP3   OH259053   4.589   4.346   1.171
12521TIP3    H159054   4.504   4.388   1.186
12521TIP3    H259055   4.642   4.371   1.247
12522TIP3   OH259056   4.643   4.899   0.345
12522TIP3    H159057   4.570   4.859   0.298
12522TIP3    H259058   4.604   4.934   0.425
12523TIP3   OH259059   5.340   4.859   1.196
12523TIP3    H159060   5.401   4.912   1.146
12523TIP3    H259061   5.270   4.839   1.133
12524TIP3   OH259062   4.940   4.179   0.273
12524TIP3    H159063   4.900   4.192   0.187
12524TIP3    H259064   4.992   4.258   0.287
12525TIP3   OH259065   4.794   4.949   1.496
12525TIP3    H159066   4.818   4.907   1.579
12525TIP3    H259067   4.761   5.035   1.521
12526TIP3   OH259068   5.086   4.400   0.362
12526TIP3    H159069   5.175   4.378   0.388
12526TIP3    H259070   5.094   4.483   0.315
12527TIP3   OH259071   4.189   4.886   0.909
12527TIP3    H159072   4.233   4.860   0.828
12527TIP3    H259073   4.197   4.810   0.967
12528TIP3   OH259074   4.864   5.047   0.260
12528TIP3    H159075   4.818   5.131   0.269
12528TIP3    H259076   4.798   4.981   0.280
12529TIP3   OH259077   3.869   4.690   1.460
12529TIP3    H159078   3.858   4.653   1.547
12529TIP3    H259079   3.796   4.655   1.409
12530TIP3   OH259080   4.575   4.666   1.686
12530TIP3    H159081   4.507   4.630   1.629
12530TIP3    H259082   4.653   4.614   1.666
12531TIP3   OH259083   4.994   5.231   1.486
12531TIP3    H159084   4.901   5.226   1.464
12531TIP3    H259085   4.996   5.245   1.580
12532TIP3   OH259086   5.551   4.445   0.314
12532TIP3    H159087   5.492   4.410   0.247
12532TIP3    H259088   5.566   4.536   0.286
12533TIP3   OH259089   5.589   5.014   1.590
12533TIP3    H159090   5.501   5.023   1.553
12533TIP3    H259091   5.646   4.999   1.514
12534TIP3   OH259092   5.419   5.306   0.389
12534TIP3    H159093   5.366   5.236   0.429
12534TIP3    H259094   5.448   5.269   0.305
12535TIP3   OH259095   5.137   4.790   1.008
12535TIP3    H159096   5.041   4.780   1.010
12535TIP3    H259097   5.168   4.712   0.962
12536TIP3   OH259098   4.417   5.213   0.694
12536TIP3    H159099   4.436   5.297   0.653
12536TIP3    H259100   4.322   5.203   0.685
12537TIP3   OH259101   3.966   4.693   0.160
12537TIP3    H159102   4.003   4.749   0.228
12537TIP3    H259103   3.872   4.694   0.178
12538TIP3   OH259104   4.506   4.981   0.565
12538TIP3    H159105   4.491   5.065   0.609
12538TIP3    H259106   4.452   4.919   0.615
12539TIP3   OH259107   4.595   5.389   1.276
12539TIP3    H159108   4.656   5.458   1.252
12539TIP3    H259109   4.648   5.328   1.328
12540TIP3   OH259110   4.397   5.472   0.575
12540TIP3    H159111   4.304   5.480   0.598
12540TIP3    H259112   4.438   5.550   0.612
12541TIP3   OH259113   4.895   5.013   1.245
12541TIP3    H159114   4.858   4.991   1.330
12541TIP3    H259115   4.962   4.946   1.230
12542TIP3   OH259116   5.135   5.086   0.151
12542TIP3    H159117   5.188   5.031   0.207
12542TIP3    H259118   5.046   5.078   0.186
12543TIP3   OH259119   5.204   5.415   1.462
12543TIP3    H159120   5.125   5.362   1.456
12543TIP3    H259121   5.191   5.486   1.399
12544TIP3   OH259122   5.610   5.536   0.163
12544TIP3    H159123   5.673   5.608   0.164
12544TIP3    H259124   5.525   5.579   0.163
12545TIP3   OH259125   4.006   4.192   1.407
12545TIP3    H159126   3.911   4.187   1.396
12545TIP3    H259127   4.021   4.173   1.499
12546TIP3   OH259128   5.296   4.912   0.302
12546TIP3    H159129   5.250   4.865   0.372
12546TIP3    H259130   5.386   4.920   0.334
12547TIP3   OH259131   3.984   5.305   1.230
12547TIP3    H159132   4.060   5.246   1.230
12547TIP3    H259133   3.954   5.305   1.320
12548TIP3   OH259134   4.416   5.183   0.252
12548TIP3    H159135   4.494   5.135   0.279
12548TIP3    H259136   4.437   5.274   0.272
12549TIP3   OH259137   4.070   4.885   0.333
12549TIP3    H159138   3.999   4.929   0.379
12549TIP3    H259139   4.115   4.955   0.286
12550TIP3   OH259140   4.893   4.129   1.325
12550TIP3    H159141   4.964   4.153   1.385
12550TIP3    H259142   4.859   4.047   1.359
12551TIP3   OH259143   4.983   4.040   0.501
12551TIP3    H159144   4.966   4.087   0.420
12551TIP3    H259145   5.029   4.104   0.556
12552TIP3   OH259146   4.710   5.270   0.290
12552TIP3    H159147   4.641   5.327   0.325
12552TIP3    H259148   4.762   5.327   0.234
12553TIP3   OH259149   4.650   4.298   0.509
12553TIP3    H159150   4.728   4.353   0.515
12553TIP3    H259151   4.643   4.257   0.595
12554TIP3   OH259152   4.765   4.382   1.385
12554TIP3    H159153   4.763   4.402   1.479
12554TIP3    H259154   4.796   4.292   1.380
12555TIP3   OH259155   4.732   3.957   0.573
12555TIP3    H159156   4.703   4.029   0.630
12555TIP3    H259157   4.822   3.979   0.551
12556TIP3   OH259158   4.487   5.440   0.317
12556TIP3    H159159   4.494   5.529   0.281
12556TIP3    H259160   4.456   5.453   0.407
12557TIP3   OH259161   4.323   4.097   0.329
12557TIP3    H159162   4.324   4.185   0.368
12557TIP3    H259163   4.412   4.065   0.341
12558TIP3   OH259164   5.332   4.155   1.490
12558TIP3    H159165   5.241   4.183   1.487
12558TIP3    H259166   5.345   4.105   1.410
12559TIP3   OH259167   5.212   4.540   0.887
12559TIP3    H159168   5.128   4.498   0.865
12559TIP3    H259169   5.254   4.479   0.947
12560TIP3   OH259170   4.164   5.104   0.181
12560TIP3    H159171   4.235   5.149   0.226
12560TIP3    H259172   4.207   5.050   0.115
12561TIP3   OH259173   4.024   4.424   0.099
12561TIP3    H159174   4.001   4.515   0.114
12561TIP3    H259175   4.008   4.410   0.006
12562TIP3   OH259176   5.341   5.488   1.067
12562TIP3    H159177   5.333   5.567   1.013
12562TIP3    H259178   5.435   5.480   1.083
12563TIP3   OH259179   4.084   3.868   0.931
12563TIP3    H159180   4.066   3.864   0.837
12563TIP3    H259181   4.038   3.792   0.967
12564TIP3   OH259182   3.945   5.295   0.568
12564TIP3    H159183   3.890   5.321   0.642
12564TIP3    H259184   3.925   5.358   0.499
12565TIP3   OH259185   3.890   5.548   1.721
12565TIP3    H159186   3.960   5.490   1.750
12565TIP3    H259187   3.823   5.488   1.687
12566TIP3   OH259188   4.352   5.411   1.849
12566TIP3    H159189   4.422   5.352   1.878
12566TIP3    H259190   4.321   5.373   1.767
12567TIP3   OH259191   4.851   5.418   0.111
12567TIP3    H159192   4.823   5.372   0.032
12567TIP3    H259193   4.944   5.437   0.096
12568TIP3   OH259194   4.992   5.268   1.756
12568TIP3    H159195   4.966   5.185   1.795
12568TIP3    H259196   5.069   5.295   1.806
12569TIP3   OH259197   5.271   5.317   0.073
12569TIP3    H159198   5.226   5.238   0.103
12569TIP3    H259199   5.364   5.296   0.079
12570TIP3   OH259200   3.890   4.932   1.782
12570TIP3    H159201   3.894   4.837   1.773
12570TIP3    H259202   3.820   4.959   1.723
12571TIP3   OH259203   4.319   4.933   0.036
12571TIP3    H159204   4.357   4.890   0.113
12571TIP3    H259205   4.355   4.885  -0.038
12572TIP3   OH259206   4.549   4.943   1.751
12572TIP3    H159207   4.531   4.987   1.667
12572TIP3    H259208   4.572   4.853   1.726
12573TIP3   OH259209   5.116   4.975   1.515
12573TIP3    H159210   5.206   4.995   1.489
12573TIP3    H259211   5.068   5.056   1.498
12574TIP3   OH259212   3.975   4.665   1.752
12574TIP3    H159213   4.040   4.598   1.732
12574TIP3    H259214   3.970   4.666   1.847
12575TIP3   OH259215   4.426   4.767   0.230
12575TIP3    H159216   4.374   4.732   0.303
12575TIP3    H259217   4.459   4.689   0.185
12576TIP3   OH259218   4.383   4.559   1.505
12576TIP3    H159219   4.304   4.613   1.498
12576TIP3    H259220   4.441   4.591   1.436
12577TIP3   OH259221   4.544   4.587   0.043
12577TIP3    H159222   4.536   4.514  -0.018
12577TIP3    H259223   4.635   4.586   0.071
12578TIP3   OH259224   4.883   4.804   1.764
12578TIP3    H159225   4.962   4.763   1.728
12578TIP3    H259226   4.847   4.739   1.824
12579TIP3   OH259227   5.478   4.897  16.003
12579TIP3    H159228   5.457   4.932  15.916
12579TIP3    H259229   5.488   4.974  16.058
12580TIP3   OH259230   4.451   4.295   1.558
12580TIP3    H159231   4.445   4.240   1.480
12580TIP3    H259232   4.423   4.381   1.528
12581TIP3   OH259233   4.459   4.135   1.324
12581TIP3    H159234   4.506   4.187   1.259
12581TIP3    H259235   4.370   4.130   1.289
12582TIP3   OH259236   4.567   4.664   1.333
12582TIP3    H159237   4.658   4.686   1.353
12582TIP3    H259238   4.534   4.741   1.287
12583TIP3   OH259239   5.017   4.454   1.822
12583TIP3    H159240   5.046   4.363   1.811
12583TIP3    H259241   5.094   4.501   1.852
12584TIP3   OH259242   5.160   4.743   1.648
12584TIP3    H159243   5.132   4.824   1.606
12584TIP3    H259244   5.256   4.746   1.643
12585TIP3   OH259245   4.165   4.457   1.728
12585TIP3    H159246   4.163   4.390   1.797
12585TIP3    H259247   4.249   4.443   1.684
12586TIP3   OH259248   4.514   3.873   1.401
12586TIP3    H159249   4.496   3.965   1.378
12586TIP3    H259250   4.442   3.824   1.361
12587TIP3   OH259251   4.645   4.254   1.742
12587TIP3    H159252   4.597   4.232   1.822
12587TIP3    H259253   4.577   4.262   1.675
12588TIP3   OH259254   4.913   4.201   1.679
12588TIP3    H159255   4.822   4.202   1.708
12588TIP3    H259256   4.958   4.148   1.745
12589TIP3   OH259257   5.093   4.082   1.858
12589TIP3    H159258   5.088   3.987   1.845
12589TIP3    H259259   5.071   4.094   1.951
12590TIP3   OH259260   4.042   4.140   1.677
12590TIP3    H159261   4.049   4.045   1.671
12590TIP3    H259262   4.083   4.161   1.761
12591TIP3   OH259263   4.510   3.787   1.660
12591TIP3    H159264   4.566   3.710   1.652
12591TIP3    H259265   4.504   3.823   1.571
12592TIP3   OH259266   4.592   3.936   1.877
12592TIP3    H159267   4.566   3.887   1.799
12592TIP3    H259268   4.536   4.014   1.876
12593TIP3   OH259269   4.538   5.665   0.166
12593TIP3    H159270   4.629   5.679   0.190
12593TIP3    H259271   4.536   5.680   0.071
12594TIP3   OH259272   3.897   5.131   0.109
12594TIP3    H159273   3.989   5.132   0.135
12594TIP3    H259274   3.898   5.094   0.021
12595TIP3   OH259275   3.768   5.620   0.656
12595TIP3    H159276   3.714   5.594   0.581
12595TIP3    H259277   3.781   5.538   0.704
12596TIP3   OH259278   3.837   5.398   0.812
12596TIP3    H159279   3.809   5.318   0.857
12596TIP3    H259280   3.882   5.449   0.879
12597TIP3   OH259281   5.607   5.487   1.139
12597TIP3    H159282   5.607   5.489   1.235
12597TIP3    H259283   5.676   5.549   1.114
12598TIP3   OH259284   5.560   5.456   1.415
12598TIP3    H159285   5.503   5.389   1.376
12598TIP3    H259286   5.601   5.412   1.489
12599TIP3   OH259287   5.402   5.058   1.917
12599TIP3    H159288   5.321   5.071   1.967
12599TIP3    H259289   5.456   5.134   1.940
12600TIP3   OH259290   5.552   4.890   0.411
12600TIP3    H159291   5.621   4.956   0.419
12600TIP3    H259292   5.565   4.833   0.487
12601TIP3   OH259293   5.599   4.701   0.609
12601TIP3    H159294   5.516   4.663   0.636
12601TIP3    H259295   5.649   4.709   0.690
12602TIP3   OH259296   5.579   4.987   1.126
12602TIP3    H159297   5.631   4.920   1.082
12602TIP3    H259298   5.608   5.069   1.086
12603TIP3   OH259299   5.385   5.265   1.316
12603TIP3    H159300   5.316   5.310   1.364
12603TIP3    H259301   5.348   5.248   1.229
12604TIP3   OH259302   5.582   4.708   0.210
12604TIP3    H159303   5.528   4.745   0.141
12604TIP3    H259304   5.571   4.767   0.284
12605TIP3   OH259305   5.395   4.362   0.113
12605TIP3    H159306   5.452   4.381   0.038
12605TIP3    H259307   5.371   4.270   0.101
12606TIP3   OH259308   5.350   4.575   0.648
12606TIP3    H159309   5.346   4.487   0.611
12606TIP3    H259310   5.307   4.568   0.733
12607TIP3   OH259311   3.856   4.780   1.011
12607TIP3    H159312   3.786   4.715   1.001
12607TIP3    H259313   3.922   4.737   1.065
12608TIP3   OH259314   5.439   4.753   1.634
12608TIP3    H159315   5.496   4.678   1.620
12608TIP3    H259316   5.486   4.827   1.596
12609TIP3   OH259317   5.582   4.516   1.616
12609TIP3    H159318   5.494   4.480   1.626
12609TIP3    H259319   5.641   4.445   1.640
12610TIP3   OH259320   5.345   4.332   0.486
12610TIP3    H159321   5.367   4.239   0.487
12610TIP3    H259322   5.414   4.373   0.435
12611TIP3   OH259323   5.359   4.356   1.049
12611TIP3    H159324   5.451   4.364   1.026
12611TIP3    H259325   5.355   4.377   1.142
12612TIP3   OH259326   5.390   4.443   1.316
12612TIP3    H159327   5.310   4.471   1.360
12612TIP3    H259328   5.441   4.523   1.303
12613TIP3   OH259329   3.804   4.278   1.646
12613TIP3    H159330   3.894   4.259   1.671
12613TIP3    H259331   3.756   4.197   1.666
12614TIP3   OH259332   5.631   3.861   1.839
12614TIP3    H159333   5.696   3.800   1.804
12614TIP3    H259334   5.624   3.930   1.773
12615TIP3   OH259335   5.396   4.060   0.503
12615TIP3    H159336   5.413   4.014   0.585
12615TIP3    H259337   5.337   4.003   0.455
12616TIP3   OH259338   3.972   4.119   0.934
12616TIP3    H159339   4.008   4.031   0.946
12616TIP3    H259340   4.041   4.178   0.966
12617TIP3   OH259341   3.782   4.339   1.049
12617TIP3    H159342   3.859   4.354   0.994
12617TIP3    H259343   3.728   4.418   1.037
12618TIP3   OH259344   5.556   4.049   1.654
12618TIP3    H159345   5.481   4.088   1.700
12618TIP3    H259346   5.519   4.012   1.574
12619TIP3   OH259347   5.673   4.000   0.126
12619TIP3    H159348   5.583   4.017   0.101
12619TIP3    H259349   5.705   4.084   0.160
12620TIP3   OH259350   3.802   4.018   0.405
12620TIP3    H159351   3.714   4.031   0.441
12620TIP3    H259352   3.825   4.104   0.369
12621TIP3   OH259353   5.264   5.563   0.636
12621TIP3    H159354   5.347   5.568   0.587
12621TIP3    H259355   5.251   5.652   0.669
12622TIP3   OH259356   3.810   3.885   1.276
12622TIP3    H159357   3.746   3.883   1.347
12622TIP3    H259358   3.782   3.958   1.221
12623TIP3   OH259359   4.012   5.294   1.728
12623TIP3    H159360   3.927   5.283   1.684
12623TIP3    H259361   4.003   5.244   1.809
12624TIP3   OH259362   4.329   5.362   1.342
12624TIP3    H159363   4.300   5.450   1.320
12624TIP3    H259364   4.423   5.363   1.327
12625TIP3   OH259365   4.730   5.467   1.626
12625TIP3    H159366   4.741   5.435   1.716
12625TIP3    H259367   4.810   5.517   1.609
12626TIP3   OH259368   4.950   5.625   1.580
12626TIP3    H159369   5.009   5.572   1.526
12626TIP3    H259370   5.002   5.649   1.656
12627TIP3   OH259371   5.465   3.842   1.464
12627TIP3    H159372   5.398   3.866   1.401
12627TIP3    H259373   5.484   3.750   1.446
12628TIP3   OH259374   4.034   5.677   1.367
12628TIP3    H159375   3.956   5.723   1.336
12628TIP3    H259376   4.030   5.687   1.463
12629TIP3   OH259377   4.289   5.629   1.282
12629TIP3    H159378   4.199   5.643   1.310
12629TIP3    H259379   4.295   5.671   1.196
12630TIP3   OH259380   4.747   5.602   1.184
12630TIP3    H159381   4.711   5.631   1.100
12630TIP3    H259382   4.758   5.683   1.234
12631TIP3   OH259383   4.981   5.498   1.290
12631TIP3    H159384   4.902   5.530   1.246
12631TIP3    H259385   5.050   5.557   1.261
12632TIP3   OH259386   5.230   5.632   1.275
12632TIP3    H159387   5.246   5.724   1.251
12632TIP3    H259388   5.266   5.582   1.202
12633TIP3   OH259389   3.986   5.505   1.036
12633TIP3    H159390   3.982   5.450   1.114
12633TIP3    H259391   4.066   5.478   0.991
12634TIP3   OH259392   4.210   5.398   0.924
12634TIP3    H159393   4.198   5.306   0.949
12634TIP3    H259394   4.298   5.420   0.955
12635TIP3   OH259395   4.470   5.419   1.028
12635TIP3    H159396   4.483   5.331   0.993
12635TIP3    H259397   4.504   5.415   1.117
12636TIP3   OH259398   4.791   3.990   0.920
12636TIP3    H159399   4.730   3.920   0.943
12636TIP3    H259400   4.865   3.945   0.878
12637TIP3   OH259401   5.288   3.836   0.915
12637TIP3    H159402   5.350   3.890   0.866
12637TIP3    H259403   5.203   3.877   0.899
12638TIP3   OH259404   5.474   3.927   0.736
12638TIP3    H159405   5.544   3.867   0.710
12638TIP3    H259406   5.521   4.007   0.761
12639TIP3   OH259407   4.033   3.848   0.658
12639TIP3    H159408   3.942   3.829   0.634
12639TIP3    H259409   4.078   3.764   0.653
12640TIP3   OH259410   3.931   3.839   0.240
12640TIP3    H159411   4.005   3.891   0.209
12640TIP3    H259412   3.885   3.896   0.301
12641TIP3   OH259413   4.531   3.802   0.694
12641TIP3    H159414   4.596   3.859   0.653
12641TIP3    H259415   4.547   3.810   0.788
12642TIP3   OH259416   5.014   3.862   0.818
12642TIP3    H159417   5.045   3.849   0.729
12642TIP3    H259418   5.000   3.773   0.852
12643TIP3   OH259419   5.194   3.879   0.417
12643TIP3    H159420   5.121   3.936   0.441
12643TIP3    H259421   5.158   3.790   0.424
12644TIP3   OH259422   3.895   5.473   0.371
12644TIP3    H159423   3.821   5.461   0.311
12644TIP3    H259424   3.928   5.561   0.352
12645TIP3   OH259425   4.146   3.975   0.140
12645TIP3    H159426   4.191   3.996   0.058
12645TIP3    H259427   4.199   4.016   0.208
12646TIP3   OH259428   4.598   4.078   0.349
12646TIP3    H159429   4.641   4.012   0.404
12646TIP3    H259430   4.623   4.162   0.388
12647TIP3   OH259431   4.810   5.666   0.211
12647TIP3    H159432   4.897   5.705   0.202
12647TIP3    H259433   4.819   5.580   0.171
12648TIP3   OH259434   5.478   5.563   0.457
12648TIP3    H159435   5.460   5.471   0.437
12648TIP3    H259436   5.460   5.609   0.374
12649TIP3   OH259437   4.053   3.859   1.623
12649TIP3    H159438   3.988   3.799   1.660
12649TIP3    H259439   4.132   3.843   1.673
12650TIP3   OH259440   4.265   3.798   1.789
12650TIP3    H159441   4.349   3.806   1.745
12650TIP3    H259442   4.264   3.709   1.825
12651TIP3   OH259443   4.132   5.554   0.008
12651TIP3    H159444   4.042   5.574   0.035
12651TIP3    H259445   4.155   5.476   0.058
12652TIP3   OH259446   5.110   3.809   1.810
12652TIP3    H159447   5.099   3.760   1.891
12652TIP3    H259448   5.202   3.797   1.787
12653TIP3   OH259449   5.374   5.396   1.686
12653TIP3    H159450   5.312   5.392   1.612
12653TIP3    H259451   5.369   5.487   1.716
12654TIP3   OH259452   6.854   4.802   0.649
12654TIP3    H159453   6.836   4.896   0.645
12654TIP3    H259454   6.788   4.762   0.592
12655TIP3   OH259455   6.722   4.712   1.051
12655TIP3    H159456   6.751   4.670   1.132
12655TIP3    H259457   6.669   4.646   1.007
12656TIP3   OH259458   5.945   4.646   1.172
12656TIP3    H159459   5.958   4.576   1.237
12656TIP3    H259460   6.034   4.668   1.143
12657TIP3   OH259461   7.100   5.034   0.889
12657TIP3    H159462   7.064   4.961   0.939
12657TIP3    H259463   7.128   5.097   0.955
12658TIP3   OH259464   6.095   5.119   0.961
12658TIP3    H159465   6.059   5.032   0.946
12658TIP3    H259466   6.187   5.105   0.980
12659TIP3   OH259467   5.746   4.479   0.515
12659TIP3    H159468   5.706   4.559   0.548
12659TIP3    H259469   5.683   4.446   0.451
12660TIP3   OH259470   5.792   4.703   0.817
12660TIP3    H159471   5.822   4.614   0.834
12660TIP3    H259472   5.870   4.757   0.826
12661TIP3   OH259473   6.848   5.469   0.929
12661TIP3    H159474   6.871   5.417   0.851
12661TIP3    H259475   6.839   5.404   0.999
12662TIP3   OH259476   6.580   4.964   1.058
12662TIP3    H159477   6.619   4.881   1.030
12662TIP3    H259478   6.644   5.001   1.118
12663TIP3   OH259479   6.901   4.366   1.059
12663TIP3    H159480   6.892   4.272   1.072
12663TIP3    H259481   6.872   4.381   0.969
12664TIP3   OH259482   6.240   4.185   0.787
12664TIP3    H159483   6.239   4.271   0.746
12664TIP3    H259484   6.182   4.132   0.733
12665TIP3   OH259485   6.998   4.233   0.639
12665TIP3    H159486   7.048   4.191   0.709
12665TIP3    H259487   7.064   4.259   0.574
12666TIP3   OH259488   5.871   4.445   0.882
12666TIP3    H159489   5.935   4.402   0.938
12666TIP3    H259490   5.887   4.409   0.795
12667TIP3   OH259491   6.341   4.590   0.851
12667TIP3    H159492   6.427   4.556   0.876
12667TIP3    H259493   6.305   4.524   0.792
12668TIP3   OH259494   6.093   4.116   1.219
12668TIP3    H159495   6.070   4.173   1.146
12668TIP3    H259496   6.021   4.127   1.281
12669TIP3   OH259497   6.808   5.058   0.553
12669TIP3    H159498   6.793   5.054   0.459
12669TIP3    H259499   6.754   5.131   0.583
12670TIP3   OH259500   6.347   4.887   1.190
12670TIP3    H159501   6.300   4.960   1.230
12670TIP3    H259502   6.421   4.929   1.145
12671TIP3   OH259503   7.118   4.139   0.866
12671TIP3    H159504   7.049   4.078   0.894
12671TIP3    H259505   7.139   4.189   0.944
12672TIP3   OH259506   6.076   4.279   0.995
12672TIP3    H159507   6.132   4.337   1.047
12672TIP3    H259508   6.135   4.243   0.929
12673TIP3   OH259509   6.205   5.091   1.311
12673TIP3    H159510   6.212   5.187   1.304
12673TIP3    H259511   6.114   5.076   1.337
12674TIP3   OH259512   5.763   5.071   0.402
12674TIP3    H159513   5.760   5.112   0.316
12674TIP3    H259514   5.789   5.141   0.462
12675TIP3   OH259515   7.141   5.251   1.078
12675TIP3    H159516   7.046   5.256   1.088
12675TIP3    H259517   7.168   5.340   1.056
12676TIP3   OH259518   7.094   3.991   1.165
12676TIP3    H159519   7.011   4.018   1.126
12676TIP3    H259520   7.107   4.052   1.238
12677TIP3   OH259521   6.435   3.793   0.985
12677TIP3    H159522   6.409   3.701   0.983
12677TIP3    H259523   6.356   3.840   1.012
12678TIP3   OH259524   6.949   5.360   0.691
12678TIP3    H159525   6.989   5.275   0.674
12678TIP3    H259526   7.023   5.418   0.710
12679TIP3   OH259527   7.069   5.123   0.630
12679TIP3    H159528   6.987   5.081   0.604
12679TIP3    H259529   7.091   5.083   0.714
12680TIP3   OH259530   7.234   4.965   1.446
12680TIP3    H159531   7.228   4.915   1.364
12680TIP3    H259532   7.261   5.052   1.418
12681TIP3   OH259533   6.711   4.711   0.428
12681TIP3    H159534   6.642   4.772   0.402
12681TIP3    H259535   6.777   4.719   0.359
12682TIP3   OH259536   6.728   4.568   0.102
12682TIP3    H159537   6.780   4.584   0.180
12682TIP3    H259538   6.789   4.581   0.029
12683TIP3   OH259539   7.076   4.746   0.500
12683TIP3    H159540   7.008   4.774   0.561
12683TIP3    H259541   7.128   4.681   0.549
12684TIP3   OH259542   7.018   4.531   1.458
12684TIP3    H159543   7.002   4.601   1.520
12684TIP3    H259544   6.955   4.547   1.387
12685TIP3   OH259545   6.222   4.788   0.690
12685TIP3    H159546   6.197   4.747   0.607
12685TIP3    H259547   6.271   4.720   0.736
12686TIP3   OH259548   6.379   5.140   0.955
12686TIP3    H159549   6.380   5.148   0.860
12686TIP3    H259550   6.454   5.084   0.975
12687TIP3   OH259551   6.202   4.691   1.068
12687TIP3    H159552   6.256   4.664   0.993
12687TIP3    H259553   6.253   4.759   1.111
12688TIP3   OH259554   6.869   5.259   1.132
12688TIP3    H159555   6.858   5.322   1.203
12688TIP3    H259556   6.832   5.177   1.166
12689TIP3   OH259557   6.358   5.111   1.543
12689TIP3    H159558   6.293   5.166   1.588
12689TIP3    H259559   6.315   5.084   1.462
12690TIP3   OH259560   6.945   4.672   0.272
12690TIP3    H159561   6.990   4.703   0.351
12690TIP3    H259562   6.991   4.716   0.200
12691TIP3   OH259563   6.019   4.686   1.515
12691TIP3    H159564   6.033   4.772   1.555
12691TIP3    H259565   5.929   4.689   1.484
12692TIP3   OH259566   6.689   5.301   0.614
12692TIP3    H159567   6.771   5.332   0.653
12692TIP3    H259568   6.655   5.378   0.568
12693TIP3   OH259569   6.151   5.281   1.613
12693TIP3    H159570   6.152   5.317   1.525
12693TIP3    H259571   6.059   5.277   1.637
12694TIP3   OH259572   7.282   3.842   0.268
12694TIP3    H159573   7.194   3.854   0.303
12694TIP3    H259574   7.273   3.860   0.175
12695TIP3   OH259575   6.133   4.693   0.436
12695TIP3    H159576   6.074   4.764   0.408
12695TIP3    H259577   6.079   4.614   0.434
12696TIP3   OH259578   5.727   4.948   1.364
12696TIP3    H159579   5.673   4.956   1.286
12696TIP3    H259580   5.740   4.853   1.375
12697TIP3   OH259581   5.692   5.236   1.051
12697TIP3    H159582   5.773   5.240   1.102
12697TIP3    H259583   5.642   5.313   1.080
12698TIP3   OH259584   6.595   5.243   1.496
12698TIP3    H159585   6.590   5.326   1.542
12698TIP3    H259586   6.511   5.200   1.516
12699TIP3   OH259587   6.668   5.573   0.483
12699TIP3    H159588   6.661   5.598   0.391
12699TIP3    H259589   6.642   5.651   0.531
12700TIP3   OH259590   6.031   5.469   0.666
12700TIP3    H159591   6.050   5.440   0.755
12700TIP3    H259592   5.974   5.402   0.630
12701TIP3   OH259593   6.963   5.575   0.182
12701TIP3    H159594   7.020   5.518   0.131
12701TIP3    H259595   6.963   5.537   0.270
12702TIP3   OH259596   6.932   5.502   0.449
12702TIP3    H159597   6.838   5.519   0.458
12702TIP3    H259598   6.953   5.439   0.518
12703TIP3   OH259599   7.171   4.429   1.688
12703TIP3    H159600   7.145   4.477   1.610
12703TIP3    H259601   7.249   4.380   1.662
12704TIP3   OH259602   5.950   5.099   1.419
12704TIP3    H159603   5.977   5.064   1.504
12704TIP3    H259604   5.871   5.049   1.396
12705TIP3   OH259605   6.197   3.911   1.063
12705TIP3    H159606   6.121   3.898   1.006
12705TIP3    H259607   6.173   3.984   1.119
12706TIP3   OH259608   6.674   3.881   1.398
12706TIP3    H159609   6.718   3.834   1.470
12706TIP3    H259610   6.581   3.878   1.421
12707TIP3   OH259611   6.985   4.245   1.478
12707TIP3    H159612   6.923   4.231   1.549
12707TIP3    H259613   6.997   4.340   1.475
12708TIP3   OH259614   7.092   4.801   0.078
12708TIP3    H159615   7.082   4.864   0.006
12708TIP3    H259616   7.139   4.849   0.146
12709TIP3   OH259617   6.679   4.114   0.122
12709TIP3    H159618   6.607   4.104   0.184
12709TIP3    H259619   6.636   4.113   0.036
12710TIP3   OH259620   6.218   4.435   1.176
12710TIP3    H159621   6.152   4.432   1.246
12710TIP3    H259622   6.217   4.526   1.147
12711TIP3   OH259623   6.210   4.429   0.667
12711TIP3    H159624   6.115   4.416   0.664
12711TIP3    H259625   6.238   4.416   0.576
12712TIP3   OH259626   6.752   4.466   0.540
12712TIP3    H159627   6.729   4.553   0.507
12712TIP3    H259628   6.825   4.438   0.485
12713TIP3   OH259629   6.670   4.474   1.654
12713TIP3    H159630   6.620   4.403   1.694
12713TIP3    H259631   6.755   4.472   1.698
12714TIP3   OH259632   6.839   4.403   0.794
12714TIP3    H159633   6.794   4.450   0.724
12714TIP3    H259634   6.889   4.335   0.749
12715TIP3   OH259635   6.006   4.438   1.352
12715TIP3    H159636   6.003   4.488   1.433
12715TIP3    H259637   5.962   4.355   1.372
12716TIP3   OH259638   6.374   4.217   0.035
12716TIP3    H159639   6.339   4.182   0.117
12716TIP3    H259640   6.371   4.312   0.047
12717TIP3   OH259641   5.630   4.144   0.778
12717TIP3    H159642   5.707   4.150   0.835
12717TIP3    H259643   5.665   4.152   0.690
12718TIP3   OH259644   5.749   4.244   0.258
12718TIP3    H159645   5.819   4.289   0.213
12718TIP3    H259646   5.680   4.309   0.268
12719TIP3   OH259647   6.821   4.542   1.256
12719TIP3    H159648   6.852   4.481   1.190
12719TIP3    H259649   6.751   4.495   1.301
12720TIP3   OH259650   6.519   4.147   0.756
12720TIP3    H159651   6.426   4.154   0.779
12720TIP3    H259652   6.559   4.105   0.832
12721TIP3   OH259653   5.950   4.343   0.639
12721TIP3    H159654   5.878   4.379   0.587
12721TIP3    H259655   5.955   4.251   0.614
12722TIP3   OH259656   6.281   4.368   0.408
12722TIP3    H159657   6.377   4.365   0.417
12722TIP3    H259658   6.266   4.405   0.321
12723TIP3   OH259659   6.858   4.091   1.063
12723TIP3    H159660   6.819   4.101   1.150
12723TIP3    H259661   6.790   4.049   1.010
12724TIP3   OH259662   6.195   4.432   0.151
12724TIP3    H159663   6.100   4.420   0.148
12724TIP3    H259664   6.218   4.466   0.065
12725TIP3   OH259665   7.241   5.697   1.711
12725TIP3    H159666   7.243   5.780   1.662
12725TIP3    H259667   7.332   5.681   1.735
12726TIP3   OH259668   6.022   4.932   1.655
12726TIP3    H159669   6.088   4.929   1.724
12726TIP3    H259670   5.939   4.945   1.701
12727TIP3   OH259671   6.582   4.480   0.952
12727TIP3    H159672   6.649   4.427   0.907
12727TIP3    H259673   6.551   4.425   1.023
12728TIP3   OH259674   6.057   4.073   0.606
12728TIP3    H159675   6.004   3.998   0.633
12728TIP3    H259676   6.074   4.058   0.513
12729TIP3   OH259677   6.478   4.340   1.172
12729TIP3    H159678   6.393   4.383   1.181
12729TIP3    H259679   6.527   4.367   1.249
12730TIP3   OH259680   6.525   4.898   0.346
12730TIP3    H159681   6.455   4.855   0.299
12730TIP3    H259682   6.484   4.931   0.426
12731TIP3   OH259683   7.206   4.831   1.208
12731TIP3    H159684   7.275   4.811   1.145
12731TIP3    H259685   7.125   4.829   1.158
12732TIP3   OH259686   6.922   4.178   0.223
12732TIP3    H159687   6.837   4.164   0.180
12732TIP3    H259688   6.918   4.268   0.255
12733TIP3   OH259689   6.654   4.948   1.490
12733TIP3    H159690   6.690   4.911   1.570
12733TIP3    H259691   6.632   5.038   1.513
12734TIP3   OH259692   6.965   4.411   0.368
12734TIP3    H159693   7.054   4.388   0.394
12734TIP3    H259694   6.973   4.499   0.332
12735TIP3   OH259695   6.036   4.842   0.889
12735TIP3    H159696   6.095   4.836   0.814
12735TIP3    H259697   6.078   4.790   0.958
12736TIP3   OH259698   6.747   5.046   0.274
12736TIP3    H159699   6.705   5.132   0.281
12736TIP3    H259700   6.677   4.983   0.290
12737TIP3   OH259701   5.743   4.678   1.452
12737TIP3    H159702   5.714   4.633   1.531
12737TIP3    H259703   5.675   4.659   1.387
12738TIP3   OH259704   6.464   4.665   1.684
12738TIP3    H159705   6.396   4.627   1.629
12738TIP3    H259706   6.543   4.616   1.663
12739TIP3   OH259707   6.878   5.228   1.497
12739TIP3    H159708   6.784   5.237   1.479
12739TIP3    H259709   6.886   5.246   1.591
12740TIP3   OH259710   7.281   5.298   0.263
12740TIP3    H159711   7.250   5.248   0.338
12740TIP3    H259712   7.344   5.240   0.220
12741TIP3   OH259713   6.996   4.805   1.026
12741TIP3    H159714   6.900   4.796   1.027
12741TIP3    H259715   7.026   4.733   0.971
12742TIP3   OH259716   6.306   5.213   0.691
12742TIP3    H159717   6.326   5.297   0.650
12742TIP3    H259718   6.211   5.215   0.705
12743TIP3   OH259719   5.855   4.695   0.158
12743TIP3    H159720   5.889   4.751   0.228
12743TIP3    H259721   5.761   4.693   0.173
12744TIP3   OH259722   6.387   4.978   0.567
12744TIP3    H159723   6.371   5.063   0.607
12744TIP3    H259724   6.330   4.918   0.615
12745TIP3   OH259725   6.489   5.384   1.273
12745TIP3    H159726   6.546   5.459   1.253
12745TIP3    H259727   6.540   5.329   1.332
12746TIP3   OH259728   6.292   5.475   0.578
12746TIP3    H159729   6.199   5.483   0.600
12746TIP3    H259730   6.333   5.551   0.619
12747TIP3   OH259731   6.779   5.012   1.248
12747TIP3    H159732   6.732   4.991   1.329
12747TIP3    H259733   6.862   4.964   1.255
12748TIP3   OH259734   7.007   5.092   0.167
12748TIP3    H159735   7.066   5.047   0.228
12748TIP3    H259736   6.920   5.080   0.205
12749TIP3   OH259737   7.102   5.402   1.446
12749TIP3    H159738   7.018   5.356   1.443
12749TIP3    H259739   7.091   5.476   1.386
12750TIP3   OH259740   5.883   4.184   1.389
12750TIP3    H159741   5.793   4.212   1.370
12750TIP3    H259742   5.875   4.121   1.460
12751TIP3   OH259743   7.184   4.928   0.315
12751TIP3    H159744   7.150   4.876   0.387
12751TIP3    H259745   7.267   4.963   0.348
12752TIP3   OH259746   5.884   5.345   1.259
12752TIP3    H159747   5.912   5.265   1.304
12752TIP3    H259748   5.894   5.414   1.324
12753TIP3   OH259749   6.305   5.183   0.255
12753TIP3    H159750   6.380   5.134   0.288
12753TIP3    H259751   6.326   5.275   0.274
12754TIP3   OH259752   5.958   4.885   0.334
12754TIP3    H159753   5.887   4.930   0.379
12754TIP3    H259754   6.003   4.954   0.285
12755TIP3   OH259755   6.785   4.122   1.322
12755TIP3    H159756   6.852   4.148   1.386
12755TIP3    H259757   6.746   4.043   1.359
12756TIP3   OH259758   6.853   4.067   0.467
12756TIP3    H159759   6.872   4.102   0.380
12756TIP3    H259760   6.893   4.130   0.527
12757TIP3   OH259761   6.602   5.274   0.298
12757TIP3    H159762   6.531   5.333   0.323
12757TIP3    H259763   6.654   5.325   0.235
12758TIP3   OH259764   6.538   4.296   0.517
12758TIP3    H159765   6.611   4.358   0.525
12758TIP3    H259766   6.529   4.259   0.605
12759TIP3   OH259767   6.646   4.378   1.391
12759TIP3    H159768   6.648   4.410   1.481
12759TIP3    H259769   6.679   4.288   1.396
12760TIP3   OH259770   6.624   3.961   0.578
12760TIP3    H159771   6.596   4.031   0.636
12760TIP3    H259772   6.706   3.992   0.540
12761TIP3   OH259773   6.378   5.440   0.319
12761TIP3    H159774   6.381   5.528   0.281
12761TIP3    H259775   6.349   5.454   0.409
12762TIP3   OH259776   6.249   4.122   0.273
12762TIP3    H159777   6.233   4.202   0.324
12762TIP3    H259778   6.334   4.091   0.303
12763TIP3   OH259779   7.217   4.140   1.377
12763TIP3    H159780   7.138   4.157   1.429
12763TIP3    H259781   7.261   4.224   1.372
12764TIP3   OH259782   7.057   4.557   0.902
12764TIP3    H159783   6.976   4.530   0.858
12764TIP3    H259784   7.059   4.506   0.983
12765TIP3   OH259785   6.057   5.095   0.178
12765TIP3    H159786   6.127   5.143   0.222
12765TIP3    H259787   6.102   5.041   0.113
12766TIP3   OH259788   5.919   4.426   0.112
12766TIP3    H159789   5.895   4.518   0.122
12766TIP3    H259790   5.883   4.401   0.027
12767TIP3   OH259791   7.251   5.522   1.047
12767TIP3    H159792   7.235   5.598   0.991
12767TIP3    H259793   7.347   5.513   1.049
12768TIP3   OH259794   5.955   3.878   0.938
12768TIP3    H159795   5.944   3.870   0.843
12768TIP3    H259796   5.919   3.796   0.973
12769TIP3   OH259797   5.835   5.295   0.562
12769TIP3    H159798   5.781   5.324   0.636
12769TIP3    H259799   5.817   5.359   0.493
12770TIP3   OH259800   5.806   5.575   1.748
12770TIP3    H159801   5.869   5.555   1.818
12770TIP3    H259802   5.775   5.490   1.719
12771TIP3   OH259803   6.230   5.385   1.857
12771TIP3    H159804   6.307   5.335   1.882
12771TIP3    H259805   6.206   5.352   1.771
12772TIP3   OH259806   6.743   5.403   0.106
12772TIP3    H159807   6.709   5.364   0.025
12772TIP3    H259808   6.832   5.430   0.084
12773TIP3   OH259809   6.891   5.264   1.768
12773TIP3    H159810   6.858   5.181   1.803
12773TIP3    H259811   6.968   5.283   1.822
12774TIP3   OH259812   7.081   5.348   0.077
12774TIP3    H159813   7.047   5.261   0.101
12774TIP3    H259814   7.164   5.354   0.123
12775TIP3   OH259815   5.775   4.938   1.783
12775TIP3    H159816   5.776   4.843   1.781
12775TIP3    H259817   5.699   4.962   1.729
12776TIP3   OH259818   6.214   4.922   0.034
12776TIP3    H159819   6.255   4.877   0.108
12776TIP3    H259820   6.236   4.869  -0.042
12777TIP3   OH259821   6.437   4.943   1.749
12777TIP3    H159822   6.421   4.988   1.667
12777TIP3    H259823   6.463   4.854   1.723
12778TIP3   OH259824   6.969   4.963   1.505
12778TIP3    H159825   7.062   4.973   1.486
12778TIP3    H259826   6.933   5.052   1.499
12779TIP3   OH259827   5.845   4.668   1.773
12779TIP3    H159828   5.931   4.648   1.736
12779TIP3    H259829   5.858   4.666   1.868
12780TIP3   OH259830   6.321   4.754   0.226
12780TIP3    H159831   6.265   4.718   0.295
12780TIP3    H259832   6.354   4.677   0.179
12781TIP3   OH259833   6.274   4.556   1.502
12781TIP3    H159834   6.192   4.606   1.501
12781TIP3    H259835   6.329   4.598   1.436
12782TIP3   OH259836   6.453   4.565   0.057
12782TIP3    H159837   6.452   4.568  -0.038
12782TIP3    H259838   6.546   4.562   0.080
12783TIP3   OH259839   6.758   4.794   1.769
12783TIP3    H159840   6.840   4.762   1.730
12783TIP3    H259841   6.736   4.729   1.836
12784TIP3   OH259842   6.309   4.292   1.571
12784TIP3    H159843   6.318   4.238   1.492
12784TIP3    H259844   6.300   4.381   1.538
12785TIP3   OH259845   6.342   4.139   1.332
12785TIP3    H159846   6.394   4.189   1.268
12785TIP3    H259847   6.255   4.135   1.293
12786TIP3   OH259848   6.453   4.682   1.339
12786TIP3    H159849   6.536   4.717   1.373
12786TIP3    H259850   6.417   4.753   1.286
12787TIP3   OH259851   6.909   4.426   1.804
12787TIP3    H159852   6.912   4.331   1.816
12787TIP3    H259853   6.997   4.450   1.776
12788TIP3   OH259854   7.011   4.738   1.652
12788TIP3    H159855   6.985   4.816   1.603
12788TIP3    H259856   7.106   4.737   1.648
12789TIP3   OH259857   6.144   4.339   1.794
12789TIP3    H159858   6.062   4.290   1.782
12789TIP3    H259859   6.190   4.329   1.710
12790TIP3   OH259860   6.396   3.875   1.405
12790TIP3    H159861   6.376   3.966   1.384
12790TIP3    H259862   6.325   3.825   1.364
12791TIP3   OH259863   6.529   4.253   1.736
12791TIP3    H159864   6.493   4.225   1.821
12791TIP3    H259865   6.453   4.259   1.679
12792TIP3   OH259866   6.785   4.181   1.650
12792TIP3    H159867   6.696   4.194   1.682
12792TIP3    H259868   6.831   4.137   1.722
12793TIP3   OH259869   6.955   4.086   1.849
12793TIP3    H159870   6.943   3.991   1.841
12793TIP3    H259871   6.933   4.105   1.940
12794TIP3   OH259872   5.934   4.149   1.760
12794TIP3    H159873   5.936   4.068   1.709
12794TIP3    H259874   5.945   4.121   1.851
12795TIP3   OH259875   6.376   3.784   1.666
12795TIP3    H159876   6.431   3.706   1.657
12795TIP3    H259877   6.374   3.822   1.578
12796TIP3   OH259878   6.463   3.938   1.877
12796TIP3    H159879   6.435   3.886   1.802
12796TIP3    H259880   6.404   4.013   1.878
12797TIP3   OH259881   6.420   5.663   0.162
12797TIP3    H159882   6.512   5.674   0.187
12797TIP3    H259883   6.418   5.680   0.068
12798TIP3   OH259884   5.788   5.128   0.113
12798TIP3    H159885   5.880   5.128   0.137
12798TIP3    H259886   5.786   5.091   0.024
12799TIP3   OH259887   5.667   5.624   0.648
12799TIP3    H159888   5.605   5.604   0.577
12799TIP3    H259889   5.674   5.542   0.697
12800TIP3   OH259890   5.730   5.399   0.806
12800TIP3    H159891   5.692   5.323   0.851
12800TIP3    H259892   5.777   5.446   0.875
12801TIP3   OH259893   7.236   5.050   1.898
12801TIP3    H159894   7.152   5.030   1.938
12801TIP3    H259895   7.253   5.142   1.921
12802TIP3   OH259896   7.262   5.207   1.326
12802TIP3    H159897   7.220   5.279   1.373
12802TIP3    H259898   7.227   5.213   1.237
12803TIP3   OH259899   7.278   4.342   0.022
12803TIP3    H159900   7.291   4.402  -0.052
12803TIP3    H259901   7.186   4.353   0.046
12804TIP3   OH259902   7.187   4.540   0.651
12804TIP3    H159903   7.187   4.444   0.651
12804TIP3    H259904   7.161   4.564   0.740
12805TIP3   OH259905   5.713   4.748   1.075
12805TIP3    H159906   5.724   4.736   0.981
12805TIP3    H259907   5.797   4.720   1.112
12806TIP3   OH259908   7.283   4.761   1.620
12806TIP3    H159909   7.356   4.780   1.678
12806TIP3    H259910   7.274   4.840   1.566
12807TIP3   OH259911   7.211   4.287   0.462
12807TIP3    H159912   7.224   4.194   0.484
12807TIP3    H259913   7.285   4.308   0.405
12808TIP3   OH259914   7.228   4.249   1.092
12808TIP3    H159915   7.279   4.325   1.062
12808TIP3    H259916   7.196   4.275   1.179
12809TIP3   OH259917   7.245   4.411   1.329
12809TIP3    H159918   7.179   4.472   1.361
12809TIP3    H259919   7.292   4.460   1.261
12810TIP3   OH259920   5.712   4.275   1.651
12810TIP3    H159921   5.795   4.250   1.692
12810TIP3    H259922   5.656   4.198   1.660
12811TIP3   OH259923   7.232   4.019   0.541
12811TIP3    H159924   7.277   3.947   0.584
12811TIP3    H259925   7.163   3.976   0.490
12812TIP3   OH259926   5.838   4.129   0.961
12812TIP3    H159927   5.872   4.040   0.962
12812TIP3    H259928   5.915   4.185   0.974
12813TIP3   OH259929   5.632   4.405   1.037
12813TIP3    H159930   5.700   4.402   0.969
12813TIP3    H259931   5.662   4.473   1.097
12814TIP3   OH259932   5.680   4.127   0.505
12814TIP3    H159933   5.592   4.096   0.486
12814TIP3    H259934   5.715   4.154   0.419
12815TIP3   OH259935   7.164   5.515   0.733
12815TIP3    H159936   7.242   5.463   0.756
12815TIP3    H259937   7.174   5.596   0.783
12816TIP3   OH259938   5.686   3.878   1.286
12816TIP3    H159939   5.620   3.873   1.355
12816TIP3    H259940   5.659   3.952   1.232
12817TIP3   OH259941   5.890   5.272   1.712
12817TIP3    H159942   5.800   5.273   1.678
12817TIP3    H259943   5.879   5.245   1.804
12818TIP3   OH259944   6.225   5.366   1.350
12818TIP3    H159945   6.196   5.455   1.327
12818TIP3    H259946   6.319   5.366   1.332
12819TIP3   OH259947   6.593   5.487   1.627
12819TIP3    H159948   6.605   5.452   1.715
12819TIP3    H259949   6.672   5.538   1.609
12820TIP3   OH259950   6.827   5.629   1.588
12820TIP3    H159951   6.890   5.574   1.542
12820TIP3    H259952   6.873   5.658   1.666
12821TIP3   OH259953   5.924   5.666   1.369
12821TIP3    H159954   5.842   5.700   1.334
12821TIP3    H259955   5.932   5.705   1.456
12822TIP3   OH259956   6.181   5.631   1.282
12822TIP3    H159957   6.090   5.643   1.311
12822TIP3    H259958   6.185   5.672   1.196
12823TIP3   OH259959   6.628   5.609   1.191
12823TIP3    H159960   6.579   5.645   1.117
12823TIP3    H259961   6.638   5.683   1.251
12824TIP3   OH259962   6.851   5.482   1.291
12824TIP3    H159963   6.776   5.527   1.251
12824TIP3    H259964   6.926   5.538   1.269
12825TIP3   OH259965   7.088   5.615   1.253
12825TIP3    H159966   7.106   5.708   1.246
12825TIP3    H259967   7.146   5.575   1.187
12826TIP3   OH259968   5.884   5.505   1.026
12826TIP3    H159969   5.877   5.457   1.109
12826TIP3    H259970   5.964   5.471   0.986
12827TIP3   OH259971   6.105   5.387   0.918
12827TIP3    H159972   6.092   5.294   0.937
12827TIP3    H259973   6.191   5.408   0.955
12828TIP3   OH259974   6.364   5.412   1.025
12828TIP3    H159975   6.375   5.323   0.991
12828TIP3    H259976   6.398   5.408   1.114
12829TIP3   OH259977   6.659   3.947   0.922
12829TIP3    H159978   6.579   3.905   0.951
12829TIP3    H259979   6.716   3.875   0.895
12830TIP3   OH259980   7.263   3.858   0.902
12830TIP3    H159981   7.304   3.849   0.816
12830TIP3    H259982   7.169   3.860   0.883
12831TIP3   OH259983   5.921   3.839   0.668
12831TIP3    H159984   5.828   3.824   0.649
12831TIP3    H259985   5.963   3.755   0.650
12832TIP3   OH259986   5.857   3.818   0.220
12832TIP3    H159987   5.930   3.876   0.198
12832TIP3    H259988   5.779   3.868   0.198
12833TIP3   OH259989   6.417   3.802   0.694
12833TIP3    H159990   6.483   3.862   0.657
12833TIP3    H259991   6.427   3.813   0.789
12834TIP3   OH259992   6.997   3.858   0.838
12834TIP3    H159993   6.980   3.850   0.744
12834TIP3    H259994   6.936   3.796   0.878
12835TIP3   OH259995   7.042   3.868   0.412
12835TIP3    H159996   6.965   3.924   0.419
12835TIP3    H259997   7.007   3.779   0.412
12836TIP3   OH259998   5.795   5.474   0.361
12836TIP3    H159999   5.718   5.461   0.305
12836TIP3    H260000   5.813   5.568   0.355
12837TIP3   OH260001   6.070   3.971   0.131
12837TIP3    H160002   6.128   3.902   0.100
12837TIP3    H260003   6.126   4.024   0.189
12838TIP3   OH260004   6.509   4.085   0.346
12838TIP3    H160005   6.538   4.014   0.403
12838TIP3    H260006   6.523   4.164   0.397
12839TIP3   OH260007   6.688   5.648   0.217
12839TIP3    H160008   6.774   5.689   0.203
12839TIP3    H260009   6.696   5.562   0.175
12840TIP3   OH260010   5.937   3.898   1.625
12840TIP3    H160011   5.878   3.830   1.657
12840TIP3    H260012   6.018   3.885   1.674
12841TIP3   OH260013   6.133   3.833   1.808
12841TIP3    H160014   6.217   3.805   1.770
12841TIP3    H260015   6.100   3.755   1.853
12842TIP3   OH260016   6.016   5.583   0.100
12842TIP3    H160017   5.938   5.559   0.150
12842TIP3    H260018   6.066   5.502   0.092
12843TIP3   OH260019   6.953   3.810   1.816
12843TIP3    H160020   6.943   3.761   1.898
12843TIP3    H260021   7.047   3.804   1.796
12844TIP3   OH260022   7.243   5.417   1.686
12844TIP3    H160023   7.200   5.397   1.603
12844TIP3    H260024   7.241   5.512   1.692
12845TIP3   OH260025   1.188   6.673   0.659
12845TIP3    H160026   1.173   6.768   0.652
12845TIP3    H260027   1.123   6.634   0.601
12846TIP3   OH260028   1.064   6.601   1.039
12846TIP3    H160029   1.091   6.555   1.118
12846TIP3    H260030   1.021   6.535   0.986
12847TIP3   OH260031   0.291   6.522   1.183
12847TIP3    H160032   0.303   6.453   1.248
12847TIP3    H260033   0.379   6.540   1.151
12848TIP3   OH260034   1.456   6.916   0.860
12848TIP3    H160035   1.421   6.839   0.905
12848TIP3    H260036   1.477   6.977   0.930
12849TIP3   OH260037   0.422   6.992   1.005
12849TIP3    H160038   0.386   6.910   0.972
12849TIP3    H260039   0.515   6.989   0.982
12850TIP3   OH260040   0.085   6.354   0.600
12850TIP3    H160041   0.047   6.437   0.631
12850TIP3    H260042   0.021   6.319   0.539
12851TIP3   OH260043   0.133   6.587   0.827
12851TIP3    H160044   0.160   6.496   0.839
12851TIP3    H260045   0.212   6.633   0.801
12852TIP3   OH260046   0.918   6.841   1.053
12852TIP3    H160047   0.956   6.758   1.025
12852TIP3    H260048   0.988   6.886   1.100
12853TIP3   OH260049   1.810   5.982   1.164
12853TIP3    H160050   1.823   6.052   1.227
12853TIP3    H260051   1.860   6.009   1.087
12854TIP3   OH260052   1.221   6.275   1.059
12854TIP3    H160053   1.232   6.181   1.075
12854TIP3    H260054   1.206   6.281   0.964
12855TIP3   OH260055   0.615   6.101   0.839
12855TIP3    H160056   0.594   6.160   0.767
12855TIP3    H260057   0.584   6.015   0.809
12856TIP3   OH260058   1.363   6.107   0.648
12856TIP3    H160059   1.400   6.073   0.730
12856TIP3    H260060   1.437   6.146   0.602
12857TIP3   OH260061   0.205   6.327   0.895
12857TIP3    H160062   0.278   6.290   0.944
12857TIP3    H260063   0.215   6.291   0.807
12858TIP3   OH260064   0.684   6.472   0.860
12858TIP3    H160065   0.772   6.440   0.882
12858TIP3    H260066   0.649   6.407   0.800
12859TIP3   OH260067   1.848   6.158   1.379
12859TIP3    H160068   1.777   6.219   1.358
12859TIP3    H260069   1.863   6.169   1.473
12860TIP3   OH260070   0.428   5.996   1.227
12860TIP3    H160071   0.403   6.053   1.155
12860TIP3    H260072   0.358   6.007   1.292
12861TIP3   OH260073   1.123   6.922   0.567
12861TIP3    H160074   1.132   6.938   0.473
12861TIP3    H260075   1.096   7.007   0.603
12862TIP3   OH260076   0.700   6.760   1.204
12862TIP3    H160077   0.648   6.835   1.232
12862TIP3    H260078   0.773   6.799   1.155
12863TIP3   OH260079   1.447   6.045   0.901
12863TIP3    H160080   1.377   6.025   0.963
12863TIP3    H260081   1.504   6.105   0.948
12864TIP3   OH260082   0.411   6.173   1.012
12864TIP3    H160083   0.464   6.227   1.070
12864TIP3    H260084   0.472   6.141   0.946
12865TIP3   OH260085   0.527   6.977   1.274
12865TIP3    H160086   0.492   6.989   1.185
12865TIP3    H260087   0.451   6.978   1.330
12866TIP3   OH260088   0.079   6.911   0.393
12866TIP3    H160089   0.099   6.956   0.312
12866TIP3    H260090   0.110   6.969   0.462
12867TIP3   OH260091   1.496   7.125   1.057
12867TIP3    H160092   1.409   7.130   1.097
12867TIP3    H260093   1.500   7.202   0.999
12868TIP3   OH260094   1.563   5.857   1.237
12868TIP3    H160095   1.494   5.912   1.201
12868TIP3    H260096   1.644   5.894   1.201
12869TIP3   OH260097   0.826   5.714   0.987
12869TIP3    H160098   0.799   5.673   0.906
12869TIP3    H260099   0.745   5.745   1.027
12870TIP3   OH260100   1.335   7.254   0.694
12870TIP3    H160101   1.365   7.176   0.648
12870TIP3    H260102   1.401   7.270   0.761
12871TIP3   OH260103   1.451   7.024   0.599
12871TIP3    H160104   1.456   6.954   0.535
12871TIP3    H260105   1.454   6.980   0.684
12872TIP3   OH260106   1.597   6.917   1.419
12872TIP3    H160107   1.593   6.856   1.345
12872TIP3    H260108   1.614   7.002   1.379
12873TIP3   OH260109   1.052   6.599   0.423
12873TIP3    H160110   0.990   6.669   0.402
12873TIP3    H260111   1.122   6.608   0.359
12874TIP3   OH260112   1.062   6.471   0.110
12874TIP3    H160113   1.120   6.479   0.186
12874TIP3    H260114   1.121   6.472   0.035
12875TIP3   OH260115   1.768   6.559   1.253
12875TIP3    H160116   1.692   6.617   1.251
12875TIP3    H260117   1.823   6.588   1.181
12876TIP3   OH260118   1.410   6.618   0.508
12876TIP3    H160119   1.341   6.638   0.571
12876TIP3    H260120   1.476   6.570   0.558
12877TIP3   OH260121   1.394   6.439   1.379
12877TIP3    H160122   1.370   6.447   1.471
12877TIP3    H260123   1.313   6.455   1.331
12878TIP3   OH260124   0.562   6.663   0.691
12878TIP3    H160125   0.537   6.624   0.607
12878TIP3    H260126   0.611   6.594   0.736
12879TIP3   OH260127   0.693   6.977   0.943
12879TIP3    H160128   0.697   6.989   0.848
12879TIP3    H260129   0.772   6.928   0.964
12880TIP3   OH260130   0.546   6.571   1.076
12880TIP3    H160131   0.597   6.541   1.001
12880TIP3    H260132   0.602   6.634   1.120
12881TIP3   OH260133   1.265   7.116   1.208
12881TIP3    H160134   1.237   7.140   1.296
12881TIP3    H260135   1.223   7.032   1.191
12882TIP3   OH260136   0.676   6.981   1.516
12882TIP3    H160137   0.612   7.036   1.560
12882TIP3    H260138   0.638   6.963   1.431
12883TIP3   OH260139   1.290   6.549   0.272
12883TIP3    H160140   1.336   6.576   0.352
12883TIP3    H260141   1.337   6.593   0.202
12884TIP3   OH260142   0.409   6.625   1.494
12884TIP3    H160143   0.400   6.701   1.552
12884TIP3    H260144   0.320   6.607   1.464
12885TIP3   OH260145   1.071   7.189   0.615
12885TIP3    H160146   1.156   7.222   0.643
12885TIP3    H260147   1.056   7.230   0.530
12886TIP3   OH260148   0.496   7.170   1.607
12886TIP3    H160149   0.502   7.220   1.525
12886TIP3    H260150   0.403   7.173   1.630
12887TIP3   OH260151   1.643   5.714   0.238
12887TIP3    H160152   1.566   5.752   0.280
12887TIP3    H260153   1.695   5.789   0.210
12888TIP3   OH260154   0.487   6.584   0.433
12888TIP3    H160155   0.425   6.652   0.408
12888TIP3    H260156   0.450   6.503   0.398
12889TIP3   OH260157   1.758   7.110   0.166
12889TIP3    H160158   1.759   7.202   0.141
12889TIP3    H260159   1.848   7.080   0.155
12890TIP3   OH260160   0.129   6.796   1.332
12890TIP3    H160161   0.110   6.771   1.241
12890TIP3    H260162   0.132   6.714   1.380
12891TIP3   OH260163   0.142   7.149   1.041
12891TIP3    H160164   0.216   7.090   1.056
12891TIP3    H260165   0.097   7.152   1.125
12892TIP3   OH260166   1.852   7.166   1.665
12892TIP3    H160167   1.845   7.072   1.648
12892TIP3    H260168   1.762   7.197   1.659
12893TIP3   OH260169   0.916   7.114   1.508
12893TIP3    H160170   0.900   7.187   1.568
12893TIP3    H260171   0.835   7.062   1.512
12894TIP3   OH260172   1.590   6.304   1.670
12894TIP3    H160173   1.502   6.342   1.669
12894TIP3    H260174   1.580   6.218   1.629
12895TIP3   OH260175   0.302   6.982   1.433
12895TIP3    H160176   0.322   6.947   1.520
12895TIP3    H260177   0.239   6.920   1.397
12896TIP3   OH260178   0.574   5.799   1.081
12896TIP3    H160179   0.552   5.804   0.988
12896TIP3    H260180   0.520   5.866   1.122
12897TIP3   OH260181   1.029   5.762   1.405
12897TIP3    H160182   1.073   5.719   1.478
12897TIP3    H260183   0.936   5.758   1.428
12898TIP3   OH260184   1.298   6.136   1.505
12898TIP3    H160185   1.240   6.096   1.570
12898TIP3    H260186   1.303   6.228   1.531
12899TIP3   OH260187   1.428   6.675   0.064
12899TIP3    H160188   1.399   6.750   0.013
12899TIP3    H260189   1.523   6.685   0.070
12900TIP3   OH260190   1.048   5.973   0.150
12900TIP3    H160191   0.972   5.968   0.209
12900TIP3    H260192   1.010   5.973   0.062
12901TIP3   OH260193   0.564   6.317   1.188
12901TIP3    H160194   0.500   6.317   1.259
12901TIP3    H260195   0.568   6.409   1.160
12902TIP3   OH260196   0.567   6.316   0.669
12902TIP3    H160197   0.474   6.297   0.661
12902TIP3    H260198   0.600   6.314   0.579
12903TIP3   OH260199   1.115   6.351   0.528
12903TIP3    H160200   1.086   6.436   0.495
12903TIP3    H260201   1.184   6.324   0.467
12904TIP3   OH260202   0.986   6.362   1.642
12904TIP3    H160203   0.963   6.285   1.693
12904TIP3    H260204   1.080   6.374   1.657
12905TIP3   OH260205   1.203   6.289   0.787
12905TIP3    H160206   1.162   6.335   0.714
12905TIP3    H260207   1.250   6.217   0.746
12906TIP3   OH260208   0.355   6.312   1.368
12906TIP3    H160209   0.406   6.336   1.445
12906TIP3    H260210   0.314   6.229   1.391
12907TIP3   OH260211   0.731   6.059   0.050
12907TIP3    H160212   0.714   6.003   0.126
12907TIP3    H260213   0.696   6.144   0.073
12908TIP3   OH260214   0.043   5.919   0.758
12908TIP3    H160215   0.084   5.971   0.828
12908TIP3    H260216   0.117   5.885   0.708
12909TIP3   OH260217   0.073   6.199   0.282
12909TIP3    H160218   0.158   6.242   0.291
12909TIP3    H260219   0.039   6.231   0.198
12910TIP3   OH260220   1.137   6.443   1.252
12910TIP3    H160221   1.174   6.385   1.185
12910TIP3    H260222   1.082   6.386   1.306
12911TIP3   OH260223   0.884   6.066   0.767
12911TIP3    H160224   0.797   6.081   0.805
12911TIP3    H260225   0.933   6.022   0.836
12912TIP3   OH260226   0.314   6.215   0.654
12912TIP3    H160227   0.242   6.260   0.609
12912TIP3    H260228   0.341   6.146   0.593
12913TIP3   OH260229   0.669   6.283   0.419
12913TIP3    H160230   0.755   6.242   0.433
12913TIP3    H260231   0.642   6.254   0.332
12914TIP3   OH260232   1.237   5.999   1.077
12914TIP3    H160233   1.199   6.001   1.166
12914TIP3    H260234   1.167   5.964   1.022
12915TIP3   OH260235   0.607   6.289   0.124
12915TIP3    H160236   0.521   6.303   0.164
12915TIP3    H260237   0.649   6.375   0.125
12916TIP3   OH260238   0.359   6.836   1.673
12916TIP3    H160239   0.428   6.827   1.739
12916TIP3    H260240   0.278   6.833   1.723
12917TIP3   OH260241   0.928   6.364   0.945
12917TIP3    H160242   0.988   6.308   0.895
12917TIP3    H260243   0.896   6.308   1.016
12918TIP3   OH260244   0.431   5.986   0.523
12918TIP3    H160245   0.349   5.937   0.522
12918TIP3    H260246   0.482   5.946   0.594
12919TIP3   OH260247   0.821   6.219   1.160
12919TIP3    H160248   0.735   6.259   1.174
12919TIP3    H260249   0.871   6.242   1.238
12920TIP3   OH260250   0.875   6.811   0.345
12920TIP3    H160251   0.805   6.767   0.297
12920TIP3    H260252   0.838   6.829   0.431
12921TIP3   OH260253   1.578   6.756   1.193
12921TIP3    H160254   1.638   6.809   1.141
12921TIP3    H260255   1.506   6.735   1.134
12922TIP3   OH260256   1.269   6.133   0.098
12922TIP3    H160257   1.197   6.074   0.120
12922TIP3    H260258   1.284   6.183   0.178
12923TIP3   OH260259   1.018   6.833   1.462
12923TIP3    H160260   1.056   6.782   1.534
12923TIP3    H260261   0.987   6.914   1.504
12924TIP3   OH260262   1.318   6.275   0.344
12924TIP3    H160263   1.404   6.257   0.381
12924TIP3    H260264   1.324   6.363   0.308
12925TIP3   OH260265   0.394   6.736   0.899
12925TIP3    H160266   0.447   6.722   0.821
12925TIP3    H260267   0.429   6.675   0.964
12926TIP3   OH260268   1.095   6.971   0.284
12926TIP3    H160269   1.059   7.059   0.297
12926TIP3    H260270   1.021   6.913   0.298
12927TIP3   OH260271   0.135   6.560   1.474
12927TIP3    H160272   0.154   6.521   1.560
12927TIP3    H260273   0.076   6.497   1.432
12928TIP3   OH260274   0.785   6.546   1.679
12928TIP3    H160275   0.713   6.508   1.628
12928TIP3    H260276   0.861   6.492   1.658
12929TIP3   OH260277   1.189   7.152   1.477
12929TIP3    H160278   1.095   7.138   1.474
12929TIP3    H260279   1.212   7.139   1.569
12930TIP3   OH260280   1.764   6.336   0.320
12930TIP3    H160281   1.702   6.307   0.253
12930TIP3    H260282   1.791   6.424   0.292
12931TIP3   OH260283   1.819   6.898   1.584
12931TIP3    H160284   1.730   6.908   1.549
12931TIP3    H260285   1.874   6.888   1.506
12932TIP3   OH260286   1.552   7.189   0.360
12932TIP3    H160287   1.535   7.123   0.427
12932TIP3    H260288   1.617   7.148   0.302
12933TIP3   OH260289   1.365   6.681   1.006
12933TIP3    H160290   1.270   6.672   0.995
12933TIP3    H260291   1.401   6.601   0.969
12934TIP3   OH260292   0.613   7.075   0.684
12934TIP3    H160293   0.629   7.155   0.634
12934TIP3    H260294   0.518   7.063   0.680
12935TIP3   OH260295   0.203   6.626   0.154
12935TIP3    H160296   0.238   6.679   0.225
12935TIP3    H260297   0.229   6.536   0.176
12936TIP3   OH260298   0.728   6.852   0.569
12936TIP3    H160299   0.699   6.934   0.609
12936TIP3    H260300   0.675   6.785   0.611
12937TIP3   OH260301   0.836   7.235   1.258
12937TIP3    H160302   0.888   7.315   1.266
12937TIP3    H260303   0.867   7.179   1.329
12938TIP3   OH260304   0.591  -0.022   0.537
12938TIP3    H160305   0.503   0.006   0.563
12938TIP3    H260306   0.649   0.030   0.593
12939TIP3   OH260307   1.146   6.867   1.224
12939TIP3    H160308   1.096   6.847   1.303
12939TIP3    H260309   1.188   6.785   1.200
12940TIP3   OH260310   1.360   6.984   0.177
12940TIP3    H160311   1.415   6.944   0.244
12940TIP3    H260312   1.271   6.983   0.214
12941TIP3   OH260313   1.415   7.308   1.447
12941TIP3    H160314   1.336   7.255   1.455
12941TIP3    H260315   1.384   7.394   1.420
12942TIP3   OH260316   0.247   6.060   1.452
12942TIP3    H160317   0.177   6.095   1.506
12942TIP3    H260318   0.264   5.973   1.487
12943TIP3   OH260319   1.502   6.848   0.385
12943TIP3    H160320   1.463   6.768   0.421
12943TIP3    H260321   1.596   6.833   0.388
12944TIP3   OH260322   0.283   7.241   1.308
12944TIP3    H160323   0.262   7.160   1.354
12944TIP3    H260324   0.204   7.295   1.315
12945TIP3   OH260325   0.656   7.083   0.244
12945TIP3    H160326   0.719   7.025   0.287
12945TIP3    H260327   0.689   7.171   0.260
12946TIP3   OH260328   0.321   6.787   0.346
12946TIP3    H160329   0.238   6.813   0.384
12946TIP3    H260330   0.355   6.866   0.304
12947TIP3   OH260331   1.125   6.013   1.327
12947TIP3    H160332   1.192   6.040   1.390
12947TIP3    H260333   1.094   5.929   1.361
12948TIP3   OH260334   1.208   5.962   0.473
12948TIP3    H160335   1.188   6.022   0.401
12948TIP3    H260336   1.256   6.015   0.536
12949TIP3   OH260337   0.989   7.228   0.323
12949TIP3    H160338   0.899   7.261   0.325
12949TIP3    H260339   1.033   7.282   0.258
12950TIP3   OH260340   0.907   6.172   0.512
12950TIP3    H160341   0.977   6.237   0.517
12950TIP3    H260342   0.893   6.146   0.603
12951TIP3   OH260343   0.978   6.259   1.382
12951TIP3    H160344   0.976   6.285   1.475
12951TIP3    H260345   1.021   6.174   1.382
12952TIP3   OH260346   0.969   5.866   0.585
12952TIP3    H160347   0.948   5.938   0.644
12952TIP3    H260348   1.055   5.890   0.548
12953TIP3   OH260349   0.734   0.006   0.303
12953TIP3    H160350   0.765   0.096   0.313
12953TIP3    H260351   0.677  -0.008   0.379
12954TIP3   OH260352   0.577   5.962   0.284
12954TIP3    H160353   0.523   5.985   0.359
12954TIP3    H260354   0.665   5.953   0.320
12955TIP3   OH260355   1.565   6.073   1.511
12955TIP3    H160356   1.469   6.081   1.508
12955TIP3    H260357   1.593   6.090   1.421
12956TIP3   OH260358   1.440   6.427   0.897
12956TIP3    H160359   1.355   6.388   0.877
12956TIP3    H260360   1.482   6.364   0.955
12957TIP3   OH260361   0.398   7.006   0.187
12957TIP3    H160362   0.476   7.052   0.219
12957TIP3    H260363   0.431   6.945   0.121
12958TIP3   OH260364   0.206   6.333  -0.015
12958TIP3    H160365   0.261   6.339   0.064
12958TIP3    H260366   0.118   6.317   0.018
12959TIP3   OH260367   0.267   5.782   0.960
12959TIP3    H160368   0.342   5.779   0.900
12959TIP3    H260369   0.249   5.691   0.982
12960TIP3   OH260370   0.165   7.094   0.579
12960TIP3    H160371   0.118   7.095   0.662
12960TIP3    H260372   0.160   7.184   0.547
12961TIP3   OH260373   0.626   7.265   1.827
12961TIP3    H160374   0.681   7.197   1.866
12961TIP3    H260375   0.574   7.219   1.761
12962TIP3   OH260376   1.083   0.042   0.111
12962TIP3    H160377   1.049  -0.018   0.044
12962TIP3    H260378   1.177   0.043   0.096
12963TIP3   OH260379   1.224   7.147   1.754
12963TIP3    H160380   1.188   7.064   1.787
12963TIP3    H260381   1.304   7.160   1.805
12964TIP3   OH260382   1.444   7.186  -0.025
12964TIP3    H160383   1.437   7.144   0.061
12964TIP3    H260384   1.525   7.236  -0.021
12965TIP3   OH260385   0.136   6.812   1.839
12965TIP3    H160386   0.153   6.731   1.888
12965TIP3    H260387   0.042   6.812   1.824
12966TIP3   OH260388   0.531   6.821   0.035
12966TIP3    H160389   0.568   6.780   0.114
12966TIP3    H260390   0.575   6.776  -0.037
12967TIP3   OH260391   0.775   6.821   1.725
12967TIP3    H160392   0.747   6.860   1.642
12967TIP3    H260393   0.788   6.728   1.705
12968TIP3   OH260394   1.332   6.869   1.486
12968TIP3    H160395   1.422   6.895   1.464
12968TIP3    H260396   1.278   6.913   1.421
12969TIP3   OH260397   0.175   6.480   1.741
12969TIP3    H160398   0.233   6.404   1.745
12969TIP3    H260399   0.182   6.520   1.827
12970TIP3   OH260400   0.663   6.671   0.231
12970TIP3    H160401   0.612   6.635   0.303
12970TIP3    H260402   0.703   6.595   0.189
12971TIP3   OH260403   0.598   6.429   1.492
12971TIP3    H160404   0.536   6.502   1.493
12971TIP3    H260405   0.665   6.457   1.429
12972TIP3   OH260406   0.795   6.490   0.051
12972TIP3    H160407   0.802   6.430  -0.024
12972TIP3    H260408   0.883   6.493   0.088
12973TIP3   OH260409   1.150   6.650   1.805
12973TIP3    H160410   1.195   6.592   1.743
12973TIP3    H260411   1.108   6.590   1.867
12974TIP3   OH260412   1.699   6.781   0.026
12974TIP3    H160413   1.673   6.815  -0.060
12974TIP3    H260414   1.715   6.860   0.078
12975TIP3   OH260415   0.651   6.168   1.569
12975TIP3    H160416   0.664   6.112   1.492
12975TIP3    H260417   0.643   6.257   1.533
12976TIP3   OH260418   0.684   6.020   1.330
12976TIP3    H160419   0.737   6.061   1.261
12976TIP3    H260420   0.597   6.012   1.291
12977TIP3   OH260421   0.789   6.529   1.328
12977TIP3    H160422   0.885   6.525   1.323
12977TIP3    H260423   0.767   6.614   1.290
12978TIP3   OH260424   1.278   6.269   1.950
12978TIP3    H160425   1.297   6.177   1.930
12978TIP3    H260426   1.289   6.314   1.867
12979TIP3   OH260427   1.454   6.730   1.686
12979TIP3    H160428   1.414   6.756   1.603
12979TIP3    H260429   1.538   6.690   1.661
12980TIP3   OH260430   0.490   6.232   1.789
12980TIP3    H160431   0.411   6.177   1.786
12980TIP3    H260432   0.537   6.211   1.709
12981TIP3   OH260433   0.744   5.756   1.405
12981TIP3    H160434   0.727   5.846   1.380
12981TIP3    H260435   0.675   5.705   1.362
12982TIP3   OH260436   0.869   6.132   1.743
12982TIP3    H160437   0.828   6.106   1.826
12982TIP3    H260438   0.796   6.137   1.681
12983TIP3   OH260439   1.121   6.033   1.678
12983TIP3    H160440   1.033   6.056   1.709
12983TIP3    H260441   1.169   6.012   1.758
12984TIP3   OH260442   1.314   5.971   1.882
12984TIP3    H160443   1.314   5.879   1.855
12984TIP3    H260444   1.283   5.970   1.973
12985TIP3   OH260445   0.287   6.039   1.778
12985TIP3    H160446   0.293   5.963   1.721
12985TIP3    H260447   0.301   6.005   1.866
12986TIP3   OH260448   0.731   5.664   1.663
12986TIP3    H160449   0.791   5.590   1.657
12986TIP3    H260450   0.728   5.701   1.574
12987TIP3   OH260451   0.801   5.823   1.877
12987TIP3    H160452   0.779   5.771   1.799
12987TIP3    H260453   0.740   5.897   1.875
12988TIP3   OH260454   0.127   7.047   0.154
12988TIP3    H160455   0.222   7.045   0.163
12988TIP3    H260456   0.111   7.031   0.061
12989TIP3   OH260457   0.018   7.318   0.865
12989TIP3    H160458   0.049   7.243   0.915
12989TIP3    H260459   0.086   7.385   0.876
12990TIP3   OH260460   1.591   6.941   1.926
12990TIP3    H160461   1.515   6.973   1.975
12990TIP3    H260462   1.659   7.008   1.941
12991TIP3   OH260463   1.765   6.769   0.422
12991TIP3    H160464   1.839   6.829   0.422
12991TIP3    H260465   1.784   6.707   0.493
12992TIP3   OH260466   1.825   6.577   0.610
12992TIP3    H160467   1.742   6.540   0.641
12992TIP3    H260468   1.878   6.587   0.689
12993TIP3   OH260469   1.821   6.886   1.117
12993TIP3    H160470   1.867   6.812   1.079
12993TIP3    H260471   1.859   6.963   1.075
12994TIP3   OH260472   1.614   7.173   1.310
12994TIP3    H160473   1.535   7.212   1.346
12994TIP3    H260474   1.592   7.155   1.218
12995TIP3   OH260475   1.825   6.591   0.221
12995TIP3    H160476   1.785   6.633   0.145
12995TIP3    H260477   1.807   6.651   0.293
12996TIP3   OH260478   1.597   6.251   0.124
12996TIP3    H160479   1.658   6.266   0.052
12996TIP3    H260480   1.525   6.203   0.085
12997TIP3   OH260481   1.578   6.456   0.660
12997TIP3    H160482   1.575   6.367   0.624
12997TIP3    H260483   1.535   6.449   0.745
12998TIP3   OH260484   0.074   6.653   1.087
12998TIP3    H160485   0.084   6.653   0.992
12998TIP3    H260486   0.154   6.612   1.120
12999TIP3   OH260487   1.716   6.643   1.650
12999TIP3    H160488   1.764   6.563   1.631
12999TIP3    H260489   1.769   6.713   1.613
13000TIP3   OH260490   1.836   6.396   1.607
13000TIP3    H160491   1.746   6.371   1.624
13000TIP3    H260492   1.888   6.320   1.632
13001TIP3   OH260493   1.572   6.215   0.492
13001TIP3    H160494   1.603   6.124   0.492
13001TIP3    H260495   1.639   6.262   0.442
13002TIP3   OH260496   1.589   6.237   1.045
13002TIP3    H160497   1.682   6.247   1.022
13002TIP3    H260498   1.586   6.259   1.139
13003TIP3   OH260499   1.633   6.323   1.311
13003TIP3    H160500   1.547   6.354   1.340
13003TIP3    H260501   1.683   6.402   1.294
13004TIP3   OH260502   0.058   6.132   1.658
13004TIP3    H160503   0.139   6.121   1.708
13004TIP3    H260504  -0.006   6.075   1.701
13005TIP3   OH260505   1.859   5.738   1.839
13005TIP3    H160506   1.927   5.682   1.801
13005TIP3    H260507   1.849   5.810   1.778
13006TIP3   OH260508   1.636   5.943   0.501
13006TIP3    H160509   1.651   5.901   0.585
13006TIP3    H260510   1.565   5.892   0.460
13007TIP3   OH260511   0.166   6.030   0.987
13007TIP3    H160512   0.199   5.940   0.988
13007TIP3    H260513   0.245   6.084   0.987
13008TIP3   OH260514  -0.013   6.382   1.069
13008TIP3    H160515   0.059   6.355   1.013
13008TIP3    H260516   0.003   6.476   1.084
13009TIP3   OH260517   1.779   5.934   1.665
13009TIP3    H160518   1.705   5.974   1.712
13009TIP3    H260519   1.741   5.901   1.584
13010TIP3   OH260520   1.792   5.914   0.127
13010TIP3    H160521   1.813   5.944   0.039
13010TIP3    H260522   1.836   5.977   0.185
13011TIP3   OH260523   0.048   5.921   0.331
13011TIP3    H160524   0.003   5.931   0.415
13011TIP3    H260525   0.072   6.011   0.306
13012TIP3   OH260526   7.363   5.789   1.331
13012TIP3    H160527   7.315   5.828   1.404
13012TIP3    H260528   7.309   5.809   1.254
13013TIP3   OH260529   0.239   7.198   1.701
13013TIP3    H160530   0.154   7.230   1.671
13013TIP3    H260531   0.221   7.159   1.786
13014TIP3   OH260532   0.544   7.289   1.355
13014TIP3    H160533   0.452   7.280   1.330
13014TIP3    H260534   0.590   7.222   1.303
13015TIP3   OH260535   1.690   5.739   1.465
13015TIP3    H160536   1.633   5.774   1.396
13015TIP3    H260537   1.704   5.648   1.440
13016TIP3   OH260538   0.414   7.264   0.893
13016TIP3    H160539   0.386   7.179   0.926
13016TIP3    H260540   0.505   7.272   0.922
13017TIP3   OH260541   0.663   7.229   1.046
13017TIP3    H160542   0.674   7.142   1.008
13017TIP3    H260543   0.721   7.229   1.122
13018TIP3   OH260544   1.031   5.894   0.925
13018TIP3    H160545   0.964   5.831   0.950
13018TIP3    H260546   1.094   5.843   0.873
13019TIP3   OH260547   1.506   5.703   0.876
13019TIP3    H160548   1.577   5.755   0.839
13019TIP3    H260549   1.430   5.760   0.875
13020TIP3   OH260550   1.711   5.812   0.732
13020TIP3    H160551   1.773   5.744   0.707
13020TIP3    H260552   1.765   5.888   0.753
13021TIP3   OH260553   0.241   5.806   0.607
13021TIP3    H160554   0.190   5.727   0.585
13021TIP3    H260555   0.319   5.772   0.650
13022TIP3   OH260556   0.214   5.713   0.245
13022TIP3    H160557   0.274   5.776   0.205
13022TIP3    H260558   0.149   5.767   0.290
13023TIP3   OH260559   0.786   5.682   0.680
13023TIP3    H160560   0.843   5.753   0.650
13023TIP3    H260561   0.704   5.725   0.704
13024TIP3   OH260562   1.223   5.752   0.787
13024TIP3    H160563   1.235   5.748   0.692
13024TIP3    H260564   1.202   5.662   0.812
13025TIP3   OH260565   1.423   5.797   0.394
13025TIP3    H160566   1.348   5.854   0.411
13025TIP3    H260567   1.388   5.708   0.397
13026TIP3   OH260568   0.131   0.007   0.478
13026TIP3    H160569   0.067  -0.037   0.421
13026TIP3    H260570   0.132   0.098   0.447
13027TIP3   OH260571   0.411   5.848   0.100
13027TIP3    H160572   0.448   5.760   0.087
13027TIP3    H260573   0.467   5.887   0.167
13028TIP3   OH260574   0.846   5.962   0.349
13028TIP3    H160575   0.874   5.893   0.409
13028TIP3    H260576   0.865   6.044   0.395
13029TIP3   OH260577   0.291   5.807   1.617
13029TIP3    H160578   0.230   5.744   1.653
13029TIP3    H260579   0.375   5.787   1.659
13030TIP3   OH260580   0.488   5.723   1.792
13030TIP3    H160581   0.571   5.693   1.755
13030TIP3    H260582   0.454   5.646   1.838
13031TIP3   OH260583   1.340   5.703   1.813
13031TIP3    H160584   1.328   5.652   1.894
13031TIP3    H260585   1.431   5.689   1.789
13032TIP3   OH260586   1.597   7.275   1.662
13032TIP3    H160587   1.537   7.279   1.587
13032TIP3    H260588   1.611   7.366   1.686
13033TIP3   OH260589   3.078   6.669   0.661
13033TIP3    H160590   3.073   6.764   0.650
13033TIP3    H260591   3.012   6.634   0.601
13034TIP3   OH260592   2.961   6.593   1.050
13034TIP3    H160593   2.992   6.547   1.128
13034TIP3    H260594   2.913   6.527   1.000
13035TIP3   OH260595   2.171   6.530   1.171
13035TIP3    H160596   2.182   6.461   1.236
13035TIP3    H260597   2.259   6.549   1.139
13036TIP3   OH260598   3.351   6.905   0.867
13036TIP3    H160599   3.310   6.833   0.914
13036TIP3    H260600   3.362   6.974   0.932
13037TIP3   OH260601   2.290   6.972   0.973
13037TIP3    H160602   2.255   6.889   0.943
13037TIP3    H260603   2.385   6.963   0.966
13038TIP3   OH260604   1.956   6.338   0.530
13038TIP3    H160605   1.931   6.426   0.559
13038TIP3    H260606   1.897   6.320   0.456
13039TIP3   OH260607   2.015   6.579   0.815
13039TIP3    H160608   2.044   6.489   0.833
13039TIP3    H260609   2.095   6.631   0.817
13040TIP3   OH260610   2.802   6.830   1.055
13040TIP3    H160611   2.845   6.750   1.026
13040TIP3    H260612   2.866   6.873   1.111
13041TIP3   OH260613   3.693   5.987   1.140
13041TIP3    H160614   3.698   6.069   1.189
13041TIP3    H260615   3.755   5.998   1.068
13042TIP3   OH260616   3.111   6.271   1.064
13042TIP3    H160617   3.120   6.176   1.079
13042TIP3    H260618   3.098   6.279   0.970
13043TIP3   OH260619   2.464   6.071   0.786
13043TIP3    H160620   2.466   6.157   0.744
13043TIP3    H260621   2.411   6.018   0.727
13044TIP3   OH260622   3.243   6.108   0.646
13044TIP3    H160623   3.280   6.076   0.727
13044TIP3    H260624   3.317   6.145   0.598
13045TIP3   OH260625   2.098   6.324   0.885
13045TIP3    H160626   2.166   6.284   0.940
13045TIP3    H260627   2.116   6.290   0.797
13046TIP3   OH260628   2.572   6.471   0.856
13046TIP3    H160629   2.659   6.439   0.878
13046TIP3    H260630   2.536   6.405   0.796
13047TIP3   OH260631   3.690   6.165   1.367
13047TIP3    H160632   3.639   6.241   1.341
13047TIP3    H260633   3.628   6.108   1.413
13048TIP3   OH260634   2.322   5.995   1.216
13048TIP3    H160635   2.300   6.052   1.143
13048TIP3    H260636   2.250   6.007   1.279
13049TIP3   OH260637   3.063   6.923   0.557
13049TIP3    H160638   3.042   6.926   0.464
13049TIP3    H260639   3.019   7.000   0.594
13050TIP3   OH260640   2.580   6.755   1.202
13050TIP3    H160641   2.528   6.829   1.234
13050TIP3    H260642   2.651   6.796   1.152
13051TIP3   OH260643   3.326   6.056   0.901
13051TIP3    H160644   3.258   6.031   0.963
13051TIP3    H260645   3.383   6.115   0.951
13052TIP3   OH260646   2.301   6.161   0.996
13052TIP3    H160647   2.359   6.217   1.047
13052TIP3    H260648   2.357   6.125   0.927
13053TIP3   OH260649   2.415   6.963   1.288
13053TIP3    H160650   2.389   7.004   1.206
13053TIP3    H260651   2.336   6.965   1.342
13054TIP3   OH260652   1.985   6.930   0.410
13054TIP3    H160653   1.990   6.973   0.324
13054TIP3    H260654   2.002   7.001   0.472
13055TIP3   OH260655   3.370   7.127   1.043
13055TIP3    H160656   3.284   7.130   1.085
13055TIP3    H260657   3.372   7.205   0.987
13056TIP3   OH260658   3.436   5.893   1.216
13056TIP3    H160659   3.373   5.924   1.150
13056TIP3    H260660   3.521   5.912   1.177
13057TIP3   OH260661   2.679   5.680   0.980
13057TIP3    H160662   2.653   5.588   0.979
13057TIP3    H260663   2.599   5.727   1.006
13058TIP3   OH260664   3.234   7.261   0.669
13058TIP3    H160665   3.265   7.177   0.634
13058TIP3    H260666   3.293   7.280   0.742
13059TIP3   OH260667   3.324   7.004   0.609
13059TIP3    H160668   3.240   6.963   0.586
13059TIP3    H260669   3.347   6.965   0.693
13060TIP3   OH260670   3.478   6.908   1.418
13060TIP3    H160671   3.469   6.848   1.345
13060TIP3    H260672   3.492   6.994   1.377
13061TIP3   OH260673   2.937   6.596   0.430
13061TIP3    H160674   2.872   6.663   0.406
13061TIP3    H260675   3.003   6.601   0.360
13062TIP3   OH260676   2.954   6.449   0.111
13062TIP3    H160677   3.014   6.467   0.184
13062TIP3    H260678   3.010   6.452   0.033
13063TIP3   OH260679   3.650   6.575   1.267
13063TIP3    H160680   3.577   6.636   1.256
13063TIP3    H260681   3.708   6.593   1.193
13064TIP3   OH260682   3.298   6.622   0.503
13064TIP3    H160683   3.230   6.640   0.567
13064TIP3    H260684   3.366   6.575   0.552
13065TIP3   OH260685   3.260   6.417   1.458
13065TIP3    H160686   3.254   6.488   1.521
13065TIP3    H260687   3.194   6.439   1.392
13066TIP3   OH260688   2.437   6.653   0.677
13066TIP3    H160689   2.407   6.615   0.595
13066TIP3    H260690   2.487   6.583   0.719
13067TIP3   OH260691   2.569   6.949   0.936
13067TIP3    H160692   2.572   6.965   0.842
13067TIP3    H260693   2.652   6.905   0.956
13068TIP3   OH260694   2.426   6.573   1.065
13068TIP3    H160695   2.481   6.544   0.992
13068TIP3    H260696   2.480   6.637   1.112
13069TIP3   OH260697   3.144   7.105   1.202
13069TIP3    H160698   3.126   7.128   1.293
13069TIP3    H260699   3.097   7.022   1.189
13070TIP3   OH260700   2.568   6.980   1.525
13070TIP3    H160701   2.503   7.036   1.569
13070TIP3    H260702   2.529   6.960   1.440
13071TIP3   OH260703   3.171   6.548   0.271
13071TIP3    H160704   3.219   6.577   0.348
13071TIP3    H260705   3.209   6.598   0.199
13072TIP3   OH260706   2.246   6.576   1.517
13072TIP3    H160707   2.258   6.661   1.559
13072TIP3    H260708   2.157   6.579   1.481
13073TIP3   OH260709   2.968   7.174   0.605
13073TIP3    H160710   3.048   7.223   0.627
13073TIP3    H260711   2.940   7.211   0.521
13074TIP3   OH260712   2.378   7.166   1.604
13074TIP3    H160713   2.375   7.211   1.520
13074TIP3    H260714   2.287   7.163   1.633
13075TIP3   OH260715   3.521   5.721   0.229
13075TIP3    H160716   3.443   5.755   0.273
13075TIP3    H260717   3.573   5.799   0.208
13076TIP3   OH260718   2.341   6.578   0.419
13076TIP3    H160719   2.310   6.667   0.408
13076TIP3    H260720   2.274   6.523   0.380
13077TIP3   OH260721   3.618   7.119   0.163
13077TIP3    H160722   3.602   7.213   0.170
13077TIP3    H260723   3.713   7.111   0.154
13078TIP3   OH260724   1.960   6.838   1.359
13078TIP3    H160725   1.909   6.850   1.279
13078TIP3    H260726   1.972   6.744   1.367
13079TIP3   OH260727   2.019   7.103   1.034
13079TIP3    H160728   2.097   7.052   1.010
13079TIP3    H260729   2.045   7.151   1.112
13080TIP3   OH260730   3.751   7.170   1.644
13080TIP3    H160731   3.732   7.076   1.640
13080TIP3    H260732   3.666   7.212   1.633
13081TIP3   OH260733   2.807   7.113   1.513
13081TIP3    H160734   2.791   7.190   1.567
13081TIP3    H260735   2.726   7.063   1.517
13082TIP3   OH260736   3.456   6.294   1.643
13082TIP3    H160737   3.390   6.330   1.584
13082TIP3    H260738   3.444   6.200   1.638
13083TIP3   OH260739   2.182   6.983   1.434
13083TIP3    H160740   2.206   6.943   1.517
13083TIP3    H260741   2.103   6.935   1.406
13084TIP3   OH260742   2.429   5.791   1.058
13084TIP3    H160743   2.355   5.780   0.999
13084TIP3    H260744   2.405   5.864   1.114
13085TIP3   OH260745   2.904   5.779   1.407
13085TIP3    H160746   2.948   5.728   1.474
13085TIP3    H260747   2.811   5.769   1.428
13086TIP3   OH260748   3.228   6.141   1.502
13086TIP3    H160749   3.157   6.126   1.564
13086TIP3    H260750   3.221   6.233   1.479
13087TIP3   OH260751   3.290   6.691   0.059
13087TIP3    H160752   3.272   6.766   0.001
13087TIP3    H260753   3.376   6.710   0.096
13088TIP3   OH260754   2.922   5.983   0.142
13088TIP3    H160755   2.846   5.976   0.200
13088TIP3    H260756   2.886   5.980   0.054
13089TIP3   OH260757   2.443   6.317   1.177
13089TIP3    H160758   2.377   6.315   1.246
13089TIP3    H260759   2.444   6.408   1.147
13090TIP3   OH260760   2.437   6.319   0.669
13090TIP3    H160761   2.342   6.308   0.667
13090TIP3    H260762   2.465   6.301   0.579
13091TIP3   OH260763   2.990   6.345   0.532
13091TIP3    H160764   2.965   6.432   0.501
13091TIP3    H260765   3.058   6.316   0.472
13092TIP3   OH260766   2.900   6.356   1.657
13092TIP3    H160767   2.850   6.284   1.694
13092TIP3    H260768   2.985   6.352   1.702
13093TIP3   OH260769   3.085   6.288   0.792
13093TIP3    H160770   3.042   6.334   0.720
13093TIP3    H260771   3.131   6.216   0.749
13094TIP3   OH260772   2.231   6.323   1.352
13094TIP3    H160773   2.229   6.370   1.435
13094TIP3    H260774   2.191   6.238   1.371
13095TIP3   OH260775   2.613   6.085   0.022
13095TIP3    H160776   2.606   6.089   0.118
13095TIP3    H260777   2.574   6.167  -0.008
13096TIP3   OH260778   1.887   6.013   0.760
13096TIP3    H160779   1.944   6.025   0.836
13096TIP3    H260780   1.942   6.039   0.685
13097TIP3   OH260781   1.925   6.114   0.263
13097TIP3    H160782   1.997   6.148   0.210
13097TIP3    H260783   1.871   6.191   0.282
13098TIP3   OH260784   3.052   6.438   1.267
13098TIP3    H160785   3.084   6.382   1.196
13098TIP3    H260786   2.985   6.386   1.311
13099TIP3   OH260787   2.751   6.035   0.755
13099TIP3    H160788   2.659   6.037   0.783
13099TIP3    H260789   2.798   5.998   0.829
13100TIP3   OH260790   2.178   6.223   0.644
13100TIP3    H160791   2.107   6.255   0.589
13100TIP3    H260792   2.201   6.138   0.608
13101TIP3   OH260793   2.509   6.233   0.419
13101TIP3    H160794   2.604   6.234   0.430
13101TIP3    H260795   2.494   6.282   0.338
13102TIP3   OH260796   3.120   5.994   1.080
13102TIP3    H160797   3.086   5.997   1.170
13102TIP3    H260798   3.052   5.951   1.029
13103TIP3   OH260799   2.463   6.348   0.176
13103TIP3    H160800   2.386   6.379   0.128
13103TIP3    H260801   2.537   6.385   0.129
13104TIP3   OH260802   2.251   6.822   1.661
13104TIP3    H160803   2.317   6.814   1.731
13104TIP3    H260804   2.169   6.834   1.708
13105TIP3   OH260805   2.815   6.364   0.951
13105TIP3    H160806   2.881   6.310   0.906
13105TIP3    H260807   2.784   6.308   1.022
13106TIP3   OH260808   2.286   5.965   0.589
13106TIP3    H160809   2.236   5.886   0.610
13106TIP3    H260810   2.320   5.950   0.501
13107TIP3   OH260811   2.706   6.226   1.171
13107TIP3    H160812   2.621   6.268   1.181
13107TIP3    H260813   2.756   6.252   1.248
13108TIP3   OH260814   2.759   6.805   0.356
13108TIP3    H160815   2.690   6.758   0.308
13108TIP3    H260816   2.720   6.823   0.441
13109TIP3   OH260817   3.455   6.753   1.191
13109TIP3    H160818   3.514   6.808   1.140
13109TIP3    H260819   3.384   6.732   1.131
13110TIP3   OH260820   3.150   6.134   0.097
13110TIP3    H160821   3.074   6.079   0.116
13110TIP3    H260822   3.164   6.184   0.177
13111TIP3   OH260823   2.922   6.840   1.502
13111TIP3    H160824   2.939   6.794   1.584
13111TIP3    H260825   2.881   6.922   1.530
13112TIP3   OH260826   3.196   6.274   0.347
13112TIP3    H160827   3.283   6.257   0.383
13112TIP3    H260828   3.202   6.363   0.312
13113TIP3   OH260829   2.258   6.710   0.879
13113TIP3    H160830   2.314   6.702   0.802
13113TIP3    H260831   2.303   6.660   0.947
13114TIP3   OH260832   2.977   6.966   0.293
13114TIP3    H160833   2.943   7.054   0.306
13114TIP3    H260834   2.901   6.909   0.305
13115TIP3   OH260835   1.974   6.567   1.440
13115TIP3    H160836   1.946   6.512   1.514
13115TIP3    H260837   1.908   6.551   1.372
13116TIP3   OH260838   2.693   6.544   1.678
13116TIP3    H160839   2.624   6.504   1.626
13116TIP3    H260840   2.771   6.491   1.660
13117TIP3   OH260841   3.086   7.129   1.480
13117TIP3    H160842   2.991   7.124   1.474
13117TIP3    H260843   3.104   7.130   1.574
13118TIP3   OH260844   3.654   6.335   0.313
13118TIP3    H160845   3.593   6.300   0.249
13118TIP3    H260846   3.668   6.426   0.287
13119TIP3   OH260847   3.693   6.882   1.585
13119TIP3    H160848   3.608   6.901   1.546
13119TIP3    H260849   3.753   6.873   1.511
13120TIP3   OH260850   3.472   7.162   0.418
13120TIP3    H160851   3.438   7.092   0.473
13120TIP3    H260852   3.512   7.118   0.344
13121TIP3   OH260853   3.249   6.677   1.008
13121TIP3    H160854   3.154   6.668   1.004
13121TIP3    H260855   3.283   6.599   0.964
13122TIP3   OH260856   2.485   7.064   0.679
13122TIP3    H160857   2.499   7.149   0.637
13122TIP3    H260858   2.391   7.048   0.672
13123TIP3   OH260859   2.113   6.513   0.242
13123TIP3    H160860   2.151   6.534   0.157
13123TIP3    H260861   2.024   6.548   0.238
13124TIP3   OH260862   2.620   6.844   0.586
13124TIP3    H160863   2.582   6.927   0.613
13124TIP3    H260864   2.558   6.778   0.617
13125TIP3   OH260865   2.695   7.225   1.265
13125TIP3    H160866   2.722   7.315   1.282
13125TIP3    H260867   2.743   7.173   1.329
13126TIP3   OH260868   2.470  -0.024   0.556
13126TIP3    H160869   2.384   0.011   0.581
13126TIP3    H260870   2.533   0.027   0.607
13127TIP3   OH260871   3.012   6.862   1.241
13127TIP3    H160872   2.979   6.851   1.330
13127TIP3    H260873   3.063   6.783   1.225
13128TIP3   OH260874   3.242   7.000   0.183
13128TIP3    H160875   3.299   6.942   0.233
13128TIP3    H260876   3.155   6.986   0.219
13129TIP3   OH260877   3.303   7.296   1.436
13129TIP3    H160878   3.229   7.236   1.448
13129TIP3    H260879   3.263   7.378   1.407
13130TIP3   OH260880   2.115   6.067   1.389
13130TIP3    H160881   2.024   6.092   1.373
13130TIP3    H260882   2.111   6.004   1.461
13131TIP3   OH260883   3.399   6.815   0.327
13131TIP3    H160884   3.354   6.761   0.391
13131TIP3    H260885   3.491   6.815   0.355
13132TIP3   OH260886   2.144   7.224   1.263
13132TIP3    H160887   2.134   7.161   1.335
13132TIP3    H260888   2.084   7.295   1.285
13133TIP3   OH260889   2.559   7.101   0.232
13133TIP3    H160890   2.613   7.035   0.274
13133TIP3    H260891   2.589   7.184   0.269
13134TIP3   OH260892   2.240   6.823   0.369
13134TIP3    H160893   2.148   6.841   0.391
13134TIP3    H260894   2.262   6.888   0.302
13135TIP3   OH260895   3.021   6.018   1.338
13135TIP3    H160896   3.092   6.029   1.401
13135TIP3    H260897   2.978   5.937   1.365
13136TIP3   OH260898   3.087   5.960   0.471
13136TIP3    H160899   3.072   6.020   0.398
13136TIP3    H260900   3.135   6.012   0.535
13137TIP3   OH260901   2.881   7.227   0.337
13137TIP3    H160902   2.793   7.264   0.344
13137TIP3    H260903   2.923   7.278   0.268
13138TIP3   OH260904   2.769   6.179   0.515
13138TIP3    H160905   2.844   6.239   0.522
13138TIP3    H260906   2.761   6.141   0.603
13139TIP3   OH260907   2.880   6.262   1.388
13139TIP3    H160908   2.882   6.282   1.481
13139TIP3    H260909   2.918   6.175   1.381
13140TIP3   OH260910   2.851   5.847   0.572
13140TIP3    H160911   2.825   5.917   0.632
13140TIP3    H260912   2.937   5.875   0.539
13141TIP3   OH260913   2.630   0.007   0.333
13141TIP3    H160914   2.646   0.101   0.330
13141TIP3    H260915   2.568  -0.004   0.406
13142TIP3   OH260916   2.431   5.983   0.323
13142TIP3    H160917   2.437   6.073   0.354
13142TIP3    H260918   2.521   5.952   0.320
13143TIP3   OH260919   3.472   6.018   1.461
13143TIP3    H160920   3.386   6.056   1.479
13143TIP3    H260921   3.460   5.966   1.382
13144TIP3   OH260922   3.323   6.427   0.891
13144TIP3    H160923   3.240   6.387   0.868
13144TIP3    H260924   3.365   6.364   0.950
13145TIP3   OH260925   2.305   7.012   0.173
13145TIP3    H160926   2.383   7.060   0.200
13145TIP3    H260927   2.337   6.945   0.113
13146TIP3   OH260928   2.107   6.262   0.125
13146TIP3    H160929   2.111   6.336   0.186
13146TIP3    H260930   2.138   6.297   0.042
13147TIP3   OH260931   2.181   5.767   0.933
13147TIP3    H160932   2.171   5.761   0.838
13147TIP3    H260933   2.146   5.685   0.967
13148TIP3   OH260934   2.032   7.140   0.590
13148TIP3    H160935   1.988   7.170   0.669
13148TIP3    H260936   2.030   7.215   0.531
13149TIP3   OH260937   2.513   7.264   1.819
13149TIP3    H160938   2.566   7.195   1.860
13149TIP3    H260939   2.459   7.218   1.756
13150TIP3   OH260940   2.976   0.027   0.116
13150TIP3    H160941   2.937  -0.028   0.048
13150TIP3    H260942   3.070   0.025   0.098
13151TIP3   OH260943   3.128   7.140   1.752
13151TIP3    H160944   3.096   7.059   1.793
13151TIP3    H260945   3.213   7.156   1.793
13152TIP3   OH260946   3.332   7.156  -0.031
13152TIP3    H160947   3.310   7.120   0.055
13152TIP3    H260948   3.410   7.211  -0.015
13153TIP3   OH260949   2.003   6.836   1.787
13153TIP3    H160950   2.008   6.741   1.787
13153TIP3    H260951   1.929   6.856   1.728
13154TIP3   OH260952   2.474   6.831   0.044
13154TIP3    H160953   2.498   6.779   0.120
13154TIP3    H260954   2.479   6.771  -0.030
13155TIP3   OH260955   2.666   6.818   1.732
13155TIP3    H160956   2.638   6.856   1.649
13155TIP3    H260957   2.688   6.727   1.710
13156TIP3   OH260958   3.228   6.846   1.519
13156TIP3    H160959   3.314   6.878   1.488
13156TIP3    H260960   3.166   6.912   1.489
13157TIP3   OH260961   2.075   6.571   1.775
13157TIP3    H160962   2.153   6.532   1.734
13157TIP3    H260963   2.088   6.556   1.868
13158TIP3   OH260964   2.556   6.655   0.243
13158TIP3    H160965   2.489   6.616   0.299
13158TIP3    H260966   2.589   6.581   0.192
13159TIP3   OH260967   2.494   6.438   1.508
13159TIP3    H160968   2.414   6.490   1.505
13159TIP3    H260969   2.547   6.470   1.436
13160TIP3   OH260970   2.682   6.469   0.066
13160TIP3    H160971   2.685   6.478  -0.029
13160TIP3    H260972   2.774   6.458   0.092
13161TIP3   OH260973   3.002   6.681   1.766
13161TIP3    H160974   3.081   6.642   1.729
13161TIP3    H260975   2.969   6.616   1.828
13162TIP3   OH260976   3.581   6.787   0.025
13162TIP3    H160977   3.554   6.817  -0.062
13162TIP3    H260978   3.585   6.866   0.078
13163TIP3   OH260979   2.535   6.173   1.571
13163TIP3    H160980   2.545   6.119   1.493
13163TIP3    H260981   2.523   6.262   1.539
13164TIP3   OH260982   2.570   6.025   1.332
13164TIP3    H160983   2.623   6.072   1.267
13164TIP3    H260984   2.484   6.018   1.291
13165TIP3   OH260985   2.674   6.531   1.328
13165TIP3    H160986   2.768   6.542   1.337
13165TIP3    H260987   2.645   6.612   1.284
13166TIP3   OH260988   3.134   6.328   1.822
13166TIP3    H160989   3.158   6.236   1.818
13166TIP3    H260990   3.213   6.373   1.850
13167TIP3   OH260991   3.278   6.619   1.654
13167TIP3    H160992   3.251   6.700   1.611
13167TIP3    H260993   3.374   6.620   1.649
13168TIP3   OH260994   2.372   6.224   1.796
13168TIP3    H160995   2.290   6.175   1.785
13168TIP3    H260996   2.418   6.213   1.712
13169TIP3   OH260997   2.625   5.762   1.409
13169TIP3    H160998   2.605   5.853   1.386
13169TIP3    H260999   2.557   5.711   1.365
13170TIP3   OH261000   2.755   6.138   1.737
13170TIP3    H161001   2.718   6.110   1.821
13170TIP3    H261002   2.681   6.142   1.678
13171TIP3   OH261003   3.024   6.078   1.669
13171TIP3    H161004   2.932   6.081   1.697
13171TIP3    H261005   3.067   6.026   1.737
13172TIP3   OH261006   3.201   5.969   1.857
13172TIP3    H161007   3.198   5.874   1.843
13172TIP3    H261008   3.175   5.981   1.948
13173TIP3   OH261009   2.169   6.029   1.762
13173TIP3    H161010   2.173   5.949   1.709
13173TIP3    H261011   2.180   5.999   1.852
13174TIP3   OH261012   2.611   5.669   1.667
13174TIP3    H161013   2.668   5.593   1.661
13174TIP3    H261014   2.609   5.706   1.579
13175TIP3   OH261015   2.696   5.825   1.878
13175TIP3    H161016   2.670   5.772   1.803
13175TIP3    H261017   2.635   5.899   1.878
13176TIP3   OH261018   2.025   7.011   0.144
13176TIP3    H161019   2.114   7.044   0.153
13176TIP3    H261020   2.033   6.937   0.084
13177TIP3   OH261021   1.942   7.286   0.826
13177TIP3    H161022   1.944   7.217   0.891
13177TIP3    H261023   1.987   7.360   0.868
13178TIP3   OH261024   3.513   6.926   1.910
13178TIP3    H161025   3.430   6.944   1.955
13178TIP3    H261026   3.562   7.008   1.915
13179TIP3   OH261027   3.658   6.771   0.421
13179TIP3    H161028   3.730   6.833   0.421
13179TIP3    H261029   3.676   6.712   0.495
13180TIP3   OH261030   3.715   6.579   0.611
13180TIP3    H161031   3.631   6.542   0.640
13180TIP3    H261032   3.765   6.588   0.692
13181TIP3   OH261033   3.706   6.878   1.125
13181TIP3    H161034   3.752   6.807   1.080
13181TIP3    H261035   3.735   6.958   1.080
13182TIP3   OH261036   3.494   7.147   1.291
13182TIP3    H161037   3.431   7.206   1.332
13182TIP3    H261038   3.465   7.139   1.200
13183TIP3   OH261039   3.687   6.596   0.214
13183TIP3    H161040   3.642   6.643   0.144
13183TIP3    H261041   3.676   6.652   0.291
13184TIP3   OH261042   3.489   6.245   0.119
13184TIP3    H161043   3.548   6.261   0.045
13184TIP3    H261044   3.414   6.199   0.082
13185TIP3   OH261045   3.466   6.457   0.655
13185TIP3    H161046   3.460   6.369   0.619
13185TIP3    H261047   3.422   6.451   0.740
13186TIP3   OH261048   1.948   6.648   1.069
13186TIP3    H161049   1.956   6.628   0.976
13186TIP3    H261050   2.029   6.614   1.108
13187TIP3   OH261051   3.556   6.633   1.639
13187TIP3    H161052   3.616   6.561   1.622
13187TIP3    H261053   3.603   6.711   1.611
13188TIP3   OH261054   3.708   6.401   1.619
13188TIP3    H161055   3.621   6.361   1.622
13188TIP3    H261056   3.767   6.333   1.651
13189TIP3   OH261057   3.455   6.214   0.487
13189TIP3    H161058   3.483   6.123   0.487
13189TIP3    H261059   3.522   6.261   0.437
13190TIP3   OH261060   3.472   6.243   1.048
13190TIP3    H161061   3.565   6.251   1.027
13190TIP3    H261062   3.465   6.270   1.139
13191TIP3   OH261063   3.493   6.351   1.305
13191TIP3    H161064   3.415   6.377   1.353
13191TIP3    H261065   3.544   6.432   1.297
13192TIP3   OH261066   1.947   6.151   1.652
13192TIP3    H161067   2.029   6.124   1.695
13192TIP3    H261068   1.888   6.077   1.665
13193TIP3   OH261069   3.750   5.759   1.833
13193TIP3    H161070   3.801   5.685   1.800
13193TIP3    H261071   3.750   5.823   1.761
13194TIP3   OH261072   3.518   5.943   0.494
13194TIP3    H161073   3.535   5.902   0.578
13194TIP3    H261074   3.447   5.890   0.456
13195TIP3   OH261075   2.056   6.012   0.981
13195TIP3    H161076   2.094   5.924   0.973
13195TIP3    H261077   2.131   6.070   0.986
13196TIP3   OH261078   1.860   6.294   1.034
13196TIP3    H161079   1.932   6.292   0.971
13196TIP3    H261080   1.887   6.360   1.099
13197TIP3   OH261081   3.676   5.965   1.658
13197TIP3    H161082   3.604   5.991   1.716
13197TIP3    H261083   3.633   5.947   1.574
13198TIP3   OH261084   3.683   5.926   0.137
13198TIP3    H161085   3.702   5.939   0.044
13198TIP3    H261086   3.734   5.992   0.182
13199TIP3   OH261087   1.917   5.906   0.438
13199TIP3    H161088   1.825   5.913   0.462
13199TIP3    H261089   1.933   5.983   0.383
13200TIP3   OH261090   1.918   5.761   1.292
13200TIP3    H161091   1.853   5.760   1.362
13200TIP3    H261092   1.890   5.833   1.235
13201TIP3   OH261093   2.125   7.173   1.719
13201TIP3    H161094   2.035   7.174   1.687
13201TIP3    H261095   2.117   7.152   1.812
13202TIP3   OH261096   2.407   7.290   1.349
13202TIP3    H161097   2.323   7.281   1.304
13202TIP3    H261098   2.472   7.254   1.288
13203TIP3   OH261099   3.583   5.699   1.462
13203TIP3    H161100   3.502   5.700   1.410
13203TIP3    H261101   3.623   5.614   1.443
13204TIP3   OH261102   2.310   7.241   0.901
13204TIP3    H161103   2.288   7.150   0.920
13204TIP3    H261104   2.399   7.251   0.934
13205TIP3   OH261105   2.563   7.207   1.026
13205TIP3    H161106   2.572   7.118   0.994
13205TIP3    H261107   2.612   7.208   1.108
13206TIP3   OH261108   2.912   5.869   0.924
13206TIP3    H161109   2.849   5.800   0.945
13206TIP3    H261110   2.983   5.824   0.879
13207TIP3   OH261111   3.403   5.728   0.911
13207TIP3    H161112   3.464   5.782   0.861
13207TIP3    H261113   3.316   5.763   0.889
13208TIP3   OH261114   3.591   5.819   0.731
13208TIP3    H161115   3.653   5.750   0.710
13208TIP3    H261116   3.645   5.896   0.748
13209TIP3   OH261117   2.146   5.730   0.661
13209TIP3    H161118   2.054   5.716   0.639
13209TIP3    H261119   2.187   5.645   0.648
13210TIP3   OH261120   2.054   5.724   0.271
13210TIP3    H161121   2.118   5.778   0.225
13210TIP3    H261122   2.009   5.784   0.330
13211TIP3   OH261123   2.646   5.693   0.694
13211TIP3    H161124   2.713   5.747   0.652
13211TIP3    H261125   2.666   5.698   0.788
13212TIP3   OH261126   3.128   5.729   0.818
13212TIP3    H161127   3.163   5.706   0.732
13212TIP3    H261128   3.114   5.645   0.862
13213TIP3   OH261129   3.305   5.790   0.397
13213TIP3    H161130   3.227   5.843   0.415
13213TIP3    H261131   3.274   5.700   0.405
13214TIP3   OH261132   2.046   0.028   0.444
13214TIP3    H161133   2.054   0.013   0.350
13214TIP3    H261134   1.995   0.110   0.450
13215TIP3   OH261135   2.242   5.880   0.140
13215TIP3    H161136   2.269   5.921   0.057
13215TIP3    H261137   2.304   5.913   0.204
13216TIP3   OH261138   2.718   5.972   0.340
13216TIP3    H161139   2.747   5.899   0.395
13216TIP3    H261140   2.734   6.049   0.394
13217TIP3   OH261141   2.170   5.785   1.616
13217TIP3    H161142   2.111   5.717   1.650
13217TIP3    H261143   2.252   5.771   1.664
13218TIP3   OH261144   2.369   5.724   1.798
13218TIP3    H161145   2.453   5.698   1.761
13218TIP3    H261146   2.336   5.646   1.842
13219TIP3   OH261147   3.224   5.696   1.805
13219TIP3    H161148   3.213   5.646   1.885
13219TIP3    H261149   3.316   5.685   1.782
13220TIP3   OH261150   3.501   7.296   1.628
13220TIP3    H161151   3.428   7.280   1.568
13220TIP3    H261152   3.460   7.325   1.709
13221TIP3   OH261153   4.979   6.694   0.639
13221TIP3    H161154   4.948   6.784   0.633
13221TIP3    H261155   4.910   6.642   0.597
13222TIP3   OH261156   4.852   6.581   1.055
13222TIP3    H161157   4.886   6.534   1.130
13222TIP3    H261158   4.805   6.516   1.004
13223TIP3   OH261159   4.059   6.532   1.172
13223TIP3    H161160   4.067   6.459   1.234
13223TIP3    H261161   4.148   6.549   1.143
13224TIP3   OH261162   5.278   6.870   0.908
13224TIP3    H161163   5.214   6.817   0.955
13224TIP3    H261164   5.279   6.954   0.955
13225TIP3   OH261165   4.212   6.959   1.008
13225TIP3    H161166   4.166   6.884   0.969
13225TIP3    H261167   4.303   6.949   0.978
13226TIP3   OH261168   3.850   6.351   0.515
13226TIP3    H161169   3.820   6.434   0.551
13226TIP3    H261170   3.787   6.329   0.447
13227TIP3   OH261171   3.905   6.583   0.816
13227TIP3    H161172   3.934   6.493   0.832
13227TIP3    H261173   3.985   6.635   0.823
13228TIP3   OH261174   4.694   6.818   1.057
13228TIP3    H161175   4.735   6.735   1.034
13228TIP3    H261176   4.761   6.864   1.110
13229TIP3   OH261177   5.575   5.977   1.140
13229TIP3    H161178   5.589   6.050   1.201
13229TIP3    H261179   5.626   5.999   1.063
13230TIP3   OH261180   5.017   6.250   1.075
13230TIP3    H161181   5.048   6.160   1.085
13230TIP3    H261182   4.999   6.259   0.981
13231TIP3   OH261183   4.326   6.081   0.798
13231TIP3    H161184   4.332   6.164   0.751
13231TIP3    H261185   4.277   6.024   0.740
13232TIP3   OH261186   5.106   6.124   0.579
13232TIP3    H161187   5.118   6.044   0.630
13232TIP3    H261188   5.194   6.161   0.572
13233TIP3   OH261189   3.981   6.325   0.882
13233TIP3    H161190   4.045   6.282   0.939
13233TIP3    H261191   3.998   6.290   0.795
13234TIP3   OH261192   4.458   6.468   0.858
13234TIP3    H161193   4.545   6.433   0.880
13234TIP3    H261194   4.422   6.403   0.797
13235TIP3   OH261195   5.597   6.138   1.374
13235TIP3    H161196   5.533   6.207   1.357
13235TIP3    H261197   5.557   6.086   1.444
13236TIP3   OH261198   4.196   6.001   1.231
13236TIP3    H161199   4.175   6.057   1.157
13236TIP3    H261200   4.120   6.009   1.290
13237TIP3   OH261201   4.929   6.955   0.562
13237TIP3    H161202   4.905   6.955   0.469
13237TIP3    H261203   4.885   7.032   0.598
13238TIP3   OH261204   4.472   6.748   1.212
13238TIP3    H161205   4.417   6.823   1.235
13238TIP3    H261206   4.544   6.786   1.160
13239TIP3   OH261207   5.227   6.144   0.852
13239TIP3    H161208   5.229   6.051   0.831
13239TIP3    H261209   5.289   6.154   0.924
13240TIP3   OH261210   4.173   6.164   1.010
13240TIP3    H161211   4.232   6.220   1.060
13240TIP3    H261212   4.228   6.129   0.939
13241TIP3   OH261213   4.292   6.956   1.277
13241TIP3    H161214   4.260   6.969   1.187
13241TIP3    H261215   4.214   6.966   1.331
13242TIP3   OH261216   3.875   6.938   0.395
13242TIP3    H161217   3.869   6.989   0.314
13242TIP3    H261218   3.888   7.003   0.463
13243TIP3   OH261219   5.268   7.120   1.036
13243TIP3    H161220   5.181   7.123   1.076
13243TIP3    H261221   5.274   7.202   0.987
13244TIP3   OH261222   5.309   5.900   1.236
13244TIP3    H161223   5.234   5.931   1.184
13244TIP3    H261224   5.384   5.912   1.178
13245TIP3   OH261225   4.543   5.684   0.968
13245TIP3    H161226   4.523   5.591   0.977
13245TIP3    H261227   4.466   5.729   1.002
13246TIP3   OH261228   5.120   7.239   0.705
13246TIP3    H161229   5.155   7.156   0.673
13246TIP3    H261230   5.185   7.270   0.768
13247TIP3   OH261231   5.199   6.967   0.598
13247TIP3    H161232   5.219   6.963   0.504
13247TIP3    H261233   5.104   6.962   0.602
13248TIP3   OH261234   5.366   6.917   1.417
13248TIP3    H161235   5.360   6.855   1.344
13248TIP3    H261236   5.382   7.002   1.375
13249TIP3   OH261237   4.826   6.589   0.428
13249TIP3    H161238   4.761   6.654   0.402
13249TIP3    H261239   4.894   6.594   0.360
13250TIP3   OH261240   4.821   6.427   0.115
13250TIP3    H161241   4.869   6.411   0.195
13250TIP3    H261242   4.884   6.411   0.045
13251TIP3   OH261243   5.543   6.569   1.270
13251TIP3    H161244   5.470   6.630   1.257
13251TIP3    H261245   5.598   6.580   1.192
13252TIP3   OH261246   5.224   6.656   0.539
13252TIP3    H161247   5.136   6.659   0.577
13252TIP3    H261248   5.260   6.572   0.568
13253TIP3   OH261249   5.154   6.417   1.463
13253TIP3    H161250   5.143   6.489   1.525
13253TIP3    H261251   5.093   6.436   1.392
13254TIP3   OH261252   4.335   6.659   0.686
13254TIP3    H161253   4.309   6.621   0.602
13254TIP3    H261254   4.383   6.589   0.730
13255TIP3   OH261255   4.476   6.943   0.928
13255TIP3    H161256   4.485   6.954   0.834
13255TIP3    H261257   4.557   6.898   0.955
13256TIP3   OH261258   4.317   6.569   1.071
13256TIP3    H161259   4.370   6.539   0.997
13256TIP3    H261260   4.373   6.632   1.117
13257TIP3   OH261261   5.036   7.099   1.181
13257TIP3    H161262   5.008   7.134   1.266
13257TIP3    H261263   4.992   7.014   1.175
13258TIP3   OH261264   4.439   6.983   1.514
13258TIP3    H161265   4.372   7.038   1.554
13258TIP3    H261266   4.403   6.961   1.428
13259TIP3   OH261267   5.080   6.556   0.301
13259TIP3    H161268   5.133   6.596   0.370
13259TIP3    H261269   5.114   6.593   0.220
13260TIP3   OH261270   4.129   6.563   1.532
13260TIP3    H161271   4.144   6.649   1.571
13260TIP3    H261272   4.041   6.569   1.496
13261TIP3   OH261273   4.848   7.203   0.642
13261TIP3    H161274   4.935   7.230   0.670
13261TIP3    H261275   4.800   7.285   0.629
13262TIP3   OH261276   4.254   7.172   1.600
13262TIP3    H161277   4.253   7.214   1.514
13262TIP3    H261278   4.162   7.169   1.626
13263TIP3   OH261279   5.407   5.719   0.218
13263TIP3    H161280   5.331   5.748   0.268
13263TIP3    H261281   5.456   5.799   0.201
13264TIP3   OH261282   4.250   6.579   0.427
13264TIP3    H161283   4.189   6.646   0.396
13264TIP3    H261284   4.203   6.497   0.412
13265TIP3   OH261285   5.558   7.185   0.075
13265TIP3    H161286   5.520   7.272   0.082
13265TIP3    H261287   5.540   7.144   0.159
13266TIP3   OH261288   3.848   6.834   1.365
13266TIP3    H161289   3.796   6.848   1.286
13266TIP3    H261290   3.859   6.739   1.370
13267TIP3   OH261291   3.836   7.143   1.061
13267TIP3    H161292   3.924   7.147   1.101
13267TIP3    H261293   3.782   7.195   1.120
13268TIP3   OH261294   5.605   7.141   1.669
13268TIP3    H161295   5.591   7.048   1.650
13268TIP3    H261296   5.518   7.180   1.666
13269TIP3   OH261297   4.683   7.107   1.500
13269TIP3    H161298   4.668   7.184   1.555
13269TIP3    H261299   4.599   7.060   1.501
13270TIP3   OH261300   5.339   6.292   1.643
13270TIP3    H161301   5.278   6.327   1.578
13270TIP3    H261302   5.342   6.198   1.626
13271TIP3   OH261303   4.070   6.975   1.443
13271TIP3    H161304   4.096   6.929   1.523
13271TIP3    H261305   3.991   6.931   1.414
13272TIP3   OH261306   4.303   5.798   1.064
13272TIP3    H161307   4.227   5.785   1.007
13272TIP3    H261308   4.278   5.869   1.123
13273TIP3   OH261309   4.796   5.779   1.401
13273TIP3    H161310   4.844   5.723   1.463
13273TIP3    H261311   4.704   5.757   1.416
13274TIP3   OH261312   5.074   6.147   1.481
13274TIP3    H161313   5.024   6.137   1.562
13274TIP3    H261314   5.090   6.241   1.475
13275TIP3   OH261315   5.186   6.673   0.077
13275TIP3    H161316   5.143   6.753   0.046
13275TIP3    H261317   5.278   6.685   0.055
13276TIP3   OH261318   4.812   5.976   0.169
13276TIP3    H161319   4.741   5.979   0.233
13276TIP3    H261320   4.786   5.907   0.108
13277TIP3   OH261321   4.321   6.316   1.188
13277TIP3    H161322   4.252   6.315   1.255
13277TIP3    H261323   4.324   6.407   1.159
13278TIP3   OH261324   4.317   6.323   0.668
13278TIP3    H161325   4.222   6.309   0.664
13278TIP3    H261326   4.349   6.302   0.581
13279TIP3   OH261327   4.879   6.343   0.543
13279TIP3    H161328   4.856   6.427   0.504
13279TIP3    H261329   4.940   6.304   0.481
13280TIP3   OH261330   4.772   6.350   1.655
13280TIP3    H161331   4.737   6.268   1.691
13280TIP3    H261332   4.857   6.361   1.697
13281TIP3   OH261333   4.986   6.290   0.801
13281TIP3    H161334   4.942   6.310   0.718
13281TIP3    H261335   5.048   6.221   0.779
13282TIP3   OH261336   4.099   6.317   1.351
13282TIP3    H161337   4.081   6.366   1.432
13282TIP3    H261338   4.051   6.235   1.362
13283TIP3   OH261339   4.496   6.082   0.035
13283TIP3    H161340   4.467   6.046   0.119
13283TIP3    H261341   4.490   6.177   0.046
13284TIP3   OH261342   3.775   6.016   0.741
13284TIP3    H161343   3.834   6.026   0.816
13284TIP3    H261344   3.834   6.006   0.666
13285TIP3   OH261345   3.840   6.131   0.250
13285TIP3    H161346   3.915   6.168   0.203
13285TIP3    H261347   3.783   6.206   0.267
13286TIP3   OH261348   4.953   6.428   1.267
13286TIP3    H161349   4.985   6.368   1.200
13286TIP3    H261350   4.878   6.383   1.306
13287TIP3   OH261351   4.609   6.103   0.781
13287TIP3    H161352   4.518   6.084   0.803
13287TIP3    H261353   4.658   6.027   0.811
13288TIP3   OH261354   4.061   6.226   0.640
13288TIP3    H161355   3.990   6.257   0.584
13288TIP3    H261356   4.079   6.137   0.609
13289TIP3   OH261357   4.387   6.238   0.418
13289TIP3    H161358   4.481   6.236   0.431
13289TIP3    H261359   4.376   6.276   0.331
13290TIP3   OH261360   5.059   5.973   1.118
13290TIP3    H161361   4.982   5.983   1.174
13290TIP3    H261362   5.034   5.906   1.054
13291TIP3   OH261363   4.317   6.315   0.164
13291TIP3    H161364   4.227   6.303   0.135
13291TIP3    H261365   4.359   6.364   0.093
13292TIP3   OH261366   4.137   6.817   1.670
13292TIP3    H161367   4.199   6.819   1.744
13292TIP3    H261368   4.051   6.823   1.711
13293TIP3   OH261369   4.700   6.359   0.957
13293TIP3    H161370   4.748   6.303   0.896
13293TIP3    H261371   4.665   6.299   1.022
13294TIP3   OH261372   4.162   5.959   0.605
13294TIP3    H161373   4.111   5.882   0.630
13294TIP3    H261374   4.208   5.932   0.525
13295TIP3   OH261375   4.578   6.217   1.170
13295TIP3    H161376   4.492   6.259   1.181
13295TIP3    H261377   4.629   6.249   1.244
13296TIP3   OH261378   4.651   6.797   0.355
13296TIP3    H161379   4.582   6.752   0.306
13296TIP3    H261380   4.609   6.821   0.438
13297TIP3   OH261381   5.349   6.751   1.197
13297TIP3    H161382   5.405   6.802   1.140
13297TIP3    H261383   5.276   6.724   1.141
13298TIP3   OH261384   5.000   6.159   0.084
13298TIP3    H161385   4.931   6.096   0.107
13298TIP3    H261386   5.024   6.199   0.167
13299TIP3   OH261387   4.814   6.850   1.493
13299TIP3    H161388   4.823   6.806   1.577
13299TIP3    H261389   4.766   6.930   1.513
13300TIP3   OH261390   5.065   6.282   0.325
13300TIP3    H161391   5.137   6.246   0.377
13300TIP3    H261392   5.086   6.374   0.315
13301TIP3   OH261393   4.150   6.711   0.886
13301TIP3    H161394   4.208   6.706   0.810
13301TIP3    H261395   4.194   6.658   0.953
13302TIP3   OH261396   4.867   6.962   0.288
13302TIP3    H161397   4.827   7.048   0.278
13302TIP3    H261398   4.793   6.902   0.300
13303TIP3   OH261399   3.860   6.556   1.449
13303TIP3    H161400   3.826   6.509   1.524
13303TIP3    H261401   3.792   6.548   1.382
13304TIP3   OH261402   4.574   6.544   1.681
13304TIP3    H161403   4.503   6.505   1.631
13304TIP3    H261404   4.650   6.491   1.661
13305TIP3   OH261405   4.956   7.138   1.448
13305TIP3    H161406   4.861   7.126   1.447
13305TIP3    H261407   4.980   7.130   1.540
13306TIP3   OH261408   5.549   6.346   0.315
13306TIP3    H161409   5.488   6.311   0.250
13306TIP3    H261410   5.564   6.436   0.287
13307TIP3   OH261411   5.577   6.873   1.584
13307TIP3    H161412   5.494   6.892   1.540
13307TIP3    H261413   5.639   6.862   1.513
13308TIP3   OH261414   5.467   7.119   0.325
13308TIP3    H161415   5.376   7.091   0.336
13308TIP3    H261416   5.462   7.215   0.321
13309TIP3   OH261417   5.129   6.669   1.026
13309TIP3    H161418   5.034   6.657   1.023
13309TIP3    H261419   5.164   6.589   0.987
13310TIP3   OH261420   4.374   7.069   0.678
13310TIP3    H161421   4.384   7.148   0.625
13310TIP3    H261422   4.286   7.076   0.715
13311TIP3   OH261423   3.961   6.543   0.176
13311TIP3    H161424   4.002   6.617   0.222
13311TIP3    H261425   3.867   6.559   0.184
13312TIP3   OH261426   4.509   6.851   0.583
13312TIP3    H161427   4.467   6.934   0.606
13312TIP3    H261428   4.451   6.784   0.620
13313TIP3   OH261429   4.576   7.220   1.254
13313TIP3    H161430   4.594   7.313   1.271
13313TIP3    H261431   4.630   7.173   1.318
13314TIP3   OH261432   4.353  -0.024   0.549
13314TIP3    H161433   4.269   0.010   0.580
13314TIP3    H261434   4.418   0.021   0.603
13315TIP3   OH261435   4.910   6.857   1.234
13315TIP3    H161436   4.875   6.851   1.322
13315TIP3    H261437   4.955   6.773   1.220
13316TIP3   OH261438   5.129   6.965   0.137
13316TIP3    H161439   5.180   6.929   0.209
13316TIP3    H261440   5.039   6.967   0.170
13317TIP3   OH261441   5.182   7.293   1.438
13317TIP3    H161442   5.099   7.245   1.437
13317TIP3    H261443   5.160   7.380   1.404
13318TIP3   OH261444   3.953   6.073   1.376
13318TIP3    H161445   3.870   6.120   1.374
13318TIP3    H261446   3.928   5.981   1.381
13319TIP3   OH261447   5.283   6.862   0.353
13319TIP3    H161448   5.249   6.785   0.399
13319TIP3    H261449   5.378   6.852   0.356
13320TIP3   OH261450   4.036   7.225   1.267
13320TIP3    H161451   4.012   7.164   1.337
13320TIP3    H261452   3.968   7.293   1.271
13321TIP3   OH261453   4.405   7.085   0.260
13321TIP3    H161454   4.484   7.033   0.273
13321TIP3    H261455   4.432   7.176   0.272
13322TIP3   OH261456   4.073   6.763   0.313
13322TIP3    H161457   4.001   6.807   0.357
13322TIP3    H261458   4.118   6.832   0.265
13323TIP3   OH261459   4.870   6.034   1.333
13323TIP3    H161460   4.952   6.051   1.379
13323TIP3    H261461   4.846   5.945   1.358
13324TIP3   OH261462   4.912   5.977   0.449
13324TIP3    H161463   4.930   5.984   0.355
13324TIP3    H261464   4.977   6.034   0.490
13325TIP3   OH261465   4.733   7.203   0.271
13325TIP3    H161466   4.653   7.244   0.307
13325TIP3    H261467   4.762   7.264   0.203
13326TIP3   OH261468   4.643   6.198   0.523
13326TIP3    H161469   4.725   6.247   0.528
13326TIP3    H261470   4.629   6.166   0.613
13327TIP3   OH261471   4.749   6.282   1.380
13327TIP3    H161472   4.754   6.296   1.475
13327TIP3    H261473   4.785   6.194   1.367
13328TIP3   OH261474   4.734   5.824   0.582
13328TIP3    H161475   4.744   5.845   0.675
13328TIP3    H261476   4.804   5.873   0.539
13329TIP3   OH261477   4.492   0.005   0.315
13329TIP3    H161478   4.526   0.094   0.323
13329TIP3    H261479   4.437  -0.007   0.393
13330TIP3   OH261480   4.353   5.993   0.273
13330TIP3    H161481   4.336   6.074   0.321
13330TIP3    H261482   4.437   5.962   0.307
13331TIP3   OH261483   5.326   6.044   1.474
13331TIP3    H161484   5.234   6.071   1.476
13331TIP3    H261485   5.333   5.989   1.395
13332TIP3   OH261486   5.215   6.436   0.905
13332TIP3    H161487   5.138   6.385   0.880
13332TIP3    H261488   5.268   6.375   0.957
13333TIP3   OH261489   4.174   6.972   0.157
13333TIP3    H161490   4.231   7.030   0.207
13333TIP3    H261491   4.233   6.924   0.099
13334TIP3   OH261492   4.035   6.290   0.094
13334TIP3    H161493   4.009   6.379   0.119
13334TIP3    H261494   4.020   6.286  -0.000
13335TIP3   OH261495   4.056   5.765   0.944
13335TIP3    H161496   4.048   5.753   0.849
13335TIP3    H261497   4.021   5.684   0.981
13336TIP3   OH261498   3.910   7.141   0.581
13336TIP3    H161499   3.870   7.172   0.662
13336TIP3    H261500   3.911   7.217   0.524
13337TIP3   OH261501   4.404   7.230   1.813
13337TIP3    H161502   4.448   7.148   1.833
13337TIP3    H261503   4.343   7.208   1.742
13338TIP3   OH261504   4.787   0.060   0.080
13338TIP3    H161505   4.724   0.057   0.008
13338TIP3    H261506   4.871   0.036   0.040
13339TIP3   OH261507   5.011   7.127   1.711
13339TIP3    H161508   4.967   7.059   1.762
13339TIP3    H261509   5.087   7.151   1.765
13340TIP3   OH261510   5.208   7.235   0.100
13340TIP3    H161511   5.178   7.144   0.103
13340TIP3    H261512   5.273   7.237   0.030
13341TIP3   OH261513   3.882   6.824   1.781
13341TIP3    H161514   3.890   6.729   1.784
13341TIP3    H261515   3.807   6.841   1.724
13342TIP3   OH261516   4.361   6.817   0.031
13342TIP3    H161517   4.395   6.769   0.106
13342TIP3    H261518   4.355   6.752  -0.039
13343TIP3   OH261519   4.540   6.820   1.722
13343TIP3    H161520   4.511   6.857   1.639
13343TIP3    H261521   4.563   6.729   1.702
13344TIP3   OH261522   5.119   6.848   1.522
13344TIP3    H161523   5.202   6.882   1.489
13344TIP3    H261524   5.053   6.905   1.483
13345TIP3   OH261525   3.963   6.561   1.780
13345TIP3    H161526   4.037   6.516   1.740
13345TIP3    H261527   3.972   6.545   1.874
13346TIP3   OH261528   4.449   6.650   0.234
13346TIP3    H161529   4.388   6.615   0.300
13346TIP3    H261530   4.477   6.573   0.184
13347TIP3   OH261531   4.359   6.403   1.542
13347TIP3    H161532   4.281   6.457   1.536
13347TIP3    H261533   4.414   6.432   1.469
13348TIP3   OH261534   4.551   6.454   0.058
13348TIP3    H161535   4.555   6.455  -0.038
13348TIP3    H261536   4.642   6.443   0.085
13349TIP3   OH261537   4.895   6.696   1.786
13349TIP3    H161538   4.975   6.661   1.746
13349TIP3    H261539   4.867   6.628   1.847
13350TIP3   OH261540   5.449   6.745  15.997
13350TIP3    H161541   5.436   6.724  15.905
13350TIP3    H261542   5.463   6.840  15.999
13351TIP3   OH261543   4.422   6.125   1.590
13351TIP3    H161544   4.433   6.081   1.505
13351TIP3    H261545   4.400   6.215   1.567
13352TIP3   OH261546   4.451   6.015   1.334
13352TIP3    H161547   4.504   6.061   1.268
13352TIP3    H261548   4.363   6.012   1.297
13353TIP3   OH261549   4.528   6.519   1.361
13353TIP3    H161550   4.619   6.498   1.342
13353TIP3    H261551   4.511   6.601   1.314
13354TIP3   OH261552   5.016   6.336   1.811
13354TIP3    H161553   5.001   6.245   1.786
13354TIP3    H261554   5.110   6.343   1.823
13355TIP3   OH261555   5.164   6.623   1.662
13355TIP3    H161556   5.141   6.703   1.615
13355TIP3    H261557   5.259   6.618   1.656
13356TIP3   OH261558   4.228   6.311   1.791
13356TIP3    H161559   4.179   6.230   1.780
13356TIP3    H261560   4.272   6.325   1.707
13357TIP3   OH261561   4.516   5.750   1.393
13357TIP3    H161562   4.496   5.841   1.370
13357TIP3    H261563   4.446   5.699   1.352
13358TIP3   OH261564   4.649   6.112   1.747
13358TIP3    H161565   4.620   6.114   1.838
13358TIP3    H261566   4.569   6.119   1.696
13359TIP3   OH261567   4.931   6.098   1.708
13359TIP3    H161568   4.840   6.075   1.725
13359TIP3    H261569   4.982   6.034   1.758
13360TIP3   OH261570   5.099   5.954   1.867
13360TIP3    H161571   5.097   5.859   1.854
13360TIP3    H261572   5.074   5.967   1.958
13361TIP3   OH261573   4.102   6.025   1.756
13361TIP3    H161574   4.064   5.951   1.711
13361TIP3    H261575   4.067   6.020   1.845
13362TIP3   OH261576   4.529   5.648   1.644
13362TIP3    H161577   4.588   5.572   1.641
13362TIP3    H261578   4.523   5.677   1.552
13363TIP3   OH261579   4.550   5.846   1.826
13363TIP3    H161580   4.551   5.767   1.772
13363TIP3    H261581   4.609   5.907   1.780
13364TIP3   OH261582   3.901   7.048   0.128
13364TIP3    H161583   3.995   7.032   0.139
13364TIP3    H261584   3.888   7.053   0.033
13365TIP3   OH261585   3.830   7.285   0.814
13365TIP3    H161586   3.820   7.222   0.885
13365TIP3    H261587   3.866   7.363   0.856
13366TIP3   OH261588   5.447   6.964   1.890
13366TIP3    H161589   5.365   6.966   1.939
13366TIP3    H261590   5.492   7.045   1.914
13367TIP3   OH261591   5.535   6.771   0.434
13367TIP3    H161592   5.609   6.831   0.430
13367TIP3    H261593   5.547   6.724   0.517
13368TIP3   OH261594   5.517   6.656   0.690
13368TIP3    H161595   5.477   6.570   0.682
13368TIP3    H261596   5.602   6.639   0.730
13369TIP3   OH261597   5.592   6.883   1.118
13369TIP3    H161598   5.640   6.806   1.085
13369TIP3    H261599   5.637   6.958   1.078
13370TIP3   OH261600   5.382   7.165   1.297
13370TIP3    H161601   5.303   7.205   1.334
13370TIP3    H261602   5.360   7.151   1.204
13371TIP3   OH261603   5.577   6.609   0.214
13371TIP3    H161604   5.522   6.647   0.145
13371TIP3    H261605   5.561   6.663   0.291
13372TIP3   OH261606   5.381   6.258   0.124
13372TIP3    H161607   5.437   6.266   0.046
13372TIP3    H261608   5.307   6.206   0.094
13373TIP3   OH261609   5.345   6.441   0.658
13373TIP3    H161610   5.348   6.355   0.616
13373TIP3    H261611   5.305   6.424   0.744
13374TIP3   OH261612   3.829   6.634   1.072
13374TIP3    H161613   3.840   6.622   0.977
13374TIP3    H261614   3.913   6.607   1.109
13375TIP3   OH261615   5.442   6.630   1.646
13375TIP3    H161616   5.499   6.554   1.632
13375TIP3    H261617   5.492   6.704   1.613
13376TIP3   OH261618   5.594   6.400   1.627
13376TIP3    H161619   5.507   6.359   1.625
13376TIP3    H261620   5.652   6.330   1.658
13377TIP3   OH261621   5.356   6.217   0.490
13377TIP3    H161622   5.382   6.125   0.496
13377TIP3    H261623   5.418   6.256   0.428
13378TIP3   OH261624   5.388   6.269   1.052
13378TIP3    H161625   5.482   6.279   1.038
13378TIP3    H261626   5.377   6.274   1.147
13379TIP3   OH261627   5.403   6.337   1.325
13379TIP3    H161628   5.321   6.365   1.365
13379TIP3    H261629   5.453   6.418   1.312
13380TIP3   OH261630   3.854   6.179   1.701
13380TIP3    H161631   3.940   6.138   1.687
13380TIP3    H261632   3.791   6.109   1.683
13381TIP3   OH261633   5.620   5.769   1.819
13381TIP3    H161634   5.682   5.697   1.810
13381TIP3    H261635   5.640   5.827   1.745
13382TIP3   OH261636   5.417   5.945   0.503
13382TIP3    H161637   5.384   5.926   0.591
13382TIP3    H261638   5.363   5.892   0.445
13383TIP3   OH261639   3.932   6.011   0.972
13383TIP3    H161640   3.970   5.923   0.970
13383TIP3    H261641   4.007   6.069   0.988
13384TIP3   OH261642   3.744   6.300   1.039
13384TIP3    H161643   3.812   6.289   0.972
13384TIP3    H261644   3.770   6.379   1.086
13385TIP3   OH261645   5.565   5.958   1.617
13385TIP3    H161646   5.487   5.985   1.666
13385TIP3    H261647   5.533   5.890   1.558
13386TIP3   OH261648   5.565   5.931   0.141
13386TIP3    H161649   5.595   5.936   0.050
13386TIP3    H261650   5.617   5.998   0.187
13387TIP3   OH261651   3.806   5.927   0.435
13387TIP3    H161652   3.712   5.930   0.451
13387TIP3    H261653   3.824   6.001   0.378
13388TIP3   OH261654   3.806   5.832   1.341
13388TIP3    H161655   3.733   5.790   1.387
13388TIP3    H261656   3.766   5.870   1.263
13389TIP3   OH261657   4.009   7.199   1.741
13389TIP3    H161658   3.930   7.202   1.688
13389TIP3    H261659   3.983   7.153   1.820
13390TIP3   OH261660   4.296   7.282   1.347
13390TIP3    H161661   4.210   7.275   1.306
13390TIP3    H261662   4.355   7.234   1.288
13391TIP3   OH261663   5.464   5.713   1.467
13391TIP3    H161664   5.385   5.716   1.413
13391TIP3    H261665   5.497   5.623   1.456
13392TIP3   OH261666   4.192   7.221   0.906
13392TIP3    H161667   4.171   7.136   0.944
13392TIP3    H261668   4.283   7.238   0.933
13393TIP3   OH261669   4.453   7.205   1.011
13393TIP3    H161670   4.465   7.116   0.977
13393TIP3    H261671   4.496   7.204   1.096
13394TIP3   OH261672   4.729   5.863   0.857
13394TIP3    H161673   4.670   5.803   0.904
13394TIP3    H261674   4.816   5.839   0.887
13395TIP3   OH261675   5.344   5.739   0.961
13395TIP3    H161676   5.430   5.765   0.928
13395TIP3    H261677   5.283   5.771   0.895
13396TIP3   OH261678   5.567   5.818   0.822
13396TIP3    H161679   5.600   5.754   0.758
13396TIP3    H261680   5.580   5.903   0.779
13397TIP3   OH261681   4.027   5.726   0.672
13397TIP3    H161682   3.935   5.706   0.652
13397TIP3    H261683   4.072   5.643   0.658
13398TIP3   OH261684   3.924   5.729   0.261
13398TIP3    H161685   3.996   5.780   0.224
13398TIP3    H261686   3.881   5.790   0.322
13399TIP3   OH261687   4.502   5.699   0.682
13399TIP3    H161688   4.576   5.745   0.642
13399TIP3    H261689   4.521   5.701   0.776
13400TIP3   OH261690   4.978   5.773   0.934
13400TIP3    H161691   5.040   5.793   0.864
13400TIP3    H261692   4.981   5.678   0.941
13401TIP3   OH261693   5.208   5.782   0.406
13401TIP3    H161694   5.185   5.811   0.494
13401TIP3    H261695   5.162   5.699   0.395
13402TIP3   OH261696   3.936   0.027   0.431
13402TIP3    H161697   3.948   0.011   0.337
13402TIP3    H261698   3.884   0.107   0.435
13403TIP3   OH261699   4.148   5.853   0.141
13403TIP3    H161700   4.194   5.780   0.100
13403TIP3    H261701   4.215   5.898   0.192
13404TIP3   OH261702   4.611   5.972   0.368
13404TIP3    H161703   4.642   5.902   0.426
13404TIP3    H261704   4.628   6.053   0.416
13405TIP3   OH261705   4.033   5.775   1.653
13405TIP3    H161706   3.973   5.703   1.675
13405TIP3    H261707   4.120   5.741   1.676
13406TIP3   OH261708   4.280   5.700   1.745
13406TIP3    H161709   4.357   5.657   1.708
13406TIP3    H261710   4.251   5.641   1.815
13407TIP3   OH261711   5.105   5.686   1.805
13407TIP3    H161712   5.093   5.633   1.884
13407TIP3    H261713   5.198   5.675   1.784
13408TIP3   OH261714   5.368   7.285   1.656
13408TIP3    H161715   5.298   7.267   1.592
13408TIP3    H261716   5.410   7.364   1.622
13409TIP3   OH261717   6.825   6.681   0.666
13409TIP3    H161718   6.821   6.775   0.650
13409TIP3    H261719   6.766   6.643   0.601
13410TIP3   OH261720   6.701   6.589   1.048
13410TIP3    H161721   6.735   6.545   1.126
13410TIP3    H261722   6.660   6.519   0.998
13411TIP3   OH261723   5.936   6.518   1.176
13411TIP3    H161724   5.950   6.451   1.243
13411TIP3    H261725   6.023   6.542   1.146
13412TIP3   OH261726   7.099   6.895   0.881
13412TIP3    H161727   7.051   6.818   0.911
13412TIP3    H261728   7.134   6.934   0.961
13413TIP3   OH261729   6.044   6.966   0.961
13413TIP3    H161730   6.016   6.880   0.929
13413TIP3    H261731   6.138   6.955   0.978
13414TIP3   OH261732   5.726   6.322   0.535
13414TIP3    H161733   5.674   6.278   0.603
13414TIP3    H261734   5.666   6.333   0.462
13415TIP3   OH261735   5.768   6.588   0.806
13415TIP3    H161736   5.795   6.496   0.816
13415TIP3    H261737   5.849   6.638   0.813
13416TIP3   OH261738   6.563   6.831   1.059
13416TIP3    H161739   6.601   6.748   1.032
13416TIP3    H261740   6.632   6.874   1.110
13417TIP3   OH261741   6.884   6.265   1.061
13417TIP3    H161742   6.887   6.171   1.082
13417TIP3    H261743   6.854   6.269   0.971
13418TIP3   OH261744   6.237   6.072   0.796
13418TIP3    H161745   6.241   6.157   0.752
13418TIP3    H261746   6.183   6.018   0.739
13419TIP3   OH261747   6.979   6.092   0.653
13419TIP3    H161748   7.002   6.047   0.734
13419TIP3    H261749   7.058   6.085   0.599
13420TIP3   OH261750   5.874   6.334   0.869
13420TIP3    H161751   5.937   6.292   0.928
13420TIP3    H261752   5.893   6.297   0.783
13421TIP3   OH261753   6.339   6.474   0.860
13421TIP3    H161754   6.426   6.439   0.883
13421TIP3    H261755   6.303   6.409   0.800
13422TIP3   OH261756   6.086   5.998   1.220
13422TIP3    H161757   6.061   6.053   1.146
13422TIP3    H261758   6.012   6.004   1.281
13423TIP3   OH261759   6.820   6.930   0.554
13423TIP3    H161760   6.804   6.938   0.460
13423TIP3    H261761   6.773   7.005   0.592
13424TIP3   OH261762   6.344   6.758   1.210
13424TIP3    H161763   6.293   6.833   1.241
13424TIP3    H261764   6.414   6.796   1.158
13425TIP3   OH261765   7.066   5.991   0.891
13425TIP3    H161766   6.995   5.983   0.956
13425TIP3    H261767   7.136   6.037   0.938
13426TIP3   OH261768   6.065   6.163   0.996
13426TIP3    H161769   6.122   6.218   1.049
13426TIP3    H261770   6.123   6.123   0.931
13427TIP3   OH261771   6.196   6.972   1.316
13427TIP3    H161772   6.201   7.067   1.304
13427TIP3    H261773   6.107   6.956   1.347
13428TIP3   OH261774   5.750   6.938   0.412
13428TIP3    H161775   5.722   6.999   0.343
13428TIP3    H261776   5.770   6.995   0.486
13429TIP3   OH261777   7.137   7.105   1.068
13429TIP3    H161778   7.051   7.108   1.110
13429TIP3    H261779   7.121   7.134   0.978
13430TIP3   OH261780   7.137   5.889   1.180
13430TIP3    H161781   7.045   5.910   1.164
13430TIP3    H261782   7.185   5.965   1.148
13431TIP3   OH261783   6.443   5.683   0.979
13431TIP3    H161784   6.422   5.590   0.982
13431TIP3    H261785   6.363   5.727   1.006
13432TIP3   OH261786   6.974   7.254   0.666
13432TIP3    H161787   7.019   7.169   0.664
13432TIP3    H261788   7.009   7.302   0.591
13433TIP3   OH261789   7.101   7.013   0.633
13433TIP3    H161790   7.044   6.956   0.582
13433TIP3    H261791   7.113   6.968   0.716
13434TIP3   OH261792   7.207   6.913   1.400
13434TIP3    H161793   7.189   6.856   1.325
13434TIP3    H261794   7.302   6.925   1.400
13435TIP3   OH261795   6.705   6.603   0.425
13435TIP3    H161796   6.643   6.670   0.395
13435TIP3    H261797   6.775   6.605   0.360
13436TIP3   OH261798   6.705   6.459   0.118
13436TIP3    H161799   6.765   6.464   0.193
13436TIP3    H261800   6.762   6.461   0.041
13437TIP3   OH261801   7.049   6.650   0.507
13437TIP3    H161802   6.978   6.668   0.570
13437TIP3    H261803   7.104   6.585   0.551
13438TIP3   OH261804   7.010   6.411   1.451
13438TIP3    H161805   6.998   6.476   1.521
13438TIP3    H261806   6.943   6.432   1.387
13439TIP3   OH261807   6.218   6.661   0.688
13439TIP3    H161808   6.197   6.619   0.605
13439TIP3    H261809   6.269   6.596   0.736
13440TIP3   OH261810   6.332   6.946   0.944
13440TIP3    H161811   6.340   6.966   0.851
13440TIP3    H261812   6.414   6.902   0.966
13441TIP3   OH261813   6.190   6.576   1.069
13441TIP3    H161814   6.246   6.548   0.996
13441TIP3    H261815   6.243   6.640   1.117
13442TIP3   OH261816   6.898   7.114   1.196
13442TIP3    H161817   6.893   7.140   1.288
13442TIP3    H261818   6.851   7.031   1.193
13443TIP3   OH261819   6.363   6.986   1.536
13443TIP3    H161820   6.300   7.044   1.580
13443TIP3    H261821   6.318   6.959   1.456
13444TIP3   OH261822   6.940   6.555   0.276
13444TIP3    H161823   6.981   6.591   0.354
13444TIP3    H261824   6.991   6.591   0.203
13445TIP3   OH261825   6.024   6.603   1.511
13445TIP3    H161826   6.022   6.686   1.560
13445TIP3    H261827   5.933   6.590   1.482
13446TIP3   OH261828   6.709   7.174   0.619
13446TIP3    H161829   6.794   7.210   0.648
13446TIP3    H261830   6.684   7.229   0.545
13447TIP3   OH261831   6.155   7.166   1.601
13447TIP3    H161832   6.167   7.206   1.515
13447TIP3    H261833   6.060   7.163   1.613
13448TIP3   OH261834   7.223   5.744   0.195
13448TIP3    H161835   7.155   5.732   0.261
13448TIP3    H261836   7.284   5.807   0.235
13449TIP3   OH261837   6.138   6.574   0.431
13449TIP3    H161838   6.073   6.640   0.405
13449TIP3    H261839   6.097   6.490   0.411
13450TIP3   OH261840   5.733   6.834   1.364
13450TIP3    H161841   5.684   6.846   1.283
13450TIP3    H261842   5.745   6.739   1.371
13451TIP3   OH261843   5.785   7.084   1.020
13451TIP3    H161844   5.865   7.037   0.997
13451TIP3    H261845   5.808   7.134   1.099
13452TIP3   OH261846   6.585   7.149   1.504
13452TIP3    H161847   6.599   7.175   1.596
13452TIP3    H261848   6.511   7.088   1.508
13453TIP3   OH261849   7.188   6.322   1.682
13453TIP3    H161850   7.163   6.359   1.597
13453TIP3    H261851   7.264   6.267   1.663
13454TIP3   OH261852   5.948   6.984   1.446
13454TIP3    H161853   5.973   6.937   1.525
13454TIP3    H261854   5.872   6.937   1.412
13455TIP3   OH261855   6.195   5.794   1.059
13455TIP3    H161856   6.119   5.781   1.003
13455TIP3    H261857   6.171   5.866   1.117
13456TIP3   OH261858   6.673   5.778   1.408
13456TIP3    H161859   6.721   5.727   1.474
13456TIP3    H261860   6.581   5.765   1.431
13457TIP3   OH261861   6.998   6.128   1.486
13457TIP3    H161862   6.931   6.118   1.554
13457TIP3    H261863   7.005   6.222   1.473
13458TIP3   OH261864   7.099   6.649   0.072
13458TIP3    H161865   7.115   6.662  -0.022
13458TIP3    H261866   7.170   6.696   0.115
13459TIP3   OH261867   6.704   5.990   0.166
13459TIP3    H161868   6.626   5.978   0.219
13459TIP3    H261869   6.678   5.961   0.078
13460TIP3   OH261870   6.215   6.317   1.172
13460TIP3    H161871   6.150   6.311   1.242
13460TIP3    H261872   6.212   6.408   1.144
13461TIP3   OH261873   6.216   6.317   0.671
13461TIP3    H161874   6.121   6.302   0.667
13461TIP3    H261875   6.247   6.297   0.582
13462TIP3   OH261876   6.753   6.352   0.532
13462TIP3    H161877   6.731   6.439   0.499
13462TIP3    H261878   6.824   6.321   0.476
13463TIP3   OH261879   6.680   6.359   1.657
13463TIP3    H161880   6.630   6.287   1.695
13463TIP3    H261881   6.768   6.350   1.695
13464TIP3   OH261882   6.828   6.280   0.796
13464TIP3    H161883   6.799   6.340   0.726
13464TIP3    H261884   6.877   6.212   0.750
13465TIP3   OH261885   6.002   6.308   1.348
13465TIP3    H161886   6.048   6.331   1.429
13465TIP3    H261887   5.955   6.228   1.369
13466TIP3   OH261888   6.382   6.095   0.004
13466TIP3    H161889   6.357   6.094   0.096
13466TIP3    H261890   6.345   6.176  -0.030
13467TIP3   OH261891   5.677   6.063   0.711
13467TIP3    H161892   5.729   6.048   0.789
13467TIP3    H261893   5.718   6.008   0.644
13468TIP3   OH261894   5.727   6.132   0.256
13468TIP3    H161895   5.803   6.164   0.207
13468TIP3    H261896   5.675   6.211   0.274
13469TIP3   OH261897   6.797   6.433   1.260
13469TIP3    H161898   6.836   6.377   1.193
13469TIP3    H261899   6.737   6.376   1.308
13470TIP3   OH261900   6.519   6.036   0.756
13470TIP3    H161901   6.428   6.040   0.786
13470TIP3    H261902   6.567   5.996   0.829
13471TIP3   OH261903   5.964   6.221   0.635
13471TIP3    H161904   5.888   6.245   0.581
13471TIP3    H261905   5.981   6.130   0.613
13472TIP3   OH261906   6.278   6.234   0.417
13472TIP3    H161907   6.373   6.231   0.428
13472TIP3    H261908   6.264   6.280   0.335
13473TIP3   OH261909   6.868   5.984   1.085
13473TIP3    H161910   6.831   5.994   1.173
13473TIP3    H261911   6.797   5.944   1.034
13474TIP3   OH261912   6.194   6.337   0.178
13474TIP3    H161913   6.106   6.316   0.147
13474TIP3    H261914   6.242   6.360   0.099
13475TIP3   OH261915   6.012   6.845   1.682
13475TIP3    H161916   6.082   6.829   1.744
13475TIP3    H261917   5.934   6.806   1.723
13476TIP3   OH261918   6.579   6.356   0.945
13476TIP3    H161919   6.644   6.307   0.896
13476TIP3    H261920   6.551   6.297   1.015
13477TIP3   OH261921   6.061   5.957   0.607
13477TIP3    H161922   6.009   5.881   0.633
13477TIP3    H261923   6.107   5.929   0.528
13478TIP3   OH261924   6.476   6.220   1.168
13478TIP3    H161925   6.389   6.260   1.178
13478TIP3    H261926   6.521   6.241   1.250
13479TIP3   OH261927   6.525   6.808   0.343
13479TIP3    H161928   6.460   6.756   0.295
13479TIP3    H261929   6.482   6.827   0.426
13480TIP3   OH261930   7.174   6.746   1.187
13480TIP3    H161931   7.254   6.714   1.147
13480TIP3    H261932   7.104   6.720   1.127
13481TIP3   OH261933   6.911   6.160   0.099
13481TIP3    H161934   6.841   6.098   0.120
13481TIP3    H261935   6.930   6.203   0.182
13482TIP3   OH261936   6.687   6.820   1.496
13482TIP3    H161937   6.721   6.766   1.567
13482TIP3    H261938   6.612   6.866   1.533
13483TIP3   OH261939   6.961   6.286   0.351
13483TIP3    H161940   7.046   6.265   0.390
13483TIP3    H261941   6.970   6.376   0.321
13484TIP3   OH261942   6.018   6.702   0.875
13484TIP3    H161943   6.081   6.698   0.803
13484TIP3    H261944   6.059   6.654   0.946
13485TIP3   OH261945   6.743   6.969   0.285
13485TIP3    H161946   6.705   7.056   0.295
13485TIP3    H261947   6.669   6.909   0.296
13486TIP3   OH261948   5.745   6.566   1.459
13486TIP3    H161949   5.716   6.512   1.532
13486TIP3    H261950   5.681   6.551   1.390
13487TIP3   OH261951   6.474   6.545   1.670
13487TIP3    H161952   6.416   6.509   1.602
13487TIP3    H261953   6.556   6.495   1.660
13488TIP3   OH261954   6.866   7.156   1.472
13488TIP3    H161955   6.772   7.142   1.466
13488TIP3    H261956   6.886   7.147   1.565
13489TIP3   OH261957   7.297   7.189   0.322
13489TIP3    H161958   7.250   7.123   0.373
13489TIP3    H261959   7.354   7.138   0.263
13490TIP3   OH261960   6.973   6.675   1.007
13490TIP3    H161961   6.879   6.662   0.999
13490TIP3    H261962   7.013   6.599   0.965
13491TIP3   OH261963   6.288   7.083   0.697
13491TIP3    H161964   6.323   7.156   0.646
13491TIP3    H261965   6.202   7.113   0.727
13492TIP3   OH261966   5.850   6.575   0.157
13492TIP3    H161967   5.889   6.629   0.226
13492TIP3    H261968   5.756   6.577   0.175
13493TIP3   OH261969   6.377   6.856   0.566
13493TIP3    H161970   6.352   6.938   0.608
13493TIP3    H261971   6.324   6.789   0.610
13494TIP3   OH261972   6.482   7.243   1.257
13494TIP3    H161973   6.539   7.318   1.241
13494TIP3    H261974   6.521   7.198   1.332
13495TIP3   OH261975   6.232  -0.007   0.534
13495TIP3    H161976   6.146   0.017   0.569
13495TIP3    H261977   6.294   0.034   0.595
13496TIP3   OH261978   6.781   6.866   1.236
13496TIP3    H161979   6.747   6.842   1.323
13496TIP3    H261980   6.844   6.798   1.215
13497TIP3   OH261981   7.005   7.015   0.190
13497TIP3    H161982   7.060   6.953   0.237
13497TIP3    H261983   6.916   6.996   0.219
13498TIP3   OH261984   7.125   7.283   1.455
13498TIP3    H161985   7.047   7.227   1.457
13498TIP3    H261986   7.093   7.369   1.429
13499TIP3   OH261987   5.870   6.066   1.394
13499TIP3    H161988   5.778   6.091   1.382
13499TIP3    H261989   5.867   5.994   1.456
13500TIP3   OH261990   7.158   6.841   0.339
13500TIP3    H161991   7.124   6.776   0.401
13500TIP3    H261992   7.250   6.852   0.365
13501TIP3   OH261993   5.880   7.221   1.240
13501TIP3    H161994   5.889   7.174   1.322
13501TIP3    H261995   5.828   7.298   1.262
13502TIP3   OH261996   6.324   7.083   0.238
13502TIP3    H161997   6.389   7.031   0.285
13502TIP3    H261998   6.349   7.174   0.255
13503TIP3   OH261999   5.954   6.765   0.331
13503TIP3    H162000   5.882   6.811   0.374
13503TIP3    H262001   6.006   6.835   0.290
13504TIP3   OH262002   6.779   6.020   1.340
13504TIP3    H162003   6.855   6.034   1.397
13504TIP3    H262004   6.742   5.938   1.370
13505TIP3   OH262005   6.844   5.937   0.458
13505TIP3    H162006   6.832   5.981   0.374
13505TIP3    H262007   6.882   6.003   0.515
13506TIP3   OH262008   6.638   7.224   0.312
13506TIP3    H162009   6.550   7.262   0.317
13506TIP3    H262010   6.682   7.276   0.245
13507TIP3   OH262011   6.535   6.184   0.519
13507TIP3    H162012   6.610   6.243   0.524
13507TIP3    H262013   6.531   6.144   0.606
13508TIP3   OH262014   6.637   6.256   1.394
13508TIP3    H162015   6.648   6.279   1.486
13508TIP3    H262016   6.678   6.170   1.385
13509TIP3   OH262017   6.612   5.841   0.575
13509TIP3    H162018   6.592   5.912   0.636
13509TIP3    H262019   6.699   5.864   0.540
13510TIP3   OH262020   6.390   0.006   0.313
13510TIP3    H162021   6.410   0.099   0.311
13510TIP3    H262022   6.326  -0.004   0.384
13511TIP3   OH262023   6.231   5.997   0.260
13511TIP3    H162024   6.219   6.075   0.314
13511TIP3    H262025   6.318   5.964   0.283
13512TIP3   OH262026   7.221   5.956   1.503
13512TIP3    H162027   7.134   5.996   1.499
13512TIP3    H262028   7.282   6.026   1.480
13513TIP3   OH262029   7.085   6.435   0.919
13513TIP3    H162030   7.013   6.374   0.936
13513TIP3    H262031   7.156   6.405   0.975
13514TIP3   OH262032   6.071   6.980   0.194
13514TIP3    H162033   6.140   7.036   0.229
13514TIP3    H262034   6.116   6.924   0.130
13515TIP3   OH262035   5.922   6.307   0.096
13515TIP3    H162036   5.895   6.398   0.109
13515TIP3    H262037   5.911   6.291   0.002
13516TIP3   OH262038   5.946   5.766   0.940
13516TIP3    H162039   5.938   5.753   0.845
13516TIP3    H262040   5.912   5.685   0.978
13517TIP3   OH262041   5.785   7.136   0.598
13517TIP3    H162042   5.755   7.175   0.680
13517TIP3    H262043   5.789   7.210   0.537
13518TIP3   OH262044   6.199   7.175   1.876
13518TIP3    H162045   6.287   7.143   1.892
13518TIP3    H262046   6.188   7.169   1.781
13519TIP3   OH262047   6.746   0.030   0.100
13519TIP3    H162048   6.707  -0.023   0.030
13519TIP3    H262049   6.839   0.032   0.079
13520TIP3   OH262050   6.893   7.139   1.745
13520TIP3    H162051   6.852   7.057   1.774
13520TIP3    H262052   6.975   7.144   1.795
13521TIP3   OH262053   7.102   7.160  -0.022
13521TIP3    H162054   7.068   7.113   0.053
13521TIP3    H262055   7.157   7.229   0.016
13522TIP3   OH262056   5.750   6.847   1.805
13522TIP3    H162057   5.770   6.754   1.804
13522TIP3    H262058   5.676   6.857   1.744
13523TIP3   OH262059   6.212   6.804   0.039
13523TIP3    H162060   6.255   6.761   0.113
13523TIP3    H262061   6.243   6.758  -0.038
13524TIP3   OH262062   6.426   6.809   1.741
13524TIP3    H162063   6.408   6.853   1.658
13524TIP3    H262064   6.454   6.721   1.716
13525TIP3   OH262065   6.979   6.833   1.526
13525TIP3    H162066   7.060   6.868   1.489
13525TIP3    H262067   6.909   6.886   1.487
13526TIP3   OH262068   5.868   6.602   1.773
13526TIP3    H162069   5.921   6.537   1.727
13526TIP3    H262070   5.866   6.571   1.864
13527TIP3   OH262071   6.327   6.648   0.232
13527TIP3    H162072   6.274   6.610   0.302
13527TIP3    H262073   6.361   6.573   0.184
13528TIP3   OH262074   6.233   6.425   1.483
13528TIP3    H162075   6.168   6.494   1.494
13528TIP3    H262076   6.301   6.464   1.428
13529TIP3   OH262077   6.438   6.459   0.061
13529TIP3    H162078   6.440   6.415  -0.024
13529TIP3    H262079   6.529   6.460   0.090
13530TIP3   OH262080   6.764   6.674   1.759
13530TIP3    H162081   6.849   6.642   1.726
13530TIP3    H262082   6.739   6.610   1.825
13531TIP3   OH262083   6.305   6.175   1.574
13531TIP3    H162084   6.316   6.116   1.500
13531TIP3    H262085   6.286   6.260   1.534
13532TIP3   OH262086   6.334   6.023   1.337
13532TIP3    H162087   6.390   6.062   1.269
13532TIP3    H262088   6.248   6.015   1.296
13533TIP3   OH262089   6.440   6.543   1.354
13533TIP3    H162090   6.534   6.536   1.339
13533TIP3    H262091   6.413   6.620   1.304
13534TIP3   OH262092   6.922   6.309   1.803
13534TIP3    H162093   6.925   6.214   1.818
13534TIP3    H262094   7.010   6.330   1.770
13535TIP3   OH262095   7.017   6.603   1.659
13535TIP3    H162096   7.001   6.685   1.612
13535TIP3    H262097   7.112   6.600   1.669
13536TIP3   OH262098   6.142   6.234   1.796
13536TIP3    H162099   6.065   6.177   1.790
13536TIP3    H262100   6.191   6.218   1.716
13537TIP3   OH262101   6.394   5.759   1.412
13537TIP3    H162102   6.373   5.849   1.390
13537TIP3    H262103   6.327   5.707   1.368
13538TIP3   OH262104   6.529   6.145   1.738
13538TIP3    H162105   6.498   6.113   1.823
13538TIP3    H262106   6.451   6.147   1.683
13539TIP3   OH262107   6.789   6.074   1.654
13539TIP3    H162108   6.698   6.079   1.684
13539TIP3    H262109   6.835   6.025   1.722
13540TIP3   OH262110   6.953   5.975   1.851
13540TIP3    H162111   6.955   5.880   1.842
13540TIP3    H262112   6.933   5.991   1.943
13541TIP3   OH262113   5.950   6.028   1.771
13541TIP3    H162114   5.950   5.951   1.714
13541TIP3    H262115   5.961   5.993   1.859
13542TIP3   OH262116   6.384   5.668   1.671
13542TIP3    H162117   6.441   5.592   1.666
13542TIP3    H262118   6.381   5.703   1.582
13543TIP3   OH262119   6.467   5.830   1.879
13543TIP3    H162120   6.443   5.774   1.805
13543TIP3    H262121   6.404   5.902   1.876
13544TIP3   OH262122   5.835   7.004   0.045
13544TIP3    H162123   5.906   7.017   0.108
13544TIP3    H262124   5.855   6.921   0.002
13545TIP3   OH262125   5.716   7.283   0.829
13545TIP3    H162126   5.721   7.210   0.892
13545TIP3    H262127   5.747   7.359   0.877
13546TIP3   OH262128   7.214   6.894   1.912
13546TIP3    H162129   7.140   6.911   1.971
13546TIP3    H262130   7.242   6.981   1.883
13547TIP3   OH262131   7.310   7.170   1.268
13547TIP3    H162132   7.255   7.171   1.346
13547TIP3    H262133   7.255   7.134   1.199
13548TIP3   OH262134   7.281   6.277   0.040
13548TIP3    H162135   7.275   6.302  -0.052
13548TIP3    H262136   7.209   6.215   0.053
13549TIP3   OH262137   7.158   6.449   0.650
13549TIP3    H162138   7.161   6.356   0.630
13549TIP3    H262139   7.137   6.453   0.744
13550TIP3   OH262140   5.719   6.645   1.072
13550TIP3    H162141   5.724   6.622   0.979
13550TIP3    H262142   5.798   6.606   1.110
13551TIP3   OH262143   7.286   6.630   1.679
13551TIP3    H162144   7.350   6.567   1.709
13551TIP3    H262145   7.323   6.666   1.598
13552TIP3   OH262146   7.211   6.214   0.462
13552TIP3    H162147   7.216   6.124   0.494
13552TIP3    H262148   7.277   6.219   0.392
13553TIP3   OH262149   7.256   6.110   1.054
13553TIP3    H162150   7.343   6.078   1.031
13553TIP3    H262151   7.269   6.204   1.070
13554TIP3   OH262152   7.283   6.395   1.363
13554TIP3    H162153   7.188   6.401   1.373
13554TIP3    H262154   7.297   6.374   1.271
13555TIP3   OH262155   5.726   6.176   1.715
13555TIP3    H162156   5.809   6.132   1.737
13555TIP3    H262157   5.669   6.105   1.686
13556TIP3   OH262158   7.212   5.957   0.549
13556TIP3    H162159   7.263   5.936   0.627
13556TIP3    H262160   7.168   5.876   0.525
13557TIP3   OH262161   5.822   6.016   0.947
13557TIP3    H162162   5.852   5.926   0.955
13557TIP3    H262163   5.899   6.069   0.967
13558TIP3   OH262164   5.660   6.313   1.052
13558TIP3    H162165   5.721   6.311   0.977
13558TIP3    H262166   5.716   6.332   1.127
13559TIP3   OH262167   5.697   5.932   0.449
13559TIP3    H162168   5.602   5.930   0.466
13559TIP3    H262169   5.708   6.004   0.387
13560TIP3   OH262170   5.683   5.774   1.295
13560TIP3    H162171   5.609   5.757   1.354
13560TIP3    H262172   5.649   5.836   1.231
13561TIP3   OH262173   5.878   7.134   1.732
13561TIP3    H162174   5.796   7.132   1.682
13561TIP3    H262175   5.907   7.043   1.735
13562TIP3   OH262176   6.213   7.258   1.334
13562TIP3    H162177   6.157   7.292   1.264
13562TIP3    H262178   6.301   7.259   1.297
13563TIP3   OH262179   6.090   7.223   0.874
13563TIP3    H162180   6.059   7.138   0.905
13563TIP3    H262181   6.171   7.238   0.922
13564TIP3   OH262182   6.330   7.205   1.030
13564TIP3    H162183   6.335   7.113   1.001
13564TIP3    H262184   6.387   7.209   1.107
13565TIP3   OH262185   6.659   5.868   0.929
13565TIP3    H162186   6.592   5.802   0.949
13565TIP3    H262187   6.728   5.819   0.885
13566TIP3   OH262188   7.209   5.743   0.877
13566TIP3    H162189   7.283   5.791   0.840
13566TIP3    H262190   7.142   5.809   0.893
13567TIP3   OH262191   5.923   5.725   0.667
13567TIP3    H162192   5.832   5.705   0.648
13567TIP3    H262193   5.969   5.641   0.656
13568TIP3   OH262194   5.805   5.737   0.270
13568TIP3    H162195   5.866   5.794   0.223
13568TIP3    H262196   5.764   5.795   0.334
13569TIP3   OH262197   6.403   5.696   0.694
13569TIP3    H162198   6.475   5.745   0.653
13569TIP3    H262199   6.424   5.697   0.787
13570TIP3   OH262200   6.860   5.721   0.819
13570TIP3    H162201   6.928   5.709   0.753
13570TIP3    H262202   6.855   5.637   0.864
13571TIP3   OH262203   7.058   5.749   0.452
13571TIP3    H162204   6.979   5.802   0.444
13571TIP3    H262205   7.026   5.659   0.450
13572TIP3   OH262206   5.814   0.017   0.442
13572TIP3    H162207   5.830   0.003   0.349
13572TIP3    H262208   5.762   0.097   0.445
13573TIP3   OH262209   6.027   5.858   0.123
13573TIP3    H162210   6.046   5.765   0.119
13573TIP3    H262211   6.095   5.894   0.179
13574TIP3   OH262212   6.492   5.970   0.350
13574TIP3    H162213   6.519   5.899   0.408
13574TIP3    H262214   6.508   6.049   0.402
13575TIP3   OH262215   5.939   5.784   1.628
13575TIP3    H162216   5.880   5.717   1.661
13575TIP3    H262217   6.022   5.768   1.673
13576TIP3   OH262218   6.139   5.716   1.806
13576TIP3    H162219   6.224   5.689   1.770
13576TIP3    H262220   6.106   5.637   1.850
13577TIP3   OH262221   6.980   5.701   1.812
13577TIP3    H162222   6.971   5.648   1.892
13577TIP3    H262223   7.073   5.693   1.788
13578TIP3   OH262224   7.341   7.319   1.637
13578TIP3    H162225   7.277   7.298   1.569
13578TIP3    H262226   7.291   7.363   1.705
13579TIP3   OH262227   1.199   1.035   2.527
13579TIP3    H162228   1.186   1.129   2.516
13579TIP3    H262229   1.127   0.995   2.478
13580TIP3   OH262230   1.076   0.941   2.937
13580TIP3    H162231   1.102   0.898   3.019
13580TIP3    H262232   1.028   0.874   2.889
13581TIP3   OH262233   0.310   0.877   3.070
13581TIP3    H162234   0.315   0.793   3.115
13581TIP3    H262235   0.397   0.888   3.030
13582TIP3   OH262236   1.462   1.250   2.763
13582TIP3    H162237   1.421   1.175   2.807
13582TIP3    H262238   1.478   1.313   2.832
13583TIP3   OH262239   0.386   1.362   2.859
13583TIP3    H162240   0.314   1.322   2.809
13583TIP3    H262241   0.441   1.289   2.884
13584TIP3   OH262242   0.080   0.735   2.415
13584TIP3    H162243   0.141   0.796   2.457
13584TIP3    H262244  -0.006   0.759   2.450
13585TIP3   OH262245   0.228   0.902   2.577
13585TIP3    H162246   0.227   0.853   2.659
13585TIP3    H262247   0.207   0.992   2.603
13586TIP3   OH262248   1.192   1.719   2.802
13586TIP3    H162249   1.225   1.667   2.729
13586TIP3    H262250   1.165   1.655   2.868
13587TIP3   OH262251   0.917   1.182   2.953
13587TIP3    H162252   0.959   1.102   2.921
13587TIP3    H262253   0.982   1.222   3.011
13588TIP3   OH262254   1.831   0.324   3.046
13588TIP3    H162255   1.838   0.390   3.115
13588TIP3    H262256   1.882   0.360   2.974
13589TIP3   OH262257   1.226   0.627   2.953
13589TIP3    H162258   1.237   0.533   2.971
13589TIP3    H262259   1.208   0.631   2.859
13590TIP3   OH262260   0.565   0.430   2.682
13590TIP3    H162261   0.577   0.514   2.637
13590TIP3    H262262   0.519   0.375   2.618
13591TIP3   OH262263   1.364   0.435   2.538
13591TIP3    H162264   1.404   0.414   2.622
13591TIP3    H262265   1.433   0.478   2.488
13592TIP3   OH262266   0.214   0.673   2.775
13592TIP3    H162267   0.282   0.632   2.829
13592TIP3    H262268   0.231   0.642   2.686
13593TIP3   OH262269   0.684   0.818   2.739
13593TIP3    H162270   0.771   0.786   2.766
13593TIP3    H262271   0.653   0.753   2.676
13594TIP3   OH262272   1.836   0.502   3.261
13594TIP3    H162273   1.756   0.551   3.241
13594TIP3    H262274   1.843   0.505   3.357
13595TIP3   OH262275   0.420   0.335   3.130
13595TIP3    H162276   0.394   0.393   3.059
13595TIP3    H262277   0.348   0.340   3.193
13596TIP3   OH262278   1.163   1.291   2.427
13596TIP3    H162279   1.143   1.283   2.333
13596TIP3    H262280   1.117   1.370   2.454
13597TIP3   OH262281   0.701   1.104   3.112
13597TIP3    H162282   0.643   1.177   3.137
13597TIP3    H262283   0.764   1.143   3.052
13598TIP3   OH262284   1.449   0.391   2.793
13598TIP3    H162285   1.378   0.374   2.856
13598TIP3    H262286   1.506   0.453   2.838
13599TIP3   OH262287   0.409   0.499   2.898
13599TIP3    H162288   0.466   0.546   2.958
13599TIP3    H262289   0.467   0.468   2.828
13600TIP3   OH262290   0.541   1.315   3.208
13600TIP3    H162291   0.552   1.408   3.188
13600TIP3    H262292   0.451   1.309   3.242
13601TIP3   OH262293   0.120   1.263   2.397
13601TIP3    H162294   0.153   1.353   2.404
13601TIP3    H262295   0.123   1.229   2.486
13602TIP3   OH262296   1.490   1.458   2.957
13602TIP3    H162297   1.396   1.463   2.971
13602TIP3    H262298   1.516   1.547   2.933
13603TIP3   OH262299   1.576   0.258   3.147
13603TIP3    H162300   1.507   0.282   3.085
13603TIP3    H262301   1.658   0.275   3.100
13604TIP3   OH262302   0.822   0.104   2.874
13604TIP3    H162303   0.849   0.039   2.939
13604TIP3    H262304   0.736   0.133   2.904
13605TIP3   OH262305   1.310   1.608   2.577
13605TIP3    H162306   1.353   1.524   2.561
13605TIP3    H262307   1.381   1.671   2.578
13606TIP3   OH262308   1.419   1.367   2.516
13606TIP3    H162309   1.342   1.322   2.483
13606TIP3    H262310   1.443   1.318   2.595
13607TIP3   OH262311   1.597   1.237   3.303
13607TIP3    H162312   1.585   1.179   3.228
13607TIP3    H262313   1.610   1.324   3.265
13608TIP3   OH262314   1.043   0.934   2.317
13608TIP3    H162315   0.975   0.994   2.287
13608TIP3    H262316   1.111   0.940   2.250
13609TIP3   OH262317   1.068   0.821   1.960
13609TIP3    H162318   1.121   0.847   2.036
13609TIP3    H262319   1.117   0.749   1.920
13610TIP3   OH262320   1.762   0.904   3.151
13610TIP3    H162321   1.688   0.963   3.139
13610TIP3    H262322   1.820   0.923   3.077
13611TIP3   OH262323   1.415   0.961   2.378
13611TIP3    H162324   1.348   0.987   2.440
13611TIP3    H262325   1.480   0.914   2.431
13612TIP3   OH262326   1.371   0.766   3.345
13612TIP3    H162327   1.366   0.837   3.408
13612TIP3    H262328   1.305   0.788   3.279
13613TIP3   OH262329   0.599   1.023   2.569
13613TIP3    H162330   0.559   0.973   2.498
13613TIP3    H262331   0.635   0.956   2.628
13614TIP3   OH262332   0.758   1.392   2.839
13614TIP3    H162333   0.741   1.376   2.746
13614TIP3    H262334   0.810   1.317   2.867
13615TIP3   OH262335   0.581   0.878   3.000
13615TIP3    H162336   0.605   0.877   2.907
13615TIP3    H262337   0.618   0.960   3.033
13616TIP3   OH262338   1.227   1.475   3.027
13616TIP3    H162339   1.213   1.545   3.090
13616TIP3    H262340   1.184   1.399   3.066
13617TIP3   OH262341   0.699   1.338   3.435
13617TIP3    H162342   0.634   1.395   3.476
13617TIP3    H262343   0.657   1.310   3.353
13618TIP3   OH262344   1.270   0.897   2.151
13618TIP3    H162345   1.324   0.931   2.221
13618TIP3    H262346   1.323   0.908   2.072
13619TIP3   OH262347   0.399   0.987   3.320
13619TIP3    H162348   0.386   1.076   3.353
13619TIP3    H262349   0.350   0.984   3.238
13620TIP3   OH262350   1.059   1.541   2.485
13620TIP3    H162351   1.140   1.569   2.527
13620TIP3    H262352   1.023   1.621   2.446
13621TIP3   OH262353   0.491   1.516   3.490
13621TIP3    H162354   0.508   1.549   3.402
13621TIP3    H262355   0.396   1.503   3.493
13622TIP3   OH262356   1.562   0.066   2.041
13622TIP3    H162357   1.530   0.074   2.131
13622TIP3    H262358   1.635   0.128   2.036
13623TIP3   OH262359   0.446   0.929   2.332
13623TIP3    H162360   0.396   1.001   2.292
13623TIP3    H262361   0.387   0.893   2.398
13624TIP3   OH262362   1.782   1.480   2.020
13624TIP3    H162363   1.793   1.575   2.019
13624TIP3    H262364   1.871   1.446   2.011
13625TIP3   OH262365   0.153   1.109   3.230
13625TIP3    H162366   0.117   1.101   3.142
13625TIP3    H262367   0.131   1.026   3.272
13626TIP3   OH262368   0.077   1.466   2.847
13626TIP3    H162369   0.084   1.379   2.810
13626TIP3    H262370   0.130   1.463   2.927
13627TIP3   OH262371   1.856   1.455   3.579
13627TIP3    H162372   1.831   1.369   3.544
13627TIP3    H262373   1.822   1.455   3.668
13628TIP3   OH262374   0.937   1.467   3.384
13628TIP3    H162375   0.930   1.551   3.429
13628TIP3    H262376   0.853   1.424   3.401
13629TIP3   OH262377   1.028   1.803   2.361
13629TIP3    H162378   1.003   1.810   2.269
13629TIP3    H262379   0.996   1.883   2.401
13630TIP3   OH262380   0.377   1.704   2.553
13630TIP3    H162381   0.401   1.671   2.640
13630TIP3    H262382   0.329   1.633   2.512
13631TIP3   OH262383   1.313   1.776   2.041
13631TIP3    H162384   1.360   1.702   2.003
13631TIP3    H262385   1.324   1.766   2.135
13632TIP3   OH262386   1.296   1.753   2.317
13632TIP3    H162387   1.203   1.764   2.337
13632TIP3    H262388   1.328   1.693   2.384
13633TIP3   OH262389   1.558   0.644   3.539
13633TIP3    H162390   1.488   0.676   3.482
13633TIP3    H262391   1.565   0.551   3.517
13634TIP3   OH262392   0.290   1.328   3.324
13634TIP3    H162393   0.246   1.369   3.398
13634TIP3    H262394   0.229   1.262   3.293
13635TIP3   OH262395   0.567   0.173   2.960
13635TIP3    H162396   0.497   0.151   2.898
13635TIP3    H262397   0.522   0.218   3.031
13636TIP3   OH262398   1.023   0.118   3.318
13636TIP3    H162399   1.058   0.038   3.357
13636TIP3    H262400   0.928   0.109   3.325
13637TIP3   OH262401   1.312   0.495   3.363
13637TIP3    H162402   1.251   0.480   3.436
13637TIP3    H262403   1.318   0.590   3.357
13638TIP3   OH262404   1.414   0.903   1.917
13638TIP3    H162405   1.397   0.930   1.827
13638TIP3    H262406   1.503   0.935   1.935
13639TIP3   OH262407   0.970   0.377   2.038
13639TIP3    H162408   0.918   0.347   2.113
13639TIP3    H262409   0.951   0.314   1.969
13640TIP3   OH262410   0.553   0.627   3.095
13640TIP3    H162411   0.494   0.636   3.170
13640TIP3    H262412   0.568   0.717   3.065
13641TIP3   OH262413   0.559   0.665   2.539
13641TIP3    H162414   0.464   0.657   2.539
13641TIP3    H262415   0.584   0.649   2.448
13642TIP3   OH262416   1.096   0.688   2.428
13642TIP3    H162417   1.072   0.776   2.398
13642TIP3    H262418   1.169   0.662   2.371
13643TIP3   OH262419   1.032   0.716   3.555
13643TIP3    H162420   0.975   0.645   3.585
13643TIP3    H262421   1.115   0.700   3.599
13644TIP3   OH262422   1.204   0.625   2.678
13644TIP3    H162423   1.156   0.666   2.606
13644TIP3    H262424   1.247   0.549   2.637
13645TIP3   OH262425   0.326   0.646   3.277
13645TIP3    H162426   0.370   0.644   3.363
13645TIP3    H262427   0.278   0.564   3.273
13646TIP3   OH262428   0.630   0.355   1.907
13646TIP3    H162429   0.616   0.332   1.999
13646TIP3    H262430   0.620   0.450   1.904
13647TIP3   OH262431   0.059   0.389   2.595
13647TIP3    H162432   0.091   0.389   2.685
13647TIP3    H262433   0.124   0.338   2.546
13648TIP3   OH262434   0.122   0.490   2.177
13648TIP3    H162435   0.206   0.503   2.134
13648TIP3    H262436   0.059   0.537   2.122
13649TIP3   OH262437   1.153   0.784   3.161
13649TIP3    H162438   1.187   0.730   3.089
13649TIP3    H262439   1.089   0.727   3.204
13650TIP3   OH262440   0.854   0.431   2.655
13650TIP3    H162441   0.765   0.412   2.686
13650TIP3    H262442   0.911   0.388   2.719
13651TIP3   OH262443   0.297   0.582   2.523
13651TIP3    H162444   0.220   0.604   2.470
13651TIP3    H262445   0.318   0.492   2.499
13652TIP3   OH262446   0.624   0.581   2.276
13652TIP3    H162447   0.714   0.576   2.307
13652TIP3    H262448   0.631   0.611   2.186
13653TIP3   OH262449   1.237   0.352   2.969
13653TIP3    H162450   1.199   0.346   3.057
13653TIP3    H262451   1.166   0.323   2.911
13654TIP3   OH262452   0.588   0.624   1.994
13654TIP3    H162453   0.500   0.658   1.978
13654TIP3    H262454   0.646   0.695   1.966
13655TIP3   OH262455   1.583   1.931   3.627
13655TIP3    H162456   1.602   1.958   3.537
13655TIP3    H262457   1.664   1.950   3.675
13656TIP3   OH262458   0.395   1.088   3.598
13656TIP3    H162459   0.453   1.120   3.667
13656TIP3    H262460   0.310   1.130   3.616
13657TIP3   OH262461   0.928   0.714   2.835
13657TIP3    H162462   0.982   0.653   2.784
13657TIP3    H262463   0.897   0.662   2.910
13658TIP3   OH262464   0.400   0.322   2.474
13658TIP3    H162465   0.375   0.236   2.505
13658TIP3    H262466   0.441   0.306   2.389
13659TIP3   OH262467   0.827   0.574   3.053
13659TIP3    H162468   0.736   0.593   3.076
13659TIP3    H262469   0.876   0.586   3.134
13660TIP3   OH262470   0.849   1.112   2.229
13660TIP3    H162471   0.775   1.085   2.174
13660TIP3    H262472   0.808   1.156   2.304
13661TIP3   OH262473   1.570   1.088   3.074
13661TIP3    H162474   1.629   1.143   3.023
13661TIP3    H262475   1.499   1.067   3.014
13662TIP3   OH262476   1.230   0.405   2.119
13662TIP3    H162477   1.138   0.409   2.094
13662TIP3    H262478   1.247   0.489   2.160
13663TIP3   OH262479   1.021   1.181   3.391
13663TIP3    H162480   1.049   1.143   3.474
13663TIP3    H262481   0.989   1.268   3.414
13664TIP3   OH262482   1.309   0.634   2.256
13664TIP3    H162483   1.397   0.617   2.289
13664TIP3    H262484   1.313   0.721   2.217
13665TIP3   OH262485   0.455   1.090   2.806
13665TIP3    H162486   0.506   1.078   2.725
13665TIP3    H262487   0.367   1.110   2.775
13666TIP3   OH262488   1.061   1.274   2.163
13666TIP3    H162489   1.027   1.363   2.169
13666TIP3    H262490   0.985   1.219   2.185
13667TIP3   OH262491   0.113   0.854   3.347
13667TIP3    H162492   0.186   0.795   3.332
13667TIP3    H262493   0.038   0.810   3.306
13668TIP3   OH262494   0.832   0.911   3.564
13668TIP3    H162495   0.820   0.924   3.470
13668TIP3    H262496   0.909   0.854   3.570
13669TIP3   OH262497   1.217   1.456   3.384
13669TIP3    H162498   1.123   1.457   3.363
13669TIP3    H262499   1.220   1.467   3.479
13670TIP3   OH262500   1.751   0.665   2.188
13670TIP3    H162501   1.708   0.644   2.105
13670TIP3    H262502   1.779   0.756   2.178
13671TIP3   OH262503   1.812   1.206   3.464
13671TIP3    H162504   1.729   1.223   3.421
13671TIP3    H262505   1.875   1.196   3.392
13672TIP3   OH262506   1.638   1.515   2.265
13672TIP3    H162507   1.587   1.441   2.299
13672TIP3    H262508   1.675   1.482   2.183
13673TIP3   OH262509   1.362   1.018   2.895
13673TIP3    H162510   1.267   1.007   2.897
13673TIP3    H262511   1.394   0.940   2.848
13674TIP3   OH262512   0.639   1.448   2.581
13674TIP3    H162513   0.656   1.535   2.543
13674TIP3    H262514   0.560   1.460   2.633
13675TIP3   OH262515   0.142   0.977   2.024
13675TIP3    H162516   0.199   1.021   2.088
13675TIP3    H262517   0.063   0.955   2.073
13676TIP3   OH262518   0.700   1.236   2.420
13676TIP3    H162519   0.689   1.314   2.475
13676TIP3    H262520   0.668   1.164   2.474
13677TIP3   OH262521   0.833   1.618   3.163
13677TIP3    H162522   0.893   1.689   3.140
13677TIP3    H262523   0.885   1.560   3.219
13678TIP3   OH262524   0.639   1.707   2.471
13678TIP3    H162525   0.546   1.721   2.491
13678TIP3    H262526   0.683   1.783   2.509
13679TIP3   OH262527   1.122   1.234   3.138
13679TIP3    H162528   1.085   1.216   3.224
13679TIP3    H262529   1.191   1.169   3.127
13680TIP3   OH262530   1.411   1.329   2.038
13680TIP3    H162531   1.439   1.277   2.114
13680TIP3    H262532   1.322   1.298   2.019
13681TIP3   OH262533   1.422   1.636   3.346
13681TIP3    H162534   1.346   1.578   3.348
13681TIP3    H262535   1.400   1.702   3.280
13682TIP3   OH262536   1.820   1.753   2.033
13682TIP3    H162537   1.857   1.819   1.975
13682TIP3    H262538   1.747   1.798   2.076
13683TIP3   OH262539   0.213   0.389   3.311
13683TIP3    H162540   0.118   0.399   3.321
13683TIP3    H262541   0.236   0.317   3.369
13684TIP3   OH262542   1.524   1.174   2.234
13684TIP3    H162543   1.480   1.109   2.290
13684TIP3    H262544   1.617   1.164   2.255
13685TIP3   OH262545   0.208   1.617   3.112
13685TIP3    H162546   0.217   1.540   3.168
13685TIP3    H262547   0.217   1.691   3.172
13686TIP3   OH262548   0.779   1.417   1.907
13686TIP3    H162549   0.785   1.333   1.863
13686TIP3    H262550   0.749   1.397   1.995
13687TIP3   OH262551   0.662   1.385   2.162
13687TIP3    H162552   0.680   1.339   2.245
13687TIP3    H262553   0.675   1.477   2.183
13688TIP3   OH262554   0.280   1.122   2.213
13688TIP3    H162555   0.227   1.166   2.280
13688TIP3    H262556   0.329   1.193   2.171
13689TIP3   OH262557   1.121   0.355   3.219
13689TIP3    H162558   1.192   0.381   3.277
13689TIP3    H262559   1.087   0.273   3.257
13690TIP3   OH262560   1.234   0.263   2.361
13690TIP3    H162561   1.239   0.298   2.273
13690TIP3    H262562   1.277   0.329   2.416
13691TIP3   OH262563   0.960   1.525   2.173
13691TIP3    H162564   0.873   1.557   2.197
13691TIP3    H262565   1.010   1.604   2.153
13692TIP3   OH262566   0.867   0.536   2.402
13692TIP3    H162567   0.945   0.591   2.405
13692TIP3    H262568   0.857   0.503   2.491
13693TIP3   OH262569   0.986   0.599   3.283
13693TIP3    H162570   0.995   0.620   3.376
13693TIP3    H262571   1.024   0.512   3.273
13694TIP3   OH262572   0.987   0.209   2.475
13694TIP3    H162573   0.992   0.274   2.545
13694TIP3    H262574   1.074   0.209   2.435
13695TIP3   OH262575   0.717   1.649   2.216
13695TIP3    H162576   0.722   1.734   2.172
13695TIP3    H262577   0.689   1.670   2.305
13696TIP3   OH262578   0.564   0.327   2.180
13696TIP3    H162579   0.559   0.417   2.210
13696TIP3    H262580   0.649   0.296   2.211
13697TIP3   OH262581   1.564   0.400   3.391
13697TIP3    H162582   1.471   0.422   3.383
13697TIP3    H262583   1.583   0.351   3.311
13698TIP3   OH262584   1.440   0.769   2.773
13698TIP3    H162585   1.356   0.727   2.755
13698TIP3    H262586   1.484   0.710   2.834
13699TIP3   OH262587   0.413   1.314   2.062
13699TIP3    H162588   0.489   1.354   2.104
13699TIP3    H262589   0.449   1.262   1.990
13700TIP3   OH262590   0.277   0.675   2.002
13700TIP3    H162591   0.271   0.737   2.075
13700TIP3    H262592   0.186   0.655   1.981
13701TIP3   OH262593   1.584   1.724   2.950
13701TIP3    H162594   1.565   1.794   2.888
13701TIP3    H262595   1.678   1.732   2.968
13702TIP3   OH262596   0.261   0.098   2.908
13702TIP3    H162597   0.309   0.025   2.870
13702TIP3    H262598   0.234   0.066   2.994
13703TIP3   OH262599   0.194   1.535   2.417
13703TIP3    H162600   0.132   1.577   2.477
13703TIP3    H262601   0.192   1.589   2.338
13704TIP3   OH262602   0.174   1.833   3.581
13704TIP3    H162603   0.227   1.804   3.655
13704TIP3    H262604   0.112   1.762   3.566
13705TIP3   OH262605   0.563   1.606   3.742
13705TIP3    H162606   0.643   1.561   3.767
13705TIP3    H262607   0.546   1.576   3.652
13706TIP3   OH262608   0.983   1.604   1.868
13706TIP3    H162609   0.918   1.538   1.891
13706TIP3    H262610   1.059   1.554   1.840
13707TIP3   OH262611   1.227   1.486   3.655
13707TIP3    H162612   1.213   1.403   3.700
13707TIP3    H262613   1.302   1.525   3.700
13708TIP3   OH262614   1.435   1.570   1.910
13708TIP3    H162615   1.442   1.489   1.961
13708TIP3    H262616   1.510   1.566   1.850
13709TIP3   OH262617   0.135   1.172   3.663
13709TIP3    H162618   0.085   1.100   3.625
13709TIP3    H262619   0.074   1.246   3.663
13710TIP3   OH262620   0.533   1.141   1.883
13710TIP3    H162621   0.556   1.089   1.960
13710TIP3    H262622   0.617   1.157   1.839
13711TIP3   OH262623   0.792   1.182   3.644
13711TIP3    H162624   0.767   1.223   3.561
13711TIP3    H262625   0.822   1.094   3.619
13712TIP3   OH262626   1.161   1.267   1.909
13712TIP3    H162627   1.116   1.261   1.993
13712TIP3    H262628   1.138   1.185   1.864
13713TIP3   OH262629   1.341   1.201   3.400
13713TIP3    H162630   1.430   1.220   3.372
13713TIP3    H262631   1.294   1.283   3.386
13714TIP3   OH262632   0.243   0.842   3.676
13714TIP3    H162633   0.272   0.770   3.732
13714TIP3    H262634   0.213   0.909   3.737
13715TIP3   OH262635   0.625   0.995   2.103
13715TIP3    H162636   0.582   0.956   2.178
13715TIP3    H262637   0.674   0.924   2.063
13716TIP3   OH262638   0.594   0.801   3.349
13716TIP3    H162639   0.537   0.865   3.307
13716TIP3    H262640   0.683   0.831   3.329
13717TIP3   OH262641   0.779   0.824   1.938
13717TIP3    H162642   0.781   0.859   1.849
13717TIP3    H262643   0.870   0.814   1.963
13718TIP3   OH262644   1.115   1.027   3.662
13718TIP3    H162645   1.192   0.988   3.620
13718TIP3    H262646   1.082   0.960   3.721
13719TIP3   OH262647   1.669   1.015   1.907
13719TIP3    H162648   1.676   0.996   1.813
13719TIP3    H262649   1.664   1.110   1.911
13720TIP3   OH262650   0.659   0.536   3.436
13720TIP3    H162651   0.672   0.469   3.370
13720TIP3    H262652   0.656   0.618   3.387
13721TIP3   OH262653   0.679   0.353   3.227
13721TIP3    H162654   0.732   0.376   3.151
13721TIP3    H262655   0.589   0.350   3.194
13722TIP3   OH262656   0.826   0.927   3.285
13722TIP3    H162657   0.919   0.925   3.262
13722TIP3    H262658   0.788   0.992   3.226
13723TIP3   OH262659   1.253   0.659   3.721
13723TIP3    H162660   1.273   0.565   3.722
13723TIP3    H262661   1.334   0.701   3.749
13724TIP3   OH262662   1.383   0.971   3.538
13724TIP3    H162663   1.356   1.052   3.494
13724TIP3    H262664   1.478   0.972   3.534
13725TIP3   OH262665   0.424   0.635   3.539
13725TIP3    H162666   0.375   0.567   3.585
13725TIP3    H262667   0.511   0.597   3.526
13726TIP3   OH262668   0.741   0.085   3.299
13726TIP3    H162669   0.719   0.178   3.288
13726TIP3    H262670   0.660   0.039   3.278
13727TIP3   OH262671   0.869   0.504   3.611
13727TIP3    H162672   0.848   0.431   3.669
13727TIP3    H262673   0.790   0.517   3.559
13728TIP3   OH262674   1.130   0.427   3.548
13728TIP3    H162675   1.040   0.437   3.578
13728TIP3    H262676   1.175   0.383   3.620
13729TIP3   OH262677   1.321   0.347   3.743
13729TIP3    H162678   1.310   0.253   3.731
13729TIP3    H262679   1.301   0.362   3.836
13730TIP3   OH262680   0.297   0.412   3.643
13730TIP3    H162681   0.291   0.333   3.589
13730TIP3    H262682   0.320   0.380   3.730
13731TIP3   OH262683   0.752   7.362   3.584
13731TIP3    H162684   0.769   7.275   3.620
13731TIP3    H262685   0.763   7.351   3.490
13732TIP3   OH262686   0.824   0.249   3.722
13732TIP3    H162687   0.812   0.170   3.669
13732TIP3    H262688   0.776   0.232   3.803
13733TIP3   OH262689   0.791   1.893   2.099
13733TIP3    H162690   0.879   1.857   2.088
13733TIP3    H262691   0.782   1.956   2.027
13734TIP3   OH262692   0.164   1.390   1.959
13734TIP3    H162693   0.239   1.399   2.018
13734TIP3    H262694   0.180   1.310   1.910
13735TIP3   OH262695   0.055   1.864   2.463
13735TIP3    H162696  -0.040   1.862   2.448
13735TIP3    H262697   0.070   1.796   2.529
13736TIP3   OH262698   0.078   1.663   2.660
13736TIP3    H162699   0.068   1.579   2.703
13736TIP3    H262700   0.135   1.714   2.718
13737TIP3   OH262701   1.849   1.778   3.025
13737TIP3    H162702   1.860   1.862   3.069
13737TIP3    H262703   1.927   1.770   2.969
13738TIP3   OH262704   1.818   1.656   3.279
13738TIP3    H162705   1.753   1.589   3.256
13738TIP3    H262706   1.840   1.697   3.196
13739TIP3   OH262707   1.649   1.292   3.771
13739TIP3    H162708   1.562   1.296   3.812
13739TIP3    H262709   1.697   1.366   3.810
13740TIP3   OH262710   1.788   1.119   2.306
13740TIP3    H162711   1.859   1.184   2.310
13740TIP3    H262712   1.807   1.060   2.379
13741TIP3   OH262713   1.836   0.918   2.494
13741TIP3    H162714   1.751   0.886   2.523
13741TIP3    H262715   1.886   0.930   2.574
13742TIP3   OH262716   1.814   1.220   3.006
13742TIP3    H162717   1.859   1.144   2.969
13742TIP3    H262718   1.856   1.296   2.966
13743TIP3   OH262719   1.612   1.491   3.204
13743TIP3    H162720   1.542   1.538   3.248
13743TIP3    H262721   1.580   1.476   3.115
13744TIP3   OH262722   1.820   0.923   2.117
13744TIP3    H162723   1.768   0.948   2.042
13744TIP3    H262724   1.806   0.992   2.182
13745TIP3   OH262725   1.645   0.624   1.939
13745TIP3    H162726   1.626   0.682   1.865
13745TIP3    H262727   1.635   0.536   1.904
13746TIP3   OH262728   1.583   0.800   2.537
13746TIP3    H162729   1.579   0.711   2.504
13746TIP3    H262730   1.539   0.797   2.622
13747TIP3   OH262731   0.090   1.007   2.960
13747TIP3    H162732   0.108   1.062   2.884
13747TIP3    H262733   0.175   0.972   2.985
13748TIP3   OH262734   1.659   0.978   3.529
13748TIP3    H162735   1.715   0.903   3.512
13748TIP3    H262736   1.712   1.054   3.501
13749TIP3   OH262737   1.806   0.750   3.501
13749TIP3    H162738   1.718   0.715   3.514
13749TIP3    H262739   1.864   0.676   3.520
13750TIP3   OH262740   1.593   0.376   1.831
13750TIP3    H162741   1.638   0.323   1.897
13750TIP3    H262742   1.500   0.357   1.844
13751TIP3   OH262743   1.568   0.551   2.375
13751TIP3    H162744   1.599   0.461   2.383
13751TIP3    H262745   1.631   0.592   2.315
13752TIP3   OH262746   1.592   0.588   2.931
13752TIP3    H162747   1.684   0.598   2.910
13752TIP3    H262748   1.586   0.607   3.024
13753TIP3   OH262749   1.616   0.672   3.198
13753TIP3    H162750   1.537   0.699   3.245
13753TIP3    H262751   1.667   0.753   3.189
13754TIP3   OH262752   0.065   0.544   3.579
13754TIP3    H162753   0.145   0.501   3.610
13754TIP3    H262754   0.028   0.483   3.516
13755TIP3   OH262755   1.902   0.090   3.700
13755TIP3    H162756   1.869   0.002   3.684
13755TIP3    H262757   1.852   0.146   3.641
13756TIP3   OH262758   1.636   0.278   2.409
13756TIP3    H162759   1.653   0.232   2.491
13756TIP3    H262760   1.578   0.220   2.360
13757TIP3   OH262761   0.176   0.355   2.846
13757TIP3    H162762   0.201   0.266   2.870
13757TIP3    H262763   0.254   0.408   2.863
13758TIP3   OH262764  -0.009   0.741   2.932
13758TIP3    H162765   0.064   0.715   2.876
13758TIP3    H262766   0.010   0.833   2.953
13759TIP3   OH262767   1.790   0.276   3.535
13759TIP3    H162768   1.707   0.311   3.568
13759TIP3    H262769   1.766   0.230   3.454
13760TIP3   OH262770   1.763   0.254   2.014
13760TIP3    H162771   1.822   0.185   1.981
13760TIP3    H262772   1.822   0.317   2.056
13761TIP3   OH262773   0.103   0.253   2.307
13761TIP3    H162774   0.019   0.260   2.352
13761TIP3    H262775   0.119   0.340   2.272
13762TIP3   OH262776   1.497   1.798   2.554
13762TIP3    H162777   1.572   1.791   2.494
13762TIP3    H262778   1.533   1.843   2.631
13763TIP3   OH262779   0.046   0.086   3.191
13763TIP3    H162780   0.016   0.070   3.280
13763TIP3    H262781  -0.016   0.149   3.155
13764TIP3   OH262782   0.200   1.484   3.546
13764TIP3    H162783   0.113   1.524   3.539
13764TIP3    H262784   0.214   1.474   3.640
13765TIP3   OH262785   0.570   1.596   3.235
13765TIP3    H162786   0.537   1.683   3.211
13765TIP3    H262787   0.663   1.598   3.215
13766TIP3   OH262788   0.934   1.712   3.511
13766TIP3    H162789   0.946   1.682   3.601
13766TIP3    H262790   1.013   1.764   3.492
13767TIP3   OH262791   1.168   1.852   3.472
13767TIP3    H162792   1.234   1.797   3.430
13767TIP3    H262793   1.210   1.882   3.553
13768TIP3   OH262794   1.734   0.105   3.325
13768TIP3    H162795   1.663   0.134   3.267
13768TIP3    H262796   1.694   0.039   3.381
13769TIP3   OH262797   0.244   1.868   3.247
13769TIP3    H162798   0.170   1.922   3.220
13769TIP3    H262799   0.253   1.885   3.341
13770TIP3   OH262800   0.513   1.859   3.169
13770TIP3    H162801   0.420   1.867   3.190
13770TIP3    H262802   0.522   1.904   3.085
13771TIP3   OH262803   0.978   1.836   3.071
13771TIP3    H162804   0.923   1.871   3.000
13771TIP3    H262805   0.984   1.908   3.133
13772TIP3   OH262806   1.212   1.720   3.159
13772TIP3    H162807   1.131   1.758   3.124
13772TIP3    H262808   1.279   1.785   3.139
13773TIP3   OH262809   1.460   1.857   3.157
13773TIP3    H162810   1.476   1.947   3.128
13773TIP3    H262811   1.499   1.802   3.089
13774TIP3   OH262812   0.234   1.750   2.874
13774TIP3    H162813   0.212   1.712   2.959
13774TIP3    H262814   0.316   1.708   2.849
13775TIP3   OH262815   0.461   1.614   2.798
13775TIP3    H162816   0.436   1.527   2.830
13775TIP3    H262817   0.544   1.633   2.841
13776TIP3   OH262818   0.714   1.651   2.913
13776TIP3    H162819   0.734   1.565   2.876
13776TIP3    H262820   0.743   1.645   3.004
13777TIP3   OH262821   1.029   0.271   2.797
13777TIP3    H162822   0.966   0.207   2.830
13777TIP3    H262823   1.096   0.218   2.755
13778TIP3   OH262824   1.507   0.024   2.776
13778TIP3    H162825   1.586   0.052   2.729
13778TIP3    H262826   1.467   0.106   2.806
13779TIP3   OH262827   1.724   0.123   2.633
13779TIP3    H162828   1.792   0.055   2.637
13779TIP3    H262829   1.771   0.205   2.648
13780TIP3   OH262830   0.339   0.064   2.551
13780TIP3    H162831   0.263   0.026   2.506
13780TIP3    H262832   0.350   0.010   2.628
13781TIP3   OH262833   0.069   0.190   2.039
13781TIP3    H162834   0.157   0.211   2.007
13781TIP3    H262835   0.075   0.202   2.134
13782TIP3   OH262836   0.758   0.111   2.600
13782TIP3    H162837   0.840   0.137   2.557
13782TIP3    H262838   0.781   0.102   2.692
13783TIP3   OH262839   1.236   0.154   2.667
13783TIP3    H162840   1.292   0.211   2.613
13783TIP3    H262841   1.261   0.065   2.642
13784TIP3   OH262842   1.465   0.094   2.299
13784TIP3    H162843   1.374   0.110   2.324
13784TIP3    H262844   1.475  -0.001   2.307
13785TIP3   OH262845   0.165   1.688   2.182
13785TIP3    H162846   0.077   1.652   2.170
13785TIP3    H262847   0.154   1.783   2.173
13786TIP3   OH262848   0.334   0.277   2.003
13786TIP3    H162849   0.379   0.222   1.939
13786TIP3    H262850   0.399   0.292   2.072
13787TIP3   OH262851   0.826   0.300   2.265
13787TIP3    H162852   0.873   0.239   2.322
13787TIP3    H262853   0.838   0.385   2.306
13788TIP3   OH262854   1.039   1.779   2.072
13788TIP3    H162855   1.132   1.794   2.061
13788TIP3    H262856   1.014   1.727   1.995
13789TIP3   OH262857   1.699   1.761   2.367
13789TIP3    H162858   1.681   1.672   2.337
13789TIP3    H262859   1.684   1.816   2.290
13790TIP3   OH262860   0.266   0.182   3.491
13790TIP3    H162861   0.207   0.107   3.496
13790TIP3    H262862   0.347   0.151   3.534
13791TIP3   OH262863   0.491   0.116   3.637
13791TIP3    H162864   0.583   0.102   3.612
13791TIP3    H262865   0.473   0.046   3.701
13792TIP3   OH262866   0.342   1.747   1.922
13792TIP3    H162867   0.306   1.726   2.008
13792TIP3    H262868   0.419   1.690   1.914
13793TIP3   OH262869   1.292   0.077   3.729
13793TIP3    H162870   1.207   0.032   3.730
13793TIP3    H262871   1.356   0.008   3.750
13794TIP3   OH262872   1.609   1.669   3.549
13794TIP3    H162873   1.542   1.645   3.485
13794TIP3    H262874   1.575   1.748   3.591
13795TIP3   OH262875   3.081   1.035   2.530
13795TIP3    H162876   3.069   1.129   2.520
13795TIP3    H262877   3.012   0.996   2.477
13796TIP3   OH262878   2.959   0.945   2.938
13796TIP3    H162879   2.987   0.903   3.020
13796TIP3    H262880   2.909   0.877   2.892
13797TIP3   OH262881   2.169   0.869   3.058
13797TIP3    H162882   2.181   0.802   3.125
13797TIP3    H262883   2.257   0.891   3.029
13798TIP3   OH262884   3.346   1.249   2.766
13798TIP3    H162885   3.306   1.174   2.811
13798TIP3    H262886   3.362   1.313   2.836
13799TIP3   OH262887   2.297   1.345   2.861
13799TIP3    H162888   2.273   1.256   2.833
13799TIP3    H262889   2.391   1.339   2.881
13800TIP3   OH262890   1.956   0.682   2.395
13800TIP3    H162891   1.928   0.766   2.430
13800TIP3    H262892   1.894   0.662   2.326
13801TIP3   OH262893   2.024   0.934   2.703
13801TIP3    H162894   2.055   0.846   2.721
13801TIP3    H262895   2.101   0.989   2.713
13802TIP3   OH262896   3.083   1.711   2.806
13802TIP3    H162897   3.114   1.664   2.729
13802TIP3    H262898   3.068   1.643   2.872
13803TIP3   OH262899   2.803   1.194   2.947
13803TIP3    H162900   2.844   1.114   2.914
13803TIP3    H262901   2.867   1.231   3.008
13804TIP3   OH262902   3.720   0.329   3.048
13804TIP3    H162903   3.727   0.393   3.119
13804TIP3    H262904   3.763   0.371   2.973
13805TIP3   OH262905   3.113   0.622   2.951
13805TIP3    H162906   3.123   0.529   2.969
13805TIP3    H262907   3.094   0.627   2.857
13806TIP3   OH262908   2.461   0.423   2.681
13806TIP3    H162909   2.465   0.509   2.639
13806TIP3    H262910   2.411   0.369   2.620
13807TIP3   OH262911   3.250   0.443   2.541
13807TIP3    H162912   3.291   0.420   2.624
13807TIP3    H262913   3.319   0.486   2.491
13808TIP3   OH262914   2.103   0.677   2.767
13808TIP3    H162915   2.166   0.633   2.824
13808TIP3    H262916   2.120   0.641   2.680
13809TIP3   OH262917   2.570   0.823   2.743
13809TIP3    H162918   2.656   0.790   2.768
13809TIP3    H262919   2.535   0.756   2.683
13810TIP3   OH262920   3.726   0.505   3.262
13810TIP3    H162921   3.644   0.552   3.244
13810TIP3    H262922   3.738   0.514   3.357
13811TIP3   OH262923   2.313   0.355   3.122
13811TIP3    H162924   2.287   0.413   3.050
13811TIP3    H262925   2.242   0.364   3.187
13812TIP3   OH262926   3.045   1.292   2.433
13812TIP3    H162927   3.026   1.284   2.339
13812TIP3    H262928   2.998   1.371   2.460
13813TIP3   OH262929   2.574   1.116   3.080
13813TIP3    H162930   2.526   1.189   3.119
13813TIP3    H262931   2.647   1.156   3.034
13814TIP3   OH262932   3.340   0.389   2.791
13814TIP3    H162933   3.268   0.371   2.852
13814TIP3    H262934   3.395   0.452   2.838
13815TIP3   OH262935   2.297   0.509   2.889
13815TIP3    H162936   2.354   0.565   2.942
13815TIP3    H262937   2.356   0.471   2.823
13816TIP3   OH262938   2.432   1.323   3.198
13816TIP3    H162939   2.440   1.418   3.189
13816TIP3    H262940   2.341   1.310   3.225
13817TIP3   OH262941   2.004   1.298   2.281
13817TIP3    H162942   1.997   1.339   2.195
13817TIP3    H262943   2.027   1.370   2.340
13818TIP3   OH262944   3.370   1.454   2.965
13818TIP3    H162945   3.275   1.459   2.976
13818TIP3    H262946   3.395   1.542   2.936
13819TIP3   OH262947   3.465   0.262   3.149
13819TIP3    H162948   3.395   0.282   3.087
13819TIP3    H262949   3.546   0.280   3.100
13820TIP3   OH262950   2.680   0.109   2.850
13820TIP3    H162951   2.669   0.017   2.873
13820TIP3    H262952   2.603   0.152   2.887
13821TIP3   OH262953   3.195   1.607   2.574
13821TIP3    H162954   3.238   1.523   2.558
13821TIP3    H262955   3.267   1.671   2.577
13822TIP3   OH262956   3.303   1.364   2.519
13822TIP3    H162957   3.224   1.321   2.487
13822TIP3    H262958   3.327   1.316   2.598
13823TIP3   OH262959   3.501   1.226   3.316
13823TIP3    H162960   3.482   1.173   3.239
13823TIP3    H262961   3.512   1.315   3.282
13824TIP3   OH262962   2.929   0.938   2.317
13824TIP3    H162963   2.860   0.998   2.289
13824TIP3    H262964   2.996   0.944   2.248
13825TIP3   OH262965   2.971   0.821   1.961
13825TIP3    H162966   3.025   0.846   2.035
13825TIP3    H262967   3.020   0.750   1.918
13826TIP3   OH262968   3.645   0.901   3.148
13826TIP3    H162969   3.571   0.960   3.137
13826TIP3    H262970   3.705   0.925   3.078
13827TIP3   OH262971   3.301   0.963   2.384
13827TIP3    H162972   3.232   0.989   2.446
13827TIP3    H262973   3.366   0.918   2.438
13828TIP3   OH262974   3.258   0.766   3.345
13828TIP3    H162975   3.251   0.839   3.407
13828TIP3    H262976   3.194   0.787   3.277
13829TIP3   OH262977   2.445   1.014   2.576
13829TIP3    H162978   2.421   0.973   2.494
13829TIP3    H262979   2.496   0.948   2.623
13830TIP3   OH262980   2.587   1.365   2.848
13830TIP3    H162981   2.589   1.376   2.753
13830TIP3    H262982   2.665   1.312   2.867
13831TIP3   OH262983   2.425   0.921   2.957
13831TIP3    H162984   2.480   0.892   2.884
13831TIP3    H262985   2.478   0.988   3.001
13832TIP3   OH262986   3.103   1.475   3.023
13832TIP3    H162987   3.089   1.544   3.088
13832TIP3    H262988   3.063   1.398   3.062
13833TIP3   OH262989   2.592   1.339   3.426
13833TIP3    H162990   2.529   1.396   3.470
13833TIP3    H262991   2.547   1.312   3.346
13834TIP3   OH262992   3.162   0.897   2.155
13834TIP3    H162993   3.214   0.933   2.226
13834TIP3    H262994   3.215   0.911   2.077
13835TIP3   OH262995   2.248   0.923   3.395
13835TIP3    H162996   2.258   1.008   3.439
13835TIP3    H262997   2.157   0.921   3.367
13836TIP3   OH262998   2.941   1.543   2.490
13836TIP3    H162999   3.024   1.570   2.529
13836TIP3    H263000   2.908   1.621   2.446
13837TIP3   OH263001   2.392   1.519   3.492
13837TIP3    H163002   2.400   1.552   3.402
13837TIP3    H263003   2.297   1.507   3.504
13838TIP3   OH263004   3.550   0.005   2.155
13838TIP3    H163005   3.470   0.031   2.200
13838TIP3    H263006   3.583   0.087   2.116
13839TIP3   OH263007   2.359   0.921   2.322
13839TIP3    H163008   2.298   0.987   2.289
13839TIP3    H263009   2.312   0.838   2.312
13840TIP3   OH263010   3.669   1.483   2.019
13840TIP3    H163011   3.679   1.578   2.017
13840TIP3    H263012   3.758   1.449   2.011
13841TIP3   OH263013   1.967   1.173   3.241
13841TIP3    H163014   1.912   1.183   3.163
13841TIP3    H263015   1.979   1.078   3.249
13842TIP3   OH263016   1.999   1.425   2.925
13842TIP3    H163017   2.086   1.393   2.902
13842TIP3    H263018   2.013   1.478   3.004
13843TIP3   OH263019   3.747   1.555   3.525
13843TIP3    H163020   3.741   1.461   3.510
13843TIP3    H263021   3.661   1.580   3.558
13844TIP3   OH263022   2.826   1.475   3.378
13844TIP3    H163023   2.819   1.557   3.426
13844TIP3    H263024   2.745   1.429   3.396
13845TIP3   OH263025   2.913   1.801   2.360
13845TIP3    H163026   2.893   1.806   2.267
13845TIP3    H263027   2.881   1.884   2.396
13846TIP3   OH263028   2.253   1.706   2.551
13846TIP3    H163029   2.271   1.671   2.638
13846TIP3    H263030   2.197   1.640   2.510
13847TIP3   OH263031   3.198   1.778   2.040
13847TIP3    H163032   3.246   1.704   2.001
13847TIP3    H263033   3.211   1.768   2.134
13848TIP3   OH263034   3.182   1.756   2.317
13848TIP3    H163035   3.089   1.765   2.337
13848TIP3    H263036   3.215   1.696   2.384
13849TIP3   OH263037   3.440   0.646   3.542
13849TIP3    H163038   3.373   0.676   3.481
13849TIP3    H263039   3.450   0.553   3.523
13850TIP3   OH263040   2.178   1.333   3.311
13850TIP3    H163041   2.206   1.290   3.392
13850TIP3    H263042   2.103   1.282   3.281
13851TIP3   OH263043   2.432   0.176   2.952
13851TIP3    H163044   2.355   0.159   2.897
13851TIP3    H263045   2.399   0.232   3.022
13852TIP3   OH263046   2.896   0.142   3.342
13852TIP3    H163047   2.892   0.109   3.432
13852TIP3    H263048   2.806   0.140   3.312
13853TIP3   OH263049   3.197   0.496   3.377
13853TIP3    H163050   3.130   0.481   3.444
13853TIP3    H263051   3.200   0.591   3.367
13854TIP3   OH263052   3.304   0.910   1.922
13854TIP3    H163053   3.282   0.938   1.833
13854TIP3    H263054   3.394   0.942   1.934
13855TIP3   OH263055   2.864   0.371   2.037
13855TIP3    H163056   2.805   0.346   2.109
13855TIP3    H263057   2.843   0.310   1.967
13856TIP3   OH263058   2.440   0.665   3.069
13856TIP3    H163059   2.375   0.662   3.139
13856TIP3    H263060   2.441   0.756   3.041
13857TIP3   OH263061   2.437   0.666   2.555
13857TIP3    H163062   2.342   0.653   2.552
13857TIP3    H263063   2.466   0.650   2.465
13858TIP3   OH263064   2.981   0.692   2.428
13858TIP3    H163065   2.956   0.779   2.397
13858TIP3    H263066   3.054   0.667   2.371
13859TIP3   OH263067   2.907   0.709   3.547
13859TIP3    H163068   2.852   0.641   3.585
13859TIP3    H263069   2.992   0.698   3.591
13860TIP3   OH263070   3.087   0.628   2.678
13860TIP3    H163071   3.039   0.671   2.607
13860TIP3    H263072   3.131   0.555   2.636
13861TIP3   OH263073   2.227   0.665   3.244
13861TIP3    H163074   2.229   0.716   3.325
13861TIP3    H263075   2.185   0.582   3.268
13862TIP3   OH263076   2.529   0.348   1.891
13862TIP3    H163077   2.515   0.349   1.985
13862TIP3    H263078   2.486   0.428   1.859
13863TIP3   OH263079   1.880   0.343   2.646
13863TIP3    H163080   1.937   0.364   2.720
13863TIP3    H263081   1.932   0.366   2.569
13864TIP3   OH263082   1.922   0.450   2.142
13864TIP3    H163083   1.994   0.493   2.096
13864TIP3    H263084   1.859   0.520   2.158
13865TIP3   OH263085   3.047   0.786   3.156
13865TIP3    H163086   3.078   0.730   3.085
13865TIP3    H263087   2.981   0.732   3.201
13866TIP3   OH263088   2.749   0.414   2.650
13866TIP3    H163089   2.658   0.403   2.677
13866TIP3    H263090   2.801   0.376   2.721
13867TIP3   OH263091   2.178   0.576   2.523
13867TIP3    H163092   2.105   0.602   2.467
13867TIP3    H263093   2.199   0.487   2.495
13868TIP3   OH263094   2.505   0.589   2.300
13868TIP3    H163095   2.598   0.581   2.321
13868TIP3    H263096   2.503   0.628   2.213
13869TIP3   OH263097   3.129   0.347   2.964
13869TIP3    H163098   3.098   0.340   3.054
13869TIP3    H263099   3.056   0.316   2.911
13870TIP3   OH263100   2.493   0.669   2.042
13870TIP3    H163101   2.443   0.643   1.964
13870TIP3    H263102   2.565   0.722   2.007
13871TIP3   OH263103   3.490   1.902   3.619
13871TIP3    H163104   3.513   1.938   3.533
13871TIP3    H263105   3.564   1.923   3.675
13872TIP3   OH263106   2.246   1.172   3.540
13872TIP3    H163107   2.313   1.160   3.608
13872TIP3    H263108   2.163   1.172   3.587
13873TIP3   OH263109   2.810   0.713   2.841
13873TIP3    H163110   2.870   0.655   2.793
13873TIP3    H263111   2.780   0.661   2.915
13874TIP3   OH263112   2.290   0.317   2.480
13874TIP3    H163113   2.260   0.232   2.511
13874TIP3    H263114   2.324   0.299   2.392
13875TIP3   OH263115   2.706   0.579   3.063
13875TIP3    H163116   2.621   0.621   3.076
13875TIP3    H263117   2.756   0.603   3.141
13876TIP3   OH263118   2.733   1.119   2.238
13876TIP3    H163119   2.661   1.089   2.183
13876TIP3    H263120   2.690   1.151   2.318
13877TIP3   OH263121   3.452   1.087   3.084
13877TIP3    H163122   3.513   1.142   3.034
13877TIP3    H263123   3.381   1.068   3.023
13878TIP3   OH263124   3.120   0.408   2.118
13878TIP3    H163125   3.028   0.408   2.091
13878TIP3    H263126   3.135   0.494   2.156
13879TIP3   OH263127   2.903   1.177   3.392
13879TIP3    H163128   2.929   1.132   3.473
13879TIP3    H263129   2.876   1.264   3.421
13880TIP3   OH263130   3.194   0.636   2.257
13880TIP3    H163131   3.284   0.623   2.288
13880TIP3    H263132   3.196   0.724   2.218
13881TIP3   OH263133   2.265   1.075   2.777
13881TIP3    H163134   2.323   1.065   2.702
13881TIP3    H263135   2.305   1.022   2.846
13882TIP3   OH263136   2.945   1.275   2.169
13882TIP3    H163137   2.911   1.365   2.172
13882TIP3    H263138   2.869   1.220   2.191
13883TIP3   OH263139   1.972   0.906   3.336
13883TIP3    H163140   1.942   0.862   3.416
13883TIP3    H263141   1.903   0.889   3.272
13884TIP3   OH263142   2.697   0.897   3.567
13884TIP3    H163143   2.629   0.857   3.513
13884TIP3    H263144   2.776   0.846   3.549
13885TIP3   OH263145   3.106   1.455   3.382
13885TIP3    H163146   3.014   1.460   3.357
13885TIP3    H263147   3.106   1.466   3.477
13886TIP3   OH263148   3.640   0.664   2.189
13886TIP3    H163149   3.596   0.645   2.106
13886TIP3    H263150   3.668   0.755   2.181
13887TIP3   OH263151   3.724   1.284   3.477
13887TIP3    H163152   3.631   1.269   3.460
13887TIP3    H263153   3.769   1.252   3.399
13888TIP3   OH263154   3.522   1.515   2.261
13888TIP3    H163155   3.471   1.440   2.291
13888TIP3    H263156   3.561   1.486   2.178
13889TIP3   OH263157   3.247   1.018   2.900
13889TIP3    H163158   3.152   1.009   2.900
13889TIP3    H263159   3.279   0.941   2.852
13890TIP3   OH263160   2.527   1.445   2.586
13890TIP3    H163161   2.554   1.529   2.549
13890TIP3    H263162   2.431   1.446   2.581
13891TIP3   OH263163   2.084   0.895   2.041
13891TIP3    H163164   2.129   0.962   2.093
13891TIP3    H263165   1.993   0.900   2.069
13892TIP3   OH263166   2.591   1.215   2.447
13892TIP3    H163167   2.585   1.296   2.497
13892TIP3    H263168   2.541   1.151   2.498
13893TIP3   OH263169   2.717   1.614   3.156
13893TIP3    H163170   2.773   1.689   3.135
13893TIP3    H263171   2.769   1.559   3.214
13894TIP3   OH263172   2.519   1.702   2.476
13894TIP3    H163173   2.426   1.720   2.493
13894TIP3    H263174   2.565   1.779   2.510
13895TIP3   OH263175   3.004   1.235   3.139
13895TIP3    H163176   2.966   1.216   3.225
13895TIP3    H263177   3.076   1.173   3.131
13896TIP3   OH263178   3.304   1.329   2.033
13896TIP3    H163179   3.328   1.277   2.109
13896TIP3    H263180   3.217   1.298   2.008
13897TIP3   OH263181   3.315   1.639   3.347
13897TIP3    H163182   3.234   1.587   3.342
13897TIP3    H263183   3.302   1.708   3.282
13898TIP3   OH263184   3.706   1.755   2.034
13898TIP3    H163185   3.744   1.821   1.976
13898TIP3    H263186   3.633   1.800   2.077
13899TIP3   OH263187   2.108   0.412   3.295
13899TIP3    H163188   2.015   0.432   3.285
13899TIP3    H263189   2.109   0.343   3.362
13900TIP3   OH263190   3.407   1.173   2.233
13900TIP3    H163191   3.364   1.111   2.291
13900TIP3    H263192   3.500   1.163   2.253
13901TIP3   OH263193   2.109   1.580   3.145
13901TIP3    H163194   2.137   1.504   3.197
13901TIP3    H263195   2.116   1.654   3.205
13902TIP3   OH263196   2.669   1.415   1.892
13902TIP3    H163197   2.674   1.330   1.848
13902TIP3    H263198   2.631   1.394   1.978
13903TIP3   OH263199   2.541   1.389   2.140
13903TIP3    H163200   2.577   1.341   2.215
13903TIP3    H263201   2.551   1.481   2.164
13904TIP3   OH263202   2.187   1.102   2.200
13904TIP3    H163203   2.119   1.153   2.245
13904TIP3    H263204   2.235   1.167   2.148
13905TIP3   OH263205   3.030   0.345   3.217
13905TIP3    H163206   3.092   0.381   3.280
13905TIP3    H263207   2.987   0.273   3.263
13906TIP3   OH263208   3.125   0.275   2.361
13906TIP3    H163209   3.121   0.313   2.274
13906TIP3    H263210   3.163   0.343   2.416
13907TIP3   OH263211   2.839   1.524   2.178
13907TIP3    H163212   2.753   1.559   2.201
13907TIP3    H263213   2.890   1.602   2.152
13908TIP3   OH263214   2.757   0.534   2.403
13908TIP3    H163215   2.833   0.592   2.406
13908TIP3    H263216   2.750   0.499   2.491
13909TIP3   OH263217   2.878   0.608   3.284
13909TIP3    H163218   2.882   0.636   3.376
13909TIP3    H263219   2.909   0.518   3.285
13910TIP3   OH263220   2.870   0.217   2.467
13910TIP3    H163221   2.862   0.289   2.529
13910TIP3    H263222   2.960   0.222   2.435
13911TIP3   OH263223   2.595   1.646   2.219
13911TIP3    H163224   2.604   1.731   2.175
13911TIP3    H263225   2.568   1.668   2.308
13912TIP3   OH263226   2.454   0.347   2.161
13912TIP3    H163227   2.442   0.433   2.202
13912TIP3    H263228   2.538   0.316   2.196
13913TIP3   OH263229   3.450   0.399   3.394
13913TIP3    H163230   3.358   0.422   3.390
13913TIP3    H263231   3.467   0.353   3.312
13914TIP3   OH263232   3.326   0.769   2.776
13914TIP3    H163233   3.240   0.729   2.759
13914TIP3    H263234   3.368   0.709   2.837
13915TIP3   OH263235   2.296   1.306   2.040
13915TIP3    H163236   2.370   1.350   2.081
13915TIP3    H263237   2.334   1.253   1.970
13916TIP3   OH263238   2.084   0.619   2.003
13916TIP3    H163239   2.094   0.713   2.021
13916TIP3    H263240   2.087   0.613   1.907
13917TIP3   OH263241   3.453   1.720   2.937
13917TIP3    H163242   3.439   1.794   2.878
13917TIP3    H263243   3.548   1.720   2.953
13918TIP3   OH263244   2.142   0.099   2.895
13918TIP3    H163245   2.195   0.026   2.862
13918TIP3    H263246   2.108   0.069   2.979
13919TIP3   OH263247   2.062   1.534   2.434
13919TIP3    H163248   2.003   1.559   2.505
13919TIP3    H263249   2.043   1.596   2.364
13920TIP3   OH263250   2.040   1.762   3.611
13920TIP3    H163251   2.079   1.780   3.696
13920TIP3    H263252   2.081   1.681   3.582
13921TIP3   OH263253   2.439   1.622   3.745
13921TIP3    H163254   2.519   1.581   3.779
13921TIP3    H263255   2.431   1.589   3.655
13922TIP3   OH263256   2.870   1.603   1.868
13922TIP3    H163257   2.804   1.536   1.885
13922TIP3    H263258   2.947   1.555   1.838
13923TIP3   OH263259   3.100   1.484   3.655
13923TIP3    H163260   3.090   1.401   3.701
13923TIP3    H263261   3.175   1.526   3.697
13924TIP3   OH263262   3.322   1.572   1.908
13924TIP3    H163263   3.332   1.492   1.959
13924TIP3    H263264   3.396   1.572   1.847
13925TIP3   OH263265   1.998   1.166   3.671
13925TIP3    H163266   2.015   1.072   3.676
13925TIP3    H263267   1.923   1.174   3.612
13926TIP3   OH263268   2.425   1.132   1.873
13926TIP3    H163269   2.448   1.083   1.952
13926TIP3    H263270   2.509   1.148   1.829
13927TIP3   OH263271   2.665   1.171   3.634
13927TIP3    H163272   2.650   1.215   3.550
13927TIP3    H263273   2.691   1.082   3.610
13928TIP3   OH263274   3.058   1.259   1.920
13928TIP3    H163275   3.010   1.257   2.002
13928TIP3    H263276   3.029   1.182   1.872
13929TIP3   OH263277   3.231   1.202   3.391
13929TIP3    H163278   3.323   1.223   3.372
13929TIP3    H263279   3.185   1.285   3.381
13930TIP3   OH263280   2.089   0.907   3.662
13930TIP3    H163281   2.167   0.864   3.629
13930TIP3    H263282   2.093   0.895   3.757
13931TIP3   OH263283   2.521   1.002   2.100
13931TIP3    H163284   2.476   0.960   2.173
13931TIP3    H263285   2.575   0.933   2.061
13932TIP3   OH263286   2.500   0.792   3.388
13932TIP3    H163287   2.419   0.843   3.385
13932TIP3    H263288   2.554   0.829   3.319
13933TIP3   OH263289   2.691   0.836   1.954
13933TIP3    H163290   2.686   0.864   1.862
13933TIP3    H263291   2.785   0.826   1.970
13934TIP3   OH263292   3.001   1.033   3.650
13934TIP3    H163293   3.082   0.998   3.612
13934TIP3    H263294   2.973   0.964   3.711
13935TIP3   OH263295   3.562   1.012   1.904
13935TIP3    H163296   3.565   0.995   1.810
13935TIP3    H263297   3.558   1.107   1.911
13936TIP3   OH263298   2.535   0.528   3.455
13936TIP3    H163299   2.545   0.473   3.378
13936TIP3    H263300   2.525   0.617   3.420
13937TIP3   OH263301   2.568   0.374   3.221
13937TIP3    H163302   2.621   0.419   3.155
13937TIP3    H263303   2.480   0.372   3.185
13938TIP3   OH263304   2.677   0.897   3.212
13938TIP3    H163305   2.769   0.916   3.232
13938TIP3    H263306   2.646   0.976   3.166
13939TIP3   OH263307   3.140   0.652   3.706
13939TIP3    H163308   3.159   0.558   3.711
13939TIP3    H263309   3.224   0.694   3.727
13940TIP3   OH263310   3.265   0.975   3.536
13940TIP3    H163311   3.240   1.054   3.489
13940TIP3    H263312   3.361   0.976   3.533
13941TIP3   OH263313   2.394   0.580   3.688
13941TIP3    H163314   2.307   0.544   3.675
13941TIP3    H263315   2.437   0.570   3.603
13942TIP3   OH263316   2.614   0.105   3.288
13942TIP3    H163317   2.596   0.197   3.269
13942TIP3    H263318   2.534   0.059   3.262
13943TIP3   OH263319   2.748   0.503   3.628
13943TIP3    H163320   2.716   0.459   3.706
13943TIP3    H263321   2.672   0.506   3.570
13944TIP3   OH263322   3.000   0.417   3.544
13944TIP3    H163323   2.911   0.427   3.577
13944TIP3    H263324   3.047   0.374   3.615
13945TIP3   OH263325   3.196   0.352   3.744
13945TIP3    H163326   3.182   0.258   3.733
13945TIP3    H263327   3.177   0.368   3.837
13946TIP3   OH263328   2.164   0.436   3.650
13946TIP3    H163329   2.161   0.358   3.595
13946TIP3    H263330   2.175   0.403   3.739
13947TIP3   OH263331   2.719   0.009   3.526
13947TIP3    H163332   2.653  -0.018   3.590
13947TIP3    H263333   2.669   0.045   3.453
13948TIP3   OH263334   2.771   0.211   3.728
13948TIP3    H163335   2.764   0.134   3.670
13948TIP3    H263336   2.681   0.244   3.735
13949TIP3   OH263337   2.674   1.884   2.100
13949TIP3    H163338   2.764   1.851   2.090
13949TIP3    H263339   2.664   1.949   2.031
13950TIP3   OH263340   2.032   1.363   1.991
13950TIP3    H163341   2.124   1.353   2.013
13950TIP3    H263342   2.014   1.292   1.929
13951TIP3   OH263343   1.889   1.845   2.546
13951TIP3    H163344   1.833   1.816   2.473
13951TIP3    H263345   1.906   1.765   2.596
13952TIP3   OH263346   1.957   1.619   2.693
13952TIP3    H163347   1.924   1.539   2.735
13952TIP3    H263348   2.007   1.662   2.762
13953TIP3   OH263349   3.718   1.725   3.016
13953TIP3    H163350   3.713   1.733   3.111
13953TIP3    H263351   3.795   1.776   2.992
13954TIP3   OH263352   3.661   1.696   3.291
13954TIP3    H163353   3.609   1.624   3.255
13954TIP3    H263354   3.702   1.659   3.369
13955TIP3   OH263355   3.531   1.286   3.772
13955TIP3    H163356   3.445   1.296   3.815
13955TIP3    H263357   3.584   1.356   3.811
13956TIP3   OH263358   3.672   1.117   2.306
13956TIP3    H163359   3.741   1.183   2.308
13956TIP3    H263360   3.693   1.059   2.379
13957TIP3   OH263361   3.725   0.915   2.494
13957TIP3    H163362   3.639   0.887   2.525
13957TIP3    H263363   3.775   0.932   2.574
13958TIP3   OH263364   3.690   1.217   3.013
13958TIP3    H163365   3.743   1.151   2.969
13958TIP3    H263366   3.717   1.300   2.974
13959TIP3   OH263367   3.499   1.483   3.211
13959TIP3    H163368   3.428   1.530   3.255
13959TIP3    H263369   3.466   1.467   3.122
13960TIP3   OH263370   3.710   0.921   2.118
13960TIP3    H163371   3.659   0.946   2.041
13960TIP3    H263372   3.693   0.990   2.181
13961TIP3   OH263373   3.538   0.624   1.941
13961TIP3    H163374   3.519   0.685   1.869
13961TIP3    H263375   3.523   0.538   1.903
13962TIP3   OH263376   3.470   0.803   2.542
13962TIP3    H163377   3.465   0.714   2.507
13962TIP3    H263378   3.425   0.799   2.626
13963TIP3   OH263379   1.943   0.982   2.960
13963TIP3    H163380   1.952   0.967   2.866
13963TIP3    H263381   2.024   0.949   2.998
13964TIP3   OH263382   3.540   0.989   3.509
13964TIP3    H163383   3.602   0.918   3.493
13964TIP3    H263384   3.558   1.053   3.440
13965TIP3   OH263385   3.687   0.755   3.497
13965TIP3    H163386   3.598   0.722   3.514
13965TIP3    H263387   3.744   0.681   3.518
13966TIP3   OH263388   3.480   0.376   1.842
13966TIP3    H163389   3.515   0.313   1.905
13966TIP3    H263390   3.385   0.361   1.844
13967TIP3   OH263391   3.456   0.552   2.377
13967TIP3    H163392   3.484   0.461   2.381
13967TIP3    H263393   3.518   0.594   2.318
13968TIP3   OH263394   3.478   0.585   2.932
13968TIP3    H163395   3.571   0.595   2.912
13968TIP3    H263396   3.471   0.604   3.026
13969TIP3   OH263397   3.500   0.670   3.198
13969TIP3    H163398   3.422   0.696   3.246
13969TIP3    H263399   3.551   0.750   3.189
13970TIP3   OH263400   1.927   0.511   3.536
13970TIP3    H163401   2.013   0.496   3.577
13970TIP3    H263402   1.880   0.429   3.550
13971TIP3   OH263403   3.738   0.061   3.720
13971TIP3    H163404   3.748  -0.020   3.669
13971TIP3    H263405   3.718   0.128   3.655
13972TIP3   OH263406   3.516   0.273   2.403
13972TIP3    H163407   3.536   0.229   2.486
13972TIP3    H263408   3.453   0.215   2.360
13973TIP3   OH263409   2.056   0.361   2.859
13973TIP3    H163410   2.086   0.271   2.870
13973TIP3    H263411   2.134   0.414   2.870
13974TIP3   OH263412   1.864   0.642   2.917
13974TIP3    H163413   1.935   0.647   2.854
13974TIP3    H263414   1.899   0.684   2.996
13975TIP3   OH263415   3.676   0.268   3.544
13975TIP3    H163416   3.594   0.306   3.574
13975TIP3    H263417   3.654   0.226   3.461
13976TIP3   OH263418   3.654   0.229   2.017
13976TIP3    H163419   3.714   0.183   1.958
13976TIP3    H263420   3.705   0.304   2.048
13977TIP3   OH263421   1.907   0.268   2.343
13977TIP3    H163422   1.815   0.267   2.367
13977TIP3    H263423   1.916   0.342   2.284
13978TIP3   OH263424   3.383   1.798   2.557
13978TIP3    H163425   3.456   1.791   2.496
13978TIP3    H263426   3.418   1.848   2.631
13979TIP3   OH263427   1.940   0.080   3.139
13979TIP3    H163428   1.880   0.072   3.213
13979TIP3    H263429   1.912   0.159   3.094
13980TIP3   OH263430   2.130   1.503   3.594
13980TIP3    H163431   2.045   1.460   3.584
13980TIP3    H263432   2.162   1.471   3.679
13981TIP3   OH263433   2.454   1.599   3.232
13981TIP3    H163434   2.425   1.688   3.210
13981TIP3    H263435   2.548   1.599   3.212
13982TIP3   OH263436   2.821   1.717   3.513
13982TIP3    H163437   2.831   1.683   3.602
13982TIP3    H263438   2.901   1.766   3.497
13983TIP3   OH263439   3.058   1.853   3.478
13983TIP3    H163440   3.123   1.800   3.431
13983TIP3    H263441   3.106   1.887   3.554
13984TIP3   OH263442   3.619   0.105   3.326
13984TIP3    H163443   3.550   0.141   3.269
13984TIP3    H263444   3.573   0.042   3.381
13985TIP3   OH263445   2.131   1.889   3.250
13985TIP3    H163446   2.048   1.925   3.220
13985TIP3    H263447   2.151   1.938   3.330
13986TIP3   OH263448   2.398   1.861   3.169
13986TIP3    H163449   2.305   1.874   3.190
13986TIP3    H263450   2.409   1.903   3.084
13987TIP3   OH263451   2.856   1.838   3.074
13987TIP3    H163452   2.808   1.875   3.001
13987TIP3    H263453   2.868   1.912   3.134
13988TIP3   OH263454   3.081   1.709   3.167
13988TIP3    H163455   3.005   1.753   3.130
13988TIP3    H263456   3.154   1.768   3.149
13989TIP3   OH263457   3.324   1.840   3.148
13989TIP3    H163458   3.356   1.930   3.140
13989TIP3    H263459   3.364   1.793   3.074
13990TIP3   OH263460   2.106   1.732   2.910
13990TIP3    H163461   2.105   1.686   2.994
13990TIP3    H263462   2.186   1.701   2.867
13991TIP3   OH263463   2.325   1.613   2.802
13991TIP3    H163464   2.314   1.521   2.823
13991TIP3    H263465   2.412   1.635   2.835
13992TIP3   OH263466   2.585   1.639   2.911
13992TIP3    H163467   2.595   1.549   2.879
13992TIP3    H263468   2.624   1.638   2.998
13993TIP3   OH263469   2.913   0.260   2.811
13993TIP3    H163470   2.845   0.198   2.835
13993TIP3    H263471   2.976   0.208   2.760
13994TIP3   OH263472   3.382   0.023   2.768
13994TIP3    H163473   3.462   0.053   2.725
13994TIP3    H263474   3.339   0.104   2.797
13995TIP3   OH263475   3.603   0.118   2.626
13995TIP3    H163476   3.667   0.047   2.631
13995TIP3    H263477   3.654   0.197   2.643
13996TIP3   OH263478   2.225   0.057   2.553
13996TIP3    H163479   2.144   0.026   2.513
13996TIP3    H263480   2.235   0.004   2.632
13997TIP3   OH263481   2.030   0.145   2.106
13997TIP3    H163482   2.096   0.196   2.059
13997TIP3    H263483   1.995   0.204   2.173
13998TIP3   OH263484   2.638   0.115   2.577
13998TIP3    H163485   2.722   0.142   2.539
13998TIP3    H263486   2.653   0.116   2.671
13999TIP3   OH263487   3.119   0.155   2.660
13999TIP3    H163488   3.165   0.219   2.607
13999TIP3    H263489   3.146   0.070   2.625
14000TIP3   OH263490   3.328   0.085   2.316
14000TIP3    H163491   3.250   0.141   2.314
14000TIP3    H263492   3.304   0.015   2.376
14001TIP3   OH263493   2.018   1.713   2.230
14001TIP3    H163494   1.945   1.706   2.169
14001TIP3    H263495   2.047   1.804   2.222
14002TIP3   OH263496   2.234   0.290   1.993
14002TIP3    H163497   2.274   0.229   1.932
14002TIP3    H263498   2.303   0.311   2.056
14003TIP3   OH263499   2.708   0.304   2.258
14003TIP3    H163500   2.752   0.241   2.314
14003TIP3    H263501   2.722   0.389   2.301
14004TIP3   OH263502   2.925   1.774   2.074
14004TIP3    H163503   3.018   1.793   2.063
14004TIP3    H263504   2.901   1.725   1.996
14005TIP3   OH263505   3.583   1.760   2.368
14005TIP3    H163506   3.565   1.672   2.336
14005TIP3    H263507   3.570   1.816   2.292
14006TIP3   OH263508   2.127   0.209   3.500
14006TIP3    H163509   2.047   0.165   3.527
14006TIP3    H263510   2.196   0.164   3.548
14007TIP3   OH263511   2.296   0.086   3.690
14007TIP3    H163512   2.382   0.046   3.700
14007TIP3    H263513   2.235   0.013   3.689
14008TIP3   OH263514   2.235   1.749   1.929
14008TIP3    H163515   2.212   1.739   2.021
14008TIP3    H263516   2.310   1.691   1.916
14009TIP3   OH263517   3.146   0.083   3.732
14009TIP3    H163518   3.061   0.040   3.747
14009TIP3    H263519   3.211   0.016   3.752
14010TIP3   OH263520   3.486   1.631   3.568
14010TIP3    H163521   3.426   1.623   3.494
14010TIP3    H263522   3.481   1.723   3.594
14011TIP3   OH263523   4.962   1.029   2.531
14011TIP3    H163524   4.954   1.124   2.525
14011TIP3    H263525   4.891   0.996   2.477
14012TIP3   OH263526   4.844   0.940   2.933
14012TIP3    H163527   4.869   0.904   3.018
14012TIP3    H263528   4.791   0.872   2.893
14013TIP3   OH263529   4.058   0.868   3.055
14013TIP3    H163530   4.071   0.801   3.123
14013TIP3    H263531   4.146   0.892   3.028
14014TIP3   OH263532   5.233   1.237   2.753
14014TIP3    H163533   5.192   1.167   2.803
14014TIP3    H263534   5.252   1.305   2.818
14015TIP3   OH263535   4.209   1.346   2.858
14015TIP3    H163536   4.174   1.258   2.839
14015TIP3    H263537   4.302   1.332   2.872
14016TIP3   OH263538   3.837   0.675   2.401
14016TIP3    H163539   3.810   0.760   2.434
14016TIP3    H263540   3.778   0.658   2.327
14017TIP3   OH263541   3.910   0.936   2.705
14017TIP3    H163542   3.942   0.848   2.724
14017TIP3    H263543   3.987   0.993   2.717
14018TIP3   OH263544   4.960   1.697   2.818
14018TIP3    H163545   4.997   1.654   2.740
14018TIP3    H263546   4.959   1.628   2.885
14019TIP3   OH263547   4.698   1.189   2.946
14019TIP3    H163548   4.740   1.110   2.912
14019TIP3    H263549   4.762   1.224   3.009
14020TIP3   OH263550   5.587   0.360   3.044
14020TIP3    H163551   5.598   0.406   3.127
14020TIP3    H263552   5.607   0.426   2.977
14021TIP3   OH263553   4.985   0.620   2.947
14021TIP3    H163554   5.003   0.528   2.968
14021TIP3    H263555   4.979   0.622   2.852
14022TIP3   OH263556   4.342   0.423   2.670
14022TIP3    H163557   4.341   0.512   2.633
14022TIP3    H263558   4.282   0.374   2.614
14023TIP3   OH263559   5.118   0.423   2.517
14023TIP3    H163560   5.159   0.403   2.602
14023TIP3    H263561   5.185   0.472   2.470
14024TIP3   OH263562   3.988   0.677   2.769
14024TIP3    H163563   4.052   0.635   2.826
14024TIP3    H263564   4.008   0.643   2.681
14025TIP3   OH263565   4.457   0.819   2.739
14025TIP3    H163566   4.543   0.785   2.765
14025TIP3    H263567   4.423   0.755   2.677
14026TIP3   OH263568   5.606   0.506   3.272
14026TIP3    H163569   5.525   0.555   3.259
14026TIP3    H263570   5.624   0.513   3.366
14027TIP3   OH263571   4.204   0.362   3.125
14027TIP3    H163572   4.177   0.420   3.054
14027TIP3    H263573   4.135   0.369   3.190
14028TIP3   OH263574   4.932   1.287   2.434
14028TIP3    H163575   4.911   1.281   2.340
14028TIP3    H263576   4.889   1.367   2.463
14029TIP3   OH263577   4.466   1.112   3.076
14029TIP3    H163578   4.420   1.184   3.118
14029TIP3    H263579   4.540   1.153   3.031
14030TIP3   OH263580   5.216   0.393   2.771
14030TIP3    H163581   5.147   0.374   2.834
14030TIP3    H263582   5.275   0.453   2.817
14031TIP3   OH263583   4.187   0.511   2.888
14031TIP3    H163584   4.243   0.568   2.941
14031TIP3    H263585   4.245   0.472   2.823
14032TIP3   OH263586   4.323   1.312   3.201
14032TIP3    H163587   4.329   1.407   3.187
14032TIP3    H263588   4.231   1.297   3.222
14033TIP3   OH263589   3.886   1.298   2.281
14033TIP3    H163590   3.879   1.340   2.195
14033TIP3    H263591   3.908   1.369   2.341
14034TIP3   OH263592   5.262   1.439   2.947
14034TIP3    H163593   5.167   1.448   2.961
14034TIP3    H263594   5.289   1.525   2.914
14035TIP3   OH263595   5.344   0.266   3.149
14035TIP3    H163596   5.272   0.310   3.103
14035TIP3    H263597   5.422   0.293   3.101
14036TIP3   OH263598   4.552   0.107   2.843
14036TIP3    H163599   4.540   0.015   2.868
14036TIP3    H263600   4.476   0.152   2.880
14037TIP3   OH263601   5.082   1.589   2.597
14037TIP3    H163602   5.126   1.509   2.568
14037TIP3    H263603   5.149   1.658   2.589
14038TIP3   OH263604   5.195   1.355   2.506
14038TIP3    H163605   5.111   1.318   2.479
14038TIP3    H263606   5.217   1.308   2.586
14039TIP3   OH263607   5.374   1.230   3.311
14039TIP3    H163608   5.365   1.170   3.237
14039TIP3    H263609   5.387   1.316   3.271
14040TIP3   OH263610   4.810   0.936   2.315
14040TIP3    H163611   4.740   0.997   2.291
14040TIP3    H263612   4.878   0.950   2.249
14041TIP3   OH263613   4.853   0.804   1.973
14041TIP3    H163614   4.905   0.842   2.044
14041TIP3    H263615   4.916   0.754   1.922
14042TIP3   OH263616   5.532   0.889   3.142
14042TIP3    H163617   5.461   0.952   3.133
14042TIP3    H263618   5.601   0.920   3.083
14043TIP3   OH263619   5.182   0.956   2.388
14043TIP3    H163620   5.114   0.983   2.449
14043TIP3    H263621   5.249   0.916   2.444
14044TIP3   OH263622   5.142   0.765   3.344
14044TIP3    H163623   5.141   0.837   3.407
14044TIP3    H263624   5.077   0.790   3.278
14045TIP3   OH263625   4.328   1.012   2.577
14045TIP3    H163626   4.304   0.972   2.494
14045TIP3    H263627   4.381   0.947   2.621
14046TIP3   OH263628   4.491   1.362   2.846
14046TIP3    H163629   4.493   1.375   2.751
14046TIP3    H263630   4.569   1.310   2.864
14047TIP3   OH263631   4.316   0.919   2.955
14047TIP3    H163632   4.370   0.891   2.881
14047TIP3    H263633   4.368   0.987   2.998
14048TIP3   OH263634   4.994   1.454   3.009
14048TIP3    H163635   4.976   1.524   3.071
14048TIP3    H263636   4.954   1.376   3.049
14049TIP3   OH263637   4.474   1.350   3.432
14049TIP3    H163638   4.409   1.407   3.474
14049TIP3    H263639   4.433   1.319   3.352
14050TIP3   OH263640   5.044   0.907   2.155
14050TIP3    H163641   5.095   0.943   2.227
14050TIP3    H263642   5.096   0.925   2.076
14051TIP3   OH263643   4.130   0.920   3.395
14051TIP3    H163644   4.143   1.006   3.434
14051TIP3    H263645   4.040   0.919   3.365
14052TIP3   OH263646   4.832   1.537   2.492
14052TIP3    H163647   4.912   1.563   2.538
14052TIP3    H263648   4.802   1.618   2.450
14053TIP3   OH263649   4.264   1.521   3.496
14053TIP3    H163650   4.262   1.540   3.402
14053TIP3    H263651   4.173   1.506   3.519
14054TIP3   OH263652   5.399   0.043   2.137
14054TIP3    H163653   5.325   0.068   2.193
14054TIP3    H263654   5.437   0.125   2.108
14055TIP3   OH263655   4.239   0.920   2.320
14055TIP3    H163656   4.187   0.995   2.289
14055TIP3    H263657   4.181   0.845   2.312
14056TIP3   OH263658   5.556   1.484   2.010
14056TIP3    H163659   5.563   1.579   2.014
14056TIP3    H263660   5.647   1.454   2.001
14057TIP3   OH263661   3.836   1.178   3.251
14057TIP3    H163662   3.782   1.185   3.173
14057TIP3    H263663   3.848   1.083   3.264
14058TIP3   OH263664   3.797   1.467   2.939
14058TIP3    H163665   3.875   1.473   2.994
14058TIP3    H263666   3.746   1.545   2.960
14059TIP3   OH263667   5.622   1.528   3.532
14059TIP3    H163668   5.606   1.434   3.526
14059TIP3    H263669   5.539   1.565   3.563
14060TIP3   OH263670   4.714   1.474   3.377
14060TIP3    H163671   4.717   1.558   3.423
14060TIP3    H263672   4.630   1.436   3.402
14061TIP3   OH263673   4.806   1.795   2.366
14061TIP3    H163674   4.789   1.804   2.272
14061TIP3    H263675   4.777   1.877   2.404
14062TIP3   OH263676   4.138   1.703   2.550
14062TIP3    H163677   4.156   1.669   2.637
14062TIP3    H263678   4.082   1.637   2.509
14063TIP3   OH263679   5.085   1.777   2.042
14063TIP3    H163680   5.135   1.704   2.005
14063TIP3    H263681   5.098   1.769   2.137
14064TIP3   OH263682   5.080   1.761   2.320
14064TIP3    H163683   4.989   1.760   2.348
14064TIP3    H263684   5.130   1.742   2.400
14065TIP3   OH263685   5.318   0.642   3.550
14065TIP3    H163686   5.252   0.670   3.487
14065TIP3    H263687   5.329   0.549   3.534
14066TIP3   OH263688   4.064   1.325   3.299
14066TIP3    H163689   4.090   1.287   3.383
14066TIP3    H263690   3.984   1.277   3.275
14067TIP3   OH263691   4.312   0.181   2.950
14067TIP3    H163692   4.229   0.153   2.912
14067TIP3    H263693   4.288   0.241   3.021
14068TIP3   OH263694   4.783   0.139   3.338
14068TIP3    H163695   4.801   0.091   3.419
14068TIP3    H263696   4.689   0.129   3.325
14069TIP3   OH263697   5.078   0.494   3.356
14069TIP3    H163698   5.013   0.480   3.425
14069TIP3    H263699   5.088   0.589   3.351
14070TIP3   OH263700   5.182   0.914   1.918
14070TIP3    H163701   5.166   0.951   1.831
14070TIP3    H263702   5.273   0.935   1.937
14071TIP3   OH263703   4.731   0.276   2.070
14071TIP3    H163704   4.685   0.358   2.050
14071TIP3    H263705   4.705   0.216   2.001
14072TIP3   OH263706   4.331   0.665   3.069
14072TIP3    H163707   4.266   0.663   3.139
14072TIP3    H263708   4.331   0.756   3.039
14073TIP3   OH263709   4.325   0.666   2.548
14073TIP3    H163710   4.229   0.660   2.545
14073TIP3    H263711   4.353   0.647   2.459
14074TIP3   OH263712   4.879   0.693   2.420
14074TIP3    H163713   4.851   0.780   2.393
14074TIP3    H263714   4.958   0.676   2.368
14075TIP3   OH263715   4.793   0.716   3.552
14075TIP3    H163716   4.739   0.646   3.589
14075TIP3    H263717   4.879   0.705   3.593
14076TIP3   OH263718   4.970   0.619   2.675
14076TIP3    H163719   4.928   0.670   2.605
14076TIP3    H263720   5.011   0.545   2.629
14077TIP3   OH263721   4.118   0.666   3.243
14077TIP3    H163722   4.117   0.720   3.322
14077TIP3    H263723   4.074   0.585   3.270
14078TIP3   OH263724   4.470   0.378   1.918
14078TIP3    H163725   4.431   0.368   2.005
14078TIP3    H263726   4.411   0.437   1.872
14079TIP3   OH263727   3.767   0.332   2.647
14079TIP3    H163728   3.826   0.349   2.721
14079TIP3    H263729   3.798   0.392   2.579
14080TIP3   OH263730   3.804   0.446   2.126
14080TIP3    H163731   3.877   0.490   2.083
14080TIP3    H263732   3.743   0.516   2.147
14081TIP3   OH263733   4.926   0.782   3.157
14081TIP3    H163734   4.955   0.727   3.085
14081TIP3    H263735   4.863   0.727   3.205
14082TIP3   OH263736   4.617   0.398   2.630
14082TIP3    H163737   4.525   0.401   2.655
14082TIP3    H263738   4.664   0.380   2.711
14083TIP3   OH263739   4.064   0.579   2.523
14083TIP3    H163740   3.988   0.605   2.471
14083TIP3    H263741   4.080   0.488   2.498
14084TIP3   OH263742   4.399   0.575   2.299
14084TIP3    H163743   4.494   0.579   2.316
14084TIP3    H263744   4.388   0.617   2.214
14085TIP3   OH263745   5.011   0.345   2.943
14085TIP3    H163746   5.000   0.321   3.036
14085TIP3    H263747   4.924   0.332   2.905
14086TIP3   OH263748   4.376   0.658   2.043
14086TIP3    H163749   4.328   0.633   1.964
14086TIP3    H263750   4.446   0.716   2.012
14087TIP3   OH263751   5.338   1.903   3.619
14087TIP3    H163752   5.314   1.957   3.544
14087TIP3    H263753   5.420   1.942   3.651
14088TIP3   OH263754   4.128   1.170   3.529
14088TIP3    H163755   4.197   1.169   3.595
14088TIP3    H263756   4.047   1.180   3.578
14089TIP3   OH263757   4.694   0.704   2.841
14089TIP3    H163758   4.772   0.657   2.812
14089TIP3    H263759   4.665   0.657   2.919
14090TIP3   OH263760   4.167   0.314   2.479
14090TIP3    H163761   4.141   0.229   2.515
14090TIP3    H263762   4.170   0.299   2.384
14091TIP3   OH263763   4.597   0.579   3.072
14091TIP3    H163764   4.512   0.623   3.082
14091TIP3    H263765   4.646   0.603   3.150
14092TIP3   OH263766   4.614   1.117   2.241
14092TIP3    H163767   4.541   1.090   2.185
14092TIP3    H263768   4.572   1.151   2.320
14093TIP3   OH263769   5.345   1.082   3.081
14093TIP3    H163770   5.405   1.142   3.035
14093TIP3    H263771   5.272   1.070   3.020
14094TIP3   OH263772   4.999   0.458   2.099
14094TIP3    H163773   4.928   0.506   2.057
14094TIP3    H263774   5.048   0.525   2.147
14095TIP3   OH263775   4.776   1.180   3.391
14095TIP3    H163776   4.813   1.143   3.471
14095TIP3    H263777   4.765   1.273   3.410
14096TIP3   OH263778   5.105   0.650   2.260
14096TIP3    H163779   5.192   0.637   2.297
14096TIP3    H263780   5.106   0.739   2.225
14097TIP3   OH263781   4.150   1.071   2.780
14097TIP3    H163782   4.207   1.065   2.704
14097TIP3    H263783   4.194   1.020   2.848
14098TIP3   OH263784   4.827   1.273   2.172
14098TIP3    H163785   4.795   1.364   2.174
14098TIP3    H263786   4.750   1.220   2.194
14099TIP3   OH263787   3.856   0.908   3.333
14099TIP3    H163788   3.825   0.866   3.414
14099TIP3    H263789   3.789   0.886   3.268
14100TIP3   OH263790   4.582   0.901   3.568
14100TIP3    H163791   4.518   0.860   3.510
14100TIP3    H263792   4.663   0.853   3.551
14101TIP3   OH263793   4.992   1.442   3.384
14101TIP3    H163794   4.904   1.461   3.352
14101TIP3    H263795   4.991   1.467   3.476
14102TIP3   OH263796   5.509   0.662   2.203
14102TIP3    H163797   5.463   0.635   2.124
14102TIP3    H263798   5.533   0.753   2.187
14103TIP3   OH263799   5.588   1.250   3.481
14103TIP3    H163800   5.499   1.256   3.445
14103TIP3    H263801   5.644   1.235   3.405
14104TIP3   OH263802   5.417   1.517   2.263
14104TIP3    H163803   5.357   1.451   2.298
14104TIP3    H263804   5.444   1.482   2.178
14105TIP3   OH263805   5.132   1.019   2.902
14105TIP3    H163806   5.037   1.013   2.905
14105TIP3    H263807   5.160   0.940   2.855
14106TIP3   OH263808   4.416   1.445   2.587
14106TIP3    H163809   4.441   1.528   2.546
14106TIP3    H263810   4.322   1.453   2.602
14107TIP3   OH263811   3.976   0.895   2.047
14107TIP3    H163812   4.019   0.966   2.095
14107TIP3    H263813   3.884   0.901   2.072
14108TIP3   OH263814   4.474   1.214   2.450
14108TIP3    H163815   4.467   1.297   2.497
14108TIP3    H263816   4.422   1.153   2.502
14109TIP3   OH263817   4.594   1.618   3.161
14109TIP3    H163818   4.651   1.692   3.138
14109TIP3    H263819   4.650   1.561   3.214
14110TIP3   OH263820   4.403   1.700   2.473
14110TIP3    H163821   4.311   1.718   2.490
14110TIP3    H263822   4.449   1.778   2.505
14111TIP3   OH263823   4.895   1.224   3.143
14111TIP3    H163824   4.846   1.209   3.224
14111TIP3    H263825   4.981   1.185   3.159
14112TIP3   OH263826   5.199   1.324   2.025
14112TIP3    H163827   5.220   1.271   2.101
14112TIP3    H263828   5.110   1.297   2.000
14113TIP3   OH263829   5.208   1.617   3.341
14113TIP3    H163830   5.125   1.571   3.346
14113TIP3    H263831   5.191   1.691   3.283
14114TIP3   OH263832   5.592   1.756   2.034
14114TIP3    H163833   5.636   1.826   1.985
14114TIP3    H263834   5.518   1.800   2.076
14115TIP3   OH263835   3.999   0.411   3.298
14115TIP3    H163836   3.905   0.430   3.287
14115TIP3    H263837   4.002   0.341   3.364
14116TIP3   OH263838   5.286   1.160   2.226
14116TIP3    H163839   5.244   1.104   2.291
14116TIP3    H263840   5.378   1.162   2.251
14117TIP3   OH263841   3.988   1.557   3.135
14117TIP3    H163842   4.026   1.480   3.180
14117TIP3    H263843   3.979   1.622   3.204
14118TIP3   OH263844   4.558   1.416   1.892
14118TIP3    H163845   4.562   1.332   1.847
14118TIP3    H263846   4.519   1.396   1.977
14119TIP3   OH263847   4.427   1.389   2.138
14119TIP3    H163848   4.463   1.344   2.214
14119TIP3    H263849   4.435   1.482   2.159
14120TIP3   OH263850   4.075   1.108   2.201
14120TIP3    H163851   4.006   1.158   2.245
14120TIP3    H263852   4.121   1.173   2.147
14121TIP3   OH263853   4.963   0.295   3.201
14121TIP3    H163854   4.998   0.358   3.265
14121TIP3    H263855   4.900   0.243   3.251
14122TIP3   OH263856   4.991   0.282   2.308
14122TIP3    H163857   5.001   0.340   2.233
14122TIP3    H263858   5.024   0.332   2.382
14123TIP3   OH263859   4.724   1.524   2.178
14123TIP3    H163860   4.637   1.559   2.199
14123TIP3    H263861   4.777   1.601   2.158
14124TIP3   OH263862   4.659   0.532   2.394
14124TIP3    H163863   4.733   0.592   2.395
14124TIP3    H263864   4.648   0.507   2.485
14125TIP3   OH263865   4.761   0.607   3.299
14125TIP3    H163866   4.765   0.655   3.382
14125TIP3    H263867   4.785   0.517   3.323
14126TIP3   OH263868   4.786   0.200   2.514
14126TIP3    H163869   4.748   0.278   2.555
14126TIP3    H263870   4.861   0.179   2.569
14127TIP3   OH263871   4.478   1.645   2.215
14127TIP3    H163872   4.488   1.729   2.171
14127TIP3    H263873   4.452   1.668   2.304
14128TIP3   OH263874   4.349   0.328   2.163
14128TIP3    H163875   4.326   0.415   2.195
14128TIP3    H263876   4.422   0.301   2.219
14129TIP3   OH263877   5.332   0.400   3.398
14129TIP3    H163878   5.240   0.422   3.385
14129TIP3    H263879   5.356   0.348   3.321
14130TIP3   OH263880   5.205   0.769   2.780
14130TIP3    H163881   5.120   0.729   2.763
14130TIP3    H263882   5.248   0.709   2.841
14131TIP3   OH263883   4.181   1.308   2.038
14131TIP3    H163884   4.255   1.354   2.077
14131TIP3    H263885   4.219   1.256   1.968
14132TIP3   OH263886   3.975   0.620   2.001
14132TIP3    H163887   3.983   0.713   2.022
14132TIP3    H263888   3.977   0.616   1.906
14133TIP3   OH263889   5.351   1.694   2.890
14133TIP3    H163890   5.329   1.774   2.842
14133TIP3    H263891   5.436   1.712   2.930
14134TIP3   OH263892   4.048   0.091   2.892
14134TIP3    H163893   4.091   0.017   2.849
14134TIP3    H263894   4.013   0.055   2.974
14135TIP3   OH263895   3.944   1.529   2.435
14135TIP3    H163896   3.890   1.557   2.510
14135TIP3    H263897   3.925   1.593   2.367
14136TIP3   OH263898   3.923   1.794   3.579
14136TIP3    H163899   3.983   1.770   3.650
14136TIP3    H263900   3.869   1.716   3.566
14137TIP3   OH263901   4.336   1.619   3.743
14137TIP3    H163902   4.415   1.572   3.771
14137TIP3    H263903   4.316   1.582   3.656
14138TIP3   OH263904   4.754   1.611   1.869
14138TIP3    H163905   4.689   1.542   1.885
14138TIP3    H263906   4.832   1.563   1.841
14139TIP3   OH263907   4.982   1.502   3.650
14139TIP3    H163908   4.962   1.416   3.688
14139TIP3    H263909   5.060   1.531   3.696
14140TIP3   OH263910   5.215   1.574   1.911
14140TIP3    H163911   5.227   1.492   1.959
14140TIP3    H263912   5.286   1.575   1.847
14141TIP3   OH263913   3.890   1.176   3.674
14141TIP3    H163914   3.888   1.080   3.668
14141TIP3    H263915   3.819   1.205   3.617
14142TIP3   OH263916   4.310   1.132   1.874
14142TIP3    H163917   4.335   1.084   1.953
14142TIP3    H263918   4.394   1.149   1.830
14143TIP3   OH263919   4.557   1.177   3.632
14143TIP3    H163920   4.546   1.224   3.549
14143TIP3    H263921   4.586   1.090   3.606
14144TIP3   OH263922   4.950   1.258   1.927
14144TIP3    H163923   4.899   1.258   2.009
14144TIP3    H263924   4.917   1.182   1.878
14145TIP3   OH263925   5.108   1.191   3.374
14145TIP3    H163926   5.200   1.211   3.359
14145TIP3    H263927   5.064   1.276   3.377
14146TIP3   OH263928   3.958   0.906   3.653
14146TIP3    H163929   4.042   0.876   3.618
14146TIP3    H263930   3.968   0.897   3.748
14147TIP3   OH263931   4.406   0.999   2.100
14147TIP3    H163932   4.359   0.956   2.171
14147TIP3    H263933   4.460   0.929   2.062
14148TIP3   OH263934   4.389   0.793   3.385
14148TIP3    H163935   4.308   0.844   3.382
14148TIP3    H263936   4.445   0.832   3.318
14149TIP3   OH263937   4.575   0.825   1.959
14149TIP3    H163938   4.570   0.855   1.868
14149TIP3    H263939   4.669   0.817   1.976
14150TIP3   OH263940   4.889   1.022   3.652
14150TIP3    H163941   4.972   0.993   3.613
14150TIP3    H263942   4.867   0.953   3.715
14151TIP3   OH263943   5.443   1.007   1.916
14151TIP3    H163944   5.447   0.984   1.823
14151TIP3    H263945   5.443   1.103   1.917
14152TIP3   OH263946   4.418   0.530   3.458
14152TIP3    H163947   4.432   0.474   3.381
14152TIP3    H263948   4.411   0.618   3.421
14153TIP3   OH263949   4.459   0.375   3.225
14153TIP3    H163950   4.513   0.424   3.162
14153TIP3    H263951   4.371   0.377   3.188
14154TIP3   OH263952   4.574   0.902   3.218
14154TIP3    H163953   4.662   0.930   3.245
14154TIP3    H263954   4.540   0.976   3.168
14155TIP3   OH263955   5.026   0.648   3.705
14155TIP3    H163956   5.044   0.554   3.712
14155TIP3    H263957   5.110   0.690   3.726
14156TIP3   OH263958   5.156   0.974   3.534
14156TIP3    H163959   5.128   1.050   3.483
14156TIP3    H263960   5.251   0.977   3.533
14157TIP3   OH263961   4.265   0.588   3.681
14157TIP3    H163962   4.179   0.546   3.668
14157TIP3    H263963   4.311   0.574   3.599
14158TIP3   OH263964   4.502   0.107   3.288
14158TIP3    H163965   4.490   0.200   3.271
14158TIP3    H263966   4.417   0.067   3.271
14159TIP3   OH263967   4.636   0.506   3.626
14159TIP3    H163968   4.606   0.465   3.707
14159TIP3    H263969   4.559   0.507   3.570
14160TIP3   OH263970   4.884   0.420   3.529
14160TIP3    H163971   4.797   0.431   3.568
14160TIP3    H263972   4.936   0.380   3.598
14161TIP3   OH263973   5.070   0.345   3.732
14161TIP3    H163974   5.057   0.251   3.720
14161TIP3    H263975   5.056   0.359   3.826
14162TIP3   OH263976   4.038   0.434   3.653
14162TIP3    H163977   4.040   0.358   3.596
14162TIP3    H263978   4.055   0.399   3.741
14163TIP3   OH263979   4.512   0.062   3.563
14163TIP3    H163980   4.472  -0.022   3.588
14163TIP3    H263981   4.514   0.060   3.467
14164TIP3   OH263982   4.633   0.218   3.753
14164TIP3    H163983   4.609   0.154   3.686
14164TIP3    H263984   4.554   0.270   3.766
14165TIP3   OH263985   4.556   1.881   2.095
14165TIP3    H163986   4.648   1.853   2.092
14165TIP3    H263987   4.549   1.946   2.025
14166TIP3   OH263988   3.916   1.363   1.993
14166TIP3    H163989   4.010   1.354   2.013
14166TIP3    H263990   3.899   1.292   1.931
14167TIP3   OH263991   3.777   1.844   2.544
14167TIP3    H163992   3.721   1.815   2.472
14167TIP3    H263993   3.796   1.764   2.593
14168TIP3   OH263994   3.849   1.620   2.694
14168TIP3    H163995   3.814   1.544   2.739
14168TIP3    H263996   3.897   1.668   2.761
14169TIP3   OH263997   5.589   1.737   3.028
14169TIP3    H163998   5.579   1.717   3.121
14169TIP3    H263999   5.634   1.822   3.026
14170TIP3   OH264000   5.555   1.673   3.296
14170TIP3    H164001   5.499   1.603   3.262
14170TIP3    H264002   5.595   1.635   3.374
14171TIP3   OH264003   5.398   1.282   3.790
14171TIP3    H164004   5.317   1.293   3.840
14171TIP3    H264005   5.455   1.352   3.820
14172TIP3   OH264006   5.551   1.130   2.311
14172TIP3    H164007   5.621   1.195   2.311
14172TIP3    H264008   5.568   1.077   2.390
14173TIP3   OH264009   5.600   0.938   2.510
14173TIP3    H164010   5.516   0.907   2.543
14173TIP3    H264011   5.654   0.950   2.588
14174TIP3   OH264012   5.580   1.224   3.019
14174TIP3    H164013   5.636   1.163   2.971
14174TIP3    H264014   5.606   1.310   2.987
14175TIP3   OH264015   5.389   1.476   3.194
14175TIP3    H164016   5.319   1.524   3.238
14175TIP3    H264017   5.356   1.463   3.105
14176TIP3   OH264018   5.573   0.919   2.138
14176TIP3    H164019   5.530   0.941   2.056
14176TIP3    H264020   5.557   0.994   2.195
14177TIP3   OH264021   5.402   0.608   1.962
14177TIP3    H164022   5.483   0.640   1.922
14177TIP3    H264023   5.370   0.541   1.901
14178TIP3   OH264024   5.354   0.801   2.550
14178TIP3    H164025   5.352   0.710   2.522
14178TIP3    H264026   5.307   0.802   2.634
14179TIP3   OH264027   3.828   0.980   2.962
14179TIP3    H164028   3.839   0.970   2.867
14179TIP3    H264029   3.911   0.949   2.999
14180TIP3   OH264030   5.433   0.984   3.521
14180TIP3    H164031   5.489   0.909   3.500
14180TIP3    H264032   5.478   1.059   3.482
14181TIP3   OH264033   5.564   0.744   3.489
14181TIP3    H164034   5.477   0.711   3.513
14181TIP3    H264035   5.624   0.674   3.515
14182TIP3   OH264036   5.341   0.363   1.842
14182TIP3    H164037   5.378   0.326   1.922
14182TIP3    H264038   5.247   0.346   1.848
14183TIP3   OH264039   5.343   0.540   2.388
14183TIP3    H164040   5.379   0.452   2.394
14183TIP3    H264041   5.402   0.586   2.329
14184TIP3   OH264042   5.354   0.579   2.930
14184TIP3    H164043   5.447   0.589   2.910
14184TIP3    H264044   5.347   0.601   3.023
14185TIP3   OH264045   5.378   0.667   3.194
14185TIP3    H164046   5.303   0.698   3.246
14185TIP3    H264047   5.433   0.744   3.184
14186TIP3   OH264048   3.805   0.510   3.532
14186TIP3    H164049   3.890   0.497   3.575
14186TIP3    H264050   3.758   0.429   3.547
14187TIP3   OH264051   5.599   0.033   3.731
14187TIP3    H164052   5.680  -0.007   3.700
14187TIP3    H264053   5.588   0.112   3.679
14188TIP3   OH264054   5.422   0.265   2.395
14188TIP3    H164055   5.444   0.229   2.481
14188TIP3    H264056   5.347   0.212   2.366
14189TIP3   OH264057   3.952   0.353   2.849
14189TIP3    H164058   3.986   0.264   2.866
14189TIP3    H264059   4.027   0.410   2.866
14190TIP3   OH264060   3.752   0.634   2.919
14190TIP3    H164061   3.824   0.644   2.856
14190TIP3    H264062   3.775   0.691   2.991
14191TIP3   OH264063   5.564   0.258   3.559
14191TIP3    H164064   5.483   0.298   3.590
14191TIP3    H264065   5.540   0.220   3.474
14192TIP3   OH264066   5.529   0.262   2.028
14192TIP3    H164067   5.599   0.223   1.976
14192TIP3    H264068   5.571   0.337   2.071
14193TIP3   OH264069   3.784   0.257   2.321
14193TIP3    H164070   3.692   0.259   2.351
14193TIP3    H264071   3.793   0.333   2.264
14194TIP3   OH264072   5.258   1.787   2.544
14194TIP3    H164073   5.340   1.785   2.495
14194TIP3    H264074   5.276   1.846   2.618
14195TIP3   OH264075   3.826   0.082   3.140
14195TIP3    H164076   3.763   0.075   3.212
14195TIP3    H264077   3.801   0.162   3.094
14196TIP3   OH264078   4.010   1.492   3.602
14196TIP3    H164079   3.922   1.504   3.568
14196TIP3    H264080   3.996   1.460   3.692
14197TIP3   OH264081   4.331   1.588   3.230
14197TIP3    H164082   4.294   1.674   3.207
14197TIP3    H264083   4.424   1.596   3.209
14198TIP3   OH264084   4.742   1.721   3.503
14198TIP3    H164085   4.750   1.692   3.594
14198TIP3    H264086   4.824   1.766   3.485
14199TIP3   OH264087   4.969   1.889   3.476
14199TIP3    H164088   5.044   1.925   3.428
14199TIP3    H264089   4.995   1.893   3.568
14200TIP3   OH264090   5.507   0.113   3.324
14200TIP3    H164091   5.433   0.137   3.268
14200TIP3    H264092   5.474   0.042   3.379
14201TIP3   OH264093   3.978   1.814   3.288
14201TIP3    H164094   3.921   1.882   3.251
14201TIP3    H264095   3.950   1.808   3.379
14202TIP3   OH264096   4.239   1.850   3.209
14202TIP3    H164097   4.143   1.840   3.208
14202TIP3    H264098   4.259   1.893   3.126
14203TIP3   OH264099   4.735   1.839   3.085
14203TIP3    H164100   4.729   1.889   3.003
14203TIP3    H264101   4.755   1.905   3.151
14204TIP3   OH264102   4.947   1.676   3.155
14204TIP3    H164103   4.878   1.735   3.125
14204TIP3    H264104   5.028   1.728   3.146
14205TIP3   OH264105   5.183   1.812   3.143
14205TIP3    H164106   5.192   1.888   3.201
14205TIP3    H264107   5.235   1.834   3.066
14206TIP3   OH264108   3.999   1.731   2.915
14206TIP3    H164109   3.991   1.675   2.993
14206TIP3    H264110   4.078   1.699   2.871
14207TIP3   OH264111   4.215   1.611   2.800
14207TIP3    H164112   4.203   1.519   2.823
14207TIP3    H264113   4.302   1.634   2.833
14208TIP3   OH264114   4.472   1.636   2.911
14208TIP3    H164115   4.485   1.547   2.879
14208TIP3    H264116   4.512   1.637   2.998
14209TIP3   OH264117   4.775   0.270   2.816
14209TIP3    H164118   4.703   0.215   2.846
14209TIP3    H264119   4.841   0.208   2.784
14210TIP3   OH264120   5.264   0.054   2.742
14210TIP3    H164121   5.345   0.078   2.697
14210TIP3    H264122   5.267   0.104   2.824
14211TIP3   OH264123   5.508   0.148   2.634
14211TIP3    H164124   5.572   0.081   2.657
14211TIP3    H264125   5.556   0.231   2.639
14212TIP3   OH264126   4.121   0.049   2.545
14212TIP3    H164127   4.041   0.024   2.499
14212TIP3    H264128   4.125  -0.009   2.620
14213TIP3   OH264129   3.966   0.140   2.127
14213TIP3    H164130   4.001   0.199   2.061
14213TIP3    H264131   3.897   0.191   2.170
14214TIP3   OH264132   4.536   0.098   2.567
14214TIP3    H164133   4.629   0.116   2.551
14214TIP3    H264134   4.527   0.100   2.663
14215TIP3   OH264135   4.978   0.123   2.697
14215TIP3    H164136   5.061   0.167   2.684
14215TIP3    H264137   5.000   0.042   2.744
14216TIP3   OH264138   5.206   0.105   2.324
14216TIP3    H164139   5.127   0.158   2.313
14216TIP3    H264140   5.182   0.038   2.387
14217TIP3   OH264141   3.899   1.710   2.234
14217TIP3    H164142   3.827   1.705   2.171
14217TIP3    H264143   3.934   1.799   2.224
14218TIP3   OH264144   4.134   0.295   1.969
14218TIP3    H164145   4.156   0.216   1.919
14218TIP3    H264146   4.204   0.302   2.035
14219TIP3   OH264147   4.563   0.283   2.334
14219TIP3    H164148   4.529   0.251   2.418
14219TIP3    H264149   4.586   0.374   2.350
14220TIP3   OH264150   4.811   1.776   2.079
14220TIP3    H164151   4.905   1.794   2.067
14220TIP3    H264152   4.786   1.729   2.000
14221TIP3   OH264153   5.473   1.763   2.369
14221TIP3    H164154   5.456   1.674   2.337
14221TIP3    H264155   5.456   1.819   2.293
14222TIP3   OH264156   4.033   0.206   3.498
14222TIP3    H164157   3.964   0.141   3.513
14222TIP3    H264158   4.109   0.172   3.545
14223TIP3   OH264159   4.252   0.138   3.659
14223TIP3    H164160   4.339   0.160   3.626
14223TIP3    H264161   4.263   0.053   3.702
14224TIP3   OH264162   4.115   1.750   1.923
14224TIP3    H164163   4.094   1.751   2.017
14224TIP3    H264164   4.190   1.691   1.916
14225TIP3   OH264165   5.019   0.072   3.703
14225TIP3    H164166   4.937   0.022   3.704
14225TIP3    H264167   5.085   0.009   3.731
14226TIP3   OH264168   5.368   1.631   3.572
14226TIP3    H164169   5.313   1.621   3.495
14226TIP3    H264170   5.359   1.723   3.596
14227TIP3   OH264171   6.853   1.037   2.526
14227TIP3    H164172   6.836   1.131   2.518
14227TIP3    H264173   6.783   0.997   2.474
14228TIP3   OH264174   6.716   0.943   2.930
14228TIP3    H164175   6.741   0.904   3.014
14228TIP3    H264176   6.670   0.873   2.884
14229TIP3   OH264177   5.939   0.877   3.087
14229TIP3    H164178   5.946   0.796   3.138
14229TIP3    H264179   6.002   0.936   3.129
14230TIP3   OH264180   7.083   1.268   2.768
14230TIP3    H164181   7.051   1.188   2.809
14230TIP3    H264182   7.113   1.323   2.841
14231TIP3   OH264183   6.104   1.337   2.836
14231TIP3    H164184   6.067   1.248   2.831
14231TIP3    H264185   6.195   1.323   2.863
14232TIP3   OH264186   5.716   0.721   2.383
14232TIP3    H164187   5.683   0.799   2.429
14232TIP3    H264188   5.640   0.690   2.334
14233TIP3   OH264189   5.801   0.933   2.707
14233TIP3    H164190   5.828   0.844   2.726
14233TIP3    H264191   5.880   0.986   2.721
14234TIP3   OH264192   6.838   1.700   2.809
14234TIP3    H164193   6.864   1.643   2.736
14234TIP3    H264194   6.823   1.639   2.882
14235TIP3   OH264195   6.583   1.191   2.942
14235TIP3    H164196   6.620   1.107   2.916
14235TIP3    H264197   6.648   1.229   3.001
14236TIP3   OH264198   6.902   0.621   2.945
14236TIP3    H164199   6.911   0.528   2.968
14236TIP3    H264200   6.863   0.619   2.857
14237TIP3   OH264201   6.222   0.427   2.686
14237TIP3    H164202   6.225   0.511   2.641
14237TIP3    H264203   6.170   0.370   2.629
14238TIP3   OH264204   6.985   0.438   2.547
14238TIP3    H164205   7.026   0.388   2.618
14238TIP3    H264206   7.058   0.470   2.494
14239TIP3   OH264207   5.864   0.668   2.764
14239TIP3    H164208   5.930   0.634   2.824
14239TIP3    H264209   5.875   0.617   2.684
14240TIP3   OH264210   6.362   0.820   2.722
14240TIP3    H164211   6.445   0.783   2.754
14240TIP3    H264212   6.321   0.749   2.674
14241TIP3   OH264213   6.083   0.351   3.112
14241TIP3    H164214   6.058   0.415   3.045
14241TIP3    H264215   6.014   0.358   3.179
14242TIP3   OH264216   6.812   1.293   2.427
14242TIP3    H164217   6.800   1.294   2.332
14242TIP3    H264218   6.760   1.367   2.459
14243TIP3   OH264219   6.354   1.117   3.081
14243TIP3    H164220   6.303   1.189   3.119
14243TIP3    H264221   6.427   1.160   3.037
14244TIP3   OH264222   7.095   0.307   2.769
14244TIP3    H164223   7.022   0.314   2.831
14244TIP3    H264224   7.164   0.361   2.808
14245TIP3   OH264225   6.064   0.520   2.892
14245TIP3    H164226   6.118   0.578   2.947
14245TIP3    H264227   6.127   0.480   2.832
14246TIP3   OH264228   6.203   1.321   3.194
14246TIP3    H164229   6.213   1.416   3.188
14246TIP3    H264230   6.112   1.308   3.221
14247TIP3   OH264231   5.772   1.302   2.283
14247TIP3    H164232   5.760   1.349   2.200
14247TIP3    H264233   5.792   1.371   2.346
14248TIP3   OH264234   7.116   1.448   2.985
14248TIP3    H164235   7.021   1.461   2.988
14248TIP3    H264236   7.151   1.533   2.960
14249TIP3   OH264237   7.195   0.284   3.121
14249TIP3    H164238   7.100   0.282   3.115
14249TIP3    H264239   7.222   0.346   3.053
14250TIP3   OH264240   6.468   0.100   2.851
14250TIP3    H164241   6.481   0.021   2.903
14250TIP3    H264242   6.386   0.138   2.885
14251TIP3   OH264243   6.949   1.598   2.570
14251TIP3    H164244   6.988   1.511   2.555
14251TIP3    H264245   7.024   1.655   2.586
14252TIP3   OH264246   7.071   1.362   2.510
14252TIP3    H164247   6.992   1.317   2.481
14252TIP3    H264248   7.092   1.323   2.594
14253TIP3   OH264249   7.222   1.188   3.331
14253TIP3    H164250   7.216   1.140   3.248
14253TIP3    H264251   7.252   1.275   3.306
14254TIP3   OH264252   6.707   0.937   2.307
14254TIP3    H164253   6.648   1.008   2.282
14254TIP3    H264254   6.777   0.940   2.242
14255TIP3   OH264255   6.755   0.815   1.955
14255TIP3    H164256   6.809   0.840   2.030
14255TIP3    H264257   6.807   0.748   1.909
14256TIP3   OH264258   7.074   0.976   2.380
14256TIP3    H164259   7.005   1.004   2.439
14256TIP3    H264260   7.124   0.911   2.430
14257TIP3   OH264261   7.000   0.784   3.343
14257TIP3    H164262   6.987   0.853   3.409
14257TIP3    H264263   6.933   0.801   3.277
14258TIP3   OH264264   6.229   1.005   2.568
14258TIP3    H164265   6.193   0.945   2.503
14258TIP3    H264266   6.286   0.951   2.623
14259TIP3   OH264267   6.386   1.364   2.841
14259TIP3    H164268   6.392   1.370   2.745
14259TIP3    H264269   6.461   1.309   2.865
14260TIP3   OH264270   6.226   0.921   2.942
14260TIP3    H164271   6.286   0.895   2.872
14260TIP3    H264272   6.273   0.988   2.991
14261TIP3   OH264273   6.845   1.490   3.014
14261TIP3    H164274   6.842   1.552   3.087
14261TIP3    H264275   6.815   1.407   3.052
14262TIP3   OH264276   6.356   1.336   3.427
14262TIP3    H164277   6.293   1.392   3.471
14262TIP3    H264278   6.313   1.310   3.346
14263TIP3   OH264279   6.944   0.901   2.150
14263TIP3    H164280   6.991   0.932   2.227
14263TIP3    H264281   6.993   0.937   2.076
14264TIP3   OH264282   6.035   0.951   3.366
14264TIP3    H164283   6.044   1.031   3.419
14264TIP3    H264284   5.940   0.941   3.354
14265TIP3   OH264285   6.693   1.534   2.488
14265TIP3    H164286   6.774   1.565   2.529
14265TIP3    H264287   6.656   1.612   2.447
14266TIP3   OH264288   6.154   1.509   3.497
14266TIP3    H164289   6.155   1.548   3.410
14266TIP3    H264290   6.061   1.504   3.520
14267TIP3   OH264291   7.158   0.071   2.030
14267TIP3    H164292   7.127   0.070   2.120
14267TIP3    H264293   7.249   0.100   2.036
14268TIP3   OH264294   6.105   0.875   2.279
14268TIP3    H164295   6.071   0.964   2.265
14268TIP3    H264296   6.147   0.852   2.196
14269TIP3   OH264297   5.725   1.178   3.257
14269TIP3    H164298   5.672   1.187   3.178
14269TIP3    H264299   5.734   1.084   3.269
14270TIP3   OH264300   5.684   1.482   2.956
14270TIP3    H164301   5.761   1.495   3.011
14270TIP3    H264302   5.630   1.560   2.969
14271TIP3   OH264303   6.590   1.470   3.377
14271TIP3    H164304   6.587   1.553   3.424
14271TIP3    H264305   6.507   1.427   3.397
14272TIP3   OH264306   6.679   1.807   2.358
14272TIP3    H164307   6.645   1.812   2.268
14272TIP3    H264308   6.643   1.886   2.400
14273TIP3   OH264309   6.026   1.699   2.548
14273TIP3    H164310   6.044   1.668   2.637
14273TIP3    H264311   5.968   1.634   2.511
14274TIP3   OH264312   6.963   1.771   2.045
14274TIP3    H164313   7.011   1.698   2.005
14274TIP3    H264314   6.972   1.756   2.139
14275TIP3   OH264315   6.943   1.743   2.321
14275TIP3    H164316   6.850   1.763   2.333
14275TIP3    H264317   6.964   1.682   2.391
14276TIP3   OH264318   7.190   0.714   3.573
14276TIP3    H164319   7.147   0.741   3.492
14276TIP3    H264320   7.245   0.640   3.548
14277TIP3   OH264321   5.951   1.330   3.304
14277TIP3    H164322   5.973   1.301   3.393
14277TIP3    H264323   5.870   1.283   3.283
14278TIP3   OH264324   6.227   0.176   2.957
14278TIP3    H164325   6.181   0.092   2.964
14278TIP3    H264326   6.178   0.236   3.013
14279TIP3   OH264327   6.646   0.127   3.301
14279TIP3    H164328   6.670   0.092   3.387
14279TIP3    H264329   6.551   0.139   3.305
14280TIP3   OH264330   7.026   0.513   3.393
14280TIP3    H164331   6.946   0.485   3.438
14280TIP3    H264332   7.010   0.604   3.370
14281TIP3   OH264333   7.082   1.003   1.936
14281TIP3    H164334   7.059   0.986   1.845
14281TIP3    H264335   7.134   1.084   1.933
14282TIP3   OH264336   6.622   0.354   2.052
14282TIP3    H164337   6.568   0.351   2.132
14282TIP3    H264338   6.587   0.284   1.997
14283TIP3   OH264339   6.211   0.675   3.065
14283TIP3    H164340   6.148   0.675   3.137
14283TIP3    H264341   6.209   0.764   3.032
14284TIP3   OH264342   6.197   0.663   2.550
14284TIP3    H164343   6.102   0.652   2.543
14284TIP3    H264344   6.230   0.647   2.462
14285TIP3   OH264345   6.747   0.692   2.424
14285TIP3    H164346   6.727   0.780   2.392
14285TIP3    H264347   6.821   0.663   2.370
14286TIP3   OH264348   6.681   0.713   3.545
14286TIP3    H164349   6.630   0.641   3.582
14286TIP3    H264350   6.767   0.706   3.586
14287TIP3   OH264351   6.819   0.616   2.685
14287TIP3    H164352   6.789   0.671   2.613
14287TIP3    H264353   6.873   0.549   2.644
14288TIP3   OH264354   6.002   0.657   3.246
14288TIP3    H164355   6.018   0.694   3.333
14288TIP3    H264356   5.959   0.573   3.264
14289TIP3   OH264357   6.323   0.408   1.920
14289TIP3    H164358   6.283   0.398   2.006
14289TIP3    H264359   6.271   0.475   1.876
14290TIP3   OH264360   5.702   0.348   2.584
14290TIP3    H164361   5.754   0.351   2.664
14290TIP3    H264362   5.752   0.292   2.525
14291TIP3   OH264363   5.694   0.451   2.165
14291TIP3    H164364   5.768   0.492   2.119
14291TIP3    H264365   5.630   0.521   2.175
14292TIP3   OH264366   6.800   0.784   3.145
14292TIP3    H164367   6.840   0.727   3.078
14292TIP3    H264368   6.738   0.727   3.191
14293TIP3   OH264369   6.500   0.411   2.643
14293TIP3    H164370   6.413   0.404   2.681
14293TIP3    H264371   6.559   0.382   2.713
14294TIP3   OH264372   5.941   0.561   2.474
14294TIP3    H164373   5.847   0.547   2.479
14294TIP3    H264374   5.978   0.473   2.478
14295TIP3   OH264375   6.266   0.592   2.295
14295TIP3    H164376   6.359   0.585   2.318
14295TIP3    H264377   6.266   0.643   2.214
14296TIP3   OH264378   6.894   0.342   2.960
14296TIP3    H164379   6.870   0.331   3.052
14296TIP3    H264380   6.814   0.322   2.912
14297TIP3   OH264381   6.236   0.729   2.058
14297TIP3    H164382   6.188   0.691   1.984
14297TIP3    H264383   6.319   0.758   2.021
14298TIP3   OH264384   7.229   1.905   3.664
14298TIP3    H164385   7.300   1.946   3.614
14298TIP3    H264386   7.242   1.936   3.753
14299TIP3   OH264387   6.021   1.166   3.544
14299TIP3    H164388   6.088   1.161   3.613
14299TIP3    H264389   5.939   1.181   3.590
14300TIP3   OH264390   6.587   0.705   2.835
14300TIP3    H164391   6.656   0.653   2.794
14300TIP3    H264392   6.559   0.652   2.910
14301TIP3   OH264393   6.055   0.308   2.487
14301TIP3    H164394   6.018   0.230   2.529
14301TIP3    H264395   6.112   0.273   2.419
14302TIP3   OH264396   6.478   0.584   3.064
14302TIP3    H164397   6.395   0.630   3.074
14302TIP3    H264398   6.527   0.606   3.143
14303TIP3   OH264399   6.537   1.144   2.235
14303TIP3    H164400   6.469   1.126   2.171
14303TIP3    H264401   6.490   1.176   2.312
14304TIP3   OH264402   7.193   1.060   3.091
14304TIP3    H164403   7.270   1.047   3.036
14304TIP3    H264404   7.120   1.060   3.029
14305TIP3   OH264405   6.883   0.401   2.115
14305TIP3    H164406   6.790   0.401   2.092
14305TIP3    H264407   6.897   0.488   2.153
14306TIP3   OH264408   6.650   1.175   3.367
14306TIP3    H164409   6.691   1.142   3.447
14306TIP3    H264410   6.625   1.265   3.389
14307TIP3   OH264411   6.958   0.632   2.251
14307TIP3    H164412   7.044   0.608   2.287
14307TIP3    H264413   6.971   0.719   2.213
14308TIP3   OH264414   6.044   1.054   2.778
14308TIP3    H164415   6.105   1.054   2.704
14308TIP3    H264416   6.088   1.005   2.847
14309TIP3   OH264417   6.752   1.293   2.150
14309TIP3    H164418   6.714   1.381   2.155
14309TIP3    H264419   6.681   1.234   2.176
14310TIP3   OH264420   5.757   0.919   3.364
14310TIP3    H164421   5.762   0.900   3.457
14310TIP3    H264422   5.685   0.864   3.332
14311TIP3   OH264423   6.468   0.898   3.568
14311TIP3    H164424   6.402   0.859   3.512
14311TIP3    H264425   6.548   0.848   3.549
14312TIP3   OH264426   6.874   1.457   3.378
14312TIP3    H164427   6.782   1.467   3.354
14312TIP3    H264428   6.876   1.472   3.473
14313TIP3   OH264429   7.282   1.506   2.199
14313TIP3    H164430   7.218   1.479   2.264
14313TIP3    H264431   7.345   1.434   2.195
14314TIP3   OH264432   6.990   1.035   2.899
14314TIP3    H164433   6.895   1.022   2.901
14314TIP3    H264434   7.022   0.961   2.847
14315TIP3   OH264435   6.297   1.439   2.580
14315TIP3    H164436   6.312   1.525   2.541
14315TIP3    H264437   6.215   1.448   2.627
14316TIP3   OH264438   5.844   0.882   2.143
14316TIP3    H164439   5.879   0.970   2.152
14316TIP3    H264440   5.750   0.895   2.130
14317TIP3   OH264441   6.352   1.218   2.425
14317TIP3    H164442   6.343   1.298   2.477
14317TIP3    H264443   6.309   1.150   2.476
14318TIP3   OH264444   6.491   1.616   3.155
14318TIP3    H164445   6.548   1.690   3.137
14318TIP3    H264446   6.541   1.561   3.216
14319TIP3   OH264447   6.291   1.697   2.471
14319TIP3    H164448   6.198   1.712   2.490
14319TIP3    H264449   6.336   1.772   2.509
14320TIP3   OH264450   6.780   1.240   3.131
14320TIP3    H164451   6.734   1.216   3.211
14320TIP3    H264452   6.864   1.194   3.136
14321TIP3   OH264453   7.037   1.326   2.084
14321TIP3    H164454   7.086   1.280   2.153
14321TIP3    H264455   6.946   1.313   2.107
14322TIP3   OH264456   7.105   1.630   3.347
14322TIP3    H164457   7.022   1.582   3.342
14322TIP3    H264458   7.096   1.700   3.283
14323TIP3   OH264459   5.883   0.409   3.292
14323TIP3    H164460   5.789   0.426   3.289
14323TIP3    H264461   5.893   0.342   3.360
14324TIP3   OH264462   7.210   1.189   2.256
14324TIP3    H164463   7.166   1.118   2.303
14324TIP3    H264464   7.286   1.210   2.311
14325TIP3   OH264465   5.881   1.586   3.138
14325TIP3    H164466   5.913   1.514   3.192
14325TIP3    H264467   5.889   1.663   3.194
14326TIP3   OH264468   6.438   1.413   1.895
14326TIP3    H164469   6.445   1.329   1.851
14326TIP3    H264470   6.402   1.392   1.981
14327TIP3   OH264471   6.314   1.385   2.147
14327TIP3    H164472   6.325   1.340   2.231
14327TIP3    H264473   6.326   1.477   2.167
14328TIP3   OH264474   5.969   1.116   2.213
14328TIP3    H164475   5.902   1.168   2.258
14328TIP3    H264476   6.012   1.179   2.154
14329TIP3   OH264477   6.826   0.318   3.222
14329TIP3    H164478   6.846   0.355   3.308
14329TIP3    H264479   6.763   0.248   3.240
14330TIP3   OH264480   6.861   0.268   2.360
14330TIP3    H164481   6.871   0.311   2.275
14330TIP3    H264482   6.897   0.330   2.423
14331TIP3   OH264483   6.622   1.528   2.172
14331TIP3    H164484   6.533   1.551   2.199
14331TIP3    H264485   6.659   1.611   2.142
14332TIP3   OH264486   6.515   0.545   2.407
14332TIP3    H164487   6.595   0.599   2.409
14332TIP3    H264488   6.510   0.506   2.494
14333TIP3   OH264489   6.646   0.606   3.289
14333TIP3    H164490   6.650   0.651   3.374
14333TIP3    H264491   6.678   0.517   3.307
14334TIP3   OH264492   6.623   0.187   2.480
14334TIP3    H164493   6.616   0.255   2.546
14334TIP3    H264494   6.708   0.201   2.439
14335TIP3   OH264495   6.372   1.642   2.216
14335TIP3    H164496   6.377   1.727   2.172
14335TIP3    H264497   6.342   1.663   2.305
14336TIP3   OH264498   6.218   0.350   2.169
14336TIP3    H164499   6.210   0.432   2.217
14336TIP3    H264500   6.297   0.309   2.204
14337TIP3   OH264501   7.278   0.403   3.361
14337TIP3    H164502   7.194   0.443   3.384
14337TIP3    H264503   7.260   0.354   3.281
14338TIP3   OH264504   7.085   0.788   2.797
14338TIP3    H164505   7.014   0.736   2.834
14338TIP3    H264506   7.161   0.767   2.852
14339TIP3   OH264507   6.068   1.310   2.039
14339TIP3    H164508   6.141   1.356   2.078
14339TIP3    H264509   6.107   1.257   1.969
14340TIP3   OH264510   5.899   0.627   2.070
14340TIP3    H164511   5.878   0.720   2.065
14340TIP3    H264512   5.870   0.592   1.985
14341TIP3   OH264513   7.232   1.696   2.936
14341TIP3    H164514   7.230   1.770   2.876
14341TIP3    H264515   7.313   1.650   2.915
14342TIP3   OH264516   5.882   0.087   2.920
14342TIP3    H164517   5.930   0.005   2.933
14342TIP3    H264518   5.830   0.097   3.000
14343TIP3   OH264519   5.826   1.529   2.440
14343TIP3    H164520   5.775   1.558   2.515
14343TIP3    H264521   5.807   1.594   2.372
14344TIP3   OH264522   5.799   1.803   3.619
14344TIP3    H164523   5.866   1.782   3.684
14344TIP3    H264524   5.768   1.718   3.587
14345TIP3   OH264525   6.224   1.607   3.747
14345TIP3    H164526   6.304   1.561   3.772
14345TIP3    H264527   6.206   1.576   3.658
14346TIP3   OH264528   6.646   1.594   1.860
14346TIP3    H164529   6.579   1.529   1.881
14346TIP3    H264530   6.721   1.543   1.832
14347TIP3   OH264531   6.870   1.489   3.649
14347TIP3    H164532   6.856   1.405   3.694
14347TIP3    H264533   6.947   1.526   3.693
14348TIP3   OH264534   7.091   1.559   1.922
14348TIP3    H164535   7.094   1.490   1.988
14348TIP3    H264536   7.178   1.559   1.883
14349TIP3   OH264537   5.773   1.170   3.672
14349TIP3    H164538   5.773   1.075   3.666
14349TIP3    H264539   5.699   1.197   3.618
14350TIP3   OH264540   6.201   1.134   1.878
14350TIP3    H164541   6.230   1.091   1.958
14350TIP3    H264542   6.282   1.149   1.829
14351TIP3   OH264543   6.439   1.173   3.635
14351TIP3    H164544   6.420   1.217   3.552
14351TIP3    H264545   6.466   1.085   3.610
14352TIP3   OH264546   6.768   1.282   1.869
14352TIP3    H164547   6.759   1.276   1.964
14352TIP3    H264548   6.759   1.192   1.838
14353TIP3   OH264549   6.959   1.192   3.396
14353TIP3    H164550   7.052   1.199   3.371
14353TIP3    H264551   6.925   1.281   3.386
14354TIP3   OH264552   5.847   0.897   3.638
14354TIP3    H164553   5.940   0.890   3.620
14354TIP3    H264554   5.840   0.893   3.733
14355TIP3   OH264555   6.329   1.018   2.099
14355TIP3    H164556   6.319   0.979   2.186
14355TIP3    H264557   6.381   0.954   2.050
14356TIP3   OH264558   6.269   0.797   3.378
14356TIP3    H164559   6.194   0.856   3.373
14356TIP3    H264560   6.332   0.832   3.315
14357TIP3   OH264561   6.472   0.833   1.955
14357TIP3    H164562   6.463   0.855   1.863
14357TIP3    H264563   6.566   0.817   1.967
14358TIP3   OH264564   6.768   1.023   3.667
14358TIP3    H164565   6.850   0.995   3.627
14358TIP3    H264566   6.744   0.952   3.726
14359TIP3   OH264567   6.305   0.537   3.459
14359TIP3    H164568   6.314   0.481   3.382
14359TIP3    H264569   6.296   0.626   3.423
14360TIP3   OH264570   6.332   0.393   3.221
14360TIP3    H164571   6.387   0.436   3.156
14360TIP3    H264572   6.246   0.385   3.180
14361TIP3   OH264573   6.463   0.906   3.221
14361TIP3    H164574   6.548   0.938   3.251
14361TIP3    H264575   6.426   0.980   3.172
14362TIP3   OH264576   6.924   0.646   3.686
14362TIP3    H164577   6.932   0.552   3.698
14362TIP3    H264578   7.013   0.675   3.666
14363TIP3   OH264579   7.023   0.979   3.552
14363TIP3    H164580   6.995   1.056   3.503
14363TIP3    H264581   7.118   0.979   3.546
14364TIP3   OH264582   6.158   0.583   3.687
14364TIP3    H164583   6.073   0.541   3.674
14364TIP3    H264584   6.204   0.572   3.604
14365TIP3   OH264585   6.371   0.130   3.298
14365TIP3    H164586   6.350   0.220   3.275
14365TIP3    H264587   6.313   0.076   3.244
14366TIP3   OH264588   6.536   0.491   3.609
14366TIP3    H164589   6.516   0.445   3.690
14366TIP3    H264590   6.452   0.500   3.564
14367TIP3   OH264591   6.783   0.415   3.495
14367TIP3    H164592   6.695   0.429   3.530
14367TIP3    H264593   6.834   0.382   3.570
14368TIP3   OH264594   6.936   0.357   3.718
14368TIP3    H164595   6.934   0.262   3.709
14368TIP3    H264596   6.930   0.372   3.813
14369TIP3   OH264597   5.928   0.433   3.658
14369TIP3    H164598   5.930   0.358   3.598
14369TIP3    H264599   5.944   0.396   3.744
14370TIP3   OH264600   6.478   0.014   3.523
14370TIP3    H164601   6.415  -0.016   3.589
14370TIP3    H264602   6.425   0.053   3.454
14371TIP3   OH264603   6.530   0.206   3.729
14371TIP3    H164604   6.526   0.137   3.663
14371TIP3    H264605   6.442   0.242   3.732
14372TIP3   OH264606   6.441   1.882   2.095
14372TIP3    H164607   6.530   1.851   2.080
14372TIP3    H264608   6.428   1.950   2.028
14373TIP3   OH264609   5.807   1.370   1.978
14373TIP3    H164610   5.897   1.358   2.008
14373TIP3    H264611   5.790   1.294   1.922
14374TIP3   OH264612   5.670   1.843   2.541
14374TIP3    H164613   5.610   1.814   2.472
14374TIP3    H264614   5.683   1.765   2.595
14375TIP3   OH264615   5.733   1.621   2.696
14375TIP3    H164616   5.694   1.551   2.747
14375TIP3    H264617   5.783   1.673   2.759
14376TIP3   OH264618   7.284   1.354   3.741
14376TIP3    H164619   7.203   1.329   3.786
14376TIP3    H264620   7.347   1.369   3.811
14377TIP3   OH264621   7.265   1.434   3.224
14377TIP3    H164622   7.221   1.507   3.268
14377TIP3    H264623   7.224   1.431   3.137
14378TIP3   OH264624   7.349   0.626   1.952
14378TIP3    H164625   7.290   0.683   1.902
14378TIP3    H264626   7.322   0.538   1.928
14379TIP3   OH264627   7.177   0.775   2.536
14379TIP3    H164628   7.164   0.681   2.526
14379TIP3    H264629   7.148   0.794   2.625
14380TIP3   OH264630   5.720   0.984   2.965
14380TIP3    H164631   5.736   0.974   2.871
14380TIP3    H264632   5.801   0.953   3.006
14381TIP3   OH264633   7.301   1.010   3.521
14381TIP3    H164634   7.356   0.950   3.470
14381TIP3    H264635   7.279   1.080   3.459
14382TIP3   OH264636   7.258   0.379   1.892
14382TIP3    H164637   7.296   0.304   1.937
14382TIP3    H264638   7.168   0.353   1.874
14383TIP3   OH264639   7.195   0.532   2.378
14383TIP3    H164640   7.211   0.438   2.385
14383TIP3    H264641   7.282   0.571   2.367
14384TIP3   OH264642   7.273   0.460   2.920
14384TIP3    H164643   7.360   0.427   2.896
14384TIP3    H264644   7.285   0.555   2.930
14385TIP3   OH264645   7.254   0.728   3.220
14385TIP3    H164646   7.161   0.745   3.237
14385TIP3    H264647   7.259   0.721   3.124
14386TIP3   OH264648   5.692   0.503   3.536
14386TIP3    H164649   5.776   0.493   3.580
14386TIP3    H264650   5.645   0.421   3.556
14387TIP3   OH264651   7.198   0.258   2.419
14387TIP3    H164652   7.204   0.235   2.512
14387TIP3    H264653   7.149   0.186   2.380
14388TIP3   OH264654   5.868   0.337   2.798
14388TIP3    H164655   5.878   0.254   2.844
14388TIP3    H264656   5.928   0.396   2.844
14389TIP3   OH264657   5.631   0.617   2.922
14389TIP3    H164658   5.703   0.636   2.861
14389TIP3    H264659   5.642   0.682   2.992
14390TIP3   OH264660   5.685   0.204   2.296
14390TIP3    H164661   5.596   0.215   2.331
14390TIP3    H264662   5.706   0.289   2.257
14391TIP3   OH264663   7.167   1.753   2.596
14391TIP3    H164664   7.246   1.703   2.615
14391TIP3    H264665   7.165   1.822   2.662
14392TIP3   OH264666   5.710   0.124   3.134
14392TIP3    H164667   5.651   0.105   3.207
14392TIP3    H264668   5.674   0.202   3.093
14393TIP3   OH264669   5.891   1.492   3.594
14393TIP3    H164670   5.801   1.500   3.563
14393TIP3    H264671   5.883   1.470   3.687
14394TIP3   OH264672   6.227   1.595   3.234
14394TIP3    H164673   6.196   1.682   3.211
14394TIP3    H264674   6.321   1.598   3.216
14395TIP3   OH264675   6.585   1.713   3.508
14395TIP3    H164676   6.596   1.683   3.598
14395TIP3    H264677   6.663   1.765   3.490
14396TIP3   OH264678   6.817   1.855   3.473
14396TIP3    H164679   6.885   1.803   3.428
14396TIP3    H264680   6.859   1.885   3.553
14397TIP3   OH264681   5.914   1.869   3.246
14397TIP3    H164682   5.841   1.907   3.197
14397TIP3    H264683   5.917   1.919   3.327
14398TIP3   OH264684   6.177   1.858   3.167
14398TIP3    H164685   6.085   1.864   3.192
14398TIP3    H264686   6.182   1.903   3.082
14399TIP3   OH264687   6.632   1.841   3.074
14399TIP3    H164688   6.576   1.875   3.004
14399TIP3    H264689   6.639   1.914   3.136
14400TIP3   OH264690   6.850   1.709   3.179
14400TIP3    H164691   6.778   1.758   3.140
14400TIP3    H264692   6.928   1.760   3.159
14401TIP3   OH264693   7.095   1.826   3.141
14401TIP3    H164694   7.128   1.915   3.135
14401TIP3    H264695   7.145   1.778   3.075
14402TIP3   OH264696   5.892   1.738   2.896
14402TIP3    H164697   5.875   1.698   2.981
14402TIP3    H264698   5.972   1.695   2.865
14403TIP3   OH264699   6.109   1.605   2.796
14403TIP3    H164700   6.096   1.513   2.818
14403TIP3    H264701   6.193   1.628   2.836
14404TIP3   OH264702   6.365   1.636   2.909
14404TIP3    H164703   6.379   1.546   2.878
14404TIP3    H264704   6.399   1.635   2.999
14405TIP3   OH264705   6.676   0.269   2.801
14405TIP3    H164706   6.605   0.212   2.831
14405TIP3    H264707   6.737   0.211   2.757
14406TIP3   OH264708   7.133   0.025   2.757
14406TIP3    H164709   7.227   0.008   2.751
14406TIP3    H264710   7.127   0.120   2.769
14407TIP3   OH264711   5.971   0.053   2.573
14407TIP3    H164712   5.878   0.038   2.587
14407TIP3    H264713   6.014   0.006   2.644
14408TIP3   OH264714   5.792   0.094   2.048
14408TIP3    H164715   5.868   0.151   2.034
14408TIP3    H264716   5.759   0.119   2.135
14409TIP3   OH264717   6.407   0.046   2.582
14409TIP3    H164718   6.483   0.085   2.540
14409TIP3    H264719   6.420   0.060   2.675
14410TIP3   OH264720   6.850   0.092   2.696
14410TIP3    H164721   6.902   0.065   2.620
14410TIP3    H264722   6.894   0.050   2.770
14411TIP3   OH264723   7.044   0.069   2.290
14411TIP3    H164724   6.967   0.124   2.302
14411TIP3    H264725   7.035   0.001   2.358
14412TIP3   OH264726   5.788   1.705   2.230
14412TIP3    H164727   5.712   1.701   2.173
14412TIP3    H264728   5.821   1.794   2.221
14413TIP3   OH264729   6.017   0.246   2.002
14413TIP3    H164730   6.071   0.200   1.937
14413TIP3    H264731   6.080   0.280   2.065
14414TIP3   OH264732   6.468   0.307   2.279
14414TIP3    H164733   6.511   0.243   2.336
14414TIP3    H264734   6.483   0.391   2.323
14415TIP3   OH264735   6.690   1.774   2.061
14415TIP3    H164736   6.784   1.791   2.056
14415TIP3    H264737   6.670   1.723   1.983
14416TIP3   OH264738   5.922   0.213   3.488
14416TIP3    H164739   5.856   0.144   3.481
14416TIP3    H264740   5.992   0.173   3.541
14417TIP3   OH264741   6.077   0.088   3.684
14417TIP3    H164742   6.163   0.049   3.697
14417TIP3    H264743   6.016   0.014   3.679
14418TIP3   OH264744   5.996   1.746   1.920
14418TIP3    H164745   5.971   1.749   2.012
14418TIP3    H264746   6.070   1.686   1.917
14419TIP3   OH264747   6.909   0.083   3.708
14419TIP3    H164748   6.826   0.043   3.729
14419TIP3    H264749   6.975   0.018   3.733
14420TIP3   OH264750   7.297   1.654   3.555
14420TIP3    H164751   7.236   1.634   3.485
14420TIP3    H264752   7.259   1.730   3.600
14421TIP3   OH264753   1.198   2.917   2.527
14421TIP3    H164754   1.180   3.010   2.520
14421TIP3    H264755   1.123   2.874   2.485
14422TIP3   OH264756   1.080   2.828   2.937
14422TIP3    H164757   1.106   2.788   3.020
14422TIP3    H264758   1.030   2.760   2.892
14423TIP3   OH264759   0.290   2.761   3.062
14423TIP3    H164760   0.296   2.680   3.113
14423TIP3    H264761   0.327   2.828   3.119
14424TIP3   OH264762   1.468   3.135   2.763
14424TIP3    H164763   1.425   3.061   2.806
14424TIP3    H264764   1.480   3.200   2.833
14425TIP3   OH264765   0.427   3.224   2.860
14425TIP3    H164766   0.396   3.135   2.845
14425TIP3    H264767   0.516   3.213   2.894
14426TIP3   OH264768   0.128   2.657   2.436
14426TIP3    H164769   0.156   2.716   2.506
14426TIP3    H264770   0.033   2.650   2.448
14427TIP3   OH264771   0.209   2.801   2.654
14427TIP3    H164772   0.210   2.722   2.708
14427TIP3    H264773   0.268   2.862   2.699
14428TIP3   OH264774   1.194   3.603   2.796
14428TIP3    H164775   1.225   3.548   2.724
14428TIP3    H264776   1.169   3.541   2.865
14429TIP3   OH264777   0.930   3.080   2.945
14429TIP3    H164778   0.970   2.999   2.915
14429TIP3    H264779   0.992   3.115   3.009
14430TIP3   OH264780   1.812   2.223   3.049
14430TIP3    H164781   1.827   2.296   3.108
14430TIP3    H264782   1.868   2.242   2.973
14431TIP3   OH264783   1.229   2.495   2.952
14431TIP3    H164784   1.239   2.401   2.969
14431TIP3    H264785   1.220   2.501   2.857
14432TIP3   OH264786   0.592   2.316   2.682
14432TIP3    H164787   0.599   2.401   2.639
14432TIP3    H264788   0.538   2.263   2.623
14433TIP3   OH264789   1.357   2.336   2.527
14433TIP3    H164790   1.396   2.306   2.609
14433TIP3    H264791   1.429   2.374   2.478
14434TIP3   OH264792   0.219   2.556   2.780
14434TIP3    H164793   0.291   2.516   2.829
14434TIP3    H264794   0.217   2.509   2.697
14435TIP3   OH264795   0.726   2.710   2.725
14435TIP3    H164796   0.806   2.671   2.760
14435TIP3    H264797   0.690   2.643   2.668
14436TIP3   OH264798   1.851   2.401   3.266
14436TIP3    H164799   1.778   2.459   3.247
14436TIP3    H264800   1.877   2.422   3.356
14437TIP3   OH264801   0.435   2.225   3.115
14437TIP3    H164802   0.406   2.285   3.046
14437TIP3    H264803   0.370   2.235   3.185
14438TIP3   OH264804   1.119   3.163   2.434
14438TIP3    H164805   1.126   3.173   2.339
14438TIP3    H264806   1.089   3.248   2.466
14439TIP3   OH264807   0.702   3.002   3.084
14439TIP3    H164808   0.649   3.074   3.120
14439TIP3    H264809   0.774   3.047   3.038
14440TIP3   OH264810   1.448   2.290   2.780
14440TIP3    H164811   1.380   2.260   2.842
14440TIP3    H264812   1.504   2.348   2.832
14441TIP3   OH264813   0.419   2.391   2.890
14441TIP3    H164814   0.473   2.450   2.944
14441TIP3    H264815   0.480   2.356   2.825
14442TIP3   OH264816   0.552   3.209   3.189
14442TIP3    H164817   0.557   3.305   3.186
14442TIP3    H264818   0.465   3.191   3.222
14443TIP3   OH264819   0.131   3.170   2.294
14443TIP3    H164820   0.081   3.229   2.237
14443TIP3    H264821   0.163   3.226   2.365
14444TIP3   OH264822   1.487   3.339   2.964
14444TIP3    H164823   1.393   3.341   2.978
14444TIP3    H264824   1.510   3.428   2.938
14445TIP3   OH264825   1.541   2.108   3.078
14445TIP3    H164826   1.474   2.158   3.031
14445TIP3    H264827   1.624   2.146   3.049
14446TIP3   OH264828   0.793   1.917   2.866
14446TIP3    H164829   0.768   1.825   2.868
14446TIP3    H264830   0.715   1.964   2.895
14447TIP3   OH264831   1.309   3.484   2.571
14447TIP3    H164832   1.353   3.400   2.554
14447TIP3    H264833   1.381   3.547   2.578
14448TIP3   OH264834   1.445   3.255   2.514
14448TIP3    H164835   1.455   3.188   2.446
14448TIP3    H264836   1.455   3.208   2.596
14449TIP3   OH264837   1.622   3.106   3.318
14449TIP3    H164838   1.602   3.054   3.240
14449TIP3    H264839   1.628   3.196   3.286
14450TIP3   OH264840   1.039   2.820   2.311
14450TIP3    H164841   0.983   2.896   2.293
14450TIP3    H264842   1.112   2.828   2.250
14451TIP3   OH264843   1.077   2.703   1.974
14451TIP3    H164844   1.133   2.729   2.046
14451TIP3    H264845   1.129   2.640   1.924
14452TIP3   OH264846   1.760   2.786   3.153
14452TIP3    H164847   1.685   2.845   3.140
14452TIP3    H264848   1.820   2.808   3.083
14453TIP3   OH264849   1.418   2.849   2.382
14453TIP3    H164850   1.348   2.871   2.444
14453TIP3    H264851   1.481   2.800   2.434
14454TIP3   OH264852   1.378   2.648   3.338
14454TIP3    H164853   1.369   2.718   3.402
14454TIP3    H264854   1.311   2.667   3.272
14455TIP3   OH264855   0.570   2.888   2.589
14455TIP3    H164856   0.542   2.825   2.523
14455TIP3    H264857   0.633   2.840   2.642
14456TIP3   OH264858   0.722   3.252   2.849
14456TIP3    H164859   0.722   3.258   2.753
14456TIP3    H264860   0.798   3.198   2.870
14457TIP3   OH264861   0.580   2.803   2.942
14457TIP3    H164862   0.642   2.779   2.873
14457TIP3    H264863   0.625   2.871   2.993
14458TIP3   OH264864   1.224   3.355   3.030
14458TIP3    H164865   1.207   3.427   3.090
14458TIP3    H264866   1.181   3.280   3.071
14459TIP3   OH264867   0.700   3.223   3.426
14459TIP3    H164868   0.635   3.278   3.470
14459TIP3    H264869   0.658   3.197   3.344
14460TIP3   OH264870   1.276   2.782   2.156
14460TIP3    H164871   1.330   2.815   2.228
14460TIP3    H264872   1.329   2.796   2.077
14461TIP3   OH264873   0.409   2.830   3.364
14461TIP3    H164874   0.413   2.906   3.421
14461TIP3    H264875   0.315   2.810   3.357
14462TIP3   OH264876   1.054   3.428   2.485
14462TIP3    H164877   1.139   3.449   2.524
14462TIP3    H264878   1.024   3.511   2.448
14463TIP3   OH264879   0.494   3.395   3.498
14463TIP3    H164880   0.497   3.430   3.409
14463TIP3    H264881   0.401   3.390   3.518
14464TIP3   OH264882   1.637   1.923   2.150
14464TIP3    H164883   1.554   1.948   2.190
14464TIP3    H264884   1.672   2.005   2.115
14465TIP3   OH264885   0.414   2.792   2.311
14465TIP3    H164886   0.376   2.866   2.359
14465TIP3    H264887   0.366   2.715   2.344
14466TIP3   OH264888   1.782   3.365   2.016
14466TIP3    H164889   1.794   3.460   2.015
14466TIP3    H264890   1.871   3.330   2.009
14467TIP3   OH264891   0.156   2.989   3.211
14467TIP3    H164892   0.072   3.003   3.168
14467TIP3    H264893   0.145   2.908   3.260
14468TIP3   OH264894   0.079   3.335   2.849
14468TIP3    H164895   0.149   3.299   2.905
14468TIP3    H264896  -0.002   3.315   2.897
14469TIP3   OH264897   1.860   3.436   3.524
14469TIP3    H164898   1.850   3.342   3.510
14469TIP3    H264899   1.775   3.465   3.556
14470TIP3   OH264900   0.938   3.353   3.377
14470TIP3    H164901   0.932   3.437   3.424
14470TIP3    H264902   0.854   3.310   3.394
14471TIP3   OH264903   1.029   3.688   2.361
14471TIP3    H164904   1.010   3.698   2.268
14471TIP3    H264905   0.997   3.769   2.401
14472TIP3   OH264906   0.384   3.587   2.553
14472TIP3    H164907   0.399   3.554   2.642
14472TIP3    H264908   0.330   3.520   2.512
14473TIP3   OH264909   1.314   3.661   2.041
14473TIP3    H164910   1.360   3.587   2.004
14473TIP3    H264911   1.326   3.652   2.136
14474TIP3   OH264912   1.297   3.640   2.318
14474TIP3    H164913   1.205   3.649   2.339
14474TIP3    H264914   1.332   3.582   2.386
14475TIP3   OH264915   1.566   2.524   3.548
14475TIP3    H164916   1.494   2.551   3.492
14475TIP3    H264917   1.544   2.434   3.573
14476TIP3   OH264918   0.311   3.190   3.314
14476TIP3    H164919   0.328   3.156   3.402
14476TIP3    H264920   0.250   3.128   3.275
14477TIP3   OH264921   0.546   2.029   2.951
14477TIP3    H164922   0.473   2.021   2.891
14477TIP3    H264923   0.522   2.100   3.010
14478TIP3   OH264924   1.016   2.001   3.289
14478TIP3    H164925   1.061   1.953   3.358
14478TIP3    H264926   0.923   1.994   3.311
14479TIP3   OH264927   1.353   2.375   3.388
14479TIP3    H164928   1.276   2.358   3.442
14479TIP3    H264929   1.344   2.467   3.361
14480TIP3   OH264930   1.417   2.793   1.920
14480TIP3    H164931   1.396   2.822   1.831
14480TIP3    H264932   1.507   2.823   1.935
14481TIP3   OH264933   0.973   2.236   2.021
14481TIP3    H164934   0.918   2.228   2.099
14481TIP3    H264935   0.937   2.172   1.959
14482TIP3   OH264936   0.559   2.556   3.060
14482TIP3    H164937   0.493   2.555   3.130
14482TIP3    H264938   0.557   2.645   3.027
14483TIP3   OH264939   0.586   2.556   2.537
14483TIP3    H164940   0.492   2.538   2.538
14483TIP3    H264941   0.612   2.540   2.446
14484TIP3   OH264942   1.097   2.577   2.428
14484TIP3    H164943   1.071   2.662   2.394
14484TIP3    H264944   1.168   2.548   2.370
14485TIP3   OH264945   1.019   2.590   3.549
14485TIP3    H164946   0.968   2.517   3.584
14485TIP3    H264947   1.103   2.584   3.594
14486TIP3   OH264948   1.203   2.513   2.681
14486TIP3    H164949   1.155   2.558   2.611
14486TIP3    H264950   1.249   2.442   2.635
14487TIP3   OH264951   0.347   2.538   3.235
14487TIP3    H164952   0.340   2.593   3.313
14487TIP3    H264953   0.316   2.452   3.264
14488TIP3   OH264954   0.662   2.294   1.911
14488TIP3    H164955   0.624   2.275   1.998
14488TIP3    H264956   0.599   2.354   1.871
14489TIP3   OH264957   0.075   2.336   2.595
14489TIP3    H164958   0.101   2.312   2.684
14489TIP3    H264959   0.043   2.254   2.557
14490TIP3   OH264960   0.054   2.408   2.184
14490TIP3    H164961   0.145   2.431   2.165
14490TIP3    H264962   0.006   2.438   2.106
14491TIP3   OH264963   1.166   2.666   3.153
14491TIP3    H164964   1.195   2.609   3.082
14491TIP3    H264965   1.098   2.617   3.198
14492TIP3   OH264966   0.869   2.255   2.646
14492TIP3    H164967   0.780   2.264   2.680
14492TIP3    H264968   0.919   2.219   2.720
14493TIP3   OH264969   0.330   2.473   2.515
14493TIP3    H164970   0.244   2.502   2.483
14493TIP3    H264971   0.328   2.377   2.506
14494TIP3   OH264972   0.667   2.495   2.274
14494TIP3    H164973   0.745   2.464   2.321
14494TIP3    H264974   0.699   2.512   2.185
14495TIP3   OH264975   1.250   2.218   2.963
14495TIP3    H164976   1.218   2.218   3.053
14495TIP3    H264977   1.180   2.176   2.913
14496TIP3   OH264978   0.521   2.671   1.961
14496TIP3    H164979   0.488   2.599   1.906
14496TIP3    H264980   0.616   2.665   1.953
14497TIP3   OH264981   1.598   3.822   3.600
14497TIP3    H164982   1.627   3.827   3.509
14497TIP3    H264983   1.576   3.912   3.623
14498TIP3   OH264984   0.371   3.039   3.548
14498TIP3    H164985   0.436   3.038   3.618
14498TIP3    H264986   0.287   3.039   3.594
14499TIP3   OH264987   0.942   2.589   2.846
14499TIP3    H164988   1.015   2.535   2.814
14499TIP3    H264989   0.905   2.539   2.919
14500TIP3   OH264990   0.429   2.202   2.485
14500TIP3    H164991   0.378   2.125   2.514
14500TIP3    H264992   0.456   2.180   2.396
14501TIP3   OH264993   0.821   2.461   3.064
14501TIP3    H164994   0.737   2.506   3.072
14501TIP3    H264995   0.870   2.489   3.142
14502TIP3   OH264996   0.856   3.029   2.248
14502TIP3    H164997   0.791   2.969   2.211
14502TIP3    H264998   0.819   3.057   2.331
14503TIP3   OH264999   1.570   2.972   3.083
14503TIP3    H165000   1.630   3.029   3.034
14503TIP3    H265001   1.498   2.955   3.022
14504TIP3   OH265002   1.227   2.282   2.110
14504TIP3    H165003   1.137   2.281   2.078
14504TIP3    H265004   1.240   2.371   2.143
14505TIP3   OH265005   1.017   3.061   3.396
14505TIP3    H165006   1.039   3.020   3.480
14505TIP3    H265007   0.981   3.147   3.419
14506TIP3   OH265008   1.302   2.515   2.246
14506TIP3    H165009   1.390   2.496   2.279
14506TIP3    H265010   1.308   2.604   2.210
14507TIP3   OH265011   0.392   2.949   2.796
14507TIP3    H165012   0.456   2.944   2.725
14507TIP3    H265013   0.429   2.894   2.866
14508TIP3   OH265014   1.073   3.168   2.152
14508TIP3    H165015   1.040   3.258   2.158
14508TIP3    H265016   1.000   3.114   2.184
14509TIP3   OH265017   0.147   2.751   3.358
14509TIP3    H165018   0.145   2.732   3.452
14509TIP3    H265019   0.076   2.697   3.322
14510TIP3   OH265020   0.811   2.782   3.563
14510TIP3    H165021   0.745   2.742   3.507
14510TIP3    H265022   0.890   2.729   3.548
14511TIP3   OH265023   1.222   3.340   3.380
14511TIP3    H165024   1.129   3.341   3.357
14511TIP3    H265025   1.222   3.350   3.476
14512TIP3   OH265026   1.751   2.555   2.184
14512TIP3    H165027   1.707   2.535   2.102
14512TIP3    H265028   1.780   2.645   2.175
14513TIP3   OH265029   1.843   3.166   3.480
14513TIP3    H165030   1.752   3.146   3.459
14513TIP3    H265031   1.892   3.140   3.401
14514TIP3   OH265032   1.640   3.404   2.258
14514TIP3    H165033   1.594   3.327   2.291
14514TIP3    H265034   1.681   3.375   2.177
14515TIP3   OH265035   1.366   2.905   2.898
14515TIP3    H165036   1.270   2.896   2.901
14515TIP3    H265037   1.396   2.827   2.851
14516TIP3   OH265038   0.638   3.330   2.588
14516TIP3    H165039   0.660   3.411   2.542
14516TIP3    H265040   0.555   3.350   2.631
14517TIP3   OH265041   0.207   2.810   2.027
14517TIP3    H165042   0.219   2.898   2.063
14517TIP3    H265043   0.112   2.795   2.032
14518TIP3   OH265044   0.700   3.097   2.456
14518TIP3    H165045   0.686   3.180   2.501
14518TIP3    H265046   0.654   3.033   2.510
14519TIP3   OH265047   0.833   3.503   3.157
14519TIP3    H165048   0.891   3.577   3.137
14519TIP3    H265049   0.885   3.447   3.215
14520TIP3   OH265050   0.642   3.580   2.457
14520TIP3    H165051   0.551   3.597   2.482
14520TIP3    H265052   0.691   3.653   2.495
14521TIP3   OH265053   1.123   3.117   3.145
14521TIP3    H165054   1.082   3.099   3.230
14521TIP3    H265055   1.198   3.058   3.142
14522TIP3   OH265056   1.411   3.212   2.059
14522TIP3    H165057   1.439   3.173   2.142
14522TIP3    H265058   1.318   3.192   2.053
14523TIP3   OH265059   1.426   3.531   3.351
14523TIP3    H165060   1.347   3.477   3.345
14523TIP3    H265061   1.414   3.599   3.285
14524TIP3   OH265062   1.820   3.638   2.035
14524TIP3    H165063   1.861   3.704   1.980
14524TIP3    H265064   1.747   3.683   2.077
14525TIP3   OH265065   0.259   2.282   3.328
14525TIP3    H165066   0.168   2.302   3.352
14525TIP3    H265067   0.281   2.204   3.380
14526TIP3   OH265068   1.518   3.088   2.285
14526TIP3    H165069   1.477   3.007   2.315
14526TIP3    H265070   1.612   3.069   2.288
14527TIP3   OH265071   0.215   3.521   3.139
14527TIP3    H165072   0.219   3.443   3.194
14527TIP3    H265073   0.228   3.594   3.200
14528TIP3   OH265074   0.800   3.296   1.875
14528TIP3    H165075   0.799   3.213   1.827
14528TIP3    H265076   0.773   3.273   1.964
14529TIP3   OH265077   0.690   3.234   2.119
14529TIP3    H165078   0.744   3.185   2.181
14529TIP3    H265079   0.689   3.323   2.152
14530TIP3   OH265080   0.315   3.038   2.141
14530TIP3    H165081   0.251   3.069   2.206
14530TIP3    H265082   0.358   3.117   2.110
14531TIP3   OH265083   1.149   2.231   3.217
14531TIP3    H165084   1.202   2.249   3.295
14531TIP3    H265085   1.097   2.154   3.241
14532TIP3   OH265086   1.207   2.169   2.364
14532TIP3    H165087   1.215   2.208   2.277
14532TIP3    H265088   1.252   2.231   2.422
14533TIP3   OH265089   0.955   3.411   2.170
14533TIP3    H165090   0.867   3.438   2.195
14533TIP3    H265091   1.002   3.492   2.154
14534TIP3   OH265092   0.883   2.407   2.418
14534TIP3    H165093   0.958   2.466   2.425
14534TIP3    H265094   0.879   2.364   2.503
14535TIP3   OH265095   0.996   2.492   3.283
14535TIP3    H165096   0.999   2.521   3.374
14535TIP3    H265097   1.030   2.402   3.286
14536TIP3   OH265098   0.970   2.068   2.461
14536TIP3    H165099   0.945   2.135   2.524
14536TIP3    H265100   1.056   2.094   2.430
14537TIP3   OH265101   0.694   3.499   2.201
14537TIP3    H165102   0.703   3.582   2.152
14537TIP3    H265103   0.673   3.526   2.290
14538TIP3   OH265104   0.565   2.240   2.166
14538TIP3    H165105   0.559   2.324   2.212
14538TIP3    H265106   0.649   2.203   2.193
14539TIP3   OH265107   1.590   2.243   3.353
14539TIP3    H165108   1.502   2.276   3.371
14539TIP3    H265109   1.621   2.294   3.278
14540TIP3   OH265110   1.441   2.654   2.776
14540TIP3    H165111   1.357   2.613   2.756
14540TIP3    H265112   1.483   2.594   2.837
14541TIP3   OH265113   0.405   3.292   2.068
14541TIP3    H165114   0.454   3.319   2.145
14541TIP3    H265115   0.448   3.337   1.995
14542TIP3   OH265116   0.228   2.533   1.977
14542TIP3    H165117   0.236   2.624   2.006
14542TIP3    H265118   0.136   2.523   1.956
14543TIP3   OH265119   1.566   3.607   2.942
14543TIP3    H165120   1.551   3.679   2.881
14543TIP3    H265121   1.661   3.604   2.953
14544TIP3   OH265122   0.306   2.009   2.815
14544TIP3    H165123   0.305   2.001   2.719
14544TIP3    H265124   0.272   1.925   2.846
14545TIP3   OH265125   0.208   3.410   2.429
14545TIP3    H165126   0.136   3.436   2.486
14545TIP3    H265127   0.195   3.459   2.348
14546TIP3   OH265128   0.163   3.716   3.622
14546TIP3    H165129   0.224   3.691   3.692
14546TIP3    H265130   0.124   3.633   3.594
14547TIP3   OH265131   0.572   3.493   3.745
14547TIP3    H165132   0.649   3.443   3.770
14547TIP3    H265133   0.550   3.461   3.657
14548TIP3   OH265134   0.992   3.494   1.866
14548TIP3    H165135   0.929   3.423   1.878
14548TIP3    H265136   1.071   3.450   1.834
14549TIP3   OH265137   1.224   3.369   3.653
14549TIP3    H165138   1.212   3.287   3.700
14549TIP3    H265139   1.298   3.412   3.696
14550TIP3   OH265140   1.435   3.450   1.915
14550TIP3    H165141   1.444   3.371   1.969
14550TIP3    H265142   1.511   3.448   1.857
14551TIP3   OH265143   0.144   3.031   3.706
14551TIP3    H165144   0.145   2.960   3.769
14551TIP3    H265145   0.052   3.058   3.702
14552TIP3   OH265146   0.556   3.036   1.948
14552TIP3    H165147   0.584   3.110   2.002
14552TIP3    H265148   0.623   3.029   1.880
14553TIP3   OH265149   0.780   3.057   3.633
14553TIP3    H165150   0.759   3.102   3.552
14553TIP3    H265151   0.803   2.968   3.606
14554TIP3   OH265152   1.148   3.157   1.889
14554TIP3    H165153   1.112   3.152   1.978
14554TIP3    H265154   1.133   3.070   1.851
14555TIP3   OH265155   1.348   3.084   3.388
14555TIP3    H165156   1.439   3.107   3.371
14555TIP3    H265157   1.300   3.166   3.379
14556TIP3   OH265158   0.174   2.719   3.629
14556TIP3    H165159   0.236   2.648   3.648
14556TIP3    H265160   0.160   2.762   3.713
14557TIP3   OH265161   0.675   2.837   2.169
14557TIP3    H165162   0.659   2.776   2.241
14557TIP3    H265163   0.727   2.786   2.106
14558TIP3   OH265164   0.632   2.667   3.374
14558TIP3    H165165   0.555   2.724   3.370
14558TIP3    H265166   0.691   2.702   3.308
14559TIP3   OH265167   0.800   2.698   1.966
14559TIP3    H165168   0.795   2.727   1.875
14559TIP3    H265169   0.894   2.689   1.982
14560TIP3   OH265170   1.110   2.926   3.650
14560TIP3    H165171   1.186   2.881   3.612
14560TIP3    H265172   1.075   2.864   3.714
14561TIP3   OH265173   1.671   2.901   1.907
14561TIP3    H165174   1.679   2.881   1.813
14561TIP3    H265175   1.664   2.996   1.910
14562TIP3   OH265176   0.655   2.404   3.451
14562TIP3    H165177   0.665   2.349   3.374
14562TIP3    H265178   0.648   2.493   3.417
14563TIP3   OH265179   0.690   2.253   3.215
14563TIP3    H165180   0.740   2.304   3.152
14563TIP3    H265181   0.602   2.248   3.178
14564TIP3   OH265182   0.814   2.786   3.211
14564TIP3    H165183   0.898   2.819   3.244
14564TIP3    H265184   0.774   2.861   3.168
14565TIP3   OH265185   1.242   2.564   3.720
14565TIP3    H165186   1.246   2.485   3.773
14565TIP3    H265187   1.318   2.615   3.748
14566TIP3   OH265188   1.382   2.855   3.532
14566TIP3    H165189   1.354   2.935   3.486
14566TIP3    H265190   1.477   2.858   3.529
14567TIP3   OH265191   0.494   2.463   3.675
14567TIP3    H165192   0.412   2.415   3.670
14567TIP3    H265193   0.538   2.445   3.591
14568TIP3   OH265194   0.736   1.987   3.291
14568TIP3    H165195   0.720   2.078   3.267
14568TIP3    H265196   0.664   1.939   3.250
14569TIP3   OH265197   0.874   2.368   3.619
14569TIP3    H165198   0.834   2.341   3.702
14569TIP3    H265199   0.800   2.375   3.559
14570TIP3   OH265200   1.128   2.298   3.518
14570TIP3    H165201   1.041   2.308   3.557
14570TIP3    H265202   1.180   2.256   3.586
14571TIP3   OH265203   1.315   2.196   3.701
14571TIP3    H165204   1.299   2.102   3.711
14571TIP3    H265205   1.281   2.235   3.782
14572TIP3   OH265206   0.282   2.281   3.664
14572TIP3    H165207   0.292   2.205   3.606
14572TIP3    H265208   0.296   2.246   3.752
14573TIP3   OH265209   0.733   1.901   3.551
14573TIP3    H165210   0.789   1.824   3.545
14573TIP3    H265211   0.728   1.935   3.462
14574TIP3   OH265212   0.816   2.062   3.761
14574TIP3    H165213   0.790   2.009   3.685
14574TIP3    H265214   0.756   2.136   3.761
14575TIP3   OH265215   0.772   3.735   2.072
14575TIP3    H165216   0.866   3.718   2.077
14575TIP3    H265217   0.764   3.810   2.014
14576TIP3   OH265218   0.145   3.251   1.996
14576TIP3    H165219   0.226   3.284   2.036
14576TIP3    H265220   0.168   3.163   1.966
14577TIP3   OH265221   0.062   3.733   2.464
14577TIP3    H165222  -0.033   3.739   2.454
14577TIP3    H265223   0.075   3.663   2.528
14578TIP3   OH265224   0.079   3.538   2.668
14578TIP3    H165225   0.071   3.453   2.712
14578TIP3    H265226   0.131   3.591   2.729
14579TIP3   OH265227   1.833   3.605   3.011
14579TIP3    H165228   1.829   3.607   3.107
14579TIP3    H265229   1.906   3.662   2.989
14580TIP3   OH265230   1.778   3.570   3.283
14580TIP3    H165231   1.722   3.497   3.254
14580TIP3    H265232   1.823   3.536   3.360
14581TIP3   OH265233   1.649   3.171   3.770
14581TIP3    H165234   1.566   3.184   3.816
14581TIP3    H265235   1.702   3.247   3.794
14582TIP3   OH265236   1.783   3.008   2.309
14582TIP3    H165237   1.856   3.071   2.309
14582TIP3    H265238   1.805   2.947   2.380
14583TIP3   OH265239   1.836   2.806   2.493
14583TIP3    H165240   1.752   2.772   2.524
14583TIP3    H265241   1.887   2.817   2.573
14584TIP3   OH265242   1.816   3.102   3.021
14584TIP3    H165243   1.863   3.033   2.975
14584TIP3    H265244   1.840   3.183   2.976
14585TIP3   OH265245   1.605   3.363   3.217
14585TIP3    H165246   1.535   3.412   3.259
14585TIP3    H265247   1.574   3.349   3.127
14586TIP3   OH265248   1.822   2.812   2.118
14586TIP3    H165249   1.771   2.839   2.042
14586TIP3    H265250   1.806   2.881   2.183
14587TIP3   OH265251   1.640   2.509   1.937
14587TIP3    H165252   1.624   2.565   1.861
14587TIP3    H265253   1.628   2.420   1.905
14588TIP3   OH265254   1.583   2.686   2.539
14588TIP3    H165255   1.579   2.597   2.505
14588TIP3    H265256   1.540   2.681   2.624
14589TIP3   OH265257   0.075   2.864   2.923
14589TIP3    H165258   0.103   2.890   2.836
14589TIP3    H265259   0.157   2.841   2.968
14590TIP3   OH265260   1.657   2.871   3.505
14590TIP3    H165261   1.718   2.800   3.486
14590TIP3    H265262   1.671   2.934   3.434
14591TIP3   OH265263   1.809   2.637   3.489
14591TIP3    H165264   1.724   2.598   3.509
14591TIP3    H265265   1.873   2.573   3.520
14592TIP3   OH265266   1.588   2.257   1.835
14592TIP3    H165267   1.628   2.210   1.908
14592TIP3    H265268   1.495   2.234   1.840
14593TIP3   OH265269   1.563   2.442   2.364
14593TIP3    H165270   1.593   2.351   2.367
14593TIP3    H265271   1.627   2.486   2.308
14594TIP3   OH265272   1.590   2.472   2.937
14594TIP3    H165273   1.683   2.483   2.916
14594TIP3    H265274   1.585   2.491   3.031
14595TIP3   OH265275   1.620   2.552   3.209
14595TIP3    H165276   1.539   2.580   3.252
14595TIP3    H265277   1.668   2.633   3.193
14596TIP3   OH265278   0.040   2.352   3.549
14596TIP3    H165279   0.128   2.350   3.585
14596TIP3    H265280  -0.013   2.307   3.615
14597TIP3   OH265281   1.849   1.980   3.697
14597TIP3    H165282   1.930   1.931   3.680
14597TIP3    H265283   1.853   2.054   3.636
14598TIP3   OH265284   1.627   2.171   2.384
14598TIP3    H165285   1.647   2.132   2.469
14598TIP3    H265286   1.559   2.114   2.347
14599TIP3   OH265287   0.178   2.252   2.834
14599TIP3    H165288   0.211   2.162   2.839
14599TIP3    H265289   0.251   2.306   2.865
14600TIP3   OH265290   0.005   2.598   2.960
14600TIP3    H165291   0.077   2.569   2.904
14600TIP3    H265292   0.009   2.694   2.956
14601TIP3   OH265293   1.777   2.202   3.550
14601TIP3    H165294   1.715   2.226   3.619
14601TIP3    H265295   1.726   2.205   3.470
14602TIP3   OH265296   1.752   2.142   2.027
14602TIP3    H165297   1.807   2.084   1.975
14602TIP3    H265298   1.812   2.207   2.064
14603TIP3   OH265299   0.106   2.161   2.305
14603TIP3    H165300   0.035   2.146   2.367
14603TIP3    H265301   0.089   2.247   2.268
14604TIP3   OH265302   1.494   3.679   2.558
14604TIP3    H165303   1.568   3.674   2.497
14604TIP3    H265304   1.529   3.729   2.633
14605TIP3   OH265305   7.367   2.034   3.200
14605TIP3    H165306   7.333   2.100   3.260
14605TIP3    H265307   7.315   2.045   3.120
14606TIP3   OH265308   0.225   3.394   3.591
14606TIP3    H165309   0.135   3.386   3.558
14606TIP3    H265310   0.218   3.380   3.685
14607TIP3   OH265311   0.570   3.483   3.236
14607TIP3    H165312   0.537   3.570   3.214
14607TIP3    H265313   0.664   3.487   3.218
14608TIP3   OH265314   0.935   3.597   3.508
14608TIP3    H165315   0.944   3.564   3.598
14608TIP3    H265316   1.014   3.648   3.493
14609TIP3   OH265317   1.171   3.735   3.475
14609TIP3    H165318   1.236   3.679   3.431
14609TIP3    H265319   1.215   3.765   3.554
14610TIP3   OH265320   1.643   1.971   3.352
14610TIP3    H165321   1.614   2.061   3.340
14610TIP3    H265322   1.583   1.919   3.297
14611TIP3   OH265323   0.253   3.778   3.257
14611TIP3    H165324   0.172   3.820   3.226
14611TIP3    H265325   0.270   3.821   3.341
14612TIP3   OH265326   0.515   3.746   3.171
14612TIP3    H165327   0.424   3.757   3.197
14612TIP3    H265328   0.521   3.790   3.086
14613TIP3   OH265329   0.974   3.726   3.071
14613TIP3    H165330   0.918   3.760   3.001
14613TIP3    H265331   0.983   3.799   3.132
14614TIP3   OH265332   1.199   3.596   3.162
14614TIP3    H165333   1.121   3.640   3.127
14614TIP3    H265334   1.270   3.658   3.146
14615TIP3   OH265335   1.441   3.735   3.150
14615TIP3    H165336   1.463   3.826   3.133
14615TIP3    H265337   1.481   3.686   3.078
14616TIP3   OH265338   0.222   3.632   2.890
14616TIP3    H165339   0.211   3.600   2.980
14616TIP3    H265340   0.300   3.586   2.857
14617TIP3   OH265341   0.442   3.490   2.802
14617TIP3    H165342   0.425   3.399   2.829
14617TIP3    H265343   0.524   3.513   2.846
14618TIP3   OH265344   0.698   3.523   2.914
14618TIP3    H165345   0.712   3.434   2.884
14618TIP3    H265346   0.735   3.524   3.003
14619TIP3   OH265347   1.031   2.096   2.811
14619TIP3    H165348   0.968   2.027   2.832
14619TIP3    H265349   1.103   2.051   2.768
14620TIP3   OH265350   1.530   1.942   2.792
14620TIP3    H165351   1.590   2.001   2.744
14620TIP3    H265352   1.444   1.983   2.783
14621TIP3   OH265353   1.713   2.048   2.616
14621TIP3    H165354   1.775   1.979   2.595
14621TIP3    H265355   1.767   2.124   2.634
14622TIP3   OH265356   0.296   1.967   2.542
14622TIP3    H165357   0.211   1.955   2.500
14622TIP3    H265358   0.337   1.881   2.539
14623TIP3   OH265359   0.163   1.965   2.125
14623TIP3    H165360   0.236   2.004   2.075
14623TIP3    H265361   0.153   2.023   2.201
14624TIP3   OH265362   0.758   1.925   2.582
14624TIP3    H165363   0.831   1.973   2.542
14624TIP3    H265364   0.775   1.930   2.676
14625TIP3   OH265365   1.253   1.967   2.705
14625TIP3    H165366   1.289   1.944   2.620
14625TIP3    H265367   1.232   1.882   2.746
14626TIP3   OH265368   1.420   2.000   2.300
14626TIP3    H165369   1.343   2.055   2.318
14626TIP3    H265370   1.389   1.910   2.314
14627TIP3   OH265371   0.154   3.557   2.199
14627TIP3    H165372   0.062   3.531   2.204
14627TIP3    H265373   0.152   3.653   2.192
14628TIP3   OH265374   0.372   2.112   1.997
14628TIP3    H165375   0.425   2.059   1.938
14628TIP3    H265376   0.435   2.147   2.060
14629TIP3   OH265377   0.824   2.198   2.251
14629TIP3    H165378   0.853   2.119   2.297
14629TIP3    H265379   0.849   2.270   2.308
14630TIP3   OH265380   1.039   3.663   2.075
14630TIP3    H165381   1.133   3.683   2.067
14630TIP3    H265382   1.018   3.613   1.996
14631TIP3   OH265383   1.694   3.649   2.368
14631TIP3    H165384   1.678   3.560   2.336
14631TIP3    H265385   1.681   3.704   2.291
14632TIP3   OH265386   0.304   2.059   3.500
14632TIP3    H165387   0.243   1.990   3.525
14632TIP3    H265388   0.386   2.034   3.544
14633TIP3   OH265389   0.491   1.956   3.678
14633TIP3    H165390   0.575   1.927   3.643
14633TIP3    H265391   0.453   1.876   3.715
14634TIP3   OH265392   0.342   3.635   1.910
14634TIP3    H165393   0.304   3.633   1.998
14634TIP3    H265394   0.409   3.566   1.912
14635TIP3   OH265395   1.317   1.919   3.698
14635TIP3    H165396   1.309   1.872   3.781
14635TIP3    H265397   1.411   1.921   3.680
14636TIP3   OH265398   1.608   3.540   3.566
14636TIP3    H165399   1.544   3.527   3.496
14636TIP3    H265400   1.601   3.632   3.589
14637TIP3   OH265401   3.075   2.919   2.533
14637TIP3    H165402   3.066   3.014   2.525
14637TIP3    H265403   3.008   2.883   2.475
14638TIP3   OH265404   2.947   2.823   2.931
14638TIP3    H165405   2.981   2.785   3.012
14638TIP3    H265406   2.901   2.750   2.888
14639TIP3   OH265407   2.173   2.757   3.058
14639TIP3    H165408   2.187   2.687   3.122
14639TIP3    H265409   2.261   2.778   3.026
14640TIP3   OH265410   3.338   3.136   2.759
14640TIP3    H165411   3.310   3.058   2.808
14640TIP3    H265412   3.366   3.198   2.826
14641TIP3   OH265413   2.322   3.231   2.868
14641TIP3    H165414   2.289   3.145   2.843
14641TIP3    H265415   2.417   3.219   2.875
14642TIP3   OH265416   1.959   2.572   2.391
14642TIP3    H165417   1.930   2.656   2.426
14642TIP3    H265418   1.894   2.549   2.325
14643TIP3   OH265419   2.023   2.819   2.704
14643TIP3    H165420   2.055   2.730   2.721
14643TIP3    H265421   2.101   2.873   2.713
14644TIP3   OH265422   2.948   3.637   2.803
14644TIP3    H165423   2.926   3.581   2.728
14644TIP3    H265424   3.043   3.630   2.812
14645TIP3   OH265425   2.805   3.070   2.949
14645TIP3    H165426   2.845   2.992   2.910
14645TIP3    H265427   2.867   3.098   3.016
14646TIP3   OH265428   3.701   2.212   3.048
14646TIP3    H165429   3.708   2.288   3.105
14646TIP3    H265430   3.761   2.230   2.976
14647TIP3   OH265431   3.103   2.501   2.951
14647TIP3    H165432   3.115   2.407   2.965
14647TIP3    H265433   3.092   2.510   2.856
14648TIP3   OH265434   2.461   2.299   2.677
14648TIP3    H165435   2.468   2.385   2.635
14648TIP3    H265436   2.407   2.247   2.617
14649TIP3   OH265437   3.239   2.337   2.532
14649TIP3    H165438   3.279   2.306   2.613
14649TIP3    H265439   3.312   2.375   2.482
14650TIP3   OH265440   2.098   2.558   2.767
14650TIP3    H165441   2.165   2.516   2.822
14650TIP3    H265442   2.116   2.524   2.679
14651TIP3   OH265443   2.571   2.703   2.739
14651TIP3    H165444   2.657   2.670   2.763
14651TIP3    H265445   2.535   2.638   2.679
14652TIP3   OH265446   3.723   2.395   3.261
14652TIP3    H165447   3.656   2.460   3.240
14652TIP3    H265448   3.744   2.411   3.353
14653TIP3   OH265449   2.322   2.225   3.102
14653TIP3    H165450   2.302   2.284   3.030
14653TIP3    H265451   2.251   2.238   3.165
14654TIP3   OH265452   3.040   3.179   2.436
14654TIP3    H165453   3.024   3.176   2.342
14654TIP3    H265454   2.992   3.256   2.466
14655TIP3   OH265455   2.576   2.996   3.082
14655TIP3    H165456   2.530   3.071   3.119
14655TIP3    H265457   2.650   3.034   3.035
14656TIP3   OH265458   3.328   2.282   2.786
14656TIP3    H165459   3.259   2.258   2.848
14656TIP3    H265460   3.385   2.341   2.836
14657TIP3   OH265461   2.298   2.392   2.883
14657TIP3    H165462   2.355   2.450   2.934
14657TIP3    H265463   2.355   2.356   2.816
14658TIP3   OH265464   2.434   3.204   3.202
14658TIP3    H165465   2.438   3.296   3.178
14658TIP3    H265466   2.345   3.192   3.235
14659TIP3   OH265467   2.001   3.182   2.280
14659TIP3    H165468   1.998   3.223   2.194
14659TIP3    H265469   2.025   3.253   2.340
14660TIP3   OH265470   3.363   3.345   2.953
14660TIP3    H165471   3.275   3.319   2.981
14660TIP3    H265472   3.350   3.426   2.904
14661TIP3   OH265473   3.453   2.092   3.120
14661TIP3    H165474   3.385   2.144   3.077
14661TIP3    H265475   3.535   2.125   3.085
14662TIP3   OH265476   2.677   1.910   2.863
14662TIP3    H165477   2.652   1.818   2.863
14662TIP3    H265478   2.598   1.957   2.890
14663TIP3   OH265479   3.184   3.495   2.571
14663TIP3    H165480   3.238   3.417   2.555
14663TIP3    H265481   3.214   3.527   2.656
14664TIP3   OH265482   3.305   3.256   2.514
14664TIP3    H165483   3.225   3.213   2.483
14664TIP3    H265484   3.328   3.209   2.594
14665TIP3   OH265485   3.489   3.109   3.323
14665TIP3    H165486   3.486   3.057   3.242
14665TIP3    H265487   3.498   3.200   3.293
14666TIP3   OH265488   2.929   2.823   2.315
14666TIP3    H165489   2.862   2.885   2.286
14666TIP3    H265490   2.998   2.830   2.249
14667TIP3   OH265491   2.958   2.715   1.966
14667TIP3    H165492   3.014   2.739   2.041
14667TIP3    H265493   3.008   2.648   1.920
14668TIP3   OH265494   3.640   2.777   3.165
14668TIP3    H165495   3.573   2.844   3.155
14668TIP3    H265496   3.698   2.790   3.090
14669TIP3   OH265497   3.294   2.847   2.384
14669TIP3    H165498   3.227   2.873   2.447
14669TIP3    H265499   3.360   2.801   2.435
14670TIP3   OH265500   3.252   2.645   3.345
14670TIP3    H165501   3.248   2.718   3.406
14670TIP3    H265502   3.190   2.667   3.276
14671TIP3   OH265503   2.446   2.900   2.576
14671TIP3    H165504   2.423   2.860   2.493
14671TIP3    H265505   2.499   2.833   2.621
14672TIP3   OH265506   2.603   3.245   2.847
14672TIP3    H165507   2.607   3.257   2.752
14672TIP3    H265508   2.680   3.192   2.868
14673TIP3   OH265509   2.429   2.805   2.952
14673TIP3    H165510   2.483   2.777   2.879
14673TIP3    H265511   2.482   2.871   2.998
14674TIP3   OH265512   3.114   3.296   3.048
14674TIP3    H165513   3.104   3.376   3.100
14674TIP3    H265514   3.062   3.230   3.094
14675TIP3   OH265515   2.586   3.235   3.431
14675TIP3    H165516   2.509   3.249   3.486
14675TIP3    H265517   2.550   3.210   3.346
14676TIP3   OH265518   3.161   2.781   2.152
14676TIP3    H165519   3.213   2.816   2.224
14676TIP3    H265520   3.215   2.794   2.074
14677TIP3   OH265521   2.249   2.804   3.403
14677TIP3    H165522   2.261   2.886   3.450
14677TIP3    H265523   2.160   2.809   3.367
14678TIP3   OH265524   2.928   3.432   2.502
14678TIP3    H165525   3.017   3.454   2.528
14678TIP3    H265526   2.901   3.505   2.446
14679TIP3   OH265527   2.346   3.432   3.488
14679TIP3    H165528   2.385   3.455   3.404
14679TIP3    H265529   2.281   3.365   3.466
14680TIP3   OH265530   3.524   1.925   2.152
14680TIP3    H165531   3.440   1.951   2.192
14680TIP3    H265532   3.560   2.006   2.117
14681TIP3   OH265533   2.361   2.807   2.322
14681TIP3    H165534   2.299   2.872   2.289
14681TIP3    H265535   2.317   2.723   2.307
14682TIP3   OH265536   3.665   3.366   2.014
14682TIP3    H165537   3.677   3.461   2.017
14682TIP3    H265538   3.754   3.331   2.008
14683TIP3   OH265539   1.974   3.081   3.254
14683TIP3    H165540   1.918   3.089   3.177
14683TIP3    H265541   1.982   2.987   3.269
14684TIP3   OH265542   1.919   3.350   2.933
14684TIP3    H165543   2.004   3.357   2.976
14684TIP3    H265544   1.872   3.429   2.960
14685TIP3   OH265545   3.729   3.445   3.523
14685TIP3    H165546   3.739   3.350   3.516
14685TIP3    H265547   3.639   3.457   3.554
14686TIP3   OH265548   2.823   3.360   3.374
14686TIP3    H165549   2.820   3.435   3.434
14686TIP3    H265550   2.746   3.308   3.396
14687TIP3   OH265551   2.903   3.674   2.354
14687TIP3    H165552   2.893   3.684   2.259
14687TIP3    H265553   2.881   3.760   2.389
14688TIP3   OH265554   2.252   3.588   2.550
14688TIP3    H165555   2.272   3.554   2.637
14688TIP3    H265556   2.197   3.520   2.509
14689TIP3   OH265557   3.198   3.661   2.047
14689TIP3    H165558   3.248   3.588   2.010
14689TIP3    H265559   3.212   3.655   2.141
14690TIP3   OH265560   3.178   3.642   2.326
14690TIP3    H165561   3.084   3.649   2.341
14690TIP3    H265562   3.213   3.600   2.405
14691TIP3   OH265563   3.429   2.530   3.549
14691TIP3    H165564   3.369   2.566   3.483
14691TIP3    H265565   3.441   2.439   3.523
14692TIP3   OH265566   2.195   3.220   3.351
14692TIP3    H165567   2.215   3.160   3.423
14692TIP3    H265568   2.117   3.184   3.309
14693TIP3   OH265569   2.428   2.019   2.945
14693TIP3    H165570   2.353   2.010   2.886
14693TIP3    H265571   2.406   2.095   2.999
14694TIP3   OH265572   2.905   2.002   3.294
14694TIP3    H165573   2.952   1.953   3.362
14694TIP3    H265574   2.812   1.991   3.317
14695TIP3   OH265575   3.198   2.370   3.358
14695TIP3    H165576   3.140   2.354   3.433
14695TIP3    H265577   3.205   2.465   3.352
14696TIP3   OH265578   3.300   2.781   1.911
14696TIP3    H165579   3.284   2.816   1.823
14696TIP3    H265580   3.388   2.812   1.933
14697TIP3   OH265581   2.857   2.233   2.017
14697TIP3    H165582   2.799   2.230   2.093
14697TIP3    H265583   2.823   2.166   1.958
14698TIP3   OH265584   2.444   2.548   3.060
14698TIP3    H165585   2.380   2.548   3.131
14698TIP3    H265586   2.446   2.640   3.031
14699TIP3   OH265587   2.438   2.543   2.555
14699TIP3    H165588   2.343   2.533   2.551
14699TIP3    H265589   2.467   2.530   2.464
14700TIP3   OH265590   2.978   2.576   2.425
14700TIP3    H165591   2.956   2.663   2.394
14700TIP3    H265592   3.049   2.548   2.368
14701TIP3   OH265593   2.907   2.585   3.539
14701TIP3    H165594   2.857   2.512   3.578
14701TIP3    H265595   2.991   2.582   3.584
14702TIP3   OH265596   3.077   2.513   2.679
14702TIP3    H165597   3.034   2.560   2.607
14702TIP3    H265598   3.125   2.442   2.637
14703TIP3   OH265599   2.235   2.551   3.238
14703TIP3    H165600   2.240   2.596   3.322
14703TIP3    H265601   2.194   2.467   3.258
14704TIP3   OH265602   2.545   2.278   1.914
14704TIP3    H165603   2.512   2.269   2.004
14704TIP3    H265604   2.486   2.342   1.874
14705TIP3   OH265605   1.893   2.246   2.637
14705TIP3    H165606   1.950   2.258   2.712
14705TIP3    H265607   1.952   2.247   2.561
14706TIP3   OH265608   1.919   2.339   2.129
14706TIP3    H165609   1.989   2.380   2.078
14706TIP3    H265610   1.861   2.412   2.152
14707TIP3   OH265611   3.045   2.670   3.154
14707TIP3    H165612   3.076   2.615   3.082
14707TIP3    H265613   2.976   2.618   3.196
14708TIP3   OH265614   2.747   2.256   2.636
14708TIP3    H165615   2.657   2.260   2.671
14708TIP3    H265616   2.799   2.222   2.708
14709TIP3   OH265617   2.176   2.459   2.523
14709TIP3    H165618   2.104   2.487   2.466
14709TIP3    H265619   2.197   2.371   2.493
14710TIP3   OH265620   2.502   2.475   2.296
14710TIP3    H165621   2.596   2.467   2.314
14710TIP3    H265622   2.497   2.514   2.209
14711TIP3   OH265623   3.114   2.225   2.958
14711TIP3    H165624   3.075   2.226   3.045
14711TIP3    H265625   3.049   2.182   2.903
14712TIP3   OH265626   2.472   2.563   2.038
14712TIP3    H165627   2.421   2.537   1.961
14712TIP3    H265628   2.547   2.610   2.002
14713TIP3   OH265629   3.488   3.778   3.630
14713TIP3    H165630   3.520   3.807   3.544
14713TIP3    H265631   3.561   3.795   3.690
14714TIP3   OH265632   2.249   3.044   3.558
14714TIP3    H165633   2.313   3.031   3.628
14714TIP3    H265634   2.165   3.050   3.604
14715TIP3   OH265635   2.810   2.587   2.833
14715TIP3    H165636   2.882   2.541   2.791
14715TIP3    H265637   2.782   2.529   2.905
14716TIP3   OH265638   2.280   2.196   2.481
14716TIP3    H165639   2.231   2.118   2.506
14716TIP3    H265640   2.317   2.175   2.395
14717TIP3   OH265641   2.703   2.448   3.055
14717TIP3    H165642   2.619   2.494   3.064
14717TIP3    H265643   2.754   2.477   3.131
14718TIP3   OH265644   2.736   3.008   2.236
14718TIP3    H165645   2.664   2.977   2.181
14718TIP3    H265646   2.694   3.039   2.315
14719TIP3   OH265647   3.452   2.965   3.090
14719TIP3    H165648   3.516   3.012   3.037
14719TIP3    H265649   3.380   2.947   3.030
14720TIP3   OH265650   3.110   2.281   2.111
14720TIP3    H165651   3.020   2.281   2.078
14720TIP3    H265652   3.124   2.370   2.143
14721TIP3   OH265653   2.890   3.048   3.423
14721TIP3    H165654   2.924   2.996   3.495
14721TIP3    H265655   2.920   3.137   3.441
14722TIP3   OH265656   3.186   2.515   2.246
14722TIP3    H165657   3.273   2.498   2.280
14722TIP3    H265658   3.191   2.604   2.210
14723TIP3   OH265659   2.265   2.959   2.777
14723TIP3    H165660   2.323   2.952   2.701
14723TIP3    H265661   2.309   2.907   2.845
14724TIP3   OH265662   2.950   3.162   2.164
14724TIP3    H165663   2.916   3.251   2.168
14724TIP3    H265664   2.875   3.106   2.188
14725TIP3   OH265665   1.972   2.812   3.338
14725TIP3    H165666   1.946   2.767   3.418
14725TIP3    H265667   1.906   2.788   3.273
14726TIP3   OH265668   2.697   2.766   3.566
14726TIP3    H165669   2.630   2.730   3.509
14726TIP3    H265670   2.776   2.717   3.546
14727TIP3   OH265671   3.091   3.304   3.373
14727TIP3    H165672   3.001   3.327   3.352
14727TIP3    H265673   3.112   3.356   3.450
14728TIP3   OH265674   3.635   2.554   2.187
14728TIP3    H165675   3.592   2.534   2.104
14728TIP3    H265676   3.664   2.645   2.179
14729TIP3   OH265677   3.712   3.166   3.496
14729TIP3    H165678   3.620   3.158   3.475
14729TIP3    H265679   3.758   3.131   3.420
14730TIP3   OH265680   3.527   3.411   2.265
14730TIP3    H165681   3.477   3.338   2.304
14730TIP3    H265682   3.561   3.375   2.184
14731TIP3   OH265683   3.251   2.900   2.901
14731TIP3    H165684   3.155   2.897   2.892
14731TIP3    H265685   3.282   2.824   2.852
14732TIP3   OH265686   2.539   3.331   2.588
14732TIP3    H165687   2.567   3.414   2.549
14732TIP3    H265688   2.443   3.338   2.591
14733TIP3   OH265689   2.086   2.781   2.041
14733TIP3    H165690   2.132   2.847   2.092
14733TIP3    H265691   1.995   2.787   2.070
14734TIP3   OH265692   2.592   3.101   2.444
14734TIP3    H165693   2.588   3.182   2.495
14734TIP3    H265694   2.542   3.038   2.496
14735TIP3   OH265695   2.711   3.488   3.153
14735TIP3    H165696   2.773   3.554   3.124
14735TIP3    H265697   2.763   3.428   3.207
14736TIP3   OH265698   2.517   3.587   2.473
14736TIP3    H165699   2.424   3.602   2.490
14736TIP3    H265700   2.559   3.670   2.499
14737TIP3   OH265701   2.985   3.077   3.163
14737TIP3    H165702   2.947   3.061   3.249
14737TIP3    H265703   3.069   3.032   3.165
14738TIP3   OH265704   3.294   3.217   2.043
14738TIP3    H165705   3.325   3.167   2.119
14738TIP3    H265706   3.202   3.191   2.033
14739TIP3   OH265707   3.299   3.571   3.343
14739TIP3    H165708   3.236   3.544   3.276
14739TIP3    H265709   3.336   3.653   3.309
14740TIP3   OH265710   3.709   3.635   2.050
14740TIP3    H165711   3.778   3.702   2.048
14740TIP3    H265712   3.630   3.683   2.075
14741TIP3   OH265713   2.115   2.297   3.275
14741TIP3    H165714   2.025   2.323   3.258
14741TIP3    H265715   2.109   2.243   3.354
14742TIP3   OH265716   3.403   3.059   2.238
14742TIP3    H165717   3.361   2.996   2.297
14742TIP3    H265718   3.496   3.052   2.257
14743TIP3   OH265719   2.113   3.504   3.149
14743TIP3    H165720   2.145   3.431   3.202
14743TIP3    H265721   2.123   3.581   3.205
14744TIP3   OH265722   2.668   3.300   1.891
14744TIP3    H165723   2.674   3.214   1.848
14744TIP3    H265724   2.631   3.280   1.977
14745TIP3   OH265725   2.541   3.273   2.140
14745TIP3    H165726   2.580   3.225   2.213
14745TIP3    H265727   2.552   3.365   2.163
14746TIP3   OH265728   2.187   2.988   2.200
14746TIP3    H165729   2.120   3.038   2.245
14746TIP3    H265730   2.236   3.052   2.149
14747TIP3   OH265731   3.002   2.245   3.209
14747TIP3    H165732   3.077   2.266   3.265
14747TIP3    H265733   2.970   2.161   3.244
14748TIP3   OH265734   3.092   2.170   2.365
14748TIP3    H165735   3.099   2.210   2.278
14748TIP3    H265736   3.136   2.232   2.423
14749TIP3   OH265737   2.839   3.408   2.178
14749TIP3    H165738   2.753   3.444   2.200
14749TIP3    H265739   2.892   3.485   2.155
14750TIP3   OH265740   2.755   2.415   2.407
14750TIP3    H165741   2.830   2.474   2.412
14750TIP3    H265742   2.753   2.372   2.493
14751TIP3   OH265743   2.872   2.491   3.272
14751TIP3    H165744   2.882   2.511   3.365
14751TIP3    H265745   2.910   2.403   3.262
14752TIP3   OH265746   2.851   2.069   2.453
14752TIP3    H165747   2.824   2.138   2.514
14752TIP3    H265748   2.938   2.095   2.424
14753TIP3   OH265749   2.594   3.530   2.216
14753TIP3    H165750   2.604   3.614   2.172
14753TIP3    H265751   2.568   3.553   2.306
14754TIP3   OH265752   2.438   2.229   2.171
14754TIP3    H165753   2.434   2.315   2.215
14754TIP3    H265754   2.524   2.195   2.195
14755TIP3   OH265755   3.459   2.295   3.393
14755TIP3    H165756   3.365   2.300   3.374
14755TIP3    H265757   3.501   2.317   3.310
14756TIP3   OH265758   3.322   2.651   2.776
14756TIP3    H165759   3.238   2.610   2.757
14756TIP3    H265760   3.366   2.592   2.837
14757TIP3   OH265761   2.295   3.191   2.041
14757TIP3    H165762   2.370   3.236   2.082
14757TIP3    H265763   2.334   3.139   1.971
14758TIP3   OH265764   2.071   2.509   1.978
14758TIP3    H165765   2.093   2.596   2.012
14758TIP3    H265766   2.054   2.523   1.885
14759TIP3   OH265767   3.478   3.635   3.064
14759TIP3    H165768   3.424   3.626   2.986
14759TIP3    H265769   3.568   3.635   3.031
14760TIP3   OH265770   2.177   1.994   2.824
14760TIP3    H165771   2.169   1.988   2.728
14760TIP3    H265772   2.143   1.911   2.856
14761TIP3   OH265773   2.058   3.415   2.434
14761TIP3    H165774   2.005   3.442   2.508
14761TIP3    H265775   2.040   3.480   2.366
14762TIP3   OH265776   2.033   3.640   3.606
14762TIP3    H165777   1.976   3.708   3.641
14762TIP3    H265778   1.973   3.572   3.574
14763TIP3   OH265779   2.534   3.495   3.686
14763TIP3    H165780   2.557   3.412   3.727
14763TIP3    H265781   2.486   3.470   3.607
14764TIP3   OH265782   2.871   3.488   1.868
14764TIP3    H165783   2.806   3.419   1.885
14764TIP3    H265784   2.948   3.441   1.838
14765TIP3   OH265785   3.079   3.408   3.632
14765TIP3    H165786   3.062   3.319   3.661
14765TIP3    H265787   3.158   3.434   3.679
14766TIP3   OH265788   3.322   3.456   1.910
14766TIP3    H165789   3.330   3.377   1.964
14766TIP3    H265790   3.401   3.455   1.855
14767TIP3   OH265791   1.999   3.053   3.683
14767TIP3    H165792   1.997   2.958   3.674
14767TIP3    H265793   1.931   3.084   3.624
14768TIP3   OH265794   2.425   3.019   1.873
14768TIP3    H165795   2.449   2.971   1.952
14768TIP3    H265796   2.508   3.033   1.828
14769TIP3   OH265797   2.657   3.036   3.626
14769TIP3    H165798   2.672   3.084   3.545
14769TIP3    H265799   2.687   2.947   3.607
14770TIP3   OH265800   3.036   3.157   1.903
14770TIP3    H165801   2.995   3.149   1.989
14770TIP3    H265802   3.014   3.075   1.859
14771TIP3   OH265803   3.220   3.063   3.373
14771TIP3    H165804   3.312   3.083   3.354
14771TIP3    H265805   3.175   3.148   3.366
14772TIP3   OH265806   2.069   2.784   3.654
14772TIP3    H165807   2.150   2.748   3.617
14772TIP3    H265808   2.081   2.778   3.748
14773TIP3   OH265809   2.522   2.891   2.101
14773TIP3    H165810   2.478   2.848   2.175
14773TIP3    H265811   2.572   2.820   2.059
14774TIP3   OH265812   2.497   2.665   3.388
14774TIP3    H165813   2.418   2.720   3.388
14774TIP3    H265814   2.553   2.704   3.321
14775TIP3   OH265815   2.681   2.719   1.950
14775TIP3    H165816   2.677   2.745   1.858
14775TIP3    H265817   2.774   2.713   1.970
14776TIP3   OH265818   3.005   2.920   3.647
14776TIP3    H165819   3.088   2.886   3.613
14776TIP3    H265820   2.977   2.854   3.711
14777TIP3   OH265821   3.551   2.897   1.907
14777TIP3    H165822   3.561   2.880   1.813
14777TIP3    H265823   3.545   2.992   1.914
14778TIP3   OH265824   2.535   2.402   3.458
14778TIP3    H165825   2.548   2.347   3.381
14778TIP3    H265826   2.527   2.490   3.423
14779TIP3   OH265827   2.570   2.252   3.219
14779TIP3    H165828   2.626   2.298   3.156
14779TIP3    H265829   2.485   2.246   3.177
14780TIP3   OH265830   2.677   2.784   3.224
14780TIP3    H165831   2.770   2.800   3.239
14780TIP3    H265832   2.646   2.860   3.175
14781TIP3   OH265833   3.139   2.556   3.704
14781TIP3    H165834   3.159   2.463   3.701
14781TIP3    H265835   3.224   2.598   3.721
14782TIP3   OH265836   3.265   2.855   3.537
14782TIP3    H165837   3.238   2.929   3.483
14782TIP3    H265838   3.361   2.855   3.532
14783TIP3   OH265839   2.371   2.460   3.678
14783TIP3    H165840   2.291   2.410   3.667
14783TIP3    H265841   2.420   2.447   3.597
14784TIP3   OH265842   2.622   1.987   3.292
14784TIP3    H165843   2.607   2.079   3.269
14784TIP3    H265844   2.552   1.939   3.249
14785TIP3   OH265845   2.758   2.369   3.624
14785TIP3    H165846   2.724   2.342   3.709
14785TIP3    H265847   2.682   2.372   3.567
14786TIP3   OH265848   3.025   2.306   3.556
14786TIP3    H165849   2.935   2.309   3.586
14786TIP3    H265850   3.072   2.257   3.624
14787TIP3   OH265851   3.200   2.200   3.745
14787TIP3    H165852   3.198   2.105   3.733
14787TIP3    H265853   3.174   2.213   3.837
14788TIP3   OH265854   2.168   2.262   3.643
14788TIP3    H165855   2.171   2.180   3.594
14788TIP3    H265856   2.178   2.236   3.735
14789TIP3   OH265857   2.613   1.899   3.551
14789TIP3    H165858   2.673   1.825   3.546
14789TIP3    H265859   2.611   1.934   3.462
14790TIP3   OH265860   2.696   2.057   3.762
14790TIP3    H165861   2.673   2.005   3.685
14790TIP3    H265862   2.635   2.130   3.761
14791TIP3   OH265863   2.670   3.764   2.092
14791TIP3    H165864   2.761   3.734   2.087
14791TIP3    H265865   2.663   3.832   2.025
14792TIP3   OH265866   2.031   3.245   1.993
14792TIP3    H165867   2.124   3.238   2.014
14792TIP3    H265868   2.014   3.175   1.930
14793TIP3   OH265869   1.889   3.732   2.542
14793TIP3    H165870   1.832   3.703   2.470
14793TIP3    H265871   1.908   3.652   2.591
14794TIP3   OH265872   1.959   3.507   2.688
14794TIP3    H165873   1.923   3.432   2.735
14794TIP3    H265874   2.008   3.556   2.755
14795TIP3   OH265875   3.746   3.643   3.015
14795TIP3    H165876   3.767   3.643   3.108
14795TIP3    H265877   3.831   3.659   2.972
14796TIP3   OH265878   3.683   3.593   3.295
14796TIP3    H165879   3.626   3.535   3.243
14796TIP3    H265880   3.712   3.538   3.368
14797TIP3   OH265881   3.505   3.166   3.799
14797TIP3    H165882   3.425   3.180   3.849
14797TIP3    H265883   3.563   3.238   3.825
14798TIP3   OH265884   3.669   3.008   2.303
14798TIP3    H165885   3.741   3.072   2.307
14798TIP3    H265886   3.687   2.948   2.375
14799TIP3   OH265887   3.712   2.800   2.481
14799TIP3    H165888   3.626   2.770   2.512
14799TIP3    H265889   3.764   2.808   2.561
14800TIP3   OH265890   3.658   3.083   2.959
14800TIP3    H165891   3.734   3.024   2.957
14800TIP3    H265892   3.693   3.168   2.931
14801TIP3   OH265893   3.481   3.365   3.215
14801TIP3    H165894   3.420   3.433   3.244
14801TIP3    H265895   3.463   3.356   3.121
14802TIP3   OH265896   3.706   2.810   2.116
14802TIP3    H165897   3.653   2.836   2.041
14802TIP3    H265898   3.692   2.879   2.181
14803TIP3   OH265899   3.526   2.508   1.940
14803TIP3    H165900   3.507   2.566   1.866
14803TIP3    H265901   3.515   2.420   1.905
14804TIP3   OH265902   3.462   2.686   2.538
14804TIP3    H165903   3.458   2.596   2.506
14804TIP3    H265904   3.421   2.682   2.625
14805TIP3   OH265905   1.940   2.857   2.962
14805TIP3    H165906   1.953   2.849   2.867
14805TIP3    H265907   2.025   2.831   2.999
14806TIP3   OH265908   3.538   2.873   3.499
14806TIP3    H165909   3.602   2.806   3.478
14806TIP3    H265910   3.552   2.942   3.434
14807TIP3   OH265911   3.683   2.630   3.501
14807TIP3    H165912   3.594   2.600   3.523
14807TIP3    H265913   3.740   2.558   3.528
14808TIP3   OH265914   3.473   2.256   1.836
14808TIP3    H165915   3.512   2.210   1.910
14808TIP3    H265916   3.380   2.235   1.841
14809TIP3   OH265917   3.446   2.441   2.367
14809TIP3    H165918   3.477   2.351   2.369
14809TIP3    H265919   3.510   2.487   2.312
14810TIP3   OH265920   3.468   2.469   2.939
14810TIP3    H165921   3.560   2.485   2.915
14810TIP3    H265922   3.464   2.490   3.032
14811TIP3   OH265923   3.493   2.551   3.209
14811TIP3    H165924   3.412   2.584   3.249
14811TIP3    H265925   3.545   2.630   3.193
14812TIP3   OH265926   1.956   2.408   3.536
14812TIP3    H165927   2.037   2.380   3.580
14812TIP3    H265928   1.895   2.335   3.550
14813TIP3   OH265929   3.754   1.971   3.719
14813TIP3    H165930   3.814   1.912   3.674
14813TIP3    H265931   3.738   2.041   3.657
14814TIP3   OH265932   3.514   2.171   2.386
14814TIP3    H165933   3.537   2.132   2.470
14814TIP3    H265934   3.447   2.114   2.350
14815TIP3   OH265935   2.055   2.242   2.864
14815TIP3    H165936   2.093   2.154   2.859
14815TIP3    H265937   2.130   2.300   2.873
14816TIP3   OH265938   1.862   2.532   2.923
14816TIP3    H165939   1.931   2.524   2.857
14816TIP3    H265940   1.887   2.608   2.976
14817TIP3   OH265941   3.664   2.161   3.548
14817TIP3    H165942   3.593   2.204   3.595
14817TIP3    H265943   3.625   2.134   3.465
14818TIP3   OH265944   3.637   2.142   2.027
14818TIP3    H165945   3.693   2.085   1.975
14818TIP3    H265946   3.696   2.208   2.063
14819TIP3   OH265947   1.919   2.156   2.332
14819TIP3    H165948   1.825   2.152   2.351
14819TIP3    H265949   1.927   2.226   2.267
14820TIP3   OH265950   3.351   3.756   2.552
14820TIP3    H165951   3.428   3.725   2.504
14820TIP3    H265952   3.349   3.703   2.631
14821TIP3   OH265953   1.878   1.995   3.191
14821TIP3    H165954   1.805   1.987   3.253
14821TIP3    H265955   1.858   2.075   3.141
14822TIP3   OH265956   2.104   3.357   3.654
14822TIP3    H165957   2.024   3.364   3.602
14822TIP3    H265958   2.079   3.304   3.730
14823TIP3   OH265959   2.453   3.486   3.240
14823TIP3    H165960   2.427   3.574   3.213
14823TIP3    H265961   2.545   3.479   3.213
14824TIP3   OH265962   2.876   3.585   3.546
14824TIP3    H165963   2.931   3.518   3.587
14824TIP3    H265964   2.938   3.643   3.502
14825TIP3   OH265965   3.074   3.743   3.448
14825TIP3    H165966   3.142   3.698   3.398
14825TIP3    H265967   3.119   3.775   3.526
14826TIP3   OH265968   3.569   1.964   3.350
14826TIP3    H165969   3.511   2.001   3.283
14826TIP3    H265970   3.580   1.872   3.324
14827TIP3   OH265971   2.144   3.760   3.274
14827TIP3    H165972   2.067   3.800   3.233
14827TIP3    H265973   2.151   3.805   3.358
14828TIP3   OH265974   2.404   3.748   3.178
14828TIP3    H165975   2.312   3.758   3.203
14828TIP3    H265976   2.410   3.788   3.091
14829TIP3   OH265977   2.880   3.679   3.064
14829TIP3    H165978   2.893   3.675   2.969
14829TIP3    H265979   2.888   3.771   3.086
14830TIP3   OH265980   3.124   3.565   3.130
14830TIP3    H165981   3.038   3.603   3.114
14830TIP3    H265982   3.174   3.583   3.050
14831TIP3   OH265983   3.372   3.813   3.232
14831TIP3    H165984   3.364   3.898   3.187
14831TIP3    H265985   3.405   3.754   3.164
14832TIP3   OH265986   2.111   3.624   2.901
14832TIP3    H165987   2.108   3.585   2.988
14832TIP3    H265988   2.190   3.587   2.861
14833TIP3   OH265989   2.328   3.495   2.799
14833TIP3    H165990   2.318   3.403   2.825
14833TIP3    H265991   2.415   3.519   2.830
14834TIP3   OH265992   2.586   3.523   2.904
14834TIP3    H165993   2.602   3.434   2.871
14834TIP3    H265994   2.625   3.522   2.992
14835TIP3   OH265995   2.908   2.097   2.803
14835TIP3    H165996   2.847   2.027   2.825
14835TIP3    H265997   2.982   2.053   2.761
14836TIP3   OH265998   3.415   1.951   2.792
14836TIP3    H165999   3.480   2.004   2.745
14836TIP3    H266000   3.334   2.000   2.784
14837TIP3   OH266001   3.604   2.047   2.616
14837TIP3    H166002   3.666   1.978   2.593
14837TIP3    H266003   3.658   2.123   2.636
14838TIP3   OH266004   2.146   1.962   2.551
14838TIP3    H166005   2.054   1.943   2.532
14838TIP3    H266006   2.191   1.879   2.537
14839TIP3   OH266007   2.066   1.977   2.167
14839TIP3    H166008   2.116   2.034   2.109
14839TIP3    H266009   2.022   2.037   2.227
14840TIP3   OH266010   2.644   1.922   2.579
14840TIP3    H166011   2.714   1.970   2.535
14840TIP3    H266012   2.666   1.927   2.672
14841TIP3   OH266013   3.128   1.963   2.705
14841TIP3    H166014   3.172   1.942   2.623
14841TIP3    H266015   3.115   1.878   2.748
14842TIP3   OH266016   3.306   2.002   2.302
14842TIP3    H166017   3.230   2.058   2.319
14842TIP3    H266018   3.274   1.913   2.314
14843TIP3   OH266019   2.015   3.599   2.235
14843TIP3    H166020   1.942   3.591   2.173
14843TIP3    H266021   2.046   3.689   2.224
14844TIP3   OH266022   2.244   2.126   1.993
14844TIP3    H166023   2.295   2.069   1.936
14844TIP3    H266024   2.307   2.159   2.057
14845TIP3   OH266025   2.703   2.200   2.246
14845TIP3    H166026   2.740   2.127   2.296
14845TIP3    H266027   2.722   2.278   2.298
14846TIP3   OH266028   2.924   3.660   2.073
14846TIP3    H166029   3.018   3.677   2.065
14846TIP3    H266030   2.902   3.610   1.995
14847TIP3   OH266031   3.560   3.659   2.379
14847TIP3    H166032   3.549   3.570   2.348
14847TIP3    H266033   3.555   3.713   2.300
14848TIP3   OH266034   2.163   2.004   3.509
14848TIP3    H166035   2.115   1.925   3.534
14848TIP3    H266036   2.247   1.996   3.555
14849TIP3   OH266037   2.371   1.951   3.679
14849TIP3    H166038   2.457   1.931   3.641
14849TIP3    H266039   2.347   1.872   3.728
14850TIP3   OH266040   2.235   3.637   1.930
14850TIP3    H166041   2.216   3.631   2.023
14850TIP3    H266042   2.309   3.578   1.917
14851TIP3   OH266043   3.221   1.926   3.695
14851TIP3    H166044   3.210   1.877   3.776
14851TIP3    H266045   3.314   1.915   3.673
14852TIP3   OH266046   3.458   3.508   3.571
14852TIP3    H166047   3.404   3.511   3.492
14852TIP3    H266048   3.468   3.600   3.597
14853TIP3   OH266049   4.963   2.918   2.536
14853TIP3    H166050   4.953   3.012   2.522
14853TIP3    H266051   4.894   2.879   2.482
14854TIP3   OH266052   4.850   2.830   2.937
14854TIP3    H166053   4.877   2.786   3.018
14854TIP3    H266054   4.802   2.763   2.888
14855TIP3   OH266055   4.043   2.792   3.072
14855TIP3    H166056   4.090   2.730   3.126
14855TIP3    H266057   4.089   2.875   3.083
14856TIP3   OH266058   5.231   3.142   2.766
14856TIP3    H166059   5.193   3.066   2.810
14856TIP3    H266060   5.248   3.205   2.835
14857TIP3   OH266061   4.217   3.263   2.852
14857TIP3    H166062   4.157   3.216   2.910
14857TIP3    H266063   4.304   3.231   2.875
14858TIP3   OH266064   3.841   2.561   2.396
14858TIP3    H166065   3.815   2.647   2.430
14858TIP3    H266066   3.778   2.543   2.326
14859TIP3   OH266067   3.887   2.785   2.692
14859TIP3    H166068   3.910   2.694   2.713
14859TIP3    H266069   3.970   2.833   2.701
14860TIP3   OH266070   4.968   3.608   2.799
14860TIP3    H166071   5.004   3.562   2.724
14860TIP3    H266072   4.945   3.539   2.861
14861TIP3   OH266073   4.704   3.077   2.945
14861TIP3    H166074   4.744   2.995   2.916
14861TIP3    H266075   4.768   3.115   3.004
14862TIP3   OH266076   5.581   2.223   3.044
14862TIP3    H166077   5.593   2.286   3.115
14862TIP3    H266078   5.633   2.258   2.972
14863TIP3   OH266079   4.996   2.511   2.952
14863TIP3    H166080   5.000   2.416   2.965
14863TIP3    H266081   4.982   2.522   2.858
14864TIP3   OH266082   4.345   2.296   2.677
14864TIP3    H166083   4.352   2.383   2.638
14864TIP3    H266084   4.290   2.247   2.616
14865TIP3   OH266085   5.121   2.339   2.529
14865TIP3    H166086   5.158   2.310   2.613
14865TIP3    H266087   5.196   2.374   2.481
14866TIP3   OH266088   3.969   2.530   2.766
14866TIP3    H166089   4.042   2.509   2.824
14866TIP3    H266090   4.000   2.506   2.678
14867TIP3   OH266091   4.480   2.710   2.718
14867TIP3    H166092   4.563   2.673   2.746
14867TIP3    H266093   4.439   2.641   2.666
14868TIP3   OH266094   5.623   2.393   3.266
14868TIP3    H166095   5.548   2.450   3.248
14868TIP3    H266096   5.638   2.402   3.361
14869TIP3   OH266097   4.205   2.229   3.111
14869TIP3    H166098   4.190   2.283   3.033
14869TIP3    H266099   4.132   2.250   3.169
14870TIP3   OH266100   4.935   3.173   2.430
14870TIP3    H166101   4.913   3.167   2.337
14870TIP3    H266102   4.892   3.253   2.460
14871TIP3   OH266103   4.476   2.997   3.080
14871TIP3    H166104   4.425   3.069   3.117
14871TIP3    H266105   4.548   3.039   3.033
14872TIP3   OH266106   5.205   2.300   2.784
14872TIP3    H166107   5.140   2.264   2.845
14872TIP3    H266108   5.266   2.347   2.840
14873TIP3   OH266109   4.184   2.387   2.886
14873TIP3    H166110   4.238   2.450   2.933
14873TIP3    H266111   4.241   2.352   2.818
14874TIP3   OH266112   4.320   3.198   3.189
14874TIP3    H166113   4.316   3.294   3.193
14874TIP3    H266114   4.232   3.172   3.160
14875TIP3   OH266115   3.889   3.180   2.285
14875TIP3    H166116   3.884   3.228   2.202
14875TIP3    H266117   3.914   3.246   2.350
14876TIP3   OH266118   5.259   3.355   2.958
14876TIP3    H166119   5.164   3.361   2.972
14876TIP3    H266120   5.286   3.443   2.933
14877TIP3   OH266121   5.334   2.067   3.031
14877TIP3    H166122   5.294   2.082   3.117
14877TIP3    H266123   5.412   2.123   3.031
14878TIP3   OH266124   4.551   1.915   2.855
14878TIP3    H166125   4.537   1.821   2.860
14878TIP3    H266126   4.472   1.954   2.893
14879TIP3   OH266127   5.094   3.506   2.573
14879TIP3    H166128   5.133   3.420   2.558
14879TIP3    H266129   5.168   3.566   2.581
14880TIP3   OH266130   5.195   3.261   2.519
14880TIP3    H166131   5.124   3.209   2.479
14880TIP3    H266132   5.218   3.212   2.598
14881TIP3   OH266133   5.381   3.111   3.311
14881TIP3    H166134   5.366   3.054   3.236
14881TIP3    H266135   5.393   3.199   3.274
14882TIP3   OH266136   4.816   2.821   2.318
14882TIP3    H166137   4.747   2.881   2.291
14882TIP3    H266138   4.883   2.829   2.250
14883TIP3   OH266139   4.841   2.718   1.966
14883TIP3    H166140   4.897   2.740   2.041
14883TIP3    H266141   4.890   2.649   1.920
14884TIP3   OH266142   5.537   2.782   3.142
14884TIP3    H166143   5.463   2.842   3.131
14884TIP3    H266144   5.597   2.803   3.071
14885TIP3   OH266145   5.178   2.847   2.382
14885TIP3    H166146   5.111   2.871   2.446
14885TIP3    H266147   5.242   2.798   2.433
14886TIP3   OH266148   5.154   2.666   3.344
14886TIP3    H166149   5.144   2.738   3.407
14886TIP3    H266150   5.089   2.684   3.276
14887TIP3   OH266151   4.353   2.909   2.567
14887TIP3    H166152   4.322   2.864   2.489
14887TIP3    H266153   4.405   2.843   2.614
14888TIP3   OH266154   4.506   3.256   2.849
14888TIP3    H166155   4.501   3.260   2.753
14888TIP3    H266156   4.579   3.196   2.866
14889TIP3   OH266157   4.341   2.801   2.940
14889TIP3    H166158   4.396   2.782   2.864
14889TIP3    H266159   4.387   2.871   2.986
14890TIP3   OH266160   4.995   3.374   3.033
14890TIP3    H166161   4.985   3.436   3.104
14890TIP3    H266162   4.959   3.292   3.067
14891TIP3   OH266163   4.469   3.219   3.423
14891TIP3    H166164   4.409   3.281   3.465
14891TIP3    H266165   4.423   3.192   3.343
14892TIP3   OH266166   5.046   2.778   2.151
14892TIP3    H166167   5.098   2.814   2.223
14892TIP3    H266168   5.101   2.791   2.074
14893TIP3   OH266169   4.131   2.788   3.404
14893TIP3    H166170   4.145   2.873   3.446
14893TIP3    H266171   4.039   2.789   3.378
14894TIP3   OH266172   4.839   3.426   2.492
14894TIP3    H166173   4.922   3.460   2.528
14894TIP3    H266174   4.799   3.502   2.450
14895TIP3   OH266175   4.289   3.412   3.501
14895TIP3    H166176   4.285   3.440   3.410
14895TIP3    H266177   4.197   3.409   3.529
14896TIP3   OH266178   5.409   1.925   2.152
14896TIP3    H166179   5.325   1.952   2.190
14896TIP3    H266180   5.447   2.006   2.118
14897TIP3   OH266181   4.247   2.811   2.322
14897TIP3    H166182   4.187   2.878   2.291
14897TIP3    H266183   4.197   2.729   2.321
14898TIP3   OH266184   5.566   3.365   2.010
14898TIP3    H166185   5.574   3.461   2.013
14898TIP3    H266186   5.655   3.334   1.994
14899TIP3   OH266187   3.816   3.034   3.283
14899TIP3    H166188   3.867   3.070   3.211
14899TIP3    H266189   3.847   2.944   3.293
14900TIP3   OH266190   3.815   3.317   2.914
14900TIP3    H166191   3.885   3.262   2.950
14900TIP3    H266192   3.803   3.386   2.980
14901TIP3   OH266193   5.630   3.411   3.535
14901TIP3    H166194   5.621   3.316   3.524
14901TIP3    H266195   5.543   3.440   3.562
14902TIP3   OH266196   4.706   3.350   3.379
14902TIP3    H166197   4.697   3.432   3.427
14902TIP3    H266198   4.623   3.305   3.393
14903TIP3   OH266199   4.801   3.691   2.359
14903TIP3    H166200   4.779   3.690   2.266
14903TIP3    H266201   4.759   3.769   2.394
14904TIP3   OH266202   4.140   3.593   2.540
14904TIP3    H166203   4.162   3.567   2.629
14904TIP3    H266204   4.086   3.521   2.506
14905TIP3   OH266205   5.087   3.661   2.043
14905TIP3    H166206   5.135   3.588   2.004
14905TIP3    H266207   5.099   3.650   2.137
14906TIP3   OH266208   5.069   3.641   2.320
14906TIP3    H166209   4.975   3.655   2.336
14906TIP3    H266210   5.096   3.579   2.388
14907TIP3   OH266211   5.312   2.550   3.557
14907TIP3    H166212   5.259   2.588   3.487
14907TIP3    H266213   5.321   2.458   3.533
14908TIP3   OH266214   4.039   3.228   3.393
14908TIP3    H166215   4.083   3.152   3.432
14908TIP3    H266216   4.026   3.204   3.302
14909TIP3   OH266217   4.303   2.003   2.980
14909TIP3    H166218   4.234   1.998   2.913
14909TIP3    H266219   4.285   2.084   3.026
14910TIP3   OH266220   4.780   1.991   3.307
14910TIP3    H166221   4.846   1.949   3.362
14910TIP3    H266222   4.768   2.078   3.347
14911TIP3   OH266223   5.062   2.405   3.336
14911TIP3    H166224   5.035   2.379   3.424
14911TIP3    H266225   5.095   2.494   3.346
14912TIP3   OH266226   5.187   2.778   1.911
14912TIP3    H166227   5.167   2.813   1.824
14912TIP3    H266228   5.275   2.812   1.931
14913TIP3   OH266229   4.745   2.230   2.016
14913TIP3    H166230   4.687   2.227   2.093
14913TIP3    H266231   4.709   2.164   1.957
14914TIP3   OH266232   4.331   2.552   3.052
14914TIP3    H166233   4.267   2.555   3.124
14914TIP3    H266234   4.333   2.641   3.017
14915TIP3   OH266235   4.330   2.540   2.555
14915TIP3    H166236   4.234   2.535   2.554
14915TIP3    H266237   4.355   2.525   2.464
14916TIP3   OH266238   4.865   2.574   2.427
14916TIP3    H166239   4.842   2.662   2.396
14916TIP3    H266240   4.935   2.545   2.369
14917TIP3   OH266241   4.784   2.594   3.533
14917TIP3    H166242   4.743   2.517   3.572
14917TIP3    H266243   4.868   2.602   3.578
14918TIP3   OH266244   4.964   2.519   2.681
14918TIP3    H166245   4.921   2.560   2.606
14918TIP3    H266246   5.011   2.444   2.644
14919TIP3   OH266247   4.132   2.560   3.237
14919TIP3    H166248   4.121   2.618   3.312
14919TIP3    H266249   4.079   2.483   3.257
14920TIP3   OH266250   4.430   2.276   1.914
14920TIP3    H166251   4.399   2.267   2.004
14920TIP3    H266252   4.371   2.340   1.874
14921TIP3   OH266253   3.778   2.250   2.650
14921TIP3    H166254   3.829   2.259   2.730
14921TIP3    H266255   3.828   2.299   2.584
14922TIP3   OH266256   3.804   2.341   2.126
14922TIP3    H166257   3.873   2.383   2.075
14922TIP3    H266258   3.746   2.413   2.151
14923TIP3   OH266259   4.940   2.676   3.158
14923TIP3    H166260   4.972   2.621   3.087
14923TIP3    H266261   4.872   2.623   3.201
14924TIP3   OH266262   4.626   2.258   2.629
14924TIP3    H166263   4.536   2.263   2.661
14924TIP3    H266264   4.675   2.223   2.703
14925TIP3   OH266265   4.065   2.457   2.521
14925TIP3    H166266   3.994   2.485   2.464
14925TIP3    H266267   4.089   2.370   2.489
14926TIP3   OH266268   4.386   2.471   2.295
14926TIP3    H166269   4.480   2.465   2.311
14926TIP3    H266270   4.379   2.511   2.208
14927TIP3   OH266271   4.976   2.238   2.940
14927TIP3    H166272   4.947   2.230   3.031
14927TIP3    H266273   4.909   2.192   2.889
14928TIP3   OH266274   4.357   2.558   2.037
14928TIP3    H166275   4.305   2.534   1.960
14928TIP3    H266276   4.431   2.608   2.001
14929TIP3   OH266277   5.334   3.787   3.607
14929TIP3    H166278   5.361   3.795   3.515
14929TIP3    H266279   5.411   3.815   3.656
14930TIP3   OH266280   4.135   3.018   3.559
14930TIP3    H166281   4.202   3.021   3.627
14930TIP3    H266282   4.053   3.037   3.605
14931TIP3   OH266283   4.711   2.596   2.829
14931TIP3    H166284   4.782   2.547   2.789
14931TIP3    H266285   4.680   2.540   2.900
14932TIP3   OH266286   4.169   2.195   2.479
14932TIP3    H166287   4.119   2.118   2.505
14932TIP3    H266288   4.205   2.171   2.393
14933TIP3   OH266289   4.596   2.464   3.050
14933TIP3    H166290   4.514   2.513   3.058
14933TIP3    H266291   4.648   2.491   3.126
14934TIP3   OH266292   4.622   3.002   2.238
14934TIP3    H166293   4.550   2.972   2.182
14934TIP3    H266294   4.579   3.043   2.313
14935TIP3   OH266295   5.346   2.971   3.078
14935TIP3    H166296   5.408   3.023   3.027
14935TIP3    H266297   5.274   2.953   3.017
14936TIP3   OH266298   4.998   2.284   2.105
14936TIP3    H166299   4.907   2.281   2.075
14936TIP3    H266300   5.009   2.372   2.140
14937TIP3   OH266301   4.797   3.066   3.384
14937TIP3    H166302   4.820   3.025   3.468
14937TIP3    H266303   4.758   3.150   3.408
14938TIP3   OH266304   5.070   2.514   2.246
14938TIP3    H166305   5.157   2.497   2.282
14938TIP3    H266306   5.075   2.603   2.212
14939TIP3   OH266307   4.139   2.870   2.749
14939TIP3    H166308   4.206   2.906   2.691
14939TIP3    H266309   4.185   2.851   2.831
14940TIP3   OH266310   4.831   3.162   2.166
14940TIP3    H166311   4.797   3.251   2.172
14940TIP3    H266312   4.756   3.107   2.189
14941TIP3   OH266313   3.863   2.765   3.341
14941TIP3    H166314   3.820   2.726   3.417
14941TIP3    H266315   3.800   2.756   3.270
14942TIP3   OH266316   4.584   2.787   3.573
14942TIP3    H166317   4.514   2.751   3.518
14942TIP3    H266318   4.662   2.736   3.549
14943TIP3   OH266319   4.989   3.347   3.383
14943TIP3    H166320   4.896   3.343   3.359
14943TIP3    H266321   4.989   3.354   3.478
14944TIP3   OH266322   5.522   2.550   2.188
14944TIP3    H166323   5.484   2.530   2.103
14944TIP3    H266324   5.543   2.644   2.183
14945TIP3   OH266325   5.602   3.146   3.474
14945TIP3    H166326   5.511   3.139   3.446
14945TIP3    H266327   5.653   3.120   3.397
14946TIP3   OH266328   5.407   3.400   2.246
14946TIP3    H166329   5.362   3.323   2.282
14946TIP3    H266330   5.454   3.367   2.170
14947TIP3   OH266331   5.136   2.906   2.899
14947TIP3    H166332   5.041   2.897   2.897
14947TIP3    H266333   5.169   2.829   2.852
14948TIP3   OH266334   4.416   3.333   2.593
14948TIP3    H166335   4.425   3.419   2.552
14948TIP3    H266336   4.325   3.332   2.625
14949TIP3   OH266337   3.970   2.783   2.039
14949TIP3    H166338   4.017   2.849   2.090
14949TIP3    H266339   3.879   2.789   2.068
14950TIP3   OH266340   4.472   3.120   2.430
14950TIP3    H166341   4.466   3.198   2.486
14950TIP3    H266342   4.430   3.050   2.481
14951TIP3   OH266343   4.600   3.502   3.162
14951TIP3    H166344   4.661   3.572   3.141
14951TIP3    H266345   4.649   3.442   3.218
14952TIP3   OH266346   4.408   3.588   2.474
14952TIP3    H166347   4.315   3.607   2.488
14952TIP3    H266348   4.453   3.665   2.509
14953TIP3   OH266349   4.905   3.124   3.135
14953TIP3    H166350   4.866   3.103   3.220
14953TIP3    H266351   4.970   3.055   3.120
14954TIP3   OH266352   5.187   3.216   2.036
14954TIP3    H166353   5.208   3.169   2.116
14954TIP3    H266354   5.100   3.185   2.011
14955TIP3   OH266355   5.206   3.514   3.346
14955TIP3    H166356   5.128   3.459   3.351
14955TIP3    H266357   5.181   3.586   3.288
14956TIP3   OH266358   5.598   3.639   2.032
14956TIP3    H166359   5.640   3.711   1.984
14956TIP3    H266360   5.522   3.679   2.074
14957TIP3   OH266361   3.993   2.312   3.271
14957TIP3    H166362   3.904   2.340   3.247
14957TIP3    H266363   3.980   2.254   3.346
14958TIP3   OH266364   5.280   3.069   2.247
14958TIP3    H166365   5.237   3.002   2.300
14958TIP3    H266366   5.373   3.059   2.266
14959TIP3   OH266367   3.986   3.463   3.126
14959TIP3    H166368   4.007   3.371   3.110
14959TIP3    H266369   3.986   3.472   3.221
14960TIP3   OH266370   4.552   3.301   1.896
14960TIP3    H166371   4.557   3.217   1.852
14960TIP3    H266372   4.515   3.282   1.982
14961TIP3   OH266373   4.425   3.279   2.147
14961TIP3    H166374   4.446   3.231   2.227
14961TIP3    H266375   4.438   3.371   2.170
14962TIP3   OH266376   4.073   2.989   2.199
14962TIP3    H166377   4.005   3.038   2.245
14962TIP3    H266378   4.119   3.055   2.147
14963TIP3   OH266379   4.904   2.233   3.206
14963TIP3    H166380   4.974   2.287   3.244
14963TIP3    H266381   4.927   2.144   3.232
14964TIP3   OH266382   4.975   2.174   2.360
14964TIP3    H166383   4.984   2.215   2.274
14964TIP3    H266384   5.018   2.235   2.420
14965TIP3   OH266385   4.728   3.412   2.180
14965TIP3    H166386   4.641   3.446   2.202
14965TIP3    H266387   4.777   3.489   2.152
14966TIP3   OH266388   4.640   2.417   2.402
14966TIP3    H166389   4.716   2.475   2.410
14966TIP3    H266390   4.636   2.373   2.487
14967TIP3   OH266391   4.763   2.494   3.269
14967TIP3    H166392   4.769   2.519   3.361
14967TIP3    H266393   4.808   2.409   3.265
14968TIP3   OH266394   4.737   2.068   2.452
14968TIP3    H166395   4.711   2.137   2.513
14968TIP3    H266396   4.825   2.093   2.424
14969TIP3   OH266397   4.486   3.541   2.216
14969TIP3    H166398   4.494   3.629   2.179
14969TIP3    H266399   4.457   3.556   2.306
14970TIP3   OH266400   4.326   2.225   2.171
14970TIP3    H166401   4.321   2.311   2.214
14970TIP3    H266402   4.412   2.191   2.195
14971TIP3   OH266403   5.345   2.315   3.413
14971TIP3    H166404   5.291   2.237   3.406
14971TIP3    H266405   5.342   2.355   3.326
14972TIP3   OH266406   5.211   2.656   2.780
14972TIP3    H166407   5.127   2.613   2.760
14972TIP3    H266408   5.256   2.595   2.838
14973TIP3   OH266409   4.181   3.194   2.041
14973TIP3    H166410   4.255   3.238   2.084
14973TIP3    H266411   4.221   3.142   1.972
14974TIP3   OH266412   3.956   2.512   1.975
14974TIP3    H166413   3.978   2.598   2.011
14974TIP3    H266414   3.935   2.529   1.883
14975TIP3   OH266415   5.350   3.627   2.956
14975TIP3    H166416   5.325   3.698   2.897
14975TIP3    H266417   5.444   3.640   2.970
14976TIP3   OH266418   4.068   1.994   2.829
14976TIP3    H166419   4.060   1.991   2.734
14976TIP3    H266420   4.031   1.910   2.859
14977TIP3   OH266421   3.951   3.399   2.454
14977TIP3    H166422   3.902   3.424   2.533
14977TIP3    H266423   3.923   3.462   2.387
14978TIP3   OH266424   3.916   3.678   3.606
14978TIP3    H166425   3.987   3.649   3.664
14978TIP3    H266426   3.878   3.597   3.573
14979TIP3   OH266427   4.356   3.503   3.751
14979TIP3    H166428   4.430   3.450   3.777
14979TIP3    H266429   4.336   3.476   3.662
14980TIP3   OH266430   4.756   3.486   1.867
14980TIP3    H166431   4.690   3.420   1.885
14980TIP3    H266432   4.833   3.437   1.838
14981TIP3   OH266433   4.991   3.370   3.655
14981TIP3    H166434   4.980   3.286   3.700
14981TIP3    H266435   5.067   3.410   3.698
14982TIP3   OH266436   5.210   3.457   1.908
14982TIP3    H166437   5.218   3.378   1.961
14982TIP3    H266438   5.285   3.454   1.850
14983TIP3   OH266439   3.886   3.050   3.680
14983TIP3    H166440   3.873   2.956   3.672
14983TIP3    H266441   3.821   3.088   3.621
14984TIP3   OH266442   4.314   3.021   1.876
14984TIP3    H166443   4.336   2.972   1.956
14984TIP3    H266444   4.397   3.034   1.832
14985TIP3   OH266445   4.551   3.061   3.634
14985TIP3    H166446   4.529   3.103   3.550
14985TIP3    H266447   4.578   2.972   3.610
14986TIP3   OH266448   4.942   3.147   1.917
14986TIP3    H166449   4.894   3.145   1.999
14986TIP3    H266450   4.912   3.070   1.869
14987TIP3   OH266451   5.119   3.093   3.404
14987TIP3    H166452   5.208   3.111   3.375
14987TIP3    H266453   5.071   3.174   3.385
14988TIP3   OH266454   3.955   2.768   3.664
14988TIP3    H166455   4.041   2.767   3.622
14988TIP3    H266456   3.975   2.775   3.758
14989TIP3   OH266457   4.408   2.890   2.102
14989TIP3    H166458   4.361   2.850   2.176
14989TIP3    H266459   4.455   2.817   2.062
14990TIP3   OH266460   4.393   2.673   3.403
14990TIP3    H166461   4.308   2.716   3.394
14990TIP3    H266462   4.444   2.706   3.329
14991TIP3   OH266463   4.564   2.717   1.950
14991TIP3    H166464   4.560   2.745   1.859
14991TIP3    H266465   4.657   2.712   1.970
14992TIP3   OH266466   4.891   2.918   3.656
14992TIP3    H166467   4.973   2.884   3.620
14992TIP3    H266468   4.863   2.851   3.719
14993TIP3   OH266469   5.435   2.900   1.905
14993TIP3    H166470   5.443   2.882   1.811
14993TIP3    H266471   5.433   2.995   1.911
14994TIP3   OH266472   4.432   2.409   3.467
14994TIP3    H166473   4.443   2.362   3.384
14994TIP3    H266474   4.425   2.501   3.441
14995TIP3   OH266475   4.457   2.284   3.216
14995TIP3    H166476   4.511   2.332   3.153
14995TIP3    H266477   4.370   2.280   3.175
14996TIP3   OH266478   4.565   2.777   3.219
14996TIP3    H166479   4.657   2.795   3.233
14996TIP3    H266480   4.532   2.853   3.170
14997TIP3   OH266481   5.021   2.570   3.689
14997TIP3    H166482   5.014   2.480   3.659
14997TIP3    H266483   5.115   2.584   3.702
14998TIP3   OH266484   5.156   2.865   3.544
14998TIP3    H166485   5.132   2.947   3.500
14998TIP3    H266486   5.252   2.864   3.539
14999TIP3   OH266487   4.259   2.465   3.682
14999TIP3    H166488   4.174   2.424   3.664
14999TIP3    H266489   4.306   2.458   3.599
15000TIP3   OH266490   4.472   2.022   3.280
15000TIP3    H166491   4.475   2.116   3.262
15000TIP3    H266492   4.517   1.982   3.206
15001TIP3   OH266493   4.668   2.362   3.625
15001TIP3    H166494   4.654   2.337   3.716
15001TIP3    H266495   4.580   2.367   3.587
15002TIP3   OH266496   4.947   2.331   3.574
15002TIP3    H166497   4.854   2.320   3.595
15002TIP3    H266498   4.992   2.268   3.630
15003TIP3   OH266499   5.084   2.186   3.760
15003TIP3    H166500   5.077   2.090   3.752
15003TIP3    H266501   5.055   2.204   3.850
15004TIP3   OH266502   4.045   2.280   3.649
15004TIP3    H166503   4.064   2.200   3.600
15004TIP3    H266504   4.055   2.254   3.741
15005TIP3   OH266505   4.527   1.892   3.512
15005TIP3    H166506   4.592   1.822   3.521
15005TIP3    H266507   4.553   1.938   3.433
15006TIP3   OH266508   4.571   2.044   3.750
15006TIP3    H166509   4.562   2.004   3.664
15006TIP3    H266510   4.509   2.117   3.750
15007TIP3   OH266511   4.578   3.795   2.115
15007TIP3    H166512   4.661   3.750   2.099
15007TIP3    H266513   4.561   3.844   2.035
15008TIP3   OH266514   3.915   3.246   1.993
15008TIP3    H166515   4.008   3.240   2.014
15008TIP3    H266516   3.900   3.176   1.929
15009TIP3   OH266517   3.770   3.725   2.549
15009TIP3    H166518   3.706   3.699   2.483
15009TIP3    H266519   3.789   3.644   2.597
15010TIP3   OH266520   3.853   3.501   2.699
15010TIP3    H166521   3.821   3.426   2.749
15010TIP3    H266522   3.900   3.554   2.763
15011TIP3   OH266523   5.611   3.685   3.056
15011TIP3    H166524   5.618   3.620   3.126
15011TIP3    H266525   5.689   3.670   3.002
15012TIP3   OH266526   5.585   3.532   3.287
15012TIP3    H166527   5.525   3.468   3.247
15012TIP3    H266528   5.620   3.487   3.363
15013TIP3   OH266529   5.422   3.185   3.773
15013TIP3    H166530   5.338   3.189   3.819
15013TIP3    H266531   5.474   3.255   3.812
15014TIP3   OH266532   5.545   3.015   2.310
15014TIP3    H166533   5.613   3.079   2.328
15014TIP3    H266534   5.559   2.946   2.375
15015TIP3   OH266535   5.584   2.800   2.477
15015TIP3    H166536   5.501   2.763   2.509
15015TIP3    H266537   5.636   2.812   2.557
15016TIP3   OH266538   5.592   3.092   3.004
15016TIP3    H166539   5.637   3.020   2.961
15016TIP3    H266540   5.631   3.171   2.967
15017TIP3   OH266541   5.387   3.363   3.202
15017TIP3    H166542   5.319   3.413   3.247
15017TIP3    H266543   5.355   3.352   3.113
15018TIP3   OH266544   5.576   2.811   2.123
15018TIP3    H166545   5.526   2.840   2.047
15018TIP3    H266546   5.568   2.882   2.186
15019TIP3   OH266547   5.429   2.506   1.933
15019TIP3    H166548   5.407   2.565   1.861
15019TIP3    H266549   5.408   2.419   1.900
15020TIP3   OH266550   5.340   2.681   2.536
15020TIP3    H166551   5.337   2.590   2.505
15020TIP3    H266552   5.301   2.677   2.624
15021TIP3   OH266553   3.803   2.815   2.951
15021TIP3    H166554   3.820   2.825   2.858
15021TIP3    H266555   3.890   2.814   2.991
15022TIP3   OH266556   5.431   2.867   3.512
15022TIP3    H166557   5.490   2.793   3.501
15022TIP3    H266558   5.458   2.929   3.445
15023TIP3   OH266559   5.573   2.629   3.500
15023TIP3    H166560   5.486   2.598   3.525
15023TIP3    H266561   5.632   2.558   3.526
15024TIP3   OH266562   5.356   2.255   1.841
15024TIP3    H166563   5.392   2.210   1.918
15024TIP3    H266564   5.263   2.235   1.843
15025TIP3   OH266565   5.331   2.439   2.366
15025TIP3    H166566   5.362   2.349   2.370
15025TIP3    H266567   5.396   2.484   2.311
15026TIP3   OH266568   5.363   2.477   2.936
15026TIP3    H166569   5.456   2.487   2.914
15026TIP3    H266570   5.360   2.487   3.031
15027TIP3   OH266571   5.392   2.553   3.212
15027TIP3    H166572   5.312   2.590   3.249
15027TIP3    H266573   5.445   2.630   3.190
15028TIP3   OH266574   3.818   2.390   3.532
15028TIP3    H166575   3.900   2.371   3.577
15028TIP3    H266576   3.764   2.312   3.546
15029TIP3   OH266577   5.610   1.983   3.709
15029TIP3    H166578   5.676   1.921   3.676
15029TIP3    H266579   5.606   2.051   3.643
15030TIP3   OH266580   5.403   2.171   2.384
15030TIP3    H166581   5.424   2.131   2.469
15030TIP3    H266582   5.332   2.116   2.349
15031TIP3   OH266583   3.935   2.236   2.880
15031TIP3    H166584   3.979   2.151   2.869
15031TIP3    H266585   4.006   2.300   2.883
15032TIP3   OH266586   3.732   2.543   2.913
15032TIP3    H166587   3.808   2.521   2.859
15032TIP3    H266588   3.746   2.635   2.936
15033TIP3   OH266589   5.560   2.163   3.509
15033TIP3    H166590   5.481   2.215   3.499
15033TIP3    H266591   5.553   2.095   3.441
15034TIP3   OH266592   5.523   2.143   2.030
15034TIP3    H166593   5.579   2.088   1.974
15034TIP3    H266594   5.583   2.207   2.068
15035TIP3   OH266595   3.800   2.140   2.311
15035TIP3    H166596   3.709   2.144   2.341
15035TIP3    H266597   3.810   2.217   2.256
15036TIP3   OH266598   5.296   3.688   2.568
15036TIP3    H166599   5.351   3.663   2.494
15036TIP3    H266600   5.344   3.759   2.611
15037TIP3   OH266601   3.803   2.004   3.201
15037TIP3    H166602   3.727   2.000   3.258
15037TIP3    H266603   3.782   2.072   3.137
15038TIP3   OH266604   4.030   3.396   3.606
15038TIP3    H166605   4.013   3.338   3.531
15038TIP3    H266606   3.975   3.362   3.676
15039TIP3   OH266607   4.334   3.474   3.232
15039TIP3    H166608   4.300   3.558   3.203
15039TIP3    H266609   4.428   3.478   3.213
15040TIP3   OH266610   4.700   3.592   3.512
15040TIP3    H166611   4.715   3.562   3.601
15040TIP3    H266612   4.776   3.647   3.492
15041TIP3   OH266613   4.928   3.740   3.466
15041TIP3    H166614   4.990   3.687   3.416
15041TIP3    H266615   4.977   3.765   3.545
15042TIP3   OH266616   5.514   1.949   3.337
15042TIP3    H166617   5.421   1.969   3.332
15042TIP3    H266618   5.518   1.853   3.332
15043TIP3   OH266619   4.057   3.832   3.247
15043TIP3    H166620   3.969   3.857   3.217
15043TIP3    H266621   4.055   3.849   3.341
15044TIP3   OH266622   4.294   3.737   3.156
15044TIP3    H166623   4.208   3.764   3.187
15044TIP3    H266624   4.302   3.776   3.069
15045TIP3   OH266625   4.754   3.718   3.075
15045TIP3    H166626   4.702   3.745   3.000
15045TIP3    H266627   4.755   3.794   3.132
15046TIP3   OH266628   4.992   3.620   3.179
15046TIP3    H166629   4.911   3.648   3.138
15046TIP3    H266630   5.058   3.682   3.147
15047TIP3   OH266631   5.249   3.759   3.175
15047TIP3    H166632   5.265   3.850   3.149
15047TIP3    H266633   5.280   3.708   3.100
15048TIP3   OH266634   4.008   3.629   2.908
15048TIP3    H166635   4.004   3.578   2.989
15048TIP3    H266636   4.088   3.600   2.865
15049TIP3   OH266637   4.231   3.524   2.791
15049TIP3    H166638   4.215   3.432   2.812
15049TIP3    H266639   4.317   3.543   2.827
15050TIP3   OH266640   4.485   3.527   2.909
15050TIP3    H166641   4.495   3.438   2.876
15050TIP3    H266642   4.513   3.522   3.001
15051TIP3   OH266643   4.768   2.096   2.804
15051TIP3    H166644   4.701   2.029   2.819
15051TIP3    H266645   4.842   2.048   2.767
15052TIP3   OH266646   5.295   1.949   2.778
15052TIP3    H166647   5.361   1.995   2.725
15052TIP3    H266648   5.295   1.995   2.862
15053TIP3   OH266649   5.494   2.044   2.613
15053TIP3    H166650   5.558   1.976   2.591
15053TIP3    H266651   5.547   2.122   2.632
15054TIP3   OH266652   4.035   1.962   2.556
15054TIP3    H166653   3.943   1.946   2.534
15054TIP3    H266654   4.078   1.878   2.539
15055TIP3   OH266655   3.960   1.968   2.161
15055TIP3    H166656   4.009   2.027   2.104
15055TIP3    H266657   3.909   2.026   2.217
15056TIP3   OH266658   4.527   1.921   2.570
15056TIP3    H166659   4.598   1.969   2.528
15056TIP3    H266660   4.544   1.930   2.664
15057TIP3   OH266661   4.988   1.957   2.726
15057TIP3    H166662   5.083   1.970   2.724
15057TIP3    H266663   4.978   1.866   2.756
15058TIP3   OH266664   5.191   2.011   2.297
15058TIP3    H166665   5.116   2.067   2.318
15058TIP3    H266666   5.158   1.922   2.308
15059TIP3   OH266667   3.883   3.574   2.261
15059TIP3    H166668   3.810   3.560   2.200
15059TIP3    H266669   3.907   3.666   2.247
15060TIP3   OH266670   4.132   2.124   1.991
15060TIP3    H166671   4.184   2.069   1.932
15060TIP3    H266672   4.195   2.158   2.055
15061TIP3   OH266673   4.591   2.198   2.245
15061TIP3    H166674   4.629   2.127   2.298
15061TIP3    H266675   4.609   2.277   2.295
15062TIP3   OH266676   4.813   3.658   2.072
15062TIP3    H166677   4.906   3.675   2.061
15062TIP3    H266678   4.788   3.609   1.994
15063TIP3   OH266679   5.467   3.641   2.358
15063TIP3    H166680   5.450   3.553   2.325
15063TIP3    H266681   5.454   3.698   2.282
15064TIP3   OH266682   4.087   2.029   3.522
15064TIP3    H166683   4.010   1.972   3.524
15064TIP3    H266684   4.141   1.999   3.595
15065TIP3   OH266685   4.278   1.899   3.658
15065TIP3    H166686   4.367   1.873   3.679
15065TIP3    H266687   4.223   1.842   3.712
15066TIP3   OH266688   4.082   3.587   1.925
15066TIP3    H166689   4.082   3.630   2.011
15066TIP3    H266690   4.170   3.551   1.917
15067TIP3   OH266691   5.084   1.914   3.725
15067TIP3    H166692   5.077   1.860   3.804
15067TIP3    H266693   5.174   1.902   3.695
15068TIP3   OH266694   5.377   3.514   3.567
15068TIP3    H166695   5.320   3.499   3.492
15068TIP3    H266696   5.356   3.603   3.596
15069TIP3   OH266697   6.856   2.930   2.528
15069TIP3    H166698   6.844   3.025   2.518
15069TIP3    H266699   6.785   2.891   2.477
15070TIP3   OH266700   6.727   2.829   2.929
15070TIP3    H166701   6.752   2.787   3.012
15070TIP3    H266702   6.670   2.765   2.886
15071TIP3   OH266703   5.942   2.750   3.058
15071TIP3    H166704   5.953   2.681   3.123
15071TIP3    H266705   6.031   2.771   3.029
15072TIP3   OH266706   7.103   3.154   2.752
15072TIP3    H166707   7.065   3.076   2.793
15072TIP3    H266708   7.126   3.212   2.824
15073TIP3   OH266709   6.083   3.267   2.895
15073TIP3    H166710   6.055   3.176   2.881
15073TIP3    H266711   6.178   3.262   2.900
15074TIP3   OH266712   5.726   2.561   2.396
15074TIP3    H166713   5.710   2.651   2.424
15074TIP3    H266714   5.658   2.545   2.330
15075TIP3   OH266715   5.774   2.811   2.679
15075TIP3    H166716   5.818   2.729   2.700
15075TIP3    H266717   5.833   2.855   2.618
15076TIP3   OH266718   6.837   3.594   2.806
15076TIP3    H166719   6.863   3.531   2.738
15076TIP3    H266720   6.815   3.540   2.882
15077TIP3   OH266721   6.572   3.081   2.941
15077TIP3    H166722   6.611   3.001   2.906
15077TIP3    H266723   6.637   3.114   3.004
15078TIP3   OH266724   6.909   2.481   2.955
15078TIP3    H166725   6.900   2.386   2.966
15078TIP3    H266726   6.874   2.498   2.867
15079TIP3   OH266727   6.235   2.302   2.671
15079TIP3    H166728   6.236   2.389   2.632
15079TIP3    H266729   6.177   2.250   2.615
15080TIP3   OH266730   6.967   2.341   2.526
15080TIP3    H166731   7.012   2.301   2.601
15080TIP3    H266732   7.038   2.377   2.472
15081TIP3   OH266733   5.872   2.561   2.763
15081TIP3    H166734   5.938   2.524   2.822
15081TIP3    H266735   5.894   2.526   2.677
15082TIP3   OH266736   6.331   2.708   2.740
15082TIP3    H166737   6.418   2.675   2.761
15082TIP3    H266738   6.297   2.648   2.674
15083TIP3   OH266739   6.093   2.227   3.104
15083TIP3    H166740   6.069   2.286   3.032
15083TIP3    H266741   6.022   2.238   3.168
15084TIP3   OH266742   6.832   3.188   2.423
15084TIP3    H166743   6.803   3.174   2.333
15084TIP3    H266744   6.774   3.257   2.456
15085TIP3   OH266745   6.347   2.998   3.080
15085TIP3    H166746   6.298   3.071   3.118
15085TIP3    H266747   6.418   3.040   3.030
15086TIP3   OH266748   7.083   2.241   2.749
15086TIP3    H166749   7.011   2.213   2.806
15086TIP3    H266750   7.144   2.286   2.807
15087TIP3   OH266751   6.073   2.394   2.883
15087TIP3    H166752   6.130   2.450   2.936
15087TIP3    H266753   6.130   2.358   2.815
15088TIP3   OH266754   6.206   3.204   3.200
15088TIP3    H166755   6.211   3.299   3.188
15088TIP3    H266756   6.115   3.187   3.223
15089TIP3   OH266757   5.785   3.161   2.344
15089TIP3    H166758   5.809   3.129   2.257
15089TIP3    H266759   5.831   3.104   2.405
15090TIP3   OH266760   7.158   3.347   2.962
15090TIP3    H166761   7.064   3.343   2.981
15090TIP3    H266762   7.176   3.440   2.951
15091TIP3   OH266763   7.155   2.099   3.020
15091TIP3    H166764   7.061   2.114   3.018
15091TIP3    H266765   7.194   2.186   3.012
15092TIP3   OH266766   6.445   1.910   2.866
15092TIP3    H166767   6.420   1.818   2.868
15092TIP3    H266768   6.365   1.957   2.894
15093TIP3   OH266769   6.953   3.483   2.570
15093TIP3    H166770   6.993   3.397   2.554
15093TIP3    H266771   7.026   3.541   2.588
15094TIP3   OH266772   7.094   3.256   2.493
15094TIP3    H166773   7.013   3.217   2.462
15094TIP3    H266774   7.111   3.214   2.578
15095TIP3   OH266775   7.236   3.069   3.335
15095TIP3    H166776   7.224   3.026   3.250
15095TIP3    H266777   7.261   3.159   3.313
15096TIP3   OH266778   6.705   2.827   2.317
15096TIP3    H166779   6.632   2.884   2.292
15096TIP3    H266780   6.766   2.832   2.243
15097TIP3   OH266781   6.745   2.699   1.958
15097TIP3    H166782   6.798   2.722   2.035
15097TIP3    H266783   6.800   2.637   1.909
15098TIP3   OH266784   7.071   2.856   2.378
15098TIP3    H166785   7.004   2.884   2.440
15098TIP3    H266786   7.124   2.794   2.428
15099TIP3   OH266787   7.015   2.651   3.333
15099TIP3    H166788   6.999   2.717   3.401
15099TIP3    H266789   6.948   2.668   3.267
15100TIP3   OH266790   6.225   2.949   2.625
15100TIP3    H166791   6.149   2.934   2.569
15100TIP3    H266792   6.255   2.861   2.649
15101TIP3   OH266793   6.364   3.266   2.847
15101TIP3    H166794   6.353   3.266   2.751
15101TIP3    H266795   6.435   3.204   2.862
15102TIP3   OH266796   6.200   2.798   2.965
15102TIP3    H166797   6.247   2.775   2.885
15102TIP3    H266798   6.252   2.868   3.004
15103TIP3   OH266799   6.892   3.347   3.026
15103TIP3    H166800   6.871   3.419   3.086
15103TIP3    H266801   6.844   3.272   3.061
15104TIP3   OH266802   6.365   3.224   3.427
15104TIP3    H166803   6.301   3.280   3.472
15104TIP3    H266804   6.321   3.196   3.347
15105TIP3   OH266805   6.938   2.776   2.151
15105TIP3    H166806   6.984   2.811   2.228
15105TIP3    H266807   6.989   2.807   2.077
15106TIP3   OH266808   6.017   2.797   3.403
15106TIP3    H166809   6.030   2.883   3.442
15106TIP3    H266810   5.927   2.800   3.370
15107TIP3   OH266811   6.695   3.418   2.495
15107TIP3    H166812   6.775   3.454   2.532
15107TIP3    H266813   6.653   3.493   2.452
15108TIP3   OH266814   6.160   3.396   3.495
15108TIP3    H166815   6.159   3.428   3.405
15108TIP3    H266816   6.068   3.380   3.516
15109TIP3   OH266817   7.253   2.022   2.026
15109TIP3    H166818   7.195   2.011   2.101
15109TIP3    H266819   7.340   2.000   2.060
15110TIP3   OH266820   6.155   2.764   2.275
15110TIP3    H166821   6.104   2.816   2.337
15110TIP3    H266822   6.102   2.686   2.260
15111TIP3   OH266823   5.727   3.058   3.249
15111TIP3    H166824   5.679   3.065   3.167
15111TIP3    H266825   5.740   2.964   3.261
15112TIP3   OH266826   5.764   3.309   2.930
15112TIP3    H166827   5.846   3.278   2.891
15112TIP3    H266828   5.791   3.354   3.010
15113TIP3   OH266829   6.595   3.363   3.375
15113TIP3    H166830   6.589   3.445   3.424
15113TIP3    H266831   6.514   3.317   3.395
15114TIP3   OH266832   6.679   3.697   2.360
15114TIP3    H166833   6.642   3.697   2.272
15114TIP3    H266834   6.645   3.777   2.401
15115TIP3   OH266835   6.019   3.607   2.560
15115TIP3    H166836   6.033   3.569   2.647
15115TIP3    H266837   5.967   3.542   2.513
15116TIP3   OH266838   6.961   3.655   2.044
15116TIP3    H166839   7.012   3.586   2.001
15116TIP3    H266840   6.968   3.636   2.137
15117TIP3   OH266841   6.939   3.622   2.319
15117TIP3    H166842   6.847   3.644   2.332
15117TIP3    H266843   6.959   3.561   2.390
15118TIP3   OH266844   7.174   2.551   3.574
15118TIP3    H166845   7.158   2.601   3.494
15118TIP3    H266846   7.250   2.496   3.552
15119TIP3   OH266847   5.950   3.208   3.307
15119TIP3    H166848   5.977   3.171   3.391
15119TIP3    H266849   5.873   3.157   3.282
15120TIP3   OH266850   6.199   2.023   2.946
15120TIP3    H166851   6.123   2.013   2.888
15120TIP3    H266852   6.176   2.097   3.003
15121TIP3   OH266853   6.671   2.008   3.292
15121TIP3    H166854   6.716   1.958   3.360
15121TIP3    H266855   6.578   2.000   3.313
15122TIP3   OH266856   6.996   2.370   3.360
15122TIP3    H166857   6.931   2.354   3.428
15122TIP3    H266858   7.003   2.465   3.355
15123TIP3   OH266859   7.078   2.862   1.934
15123TIP3    H166860   7.048   2.846   1.844
15123TIP3    H266861   7.131   2.941   1.927
15124TIP3   OH266862   6.629   2.227   2.017
15124TIP3    H166863   6.570   2.225   2.093
15124TIP3    H266864   6.591   2.163   1.957
15125TIP3   OH266865   6.218   2.543   3.068
15125TIP3    H166866   6.152   2.540   3.138
15125TIP3    H266867   6.219   2.634   3.039
15126TIP3   OH266868   6.210   2.546   2.551
15126TIP3    H166869   6.114   2.541   2.548
15126TIP3    H266870   6.237   2.535   2.459
15127TIP3   OH266871   6.746   2.583   2.433
15127TIP3    H166872   6.724   2.670   2.399
15127TIP3    H266873   6.815   2.551   2.374
15128TIP3   OH266874   6.674   2.590   3.540
15128TIP3    H166875   6.624   2.518   3.580
15128TIP3    H266876   6.759   2.586   3.583
15129TIP3   OH266877   6.836   2.523   2.692
15129TIP3    H166878   6.792   2.576   2.625
15129TIP3    H266879   6.873   2.450   2.642
15130TIP3   OH266880   6.006   2.547   3.242
15130TIP3    H166881   6.003   2.598   3.323
15130TIP3    H266882   5.963   2.464   3.264
15131TIP3   OH266883   6.317   2.278   1.909
15131TIP3    H166884   6.285   2.270   1.999
15131TIP3    H266885   6.259   2.342   1.868
15132TIP3   OH266886   5.664   2.252   2.643
15132TIP3    H166887   5.716   2.258   2.723
15132TIP3    H266888   5.708   2.311   2.582
15133TIP3   OH266889   5.693   2.339   2.130
15133TIP3    H166890   5.761   2.380   2.077
15133TIP3    H266891   5.637   2.411   2.157
15134TIP3   OH266892   6.812   2.662   3.140
15134TIP3    H166893   6.849   2.599   3.077
15134TIP3    H266894   6.745   2.612   3.187
15135TIP3   OH266895   6.514   2.257   2.638
15135TIP3    H166896   6.423   2.266   2.665
15135TIP3    H266897   6.559   2.221   2.715
15136TIP3   OH266898   5.948   2.457   2.524
15136TIP3    H166899   5.878   2.486   2.466
15136TIP3    H266900   5.969   2.369   2.492
15137TIP3   OH266901   6.276   2.466   2.293
15137TIP3    H166902   6.370   2.465   2.313
15137TIP3    H266903   6.270   2.511   2.209
15138TIP3   OH266904   6.884   2.200   2.952
15138TIP3    H166905   6.853   2.210   3.042
15138TIP3    H266906   6.809   2.167   2.904
15139TIP3   OH266907   6.250   2.552   2.034
15139TIP3    H166908   6.196   2.534   1.957
15139TIP3    H266909   6.323   2.604   2.000
15140TIP3   OH266910   7.224   3.802   3.617
15140TIP3    H166911   7.242   3.866   3.548
15140TIP3    H266912   7.300   3.806   3.675
15141TIP3   OH266913   6.019   3.046   3.541
15141TIP3    H166914   6.086   3.039   3.609
15141TIP3    H266915   5.937   3.058   3.588
15142TIP3   OH266916   6.578   2.598   2.837
15142TIP3    H166917   6.646   2.545   2.795
15142TIP3    H266918   6.546   2.544   2.909
15143TIP3   OH266919   6.054   2.195   2.479
15143TIP3    H166920   6.004   2.119   2.506
15143TIP3    H266921   6.083   2.175   2.391
15144TIP3   OH266922   6.480   2.455   3.058
15144TIP3    H166923   6.394   2.495   3.070
15144TIP3    H266924   6.529   2.479   3.136
15145TIP3   OH266925   6.508   3.005   2.241
15145TIP3    H166926   6.435   2.973   2.186
15145TIP3    H266927   6.466   3.037   2.321
15146TIP3   OH266928   7.219   2.966   3.081
15146TIP3    H166929   7.286   2.932   3.021
15146TIP3    H266930   7.138   2.961   3.031
15147TIP3   OH266931   6.880   2.286   2.103
15147TIP3    H166932   6.788   2.282   2.075
15147TIP3    H266933   6.888   2.373   2.142
15148TIP3   OH266934   6.653   3.059   3.381
15148TIP3    H166935   6.687   3.019   3.461
15148TIP3    H266936   6.629   3.148   3.407
15149TIP3   OH266937   6.948   2.514   2.248
15149TIP3    H166938   7.036   2.495   2.281
15149TIP3    H266939   6.955   2.602   2.211
15150TIP3   OH266940   6.046   3.005   2.840
15150TIP3    H166941   6.085   2.998   2.753
15150TIP3    H266942   6.074   2.927   2.886
15151TIP3   OH266943   6.716   3.165   2.168
15151TIP3    H166944   6.683   3.254   2.173
15151TIP3    H266945   6.641   3.110   2.191
15152TIP3   OH266946   5.741   2.790   3.336
15152TIP3    H166947   5.709   2.746   3.415
15152TIP3    H266948   5.677   2.766   3.269
15153TIP3   OH266949   6.466   2.779   3.569
15153TIP3    H166950   6.398   2.739   3.515
15153TIP3    H266951   6.545   2.729   3.549
15154TIP3   OH266952   6.877   3.341   3.374
15154TIP3    H166953   6.785   3.350   3.348
15154TIP3    H266954   6.877   3.357   3.468
15155TIP3   OH266955   7.253   3.373   2.277
15155TIP3    H166956   7.211   3.345   2.359
15155TIP3    H266957   7.198   3.335   2.208
15156TIP3   OH266958   7.005   2.920   2.895
15156TIP3    H166959   6.910   2.909   2.900
15156TIP3    H266960   7.035   2.846   2.844
15157TIP3   OH266961   6.286   3.331   2.583
15157TIP3    H166962   6.299   3.420   2.548
15157TIP3    H266963   6.193   3.314   2.569
15158TIP3   OH266964   5.833   2.778   2.027
15158TIP3    H166965   5.880   2.851   2.067
15158TIP3    H266966   5.745   2.782   2.064
15159TIP3   OH266967   6.379   3.105   2.456
15159TIP3    H166968   6.367   3.190   2.498
15159TIP3    H266969   6.330   3.044   2.511
15160TIP3   OH266970   6.488   3.502   3.155
15160TIP3    H166971   6.545   3.577   3.137
15160TIP3    H266972   6.538   3.447   3.214
15161TIP3   OH266973   6.281   3.590   2.478
15161TIP3    H166974   6.189   3.608   2.497
15161TIP3    H266975   6.329   3.666   2.512
15162TIP3   OH266976   6.772   3.115   3.136
15162TIP3    H166977   6.726   3.098   3.218
15162TIP3    H266978   6.850   3.061   3.141
15163TIP3   OH266979   7.075   3.217   2.040
15163TIP3    H166980   7.101   3.159   2.111
15163TIP3    H266981   6.987   3.188   2.015
15164TIP3   OH266982   7.100   3.513   3.342
15164TIP3    H166983   7.019   3.462   3.337
15164TIP3    H266984   7.087   3.585   3.281
15165TIP3   OH266985   5.887   2.292   3.281
15165TIP3    H166986   5.796   2.318   3.263
15165TIP3    H266987   5.879   2.227   3.351
15166TIP3   OH266988   7.188   3.063   2.236
15166TIP3    H166989   7.145   2.995   2.286
15166TIP3    H266990   7.267   3.084   2.286
15167TIP3   OH266991   5.875   3.444   3.156
15167TIP3    H166992   5.908   3.365   3.198
15167TIP3    H266993   5.888   3.513   3.222
15168TIP3   OH266994   6.443   3.299   1.894
15168TIP3    H166995   6.447   3.214   1.850
15168TIP3    H266996   6.405   3.281   1.980
15169TIP3   OH266997   6.321   3.279   2.143
15169TIP3    H166998   6.339   3.228   2.221
15169TIP3    H266999   6.331   3.370   2.171
15170TIP3   OH267000   5.929   3.000   2.155
15170TIP3    H167001   5.952   2.977   2.245
15170TIP3    H267002   5.990   3.071   2.132
15171TIP3   OH267003   6.799   2.237   3.206
15171TIP3    H167004   6.865   2.261   3.271
15171TIP3    H267005   6.754   2.161   3.245
15172TIP3   OH267006   6.859   2.158   2.349
15172TIP3    H167007   6.864   2.199   2.263
15172TIP3    H267008   6.888   2.226   2.410
15173TIP3   OH267009   6.620   3.417   2.180
15173TIP3    H167010   6.532   3.443   2.206
15173TIP3    H267011   6.659   3.497   2.145
15174TIP3   OH267012   6.531   2.411   2.406
15174TIP3    H167013   6.602   2.475   2.415
15174TIP3    H267014   6.523   2.372   2.493
15175TIP3   OH267015   6.648   2.489   3.278
15175TIP3    H167016   6.651   2.521   3.368
15175TIP3    H267017   6.685   2.401   3.282
15176TIP3   OH267018   6.620   2.070   2.459
15176TIP3    H167019   6.594   2.141   2.518
15176TIP3    H267020   6.704   2.098   2.422
15177TIP3   OH267021   6.375   3.535   2.227
15177TIP3    H167022   6.377   3.620   2.183
15177TIP3    H267023   6.339   3.554   2.313
15178TIP3   OH267024   6.212   2.226   2.165
15178TIP3    H167025   6.205   2.312   2.208
15178TIP3    H267026   6.297   2.192   2.192
15179TIP3   OH267027   7.243   2.239   3.338
15179TIP3    H167028   7.155   2.276   3.338
15179TIP3    H267029   7.288   2.285   3.408
15180TIP3   OH267030   7.074   2.667   2.774
15180TIP3    H167031   6.988   2.630   2.755
15180TIP3    H267032   7.105   2.618   2.850
15181TIP3   OH267033   6.072   3.210   2.038
15181TIP3    H167034   6.147   3.252   2.080
15181TIP3    H267035   6.110   3.155   1.970
15182TIP3   OH267036   5.838   2.506   1.968
15182TIP3    H167037   5.856   2.593   2.004
15182TIP3    H267038   5.794   2.524   1.885
15183TIP3   OH267039   7.242   3.613   2.944
15183TIP3    H167040   7.220   3.685   2.885
15183TIP3    H267041   7.338   3.609   2.942
15184TIP3   OH267042   5.953   2.000   2.820
15184TIP3    H167043   5.944   1.993   2.725
15184TIP3    H267044   5.919   1.918   2.853
15185TIP3   OH267045   5.881   3.428   2.404
15185TIP3    H167046   5.839   3.343   2.390
15185TIP3    H267047   5.865   3.476   2.323
15186TIP3   OH267048   5.765   3.652   3.574
15186TIP3    H167049   5.826   3.635   3.646
15186TIP3    H267050   5.722   3.567   3.558
15187TIP3   OH267051   6.207   3.530   3.731
15187TIP3    H167052   6.283   3.493   3.774
15187TIP3    H267053   6.201   3.483   3.648
15188TIP3   OH267054   6.639   3.489   1.862
15188TIP3    H167055   6.573   3.423   1.881
15188TIP3    H267056   6.715   3.439   1.832
15189TIP3   OH267057   6.866   3.381   3.643
15189TIP3    H167058   6.846   3.297   3.684
15189TIP3    H267059   6.942   3.414   3.691
15190TIP3   OH267060   7.093   3.459   1.905
15190TIP3    H167061   7.098   3.379   1.957
15190TIP3    H267062   7.169   3.454   1.847
15191TIP3   OH267063   5.772   3.059   3.675
15191TIP3    H167064   5.775   2.964   3.672
15191TIP3    H267065   5.701   3.083   3.616
15192TIP3   OH267066   6.201   3.031   1.874
15192TIP3    H167067   6.221   2.980   1.953
15192TIP3    H267068   6.285   3.043   1.831
15193TIP3   OH267069   6.435   3.055   3.635
15193TIP3    H167070   6.421   3.100   3.551
15193TIP3    H267071   6.463   2.967   3.611
15194TIP3   OH267072   6.833   3.145   1.922
15194TIP3    H167073   6.782   3.146   2.002
15194TIP3    H267074   6.800   3.070   1.873
15195TIP3   OH267075   6.967   3.075   3.386
15195TIP3    H167076   7.061   3.084   3.374
15195TIP3    H267077   6.933   3.164   3.378
15196TIP3   OH267078   5.839   2.791   3.655
15196TIP3    H167079   5.921   2.760   3.616
15196TIP3    H267080   5.853   2.781   3.749
15197TIP3   OH267081   6.306   2.892   2.089
15197TIP3    H167082   6.251   2.849   2.154
15197TIP3    H267083   6.355   2.820   2.049
15198TIP3   OH267084   6.274   2.669   3.390
15198TIP3    H167085   6.192   2.718   3.388
15198TIP3    H267086   6.328   2.709   3.322
15199TIP3   OH267087   6.461   2.709   1.946
15199TIP3    H167088   6.456   2.740   1.856
15199TIP3    H267089   6.555   2.699   1.963
15200TIP3   OH267090   6.756   2.910   3.654
15200TIP3    H167091   6.837   2.877   3.614
15200TIP3    H267092   6.734   2.844   3.720
15201TIP3   OH267093   6.309   2.404   3.458
15201TIP3    H167094   6.318   2.350   3.379
15201TIP3    H267095   6.301   2.494   3.425
15202TIP3   OH267096   6.341   2.254   3.218
15202TIP3    H167097   6.395   2.301   3.154
15202TIP3    H267098   6.255   2.249   3.179
15203TIP3   OH267099   6.454   2.791   3.225
15203TIP3    H167100   6.537   2.825   3.257
15203TIP3    H267101   6.417   2.863   3.173
15204TIP3   OH267102   6.913   2.539   3.690
15204TIP3    H167103   6.916   2.445   3.707
15204TIP3    H267104   7.001   2.560   3.657
15205TIP3   OH267105   7.002   2.848   3.533
15205TIP3    H167106   6.977   2.927   3.484
15205TIP3    H267107   7.097   2.853   3.540
15206TIP3   OH267108   6.143   2.456   3.679
15206TIP3    H167109   6.061   2.408   3.668
15206TIP3    H267110   6.190   2.444   3.596
15207TIP3   OH267111   6.393   1.989   3.292
15207TIP3    H167112   6.374   2.081   3.270
15207TIP3    H267113   6.323   1.940   3.249
15208TIP3   OH267114   6.533   2.368   3.620
15208TIP3    H167115   6.501   2.340   3.706
15208TIP3    H267116   6.455   2.372   3.565
15209TIP3   OH267117   6.790   2.299   3.527
15209TIP3    H167118   6.701   2.310   3.559
15209TIP3    H267119   6.836   2.255   3.598
15210TIP3   OH267120   6.951   2.203   3.732
15210TIP3    H167121   6.944   2.108   3.724
15210TIP3    H267122   6.929   2.221   3.824
15211TIP3   OH267123   5.934   2.265   3.644
15211TIP3    H167124   5.936   2.184   3.593
15211TIP3    H267125   5.946   2.235   3.735
15212TIP3   OH267126   6.378   1.897   3.550
15212TIP3    H167127   6.435   1.821   3.543
15212TIP3    H267128   6.377   1.934   3.462
15213TIP3   OH267129   6.465   2.054   3.761
15213TIP3    H167130   6.438   2.001   3.685
15213TIP3    H267131   6.405   2.128   3.761
15214TIP3   OH267132   6.444   3.778   2.108
15214TIP3    H167133   6.531   3.743   2.089
15214TIP3    H267134   6.428   3.840   2.037
15215TIP3   OH267135   5.818   3.266   1.942
15215TIP3    H167136   5.899   3.254   1.991
15215TIP3    H267137   5.801   3.180   1.902
15216TIP3   OH267138   5.652   3.737   2.540
15216TIP3    H167139   5.603   3.697   2.468
15216TIP3    H267140   5.668   3.665   2.601
15217TIP3   OH267141   5.695   3.547   2.734
15217TIP3    H167142   5.675   3.454   2.748
15217TIP3    H267143   5.755   3.569   2.805
15218TIP3   OH267144   7.251   3.153   3.778
15218TIP3    H167145   7.169   3.171   3.824
15218TIP3    H267146   7.316   3.207   3.823
15219TIP3   OH267147   7.262   3.317   3.225
15219TIP3    H167148   7.218   3.390   3.269
15219TIP3    H267149   7.231   3.322   3.135
15220TIP3   OH267150   7.298   2.497   1.937
15220TIP3    H167151   7.253   2.552   1.873
15220TIP3    H267152   7.275   2.408   1.912
15221TIP3   OH267153   7.199   2.658   2.522
15221TIP3    H167154   7.192   2.564   2.505
15221TIP3    H267155   7.168   2.668   2.613
15222TIP3   OH267156   5.715   2.849   2.945
15222TIP3    H167157   5.728   2.846   2.850
15222TIP3    H267158   5.800   2.824   2.982
15223TIP3   OH267159   7.268   2.887   3.542
15223TIP3    H167160   7.360   2.862   3.556
15223TIP3    H267161   7.273   2.957   3.476
15224TIP3   OH267162   7.231   2.242   1.853
15224TIP3    H167163   7.249   2.173   1.917
15224TIP3    H267164   7.137   2.236   1.837
15225TIP3   OH267165   7.192   2.412   2.376
15225TIP3    H167166   7.215   2.328   2.416
15225TIP3    H267167   7.263   2.431   2.315
15226TIP3   OH267168   7.194   2.369   2.972
15226TIP3    H167169   7.264   2.434   2.965
15226TIP3    H267170   7.130   2.409   3.030
15227TIP3   OH267171   7.285   2.607   3.246
15227TIP3    H167172   7.191   2.624   3.255
15227TIP3    H267173   7.299   2.598   3.152
15228TIP3   OH267174   5.709   2.393   3.544
15228TIP3    H167175   5.793   2.367   3.584
15228TIP3    H267176   5.655   2.314   3.550
15229TIP3   OH267177   7.222   2.150   2.472
15229TIP3    H167178   7.187   2.133   2.559
15229TIP3    H267179   7.175   2.090   2.414
15230TIP3   OH267180   5.828   2.247   2.865
15230TIP3    H167181   5.866   2.159   2.860
15230TIP3    H267182   5.903   2.305   2.873
15231TIP3   OH267183   5.635   2.536   2.916
15231TIP3    H167184   5.706   2.528   2.853
15231TIP3    H267185   5.654   2.617   2.964
15232TIP3   OH267186   5.685   2.129   2.306
15232TIP3    H167187   5.596   2.136   2.340
15232TIP3    H267188   5.697   2.210   2.255
15233TIP3   OH267189   7.171   3.637   2.604
15233TIP3    H167190   7.249   3.587   2.628
15233TIP3    H267191   7.167   3.708   2.667
15234TIP3   OH267192   5.690   1.983   3.129
15234TIP3    H167193   5.630   1.976   3.204
15234TIP3    H267194   5.663   2.064   3.085
15235TIP3   OH267195   5.902   3.363   3.597
15235TIP3    H167196   5.812   3.369   3.566
15235TIP3    H267197   5.895   3.334   3.688
15236TIP3   OH267198   6.223   3.481   3.231
15236TIP3    H167199   6.195   3.570   3.206
15236TIP3    H267200   6.317   3.480   3.213
15237TIP3   OH267201   6.585   3.606   3.512
15237TIP3    H167202   6.595   3.571   3.601
15237TIP3    H267203   6.666   3.653   3.495
15238TIP3   OH267204   6.824   3.739   3.478
15238TIP3    H167205   6.892   3.683   3.440
15238TIP3    H267206   6.863   3.773   3.558
15239TIP3   OH267207   5.919   3.768   3.239
15239TIP3    H167208   5.842   3.813   3.205
15239TIP3    H267209   5.932   3.805   3.327
15240TIP3   OH267210   6.181   3.745   3.160
15240TIP3    H167211   6.088   3.753   3.181
15240TIP3    H267212   6.190   3.787   3.074
15241TIP3   OH267213   6.629   3.727   3.073
15241TIP3    H167214   6.575   3.764   3.003
15241TIP3    H267215   6.641   3.799   3.135
15242TIP3   OH267216   6.847   3.583   3.156
15242TIP3    H167217   6.773   3.635   3.127
15242TIP3    H267218   6.922   3.642   3.150
15243TIP3   OH267219   7.085   3.720   3.147
15243TIP3    H167220   7.107   3.813   3.142
15243TIP3    H267221   7.142   3.678   3.083
15244TIP3   OH267222   5.871   3.621   2.939
15244TIP3    H167223   5.874   3.566   3.017
15244TIP3    H267224   5.950   3.597   2.890
15245TIP3   OH267225   6.095   3.526   2.817
15245TIP3    H167226   6.084   3.434   2.840
15245TIP3    H267227   6.185   3.547   2.841
15246TIP3   OH267228   6.364   3.537   2.908
15246TIP3    H167229   6.370   3.448   2.873
15246TIP3    H267230   6.398   3.529   2.997
15247TIP3   OH267231   6.666   2.089   2.809
15247TIP3    H167232   6.599   2.026   2.833
15247TIP3    H267233   6.737   2.037   2.771
15248TIP3   OH267234   7.159   1.937   2.793
15248TIP3    H167235   7.182   1.997   2.864
15248TIP3    H267236   7.068   1.957   2.774
15249TIP3   OH267237   5.925   1.959   2.547
15249TIP3    H167238   5.832   1.942   2.530
15249TIP3    H267239   5.967   1.874   2.536
15250TIP3   OH267240   5.842   1.963   2.150
15250TIP3    H167241   5.891   2.025   2.096
15250TIP3    H267242   5.790   2.017   2.209
15251TIP3   OH267243   6.419   1.911   2.580
15251TIP3    H167244   6.483   1.971   2.542
15251TIP3    H267245   6.430   1.922   2.675
15252TIP3   OH267246   6.887   1.948   2.711
15252TIP3    H167247   6.883   1.929   2.617
15252TIP3    H267248   6.869   1.865   2.753
15253TIP3   OH267249   7.076   1.988   2.298
15253TIP3    H167250   6.997   2.041   2.304
15253TIP3    H267251   7.045   1.897   2.304
15254TIP3   OH267252   5.838   3.593   2.174
15254TIP3    H167253   5.751   3.579   2.136
15254TIP3    H267254   5.844   3.688   2.186
15255TIP3   OH267255   6.016   2.126   1.988
15255TIP3    H167256   6.069   2.070   1.931
15255TIP3    H267257   6.078   2.160   2.052
15256TIP3   OH267258   6.476   2.197   2.245
15256TIP3    H167259   6.506   2.126   2.302
15256TIP3    H267260   6.492   2.276   2.296
15257TIP3   OH267261   6.688   3.663   2.065
15257TIP3    H167262   6.782   3.678   2.058
15257TIP3    H267263   6.665   3.614   1.986
15258TIP3   OH267264   5.930   2.017   3.497
15258TIP3    H167265   5.870   1.952   3.533
15258TIP3    H267266   6.012   2.003   3.544
15259TIP3   OH267267   6.132   1.954   3.675
15259TIP3    H167268   6.218   1.928   3.641
15259TIP3    H267269   6.099   1.876   3.719
15260TIP3   OH267270   5.997   3.623   1.935
15260TIP3    H167271   5.959   3.601   2.020
15260TIP3    H267272   6.073   3.566   1.928
15261TIP3   OH267273   6.958   1.925   3.702
15261TIP3    H167274   6.948   1.876   3.784
15261TIP3    H267275   7.050   1.915   3.680
15262TIP3   OH267276   7.269   3.527   3.570
15262TIP3    H167277   7.217   3.508   3.492
15262TIP3    H267278   7.246   3.618   3.591
15263TIP3   OH267279   1.199   4.805   2.530
15263TIP3    H167280   1.186   4.899   2.521
15263TIP3    H267281   1.128   4.766   2.479
15264TIP3   OH267282   1.082   4.713   2.936
15264TIP3    H167283   1.106   4.674   3.019
15264TIP3    H267284   1.029   4.646   2.892
15265TIP3   OH267285   0.296   4.636   3.042
15265TIP3    H167286   0.300   4.569   3.111
15265TIP3    H267287   0.387   4.663   3.030
15266TIP3   OH267288   1.462   5.021   2.762
15266TIP3    H167289   1.422   4.947   2.808
15266TIP3    H267290   1.478   5.086   2.831
15267TIP3   OH267291   0.434   5.113   2.852
15267TIP3    H167292   0.403   5.024   2.836
15267TIP3    H267293   0.528   5.103   2.867
15268TIP3   OH267294   0.118   4.534   2.433
15268TIP3    H167295   0.155   4.595   2.497
15268TIP3    H267296   0.023   4.538   2.449
15269TIP3   OH267297   0.208   4.677   2.649
15269TIP3    H167298   0.202   4.608   2.715
15269TIP3    H267299   0.261   4.746   2.690
15270TIP3   OH267300   1.193   5.495   2.795
15270TIP3    H167301   1.226   5.439   2.725
15270TIP3    H267302   1.164   5.435   2.863
15271TIP3   OH267303   0.927   4.963   2.942
15271TIP3    H167304   0.968   4.883   2.911
15271TIP3    H267305   0.988   4.998   3.006
15272TIP3   OH267306   1.816   4.101   3.048
15272TIP3    H167307   1.825   4.177   3.106
15272TIP3    H267308   1.872   4.121   2.973
15273TIP3   OH267309   1.228   4.382   2.952
15273TIP3    H167310   1.235   4.288   2.966
15273TIP3    H267311   1.215   4.391   2.858
15274TIP3   OH267312   0.586   4.190   2.681
15274TIP3    H167313   0.593   4.278   2.644
15274TIP3    H267314   0.530   4.142   2.619
15275TIP3   OH267315   1.355   4.221   2.530
15275TIP3    H167316   1.395   4.189   2.611
15275TIP3    H267317   1.428   4.260   2.481
15276TIP3   OH267318   0.208   4.438   2.795
15276TIP3    H167319   0.282   4.403   2.844
15276TIP3    H267320   0.222   4.407   2.705
15277TIP3   OH267321   0.702   4.598   2.738
15277TIP3    H167322   0.787   4.563   2.765
15277TIP3    H267323   0.666   4.532   2.679
15278TIP3   OH267324   1.845   4.286   3.261
15278TIP3    H167325   1.764   4.334   3.240
15278TIP3    H267326   1.865   4.311   3.351
15279TIP3   OH267327   0.434   4.111   3.118
15279TIP3    H167328   0.406   4.170   3.048
15279TIP3    H267329   0.369   4.122   3.187
15280TIP3   OH267330   1.162   5.061   2.431
15280TIP3    H167331   1.141   5.054   2.338
15280TIP3    H267332   1.115   5.139   2.461
15281TIP3   OH267333   0.695   4.892   3.081
15281TIP3    H167334   0.645   4.963   3.119
15281TIP3    H267335   0.766   4.935   3.033
15282TIP3   OH267336   1.445   4.167   2.784
15282TIP3    H167337   1.376   4.142   2.845
15282TIP3    H267338   1.501   4.227   2.834
15283TIP3   OH267339   0.418   4.272   2.890
15283TIP3    H167340   0.474   4.330   2.942
15283TIP3    H267341   0.475   4.236   2.823
15284TIP3   OH267342   0.546   5.094   3.200
15284TIP3    H167343   0.553   5.189   3.190
15284TIP3    H267344   0.456   5.080   3.228
15285TIP3   OH267345   0.102   5.012   2.274
15285TIP3    H167346   0.106   5.064   2.194
15285TIP3    H267347   0.083   5.075   2.343
15286TIP3   OH267348   1.490   5.224   2.961
15286TIP3    H167349   1.396   5.225   2.977
15286TIP3    H267350   1.511   5.314   2.935
15287TIP3   OH267351   1.562   3.998   3.121
15287TIP3    H167352   1.497   4.039   3.064
15287TIP3    H267353   1.646   4.025   3.085
15288TIP3   OH267354   0.785   3.795   2.866
15288TIP3    H167355   0.757   3.703   2.869
15288TIP3    H267356   0.708   3.844   2.894
15289TIP3   OH267357   1.312   5.374   2.574
15289TIP3    H167358   1.355   5.291   2.557
15289TIP3    H267359   1.383   5.438   2.578
15290TIP3   OH267360   1.422   5.132   2.512
15290TIP3    H167361   1.341   5.091   2.482
15290TIP3    H267362   1.444   5.086   2.593
15291TIP3   OH267363   1.611   4.999   3.318
15291TIP3    H167364   1.595   4.946   3.241
15291TIP3    H267365   1.620   5.088   3.284
15292TIP3   OH267366   1.046   4.707   2.318
15292TIP3    H167367   0.976   4.767   2.293
15292TIP3    H267368   1.112   4.718   2.249
15293TIP3   OH267369   1.070   4.598   1.969
15293TIP3    H167370   1.125   4.622   2.044
15293TIP3    H267371   1.120   4.530   1.923
15294TIP3   OH267372   1.761   4.675   3.152
15294TIP3    H167373   1.687   4.735   3.142
15294TIP3    H267374   1.820   4.697   3.080
15295TIP3   OH267375   1.414   4.730   2.380
15295TIP3    H167376   1.347   4.757   2.442
15295TIP3    H267377   1.480   4.686   2.434
15296TIP3   OH267378   1.375   4.530   3.345
15296TIP3    H167379   1.368   4.604   3.406
15296TIP3    H267380   1.311   4.550   3.276
15297TIP3   OH267381   0.569   4.790   2.580
15297TIP3    H167382   0.542   4.747   2.499
15297TIP3    H267383   0.623   4.725   2.625
15298TIP3   OH267384   0.717   5.135   2.840
15298TIP3    H167385   0.714   5.147   2.745
15298TIP3    H267386   0.795   5.081   2.855
15299TIP3   OH267387   0.559   4.691   2.957
15299TIP3    H167388   0.614   4.666   2.883
15299TIP3    H267389   0.607   4.760   3.002
15300TIP3   OH267390   1.228   5.234   3.030
15300TIP3    H167391   1.209   5.309   3.086
15300TIP3    H267392   1.181   5.161   3.070
15301TIP3   OH267393   0.698   5.111   3.432
15301TIP3    H167394   0.634   5.169   3.474
15301TIP3    H267395   0.655   5.085   3.350
15302TIP3   OH267396   1.277   4.665   2.149
15302TIP3    H167397   1.330   4.700   2.221
15302TIP3    H267398   1.330   4.680   2.071
15303TIP3   OH267399   0.411   4.707   3.381
15303TIP3    H167400   0.412   4.787   3.434
15303TIP3    H267401   0.321   4.699   3.352
15304TIP3   OH267402   1.057   5.311   2.490
15304TIP3    H167403   1.140   5.340   2.529
15304TIP3    H267404   1.020   5.389   2.449
15305TIP3   OH267405   0.499   5.296   3.495
15305TIP3    H167406   0.514   5.328   3.406
15305TIP3    H267407   0.404   5.302   3.507
15306TIP3   OH267408   1.636   3.809   2.149
15306TIP3    H167409   1.553   3.835   2.189
15306TIP3    H267410   1.673   3.891   2.115
15307TIP3   OH267411   0.476   4.690   2.330
15307TIP3    H167412   0.420   4.755   2.288
15307TIP3    H267413   0.419   4.614   2.343
15308TIP3   OH267414   1.783   5.249   2.016
15308TIP3    H167415   1.792   5.345   2.017
15308TIP3    H267416   1.873   5.217   2.008
15309TIP3   OH267417   0.161   4.886   3.217
15309TIP3    H167418   0.103   4.883   3.140
15309TIP3    H267419   0.152   4.800   3.258
15310TIP3   OH267420   0.087   5.302   2.918
15310TIP3    H167421   0.082   5.208   2.904
15310TIP3    H267422   0.133   5.312   3.001
15311TIP3   OH267423   1.862   5.315   3.527
15311TIP3    H167424   1.853   5.221   3.514
15311TIP3    H267425   1.776   5.344   3.557
15312TIP3   OH267426   0.936   5.239   3.383
15312TIP3    H167427   0.932   5.323   3.428
15312TIP3    H267428   0.852   5.198   3.400
15313TIP3   OH267429   1.028   5.575   2.362
15313TIP3    H167430   1.001   5.583   2.271
15313TIP3    H267431   0.993   5.654   2.404
15314TIP3   OH267432   0.387   5.514   2.573
15314TIP3    H167433   0.396   5.469   2.658
15314TIP3    H267434   0.347   5.449   2.516
15315TIP3   OH267435   1.315   5.548   2.041
15315TIP3    H167436   1.362   5.474   2.003
15315TIP3    H267437   1.325   5.537   2.135
15316TIP3   OH267438   1.295   5.524   2.317
15316TIP3    H167439   1.202   5.536   2.336
15316TIP3    H267440   1.326   5.466   2.387
15317TIP3   OH267441   1.565   4.396   3.523
15317TIP3    H167442   1.496   4.440   3.473
15317TIP3    H267443   1.565   4.307   3.490
15318TIP3   OH267444   0.296   5.096   3.330
15318TIP3    H167445   0.327   5.049   3.407
15318TIP3    H267446   0.240   5.032   3.285
15319TIP3   OH267447   0.540   3.912   2.951
15319TIP3    H167448   0.464   3.906   2.892
15319TIP3    H267449   0.518   3.984   3.010
15320TIP3   OH267450   1.020   3.888   3.293
15320TIP3    H167451   1.064   3.837   3.362
15320TIP3    H267452   0.927   3.879   3.314
15321TIP3   OH267453   1.322   4.255   3.376
15321TIP3    H167454   1.258   4.242   3.446
15321TIP3    H267455   1.322   4.350   3.361
15322TIP3   OH267456   1.415   4.665   1.906
15322TIP3    H167457   1.400   4.700   1.818
15322TIP3    H267458   1.502   4.696   1.929
15323TIP3   OH267459   0.972   4.114   2.018
15323TIP3    H167460   0.916   4.110   2.096
15323TIP3    H267461   0.935   4.048   1.959
15324TIP3   OH267462   0.562   4.434   3.061
15324TIP3    H167463   0.499   4.433   3.132
15324TIP3    H267464   0.564   4.525   3.032
15325TIP3   OH267465   0.570   4.435   2.559
15325TIP3    H167466   0.475   4.427   2.563
15325TIP3    H267467   0.592   4.417   2.467
15326TIP3   OH267468   1.096   4.461   2.429
15326TIP3    H167469   1.072   4.549   2.398
15326TIP3    H267470   1.166   4.433   2.370
15327TIP3   OH267471   1.018   4.475   3.544
15327TIP3    H167472   0.966   4.404   3.582
15327TIP3    H267473   1.101   4.472   3.591
15328TIP3   OH267474   1.199   4.398   2.681
15328TIP3    H167475   1.152   4.444   2.610
15328TIP3    H267476   1.245   4.327   2.637
15329TIP3   OH267477   0.353   4.427   3.238
15329TIP3    H167478   0.344   4.486   3.313
15329TIP3    H267479   0.319   4.343   3.270
15330TIP3   OH267480   0.658   4.168   1.911
15330TIP3    H167481   0.628   4.161   2.002
15330TIP3    H267482   0.605   4.238   1.873
15331TIP3   OH267483   0.046   4.210   2.614
15331TIP3    H167484   0.086   4.193   2.699
15331TIP3    H267485   0.061   4.130   2.563
15332TIP3   OH267486   0.068   4.289   2.183
15332TIP3    H167487   0.154   4.329   2.170
15332TIP3    H267488   0.017   4.315   2.107
15333TIP3   OH267489   1.169   4.552   3.155
15333TIP3    H167490   1.197   4.495   3.083
15333TIP3    H267491   1.097   4.505   3.196
15334TIP3   OH267492   0.864   4.141   2.636
15334TIP3    H167493   0.775   4.149   2.669
15334TIP3    H267494   0.915   4.109   2.711
15335TIP3   OH267495   0.308   4.359   2.544
15335TIP3    H167496   0.236   4.395   2.492
15335TIP3    H267497   0.317   4.269   2.513
15336TIP3   OH267498   0.620   4.356   2.299
15336TIP3    H167499   0.714   4.352   2.315
15336TIP3    H267500   0.612   4.399   2.214
15337TIP3   OH267501   1.237   4.105   2.960
15337TIP3    H167502   1.200   4.108   3.048
15337TIP3    H267503   1.168   4.065   2.907
15338TIP3   OH267504   0.588   4.445   2.043
15338TIP3    H167505   0.528   4.428   1.970
15338TIP3    H267506   0.661   4.493   2.003
15339TIP3   OH267507   1.605   5.670   3.616
15339TIP3    H167508   1.629   5.708   3.531
15339TIP3    H267509   1.678   5.694   3.673
15340TIP3   OH267510   0.369   4.931   3.551
15340TIP3    H167511   0.435   4.927   3.620
15340TIP3    H267512   0.286   4.932   3.598
15341TIP3   OH267513   0.935   4.480   2.840
15341TIP3    H167514   1.006   4.428   2.801
15341TIP3    H267515   0.902   4.426   2.912
15342TIP3   OH267516   0.409   4.094   2.484
15342TIP3    H167517   0.368   4.012   2.508
15342TIP3    H267518   0.433   4.083   2.392
15343TIP3   OH267519   0.823   4.341   3.057
15343TIP3    H167520   0.738   4.384   3.066
15343TIP3    H267521   0.872   4.369   3.134
15344TIP3   OH267522   0.851   4.888   2.243
15344TIP3    H167523   0.779   4.858   2.188
15344TIP3    H267524   0.808   4.925   2.320
15345TIP3   OH267525   1.570   4.860   3.084
15345TIP3    H167526   1.630   4.916   3.035
15345TIP3    H267527   1.498   4.842   3.023
15346TIP3   OH267528   1.225   4.169   2.108
15346TIP3    H167529   1.135   4.167   2.077
15346TIP3    H267530   1.237   4.257   2.142
15347TIP3   OH267531   1.008   4.948   3.393
15347TIP3    H167532   1.033   4.911   3.479
15347TIP3    H267533   0.980   5.037   3.412
15348TIP3   OH267534   1.300   4.401   2.245
15348TIP3    H167535   1.388   4.385   2.280
15348TIP3    H267536   1.304   4.490   2.210
15349TIP3   OH267537   0.389   4.841   2.785
15349TIP3    H167538   0.449   4.837   2.710
15349TIP3    H267539   0.433   4.788   2.853
15350TIP3   OH267540   1.059   5.048   2.169
15350TIP3    H167541   1.026   5.138   2.173
15350TIP3    H267542   0.983   4.994   2.192
15351TIP3   OH267543   0.146   4.639   3.349
15351TIP3    H167544   0.144   4.625   3.444
15351TIP3    H267545   0.073   4.587   3.316
15352TIP3   OH267546   0.811   4.666   3.565
15352TIP3    H167547   0.745   4.627   3.508
15352TIP3    H267548   0.890   4.615   3.548
15353TIP3   OH267549   1.217   5.223   3.384
15353TIP3    H167550   1.124   5.228   3.361
15353TIP3    H267551   1.219   5.236   3.479
15354TIP3   OH267552   1.751   4.439   2.186
15354TIP3    H167553   1.708   4.418   2.103
15354TIP3    H267554   1.780   4.530   2.176
15355TIP3   OH267555   1.835   5.042   3.478
15355TIP3    H167556   1.742   5.037   3.453
15355TIP3    H267557   1.883   5.015   3.400
15356TIP3   OH267558   1.641   5.285   2.265
15356TIP3    H167559   1.587   5.215   2.301
15356TIP3    H267560   1.674   5.250   2.183
15357TIP3   OH267561   1.366   4.790   2.899
15357TIP3    H167562   1.271   4.781   2.902
15357TIP3    H267563   1.396   4.713   2.851
15358TIP3   OH267564   0.633   5.219   2.582
15358TIP3    H167565   0.656   5.305   2.546
15358TIP3    H267566   0.539   5.223   2.595
15359TIP3   OH267567   0.163   4.714   2.007
15359TIP3    H167568   0.228   4.758   2.063
15359TIP3    H267569   0.086   4.706   2.062
15360TIP3   OH267570   0.702   4.994   2.442
15360TIP3    H167571   0.689   5.076   2.490
15360TIP3    H267572   0.656   4.929   2.494
15361TIP3   OH267573   0.836   5.383   3.156
15361TIP3    H167574   0.892   5.458   3.136
15361TIP3    H267575   0.888   5.330   3.216
15362TIP3   OH267576   0.642   5.478   2.477
15362TIP3    H167577   0.552   5.500   2.502
15362TIP3    H267578   0.695   5.549   2.513
15363TIP3   OH267579   1.118   5.000   3.144
15363TIP3    H167580   1.076   4.983   3.228
15363TIP3    H267581   1.197   4.946   3.145
15364TIP3   OH267582   1.415   5.099   2.032
15364TIP3    H167583   1.440   5.045   2.107
15364TIP3    H267584   1.326   5.071   2.011
15365TIP3   OH267585   1.425   5.411   3.347
15365TIP3    H167586   1.343   5.361   3.341
15365TIP3    H267587   1.415   5.482   3.284
15366TIP3   OH267588   1.818   5.522   2.031
15366TIP3    H167589   1.853   5.589   1.972
15366TIP3    H267590   1.746   5.565   2.076
15367TIP3   OH267591   0.258   4.166   3.332
15367TIP3    H167592   0.171   4.193   3.362
15367TIP3    H267593   0.277   4.087   3.382
15368TIP3   OH267594   1.522   4.935   2.224
15368TIP3    H167595   1.479   4.875   2.285
15368TIP3    H267596   1.615   4.930   2.247
15369TIP3   OH267597   0.222   5.371   3.155
15369TIP3    H167598   0.243   5.298   3.212
15369TIP3    H267599   0.229   5.448   3.211
15370TIP3   OH267600   0.787   5.185   1.896
15370TIP3    H167601   0.791   5.099   1.853
15370TIP3    H267602   0.754   5.166   1.984
15371TIP3   OH267603   0.668   5.159   2.149
15371TIP3    H167604   0.690   5.112   2.230
15371TIP3    H267605   0.676   5.251   2.171
15372TIP3   OH267606   0.314   4.863   2.184
15372TIP3    H167607   0.244   4.904   2.234
15372TIP3    H267608   0.363   4.936   2.146
15373TIP3   OH267609   1.133   4.126   3.213
15373TIP3    H167610   1.201   4.148   3.277
15373TIP3    H267611   1.093   4.045   3.247
15374TIP3   OH267612   1.208   4.055   2.362
15374TIP3    H167613   1.214   4.096   2.276
15374TIP3    H267614   1.251   4.117   2.421
15375TIP3   OH267615   0.960   5.300   2.178
15375TIP3    H167616   0.872   5.331   2.202
15375TIP3    H267617   1.007   5.379   2.153
15376TIP3   OH267618   0.875   4.299   2.406
15376TIP3    H167619   0.949   4.359   2.413
15376TIP3    H267620   0.870   4.256   2.492
15377TIP3   OH267621   0.991   4.379   3.276
15377TIP3    H167622   0.995   4.405   3.369
15377TIP3    H267623   1.026   4.290   3.275
15378TIP3   OH267624   0.968   3.953   2.456
15378TIP3    H167625   0.941   4.021   2.518
15378TIP3    H267626   1.055   3.981   2.427
15379TIP3   OH267627   0.714   5.418   2.221
15379TIP3    H167628   0.720   5.503   2.176
15379TIP3    H267629   0.685   5.440   2.309
15380TIP3   OH267630   0.560   4.114   2.170
15380TIP3    H167631   0.554   4.200   2.214
15380TIP3    H267632   0.645   4.080   2.196
15381TIP3   OH267633   1.566   4.137   3.371
15381TIP3    H167634   1.477   4.170   3.372
15381TIP3    H267635   1.574   4.092   3.286
15382TIP3   OH267636   1.440   4.539   2.776
15382TIP3    H167637   1.355   4.500   2.756
15382TIP3    H267638   1.481   4.477   2.837
15383TIP3   OH267639   0.423   5.083   2.048
15383TIP3    H167640   0.498   5.127   2.089
15383TIP3    H267641   0.461   5.032   1.977
15384TIP3   OH267642   0.229   4.437   1.993
15384TIP3    H167643   0.225   4.532   2.008
15384TIP3    H267644   0.142   4.415   1.959
15385TIP3   OH267645   1.565   5.493   2.941
15385TIP3    H167646   1.550   5.566   2.880
15385TIP3    H267647   1.659   5.494   2.956
15386TIP3   OH267648   0.295   3.891   2.820
15386TIP3    H167649   0.297   3.881   2.725
15386TIP3    H267650   0.262   3.807   2.852
15387TIP3   OH267651   0.288   5.341   2.390
15387TIP3    H167652   0.202   5.304   2.411
15387TIP3    H267653   0.276   5.384   2.306
15388TIP3   OH267654   0.160   5.593   3.623
15388TIP3    H167655   0.213   5.585   3.702
15388TIP3    H267656   0.166   5.506   3.582
15389TIP3   OH267657   0.564   5.380   3.750
15389TIP3    H167658   0.645   5.335   3.774
15389TIP3    H267659   0.548   5.353   3.660
15390TIP3   OH267660   0.990   5.371   1.865
15390TIP3    H167661   0.923   5.306   1.886
15390TIP3    H267662   1.066   5.320   1.837
15391TIP3   OH267663   1.217   5.253   3.656
15391TIP3    H167664   1.206   5.171   3.705
15391TIP3    H267665   1.291   5.297   3.698
15392TIP3   OH267666   1.437   5.342   1.908
15392TIP3    H167667   1.445   5.262   1.960
15392TIP3    H267668   1.514   5.341   1.850
15393TIP3   OH267669   0.143   4.931   3.712
15393TIP3    H167670   0.145   4.851   3.763
15393TIP3    H267671   0.049   4.949   3.699
15394TIP3   OH267672   0.544   4.904   1.882
15394TIP3    H167673   0.568   4.855   1.961
15394TIP3    H267674   0.627   4.918   1.836
15395TIP3   OH267675   0.777   4.941   3.635
15395TIP3    H167676   0.758   4.987   3.554
15395TIP3    H267677   0.802   4.853   3.607
15396TIP3   OH267678   1.165   5.039   1.917
15396TIP3    H167679   1.118   5.037   2.000
15396TIP3    H267680   1.137   4.960   1.871
15397TIP3   OH267681   1.340   4.970   3.384
15397TIP3    H167682   1.432   4.993   3.368
15397TIP3    H267683   1.293   5.053   3.379
15398TIP3   OH267684   0.173   4.619   3.624
15398TIP3    H167685   0.254   4.567   3.628
15398TIP3    H267686   0.158   4.646   3.715
15399TIP3   OH267687   0.639   4.770   2.107
15399TIP3    H167688   0.593   4.728   2.179
15399TIP3    H267689   0.687   4.699   2.064
15400TIP3   OH267690   0.637   4.550   3.374
15400TIP3    H167691   0.559   4.605   3.375
15400TIP3    H267692   0.694   4.590   3.310
15401TIP3   OH267693   0.793   4.601   1.948
15401TIP3    H167694   0.790   4.630   1.857
15401TIP3    H267695   0.886   4.596   1.968
15402TIP3   OH267696   1.109   4.809   3.655
15402TIP3    H167697   1.184   4.767   3.613
15402TIP3    H267698   1.076   4.743   3.716
15403TIP3   OH267699   1.666   4.781   1.905
15403TIP3    H167700   1.676   4.764   1.812
15403TIP3    H267701   1.662   4.877   1.911
15404TIP3   OH267702   0.656   4.287   3.451
15404TIP3    H167703   0.666   4.232   3.373
15404TIP3    H267704   0.651   4.376   3.417
15405TIP3   OH267705   0.691   4.136   3.214
15405TIP3    H167706   0.741   4.186   3.150
15405TIP3    H267707   0.603   4.132   3.178
15406TIP3   OH267708   0.813   4.682   3.215
15406TIP3    H167709   0.895   4.718   3.249
15406TIP3    H267710   0.772   4.755   3.168
15407TIP3   OH267711   1.249   4.456   3.710
15407TIP3    H167712   1.287   4.368   3.708
15407TIP3    H267713   1.320   4.512   3.741
15408TIP3   OH267714   1.381   4.744   3.530
15408TIP3    H167715   1.351   4.822   3.484
15408TIP3    H267716   1.476   4.749   3.526
15409TIP3   OH267717   0.492   4.349   3.672
15409TIP3    H167718   0.410   4.299   3.667
15409TIP3    H267719   0.537   4.330   3.590
15410TIP3   OH267720   0.740   3.871   3.289
15410TIP3    H167721   0.723   3.963   3.266
15410TIP3    H267722   0.668   3.823   3.249
15411TIP3   OH267723   0.871   4.257   3.624
15411TIP3    H167724   0.831   4.231   3.707
15411TIP3    H267725   0.798   4.261   3.562
15412TIP3   OH267726   1.138   4.193   3.562
15412TIP3    H167727   1.046   4.199   3.590
15412TIP3    H267728   1.180   4.142   3.632
15413TIP3   OH267729   1.312   4.071   3.749
15413TIP3    H167730   1.300   3.976   3.738
15413TIP3    H267731   1.282   4.088   3.839
15414TIP3   OH267732   0.285   4.159   3.661
15414TIP3    H167733   0.292   4.080   3.607
15414TIP3    H267734   0.298   4.128   3.750
15415TIP3   OH267735   0.732   3.785   3.550
15415TIP3    H167736   0.787   3.707   3.544
15415TIP3    H267737   0.728   3.819   3.461
15416TIP3   OH267738   0.813   3.948   3.758
15416TIP3    H167739   0.787   3.894   3.683
15416TIP3    H267740   0.750   4.021   3.758
15417TIP3   OH267741   0.790   5.656   2.099
15417TIP3    H167742   0.879   5.623   2.087
15417TIP3    H267743   0.777   5.719   2.028
15418TIP3   OH267744   0.159   5.137   2.021
15418TIP3    H167745   0.253   5.137   2.039
15418TIP3    H267746   0.147   5.071   1.952
15419TIP3   OH267747   0.019   5.679   2.519
15419TIP3    H167748  -0.044   5.630   2.466
15419TIP3    H267749   0.047   5.616   2.586
15420TIP3   OH267750   0.065   5.455   2.675
15420TIP3    H167751   0.060   5.382   2.613
15420TIP3    H267752   0.093   5.414   2.757
15421TIP3   OH267753   1.828   5.501   3.023
15421TIP3    H167754   1.818   5.498   3.119
15421TIP3    H267755   1.889   5.574   3.009
15422TIP3   OH267756   1.771   5.466   3.293
15422TIP3    H167757   1.718   5.391   3.264
15422TIP3    H267758   1.820   5.432   3.368
15423TIP3   OH267759   1.649   5.050   3.776
15423TIP3    H167760   1.563   5.063   3.816
15423TIP3    H267761   1.703   5.121   3.810
15424TIP3   OH267762   1.787   4.890   2.303
15424TIP3    H167763   1.857   4.956   2.307
15424TIP3    H267764   1.805   4.832   2.376
15425TIP3   OH267765   1.836   4.690   2.491
15425TIP3    H167766   1.751   4.658   2.522
15425TIP3    H267767   1.886   4.703   2.571
15426TIP3   OH267768   1.812   4.989   3.015
15426TIP3    H167769   1.861   4.926   2.963
15426TIP3    H267770   1.838   5.075   2.981
15427TIP3   OH267771   1.609   5.254   3.212
15427TIP3    H167772   1.537   5.302   3.255
15427TIP3    H267773   1.578   5.240   3.123
15428TIP3   OH267774   1.822   4.695   2.114
15428TIP3    H167775   1.767   4.720   2.040
15428TIP3    H267776   1.808   4.764   2.179
15429TIP3   OH267777   1.643   4.393   1.939
15429TIP3    H167778   1.619   4.448   1.865
15429TIP3    H267779   1.632   4.303   1.906
15430TIP3   OH267780   1.583   4.573   2.540
15430TIP3    H167781   1.577   4.484   2.505
15430TIP3    H267782   1.539   4.568   2.625
15431TIP3   OH267783   0.074   4.764   2.949
15431TIP3    H167784   0.090   4.810   2.866
15431TIP3    H267785   0.159   4.729   2.975
15432TIP3   OH267786   1.656   4.757   3.511
15432TIP3    H167787   1.719   4.687   3.493
15432TIP3    H267788   1.680   4.827   3.450
15433TIP3   OH267789   1.805   4.525   3.495
15433TIP3    H167790   1.720   4.484   3.507
15433TIP3    H267791   1.868   4.459   3.524
15434TIP3   OH267792   1.589   4.141   1.838
15434TIP3    H167793   1.626   4.093   1.912
15434TIP3    H267794   1.496   4.121   1.841
15435TIP3   OH267795   1.562   4.328   2.366
15435TIP3    H167796   1.592   4.238   2.369
15435TIP3    H267797   1.626   4.373   2.311
15436TIP3   OH267798   1.588   4.353   2.936
15436TIP3    H167799   1.680   4.366   2.913
15436TIP3    H267800   1.583   4.375   3.029
15437TIP3   OH267801   1.617   4.444   3.202
15437TIP3    H167802   1.536   4.473   3.245
15437TIP3    H267803   1.667   4.524   3.188
15438TIP3   OH267804   0.042   4.233   3.550
15438TIP3    H167805   0.131   4.232   3.586
15438TIP3    H267806  -0.012   4.190   3.616
15439TIP3   OH267807   1.878   3.858   3.664
15439TIP3    H167808   1.794   3.815   3.678
15439TIP3    H267809   1.857   3.938   3.616
15440TIP3   OH267810   1.628   4.057   2.384
15440TIP3    H167811   1.648   4.018   2.469
15440TIP3    H267812   1.560   4.000   2.347
15441TIP3   OH267813   0.171   4.136   2.854
15441TIP3    H167814   0.206   4.047   2.853
15441TIP3    H267815   0.248   4.191   2.868
15442TIP3   OH267816  -0.007   4.494   2.967
15442TIP3    H167817   0.066   4.469   2.910
15442TIP3    H267818  -0.003   4.590   2.971
15443TIP3   OH267819   1.773   4.083   3.545
15443TIP3    H167820   1.712   4.107   3.615
15443TIP3    H267821   1.721   4.089   3.465
15444TIP3   OH267822   1.753   4.027   2.029
15444TIP3    H167823   1.810   3.970   1.977
15444TIP3    H267824   1.813   4.093   2.065
15445TIP3   OH267825   0.111   4.041   2.304
15445TIP3    H167826   0.032   4.030   2.358
15445TIP3    H267827   0.101   4.127   2.263
15446TIP3   OH267828   1.500   5.564   2.557
15446TIP3    H167829   1.576   5.559   2.499
15446TIP3    H267830   1.530   5.616   2.631
15447TIP3   OH267831   7.362   3.918   3.196
15447TIP3    H167832   7.329   3.980   3.261
15447TIP3    H267833   7.305   3.929   3.120
15448TIP3   OH267834   0.222   5.316   3.558
15448TIP3    H167835   0.175   5.255   3.501
15448TIP3    H267836   0.206   5.283   3.646
15449TIP3   OH267837   0.574   5.369   3.236
15449TIP3    H167838   0.541   5.455   3.211
15449TIP3    H267839   0.667   5.371   3.214
15450TIP3   OH267840   0.938   5.485   3.511
15450TIP3    H167841   0.947   5.455   3.601
15450TIP3    H267842   1.018   5.536   3.494
15451TIP3   OH267843   1.175   5.623   3.480
15451TIP3    H167844   1.244   5.574   3.436
15451TIP3    H267845   1.217   5.661   3.557
15452TIP3   OH267846   1.683   3.826   3.337
15452TIP3    H167847   1.621   3.854   3.270
15452TIP3    H267848   1.705   3.735   3.314
15453TIP3   OH267849   0.249   5.644   3.261
15453TIP3    H167850   0.172   5.688   3.224
15453TIP3    H267851   0.269   5.695   3.340
15454TIP3   OH267852   0.512   5.629   3.168
15454TIP3    H167853   0.419   5.634   3.191
15454TIP3    H267854   0.518   5.671   3.083
15455TIP3   OH267855   0.973   5.607   3.070
15455TIP3    H167856   0.916   5.644   3.002
15455TIP3    H267857   0.983   5.678   3.134
15456TIP3   OH267858   1.197   5.475   3.157
15456TIP3    H167859   1.120   5.522   3.125
15456TIP3    H267860   1.269   5.538   3.146
15457TIP3   OH267861   1.437   5.615   3.153
15457TIP3    H167862   1.464   5.707   3.144
15457TIP3    H267863   1.478   5.571   3.078
15458TIP3   OH267864   0.264   5.547   2.935
15458TIP3    H167865   0.235   5.496   3.011
15458TIP3    H267866   0.321   5.487   2.886
15459TIP3   OH267867   0.442   5.382   2.808
15459TIP3    H167868   0.427   5.289   2.827
15459TIP3    H267869   0.529   5.400   2.845
15460TIP3   OH267870   0.704   5.406   2.912
15460TIP3    H167871   0.714   5.317   2.879
15460TIP3    H267872   0.742   5.403   3.000
15461TIP3   OH267873   1.028   3.984   2.805
15461TIP3    H167874   0.967   3.913   2.828
15461TIP3    H267875   1.101   3.940   2.762
15462TIP3   OH267876   1.525   3.835   2.794
15462TIP3    H167877   1.587   3.890   2.745
15462TIP3    H267878   1.440   3.877   2.780
15463TIP3   OH267879   1.711   3.931   2.616
15463TIP3    H167880   1.774   3.863   2.594
15463TIP3    H267881   1.765   4.008   2.634
15464TIP3   OH267882   0.297   3.849   2.546
15464TIP3    H167883   0.213   3.833   2.503
15464TIP3    H267884   0.343   3.766   2.542
15465TIP3   OH267885   0.172   3.840   2.130
15465TIP3    H167886   0.239   3.883   2.077
15465TIP3    H267887   0.160   3.898   2.205
15466TIP3   OH267888   0.766   3.793   2.577
15466TIP3    H167889   0.833   3.850   2.539
15466TIP3    H267890   0.777   3.802   2.672
15467TIP3   OH267891   1.248   3.853   2.701
15467TIP3    H167892   1.285   3.831   2.615
15467TIP3    H267893   1.230   3.768   2.741
15468TIP3   OH267894   1.420   3.887   2.300
15468TIP3    H167895   1.344   3.943   2.317
15468TIP3    H267896   1.388   3.798   2.313
15469TIP3   OH267897   0.196   5.477   2.158
15469TIP3    H167898   0.108   5.439   2.153
15469TIP3    H267899   0.181   5.571   2.163
15470TIP3   OH267900   0.370   3.997   1.996
15470TIP3    H167901   0.426   3.951   1.934
15470TIP3    H267902   0.430   4.035   2.060
15471TIP3   OH267903   0.823   4.081   2.249
15471TIP3    H167904   0.860   4.012   2.305
15471TIP3    H267905   0.839   4.162   2.297
15472TIP3   OH267906   1.040   5.547   2.069
15472TIP3    H167907   1.134   5.565   2.060
15472TIP3    H267908   1.018   5.495   1.992
15473TIP3   OH267909   1.703   5.530   2.369
15473TIP3    H167910   1.684   5.441   2.339
15473TIP3    H267911   1.685   5.585   2.293
15474TIP3   OH267912   0.294   3.925   3.501
15474TIP3    H167913   0.232   3.863   3.538
15474TIP3    H267914   0.377   3.905   3.545
15475TIP3   OH267915   0.489   3.838   3.678
15475TIP3    H167916   0.573   3.809   3.643
15475TIP3    H267917   0.453   3.761   3.722
15476TIP3   OH267918   0.351   5.522   1.930
15476TIP3    H167919   0.312   5.499   2.014
15476TIP3    H267920   0.426   5.463   1.922
15477TIP3   OH267921   1.329   3.797   3.698
15477TIP3    H167922   1.315   3.750   3.780
15477TIP3    H267923   1.420   3.780   3.676
15478TIP3   OH267924   1.601   5.399   3.567
15478TIP3    H167925   1.539   5.393   3.494
15478TIP3    H267926   1.599   5.491   3.592
15479TIP3   OH267927   3.038   4.795   2.569
15479TIP3    H167928   3.033   4.889   2.551
15479TIP3    H267929   2.993   4.754   2.496
15480TIP3   OH267930   2.964   4.734   2.833
15480TIP3    H167931   2.919   4.649   2.832
15480TIP3    H267932   2.988   4.750   2.742
15481TIP3   OH267933   2.175   4.649   3.056
15481TIP3    H167934   2.187   4.580   3.122
15481TIP3    H267935   2.263   4.670   3.027
15482TIP3   OH267936   3.365   5.006   2.767
15482TIP3    H167937   3.312   4.938   2.808
15482TIP3    H267938   3.367   5.077   2.831
15483TIP3   OH267939   2.324   5.116   2.847
15483TIP3    H167940   2.288   5.029   2.830
15483TIP3    H267941   2.416   5.101   2.867
15484TIP3   OH267942   1.959   4.456   2.391
15484TIP3    H167943   1.930   4.540   2.427
15484TIP3    H267944   1.893   4.434   2.325
15485TIP3   OH267945   2.023   4.705   2.701
15485TIP3    H167946   2.054   4.615   2.717
15485TIP3    H267947   2.101   4.759   2.711
15486TIP3   OH267948   3.076   5.492   2.788
15486TIP3    H167949   3.109   5.438   2.716
15486TIP3    H267950   3.035   5.430   2.848
15487TIP3   OH267951   2.809   4.955   2.936
15487TIP3    H167952   2.851   4.883   2.890
15487TIP3    H267953   2.874   4.984   3.000
15488TIP3   OH267954   3.703   4.113   3.027
15488TIP3    H167955   3.712   4.192   3.080
15488TIP3    H267956   3.763   4.126   2.953
15489TIP3   OH267957   3.101   4.383   2.967
15489TIP3    H167958   3.129   4.292   2.977
15489TIP3    H267959   3.088   4.394   2.873
15490TIP3   OH267960   2.448   4.189   2.683
15490TIP3    H167961   2.458   4.273   2.638
15490TIP3    H267962   2.399   4.135   2.621
15491TIP3   OH267963   3.235   4.222   2.527
15491TIP3    H167964   3.279   4.192   2.606
15491TIP3    H267965   3.305   4.259   2.473
15492TIP3   OH267966   2.095   4.443   2.764
15492TIP3    H167967   2.159   4.400   2.821
15492TIP3    H267968   2.114   4.409   2.677
15493TIP3   OH267969   2.570   4.587   2.738
15493TIP3    H167970   2.657   4.554   2.761
15493TIP3    H267971   2.535   4.522   2.678
15494TIP3   OH267972   3.732   4.277   3.269
15494TIP3    H167973   3.668   4.344   3.247
15494TIP3    H267974   3.767   4.303   3.354
15495TIP3   OH267975   2.317   4.112   3.108
15495TIP3    H167976   2.297   4.168   3.033
15495TIP3    H267977   2.244   4.127   3.169
15496TIP3   OH267978   3.001   5.042   2.455
15496TIP3    H167979   3.004   5.044   2.359
15496TIP3    H267980   2.970   5.129   2.479
15497TIP3   OH267981   2.579   4.884   3.078
15497TIP3    H167982   2.530   4.958   3.113
15497TIP3    H267983   2.650   4.924   3.027
15498TIP3   OH267984   3.351   4.180   2.771
15498TIP3    H167985   3.387   4.093   2.786
15498TIP3    H267986   3.406   4.239   2.823
15499TIP3   OH267987   2.287   4.277   2.888
15499TIP3    H167988   2.345   4.336   2.937
15499TIP3    H267989   2.343   4.241   2.819
15500TIP3   OH267990   2.433   5.090   3.195
15500TIP3    H167991   2.441   5.185   3.187
15500TIP3    H267992   2.342   5.075   3.222
15501TIP3   OH267993   2.003   5.070   2.281
15501TIP3    H167994   1.997   5.114   2.196
15501TIP3    H267995   2.025   5.140   2.342
15502TIP3   OH267996   3.385   5.220   2.955
15502TIP3    H167997   3.293   5.221   2.979
15502TIP3    H267998   3.404   5.309   2.927
15503TIP3   OH267999   3.399   4.055   3.103
15503TIP3    H168000   3.318   4.077   3.056
15503TIP3    H268001   3.463   4.039   3.035
15504TIP3   OH268002   2.653   3.801   2.831
15504TIP3    H168003   2.644   3.708   2.848
15504TIP3    H268004   2.577   3.841   2.874
15505TIP3   OH268005   3.196   5.372   2.566
15505TIP3    H168006   3.239   5.288   2.553
15505TIP3    H268007   3.268   5.435   2.572
15506TIP3   OH268008   3.332   5.143   2.522
15506TIP3    H168009   3.341   5.085   2.447
15506TIP3    H268010   3.348   5.086   2.598
15507TIP3   OH268011   3.482   5.007   3.308
15507TIP3    H168012   3.466   4.948   3.234
15507TIP3    H268013   3.496   5.093   3.268
15508TIP3   OH268014   2.934   4.709   2.327
15508TIP3    H168015   2.866   4.770   2.298
15508TIP3    H268016   3.000   4.712   2.257
15509TIP3   OH268017   2.970   4.593   1.961
15509TIP3    H168018   3.022   4.619   2.037
15509TIP3    H268019   3.024   4.527   1.917
15510TIP3   OH268020   3.653   4.690   3.163
15510TIP3    H168021   3.575   4.742   3.143
15510TIP3    H268022   3.704   4.691   3.082
15511TIP3   OH268023   3.273   4.748   2.401
15511TIP3    H168024   3.208   4.764   2.470
15511TIP3    H268025   3.339   4.692   2.443
15512TIP3   OH268026   3.241   4.537   3.372
15512TIP3    H168027   3.246   4.615   3.427
15512TIP3    H268028   3.192   4.566   3.295
15513TIP3   OH268029   2.447   4.783   2.574
15513TIP3    H168030   2.422   4.744   2.491
15513TIP3    H268031   2.499   4.715   2.618
15514TIP3   OH268032   2.607   5.135   2.845
15514TIP3    H168033   2.606   5.147   2.750
15514TIP3    H268034   2.683   5.078   2.860
15515TIP3   OH268035   2.432   4.690   2.953
15515TIP3    H168036   2.485   4.662   2.878
15515TIP3    H268037   2.485   4.757   2.996
15516TIP3   OH268038   3.131   5.228   3.047
15516TIP3    H168039   3.105   5.304   3.098
15516TIP3    H268040   3.075   5.157   3.080
15517TIP3   OH268041   2.587   5.103   3.427
15517TIP3    H168042   2.525   5.161   3.471
15517TIP3    H268043   2.543   5.079   3.345
15518TIP3   OH268044   3.158   4.669   2.160
15518TIP3    H168045   3.207   4.705   2.234
15518TIP3    H268046   3.211   4.691   2.083
15519TIP3   OH268047   2.249   4.684   3.404
15519TIP3    H168048   2.263   4.770   3.444
15519TIP3    H268049   2.160   4.689   3.369
15520TIP3   OH268050   2.936   5.311   2.499
15520TIP3    H168051   3.025   5.334   2.526
15520TIP3    H268052   2.904   5.388   2.451
15521TIP3   OH268053   2.386   5.277   3.501
15521TIP3    H168054   2.386   5.315   3.413
15521TIP3    H268055   2.294   5.270   3.524
15522TIP3   OH268056   3.523   3.815   2.147
15522TIP3    H168057   3.438   3.842   2.183
15522TIP3    H268058   3.562   3.896   2.115
15523TIP3   OH268059   2.360   4.693   2.320
15523TIP3    H168060   2.299   4.759   2.287
15523TIP3    H268061   2.316   4.609   2.305
15524TIP3   OH268062   3.686   5.253   2.015
15524TIP3    H168063   3.699   5.348   2.013
15524TIP3    H268064   3.773   5.217   1.998
15525TIP3   OH268065   1.956   4.947   3.253
15525TIP3    H168066   1.903   4.958   3.174
15525TIP3    H268067   1.969   4.853   3.261
15526TIP3   OH268068   1.918   5.245   2.950
15526TIP3    H168069   1.997   5.254   3.003
15526TIP3    H268070   1.867   5.324   2.969
15527TIP3   OH268071   3.741   5.281   3.523
15527TIP3    H168072   3.726   5.186   3.519
15527TIP3    H268073   3.658   5.317   3.555
15528TIP3   OH268074   2.823   5.237   3.378
15528TIP3    H168075   2.817   5.321   3.424
15528TIP3    H268076   2.739   5.194   3.397
15529TIP3   OH268077   2.915   5.574   2.361
15529TIP3    H168078   2.890   5.577   2.268
15529TIP3    H268079   2.879   5.654   2.398
15530TIP3   OH268080   2.253   5.475   2.549
15530TIP3    H168081   2.271   5.442   2.637
15530TIP3    H268082   2.197   5.408   2.510
15531TIP3   OH268083   3.202   5.547   2.038
15531TIP3    H168084   3.247   5.472   2.000
15531TIP3    H268085   3.211   5.536   2.132
15532TIP3   OH268086   3.181   5.524   2.315
15532TIP3    H168087   3.088   5.536   2.334
15532TIP3    H268088   3.211   5.460   2.380
15533TIP3   OH268089   3.447   4.404   3.506
15533TIP3    H168090   3.368   4.439   3.466
15533TIP3    H268091   3.449   4.313   3.478
15534TIP3   OH268092   2.181   5.098   3.308
15534TIP3    H168093   2.202   5.067   3.395
15534TIP3    H268094   2.101   5.051   3.283
15535TIP3   OH268095   2.415   3.902   2.951
15535TIP3    H168096   2.342   3.895   2.889
15535TIP3    H268097   2.394   3.979   3.004
15536TIP3   OH268098   2.904   3.884   3.266
15536TIP3    H168099   2.958   3.835   3.327
15536TIP3    H268100   2.814   3.864   3.291
15537TIP3   OH268101   3.215   4.229   3.339
15537TIP3    H168102   3.187   4.171   3.410
15537TIP3    H268103   3.308   4.209   3.328
15538TIP3   OH268104   3.297   4.713   1.931
15538TIP3    H168105   3.276   4.725   1.838
15538TIP3    H268106   3.391   4.731   1.937
15539TIP3   OH268107   2.847   4.127   2.023
15539TIP3    H168108   2.796   4.118   2.103
15539TIP3    H268109   2.816   4.056   1.966
15540TIP3   OH268110   2.436   4.435   3.060
15540TIP3    H168111   2.372   4.435   3.131
15540TIP3    H268112   2.437   4.525   3.028
15541TIP3   OH268113   2.436   4.431   2.553
15541TIP3    H168114   2.341   4.420   2.547
15541TIP3    H268115   2.467   4.416   2.463
15542TIP3   OH268116   2.986   4.461   2.433
15542TIP3    H168117   2.963   4.547   2.399
15542TIP3    H268118   3.056   4.430   2.375
15543TIP3   OH268119   2.941   4.495   3.559
15543TIP3    H168120   2.877   4.432   3.590
15543TIP3    H268121   3.014   4.489   3.621
15544TIP3   OH268122   3.091   4.400   2.686
15544TIP3    H168123   3.044   4.441   2.614
15544TIP3    H268124   3.135   4.325   2.646
15545TIP3   OH268125   2.232   4.442   3.241
15545TIP3    H168126   2.224   4.496   3.320
15545TIP3    H268127   2.185   4.361   3.262
15546TIP3   OH268128   2.542   4.162   1.913
15546TIP3    H168129   2.512   4.154   2.004
15546TIP3    H268130   2.484   4.229   1.875
15547TIP3   OH268131   1.890   4.131   2.635
15547TIP3    H168132   1.944   4.144   2.713
15547TIP3    H268133   1.952   4.135   2.562
15548TIP3   OH268134   1.920   4.225   2.129
15548TIP3    H168135   1.989   4.267   2.077
15548TIP3    H268136   1.862   4.298   2.153
15549TIP3   OH268137   3.032   4.528   3.187
15549TIP3    H168138   3.059   4.484   3.106
15549TIP3    H268139   2.950   4.570   3.164
15550TIP3   OH268140   2.736   4.205   2.670
15550TIP3    H168141   2.646   4.184   2.695
15550TIP3    H268142   2.786   4.127   2.695
15551TIP3   OH268143   2.175   4.343   2.522
15551TIP3    H168144   2.104   4.372   2.465
15551TIP3    H268145   2.197   4.255   2.491
15552TIP3   OH268146   2.504   4.361   2.295
15552TIP3    H168147   2.598   4.354   2.315
15552TIP3    H268148   2.502   4.401   2.208
15553TIP3   OH268149   3.155   4.106   2.967
15553TIP3    H168150   3.074   4.058   2.953
15553TIP3    H268151   3.202   4.100   2.884
15554TIP3   OH268152   2.480   4.452   2.037
15554TIP3    H168153   2.426   4.426   1.962
15554TIP3    H268154   2.555   4.497   1.998
15555TIP3   OH268155   3.489   5.668   3.613
15555TIP3    H168156   3.512   5.708   3.529
15555TIP3    H268157   3.561   5.690   3.671
15556TIP3   OH268158   2.248   4.924   3.548
15556TIP3    H168159   2.313   4.924   3.617
15556TIP3    H268160   2.165   4.941   3.593
15557TIP3   OH268161   2.811   4.474   2.829
15557TIP3    H168162   2.850   4.409   2.771
15557TIP3    H268163   2.780   4.425   2.905
15558TIP3   OH268164   2.280   4.081   2.479
15558TIP3    H168165   2.231   4.002   2.502
15558TIP3    H268166   2.325   4.059   2.398
15559TIP3   OH268167   2.695   4.343   3.053
15559TIP3    H168168   2.606   4.379   3.056
15559TIP3    H268169   2.734   4.370   3.136
15560TIP3   OH268170   2.738   4.889   2.242
15560TIP3    H168171   2.667   4.858   2.185
15560TIP3    H268172   2.693   4.923   2.320
15561TIP3   OH268173   3.444   4.853   3.082
15561TIP3    H168174   3.502   4.902   3.023
15561TIP3    H268175   3.370   4.827   3.028
15562TIP3   OH268176   3.106   4.176   2.100
15562TIP3    H168177   3.015   4.176   2.073
15562TIP3    H268178   3.121   4.264   2.136
15563TIP3   OH268179   2.881   4.926   3.382
15563TIP3    H168180   2.921   4.897   3.465
15563TIP3    H268181   2.856   5.017   3.398
15564TIP3   OH268182   3.187   4.401   2.246
15564TIP3    H168183   3.276   4.380   2.274
15564TIP3    H268184   3.194   4.488   2.207
15565TIP3   OH268185   2.265   4.840   2.775
15565TIP3    H168186   2.323   4.833   2.699
15565TIP3    H268187   2.309   4.789   2.843
15566TIP3   OH268188   2.949   5.047   2.172
15566TIP3    H168189   2.916   5.136   2.176
15566TIP3    H268190   2.874   4.992   2.194
15567TIP3   OH268191   1.977   4.674   3.332
15567TIP3    H168192   1.943   4.634   3.412
15567TIP3    H268193   1.909   4.657   3.266
15568TIP3   OH268194   2.708   4.668   3.571
15568TIP3    H168195   2.646   4.630   3.508
15568TIP3    H268196   2.792   4.630   3.548
15569TIP3   OH268197   3.102   5.224   3.384
15569TIP3    H168198   3.009   5.230   3.362
15569TIP3    H268199   3.105   5.239   3.479
15570TIP3   OH268200   3.628   4.454   2.215
15570TIP3    H168201   3.596   4.422   2.130
15570TIP3    H268202   3.655   4.544   2.197
15571TIP3   OH268203   3.705   5.001   3.467
15571TIP3    H168204   3.613   5.013   3.444
15571TIP3    H268205   3.749   4.986   3.382
15572TIP3   OH268206   3.532   5.292   2.249
15572TIP3    H168207   3.485   5.214   2.277
15572TIP3    H268208   3.581   5.264   2.172
15573TIP3   OH268209   3.242   4.781   2.903
15573TIP3    H168210   3.147   4.774   2.892
15573TIP3    H268211   3.276   4.703   2.860
15574TIP3   OH268212   2.528   5.216   2.588
15574TIP3    H168213   2.549   5.299   2.547
15574TIP3    H268214   2.434   5.222   2.609
15575TIP3   OH268215   2.085   4.669   2.035
15575TIP3    H168216   2.131   4.735   2.087
15575TIP3    H268217   1.994   4.674   2.064
15576TIP3   OH268218   2.586   4.989   2.443
15576TIP3    H168219   2.578   5.069   2.494
15576TIP3    H268220   2.538   4.923   2.494
15577TIP3   OH268221   2.718   5.384   3.157
15577TIP3    H168222   2.773   5.459   3.138
15577TIP3    H268223   2.770   5.329   3.216
15578TIP3   OH268224   2.519   5.472   2.475
15578TIP3    H168225   2.426   5.488   2.492
15578TIP3    H268226   2.564   5.549   2.511
15579TIP3   OH268227   3.002   4.991   3.137
15579TIP3    H168228   2.962   4.968   3.220
15579TIP3    H268229   3.081   4.937   3.132
15580TIP3   OH268230   3.305   5.101   2.051
15580TIP3    H168231   3.316   5.060   2.137
15580TIP3    H268232   3.221   5.068   2.019
15581TIP3   OH268233   3.319   5.398   3.341
15581TIP3    H168234   3.237   5.349   3.341
15581TIP3    H268235   3.304   5.471   3.282
15582TIP3   OH268236   3.719   5.527   2.040
15582TIP3    H168237   3.773   5.604   2.021
15582TIP3    H268238   3.637   5.564   2.073
15583TIP3   OH268239   2.107   4.187   3.275
15583TIP3    H168240   2.018   4.217   3.253
15583TIP3    H268241   2.094   4.119   3.341
15584TIP3   OH268242   3.382   4.981   2.293
15584TIP3    H168243   3.338   4.902   2.325
15584TIP3    H268244   3.475   4.958   2.293
15585TIP3   OH268245   2.112   5.360   3.144
15585TIP3    H168246   2.143   5.286   3.197
15585TIP3    H268247   2.123   5.437   3.201
15586TIP3   OH268248   2.668   5.186   1.895
15586TIP3    H168249   2.675   5.102   1.850
15586TIP3    H268250   2.631   5.166   1.981
15587TIP3   OH268251   2.541   5.160   2.143
15587TIP3    H168252   2.573   5.112   2.219
15587TIP3    H268253   2.553   5.252   2.167
15588TIP3   OH268254   2.186   4.873   2.198
15588TIP3    H168255   2.119   4.924   2.244
15588TIP3    H268256   2.234   4.939   2.147
15589TIP3   OH268257   2.968   4.144   3.217
15589TIP3    H168258   3.061   4.145   3.195
15589TIP3    H268259   2.947   4.051   3.229
15590TIP3   OH268260   3.089   4.061   2.352
15590TIP3    H168261   3.099   4.102   2.266
15590TIP3    H268262   3.133   4.120   2.413
15591TIP3   OH268263   2.844   5.297   2.182
15591TIP3    H168264   2.756   5.329   2.203
15591TIP3    H268265   2.891   5.374   2.152
15592TIP3   OH268266   2.755   4.310   2.415
15592TIP3    H168267   2.835   4.363   2.416
15592TIP3    H268268   2.747   4.277   2.505
15593TIP3   OH268269   2.812   4.339   3.311
15593TIP3    H168270   2.745   4.308   3.371
15593TIP3    H268271   2.849   4.260   3.272
15594TIP3   OH268272   2.864   3.938   2.447
15594TIP3    H168273   2.874   3.955   2.541
15594TIP3    H268274   2.943   3.975   2.408
15595TIP3   OH268275   2.598   5.418   2.218
15595TIP3    H168276   2.607   5.503   2.175
15595TIP3    H268277   2.569   5.439   2.307
15596TIP3   OH268278   2.446   4.113   2.173
15596TIP3    H168279   2.441   4.199   2.216
15596TIP3    H268280   2.531   4.078   2.200
15597TIP3   OH268281   3.481   4.164   3.338
15597TIP3    H168282   3.456   4.120   3.257
15597TIP3    H268283   3.574   4.185   3.327
15598TIP3   OH268284   3.321   4.538   2.783
15598TIP3    H168285   3.242   4.490   2.760
15598TIP3    H268286   3.371   4.477   2.837
15599TIP3   OH268287   2.297   5.077   2.041
15599TIP3    H168288   2.370   5.122   2.083
15599TIP3    H268289   2.336   5.025   1.972
15600TIP3   OH268290   2.070   4.396   1.976
15600TIP3    H168291   2.092   4.483   2.010
15600TIP3    H268292   2.047   4.411   1.884
15601TIP3   OH268293   3.464   5.490   2.945
15601TIP3    H168294   3.445   5.562   2.885
15601TIP3    H268295   3.560   5.493   2.955
15602TIP3   OH268296   2.172   3.885   2.818
15602TIP3    H168297   2.167   3.878   2.723
15602TIP3    H268298   2.140   3.800   2.850
15603TIP3   OH268299   2.058   5.304   2.434
15603TIP3    H168300   2.003   5.332   2.508
15603TIP3    H268301   2.039   5.367   2.365
15604TIP3   OH268302   2.032   5.564   3.612
15604TIP3    H168303   2.098   5.539   3.677
15604TIP3    H268304   1.993   5.482   3.583
15605TIP3   OH268305   2.455   5.379   3.749
15605TIP3    H168306   2.536   5.334   3.773
15605TIP3    H268307   2.436   5.346   3.661
15606TIP3   OH268308   2.871   5.372   1.868
15606TIP3    H168309   2.805   5.306   1.885
15606TIP3    H268310   2.948   5.323   1.838
15607TIP3   OH268311   3.108   5.259   3.655
15607TIP3    H168312   3.094   5.177   3.703
15607TIP3    H268313   3.183   5.300   3.698
15608TIP3   OH268314   3.323   5.338   1.911
15608TIP3    H168315   3.332   5.260   1.965
15608TIP3    H268316   3.398   5.334   1.851
15609TIP3   OH268317   2.000   4.936   3.675
15609TIP3    H168318   1.991   4.841   3.670
15609TIP3    H268319   1.931   4.970   3.619
15610TIP3   OH268320   2.428   4.905   1.874
15610TIP3    H168321   2.452   4.855   1.953
15610TIP3    H268322   2.511   4.920   1.829
15611TIP3   OH268323   2.667   4.943   3.637
15611TIP3    H168324   2.647   4.987   3.554
15611TIP3    H268325   2.695   4.855   3.612
15612TIP3   OH268326   3.063   5.031   1.922
15612TIP3    H168327   3.015   5.027   2.005
15612TIP3    H268328   3.037   4.953   1.875
15613TIP3   OH268329   3.220   4.971   3.389
15613TIP3    H168330   3.311   4.991   3.367
15613TIP3    H268331   3.176   5.056   3.382
15614TIP3   OH268332   2.068   4.658   3.658
15614TIP3    H168333   2.155   4.657   3.617
15614TIP3    H268334   2.086   4.662   3.752
15615TIP3   OH268335   2.528   4.773   2.099
15615TIP3    H168336   2.482   4.730   2.171
15615TIP3    H268337   2.577   4.703   2.057
15616TIP3   OH268338   2.515   4.561   3.381
15616TIP3    H168339   2.433   4.609   3.381
15616TIP3    H268340   2.573   4.612   3.324
15617TIP3   OH268341   2.688   4.605   1.940
15617TIP3    H168342   2.686   4.633   1.849
15617TIP3    H268343   2.782   4.595   1.960
15618TIP3   OH268344   2.999   4.804   3.667
15618TIP3    H168345   3.082   4.768   3.635
15618TIP3    H268346   2.968   4.741   3.731
15619TIP3   OH268347   3.558   4.797   1.894
15619TIP3    H168348   3.563   4.774   1.801
15619TIP3    H268349   3.555   4.892   1.895
15620TIP3   OH268350   2.560   4.300   3.451
15620TIP3    H168351   2.547   4.242   3.376
15620TIP3    H268352   2.544   4.387   3.417
15621TIP3   OH268353   2.567   4.137   3.219
15621TIP3    H168354   2.620   4.176   3.150
15621TIP3    H268355   2.480   4.128   3.181
15622TIP3   OH268356   2.709   4.716   3.255
15622TIP3    H168357   2.771   4.775   3.297
15622TIP3    H268358   2.667   4.769   3.188
15623TIP3   OH268359   3.141   4.451   3.745
15623TIP3    H168360   3.155   4.367   3.787
15623TIP3    H268361   3.217   4.504   3.769
15624TIP3   OH268362   3.277   4.754   3.543
15624TIP3    H168363   3.248   4.832   3.496
15624TIP3    H268364   3.372   4.756   3.536
15625TIP3   OH268365   2.376   4.351   3.669
15625TIP3    H168366   2.293   4.307   3.651
15625TIP3    H268367   2.421   4.351   3.584
15626TIP3   OH268368   2.617   3.874   3.310
15626TIP3    H168369   2.606   3.964   3.281
15626TIP3    H268370   2.551   3.825   3.261
15627TIP3   OH268371   2.769   4.290   3.641
15627TIP3    H168372   2.745   4.268   3.731
15627TIP3    H268373   2.687   4.287   3.593
15628TIP3   OH268374   3.020   4.212   3.541
15628TIP3    H168375   2.937   4.219   3.589
15628TIP3    H268376   3.079   4.167   3.601
15629TIP3   OH268377   3.206   4.079   3.697
15629TIP3    H168378   3.200   3.984   3.703
15629TIP3    H268379   3.180   4.110   3.784
15630TIP3   OH268380   2.167   4.163   3.640
15630TIP3    H168381   2.168   4.078   3.597
15630TIP3    H268382   2.164   4.143   3.734
15631TIP3   OH268383   2.659   3.757   3.551
15631TIP3    H168384   2.727   3.699   3.519
15631TIP3    H268385   2.628   3.804   3.473
15632TIP3   OH268386   2.702   3.958   3.750
15632TIP3    H168387   2.694   3.920   3.663
15632TIP3    H268388   2.634   4.026   3.752
15633TIP3   OH268389   2.679   5.658   2.102
15633TIP3    H168390   2.767   5.623   2.088
15633TIP3    H268391   2.667   5.721   2.031
15634TIP3   OH268392   2.035   5.136   1.986
15634TIP3    H168393   2.126   5.126   2.011
15634TIP3    H268394   2.017   5.063   1.928
15635TIP3   OH268395   1.892   5.619   2.545
15635TIP3    H168396   1.835   5.588   2.475
15635TIP3    H268397   1.910   5.540   2.598
15636TIP3   OH268398   1.961   5.395   2.695
15636TIP3    H168399   1.925   5.319   2.741
15636TIP3    H268400   2.010   5.444   2.762
15637TIP3   OH268401   3.732   5.509   3.040
15637TIP3    H168402   3.709   5.498   3.133
15637TIP3    H268403   3.764   5.599   3.034
15638TIP3   OH268404   3.658   5.467   3.302
15638TIP3    H168405   3.604   5.395   3.270
15638TIP3    H268406   3.698   5.433   3.382
15639TIP3   OH268407   3.529   5.065   3.757
15639TIP3    H168408   3.443   5.070   3.801
15639TIP3    H268409   3.583   5.129   3.802
15640TIP3   OH268410   3.647   4.910   2.314
15640TIP3    H168411   3.715   4.975   2.330
15640TIP3    H268412   3.667   4.838   2.374
15641TIP3   OH268413   3.689   4.694   2.479
15641TIP3    H168414   3.607   4.652   2.505
15641TIP3    H268415   3.741   4.699   2.560
15642TIP3   OH268416   3.681   4.962   2.974
15642TIP3    H168417   3.726   4.886   2.937
15642TIP3    H268418   3.665   5.020   2.900
15643TIP3   OH268419   3.509   5.257   3.200
15643TIP3    H168420   3.435   5.299   3.245
15643TIP3    H268421   3.478   5.243   3.111
15644TIP3   OH268422   3.686   4.709   2.122
15644TIP3    H168423   3.640   4.734   2.042
15644TIP3    H268424   3.671   4.783   2.182
15645TIP3   OH268425   3.535   4.405   1.964
15645TIP3    H168426   3.601   4.445   1.908
15645TIP3    H268427   3.507   4.327   1.917
15646TIP3   OH268428   3.443   4.570   2.533
15646TIP3    H168429   3.447   4.482   2.496
15646TIP3    H268430   3.409   4.558   2.622
15647TIP3   OH268431   1.939   4.739   2.958
15647TIP3    H168432   1.952   4.734   2.863
15647TIP3    H268433   2.024   4.717   2.995
15648TIP3   OH268434   3.555   4.753   3.524
15648TIP3    H168435   3.608   4.674   3.511
15648TIP3    H268436   3.612   4.825   3.495
15649TIP3   OH268437   3.697   4.519   3.498
15649TIP3    H168438   3.610   4.478   3.501
15649TIP3    H268439   3.757   4.451   3.529
15650TIP3   OH268440   3.469   4.164   1.849
15650TIP3    H168441   3.516   4.114   1.915
15650TIP3    H268442   3.381   4.128   1.849
15651TIP3   OH268443   3.444   4.325   2.373
15651TIP3    H168444   3.476   4.235   2.378
15651TIP3    H268445   3.510   4.371   2.321
15652TIP3   OH268446   3.484   4.367   2.933
15652TIP3    H168447   3.577   4.381   2.911
15652TIP3    H268448   3.481   4.374   3.028
15653TIP3   OH268449   3.521   4.450   3.205
15653TIP3    H168450   3.441   4.471   3.253
15653TIP3    H268451   3.565   4.534   3.194
15654TIP3   OH268452   1.947   4.294   3.534
15654TIP3    H168453   2.031   4.265   3.571
15654TIP3    H268454   1.889   4.219   3.545
15655TIP3   OH268455   3.745   3.862   3.717
15655TIP3    H168456   3.805   3.794   3.687
15655TIP3    H268457   3.751   3.931   3.650
15656TIP3   OH268458   3.509   4.053   2.397
15656TIP3    H168459   3.529   4.010   2.480
15656TIP3    H268460   3.443   3.997   2.356
15657TIP3   OH268461   2.046   4.127   2.868
15657TIP3    H168462   2.085   4.040   2.858
15657TIP3    H268463   2.120   4.186   2.878
15658TIP3   OH268464   1.857   4.422   2.917
15658TIP3    H168465   1.928   4.414   2.854
15658TIP3    H268466   1.876   4.503   2.965
15659TIP3   OH268467   3.686   4.061   3.533
15659TIP3    H168468   3.608   4.091   3.581
15659TIP3    H268469   3.652   3.998   3.470
15660TIP3   OH268470   3.642   4.037   2.032
15660TIP3    H168471   3.685   3.975   1.973
15660TIP3    H268472   3.713   4.093   2.063
15661TIP3   OH268473   1.918   4.037   2.326
15661TIP3    H168474   1.824   4.036   2.348
15661TIP3    H268475   1.927   4.109   2.264
15662TIP3   OH268476   3.385   5.565   2.559
15662TIP3    H168477   3.456   5.557   2.495
15662TIP3    H268478   3.423   5.614   2.631
15663TIP3   OH268479   1.918   3.887   3.192
15663TIP3    H168480   1.844   3.876   3.252
15663TIP3    H268481   1.890   3.957   3.133
15664TIP3   OH268482   2.126   5.256   3.599
15664TIP3    H168483   2.038   5.271   3.563
15664TIP3    H268484   2.111   5.233   3.691
15665TIP3   OH268485   2.454   5.365   3.237
15665TIP3    H168486   2.424   5.453   3.214
15665TIP3    H268487   2.548   5.367   3.217
15666TIP3   OH268488   2.820   5.482   3.507
15666TIP3    H168489   2.829   5.452   3.598
15666TIP3    H268490   2.897   5.536   3.492
15667TIP3   OH268491   3.053   5.627   3.478
15667TIP3    H168492   3.119   5.577   3.430
15667TIP3    H268493   3.100   5.660   3.555
15668TIP3   OH268494   3.599   3.840   3.380
15668TIP3    H168495   3.516   3.842   3.331
15668TIP3    H268496   3.638   3.756   3.357
15669TIP3   OH268497   2.146   5.641   3.252
15669TIP3    H168498   2.067   5.679   3.212
15669TIP3    H268499   2.156   5.689   3.335
15670TIP3   OH268500   2.408   5.629   3.168
15670TIP3    H168501   2.316   5.637   3.193
15670TIP3    H268502   2.414   5.673   3.084
15671TIP3   OH268503   2.860   5.607   3.073
15671TIP3    H168504   2.806   5.642   3.002
15671TIP3    H268505   2.869   5.679   3.135
15672TIP3   OH268506   3.084   5.475   3.163
15672TIP3    H168507   3.006   5.519   3.128
15672TIP3    H268508   3.156   5.536   3.146
15673TIP3   OH268509   3.327   5.612   3.152
15673TIP3    H168510   3.351   5.704   3.140
15673TIP3    H268511   3.370   5.566   3.079
15674TIP3   OH268512   2.116   5.509   2.904
15674TIP3    H168513   2.104   5.465   2.989
15674TIP3    H268514   2.195   5.469   2.868
15675TIP3   OH268515   2.333   5.383   2.798
15675TIP3    H168516   2.320   5.291   2.820
15675TIP3    H268517   2.418   5.405   2.835
15676TIP3   OH268518   2.591   5.408   2.910
15676TIP3    H168519   2.602   5.319   2.878
15676TIP3    H268520   2.624   5.406   2.999
15677TIP3   OH268521   2.868   3.962   2.724
15677TIP3    H168522   2.819   3.895   2.772
15677TIP3    H268523   2.958   3.931   2.724
15678TIP3   OH268524   3.420   3.924   2.840
15678TIP3    H168525   3.484   3.914   2.770
15678TIP3    H268526   3.377   3.839   2.846
15679TIP3   OH268527   3.601   3.930   2.634
15679TIP3    H168528   3.659   3.858   2.609
15679TIP3    H268529   3.659   4.006   2.641
15680TIP3   OH268530   2.147   3.846   2.546
15680TIP3    H168531   2.055   3.827   2.527
15680TIP3    H268532   2.191   3.762   2.534
15681TIP3   OH268533   2.064   3.860   2.161
15681TIP3    H168534   2.118   3.917   2.106
15681TIP3    H268535   2.020   3.919   2.222
15682TIP3   OH268536   2.624   3.824   2.553
15682TIP3    H168537   2.700   3.867   2.514
15682TIP3    H268538   2.640   3.827   2.647
15683TIP3   OH268539   3.131   3.885   2.700
15683TIP3    H168540   3.190   3.882   2.625
15683TIP3    H268541   3.160   3.813   2.756
15684TIP3   OH268542   3.302   3.893   2.288
15684TIP3    H168543   3.225   3.947   2.305
15684TIP3    H268544   3.280   3.807   2.324
15685TIP3   OH268545   2.018   5.481   2.227
15685TIP3    H168546   1.944   5.475   2.166
15685TIP3    H268547   2.046   5.572   2.221
15686TIP3   OH268548   2.249   4.010   1.994
15686TIP3    H168549   2.300   3.955   1.936
15686TIP3    H268550   2.312   4.043   2.058
15687TIP3   OH268551   2.709   4.086   2.262
15687TIP3    H168552   2.750   4.016   2.312
15687TIP3    H268553   2.727   4.166   2.312
15688TIP3   OH268554   2.927   5.544   2.071
15688TIP3    H168555   3.020   5.562   2.060
15688TIP3    H268556   2.902   5.494   1.994
15689TIP3   OH268557   3.582   5.536   2.364
15689TIP3    H168558   3.568   5.446   2.333
15689TIP3    H268559   3.566   5.590   2.287
15690TIP3   OH268560   2.151   3.906   3.532
15690TIP3    H168561   2.070   3.870   3.567
15690TIP3    H268562   2.220   3.853   3.571
15691TIP3   OH268563   2.352   3.753   3.663
15691TIP3    H168564   2.445   3.756   3.639
15691TIP3    H268565   2.352   3.764   3.758
15692TIP3   OH268566   2.233   5.517   1.928
15692TIP3    H168567   2.208   5.507   2.020
15692TIP3    H268568   2.308   5.458   1.917
15693TIP3   OH268569   3.216   3.802   3.686
15693TIP3    H168570   3.201   3.753   3.768
15693TIP3    H268571   3.309   3.791   3.669
15694TIP3   OH268572   3.493   5.395   3.563
15694TIP3    H168573   3.430   5.387   3.491
15694TIP3    H268574   3.488   5.487   3.589
15695TIP3   OH268575   4.948   4.795   2.546
15695TIP3    H168576   4.930   4.889   2.543
15695TIP3    H268577   4.890   4.757   2.481
15696TIP3   OH268578   4.859   4.722   2.936
15696TIP3    H168579   4.880   4.662   3.008
15696TIP3    H268580   4.826   4.664   2.867
15697TIP3   OH268581   4.056   4.658   3.073
15697TIP3    H168582   4.067   4.580   3.127
15697TIP3    H268583   4.141   4.672   3.032
15698TIP3   OH268584   5.229   5.026   2.758
15698TIP3    H168585   5.195   4.949   2.803
15698TIP3    H268586   5.248   5.089   2.828
15699TIP3   OH268587   4.239   5.108   2.947
15699TIP3    H168588   4.202   5.039   2.893
15699TIP3    H268589   4.328   5.119   2.915
15700TIP3   OH268590   3.842   4.460   2.398
15700TIP3    H168591   3.811   4.548   2.420
15700TIP3    H268592   3.781   4.429   2.331
15701TIP3   OH268593   3.880   4.702   2.684
15701TIP3    H168594   3.929   4.621   2.693
15701TIP3    H268595   3.932   4.756   2.625
15702TIP3   OH268596   4.957   5.464   2.824
15702TIP3    H168597   4.984   5.426   2.741
15702TIP3    H268598   4.957   5.391   2.886
15703TIP3   OH268599   4.682   4.963   2.952
15703TIP3    H168600   4.727   4.893   2.905
15703TIP3    H268601   4.749   4.998   3.012
15704TIP3   OH268602   5.607   4.106   3.053
15704TIP3    H168603   5.611   4.190   3.100
15704TIP3    H268604   5.664   4.118   2.978
15705TIP3   OH268605   4.990   4.369   2.958
15705TIP3    H168606   5.023   4.279   2.969
15705TIP3    H268607   4.981   4.379   2.863
15706TIP3   OH268608   4.336   4.185   2.687
15706TIP3    H168609   4.339   4.271   2.645
15706TIP3    H268610   4.281   4.132   2.629
15707TIP3   OH268611   5.126   4.229   2.528
15707TIP3    H168612   5.170   4.201   2.607
15707TIP3    H268613   5.195   4.265   2.473
15708TIP3   OH268614   3.991   4.453   2.762
15708TIP3    H168615   4.057   4.411   2.817
15708TIP3    H268616   4.007   4.419   2.674
15709TIP3   OH268617   4.465   4.569   2.769
15709TIP3    H168618   4.550   4.527   2.773
15709TIP3    H268619   4.415   4.517   2.706
15710TIP3   OH268620   5.626   4.297   3.264
15710TIP3    H168621   5.543   4.341   3.243
15710TIP3    H268622   5.645   4.323   3.354
15711TIP3   OH268623   4.211   4.104   3.101
15711TIP3    H168624   4.182   4.164   3.032
15711TIP3    H268625   4.135   4.097   3.159
15712TIP3   OH268626   4.864   5.046   2.461
15712TIP3    H168627   4.893   5.056   2.370
15712TIP3    H268628   4.834   5.133   2.486
15713TIP3   OH268629   4.486   4.852   3.111
15713TIP3    H168630   4.434   4.921   3.152
15713TIP3    H268631   4.548   4.899   3.055
15714TIP3   OH268632   5.226   4.189   2.777
15714TIP3    H168633   5.174   4.144   2.843
15714TIP3    H268634   5.289   4.241   2.826
15715TIP3   OH268635   4.183   4.287   2.894
15715TIP3    H168636   4.247   4.337   2.945
15715TIP3    H268637   4.235   4.248   2.823
15716TIP3   OH268638   4.307   5.046   3.204
15716TIP3    H168639   4.280   5.058   3.113
15716TIP3    H268640   4.225   5.034   3.252
15717TIP3   OH268641   3.870   5.081   2.345
15717TIP3    H168642   3.900   5.053   2.259
15717TIP3    H268643   3.918   5.026   2.407
15718TIP3   OH268644   5.249   5.227   2.966
15718TIP3    H168645   5.154   5.235   2.969
15718TIP3    H268646   5.280   5.313   2.938
15719TIP3   OH268647   5.330   4.020   3.108
15719TIP3    H168648   5.266   4.038   3.040
15719TIP3    H268649   5.415   4.038   3.068
15720TIP3   OH268650   4.567   3.790   2.865
15720TIP3    H168651   4.543   3.698   2.865
15720TIP3    H268652   4.487   3.836   2.887
15721TIP3   OH268653   5.063   5.381   2.583
15721TIP3    H168654   5.105   5.297   2.561
15721TIP3    H268655   5.134   5.445   2.578
15722TIP3   OH268656   5.187   5.153   2.512
15722TIP3    H168657   5.220   5.102   2.438
15722TIP3    H268658   5.206   5.099   2.588
15723TIP3   OH268659   5.368   5.009   3.315
15723TIP3    H168660   5.361   4.953   3.238
15723TIP3    H268661   5.380   5.097   3.280
15724TIP3   OH268662   4.817   4.702   2.319
15724TIP3    H168663   4.751   4.766   2.293
15724TIP3    H268664   4.884   4.706   2.251
15725TIP3   OH268665   4.833   4.603   1.966
15725TIP3    H168666   4.890   4.627   2.040
15725TIP3    H268667   4.883   4.536   1.918
15726TIP3   OH268668   5.530   4.677   3.167
15726TIP3    H168669   5.459   4.739   3.152
15726TIP3    H268670   5.588   4.688   3.092
15727TIP3   OH268671   5.168   4.730   2.390
15727TIP3    H168672   5.102   4.753   2.455
15727TIP3    H268673   5.237   4.686   2.440
15728TIP3   OH268674   5.143   4.530   3.344
15728TIP3    H168675   5.143   4.602   3.407
15728TIP3    H268676   5.080   4.556   3.277
15729TIP3   OH268677   4.383   4.792   2.614
15729TIP3    H168678   4.339   4.758   2.536
15729TIP3    H268679   4.419   4.714   2.657
15730TIP3   OH268680   4.492   5.155   2.856
15730TIP3    H168681   4.480   5.159   2.762
15730TIP3    H268682   4.562   5.091   2.869
15731TIP3   OH268683   4.322   4.667   2.983
15731TIP3    H168684   4.363   4.643   2.901
15731TIP3    H268685   4.376   4.739   3.018
15732TIP3   OH268686   4.977   5.251   3.013
15732TIP3    H168687   4.971   5.317   3.082
15732TIP3    H268688   4.939   5.172   3.052
15733TIP3   OH268689   4.463   5.159   3.409
15733TIP3    H168690   4.450   5.109   3.489
15733TIP3    H268691   4.419   5.107   3.341
15734TIP3   OH268692   5.043   4.666   2.151
15734TIP3    H168693   5.094   4.702   2.223
15734TIP3    H268694   5.097   4.679   2.073
15735TIP3   OH268695   4.137   4.702   3.405
15735TIP3    H168696   4.143   4.776   3.465
15735TIP3    H268697   4.046   4.704   3.374
15736TIP3   OH268698   4.806   5.318   2.508
15736TIP3    H168699   4.893   5.337   2.542
15736TIP3    H268700   4.784   5.393   2.453
15737TIP3   OH268701   4.221   5.363   3.449
15737TIP3    H168702   4.219   5.279   3.403
15737TIP3    H268703   4.156   5.353   3.519
15738TIP3   OH268704   5.409   3.808   2.143
15738TIP3    H168705   5.327   3.833   2.185
15738TIP3    H268706   5.445   3.890   2.110
15739TIP3   OH268707   4.268   4.710   2.357
15739TIP3    H168708   4.197   4.763   2.394
15739TIP3    H268709   4.224   4.632   2.322
15740TIP3   OH268710   5.562   5.276   1.988
15740TIP3    H168711   5.580   5.369   2.001
15740TIP3    H268712   5.648   5.235   1.986
15741TIP3   OH268713   3.822   4.954   3.211
15741TIP3    H168714   3.760   4.949   3.138
15741TIP3    H268715   3.834   4.863   3.239
15742TIP3   OH268716   3.826   5.263   2.957
15742TIP3    H168717   3.827   5.267   2.861
15742TIP3    H268718   3.780   5.343   2.983
15743TIP3   OH268719   5.621   5.297   3.521
15743TIP3    H168720   5.607   5.203   3.513
15743TIP3    H268721   5.537   5.331   3.553
15744TIP3   OH268722   4.717   5.259   3.382
15744TIP3    H168723   4.719   5.335   3.439
15744TIP3    H268724   4.631   5.220   3.396
15745TIP3   OH268725   4.800   5.567   2.361
15745TIP3    H168726   4.780   5.577   2.267
15745TIP3    H268727   4.774   5.651   2.399
15746TIP3   OH268728   4.134   5.481   2.583
15746TIP3    H168729   4.159   5.434   2.663
15746TIP3    H268730   4.078   5.420   2.536
15747TIP3   OH268731   5.074   5.538   2.035
15747TIP3    H168732   5.123   5.464   1.998
15747TIP3    H268733   5.090   5.533   2.129
15748TIP3   OH268734   5.071   5.519   2.308
15748TIP3    H168735   4.983   5.522   2.345
15748TIP3    H268736   5.113   5.445   2.353
15749TIP3   OH268737   5.338   4.388   3.518
15749TIP3    H168738   5.271   4.434   3.468
15749TIP3    H268739   5.343   4.301   3.477
15750TIP3   OH268740   4.056   5.053   3.320
15750TIP3    H168741   4.087   5.040   3.410
15750TIP3    H268742   3.990   4.986   3.307
15751TIP3   OH268743   4.319   3.904   2.935
15751TIP3    H168744   4.246   3.894   2.875
15751TIP3    H268745   4.292   3.974   2.995
15752TIP3   OH268746   4.786   3.898   3.288
15752TIP3    H168747   4.833   3.846   3.353
15752TIP3    H268748   4.693   3.880   3.305
15753TIP3   OH268749   5.083   4.257   3.355
15753TIP3    H168750   5.030   4.243   3.434
15753TIP3    H268751   5.095   4.352   3.351
15754TIP3   OH268752   5.190   4.668   1.916
15754TIP3    H168753   5.168   4.701   1.829
15754TIP3    H268754   5.277   4.702   1.934
15755TIP3   OH268755   4.770   4.105   2.014
15755TIP3    H168756   4.697   4.122   2.074
15755TIP3    H268757   4.735   4.041   1.952
15756TIP3   OH268758   4.327   4.427   3.107
15756TIP3    H168759   4.245   4.424   3.156
15756TIP3    H268760   4.325   4.512   3.062
15757TIP3   OH268761   4.319   4.437   2.582
15757TIP3    H168762   4.227   4.424   2.558
15757TIP3    H268763   4.365   4.439   2.498
15758TIP3   OH268764   4.864   4.452   2.428
15758TIP3    H168765   4.835   4.538   2.397
15758TIP3    H268766   4.936   4.428   2.369
15759TIP3   OH268767   4.793   4.478   3.562
15759TIP3    H168768   4.744   4.408   3.605
15759TIP3    H268769   4.879   4.476   3.604
15760TIP3   OH268770   4.971   4.405   2.682
15760TIP3    H168771   4.931   4.449   2.607
15760TIP3    H268772   5.018   4.331   2.643
15761TIP3   OH268773   4.097   4.418   3.252
15761TIP3    H168774   4.065   4.466   3.329
15761TIP3    H268775   4.055   4.333   3.257
15762TIP3   OH268776   4.467   4.174   1.941
15762TIP3    H168777   4.484   4.168   2.035
15762TIP3    H268778   4.374   4.196   1.934
15763TIP3   OH268779   3.776   4.135   2.630
15763TIP3    H168780   3.843   4.146   2.697
15763TIP3    H268781   3.825   4.125   2.548
15764TIP3   OH268782   3.862   4.192   2.112
15764TIP3    H168783   3.954   4.180   2.088
15764TIP3    H268784   3.840   4.278   2.077
15765TIP3   OH268785   4.904   4.538   3.152
15765TIP3    H168786   4.941   4.479   3.087
15765TIP3    H268787   4.848   4.482   3.205
15766TIP3   OH268788   4.616   4.187   2.682
15766TIP3    H168789   4.524   4.163   2.692
15766TIP3    H268790   4.664   4.114   2.722
15767TIP3   OH268791   4.064   4.351   2.521
15767TIP3    H168792   3.991   4.379   2.465
15767TIP3    H268793   4.081   4.261   2.494
15768TIP3   OH268794   4.451   4.420   2.349
15768TIP3    H168795   4.528   4.367   2.327
15768TIP3    H268796   4.410   4.439   2.265
15769TIP3   OH268797   5.049   4.091   2.971
15769TIP3    H168798   4.990   4.096   3.047
15769TIP3    H268799   5.008   4.026   2.914
15770TIP3   OH268800   4.344   4.466   2.103
15770TIP3    H168801   4.280   4.411   2.058
15770TIP3    H268802   4.402   4.497   2.033
15771TIP3   OH268803   5.376   5.670   3.618
15771TIP3    H168804   5.398   5.705   3.532
15771TIP3    H268805   5.451   5.693   3.673
15772TIP3   OH268806   4.139   4.942   3.560
15772TIP3    H168807   4.206   4.929   3.628
15772TIP3    H268808   4.057   4.946   3.609
15773TIP3   OH268809   4.702   4.419   2.792
15773TIP3    H168810   4.794   4.426   2.764
15773TIP3    H268811   4.670   4.340   2.750
15774TIP3   OH268812   4.160   4.086   2.496
15774TIP3    H168813   4.113   4.003   2.502
15774TIP3    H268814   4.197   4.087   2.408
15775TIP3   OH268815   4.610   4.299   3.053
15775TIP3    H168816   4.605   4.346   2.969
15775TIP3    H268817   4.699   4.265   3.057
15776TIP3   OH268818   4.639   4.900   2.236
15776TIP3    H168819   4.564   4.866   2.187
15776TIP3    H268820   4.600   4.931   2.318
15777TIP3   OH268821   5.342   4.861   3.085
15777TIP3    H168822   5.408   4.911   3.038
15777TIP3    H268823   5.274   4.843   3.021
15778TIP3   OH268824   5.016   4.164   2.113
15778TIP3    H168825   4.927   4.157   2.078
15778TIP3    H268826   5.022   4.255   2.144
15779TIP3   OH268827   4.775   4.971   3.414
15779TIP3    H168828   4.836   4.929   3.475
15779TIP3    H268829   4.794   5.065   3.422
15780TIP3   OH268830   5.072   4.403   2.247
15780TIP3    H168831   5.162   4.390   2.277
15780TIP3    H268832   5.072   4.491   2.209
15781TIP3   OH268833   4.180   4.912   2.774
15781TIP3    H168834   4.118   4.915   2.702
15781TIP3    H268835   4.256   4.865   2.739
15782TIP3   OH268836   4.857   5.051   2.159
15782TIP3    H168837   4.821   5.140   2.170
15782TIP3    H268838   4.785   4.993   2.184
15783TIP3   OH268839   3.856   4.707   3.352
15783TIP3    H168840   3.835   4.660   3.433
15783TIP3    H268841   3.790   4.677   3.289
15784TIP3   OH268842   4.579   4.660   3.575
15784TIP3    H168843   4.518   4.633   3.506
15784TIP3    H268844   4.659   4.610   3.558
15785TIP3   OH268845   4.993   5.223   3.373
15785TIP3    H168846   4.904   5.246   3.347
15785TIP3    H268847   4.998   5.244   3.466
15786TIP3   OH268848   5.523   4.436   2.183
15786TIP3    H168849   5.481   4.415   2.099
15786TIP3    H268850   5.550   4.528   2.173
15787TIP3   OH268851   5.588   5.016   3.478
15787TIP3    H168852   5.500   5.025   3.442
15787TIP3    H268853   5.644   5.002   3.402
15788TIP3   OH268854   5.381   5.283   2.203
15788TIP3    H168855   5.438   5.276   2.279
15788TIP3    H268856   5.440   5.281   2.127
15789TIP3   OH268857   5.142   4.793   2.899
15789TIP3    H168858   5.047   4.787   2.898
15789TIP3    H268859   5.172   4.714   2.852
15790TIP3   OH268860   4.400   5.210   2.598
15790TIP3    H168861   4.414   5.294   2.555
15790TIP3    H268862   4.322   5.173   2.556
15791TIP3   OH268863   3.943   4.688   2.027
15791TIP3    H168864   3.990   4.758   2.073
15791TIP3    H268865   3.855   4.691   2.063
15792TIP3   OH268866   4.500   4.990   2.453
15792TIP3    H168867   4.497   5.067   2.508
15792TIP3    H268868   4.460   4.921   2.505
15793TIP3   OH268869   4.578   5.437   3.216
15793TIP3    H168870   4.638   5.500   3.176
15793TIP3    H268871   4.634   5.370   3.254
15794TIP3   OH268872   4.391   5.468   2.479
15794TIP3    H168873   4.301   5.486   2.503
15794TIP3    H268874   4.439   5.547   2.506
15795TIP3   OH268875   4.881   5.012   3.140
15795TIP3    H168876   4.845   4.992   3.227
15795TIP3    H268877   4.961   4.959   3.135
15796TIP3   OH268878   5.171   5.097   2.068
15796TIP3    H168879   5.212   5.079   2.153
15796TIP3    H268880   5.078   5.077   2.082
15797TIP3   OH268881   5.194   5.427   3.351
15797TIP3    H168882   5.116   5.376   3.332
15797TIP3    H268883   5.195   5.496   3.285
15798TIP3   OH268884   5.609   5.543   2.037
15798TIP3    H168885   5.678   5.602   2.065
15798TIP3    H268886   5.528   5.585   2.065
15799TIP3   OH268887   4.000   4.157   3.283
15799TIP3    H168888   3.908   4.165   3.257
15799TIP3    H268889   4.003   4.081   3.341
15800TIP3   OH268890   5.268   4.975   2.304
15800TIP3    H168891   5.229   4.892   2.331
15800TIP3    H268892   5.362   4.958   2.300
15801TIP3   OH268893   4.024   5.368   3.182
15801TIP3    H168894   4.120   5.361   3.178
15801TIP3    H268895   4.007   5.455   3.217
15802TIP3   OH268896   4.541   5.194   1.891
15802TIP3    H168897   4.552   5.110   1.846
15802TIP3    H268898   4.507   5.171   1.977
15803TIP3   OH268899   4.437   5.166   2.148
15803TIP3    H168900   4.477   5.110   2.214
15803TIP3    H268901   4.456   5.255   2.177
15804TIP3   OH268902   4.033   4.902   2.181
15804TIP3    H168903   4.049   4.890   2.275
15804TIP3    H268904   4.100   4.964   2.153
15805TIP3   OH268905   4.883   4.141   3.200
15805TIP3    H168906   4.959   4.160   3.254
15805TIP3    H268907   4.851   4.057   3.234
15806TIP3   OH268908   4.989   4.051   2.364
15806TIP3    H168909   4.996   4.089   2.276
15806TIP3    H268910   5.027   4.117   2.422
15807TIP3   OH268911   4.742   5.297   2.187
15807TIP3    H168912   4.656   5.331   2.212
15807TIP3    H268913   4.789   5.374   2.154
15808TIP3   OH268914   4.680   4.240   2.418
15808TIP3    H168915   4.745   4.311   2.416
15808TIP3    H268916   4.649   4.238   2.508
15809TIP3   OH268917   4.741   4.368   3.312
15809TIP3    H168918   4.770   4.393   3.400
15809TIP3    H268919   4.784   4.284   3.295
15810TIP3   OH268920   4.741   3.962   2.446
15810TIP3    H168921   4.706   4.051   2.451
15810TIP3    H268922   4.832   3.974   2.417
15811TIP3   OH268923   4.498   5.425   2.227
15811TIP3    H168924   4.495   5.510   2.184
15811TIP3    H268925   4.461   5.441   2.314
15812TIP3   OH268926   4.272   4.117   2.247
15812TIP3    H168927   4.232   4.154   2.168
15812TIP3    H268928   4.366   4.116   2.227
15813TIP3   OH268929   5.333   4.145   3.356
15813TIP3    H168930   5.241   4.173   3.356
15813TIP3    H268931   5.345   4.101   3.272
15814TIP3   OH268932   5.210   4.540   2.784
15814TIP3    H168933   5.130   4.493   2.759
15814TIP3    H268934   5.258   4.479   2.840
15815TIP3   OH268935   4.189   5.093   2.051
15815TIP3    H168936   4.266   5.130   2.092
15815TIP3    H268937   4.223   5.033   1.984
15816TIP3   OH268938   3.885   4.423   1.967
15816TIP3    H168939   3.908   4.513   1.989
15816TIP3    H268940   3.969   4.380   1.949
15817TIP3   OH268941   5.346   5.489   2.949
15817TIP3    H168942   5.337   5.564   2.890
15817TIP3    H268943   5.441   5.481   2.962
15818TIP3   OH268944   4.067   3.891   2.817
15818TIP3    H168945   4.055   3.881   2.723
15818TIP3    H268946   4.034   3.809   2.854
15819TIP3   OH268947   3.945   5.331   2.452
15819TIP3    H168948   3.916   5.244   2.425
15819TIP3    H268949   3.944   5.383   2.371
15820TIP3   OH268950   3.918   5.565   3.612
15820TIP3    H168951   3.979   5.548   3.684
15820TIP3    H268952   3.900   5.478   3.575
15821TIP3   OH268953   4.347   5.418   3.781
15821TIP3    H168954   4.413   5.458   3.839
15821TIP3    H268955   4.393   5.346   3.739
15822TIP3   OH268956   4.756   5.366   1.878
15822TIP3    H168957   4.686   5.302   1.889
15822TIP3    H268958   4.833   5.315   1.853
15823TIP3   OH268959   4.982   5.268   3.641
15823TIP3    H168960   4.958   5.186   3.684
15823TIP3    H268961   5.058   5.300   3.690
15824TIP3   OH268962   5.206   5.330   1.917
15824TIP3    H168963   5.212   5.258   1.979
15824TIP3    H268964   5.289   5.326   1.868
15825TIP3   OH268965   3.886   4.942   3.675
15825TIP3    H168966   3.895   4.847   3.676
15825TIP3    H268967   3.811   4.959   3.617
15826TIP3   OH268968   4.315   4.912   1.889
15826TIP3    H168969   4.338   4.862   1.968
15826TIP3    H268970   4.398   4.921   1.842
15827TIP3   OH268971   4.559   4.936   3.599
15827TIP3    H168972   4.624   4.962   3.534
15827TIP3    H268973   4.567   4.841   3.605
15828TIP3   OH268974   4.886   5.056   1.882
15828TIP3    H168975   4.871   5.043   1.975
15828TIP3    H268976   4.879   4.969   1.844
15829TIP3   OH268977   5.104   4.969   3.385
15829TIP3    H168978   5.197   4.983   3.366
15829TIP3    H268979   5.065   5.056   3.377
15830TIP3   OH268980   3.961   4.676   3.661
15830TIP3    H168981   4.024   4.609   3.632
15830TIP3    H268982   3.959   4.667   3.756
15831TIP3   OH268983   4.414   4.785   2.120
15831TIP3    H168984   4.366   4.753   2.197
15831TIP3    H268985   4.448   4.706   2.080
15832TIP3   OH268986   4.400   4.612   3.360
15832TIP3    H168987   4.308   4.628   3.382
15832TIP3    H268988   4.423   4.683   3.300
15833TIP3   OH268989   4.548   4.597   1.956
15833TIP3    H168990   4.543   4.624   1.864
15833TIP3    H268991   4.642   4.593   1.974
15834TIP3   OH268992   4.891   4.801   3.657
15834TIP3    H168993   4.971   4.762   3.620
15834TIP3    H268994   4.860   4.736   3.720
15835TIP3   OH268995   5.439   4.790   1.907
15835TIP3    H168996   5.445   4.776   1.812
15835TIP3    H268997   5.431   4.885   1.916
15836TIP3   OH268998   4.372   4.295   3.393
15836TIP3    H168999   4.408   4.211   3.367
15836TIP3    H269000   4.281   4.293   3.363
15837TIP3   OH269001   4.462   4.112   3.204
15837TIP3    H169002   4.514   4.160   3.139
15837TIP3    H269003   4.375   4.106   3.165
15838TIP3   OH269004   4.624   4.621   3.172
15838TIP3    H169005   4.718   4.634   3.165
15838TIP3    H269006   4.586   4.705   3.145
15839TIP3   OH269007   5.026   4.456   3.721
15839TIP3    H169008   5.068   4.370   3.714
15839TIP3    H269009   5.096   4.514   3.752
15840TIP3   OH269010   5.161   4.744   3.530
15840TIP3    H169011   5.131   4.823   3.485
15840TIP3    H269012   5.256   4.748   3.526
15841TIP3   OH269013   4.257   4.370   3.662
15841TIP3    H169014   4.178   4.315   3.658
15841TIP3    H269015   4.295   4.362   3.575
15842TIP3   OH269016   4.512   3.853   3.287
15842TIP3    H169017   4.492   3.942   3.259
15842TIP3    H269018   4.445   3.799   3.244
15843TIP3   OH269019   4.667   4.262   3.670
15843TIP3    H169020   4.696   4.230   3.756
15843TIP3    H269021   4.574   4.240   3.667
15844TIP3   OH269022   4.925   4.200   3.565
15844TIP3    H169023   4.835   4.200   3.599
15844TIP3    H269024   4.975   4.149   3.628
15845TIP3   OH269025   5.097   4.078   3.750
15845TIP3    H169026   5.081   3.985   3.736
15845TIP3    H269027   5.066   4.095   3.839
15846TIP3   OH269028   4.066   4.164   3.642
15846TIP3    H169029   4.056   4.083   3.591
15846TIP3    H269030   4.072   4.134   3.733
15847TIP3   OH269031   4.498   3.782   3.552
15847TIP3    H169032   4.550   3.701   3.551
15847TIP3    H269033   4.495   3.810   3.461
15848TIP3   OH269034   4.572   3.945   3.761
15848TIP3    H169035   4.552   3.886   3.689
15848TIP3    H269036   4.508   4.016   3.753
15849TIP3   OH269037   4.550   5.672   2.089
15849TIP3    H169038   4.638   5.636   2.081
15849TIP3    H269039   4.535   5.718   2.007
15850TIP3   OH269040   3.935   5.146   1.951
15850TIP3    H169041   4.017   5.129   1.999
15850TIP3    H269042   3.916   5.063   1.907
15851TIP3   OH269043   3.765   5.622   2.548
15851TIP3    H169044   3.712   5.593   2.474
15851TIP3    H269045   3.772   5.544   2.604
15852TIP3   OH269046   3.839   5.394   2.703
15852TIP3    H169047   3.876   5.365   2.619
15852TIP3    H269048   3.908   5.449   2.741
15853TIP3   OH269049   5.614   5.481   3.016
15853TIP3    H169050   5.620   5.501   3.109
15853TIP3    H269051   5.695   5.515   2.979
15854TIP3   OH269052   5.545   5.470   3.297
15854TIP3    H169053   5.497   5.398   3.257
15854TIP3    H269054   5.595   5.430   3.368
15855TIP3   OH269055   5.396   5.052   3.787
15855TIP3    H169056   5.314   5.065   3.834
15855TIP3    H269057   5.454   5.121   3.821
15856TIP3   OH269058   5.529   4.877   2.310
15856TIP3    H169059   5.599   4.941   2.298
15856TIP3    H269060   5.560   4.822   2.382
15857TIP3   OH269061   5.605   4.683   2.496
15857TIP3    H169062   5.519   4.655   2.527
15857TIP3    H269063   5.655   4.700   2.575
15858TIP3   OH269064   5.586   4.975   3.013
15858TIP3    H169065   5.634   4.912   2.959
15858TIP3    H269066   5.616   5.061   2.981
15859TIP3   OH269067   5.378   5.262   3.213
15859TIP3    H169068   5.309   5.314   3.256
15859TIP3    H269069   5.346   5.249   3.124
15860TIP3   OH269070   5.589   4.694   2.115
15860TIP3    H169071   5.540   4.722   2.038
15860TIP3    H269072   5.566   4.758   2.182
15861TIP3   OH269073   5.422   4.391   1.932
15861TIP3    H169074   5.400   4.450   1.859
15861TIP3    H269075   5.407   4.303   1.897
15862TIP3   OH269076   5.347   4.574   2.542
15862TIP3    H169077   5.344   4.485   2.506
15862TIP3    H269078   5.306   4.566   2.628
15863TIP3   OH269079   3.822   4.721   2.947
15863TIP3    H169080   3.839   4.719   2.853
15863TIP3    H269081   3.907   4.704   2.988
15864TIP3   OH269082   5.437   4.751   3.517
15864TIP3    H169083   5.496   4.677   3.502
15864TIP3    H269084   5.484   4.826   3.479
15865TIP3   OH269085   5.581   4.515   3.503
15865TIP3    H169086   5.496   4.471   3.510
15865TIP3    H269087   5.644   4.451   3.535
15866TIP3   OH269088   5.364   4.139   1.833
15866TIP3    H169089   5.400   4.095   1.910
15866TIP3    H269090   5.271   4.120   1.836
15867TIP3   OH269091   5.335   4.329   2.367
15867TIP3    H169092   5.365   4.238   2.372
15867TIP3    H269093   5.399   4.371   2.309
15868TIP3   OH269094   5.369   4.361   2.938
15868TIP3    H169095   5.461   4.377   2.915
15868TIP3    H269096   5.365   4.376   3.032
15869TIP3   OH269097   5.390   4.444   3.206
15869TIP3    H169098   5.308   4.474   3.246
15869TIP3    H269099   5.441   4.524   3.194
15870TIP3   OH269100   3.840   4.288   3.534
15870TIP3    H169101   3.920   4.267   3.582
15870TIP3    H269102   3.788   4.208   3.540
15871TIP3   OH269103   5.585   3.844   3.705
15871TIP3    H169104   5.609   3.765   3.753
15871TIP3    H269105   5.584   3.913   3.772
15872TIP3   OH269106   5.401   4.055   2.391
15872TIP3    H169107   5.416   4.015   2.476
15872TIP3    H269108   5.336   3.999   2.349
15873TIP3   OH269109   3.942   4.136   2.859
15873TIP3    H169110   3.979   4.048   2.852
15873TIP3    H269111   4.017   4.194   2.869
15874TIP3   OH269112   3.750   4.439   2.914
15874TIP3    H169113   3.818   4.410   2.852
15874TIP3    H269114   3.770   4.532   2.929
15875TIP3   OH269115   5.541   4.072   3.518
15875TIP3    H169116   5.491   4.084   3.599
15875TIP3    H269117   5.480   4.096   3.448
15876TIP3   OH269118   5.525   4.030   2.031
15876TIP3    H169119   5.579   3.973   1.977
15876TIP3    H269120   5.587   4.094   2.067
15877TIP3   OH269121   3.799   4.050   2.341
15877TIP3    H169122   3.704   4.053   2.350
15877TIP3    H269123   3.819   4.111   2.269
15878TIP3   OH269124   5.246   5.584   2.564
15878TIP3    H169125   5.312   5.573   2.496
15878TIP3    H269126   5.295   5.614   2.640
15879TIP3   OH269127   3.805   3.933   3.208
15879TIP3    H169128   3.731   3.905   3.262
15879TIP3    H269129   3.766   3.982   3.136
15880TIP3   OH269130   4.006   5.278   3.603
15880TIP3    H169131   3.916   5.268   3.572
15880TIP3    H269132   4.004   5.249   3.694
15881TIP3   OH269133   4.298   5.340   3.158
15881TIP3    H169134   4.334   5.391   3.085
15881TIP3    H269135   4.337   5.253   3.148
15882TIP3   OH269136   4.727   5.501   3.518
15882TIP3    H169137   4.734   5.469   3.607
15882TIP3    H269138   4.812   5.542   3.500
15883TIP3   OH269139   4.974   5.618   3.479
15883TIP3    H169140   5.045   5.563   3.447
15883TIP3    H269141   5.010   5.661   3.556
15884TIP3   OH269142   5.463   3.765   3.363
15884TIP3    H169143   5.388   3.777   3.304
15884TIP3    H269144   5.500   3.680   3.339
15885TIP3   OH269145   4.021   5.642   3.252
15885TIP3    H169146   3.945   5.683   3.210
15885TIP3    H269147   4.033   5.692   3.334
15886TIP3   OH269148   4.288   5.632   3.180
15886TIP3    H169149   4.194   5.641   3.196
15886TIP3    H269150   4.304   5.682   3.100
15887TIP3   OH269151   4.736   5.610   3.078
15887TIP3    H169152   4.740   5.646   2.989
15887TIP3    H269153   4.773   5.679   3.133
15888TIP3   OH269154   4.966   5.474   3.169
15888TIP3    H169155   4.888   5.519   3.135
15888TIP3    H269156   5.038   5.536   3.154
15889TIP3   OH269157   5.205   5.617   3.148
15889TIP3    H169158   5.234   5.708   3.140
15889TIP3    H269159   5.251   5.571   3.078
15890TIP3   OH269160   4.007   5.523   2.898
15890TIP3    H169161   3.963   5.480   2.970
15890TIP3    H269162   4.084   5.469   2.881
15891TIP3   OH269163   4.218   5.367   2.829
15891TIP3    H169164   4.216   5.275   2.856
15891TIP3    H269165   4.309   5.394   2.843
15892TIP3   OH269166   4.479   5.421   2.933
15892TIP3    H169167   4.501   5.335   2.897
15892TIP3    H269168   4.539   5.433   3.006
15893TIP3   OH269169   4.762   3.982   2.796
15893TIP3    H169170   4.707   3.908   2.822
15893TIP3    H269171   4.843   3.942   2.764
15894TIP3   OH269172   5.280   3.866   2.832
15894TIP3    H169173   5.342   3.900   2.767
15894TIP3    H269174   5.194   3.875   2.790
15895TIP3   OH269175   5.466   3.918   2.630
15895TIP3    H169176   5.531   3.854   2.601
15895TIP3    H269177   5.517   3.997   2.649
15896TIP3   OH269178   4.025   3.845   2.548
15896TIP3    H169179   3.932   3.825   2.533
15896TIP3    H269180   4.071   3.763   2.530
15897TIP3   OH269181   3.903   3.832   2.163
15897TIP3    H169182   3.967   3.872   2.104
15897TIP3    H269183   3.879   3.902   2.223
15898TIP3   OH269184   4.543   3.806   2.575
15898TIP3    H169185   4.610   3.862   2.535
15898TIP3    H269186   4.562   3.808   2.668
15899TIP3   OH269187   5.012   3.869   2.728
15899TIP3    H169188   5.028   3.861   2.634
15899TIP3    H269189   4.997   3.779   2.757
15900TIP3   OH269190   5.199   3.883   2.302
15900TIP3    H169191   5.123   3.939   2.318
15900TIP3    H269192   5.165   3.794   2.314
15901TIP3   OH269193   3.938   5.483   2.218
15901TIP3    H169194   3.862   5.454   2.167
15901TIP3    H269195   3.935   5.578   2.214
15902TIP3   OH269196   4.092   3.928   1.982
15902TIP3    H169197   4.153   3.888   1.919
15902TIP3    H269198   4.114   4.021   1.980
15903TIP3   OH269199   4.558   4.106   2.203
15903TIP3    H169200   4.567   4.013   2.221
15903TIP3    H269201   4.600   4.149   2.278
15904TIP3   OH269202   4.801   5.557   2.067
15904TIP3    H169203   4.895   5.567   2.059
15904TIP3    H269204   4.777   5.496   1.997
15905TIP3   OH269205   5.446   5.552   2.376
15905TIP3    H169206   5.494   5.469   2.373
15905TIP3    H269207   5.435   5.577   2.284
15906TIP3   OH269208   4.044   3.911   3.515
15906TIP3    H169209   3.986   3.838   3.539
15906TIP3    H269210   4.125   3.894   3.563
15907TIP3   OH269211   4.256   3.846   3.678
15907TIP3    H169212   4.339   3.816   3.640
15907TIP3    H269213   4.219   3.768   3.719
15908TIP3   OH269214   4.167   5.573   1.976
15908TIP3    H169215   4.109   5.528   2.038
15908TIP3    H269216   4.229   5.505   1.949
15909TIP3   OH269217   5.077   3.807   3.695
15909TIP3    H169218   5.071   3.756   3.776
15909TIP3    H269219   5.168   3.796   3.666
15910TIP3   OH269220   5.367   5.397   3.573
15910TIP3    H169221   5.308   5.397   3.497
15910TIP3    H269222   5.371   5.490   3.599
15911TIP3   OH269223   6.832   4.796   2.535
15911TIP3    H169224   6.811   4.889   2.534
15911TIP3    H269225   6.771   4.756   2.473
15912TIP3   OH269226   6.704   4.709   2.937
15912TIP3    H169227   6.732   4.666   3.018
15912TIP3    H269228   6.655   4.641   2.889
15913TIP3   OH269229   5.949   4.650   3.060
15913TIP3    H169230   5.965   4.580   3.124
15913TIP3    H269231   6.036   4.672   3.026
15914TIP3   OH269232   7.166   4.984   2.834
15914TIP3    H169233   7.087   4.933   2.850
15914TIP3    H269234   7.150   5.068   2.878
15915TIP3   OH269235   6.074   5.116   2.862
15915TIP3    H169236   6.045   5.029   2.834
15915TIP3    H269237   6.169   5.108   2.868
15916TIP3   OH269238   5.729   4.454   2.391
15916TIP3    H169239   5.698   4.538   2.427
15916TIP3    H269240   5.665   4.433   2.323
15917TIP3   OH269241   5.793   4.705   2.705
15917TIP3    H169242   5.827   4.616   2.718
15917TIP3    H269243   5.869   4.762   2.712
15918TIP3   OH269244   6.824   5.474   2.854
15918TIP3    H169245   6.846   5.428   2.772
15918TIP3    H269246   6.836   5.407   2.922
15919TIP3   OH269247   6.569   4.962   2.932
15919TIP3    H169248   6.604   4.877   2.907
15919TIP3    H269249   6.638   5.001   2.987
15920TIP3   OH269250   6.895   4.375   2.953
15920TIP3    H169251   6.900   4.280   2.966
15920TIP3    H269252   6.868   4.385   2.861
15921TIP3   OH269253   6.235   4.185   2.672
15921TIP3    H169254   6.238   4.271   2.630
15921TIP3    H269255   6.179   4.133   2.615
15922TIP3   OH269256   6.972   4.231   2.523
15922TIP3    H169257   7.014   4.191   2.600
15922TIP3    H269258   7.044   4.267   2.472
15923TIP3   OH269259   5.872   4.444   2.764
15923TIP3    H169260   5.939   4.402   2.818
15923TIP3    H269261   5.888   4.409   2.676
15924TIP3   OH269262   6.341   4.591   2.734
15924TIP3    H169263   6.426   4.555   2.759
15924TIP3    H269264   6.304   4.526   2.674
15925TIP3   OH269265   6.095   4.115   3.099
15925TIP3    H169266   6.077   4.172   3.024
15925TIP3    H269267   6.023   4.132   3.160
15926TIP3   OH269268   6.741   5.042   2.444
15926TIP3    H169269   6.758   5.055   2.351
15926TIP3    H269270   6.707   5.126   2.474
15927TIP3   OH269271   6.347   4.884   3.078
15927TIP3    H169272   6.296   4.956   3.114
15927TIP3    H269273   6.417   4.927   3.029
15928TIP3   OH269274   7.076   4.130   2.751
15928TIP3    H169275   7.009   4.110   2.815
15928TIP3    H269276   7.148   4.168   2.801
15929TIP3   OH269277   6.072   4.279   2.878
15929TIP3    H169278   6.128   4.337   2.929
15929TIP3    H269279   6.129   4.242   2.811
15930TIP3   OH269280   6.196   5.083   3.195
15930TIP3    H169281   6.207   5.178   3.186
15930TIP3    H269282   6.105   5.072   3.220
15931TIP3   OH269283   5.737   5.048   2.244
15931TIP3    H169284   5.743   5.087   2.157
15931TIP3    H269285   5.711   5.121   2.301
15932TIP3   OH269286   7.114   5.217   2.983
15932TIP3    H169287   7.021   5.231   2.999
15932TIP3    H269288   7.148   5.303   2.959
15933TIP3   OH269289   7.145   3.991   3.025
15933TIP3    H169290   7.052   4.014   3.021
15933TIP3    H269291   7.190   4.075   3.013
15934TIP3   OH269292   6.448   3.802   2.862
15934TIP3    H169293   6.425   3.709   2.865
15934TIP3    H269294   6.368   3.848   2.887
15935TIP3   OH269295   6.913   5.371   2.616
15935TIP3    H169296   6.936   5.286   2.577
15935TIP3    H269297   6.991   5.425   2.601
15936TIP3   OH269298   7.032   5.183   2.460
15936TIP3    H169299   7.025   5.101   2.412
15936TIP3    H269300   7.126   5.203   2.461
15937TIP3   OH269301   7.232   4.947   3.346
15937TIP3    H169302   7.225   4.896   3.265
15937TIP3    H269303   7.259   5.034   3.317
15938TIP3   OH269304   6.699   4.705   2.308
15938TIP3    H169305   6.634   4.771   2.284
15938TIP3    H269306   6.768   4.714   2.243
15939TIP3   OH269307   6.745   4.589   1.963
15939TIP3    H169308   6.798   4.611   2.040
15939TIP3    H269309   6.798   4.526   1.914
15940TIP3   OH269310   7.060   4.726   2.397
15940TIP3    H169311   6.990   4.751   2.458
15940TIP3    H269312   7.114   4.665   2.447
15941TIP3   OH269313   7.008   4.533   3.338
15941TIP3    H169314   6.994   4.602   3.403
15941TIP3    H269315   6.943   4.552   3.270
15942TIP3   OH269316   6.221   4.790   2.570
15942TIP3    H169317   6.194   4.749   2.488
15942TIP3    H269318   6.272   4.723   2.615
15943TIP3   OH269319   6.355   5.128   2.833
15943TIP3    H169320   6.353   5.144   2.739
15943TIP3    H269321   6.434   5.076   2.848
15944TIP3   OH269322   6.202   4.692   2.948
15944TIP3    H169323   6.256   4.666   2.874
15944TIP3    H269324   6.254   4.759   2.993
15945TIP3   OH269325   6.852   5.267   3.054
15945TIP3    H169326   6.860   5.286   3.147
15945TIP3    H269327   6.819   5.177   3.050
15946TIP3   OH269328   6.347   5.098   3.427
15946TIP3    H169329   6.286   5.158   3.470
15946TIP3    H269330   6.303   5.073   3.346
15947TIP3   OH269331   6.938   4.658   2.160
15947TIP3    H169332   6.984   4.691   2.237
15947TIP3    H269333   6.989   4.689   2.085
15948TIP3   OH269334   6.021   4.684   3.410
15948TIP3    H169335   6.036   4.771   3.446
15948TIP3    H269336   5.932   4.688   3.373
15949TIP3   OH269337   6.670   5.307   2.499
15949TIP3    H169338   6.745   5.334   2.552
15949TIP3    H269339   6.650   5.384   2.446
15950TIP3   OH269340   6.151   5.279   3.502
15950TIP3    H169341   6.156   5.313   3.413
15950TIP3    H269342   6.057   5.276   3.521
15951TIP3   OH269343   7.253   3.902   2.041
15951TIP3    H169344   7.195   3.892   2.116
15951TIP3    H269345   7.340   3.879   2.075
15952TIP3   OH269346   6.129   4.698   2.319
15952TIP3    H169347   6.070   4.766   2.289
15952TIP3    H269348   6.081   4.616   2.305
15953TIP3   OH269349   5.727   4.948   3.255
15953TIP3    H169350   5.678   4.955   3.173
15953TIP3    H269351   5.744   4.854   3.264
15954TIP3   OH269352   5.706   5.218   2.945
15954TIP3    H169353   5.800   5.225   2.965
15954TIP3    H269354   5.669   5.300   2.977
15955TIP3   OH269355   6.588   5.214   3.369
15955TIP3    H169356   6.580   5.300   3.411
15955TIP3    H269357   6.504   5.171   3.386
15956TIP3   OH269358   6.683   5.563   2.363
15956TIP3    H169359   6.657   5.571   2.271
15956TIP3    H269360   6.652   5.643   2.404
15957TIP3   OH269361   6.031   5.509   2.577
15957TIP3    H169362   6.040   5.469   2.663
15957TIP3    H269363   5.994   5.439   2.522
15958TIP3   OH269364   6.960   5.534   2.034
15958TIP3    H169365   7.008   5.462   1.995
15958TIP3    H269366   6.968   5.520   2.128
15959TIP3   OH269367   6.949   5.497   2.307
15959TIP3    H169368   6.858   5.504   2.338
15959TIP3    H269369   6.990   5.435   2.368
15960TIP3   OH269370   7.176   4.435   3.571
15960TIP3    H169371   7.156   4.481   3.490
15960TIP3    H269372   7.252   4.380   3.549
15961TIP3   OH269373   5.947   5.101   3.316
15961TIP3    H169374   5.974   5.061   3.398
15961TIP3    H269375   5.869   5.054   3.290
15962TIP3   OH269376   6.199   3.909   2.939
15962TIP3    H169377   6.122   3.895   2.884
15962TIP3    H269378   6.176   3.983   2.995
15963TIP3   OH269379   6.678   3.890   3.292
15963TIP3    H169380   6.723   3.841   3.361
15963TIP3    H269381   6.585   3.882   3.314
15964TIP3   OH269382   6.998   4.251   3.360
15964TIP3    H169383   6.933   4.237   3.429
15964TIP3    H269384   7.004   4.346   3.352
15965TIP3   OH269385   7.063   4.753   1.938
15965TIP3    H169386   7.048   4.752   1.844
15965TIP3    H269387   7.050   4.844   1.964
15966TIP3   OH269388   6.629   4.112   2.017
15966TIP3    H169389   6.570   4.112   2.092
15966TIP3    H269390   6.592   4.047   1.957
15967TIP3   OH269391   6.218   4.436   3.055
15967TIP3    H169392   6.156   4.435   3.128
15967TIP3    H269393   6.220   4.527   3.025
15968TIP3   OH269394   6.208   4.430   2.552
15968TIP3    H169395   6.113   4.419   2.548
15968TIP3    H269396   6.237   4.416   2.461
15969TIP3   OH269397   6.746   4.462   2.423
15969TIP3    H169398   6.724   4.548   2.387
15969TIP3    H269399   6.818   4.431   2.368
15970TIP3   OH269400   6.676   4.476   3.538
15970TIP3    H169401   6.627   4.404   3.578
15970TIP3    H269402   6.762   4.472   3.579
15971TIP3   OH269403   6.839   4.413   2.687
15971TIP3    H169404   6.798   4.472   2.623
15971TIP3    H269405   6.877   4.343   2.635
15972TIP3   OH269406   6.015   4.444   3.239
15972TIP3    H169407   6.014   4.493   3.321
15972TIP3    H269408   5.971   4.361   3.260
15973TIP3   OH269409   6.319   4.165   1.914
15973TIP3    H169410   6.284   4.154   2.003
15973TIP3    H269411   6.260   4.228   1.873
15974TIP3   OH269412   5.648   4.118   2.641
15974TIP3    H169413   5.713   4.134   2.710
15974TIP3    H269414   5.700   4.113   2.561
15975TIP3   OH269415   5.696   4.225   2.131
15975TIP3    H169416   5.764   4.266   2.077
15975TIP3    H269417   5.636   4.297   2.151
15976TIP3   OH269418   6.803   4.548   3.143
15976TIP3    H169419   6.842   4.489   3.079
15976TIP3    H269420   6.739   4.495   3.189
15977TIP3   OH269421   6.516   4.145   2.640
15977TIP3    H169422   6.425   4.150   2.668
15977TIP3    H269423   6.563   4.109   2.716
15978TIP3   OH269424   5.947   4.344   2.520
15978TIP3    H169425   5.874   4.372   2.465
15978TIP3    H269426   5.966   4.254   2.492
15979TIP3   OH269427   6.275   4.359   2.295
15979TIP3    H169428   6.369   4.352   2.311
15979TIP3    H269429   6.269   4.399   2.208
15980TIP3   OH269430   6.882   4.092   2.958
15980TIP3    H169431   6.848   4.104   3.046
15980TIP3    H269432   6.808   4.058   2.908
15981TIP3   OH269433   6.247   4.448   2.038
15981TIP3    H169434   6.195   4.424   1.961
15981TIP3    H269435   6.322   4.495   2.002
15982TIP3   OH269436   7.241   5.694   3.582
15982TIP3    H169437   7.245   5.766   3.519
15982TIP3    H269438   7.332   5.677   3.605
15983TIP3   OH269439   6.018   4.930   3.547
15983TIP3    H169440   6.085   4.928   3.615
15983TIP3    H269441   5.936   4.944   3.594
15984TIP3   OH269442   6.577   4.474   2.834
15984TIP3    H169443   6.650   4.427   2.792
15984TIP3    H269444   6.550   4.416   2.905
15985TIP3   OH269445   6.051   4.080   2.483
15985TIP3    H169446   5.997   4.006   2.510
15985TIP3    H269447   6.082   4.056   2.395
15986TIP3   OH269448   6.477   4.334   3.056
15986TIP3    H169449   6.393   4.380   3.064
15986TIP3    H269450   6.526   4.360   3.134
15987TIP3   OH269451   6.518   4.899   2.230
15987TIP3    H169452   6.444   4.868   2.177
15987TIP3    H269453   6.477   4.936   2.308
15988TIP3   OH269454   7.197   4.824   3.103
15988TIP3    H169455   7.267   4.812   3.039
15988TIP3    H269456   7.117   4.823   3.051
15989TIP3   OH269457   6.882   4.167   2.100
15989TIP3    H169458   6.790   4.166   2.074
15989TIP3    H269459   6.894   4.254   2.139
15990TIP3   OH269460   6.665   4.933   3.347
15990TIP3    H169461   6.708   4.904   3.428
15990TIP3    H269462   6.637   5.022   3.366
15991TIP3   OH269463   6.953   4.393   2.243
15991TIP3    H169464   7.040   4.374   2.278
15991TIP3    H269465   6.959   4.483   2.211
15992TIP3   OH269466   6.034   4.842   2.771
15992TIP3    H169467   6.093   4.839   2.695
15992TIP3    H269468   6.080   4.793   2.839
15993TIP3   OH269469   6.733   5.048   2.144
15993TIP3    H169470   6.701   5.137   2.155
15993TIP3    H269471   6.661   4.992   2.172
15994TIP3   OH269472   5.747   4.679   3.343
15994TIP3    H169473   5.721   4.636   3.424
15994TIP3    H269474   5.677   4.659   3.281
15995TIP3   OH269475   6.472   4.668   3.572
15995TIP3    H169476   6.404   4.630   3.518
15995TIP3    H269477   6.551   4.619   3.551
15996TIP3   OH269478   6.865   5.243   3.336
15996TIP3    H169479   6.770   5.229   3.336
15996TIP3    H269480   6.887   5.255   3.429
15997TIP3   OH269481   7.306   5.307   2.112
15997TIP3    H169482   7.295   5.294   2.206
15997TIP3    H269483   7.378   5.250   2.088
15998TIP3   OH269484   6.975   4.794   2.927
15998TIP3    H169485   6.881   4.778   2.916
15998TIP3    H269486   7.017   4.728   2.872
15999TIP3   OH269487   6.280   5.218   2.574
15999TIP3    H169488   6.308   5.305   2.544
15999TIP3    H269489   6.185   5.219   2.563
16000TIP3   OH269490   5.856   4.668   2.049
16000TIP3    H169491   5.901   4.737   2.098
16000TIP3    H269492   5.765   4.674   2.075
16001TIP3   OH269493   6.354   4.996   2.427
16001TIP3    H169494   6.345   5.076   2.478
16001TIP3    H269495   6.310   4.929   2.479
16002TIP3   OH269496   6.477   5.362   3.150
16002TIP3    H169497   6.535   5.431   3.119
16002TIP3    H269498   6.534   5.304   3.202
16003TIP3   OH269499   6.285   5.481   2.473
16003TIP3    H169500   6.195   5.497   2.501
16003TIP3    H269501   6.332   5.561   2.496
16004TIP3   OH269502   6.787   4.999   3.104
16004TIP3    H169503   6.750   4.969   3.187
16004TIP3    H269504   6.856   4.937   3.084
16005TIP3   OH269505   7.010   5.000   2.052
16005TIP3    H169506   7.055   4.998   2.136
16005TIP3    H269507   6.921   5.027   2.073
16006TIP3   OH269508   7.104   5.408   3.323
16006TIP3    H169509   7.018   5.368   3.314
16006TIP3    H269510   7.101   5.485   3.266
16007TIP3   OH269511   5.884   4.191   3.265
16007TIP3    H169512   5.797   4.228   3.248
16007TIP3    H269513   5.869   4.122   3.330
16008TIP3   OH269514   7.134   4.971   2.294
16008TIP3    H169515   7.119   4.886   2.335
16008TIP3    H269516   7.222   4.996   2.320
16009TIP3   OH269517   5.887   5.361   3.177
16009TIP3    H169518   5.914   5.283   3.225
16009TIP3    H269519   5.902   5.434   3.237
16010TIP3   OH269520   6.435   5.188   1.896
16010TIP3    H169521   6.446   5.103   1.852
16010TIP3    H269522   6.399   5.167   1.982
16011TIP3   OH269523   6.311   5.160   2.146
16011TIP3    H169524   6.331   5.110   2.225
16011TIP3    H269525   6.325   5.251   2.170
16012TIP3   OH269526   5.955   4.880   2.201
16012TIP3    H169527   5.880   4.926   2.238
16012TIP3    H269528   6.003   4.947   2.152
16013TIP3   OH269529   6.791   4.129   3.211
16013TIP3    H169530   6.863   4.151   3.271
16013TIP3    H269531   6.752   4.049   3.248
16014TIP3   OH269532   6.862   4.046   2.349
16014TIP3    H169533   6.867   4.086   2.263
16014TIP3    H269534   6.893   4.114   2.409
16015TIP3   OH269535   6.621   5.293   2.176
16015TIP3    H169536   6.533   5.319   2.203
16015TIP3    H269537   6.663   5.374   2.147
16016TIP3   OH269538   6.529   4.297   2.407
16016TIP3    H169539   6.602   4.358   2.412
16016TIP3    H269540   6.524   4.258   2.495
16017TIP3   OH269541   6.642   4.370   3.276
16017TIP3    H169542   6.651   4.399   3.367
16017TIP3    H269543   6.685   4.284   3.275
16018TIP3   OH269544   6.622   3.959   2.458
16018TIP3    H169545   6.596   4.031   2.517
16018TIP3    H269546   6.706   3.987   2.422
16019TIP3   OH269547   6.375   5.416   2.222
16019TIP3    H169548   6.378   5.500   2.176
16019TIP3    H269549   6.342   5.437   2.309
16020TIP3   OH269550   6.209   4.115   2.168
16020TIP3    H169551   6.203   4.200   2.212
16020TIP3    H269552   6.295   4.081   2.194
16021TIP3   OH269553   7.238   4.106   3.353
16021TIP3    H169554   7.153   4.149   3.345
16021TIP3    H269555   7.286   4.159   3.417
16022TIP3   OH269556   7.075   4.561   2.792
16022TIP3    H169557   6.992   4.517   2.771
16022TIP3    H269558   7.109   4.513   2.868
16023TIP3   OH269559   6.065   5.080   2.040
16023TIP3    H169560   6.138   5.125   2.082
16023TIP3    H269561   6.106   5.026   1.972
16024TIP3   OH269562   5.838   4.399   1.972
16024TIP3    H169563   5.862   4.483   2.012
16024TIP3    H269564   5.800   4.423   1.888
16025TIP3   OH269565   7.213   5.473   2.945
16025TIP3    H169566   7.212   5.541   2.877
16025TIP3    H269567   7.297   5.429   2.933
16026TIP3   OH269568   5.944   3.879   2.830
16026TIP3    H169569   5.932   3.870   2.735
16026TIP3    H269570   5.907   3.798   2.866
16027TIP3   OH269571   5.953   5.310   2.409
16027TIP3    H169572   5.861   5.290   2.422
16027TIP3    H269573   5.957   5.353   2.323
16028TIP3   OH269574   5.814   5.572   3.619
16028TIP3    H169575   5.879   5.553   3.686
16028TIP3    H269576   5.793   5.487   3.580
16029TIP3   OH269577   6.228   5.380   3.747
16029TIP3    H169578   6.303   5.326   3.771
16029TIP3    H269579   6.204   5.350   3.659
16030TIP3   OH269580   6.645   5.368   1.864
16030TIP3    H169581   6.579   5.301   1.881
16030TIP3    H269582   6.723   5.319   1.839
16031TIP3   OH269583   6.909   5.261   3.603
16031TIP3    H169584   6.871   5.181   3.639
16031TIP3    H269585   6.990   5.273   3.653
16032TIP3   OH269586   7.116   5.339   1.918
16032TIP3    H169587   7.179   5.335   1.990
16032TIP3    H269588   7.168   5.363   1.841
16033TIP3   OH269589   5.769   4.937   3.674
16033TIP3    H169590   5.769   4.841   3.669
16033TIP3    H269591   5.697   4.964   3.617
16034TIP3   OH269592   6.199   4.904   1.877
16034TIP3    H169593   6.223   4.857   1.957
16034TIP3    H269594   6.282   4.921   1.833
16035TIP3   OH269595   6.438   4.947   3.639
16035TIP3    H169596   6.417   4.989   3.555
16035TIP3    H269597   6.470   4.860   3.615
16036TIP3   OH269598   6.755   5.053   1.866
16036TIP3    H169599   6.737   5.045   1.960
16036TIP3    H269600   6.747   4.964   1.832
16037TIP3   OH269601   6.966   4.978   3.404
16037TIP3    H169602   7.060   4.976   3.386
16037TIP3    H269603   6.936   5.060   3.365
16038TIP3   OH269604   5.839   4.662   3.653
16038TIP3    H169605   5.925   4.654   3.612
16038TIP3    H269606   5.858   4.664   3.747
16039TIP3   OH269607   6.301   4.777   2.103
16039TIP3    H169608   6.252   4.739   2.176
16039TIP3    H269609   6.349   4.703   2.066
16040TIP3   OH269610   6.278   4.555   3.396
16040TIP3    H169611   6.198   4.606   3.395
16040TIP3    H269612   6.332   4.594   3.327
16041TIP3   OH269613   6.461   4.600   1.955
16041TIP3    H169614   6.455   4.631   1.864
16041TIP3    H269615   6.555   4.591   1.971
16042TIP3   OH269616   6.762   4.807   3.661
16042TIP3    H169617   6.841   4.773   3.618
16042TIP3    H269618   6.740   4.740   3.726
16043TIP3   OH269619   6.302   4.289   3.465
16043TIP3    H169620   6.317   4.234   3.387
16043TIP3    H269621   6.301   4.379   3.431
16044TIP3   OH269622   6.340   4.140   3.222
16044TIP3    H169623   6.396   4.187   3.160
16044TIP3    H269624   6.255   4.135   3.178
16045TIP3   OH269625   6.452   4.676   3.224
16045TIP3    H169626   6.539   4.705   3.249
16045TIP3    H269627   6.417   4.749   3.172
16046TIP3   OH269628   6.915   4.426   3.689
16046TIP3    H169629   6.918   4.332   3.708
16046TIP3    H269630   7.003   4.446   3.655
16047TIP3   OH269631   7.002   4.738   3.532
16047TIP3    H169632   6.980   4.820   3.487
16047TIP3    H269633   7.097   4.741   3.541
16048TIP3   OH269634   6.145   4.364   3.684
16048TIP3    H169635   6.062   4.317   3.675
16048TIP3    H269636   6.191   4.348   3.602
16049TIP3   OH269637   6.397   3.875   3.287
16049TIP3    H169638   6.378   3.967   3.266
16049TIP3    H269639   6.329   3.825   3.243
16050TIP3   OH269640   6.537   4.256   3.624
16050TIP3    H169641   6.518   4.228   3.714
16050TIP3    H269642   6.452   4.255   3.581
16051TIP3   OH269643   6.792   4.186   3.529
16051TIP3    H169644   6.703   4.197   3.561
16051TIP3    H269645   6.838   4.142   3.600
16052TIP3   OH269646   6.949   4.091   3.736
16052TIP3    H169647   6.947   3.996   3.729
16052TIP3    H269648   6.928   4.109   3.827
16053TIP3   OH269649   5.948   4.158   3.658
16053TIP3    H169650   6.009   4.095   3.619
16053TIP3    H269651   5.942   4.132   3.750
16054TIP3   OH269652   6.380   3.794   3.548
16054TIP3    H169653   6.436   3.716   3.546
16054TIP3    H269654   6.382   3.827   3.458
16055TIP3   OH269655   6.462   3.945   3.763
16055TIP3    H169656   6.441   3.893   3.685
16055TIP3    H269657   6.399   4.017   3.761
16056TIP3   OH269658   6.442   5.660   2.100
16056TIP3    H169659   6.530   5.624   2.088
16056TIP3    H269660   6.433   5.724   2.029
16057TIP3   OH269661   5.805   5.139   1.971
16057TIP3    H169662   5.895   5.129   2.002
16057TIP3    H269663   5.792   5.063   1.913
16058TIP3   OH269664   5.653   5.641   2.545
16058TIP3    H169665   5.598   5.609   2.474
16058TIP3    H269666   5.673   5.563   2.597
16059TIP3   OH269667   5.690   5.403   2.677
16059TIP3    H169668   5.673   5.360   2.594
16059TIP3    H269669   5.687   5.333   2.742
16060TIP3   OH269670   7.239   5.037   3.785
16060TIP3    H169671   7.156   5.048   3.832
16060TIP3    H269672   7.302   5.089   3.835
16061TIP3   OH269673   7.254   5.192   3.226
16061TIP3    H169674   7.220   5.273   3.263
16061TIP3    H269675   7.218   5.189   3.137
16062TIP3   OH269676   7.304   4.374   1.938
16062TIP3    H169677   7.256   4.431   1.878
16062TIP3    H269678   7.279   4.285   1.911
16063TIP3   OH269679   7.198   4.536   2.542
16063TIP3    H169680   7.212   4.441   2.544
16063TIP3    H269681   7.170   4.557   2.631
16064TIP3   OH269682   5.706   4.713   2.962
16064TIP3    H169683   5.722   4.719   2.868
16064TIP3    H269684   5.792   4.699   3.001
16065TIP3   OH269685   7.269   4.772   3.557
16065TIP3    H169686   7.357   4.735   3.563
16065TIP3    H269687   7.276   4.837   3.487
16066TIP3   OH269688   7.233   4.118   1.855
16066TIP3    H169689   7.249   4.053   1.924
16066TIP3    H269690   7.138   4.114   1.841
16067TIP3   OH269691   7.193   4.291   2.364
16067TIP3    H169692   7.215   4.204   2.400
16067TIP3    H269693   7.270   4.316   2.313
16068TIP3   OH269694   7.263   4.224   2.934
16068TIP3    H169695   7.351   4.195   2.911
16068TIP3    H269696   7.274   4.317   2.957
16069TIP3   OH269697   7.277   4.492   3.252
16069TIP3    H169698   7.184   4.510   3.261
16069TIP3    H269699   7.292   4.483   3.158
16070TIP3   OH269700   5.724   4.282   3.545
16070TIP3    H169701   5.805   4.250   3.585
16070TIP3    H269702   5.665   4.207   3.545
16071TIP3   OH269703   7.220   4.025   2.452
16071TIP3    H169704   7.183   4.017   2.540
16071TIP3    H269705   7.167   3.966   2.399
16072TIP3   OH269706   5.825   4.127   2.863
16072TIP3    H169707   5.863   4.040   2.858
16072TIP3    H269708   5.900   4.186   2.868
16073TIP3   OH269709   5.634   4.435   2.917
16073TIP3    H169710   5.706   4.416   2.857
16073TIP3    H269711   5.651   4.524   2.947
16074TIP3   OH269712   5.690   4.054   2.345
16074TIP3    H169713   5.595   4.046   2.357
16074TIP3    H269714   5.700   4.120   2.276
16075TIP3   OH269715   7.148   5.486   2.543
16075TIP3    H169716   7.200   5.416   2.503
16075TIP3    H269717   7.198   5.512   2.620
16076TIP3   OH269718   5.677   3.918   3.246
16076TIP3    H169719   5.617   3.852   3.212
16076TIP3    H269720   5.667   3.993   3.187
16077TIP3   OH269721   5.886   5.273   3.599
16077TIP3    H169722   5.797   5.274   3.563
16077TIP3    H269723   5.875   5.245   3.690
16078TIP3   OH269724   6.220   5.355   3.241
16078TIP3    H169725   6.185   5.437   3.207
16078TIP3    H269726   6.313   5.357   3.219
16079TIP3   OH269727   6.579   5.455   3.504
16079TIP3    H169728   6.595   5.411   3.588
16079TIP3    H269729   6.659   5.505   3.488
16080TIP3   OH269730   6.835   5.574   3.510
16080TIP3    H169731   6.844   5.553   3.417
16080TIP3    H269732   6.912   5.627   3.531
16081TIP3   OH269733   5.915   5.640   3.269
16081TIP3    H169734   5.837   5.681   3.231
16081TIP3    H269735   5.934   5.693   3.347
16082TIP3   OH269736   6.158   5.602   3.148
16082TIP3    H169737   6.070   5.619   3.181
16082TIP3    H269738   6.164   5.654   3.067
16083TIP3   OH269739   6.637   5.555   3.045
16083TIP3    H169740   6.679   5.539   2.960
16083TIP3    H269741   6.616   5.648   3.044
16084TIP3   OH269742   6.832   5.551   3.241
16084TIP3    H169743   6.764   5.547   3.174
16084TIP3    H269744   6.910   5.579   3.194
16085TIP3   OH269745   7.076   5.617   3.135
16085TIP3    H169746   7.095   5.709   3.114
16085TIP3    H269747   7.124   5.567   3.069
16086TIP3   OH269748   5.883   5.524   2.953
16086TIP3    H169749   5.889   5.475   3.034
16086TIP3    H269750   5.944   5.480   2.893
16087TIP3   OH269751   6.078   5.387   2.818
16087TIP3    H169752   6.065   5.293   2.832
16087TIP3    H269753   6.166   5.404   2.850
16088TIP3   OH269754   6.340   5.398   2.909
16088TIP3    H169755   6.351   5.308   2.876
16088TIP3    H269756   6.380   5.396   2.996
16089TIP3   OH269757   6.669   3.979   2.811
16089TIP3    H169758   6.601   3.914   2.832
16089TIP3    H269759   6.739   3.928   2.770
16090TIP3   OH269760   7.154   3.832   2.793
16090TIP3    H169761   7.173   3.896   2.861
16090TIP3    H269762   7.064   3.851   2.766
16091TIP3   OH269763   5.906   3.855   2.556
16091TIP3    H169764   5.814   3.835   2.536
16091TIP3    H269765   5.952   3.772   2.545
16092TIP3   OH269766   5.820   3.869   2.163
16092TIP3    H169767   5.873   3.927   2.109
16092TIP3    H269768   5.782   3.927   2.230
16093TIP3   OH269769   6.417   3.805   2.578
16093TIP3    H169770   6.484   3.861   2.538
16093TIP3    H269771   6.433   3.812   2.672
16094TIP3   OH269772   6.886   3.840   2.703
16094TIP3    H169773   6.876   3.822   2.610
16094TIP3    H269774   6.868   3.756   2.745
16095TIP3   OH269775   7.069   3.866   2.285
16095TIP3    H169776   6.992   3.921   2.294
16095TIP3    H269777   7.036   3.776   2.295
16096TIP3   OH269778   5.868   5.462   2.184
16096TIP3    H169779   5.790   5.420   2.219
16096TIP3    H269780   5.848   5.556   2.184
16097TIP3   OH269781   6.010   4.012   1.995
16097TIP3    H169782   6.059   3.949   1.942
16097TIP3    H269783   6.074   4.046   2.058
16098TIP3   OH269784   6.473   4.085   2.244
16098TIP3    H169785   6.504   4.011   2.296
16098TIP3    H269786   6.492   4.162   2.298
16099TIP3   OH269787   6.688   5.544   2.068
16099TIP3    H169788   6.782   5.561   2.058
16099TIP3    H269789   6.664   5.493   1.990
16100TIP3   OH269790   5.910   3.866   3.500
16100TIP3    H169791   5.880   3.780   3.530
16100TIP3    H269792   5.992   3.880   3.548
16101TIP3   OH269793   6.133   3.847   3.668
16101TIP3    H169794   6.220   3.836   3.630
16101TIP3    H269795   6.113   3.763   3.709
16102TIP3   OH269796   5.998   5.511   1.937
16102TIP3    H169797   5.962   5.485   2.022
16102TIP3    H269798   6.075   5.455   1.926
16103TIP3   OH269799   6.964   3.815   3.707
16103TIP3    H169800   6.957   3.765   3.788
16103TIP3    H269801   7.056   3.807   3.682
16104TIP3   OH269802   7.223   5.409   3.576
16104TIP3    H169803   7.191   5.394   3.487
16104TIP3    H269804   7.238   5.503   3.580
16105TIP3   OH269805   1.193   6.677   2.539
16105TIP3    H169806   1.187   6.771   2.523
16105TIP3    H269807   1.117   6.641   2.492
16106TIP3   OH269808   1.060   6.596   2.921
16106TIP3    H169809   1.088   6.559   3.005
16106TIP3    H269810   1.018   6.523   2.875
16107TIP3   OH269811   0.291   6.523   3.047
16107TIP3    H169812   0.296   6.457   3.116
16107TIP3    H269813   0.382   6.549   3.033
16108TIP3   OH269814   1.467   6.907   2.748
16108TIP3    H169815   1.433   6.831   2.795
16108TIP3    H269816   1.477   6.974   2.816
16109TIP3   OH269817   0.385   6.983   2.850
16109TIP3    H169818   0.361   6.896   2.819
16109TIP3    H269819   0.473   6.972   2.886
16110TIP3   OH269820   0.119   6.411   2.443
16110TIP3    H169821   0.136   6.480   2.507
16110TIP3    H269822   0.025   6.392   2.454
16111TIP3   OH269823   0.169   6.573   2.670
16111TIP3    H169824   0.185   6.491   2.717
16111TIP3    H269825   0.243   6.629   2.694
16112TIP3   OH269826   0.921   6.834   2.960
16112TIP3    H169827   0.962   6.755   2.925
16112TIP3    H269828   0.986   6.870   3.021
16113TIP3   OH269829   1.807   5.989   3.050
16113TIP3    H169830   1.821   6.056   3.116
16113TIP3    H269831   1.845   6.025   2.970
16114TIP3   OH269832   1.227   6.269   2.943
16114TIP3    H169833   1.238   6.175   2.963
16114TIP3    H269834   1.207   6.271   2.850
16115TIP3   OH269835   0.589   6.077   2.680
16115TIP3    H169836   0.598   6.165   2.643
16115TIP3    H269837   0.536   6.030   2.615
16116TIP3   OH269838   1.359   6.109   2.535
16116TIP3    H169839   1.399   6.076   2.615
16116TIP3    H269840   1.432   6.147   2.485
16117TIP3   OH269841   0.212   6.327   2.786
16117TIP3    H169842   0.282   6.292   2.842
16117TIP3    H269843   0.230   6.291   2.700
16118TIP3   OH269844   0.703   6.484   2.743
16118TIP3    H169845   0.788   6.449   2.770
16118TIP3    H269846   0.667   6.419   2.684
16119TIP3   OH269847   1.847   6.163   3.263
16119TIP3    H169848   1.767   6.212   3.246
16119TIP3    H269849   1.862   6.174   3.357
16120TIP3   OH269850   0.433   5.997   3.117
16120TIP3    H169851   0.403   6.052   3.045
16120TIP3    H269852   0.366   6.008   3.185
16121TIP3   OH269853   1.171   6.928   2.424
16121TIP3    H169854   1.146   6.933   2.332
16121TIP3    H269855   1.132   7.006   2.464
16122TIP3   OH269856   0.704   6.751   3.110
16122TIP3    H169857   0.652   6.826   3.138
16122TIP3    H269858   0.778   6.789   3.062
16123TIP3   OH269859   1.448   6.045   2.785
16123TIP3    H169860   1.378   6.021   2.845
16123TIP3    H269861   1.502   6.107   2.834
16124TIP3   OH269862   0.414   6.155   2.884
16124TIP3    H169863   0.472   6.212   2.934
16124TIP3    H269864   0.471   6.116   2.818
16125TIP3   OH269865   0.553   6.972   3.191
16125TIP3    H169866   0.559   7.067   3.180
16125TIP3    H269867   0.464   6.958   3.224
16126TIP3   OH269868   0.101   6.887   2.272
16126TIP3    H169869   0.116   6.942   2.195
16126TIP3    H269870   0.126   6.943   2.346
16127TIP3   OH269871   1.482   7.125   2.927
16127TIP3    H169872   1.397   7.128   2.970
16127TIP3    H269873   1.487   7.207   2.877
16128TIP3   OH269874   1.560   5.879   3.134
16128TIP3    H169875   1.490   5.924   3.086
16128TIP3    H269876   1.641   5.909   3.092
16129TIP3   OH269877   0.786   5.682   2.871
16129TIP3    H169878   0.758   5.590   2.870
16129TIP3    H269879   0.708   5.731   2.897
16130TIP3   OH269880   1.342   7.254   2.585
16130TIP3    H169881   1.375   7.173   2.545
16130TIP3    H269882   1.406   7.276   2.652
16131TIP3   OH269883   1.431   7.008   2.495
16131TIP3    H169884   1.350   6.963   2.468
16131TIP3    H269885   1.456   6.966   2.577
16132TIP3   OH269886   1.614   6.893   3.300
16132TIP3    H169887   1.605   6.831   3.227
16132TIP3    H269888   1.617   6.979   3.259
16133TIP3   OH269889   1.029   6.601   2.322
16133TIP3    H169890   0.967   6.668   2.294
16133TIP3    H269891   1.103   6.609   2.262
16134TIP3   OH269892   1.071   6.461   1.995
16134TIP3    H169893   1.119   6.503   2.067
16134TIP3    H269894   1.122   6.381   1.976
16135TIP3   OH269895   1.771   6.548   3.143
16135TIP3    H169896   1.696   6.606   3.137
16135TIP3    H269897   1.828   6.574   3.071
16136TIP3   OH269898   1.411   6.604   2.392
16136TIP3    H169899   1.344   6.627   2.456
16136TIP3    H269900   1.477   6.557   2.443
16137TIP3   OH269901   1.371   6.407   3.284
16137TIP3    H169902   1.381   6.467   3.358
16137TIP3    H269903   1.296   6.441   3.236
16138TIP3   OH269904   0.575   6.668   2.574
16138TIP3    H169905   0.551   6.622   2.493
16138TIP3    H269906   0.627   6.605   2.623
16139TIP3   OH269907   0.693   6.955   2.839
16139TIP3    H169908   0.708   6.966   2.745
16139TIP3    H269909   0.772   6.913   2.871
16140TIP3   OH269910   0.553   6.582   2.955
16140TIP3    H169911   0.612   6.558   2.883
16140TIP3    H269912   0.606   6.641   3.010
16141TIP3   OH269913   1.253   7.114   3.079
16141TIP3    H169914   1.245   7.145   3.169
16141TIP3    H269915   1.204   7.032   3.077
16142TIP3   OH269916   0.713   6.986   3.417
16142TIP3    H169917   0.650   7.042   3.462
16142TIP3    H269918   0.669   6.960   3.336
16143TIP3   OH269919   1.254   6.589   2.165
16143TIP3    H169920   1.309   6.590   2.243
16143TIP3    H269921   1.316   6.588   2.092
16144TIP3   OH269922   0.409   6.616   3.388
16144TIP3    H169923   0.402   6.695   3.441
16144TIP3    H269924   0.321   6.599   3.357
16145TIP3   OH269925   1.086   7.175   2.505
16145TIP3    H169926   1.167   7.211   2.542
16145TIP3    H269927   1.049   7.246   2.454
16146TIP3   OH269928   0.511   7.162   3.486
16146TIP3    H169929   0.512   7.204   3.400
16146TIP3    H269930   0.420   7.167   3.514
16147TIP3   OH269931   1.637   5.689   2.152
16147TIP3    H169932   1.554   5.715   2.192
16147TIP3    H269933   1.676   5.771   2.121
16148TIP3   OH269934   0.489   6.568   2.322
16148TIP3    H169935   0.422   6.625   2.284
16148TIP3    H269936   0.448   6.482   2.324
16149TIP3   OH269937   1.775   7.139   1.991
16149TIP3    H169938   1.781   7.233   1.974
16149TIP3    H269939   1.867   7.110   1.992
16150TIP3   OH269940   0.120   6.786   3.231
16150TIP3    H169941   0.042   6.782   3.175
16150TIP3    H269942   0.134   6.696   3.260
16151TIP3   OH269943   0.141   7.131   2.909
16151TIP3    H169944   0.213   7.068   2.912
16151TIP3    H269945   0.098   7.122   2.993
16152TIP3   OH269946   1.874   7.173   3.525
16152TIP3    H169947   1.860   7.078   3.525
16152TIP3    H269948   1.786   7.210   3.520
16153TIP3   OH269949   0.934   7.156   3.406
16153TIP3    H169950   0.952   7.157   3.500
16153TIP3    H269951   0.865   7.091   3.396
16154TIP3   OH269952   1.583   6.309   3.550
16154TIP3    H169953   1.514   6.371   3.527
16154TIP3    H269954   1.562   6.230   3.501
16155TIP3   OH269955   0.301   6.978   3.306
16155TIP3    H169956   0.319   6.952   3.396
16155TIP3    H269957   0.234   6.916   3.276
16156TIP3   OH269958   0.542   5.799   2.951
16156TIP3    H169959   0.467   5.792   2.892
16156TIP3    H269960   0.519   5.870   3.011
16157TIP3   OH269961   1.018   5.766   3.292
16157TIP3    H169962   1.065   5.723   3.365
16157TIP3    H269963   0.926   5.759   3.317
16158TIP3   OH269964   1.317   6.145   3.367
16158TIP3    H169965   1.249   6.136   3.434
16158TIP3    H269966   1.315   6.239   3.344
16159TIP3   OH269967   1.421   6.585   1.947
16159TIP3    H169968   1.410   6.525   1.873
16159TIP3    H269969   1.515   6.601   1.952
16160TIP3   OH269970   0.969   5.991   2.019
16160TIP3    H169971   0.912   5.989   2.096
16160TIP3    H269972   0.930   5.928   1.959
16161TIP3   OH269973   0.564   6.319   3.042
16161TIP3    H169974   0.503   6.315   3.115
16161TIP3    H269975   0.564   6.412   3.017
16162TIP3   OH269976   0.581   6.324   2.557
16162TIP3    H169977   0.486   6.312   2.560
16162TIP3    H269978   0.605   6.304   2.467
16163TIP3   OH269979   1.100   6.350   2.417
16163TIP3    H169980   1.071   6.437   2.388
16163TIP3    H269981   1.172   6.328   2.358
16164TIP3   OH269982   1.038   6.338   3.494
16164TIP3    H169983   0.994   6.278   3.554
16164TIP3    H269984   1.061   6.414   3.548
16165TIP3   OH269985   1.186   6.279   2.673
16165TIP3    H169986   1.147   6.326   2.599
16165TIP3    H269987   1.239   6.210   2.633
16166TIP3   OH269988   0.354   6.299   3.223
16166TIP3    H169989   0.416   6.331   3.288
16166TIP3    H269990   0.315   6.221   3.262
16167TIP3   OH269991   0.657   6.053   1.917
16167TIP3    H169992   0.625   6.041   2.007
16167TIP3    H269993   0.601   6.120   1.880
16168TIP3   OH269994   0.066   6.092   2.591
16168TIP3    H169995   0.095   6.071   2.680
16168TIP3    H269996   0.113   6.030   2.536
16169TIP3   OH269997   0.066   6.185   2.180
16169TIP3    H169998   0.154   6.214   2.156
16169TIP3    H269999   0.013   6.202   2.103
16170TIP3   OH270000   1.133   6.437   3.135
16170TIP3    H170001   1.174   6.382   3.068
16170TIP3    H270002   1.074   6.378   3.182
16171TIP3   OH270003   0.867   6.035   2.639
16171TIP3    H170004   0.778   6.040   2.672
16171TIP3    H270005   0.918   6.000   2.713
16172TIP3   OH270006   0.323   6.246   2.540
16172TIP3    H170007   0.247   6.278   2.490
16172TIP3    H270008   0.336   6.157   2.508
16173TIP3   OH270009   0.622   6.248   2.295
16173TIP3    H170010   0.717   6.240   2.309
16173TIP3    H270011   0.614   6.288   2.209
16174TIP3   OH270012   1.237   5.992   2.959
16174TIP3    H170013   1.202   5.992   3.048
16174TIP3    H270014   1.167   5.953   2.906
16175TIP3   OH270015   0.579   6.340   2.040
16175TIP3    H170016   0.526   6.314   1.965
16175TIP3    H270017   0.655   6.384   2.002
16176TIP3   OH270018   0.362   6.834   3.557
16176TIP3    H170019   0.426   6.828   3.628
16176TIP3    H270020   0.277   6.829   3.601
16177TIP3   OH270021   0.934   6.357   2.827
16177TIP3    H170022   1.005   6.309   2.784
16177TIP3    H270023   0.902   6.296   2.894
16178TIP3   OH270024   0.419   5.988   2.474
16178TIP3    H170025   0.369   5.911   2.503
16178TIP3    H270026   0.444   5.968   2.384
16179TIP3   OH270027   0.816   6.206   3.033
16179TIP3    H170028   0.733   6.252   3.044
16179TIP3    H270029   0.866   6.228   3.111
16180TIP3   OH270030   0.858   6.805   2.229
16180TIP3    H170031   0.789   6.759   2.181
16180TIP3    H270032   0.818   6.826   2.314
16181TIP3   OH270033   1.584   6.735   3.075
16181TIP3    H170034   1.638   6.795   3.024
16181TIP3    H270035   1.506   6.720   3.021
16182TIP3   OH270036   1.212   6.036   2.130
16182TIP3    H170037   1.125   6.031   2.090
16182TIP3    H270038   1.224   6.128   2.152
16183TIP3   OH270039   1.003   6.824   3.404
16183TIP3    H170040   1.083   6.807   3.455
16183TIP3    H270041   0.936   6.842   3.470
16184TIP3   OH270042   1.305   6.280   2.239
16184TIP3    H170043   1.392   6.267   2.277
16184TIP3    H270044   1.322   6.308   2.149
16185TIP3   OH270045   0.385   6.715   2.770
16185TIP3    H170046   0.449   6.712   2.698
16185TIP3    H270047   0.428   6.670   2.842
16186TIP3   OH270048   1.077   6.953   2.150
16186TIP3    H170049   1.048   7.043   2.167
16186TIP3    H270050   1.002   6.899   2.175
16187TIP3   OH270051   0.147   6.535   3.345
16187TIP3    H170052   0.154   6.509   3.437
16187TIP3    H270053   0.078   6.478   3.309
16188TIP3   OH270054   0.798   6.548   3.555
16188TIP3    H170055   0.796   6.531   3.461
16188TIP3    H270056   0.891   6.552   3.576
16189TIP3   OH270057   1.202   7.181   3.347
16189TIP3    H170058   1.109   7.159   3.350
16189TIP3    H270059   1.237   7.150   3.431
16190TIP3   OH270060   1.758   6.319   2.187
16190TIP3    H170061   1.720   6.297   2.102
16190TIP3    H270062   1.783   6.411   2.179
16191TIP3   OH270063   1.821   6.890   3.476
16191TIP3    H170064   1.734   6.904   3.438
16191TIP3    H270065   1.879   6.881   3.400
16192TIP3   OH270066   1.523   7.168   2.285
16192TIP3    H170067   1.501   7.103   2.351
16192TIP3    H270068   1.590   7.125   2.231
16193TIP3   OH270069   1.376   6.678   2.890
16193TIP3    H170070   1.280   6.674   2.899
16193TIP3    H270071   1.400   6.597   2.846
16194TIP3   OH270072   0.613   7.091   2.574
16194TIP3    H170073   0.620   7.171   2.521
16194TIP3    H270074   0.536   7.105   2.629
16195TIP3   OH270075   0.173   6.585   2.004
16195TIP3    H170076   0.237   6.629   2.060
16195TIP3    H270077   0.097   6.572   2.059
16196TIP3   OH270078   0.712   6.871   2.446
16196TIP3    H170079   0.685   6.952   2.489
16196TIP3    H270080   0.667   6.802   2.494
16197TIP3   OH270081   0.850   7.268   3.096
16197TIP3    H170082   0.826   7.323   3.170
16197TIP3    H270083   0.915   7.207   3.132
16198TIP3   OH270084   0.581  -0.003   2.434
16198TIP3    H170085   0.494   0.021   2.466
16198TIP3    H270086   0.642   0.041   2.493
16199TIP3   OH270087   1.112   6.883   3.158
16199TIP3    H170088   1.057   6.867   3.234
16199TIP3    H270089   1.200   6.858   3.186
16200TIP3   OH270090   1.344   6.910   2.065
16200TIP3    H170091   1.404   6.881   2.134
16200TIP3    H270092   1.266   6.939   2.111
16201TIP3   OH270093   1.439   7.316   3.308
16201TIP3    H170094   1.358   7.266   3.321
16201TIP3    H270095   1.410   7.404   3.286
16202TIP3   OH270096   0.256   6.049   3.334
16202TIP3    H170097   0.174   6.080   3.372
16202TIP3    H270098   0.273   5.966   3.378
16203TIP3   OH270099   1.519   6.809   2.242
16203TIP3    H170100   1.481   6.742   2.300
16203TIP3    H270101   1.613   6.806   2.261
16204TIP3   OH270102   0.262   7.244   3.179
16204TIP3    H170103   0.247   7.160   3.222
16204TIP3    H270104   0.179   7.291   3.187
16205TIP3   OH270105   0.800   7.054   1.879
16205TIP3    H170106   0.801   6.971   1.830
16205TIP3    H270107   0.765   7.030   1.965
16206TIP3   OH270108   0.683   7.032   2.129
16206TIP3    H170109   0.726   6.978   2.195
16206TIP3    H270110   0.697   7.122   2.159
16207TIP3   OH270111   0.314   6.737   2.184
16207TIP3    H170112   0.242   6.775   2.235
16207TIP3    H270113   0.363   6.812   2.151
16208TIP3   OH270114   1.133   6.003   3.211
16208TIP3    H170115   1.197   6.029   3.277
16208TIP3    H270116   1.093   5.923   3.246
16209TIP3   OH270117   1.214   5.932   2.382
16209TIP3    H170118   1.212   5.971   2.294
16209TIP3    H270119   1.256   5.998   2.437
16210TIP3   OH270120   0.978   7.205   2.184
16210TIP3    H170121   0.891   7.243   2.202
16210TIP3    H270122   0.999   7.236   2.096
16211TIP3   OH270123   0.877   6.187   2.405
16211TIP3    H170124   0.953   6.245   2.409
16211TIP3    H270125   0.873   6.147   2.492
16212TIP3   OH270126   0.980   6.239   3.249
16212TIP3    H170127   0.995   6.269   3.338
16212TIP3    H270128   1.026   6.154   3.244
16213TIP3   OH270129   0.967   5.844   2.462
16213TIP3    H170130   0.941   5.914   2.521
16213TIP3    H270131   1.057   5.866   2.436
16214TIP3   OH270132   0.715   7.295   2.201
16214TIP3    H170133   0.693   7.372   2.149
16214TIP3    H270134   0.668   7.307   2.284
16215TIP3   OH270135   0.558   6.001   2.175
16215TIP3    H170136   0.554   6.086   2.218
16215TIP3    H270137   0.643   5.965   2.200
16216TIP3   OH270138   1.570   6.051   3.380
16216TIP3    H170139   1.478   6.077   3.382
16216TIP3    H270140   1.580   6.006   3.296
16217TIP3   OH270141   1.437   6.421   2.774
16217TIP3    H170142   1.349   6.385   2.763
16217TIP3    H270143   1.479   6.362   2.836
16218TIP3   OH270144   0.420   6.968   2.056
16218TIP3    H170145   0.498   7.006   2.097
16218TIP3    H270146   0.455   6.915   1.984
16219TIP3   OH270147   0.231   6.307   1.982
16219TIP3    H170148   0.233   6.401   2.001
16219TIP3    H270149   0.141   6.290   1.954
16220TIP3   OH270150   0.297   5.790   2.823
16220TIP3    H170151   0.293   5.774   2.729
16220TIP3    H270152   0.274   5.706   2.863
16221TIP3   OH270153   0.165   7.070   2.463
16221TIP3    H170154   0.144   7.075   2.557
16221TIP3    H270155   0.164   7.162   2.434
16222TIP3   OH270156   0.513   7.213   3.773
16222TIP3    H170157   0.592   7.196   3.824
16222TIP3    H270158   0.533   7.179   3.686
16223TIP3   OH270159   1.004   7.242   1.913
16223TIP3    H170160   0.937   7.178   1.889
16223TIP3    H270161   1.077   7.224   1.853
16224TIP3   OH270162   1.289   7.102   3.594
16224TIP3    H170163   1.286   7.007   3.599
16224TIP3    H270164   1.357   7.128   3.656
16225TIP3   OH270165   1.453   7.207   1.891
16225TIP3    H170166   1.493   7.259   1.962
16225TIP3    H270167   1.520   7.203   1.823
16226TIP3   OH270168   0.130   6.801   3.705
16226TIP3    H170169   0.146   6.727   3.764
16226TIP3    H270170   0.035   6.814   3.708
16227TIP3   OH270171   0.549   6.798   1.883
16227TIP3    H170172   0.576   6.748   1.960
16227TIP3    H270173   0.629   6.805   1.830
16228TIP3   OH270174   0.747   6.809   3.624
16228TIP3    H170175   0.735   6.860   3.544
16228TIP3    H270176   0.758   6.719   3.594
16229TIP3   OH270177   1.123   6.919   1.867
16229TIP3    H170178   1.098   6.933   1.958
16229TIP3    H270179   1.083   6.835   1.844
16230TIP3   OH270180   1.340   6.833   3.303
16230TIP3    H170181   1.433   6.854   3.311
16230TIP3    H270182   1.311   6.818   3.393
16231TIP3   OH270183   0.184   6.496   3.620
16231TIP3    H170184   0.270   6.455   3.612
16231TIP3    H270185   0.180   6.525   3.712
16232TIP3   OH270186   0.651   6.664   2.108
16232TIP3    H170187   0.604   6.623   2.180
16232TIP3    H270188   0.696   6.592   2.064
16233TIP3   OH270189   0.579   6.409   3.341
16233TIP3    H170190   0.527   6.484   3.369
16233TIP3    H270191   0.662   6.447   3.312
16234TIP3   OH270192   0.795   6.486   1.952
16234TIP3    H170193   0.793   6.508   1.859
16234TIP3    H270194   0.888   6.470   1.971
16235TIP3   OH270195   1.049   6.567   3.648
16235TIP3    H170196   1.113   6.637   3.635
16235TIP3    H270197   1.059   6.544   3.741
16236TIP3   OH270198   1.678   6.681   1.919
16236TIP3    H170199   1.694   6.667   1.826
16236TIP3    H270200   1.656   6.774   1.925
16237TIP3   OH270201   0.654   6.169   3.456
16237TIP3    H170202   0.671   6.110   3.383
16237TIP3    H270203   0.637   6.254   3.414
16238TIP3   OH270204   0.688   6.017   3.217
16238TIP3    H170205   0.740   6.060   3.149
16238TIP3    H270206   0.599   6.014   3.181
16239TIP3   OH270207   0.807   6.547   3.272
16239TIP3    H170208   0.902   6.551   3.257
16239TIP3    H270209   0.772   6.621   3.221
16240TIP3   OH270210   1.267   6.343   3.752
16240TIP3    H170211   1.318   6.271   3.715
16240TIP3    H270212   1.324   6.420   3.743
16241TIP3   OH270213   1.430   6.544   3.512
16241TIP3    H170214   1.369   6.612   3.539
16241TIP3    H270215   1.516   6.586   3.515
16242TIP3   OH270216   0.488   6.237   3.673
16242TIP3    H170217   0.411   6.180   3.666
16242TIP3    H270218   0.538   6.219   3.594
16243TIP3   OH270219   0.736   5.753   3.290
16243TIP3    H170220   0.721   5.845   3.268
16243TIP3    H270221   0.664   5.706   3.248
16244TIP3   OH270222   0.880   6.147   3.624
16244TIP3    H170223   0.846   6.123   3.710
16244TIP3    H270224   0.803   6.153   3.568
16245TIP3   OH270225   1.132   6.050   3.542
16245TIP3    H170226   1.047   6.073   3.578
16245TIP3    H270227   1.184   6.023   3.618
16246TIP3   OH270228   1.315   5.971   3.744
16246TIP3    H170229   1.309   5.876   3.732
16246TIP3    H270230   1.286   5.987   3.833
16247TIP3   OH270231   0.292   6.039   3.662
16247TIP3    H170232   0.300   5.961   3.607
16247TIP3    H270233   0.304   6.006   3.751
16248TIP3   OH270234   0.728   5.667   3.550
16248TIP3    H170235   0.788   5.593   3.544
16248TIP3    H270236   0.725   5.702   3.461
16249TIP3   OH270237   0.804   5.828   3.762
16249TIP3    H170238   0.781   5.778   3.684
16249TIP3    H270239   0.746   5.904   3.760
16250TIP3   OH270240   0.149   7.018   2.031
16250TIP3    H170241   0.244   7.022   2.044
16250TIP3    H270242   0.136   6.951   1.964
16251TIP3   OH270243   0.060   7.328   2.739
16251TIP3    H170244   0.077   7.248   2.789
16251TIP3    H270245   0.121   7.392   2.776
16252TIP3   OH270246   1.624   6.928   3.801
16252TIP3    H170247   1.539   6.948   3.841
16252TIP3    H270248   1.674   7.009   3.809
16253TIP3   OH270249   1.783   6.768   2.311
16253TIP3    H170250   1.857   6.828   2.309
16253TIP3    H270251   1.802   6.709   2.384
16254TIP3   OH270252   1.835   6.568   2.494
16254TIP3    H170253   1.751   6.534   2.524
16254TIP3    H270254   1.887   6.580   2.574
16255TIP3   OH270255   1.820   6.876   3.003
16255TIP3    H170256   1.865   6.800   2.968
16255TIP3    H270257   1.841   6.947   2.941
16256TIP3   OH270258   1.610   7.135   3.175
16256TIP3    H170259   1.554   7.200   3.217
16256TIP3    H270260   1.576   7.128   3.086
16257TIP3   OH270261   1.827   6.576   2.121
16257TIP3    H170262   1.776   6.607   2.046
16257TIP3    H270263   1.810   6.642   2.189
16258TIP3   OH270264   1.673   6.264   1.934
16258TIP3    H170265   1.654   6.313   1.854
16258TIP3    H270266   1.650   6.174   1.914
16259TIP3   OH270267   1.587   6.449   2.543
16259TIP3    H170268   1.579   6.360   2.507
16259TIP3    H270269   1.541   6.444   2.627
16260TIP3   OH270270   0.067   6.632   2.933
16260TIP3    H170271   0.088   6.639   2.840
16260TIP3    H270272   0.150   6.608   2.975
16261TIP3   OH270273   1.690   6.636   3.521
16261TIP3    H170274   1.754   6.568   3.504
16261TIP3    H270275   1.734   6.717   3.494
16262TIP3   OH270276   1.835   6.400   3.500
16262TIP3    H170277   1.746   6.372   3.519
16262TIP3    H270278   1.889   6.324   3.521
16263TIP3   OH270279   1.589   6.015   1.850
16263TIP3    H170280   1.625   5.967   1.925
16263TIP3    H270281   1.494   6.001   1.856
16264TIP3   OH270282   1.566   6.210   2.366
16264TIP3    H170283   1.595   6.119   2.369
16264TIP3    H270284   1.631   6.254   2.311
16265TIP3   OH270285   1.587   6.237   2.930
16265TIP3    H170286   1.680   6.246   2.908
16265TIP3    H270287   1.582   6.257   3.023
16266TIP3   OH270288   1.622   6.318   3.194
16266TIP3    H170289   1.536   6.344   3.228
16266TIP3    H270290   1.669   6.401   3.185
16267TIP3   OH270291   0.051   6.112   3.552
16267TIP3    H170292   0.140   6.112   3.587
16267TIP3    H270293  -0.002   6.071   3.621
16268TIP3   OH270294   1.859   5.743   3.726
16268TIP3    H170295   1.924   5.686   3.685
16268TIP3    H270296   1.848   5.814   3.663
16269TIP3   OH270297   1.631   5.938   2.382
16269TIP3    H170298   1.650   5.901   2.469
16269TIP3    H270299   1.562   5.882   2.346
16270TIP3   OH270300   0.167   6.027   2.846
16270TIP3    H170301   0.201   5.937   2.846
16270TIP3    H270302   0.245   6.081   2.860
16271TIP3   OH270303  -0.012   6.367   2.959
16271TIP3    H170304   0.062   6.342   2.904
16271TIP3    H270305  -0.005   6.463   2.966
16272TIP3   OH270306   1.778   5.940   3.553
16272TIP3    H170307   1.708   5.978   3.607
16272TIP3    H270308   1.736   5.921   3.469
16273TIP3   OH270309   1.759   5.906   2.039
16273TIP3    H170310   1.814   5.851   1.983
16273TIP3    H270311   1.819   5.973   2.072
16274TIP3   OH270312   0.130   5.957   2.323
16274TIP3    H170313   0.043   5.934   2.357
16274TIP3    H270314   0.116   6.037   2.272
16275TIP3   OH270315   7.365   5.799   3.203
16275TIP3    H170316   7.322   5.850   3.271
16275TIP3    H270317   7.306   5.805   3.128
16276TIP3   OH270318   0.252   7.197   3.573
16276TIP3    H170319   0.164   7.224   3.547
16276TIP3    H270320   0.244   7.176   3.666
16277TIP3   OH270321   0.531   7.265   3.205
16277TIP3    H170322   0.435   7.268   3.201
16277TIP3    H270323   0.559   7.261   3.113
16278TIP3   OH270324   1.691   5.733   3.348
16278TIP3    H170325   1.628   5.766   3.283
16278TIP3    H270326   1.702   5.641   3.326
16279TIP3   OH270327   0.417   7.248   2.776
16279TIP3    H170328   0.381   7.162   2.797
16279TIP3    H270329   0.499   7.251   2.826
16280TIP3   OH270330   0.629   7.195   2.951
16280TIP3    H170331   0.650   7.109   2.914
16280TIP3    H270332   0.711   7.223   2.992
16281TIP3   OH270333   1.024   5.873   2.807
16281TIP3    H170334   0.965   5.803   2.833
16281TIP3    H270335   1.097   5.828   2.764
16282TIP3   OH270336   1.524   5.720   2.791
16282TIP3    H170337   1.586   5.777   2.745
16282TIP3    H270338   1.439   5.764   2.781
16283TIP3   OH270339   1.713   5.818   2.617
16283TIP3    H170340   1.777   5.750   2.597
16283TIP3    H270341   1.766   5.896   2.635
16284TIP3   OH270342   0.281   5.763   2.548
16284TIP3    H170343   0.192   5.744   2.520
16284TIP3    H270344   0.325   5.678   2.548
16285TIP3   OH270345   0.166   5.753   2.141
16285TIP3    H170346   0.233   5.788   2.082
16285TIP3    H270347   0.164   5.813   2.215
16286TIP3   OH270348   0.773   5.687   2.586
16286TIP3    H170349   0.840   5.744   2.548
16286TIP3    H270350   0.784   5.697   2.681
16287TIP3   OH270351   1.245   5.746   2.703
16287TIP3    H170352   1.276   5.728   2.614
16287TIP3    H270353   1.229   5.660   2.741
16288TIP3   OH270354   1.422   5.769   2.302
16288TIP3    H170355   1.348   5.825   2.325
16288TIP3    H270356   1.389   5.680   2.314
16289TIP3   OH270357   0.139  -0.014   2.366
16289TIP3    H170358   0.078  -0.057   2.306
16289TIP3    H270359   0.136   0.078   2.341
16290TIP3   OH270360   0.371   5.885   1.996
16290TIP3    H170361   0.424   5.831   1.938
16290TIP3    H270362   0.432   5.919   2.061
16291TIP3   OH270363   0.821   5.968   2.251
16291TIP3    H170364   0.855   5.897   2.305
16291TIP3    H270365   0.841   6.047   2.301
16292TIP3   OH270366   0.291   5.805   3.500
16292TIP3    H170367   0.229   5.743   3.536
16292TIP3    H270368   0.374   5.785   3.543
16293TIP3   OH270369   0.485   5.722   3.677
16293TIP3    H170370   0.570   5.696   3.642
16293TIP3    H270371   0.454   5.645   3.725
16294TIP3   OH270372   1.337   5.697   3.696
16294TIP3    H170373   1.326   5.649   3.778
16294TIP3    H270374   1.429   5.686   3.673
16295TIP3   OH270375   1.615   7.279   3.521
16295TIP3    H170376   1.543   7.278   3.457
16295TIP3    H270377   1.572   7.260   3.605
16296TIP3   OH270378   3.082   6.671   2.538
16296TIP3    H170379   3.077   6.765   2.524
16296TIP3    H270380   3.008   6.635   2.489
16297TIP3   OH270381   2.964   6.590   2.931
16297TIP3    H170382   2.993   6.549   3.013
16297TIP3    H270383   2.913   6.521   2.887
16298TIP3   OH270384   2.173   6.539   3.065
16298TIP3    H170385   2.180   6.467   3.128
16298TIP3    H270386   2.264   6.567   3.050
16299TIP3   OH270387   3.351   6.907   2.740
16299TIP3    H170388   3.311   6.834   2.787
16299TIP3    H270389   3.361   6.975   2.807
16300TIP3   OH270390   2.301   6.981   2.831
16300TIP3    H170391   2.261   6.895   2.816
16300TIP3    H270392   2.393   6.962   2.848
16301TIP3   OH270393   1.965   6.342   2.390
16301TIP3    H170394   1.933   6.424   2.427
16301TIP3    H270395   1.898   6.317   2.326
16302TIP3   OH270396   2.022   6.580   2.699
16302TIP3    H170397   2.049   6.490   2.720
16302TIP3    H270398   2.101   6.633   2.711
16303TIP3   OH270399   2.808   6.828   2.944
16303TIP3    H170400   2.849   6.748   2.914
16303TIP3    H270401   2.871   6.867   3.005
16304TIP3   OH270402   3.695   5.990   3.046
16304TIP3    H170403   3.708   6.059   3.111
16304TIP3    H270404   3.737   6.024   2.967
16305TIP3   OH270405   3.114   6.269   2.951
16305TIP3    H170406   3.122   6.174   2.965
16305TIP3    H270407   3.099   6.278   2.857
16306TIP3   OH270408   2.467   6.071   2.677
16306TIP3    H170409   2.469   6.157   2.635
16306TIP3    H270410   2.409   6.019   2.621
16307TIP3   OH270411   3.238   6.107   2.530
16307TIP3    H170412   3.277   6.076   2.612
16307TIP3    H270413   3.311   6.145   2.482
16308TIP3   OH270414   2.098   6.325   2.772
16308TIP3    H170415   2.165   6.284   2.827
16308TIP3    H270416   2.115   6.291   2.684
16309TIP3   OH270417   2.579   6.474   2.735
16309TIP3    H170418   2.665   6.440   2.761
16309TIP3    H270419   2.543   6.408   2.678
16310TIP3   OH270420   3.730   6.161   3.264
16310TIP3    H170421   3.651   6.212   3.248
16310TIP3    H270422   3.751   6.177   3.356
16311TIP3   OH270423   2.322   5.996   3.103
16311TIP3    H170424   2.300   6.054   3.031
16311TIP3    H270425   2.250   6.006   3.165
16312TIP3   OH270426   3.046   6.918   2.427
16312TIP3    H170427   3.030   6.929   2.333
16312TIP3    H270428   3.016   7.000   2.467
16313TIP3   OH270429   2.580   6.766   3.091
16313TIP3    H170430   2.529   6.841   3.123
16313TIP3    H270431   2.652   6.805   3.042
16314TIP3   OH270432   3.329   6.057   2.783
16314TIP3    H170433   3.261   6.027   2.844
16314TIP3    H270434   3.385   6.115   2.835
16315TIP3   OH270435   2.302   6.163   2.884
16315TIP3    H170436   2.357   6.222   2.936
16315TIP3    H270437   2.362   6.127   2.818
16316TIP3   OH270438   2.432   6.979   3.194
16316TIP3    H170439   2.440   7.073   3.179
16316TIP3    H270440   2.342   6.966   3.224
16317TIP3   OH270441   2.002   6.934   2.277
16317TIP3    H170442   1.990   6.994   2.203
16317TIP3    H270443   2.019   6.991   2.351
16318TIP3   OH270444   3.367   7.124   2.922
16318TIP3    H170445   3.282   7.124   2.967
16318TIP3    H270446   3.367   7.206   2.871
16319TIP3   OH270447   3.447   5.881   3.130
16319TIP3    H170448   3.377   5.920   3.078
16319TIP3    H270449   3.528   5.911   3.089
16320TIP3   OH270450   2.678   5.680   2.865
16320TIP3    H170451   2.651   5.588   2.865
16320TIP3    H270452   2.600   5.728   2.892
16321TIP3   OH270453   3.241   7.265   2.551
16321TIP3    H170454   3.272   7.179   2.523
16321TIP3    H270455   3.292   7.285   2.630
16322TIP3   OH270456   3.359   7.027   2.487
16322TIP3    H170457   3.343   6.959   2.421
16322TIP3    H270458   3.358   6.979   2.570
16323TIP3   OH270459   3.482   6.903   3.307
16323TIP3    H170460   3.472   6.840   3.236
16323TIP3    H270461   3.491   6.988   3.264
16324TIP3   OH270462   2.924   6.592   2.317
16324TIP3    H170463   2.861   6.660   2.293
16324TIP3    H270464   2.994   6.599   2.251
16325TIP3   OH270465   2.956   6.483   1.967
16325TIP3    H170466   3.010   6.505   2.043
16325TIP3    H270467   3.006   6.415   1.921
16326TIP3   OH270468   3.651   6.555   3.158
16326TIP3    H170469   3.577   6.615   3.146
16326TIP3    H270470   3.711   6.578   3.086
16327TIP3   OH270471   3.297   6.601   2.386
16327TIP3    H170472   3.228   6.624   2.449
16327TIP3    H270473   3.364   6.558   2.438
16328TIP3   OH270474   3.262   6.413   3.344
16328TIP3    H170475   3.259   6.486   3.406
16328TIP3    H270476   3.198   6.436   3.277
16329TIP3   OH270477   2.447   6.663   2.575
16329TIP3    H170478   2.421   6.622   2.492
16329TIP3    H270479   2.499   6.597   2.620
16330TIP3   OH270480   2.583   6.958   2.828
16330TIP3    H170481   2.591   6.976   2.734
16330TIP3    H270482   2.664   6.912   2.851
16331TIP3   OH270483   2.437   6.577   2.952
16331TIP3    H170484   2.493   6.550   2.879
16331TIP3    H270485   2.490   6.643   2.998
16332TIP3   OH270486   3.145   7.098   3.082
16332TIP3    H170487   3.131   7.123   3.173
16332TIP3    H270488   3.094   7.017   3.071
16333TIP3   OH270489   2.578   6.981   3.429
16333TIP3    H170490   2.511   7.035   3.469
16333TIP3    H270491   2.541   6.955   3.345
16334TIP3   OH270492   3.155   6.548   2.156
16334TIP3    H170493   3.209   6.579   2.229
16334TIP3    H270494   3.211   6.561   2.079
16335TIP3   OH270495   2.253   6.584   3.391
16335TIP3    H170496   2.263   6.666   3.439
16335TIP3    H270497   2.162   6.584   3.362
16336TIP3   OH270498   2.976   7.172   2.504
16336TIP3    H170499   3.059   7.213   2.528
16336TIP3    H270500   2.931   7.238   2.450
16337TIP3   OH270501   2.378   7.164   3.491
16337TIP3    H170502   2.365   7.198   3.403
16337TIP3    H270503   2.291   7.164   3.531
16338TIP3   OH270504   3.521   5.695   2.145
16338TIP3    H170505   3.436   5.718   2.184
16338TIP3    H270506   3.553   5.777   2.108
16339TIP3   OH270507   2.362   6.575   2.319
16339TIP3    H170508   2.302   6.642   2.286
16339TIP3    H270509   2.314   6.493   2.308
16340TIP3   OH270510   3.635   7.174   1.948
16340TIP3    H170511   3.624   7.229   2.026
16340TIP3    H270512   3.725   7.142   1.954
16341TIP3   OH270513   1.962   6.838   3.246
16341TIP3    H170514   1.906   6.848   3.169
16341TIP3    H270515   1.971   6.743   3.257
16342TIP3   OH270516   1.961   7.137   2.919
16342TIP3    H170517   2.046   7.111   2.956
16342TIP3    H270518   1.912   7.170   2.994
16343TIP3   OH270519   3.743   7.172   3.542
16343TIP3    H170520   3.729   7.077   3.548
16343TIP3    H270521   3.657   7.209   3.525
16344TIP3   OH270522   2.815   7.117   3.401
16344TIP3    H170523   2.801   7.195   3.454
16344TIP3    H270524   2.734   7.067   3.408
16345TIP3   OH270525   3.450   6.288   3.531
16345TIP3    H170526   3.381   6.327   3.478
16345TIP3    H270527   3.454   6.197   3.503
16346TIP3   OH270528   2.183   6.984   3.318
16346TIP3    H170529   2.209   6.943   3.400
16346TIP3    H270530   2.105   6.936   3.290
16347TIP3   OH270531   2.432   5.792   2.946
16347TIP3    H170532   2.357   5.781   2.888
16347TIP3    H270533   2.408   5.866   3.002
16348TIP3   OH270534   2.902   5.773   3.291
16348TIP3    H170535   2.945   5.727   3.363
16348TIP3    H270536   2.809   5.768   3.312
16349TIP3   OH270537   3.198   6.141   3.368
16349TIP3    H170538   3.135   6.127   3.439
16349TIP3    H270539   3.204   6.236   3.359
16350TIP3   OH270540   3.304   6.552   1.924
16350TIP3    H170541   3.284   6.583   1.836
16350TIP3    H270542   3.393   6.583   1.941
16351TIP3   OH270543   2.862   6.000   2.018
16351TIP3    H170544   2.803   5.998   2.094
16351TIP3    H270545   2.825   5.935   1.958
16352TIP3   OH270546   2.439   6.323   3.062
16352TIP3    H170547   2.373   6.321   3.131
16352TIP3    H270548   2.440   6.413   3.032
16353TIP3   OH270549   2.440   6.315   2.554
16353TIP3    H170550   2.345   6.305   2.554
16353TIP3    H270551   2.467   6.299   2.464
16354TIP3   OH270552   2.977   6.347   2.429
16354TIP3    H170553   2.951   6.433   2.396
16354TIP3    H270554   3.046   6.318   2.370
16355TIP3   OH270555   2.903   6.356   3.545
16355TIP3    H170556   2.851   6.285   3.583
16355TIP3    H270557   2.986   6.352   3.591
16356TIP3   OH270558   3.084   6.286   2.680
16356TIP3    H170559   3.037   6.332   2.611
16356TIP3    H270560   3.129   6.214   2.636
16357TIP3   OH270561   2.226   6.321   3.237
16357TIP3    H170562   2.222   6.367   3.321
16357TIP3    H270563   2.186   6.236   3.254
16358TIP3   OH270564   2.548   6.051   1.915
16358TIP3    H170565   2.514   6.039   2.004
16358TIP3    H270566   2.488   6.113   1.875
16359TIP3   OH270567   1.892   6.018   2.629
16359TIP3    H170568   1.952   6.028   2.703
16359TIP3    H270569   1.949   6.010   2.552
16360TIP3   OH270570   1.928   6.106   2.131
16360TIP3    H170571   1.995   6.147   2.076
16360TIP3    H270572   1.870   6.178   2.155
16361TIP3   OH270573   3.054   6.438   3.153
16361TIP3    H170574   3.084   6.381   3.083
16361TIP3    H270575   2.985   6.388   3.197
16362TIP3   OH270576   2.748   6.028   2.639
16362TIP3    H170577   2.658   6.033   2.670
16362TIP3    H270578   2.798   5.993   2.712
16363TIP3   OH270579   2.179   6.232   2.526
16363TIP3    H170580   2.107   6.260   2.470
16363TIP3    H270581   2.197   6.142   2.498
16364TIP3   OH270582   2.502   6.243   2.297
16364TIP3    H170583   2.596   6.236   2.312
16364TIP3    H270584   2.495   6.283   2.210
16365TIP3   OH270585   3.120   5.992   2.959
16365TIP3    H170586   3.081   5.994   3.046
16365TIP3    H270587   3.054   5.950   2.904
16366TIP3   OH270588   2.470   6.334   2.040
16366TIP3    H170589   2.418   6.307   1.965
16366TIP3    H270590   2.545   6.381   2.003
16367TIP3   OH270591   2.254   6.825   3.546
16367TIP3    H170592   2.319   6.817   3.616
16367TIP3    H270593   2.170   6.829   3.591
16368TIP3   OH270594   2.815   6.360   2.838
16368TIP3    H170595   2.883   6.304   2.799
16368TIP3    H270596   2.781   6.308   2.911
16369TIP3   OH270597   2.282   5.968   2.485
16369TIP3    H170598   2.232   5.890   2.511
16369TIP3    H270599   2.315   5.947   2.398
16370TIP3   OH270600   2.701   6.231   3.060
16370TIP3    H170601   2.617   6.274   3.070
16370TIP3    H270602   2.752   6.260   3.137
16371TIP3   OH270603   2.743   6.792   2.237
16371TIP3    H170604   2.672   6.752   2.186
16371TIP3    H270605   2.701   6.815   2.320
16372TIP3   OH270606   3.457   6.740   3.083
16372TIP3    H170607   3.519   6.796   3.035
16372TIP3    H270608   3.386   6.724   3.021
16373TIP3   OH270609   3.114   6.051   2.108
16373TIP3    H170610   3.024   6.047   2.077
16373TIP3    H270611   3.123   6.140   2.143
16374TIP3   OH270612   2.913   6.836   3.395
16374TIP3    H170613   2.933   6.790   3.476
16374TIP3    H270614   2.881   6.922   3.424
16375TIP3   OH270615   3.182   6.283   2.247
16375TIP3    H170616   3.270   6.269   2.283
16375TIP3    H270617   3.185   6.373   2.213
16376TIP3   OH270618   2.259   6.707   2.774
16376TIP3    H170619   2.320   6.702   2.700
16376TIP3    H270620   2.303   6.659   2.844
16377TIP3   OH270621   2.957   6.945   2.157
16377TIP3    H170622   2.928   7.036   2.170
16377TIP3    H270623   2.881   6.893   2.184
16378TIP3   OH270624   1.977   6.566   3.330
16378TIP3    H170625   1.950   6.516   3.407
16378TIP3    H270626   1.910   6.546   3.264
16379TIP3   OH270627   2.693   6.545   3.566
16379TIP3    H170628   2.624   6.507   3.512
16379TIP3    H270629   2.771   6.493   3.547
16380TIP3   OH270630   3.092   7.121   3.358
16380TIP3    H170631   2.996   7.121   3.356
16380TIP3    H270632   3.114   7.118   3.451
16381TIP3   OH270633   3.640   6.312   2.186
16381TIP3    H170634   3.598   6.291   2.102
16381TIP3    H270635   3.666   6.403   2.178
16382TIP3   OH270636   3.695   6.884   3.479
16382TIP3    H170637   3.609   6.903   3.442
16382TIP3    H270638   3.754   6.882   3.404
16383TIP3   OH270639   3.622   7.099   2.272
16383TIP3    H170640   3.548   7.076   2.328
16383TIP3    H270641   3.601   7.186   2.239
16384TIP3   OH270642   3.252   6.678   2.891
16384TIP3    H170643   3.157   6.670   2.891
16384TIP3    H270644   3.284   6.599   2.848
16385TIP3   OH270645   2.492   7.083   2.576
16385TIP3    H170646   2.495   7.162   2.523
16385TIP3    H270647   2.404   7.081   2.613
16386TIP3   OH270648   2.090   6.544   2.048
16386TIP3    H170649   2.136   6.613   2.096
16386TIP3    H270650   1.999   6.551   2.078
16387TIP3   OH270651   2.594   6.863   2.450
16387TIP3    H170652   2.567   6.945   2.492
16387TIP3    H270653   2.544   6.795   2.497
16388TIP3   OH270654   2.727   7.226   3.148
16388TIP3    H170655   2.706   7.309   3.191
16388TIP3    H270656   2.776   7.177   3.213
16389TIP3   OH270657   2.459  -0.019   2.430
16389TIP3    H170658   2.373   0.008   2.460
16389TIP3    H270659   2.520   0.032   2.482
16390TIP3   OH270660   3.010   6.858   3.136
16390TIP3    H170661   2.973   6.851   3.224
16390TIP3    H270662   3.077   6.790   3.133
16391TIP3   OH270663   3.286   6.987   2.060
16391TIP3    H170664   3.316   6.942   2.139
16391TIP3    H270665   3.193   6.964   2.053
16392TIP3   OH270666   3.301   7.299   3.317
16392TIP3    H170667   3.228   7.237   3.330
16392TIP3    H270668   3.259   7.383   3.300
16393TIP3   OH270669   2.112   6.064   3.272
16393TIP3    H170670   2.022   6.093   3.258
16393TIP3    H270671   2.107   6.005   3.348
16394TIP3   OH270672   3.385   6.837   2.273
16394TIP3    H170673   3.346   6.758   2.310
16394TIP3    H270674   3.479   6.820   2.275
16395TIP3   OH270675   2.142   7.233   3.155
16395TIP3    H170676   2.127   7.163   3.219
16395TIP3    H270677   2.070   7.294   3.168
16396TIP3   OH270678   2.682   7.052   1.883
16396TIP3    H170679   2.687   6.968   1.836
16396TIP3    H270680   2.646   7.029   1.969
16397TIP3   OH270681   2.560   7.029   2.131
16397TIP3    H170682   2.593   6.977   2.204
16397TIP3    H270683   2.575   7.120   2.158
16398TIP3   OH270684   2.195   6.757   2.193
16398TIP3    H170685   2.123   6.803   2.235
16398TIP3    H270686   2.241   6.825   2.142
16399TIP3   OH270687   3.009   6.013   3.208
16399TIP3    H170688   3.078   6.036   3.270
16399TIP3    H270689   2.972   5.932   3.243
16400TIP3   OH270690   3.092   5.940   2.363
16400TIP3    H170691   3.099   5.979   2.276
16400TIP3    H270692   3.134   6.002   2.421
16401TIP3   OH270693   2.863   7.203   2.177
16401TIP3    H170694   2.776   7.240   2.193
16401TIP3    H270695   2.884   7.231   2.088
16402TIP3   OH270696   2.756   6.184   2.409
16402TIP3    H170697   2.831   6.244   2.416
16402TIP3    H270698   2.752   6.141   2.494
16403TIP3   OH270699   2.878   6.267   3.276
16403TIP3    H170700   2.882   6.286   3.369
16403TIP3    H270701   2.910   6.177   3.269
16404TIP3   OH270702   2.850   5.841   2.456
16404TIP3    H170703   2.824   5.910   2.517
16404TIP3    H270704   2.937   5.867   2.425
16405TIP3   OH270705   2.601   7.293   2.199
16405TIP3    H170706   2.574   7.369   2.147
16405TIP3    H270707   2.551   7.302   2.280
16406TIP3   OH270708   2.441   5.999   2.170
16406TIP3    H170709   2.434   6.083   2.214
16406TIP3    H270710   2.527   5.965   2.195
16407TIP3   OH270711   3.449   6.040   3.379
16407TIP3    H170712   3.357   6.065   3.378
16407TIP3    H270713   3.464   5.998   3.295
16408TIP3   OH270714   3.325   6.424   2.777
16408TIP3    H170715   3.239   6.386   2.757
16408TIP3    H270716   3.365   6.364   2.839
16409TIP3   OH270717   2.301   6.967   2.039
16409TIP3    H170718   2.378   7.006   2.082
16409TIP3    H270719   2.338   6.913   1.970
16410TIP3   OH270720   2.066   6.278   1.968
16410TIP3    H170721   2.093   6.362   2.006
16410TIP3    H270722   2.010   6.302   1.894
16411TIP3   OH270723   2.187   5.765   2.821
16411TIP3    H170724   2.176   5.757   2.726
16411TIP3    H270725   2.151   5.683   2.856
16412TIP3   OH270726   2.041   7.119   2.478
16412TIP3    H170727   2.005   7.143   2.563
16412TIP3    H270728   2.033   7.198   2.425
16413TIP3   OH270729   2.525   7.267   3.698
16413TIP3    H170730   2.579   7.201   3.742
16413TIP3    H270731   2.473   7.217   3.635
16414TIP3   OH270732   2.896   7.231   1.903
16414TIP3    H170733   2.825   7.169   1.887
16414TIP3    H270734   2.968   7.201   1.848
16415TIP3   OH270735   3.144   7.110   3.622
16415TIP3    H170736   3.112   7.034   3.672
16415TIP3    H270737   3.219   7.142   3.672
16416TIP3   OH270738   3.356   7.206   1.904
16416TIP3    H170739   3.326   7.143   1.969
16416TIP3    H270740   3.452   7.203   1.910
16417TIP3   OH270741   2.007   6.822   3.671
16417TIP3    H170742   2.012   6.727   3.671
16417TIP3    H270743   1.930   6.842   3.617
16418TIP3   OH270744   2.434   6.791   1.878
16418TIP3    H170745   2.458   6.744   1.958
16418TIP3    H270746   2.516   6.800   1.829
16419TIP3   OH270747   2.675   6.819   3.632
16419TIP3    H170748   2.649   6.861   3.550
16419TIP3    H270749   2.695   6.729   3.607
16420TIP3   OH270750   3.029   6.929   1.889
16420TIP3    H170751   2.991   6.924   1.977
16420TIP3    H270752   3.012   6.843   1.851
16421TIP3   OH270753   3.225   6.845   3.390
16421TIP3    H170754   3.313   6.876   3.369
16421TIP3    H270755   3.169   6.922   3.374
16422TIP3   OH270756   2.087   6.556   3.665
16422TIP3    H170757   2.168   6.515   3.634
16422TIP3    H270758   2.093   6.552   3.760
16423TIP3   OH270759   2.532   6.664   2.108
16423TIP3    H170760   2.481   6.623   2.178
16423TIP3    H270761   2.576   6.591   2.064
16424TIP3   OH270762   2.496   6.441   3.389
16424TIP3    H170763   2.417   6.494   3.385
16424TIP3    H270764   2.551   6.475   3.318
16425TIP3   OH270765   2.679   6.489   1.950
16425TIP3    H170766   2.675   6.513   1.857
16425TIP3    H270767   2.772   6.481   1.969
16426TIP3   OH270768   2.997   6.677   3.648
16426TIP3    H170769   3.077   6.639   3.612
16426TIP3    H270770   2.966   6.613   3.712
16427TIP3   OH270771   3.558   6.660   1.911
16427TIP3    H170772   3.564   6.645   1.817
16427TIP3    H270773   3.548   6.755   1.919
16428TIP3   OH270774   2.535   6.177   3.456
16428TIP3    H170775   2.544   6.123   3.377
16428TIP3    H270776   2.523   6.266   3.423
16429TIP3   OH270777   2.570   6.026   3.218
16429TIP3    H170778   2.623   6.076   3.155
16429TIP3    H270779   2.484   6.019   3.178
16430TIP3   OH270780   2.678   6.541   3.213
16430TIP3    H170781   2.770   6.558   3.231
16430TIP3    H270782   2.647   6.622   3.172
16431TIP3   OH270783   3.136   6.331   3.711
16431TIP3    H170784   3.176   6.244   3.712
16431TIP3    H270785   3.206   6.389   3.742
16432TIP3   OH270786   3.279   6.621   3.532
16432TIP3    H170787   3.249   6.700   3.487
16432TIP3    H270788   3.374   6.627   3.529
16433TIP3   OH270789   2.371   6.225   3.680
16433TIP3    H170790   2.289   6.176   3.669
16433TIP3    H270791   2.417   6.214   3.597
16434TIP3   OH270792   2.623   5.762   3.295
16434TIP3    H170793   2.604   5.853   3.272
16434TIP3    H270794   2.553   5.712   3.251
16435TIP3   OH270795   2.752   6.141   3.625
16435TIP3    H170796   2.713   6.112   3.708
16435TIP3    H270797   2.679   6.146   3.564
16436TIP3   OH270798   3.016   6.073   3.555
16436TIP3    H170799   2.926   6.080   3.586
16436TIP3    H270800   3.063   6.030   3.626
16437TIP3   OH270801   3.198   5.971   3.744
16437TIP3    H170802   3.194   5.876   3.731
16437TIP3    H270803   3.171   5.984   3.835
16438TIP3   OH270804   2.168   6.030   3.646
16438TIP3    H170805   2.169   5.950   3.595
16438TIP3    H270806   2.179   6.001   3.737
16439TIP3   OH270807   2.610   5.667   3.552
16439TIP3    H170808   2.667   5.590   3.543
16439TIP3    H270809   2.607   5.705   3.465
16440TIP3   OH270810   2.696   5.826   3.762
16440TIP3    H170811   2.668   5.773   3.687
16440TIP3    H270812   2.634   5.900   3.763
16441TIP3   OH270813   2.038   7.033   1.980
16441TIP3    H170814   2.128   7.019   2.009
16441TIP3    H270815   2.020   6.961   1.920
16442TIP3   OH270816   1.958   7.307   2.700
16442TIP3    H170817   1.946   7.240   2.766
16442TIP3    H270818   2.004   7.378   2.745
16443TIP3   OH270819   3.507   6.929   3.786
16443TIP3    H170820   3.423   6.948   3.828
16443TIP3    H270821   3.564   7.002   3.812
16444TIP3   OH270822   3.649   6.751   2.312
16444TIP3    H170823   3.717   6.819   2.312
16444TIP3    H270824   3.672   6.693   2.384
16445TIP3   OH270825   3.723   6.562   2.499
16445TIP3    H170826   3.639   6.530   2.530
16445TIP3    H270827   3.774   6.578   2.579
16446TIP3   OH270828   3.695   6.869   3.006
16446TIP3    H170829   3.745   6.795   2.972
16446TIP3    H270830   3.716   6.941   2.946
16447TIP3   OH270831   3.487   7.140   3.175
16447TIP3    H170832   3.428   7.203   3.215
16447TIP3    H270833   3.458   7.134   3.084
16448TIP3   OH270834   3.708   6.567   2.119
16448TIP3    H170835   3.658   6.594   2.042
16448TIP3    H270836   3.686   6.633   2.185
16449TIP3   OH270837   3.545   6.276   1.932
16449TIP3    H170838   3.531   6.337   1.860
16449TIP3    H270839   3.521   6.190   1.897
16450TIP3   OH270840   3.471   6.450   2.544
16450TIP3    H170841   3.463   6.362   2.509
16450TIP3    H270842   3.426   6.447   2.629
16451TIP3   OH270843   1.946   6.638   2.954
16451TIP3    H170844   1.958   6.621   2.861
16451TIP3    H270845   2.029   6.611   2.994
16452TIP3   OH270846   3.556   6.636   3.522
16452TIP3    H170847   3.615   6.563   3.503
16452TIP3    H270848   3.606   6.715   3.499
16453TIP3   OH270849   3.698   6.400   3.500
16453TIP3    H170850   3.610   6.364   3.513
16453TIP3    H270851   3.757   6.328   3.522
16454TIP3   OH270852   3.470   6.030   1.830
16454TIP3    H170853   3.507   5.984   1.905
16454TIP3    H270854   3.377   6.008   1.831
16455TIP3   OH270855   3.445   6.213   2.367
16455TIP3    H170856   3.472   6.122   2.371
16455TIP3    H270857   3.510   6.255   2.311
16456TIP3   OH270858   3.472   6.240   2.938
16456TIP3    H170859   3.565   6.248   2.915
16456TIP3    H270860   3.468   6.261   3.031
16457TIP3   OH270861   3.505   6.325   3.204
16457TIP3    H170862   3.425   6.352   3.249
16457TIP3    H270863   3.556   6.405   3.194
16458TIP3   OH270864   1.949   6.154   3.533
16458TIP3    H170865   2.029   6.128   3.579
16458TIP3    H270866   1.888   6.081   3.549
16459TIP3   OH270867   3.740   5.738   3.725
16459TIP3    H170868   3.806   5.682   3.685
16459TIP3    H270869   3.731   5.811   3.664
16460TIP3   OH270870   3.506   5.942   2.386
16460TIP3    H170871   3.521   5.904   2.473
16460TIP3    H270872   3.440   5.885   2.346
16461TIP3   OH270873   2.065   6.013   2.844
16461TIP3    H170874   2.101   5.924   2.848
16461TIP3    H270875   2.139   6.070   2.861
16462TIP3   OH270876   1.860   6.282   2.921
16462TIP3    H170877   1.933   6.288   2.860
16462TIP3    H270878   1.882   6.344   2.990
16463TIP3   OH270879   3.663   5.935   3.551
16463TIP3    H170880   3.591   5.975   3.601
16463TIP3    H270881   3.623   5.910   3.468
16464TIP3   OH270882   3.631   5.916   2.023
16464TIP3    H170883   3.684   5.860   1.966
16464TIP3    H270884   3.694   5.976   2.062
16465TIP3   OH270885   1.923   5.926   2.336
16465TIP3    H170886   1.829   5.921   2.353
16465TIP3    H270887   1.932   5.995   2.271
16466TIP3   OH270888   1.912   5.760   3.168
16466TIP3    H170889   1.849   5.757   3.240
16466TIP3    H270890   1.886   5.836   3.116
16467TIP3   OH270891   2.134   7.200   3.621
16467TIP3    H170892   2.052   7.204   3.573
16467TIP3    H270893   2.112   7.155   3.703
16468TIP3   OH270894   2.412   7.269   3.186
16468TIP3    H170895   2.317   7.267   3.173
16468TIP3    H270896   2.448   7.273   3.098
16469TIP3   OH270897   3.575   5.737   3.347
16469TIP3    H170898   3.513   5.769   3.282
16469TIP3    H270899   3.585   5.644   3.327
16470TIP3   OH270900   2.309   7.250   2.789
16470TIP3    H170901   2.287   7.158   2.802
16470TIP3    H270902   2.397   7.259   2.826
16471TIP3   OH270903   2.554   7.207   2.940
16471TIP3    H170904   2.561   7.120   2.901
16471TIP3    H270905   2.620   7.208   3.009
16472TIP3   OH270906   2.913   5.868   2.804
16472TIP3    H170907   2.852   5.797   2.826
16472TIP3    H270908   2.986   5.824   2.761
16473TIP3   OH270909   3.409   5.719   2.802
16473TIP3    H170910   3.466   5.776   2.752
16473TIP3    H270911   3.320   5.750   2.783
16474TIP3   OH270912   3.588   5.822   2.622
16474TIP3    H170913   3.652   5.755   2.598
16474TIP3    H270914   3.640   5.900   2.640
16475TIP3   OH270915   2.149   5.732   2.549
16475TIP3    H170916   2.056   5.714   2.533
16475TIP3    H270917   2.192   5.648   2.535
16476TIP3   OH270918   2.067   5.746   2.169
16476TIP3    H170919   2.117   5.803   2.111
16476TIP3    H270920   2.024   5.806   2.230
16477TIP3   OH270921   2.644   5.690   2.580
16477TIP3    H170922   2.714   5.741   2.538
16477TIP3    H270923   2.663   5.697   2.674
16478TIP3   OH270924   3.140   5.742   2.702
16478TIP3    H170925   3.169   5.724   2.613
16478TIP3    H270926   3.119   5.655   2.738
16479TIP3   OH270927   3.304   5.770   2.298
16479TIP3    H170928   3.227   5.825   2.315
16479TIP3    H270929   3.272   5.681   2.310
16480TIP3   OH270930   2.020   0.012   2.347
16480TIP3    H170931   2.034   0.017   2.253
16480TIP3    H270932   1.971   0.091   2.368
16481TIP3   OH270933   2.246   5.892   1.996
16481TIP3    H170934   2.298   5.834   1.939
16481TIP3    H270935   2.310   5.926   2.058
16482TIP3   OH270936   2.706   5.970   2.245
16482TIP3    H170937   2.739   5.897   2.297
16482TIP3    H270938   2.724   6.047   2.299
16483TIP3   OH270939   2.165   5.783   3.502
16483TIP3    H170940   2.106   5.715   3.534
16483TIP3    H270941   2.246   5.769   3.552
16484TIP3   OH270942   2.365   5.722   3.682
16484TIP3    H170943   2.450   5.695   3.647
16484TIP3    H270944   2.330   5.644   3.725
16485TIP3   OH270945   3.221   5.696   3.694
16485TIP3    H170946   3.211   5.648   3.776
16485TIP3    H270947   3.313   5.684   3.670
16486TIP3   OH270948   3.490   7.281   3.520
16486TIP3    H170949   3.416   7.278   3.459
16486TIP3    H270950   3.451   7.269   3.606
16487TIP3   OH270951   4.984   6.664   2.541
16487TIP3    H170952   4.959   6.722   2.612
16487TIP3    H270953   4.907   6.662   2.483
16488TIP3   OH270954   4.834   6.586   2.914
16488TIP3    H170955   4.865   6.551   2.998
16488TIP3    H270956   4.792   6.511   2.871
16489TIP3   OH270957   4.054   6.543   3.095
16489TIP3    H170958   4.058   6.453   3.128
16489TIP3    H270959   4.100   6.594   3.161
16490TIP3   OH270960   5.210   6.912   2.736
16490TIP3    H170961   5.191   6.831   2.783
16490TIP3    H270962   5.233   6.975   2.805
16491TIP3   OH270963   4.162   6.977   2.861
16491TIP3    H170964   4.133   6.892   2.827
16491TIP3    H270965   4.242   6.957   2.909
16492TIP3   OH270966   3.849   6.338   2.389
16492TIP3    H170967   3.818   6.419   2.428
16492TIP3    H270968   3.781   6.313   2.326
16493TIP3   OH270969   3.909   6.582   2.708
16493TIP3    H170970   3.936   6.492   2.726
16493TIP3    H270971   3.989   6.633   2.718
16494TIP3   OH270972   4.705   6.824   2.966
16494TIP3    H170973   4.742   6.742   2.933
16494TIP3    H270974   4.772   6.858   3.026
16495TIP3   OH270975   5.578   5.982   3.047
16495TIP3    H170976   5.593   6.054   3.108
16495TIP3    H270977   5.636   6.002   2.973
16496TIP3   OH270978   5.005   6.274   2.940
16496TIP3    H170979   5.022   6.183   2.964
16496TIP3    H270980   4.978   6.269   2.848
16497TIP3   OH270981   4.349   6.074   2.684
16497TIP3    H170982   4.353   6.160   2.642
16497TIP3    H270983   4.293   6.022   2.628
16498TIP3   OH270984   5.123   6.109   2.524
16498TIP3    H170985   5.163   6.082   2.607
16498TIP3    H270986   5.196   6.142   2.472
16499TIP3   OH270987   3.981   6.324   2.770
16499TIP3    H170988   4.047   6.283   2.827
16499TIP3    H270989   3.999   6.288   2.683
16500TIP3   OH270990   4.481   6.479   2.714
16500TIP3    H170991   4.562   6.437   2.743
16500TIP3    H270992   4.435   6.410   2.666
16501TIP3   OH270993   5.621   6.164   3.253
16501TIP3    H170994   5.539   6.211   3.244
16501TIP3    H270995   5.645   6.175   3.346
16502TIP3   OH270996   4.207   5.997   3.110
16502TIP3    H170997   4.184   6.058   3.039
16502TIP3    H270998   4.134   6.003   3.171
16503TIP3   OH270999   4.824   6.954   2.423
16503TIP3    H171000   4.744   6.929   2.469
16503TIP3    H271001   4.842   7.043   2.453
16504TIP3   OH271002   4.480   6.749   3.112
16504TIP3    H171003   4.425   6.822   3.139
16504TIP3    H271004   4.556   6.790   3.071
16505TIP3   OH271005   5.218   6.073   2.776
16505TIP3    H171006   5.155   6.038   2.840
16505TIP3    H271007   5.278   6.126   2.829
16506TIP3   OH271008   4.181   6.164   2.889
16506TIP3    H171009   4.232   6.228   2.940
16506TIP3    H271010   4.243   6.128   2.826
16507TIP3   OH271011   4.322   6.969   3.194
16507TIP3    H171012   4.329   7.064   3.189
16507TIP3    H271013   4.233   6.953   3.225
16508TIP3   OH271014   3.850   6.941   2.297
16508TIP3    H171015   3.778   6.998   2.270
16508TIP3    H271016   3.891   6.988   2.370
16509TIP3   OH271017   5.241   7.126   2.920
16509TIP3    H171018   5.159   7.122   2.969
16509TIP3    H271019   5.236   7.208   2.871
16510TIP3   OH271020   5.331   5.878   3.131
16510TIP3    H171021   5.265   5.922   3.077
16510TIP3    H271022   5.415   5.905   3.093
16511TIP3   OH271023   4.562   5.694   2.839
16511TIP3    H171024   4.541   5.601   2.852
16511TIP3    H271025   4.488   5.741   2.878
16512TIP3   OH271026   5.139   7.266   2.523
16512TIP3    H171027   5.175   7.179   2.508
16512TIP3    H271028   5.184   7.299   2.600
16513TIP3   OH271029   5.247   7.021   2.483
16513TIP3    H171030   5.247   6.951   2.418
16513TIP3    H271031   5.237   6.976   2.567
16514TIP3   OH271032   5.377   6.900   3.306
16514TIP3    H171033   5.371   6.840   3.232
16514TIP3    H271034   5.383   6.987   3.266
16515TIP3   OH271035   4.815   6.618   2.318
16515TIP3    H171036   4.758   6.687   2.284
16515TIP3    H271037   4.886   6.612   2.255
16516TIP3   OH271038   4.849   6.485   1.971
16516TIP3    H171039   4.902   6.504   2.048
16516TIP3    H271040   4.902   6.423   1.920
16517TIP3   OH271041   5.534   6.555   3.157
16517TIP3    H171042   5.461   6.616   3.143
16517TIP3    H271043   5.595   6.574   3.086
16518TIP3   OH271044   5.195   6.602   2.383
16518TIP3    H171045   5.127   6.623   2.448
16518TIP3    H271046   5.260   6.551   2.431
16519TIP3   OH271047   5.144   6.422   3.325
16519TIP3    H171048   5.149   6.478   3.402
16519TIP3    H271049   5.072   6.458   3.274
16520TIP3   OH271050   4.355   6.680   2.572
16520TIP3    H171051   4.317   6.642   2.493
16520TIP3    H271052   4.399   6.607   2.615
16521TIP3   OH271053   4.480   6.934   2.843
16521TIP3    H171054   4.468   6.881   2.764
16521TIP3    H271055   4.560   6.901   2.883
16522TIP3   OH271056   4.344   6.589   2.931
16522TIP3    H171057   4.408   6.561   2.864
16522TIP3    H271058   4.396   6.641   2.992
16523TIP3   OH271059   5.013   7.108   3.070
16523TIP3    H171060   5.005   7.144   3.158
16523TIP3    H271061   4.975   7.020   3.076
16524TIP3   OH271062   4.479   7.001   3.423
16524TIP3    H171063   4.409   7.054   3.462
16524TIP3    H271064   4.442   6.968   3.341
16525TIP3   OH271065   5.040   6.560   2.162
16525TIP3    H171066   5.097   6.579   2.237
16525TIP3    H271067   5.091   6.586   2.086
16526TIP3   OH271068   4.135   6.623   3.362
16526TIP3    H171069   4.148   6.697   3.422
16526TIP3    H271070   4.040   6.608   3.363
16527TIP3   OH271071   4.868   7.228   2.468
16527TIP3    H171072   4.962   7.239   2.481
16527TIP3    H271073   4.828   7.270   2.545
16528TIP3   OH271074   4.269   7.169   3.488
16528TIP3    H171075   4.262   7.206   3.400
16528TIP3    H271076   4.179   7.165   3.520
16529TIP3   OH271077   5.401   5.696   2.131
16529TIP3    H171078   5.320   5.720   2.177
16529TIP3    H271079   5.435   5.780   2.099
16530TIP3   OH271080   4.236   6.594   2.321
16530TIP3    H171081   4.171   6.658   2.291
16530TIP3    H271082   4.188   6.512   2.326
16531TIP3   OH271083   5.549   7.198   2.006
16531TIP3    H171084   5.491   7.271   2.029
16531TIP3    H271085   5.559   7.149   2.087
16532TIP3   OH271086   3.841   6.845   3.249
16532TIP3    H171087   3.785   6.851   3.172
16532TIP3    H271088   3.849   6.752   3.267
16533TIP3   OH271089   3.857   7.129   2.916
16533TIP3    H171090   3.943   7.094   2.939
16533TIP3    H271091   3.824   7.165   2.998
16534TIP3   OH271092   5.655   7.153   3.525
16534TIP3    H171093   5.633   7.060   3.520
16534TIP3    H271094   5.571   7.198   3.518
16535TIP3   OH271095   4.709   7.162   3.426
16535TIP3    H171096   4.729   7.181   3.517
16535TIP3    H271097   4.631   7.106   3.430
16536TIP3   OH271098   5.334   6.278   3.550
16536TIP3    H171099   5.247   6.290   3.587
16536TIP3    H271100   5.333   6.190   3.513
16537TIP3   OH271101   4.069   6.986   3.311
16537TIP3    H171102   4.092   6.954   3.398
16537TIP3    H271103   3.989   6.939   3.289
16538TIP3   OH271104   4.324   5.794   2.959
16538TIP3    H171105   4.252   5.784   2.896
16538TIP3    H271106   4.299   5.870   3.012
16539TIP3   OH271107   4.834   5.761   3.283
16539TIP3    H171108   4.885   5.721   3.354
16539TIP3    H271109   4.748   5.776   3.321
16540TIP3   OH271110   5.085   6.153   3.359
16540TIP3    H171111   5.027   6.137   3.434
16540TIP3    H271112   5.099   6.248   3.361
16541TIP3   OH271113   5.185   6.624   1.943
16541TIP3    H171114   5.170   6.619   1.849
16541TIP3    H271115   5.278   6.644   1.951
16542TIP3   OH271116   4.722   6.012   2.016
16542TIP3    H171117   4.682   6.008   2.103
16542TIP3    H271118   4.692   5.933   1.972
16543TIP3   OH271119   4.328   6.338   3.043
16543TIP3    H171120   4.285   6.343   3.129
16543TIP3    H271121   4.322   6.427   3.008
16544TIP3   OH271122   4.323   6.315   2.552
16544TIP3    H171123   4.228   6.302   2.553
16544TIP3    H271124   4.350   6.295   2.462
16545TIP3   OH271125   4.864   6.359   2.421
16545TIP3    H171126   4.847   6.449   2.393
16545TIP3    H271127   4.935   6.330   2.364
16546TIP3   OH271128   4.783   6.308   3.468
16546TIP3    H171129   4.743   6.237   3.519
16546TIP3    H271130   4.809   6.373   3.533
16547TIP3   OH271131   4.946   6.270   2.673
16547TIP3    H171132   4.913   6.320   2.598
16547TIP3    H271133   5.003   6.204   2.634
16548TIP3   OH271134   4.097   6.301   3.221
16548TIP3    H171135   4.159   6.324   3.291
16548TIP3    H271136   4.061   6.216   3.248
16549TIP3   OH271137   4.403   6.090   1.938
16549TIP3    H171138   4.393   6.049   2.024
16549TIP3    H271139   4.386   6.182   1.954
16550TIP3   OH271140   3.768   6.022   2.637
16550TIP3    H171141   3.832   6.028   2.708
16550TIP3    H271142   3.820   6.010   2.558
16551TIP3   OH271143   3.811   6.099   2.131
16551TIP3    H171144   3.877   6.141   2.076
16551TIP3    H271145   3.751   6.171   2.155
16552TIP3   OH271146   4.921   6.445   3.136
16552TIP3    H171147   4.969   6.391   3.073
16552TIP3    H271148   4.860   6.384   3.178
16553TIP3   OH271149   4.635   6.033   2.639
16553TIP3    H171150   4.546   6.037   2.675
16553TIP3    H271151   4.688   5.998   2.711
16554TIP3   OH271152   4.064   6.228   2.525
16554TIP3    H171153   3.991   6.255   2.469
16554TIP3    H271154   4.082   6.138   2.499
16555TIP3   OH271155   4.389   6.241   2.294
16555TIP3    H171156   4.483   6.239   2.316
16555TIP3    H271157   4.385   6.286   2.210
16556TIP3   OH271158   5.015   5.991   2.947
16556TIP3    H171159   4.981   5.992   3.036
16556TIP3    H271160   4.948   5.948   2.895
16557TIP3   OH271161   4.360   6.346   2.036
16557TIP3    H171162   4.293   6.354   1.968
16557TIP3    H271163   4.434   6.396   2.003
16558TIP3   OH271164   4.138   6.834   3.548
16558TIP3    H171165   4.203   6.823   3.618
16558TIP3    H271166   4.054   6.839   3.594
16559TIP3   OH271167   4.705   6.350   2.815
16559TIP3    H171168   4.779   6.304   2.775
16559TIP3    H271169   4.670   6.288   2.879
16560TIP3   OH271170   4.172   5.964   2.490
16560TIP3    H171171   4.116   5.890   2.514
16560TIP3    H271172   4.220   5.934   2.413
16561TIP3   OH271173   4.569   6.205   3.016
16561TIP3    H171174   4.492   6.259   3.031
16561TIP3    H271175   4.629   6.228   3.087
16562TIP3   OH271176   4.596   6.831   2.223
16562TIP3    H171177   4.531   6.771   2.187
16562TIP3    H271178   4.579   6.832   2.317
16563TIP3   OH271179   5.351   6.748   3.076
16563TIP3    H171180   5.413   6.802   3.028
16563TIP3    H271181   5.281   6.729   3.013
16564TIP3   OH271182   4.987   6.053   2.106
16564TIP3    H171183   4.897   6.058   2.073
16564TIP3    H271184   5.005   6.141   2.139
16565TIP3   OH271185   4.784   6.838   3.396
16565TIP3    H171186   4.840   6.795   3.460
16565TIP3    H271187   4.725   6.892   3.448
16566TIP3   OH271188   5.072   6.284   2.242
16566TIP3    H171189   5.157   6.259   2.278
16566TIP3    H271190   5.086   6.372   2.207
16567TIP3   OH271191   4.152   6.708   2.770
16567TIP3    H171192   4.215   6.708   2.698
16567TIP3    H271193   4.196   6.661   2.840
16568TIP3   OH271194   4.829   6.952   2.147
16568TIP3    H171195   4.864   6.961   2.236
16568TIP3    H271196   4.745   6.908   2.159
16569TIP3   OH271197   3.856   6.585   3.352
16569TIP3    H171198   3.842   6.536   3.433
16569TIP3    H271199   3.789   6.552   3.292
16570TIP3   OH271200   4.557   6.572   3.553
16570TIP3    H171201   4.565   6.549   3.461
16570TIP3    H271202   4.637   6.539   3.593
16571TIP3   OH271203   4.974   7.167   3.341
16571TIP3    H171204   4.880   7.166   3.358
16571TIP3    H271205   5.013   7.131   3.421
16572TIP3   OH271206   5.519   6.320   2.179
16572TIP3    H171207   5.475   6.301   2.096
16572TIP3    H271208   5.548   6.411   2.170
16573TIP3   OH271209   5.591   6.880   3.475
16573TIP3    H171210   5.504   6.897   3.441
16573TIP3    H271211   5.646   6.868   3.398
16574TIP3   OH271212   5.497   7.147   2.278
16574TIP3    H171213   5.445   7.090   2.334
16574TIP3    H271214   5.438   7.218   2.253
16575TIP3   OH271215   5.148   6.679   2.883
16575TIP3    H171216   5.057   6.663   2.906
16575TIP3    H271217   5.178   6.597   2.844
16576TIP3   OH271218   4.379   7.089   2.523
16576TIP3    H171219   4.381   7.181   2.497
16576TIP3    H271220   4.295   7.078   2.567
16577TIP3   OH271221   3.972   6.530   2.052
16577TIP3    H171222   4.012   6.603   2.099
16577TIP3    H271223   3.879   6.534   2.077
16578TIP3   OH271224   4.538   6.871   2.487
16578TIP3    H171225   4.489   6.951   2.503
16578TIP3    H271226   4.482   6.801   2.520
16579TIP3   OH271227   4.599   7.229   3.141
16579TIP3    H171228   4.581   7.310   3.189
16579TIP3    H271229   4.660   7.181   3.198
16580TIP3   OH271230   4.349   0.005   2.398
16580TIP3    H171231   4.264   0.023   2.439
16580TIP3    H271232   4.413   0.042   2.458
16581TIP3   OH271233   4.910   6.861   3.154
16581TIP3    H171234   4.855   6.857   3.232
16581TIP3    H271235   4.996   6.832   3.184
16582TIP3   OH271236   5.218   6.976   2.041
16582TIP3    H171237   5.242   6.935   2.124
16582TIP3    H271238   5.135   6.934   2.017
16583TIP3   OH271239   5.198   7.322   3.300
16583TIP3    H171240   5.119   7.270   3.313
16583TIP3    H271241   5.167   7.412   3.299
16584TIP3   OH271242   3.991   6.047   3.278
16584TIP3    H171243   3.902   6.078   3.265
16584TIP3    H271244   3.986   5.992   3.356
16585TIP3   OH271245   5.288   6.837   2.273
16585TIP3    H171246   5.247   6.757   2.306
16585TIP3    H271247   5.382   6.821   2.281
16586TIP3   OH271248   4.030   7.238   3.149
16586TIP3    H171249   4.015   7.167   3.211
16586TIP3    H271250   3.957   7.298   3.164
16587TIP3   OH271251   4.562   7.033   1.898
16587TIP3    H171252   4.576   6.960   1.838
16587TIP3    H271253   4.551   6.992   1.984
16588TIP3   OH271254   4.501   7.091   2.171
16588TIP3    H171255   4.537   7.007   2.200
16588TIP3    H271256   4.444   7.119   2.243
16589TIP3   OH271257   4.049   6.764   2.199
16589TIP3    H171258   3.974   6.806   2.240
16589TIP3    H271259   4.090   6.833   2.147
16590TIP3   OH271260   4.914   6.012   3.198
16590TIP3    H171261   4.976   6.051   3.260
16590TIP3    H271262   4.890   5.928   3.238
16591TIP3   OH271263   4.976   5.940   2.361
16591TIP3    H171264   4.985   5.978   2.273
16591TIP3    H271265   5.023   6.000   2.418
16592TIP3   OH271266   4.768   7.307   2.217
16592TIP3    H171267   4.793   7.255   2.293
16592TIP3    H271268   4.801   7.257   2.142
16593TIP3   OH271269   4.641   6.198   2.415
16593TIP3    H171270   4.717   6.256   2.419
16593TIP3    H271271   4.640   6.152   2.499
16594TIP3   OH271272   4.752   6.239   3.213
16594TIP3    H171273   4.756   6.262   3.305
16594TIP3    H271274   4.803   6.158   3.206
16595TIP3   OH271275   4.742   5.837   2.460
16595TIP3    H171276   4.720   5.902   2.526
16595TIP3    H271277   4.830   5.860   2.430
16596TIP3   OH271278   4.415   0.046   2.135
16596TIP3    H171279   4.374   0.132   2.120
16596TIP3    H271280   4.391   0.024   2.225
16597TIP3   OH271281   4.339   5.985   2.191
16597TIP3    H171282   4.331   6.070   2.235
16597TIP3    H271283   4.427   5.955   2.215
16598TIP3   OH271284   5.330   6.033   3.376
16598TIP3    H171285   5.242   6.073   3.372
16598TIP3    H271286   5.338   5.984   3.294
16599TIP3   OH271287   5.214   6.424   2.778
16599TIP3    H171288   5.128   6.383   2.778
16599TIP3    H271289   5.267   6.370   2.838
16600TIP3   OH271290   4.154   6.972   2.048
16600TIP3    H171291   4.201   7.054   2.063
16600TIP3    H271292   4.209   6.924   1.986
16601TIP3   OH271293   3.958   6.254   1.961
16601TIP3    H171294   3.974   6.344   1.990
16601TIP3    H271295   3.911   6.263   1.879
16602TIP3   OH271296   4.085   5.773   2.819
16602TIP3    H171297   4.070   5.768   2.724
16602TIP3    H271298   4.051   5.691   2.853
16603TIP3   OH271299   3.938   7.116   2.493
16603TIP3    H171300   3.895   7.143   2.575
16603TIP3    H271301   3.927   7.191   2.435
16604TIP3   OH271302   4.347   7.239   3.750
16604TIP3    H171303   4.419   7.183   3.778
16604TIP3    H271304   4.303   7.190   3.681
16605TIP3   OH271305   4.792   7.231   1.946
16605TIP3    H171306   4.814   7.145   1.911
16605TIP3    H271307   4.858   7.289   1.908
16606TIP3   OH271308   5.077   7.069   3.575
16606TIP3    H171309   5.017   7.025   3.635
16606TIP3    H271310   5.137   7.117   3.632
16607TIP3   OH271311   5.206   7.214   1.886
16607TIP3    H171312   5.228   7.144   1.948
16607TIP3    H271313   5.287   7.227   1.836
16608TIP3   OH271314   3.889   6.818   3.669
16608TIP3    H171315   3.896   6.723   3.666
16608TIP3    H271316   3.811   6.839   3.619
16609TIP3   OH271317   4.321   6.818   1.892
16609TIP3    H171318   4.344   6.761   1.965
16609TIP3    H271319   4.398   6.815   1.834
16610TIP3   OH271320   4.551   6.836   3.628
16610TIP3    H171321   4.525   6.878   3.547
16610TIP3    H271322   4.562   6.744   3.605
16611TIP3   OH271323   4.884   6.958   1.881
16611TIP3    H171324   4.867   6.950   1.975
16611TIP3    H271325   4.883   6.868   1.849
16612TIP3   OH271326   5.116   6.845   3.365
16612TIP3    H171327   5.207   6.869   3.348
16612TIP3    H271328   5.084   6.911   3.427
16613TIP3   OH271329   3.969   6.547   3.653
16613TIP3    H171330   4.055   6.513   3.627
16613TIP3    H271331   3.972   6.547   3.748
16614TIP3   OH271332   4.411   6.666   2.109
16614TIP3    H171333   4.356   6.624   2.175
16614TIP3    H271334   4.459   6.593   2.069
16615TIP3   OH271335   4.325   6.420   3.333
16615TIP3    H171336   4.270   6.495   3.353
16615TIP3    H271337   4.411   6.458   3.315
16616TIP3   OH271338   4.571   6.497   1.954
16616TIP3    H171339   4.568   6.520   1.861
16616TIP3    H271340   4.665   6.486   1.972
16617TIP3   OH271341   4.930   6.737   3.610
16617TIP3    H171342   5.017   6.701   3.592
16617TIP3    H271343   4.883   6.665   3.652
16618TIP3   OH271344   5.452   6.691   1.913
16618TIP3    H171345   5.453   6.661   1.822
16618TIP3    H271346   5.461   6.786   1.906
16619TIP3   OH271347   4.396   6.181   3.459
16619TIP3    H171348   4.430   6.124   3.390
16619TIP3    H271349   4.385   6.266   3.417
16620TIP3   OH271350   4.457   6.034   3.220
16620TIP3    H171351   4.504   6.079   3.150
16620TIP3    H271352   4.368   6.024   3.187
16621TIP3   OH271353   4.567   6.540   3.275
16621TIP3    H171354   4.660   6.529   3.258
16621TIP3    H271355   4.541   6.615   3.222
16622TIP3   OH271356   5.083   6.293   3.670
16622TIP3    H171357   5.067   6.220   3.729
16622TIP3    H271358   5.015   6.357   3.690
16623TIP3   OH271359   5.175   6.626   3.523
16623TIP3    H171360   5.156   6.696   3.461
16623TIP3    H271361   5.271   6.624   3.529
16624TIP3   OH271362   4.229   6.237   3.673
16624TIP3    H171363   4.156   6.176   3.660
16624TIP3    H271364   4.284   6.223   3.596
16625TIP3   OH271365   4.552   5.786   3.285
16625TIP3    H171366   4.524   5.877   3.279
16625TIP3    H271367   4.533   5.748   3.199
16626TIP3   OH271368   4.662   6.112   3.621
16626TIP3    H171369   4.677   6.098   3.715
16626TIP3    H271370   4.568   6.131   3.614
16627TIP3   OH271371   4.911   6.020   3.531
16627TIP3    H171372   4.826   6.047   3.565
16627TIP3    H271373   4.966   6.007   3.608
16628TIP3   OH271374   5.079   5.977   3.753
16628TIP3    H171375   5.080   5.882   3.744
16628TIP3    H271376   5.046   5.993   3.841
16629TIP3   OH271377   4.041   6.029   3.648
16629TIP3    H171378   4.048   5.947   3.598
16629TIP3    H271379   4.057   6.002   3.739
16630TIP3   OH271380   4.484   5.625   3.492
16630TIP3    H171381   4.567   5.585   3.518
16630TIP3    H271382   4.509   5.695   3.432
16631TIP3   OH271383   4.537   5.818   3.749
16631TIP3    H171384   4.545   5.809   3.654
16631TIP3    H271385   4.485   5.897   3.762
16632TIP3   OH271386   3.896   7.047   1.945
16632TIP3    H171387   3.962   7.023   2.010
16632TIP3    H271388   3.881   6.967   1.895
16633TIP3   OH271389   3.834   7.300   2.700
16633TIP3    H171390   3.828   7.235   2.770
16633TIP3    H271391   3.875   7.376   2.741
16634TIP3   OH271392   5.391   6.941   3.803
16634TIP3    H171393   5.306   6.954   3.843
16634TIP3    H271394   5.444   7.014   3.835
16635TIP3   OH271395   5.551   6.771   2.317
16635TIP3    H171396   5.628   6.828   2.313
16635TIP3    H271397   5.569   6.710   2.388
16636TIP3   OH271398   5.605   6.573   2.500
16636TIP3    H171399   5.524   6.532   2.530
16636TIP3    H271400   5.660   6.579   2.579
16637TIP3   OH271401   5.575   6.878   2.983
16637TIP3    H171402   5.631   6.806   2.957
16637TIP3    H271403   5.617   6.956   2.945
16638TIP3   OH271404   5.368   7.138   3.176
16638TIP3    H171405   5.315   7.207   3.215
16638TIP3    H271406   5.339   7.133   3.085
16639TIP3   OH271407   5.590   6.580   2.122
16639TIP3    H171408   5.541   6.612   2.046
16639TIP3    H271409   5.572   6.644   2.191
16640TIP3   OH271410   5.408   6.281   1.929
16640TIP3    H171411   5.401   6.329   1.846
16640TIP3    H271412   5.399   6.189   1.904
16641TIP3   OH271413   5.358   6.443   2.540
16641TIP3    H171414   5.356   6.352   2.509
16641TIP3    H271415   5.314   6.440   2.625
16642TIP3   OH271416   3.832   6.633   2.966
16642TIP3    H171417   3.846   6.617   2.872
16642TIP3    H271418   3.914   6.608   3.007
16643TIP3   OH271419   5.451   6.636   3.527
16643TIP3    H171420   5.499   6.557   3.505
16643TIP3    H271421   5.508   6.708   3.499
16644TIP3   OH271422   5.573   6.394   3.488
16644TIP3    H171423   5.486   6.358   3.507
16644TIP3    H271424   5.633   6.323   3.511
16645TIP3   OH271425   5.367   6.028   1.816
16645TIP3    H171426   5.411   5.983   1.888
16645TIP3    H271427   5.275   6.000   1.824
16646TIP3   OH271428   5.330   6.205   2.356
16646TIP3    H171429   5.359   6.114   2.363
16646TIP3    H271430   5.396   6.247   2.301
16647TIP3   OH271431   5.363   6.250   2.936
16647TIP3    H171432   5.456   6.261   2.916
16647TIP3    H271433   5.357   6.266   3.031
16648TIP3   OH271434   5.388   6.322   3.205
16648TIP3    H171435   5.310   6.346   3.255
16648TIP3    H271436   5.439   6.404   3.199
16649TIP3   OH271437   3.825   6.156   3.533
16649TIP3    H171438   3.907   6.131   3.576
16649TIP3    H271439   3.766   6.082   3.547
16650TIP3   OH271440   5.629   5.746   3.721
16650TIP3    H171441   5.696   5.688   3.684
16650TIP3    H271442   5.619   5.816   3.656
16651TIP3   OH271443   5.396   5.937   2.383
16651TIP3    H171444   5.414   5.901   2.470
16651TIP3    H271445   5.333   5.875   2.345
16652TIP3   OH271446   3.946   6.011   2.850
16652TIP3    H171447   3.987   5.925   2.850
16652TIP3    H271448   4.017   6.072   2.869
16653TIP3   OH271449   3.746   6.284   2.925
16653TIP3    H171450   3.815   6.288   2.859
16653TIP3    H271451   3.775   6.343   2.995
16654TIP3   OH271452   5.544   5.946   3.551
16654TIP3    H171453   5.477   5.980   3.610
16654TIP3    H271454   5.497   5.930   3.469
16655TIP3   OH271455   5.517   5.922   2.020
16655TIP3    H171456   5.568   5.864   1.963
16655TIP3    H271457   5.583   5.976   2.064
16656TIP3   OH271458   3.789   5.935   2.350
16656TIP3    H171459   3.695   5.935   2.363
16656TIP3    H271460   3.803   6.000   2.281
16657TIP3   OH271461   3.790   5.759   3.160
16657TIP3    H171462   3.730   5.762   3.235
16657TIP3    H271463   3.769   5.838   3.110
16658TIP3   OH271464   4.016   7.172   3.597
16658TIP3    H171465   3.927   7.179   3.562
16658TIP3    H271466   4.004   7.142   3.687
16659TIP3   OH271467   4.296   7.260   3.204
16659TIP3    H171468   4.203   7.261   3.183
16659TIP3    H271469   4.340   7.270   3.120
16660TIP3   OH271470   5.455   5.729   3.352
16660TIP3    H171471   5.397   5.757   3.282
16660TIP3    H271472   5.478   5.639   3.329
16661TIP3   OH271473   4.200   7.234   2.773
16661TIP3    H171474   4.170   7.145   2.795
16661TIP3    H271475   4.287   7.240   2.812
16662TIP3   OH271476   4.449   7.197   2.916
16662TIP3    H171477   4.457   7.107   2.884
16662TIP3    H271478   4.506   7.200   2.993
16663TIP3   OH271479   4.802   5.860   2.791
16663TIP3    H171480   4.732   5.795   2.801
16663TIP3    H271481   4.874   5.811   2.751
16664TIP3   OH271482   5.300   5.721   2.807
16664TIP3    H171483   5.363   5.774   2.757
16664TIP3    H271484   5.216   5.763   2.791
16665TIP3   OH271485   5.474   5.832   2.627
16665TIP3    H171486   5.536   5.762   2.603
16665TIP3    H271487   5.530   5.909   2.641
16666TIP3   OH271488   4.026   5.735   2.551
16666TIP3    H171489   3.934   5.715   2.536
16666TIP3    H271490   4.069   5.650   2.548
16667TIP3   OH271491   3.903   5.752   2.172
16667TIP3    H171492   3.948   5.821   2.123
16667TIP3    H271493   3.862   5.798   2.245
16668TIP3   OH271494   4.517   5.698   2.560
16668TIP3    H171495   4.592   5.740   2.518
16668TIP3    H271496   4.536   5.704   2.654
16669TIP3   OH271497   5.018   5.707   2.705
16669TIP3    H171498   5.077   5.679   2.635
16669TIP3    H271499   4.998   5.627   2.753
16670TIP3   OH271500   5.188   5.769   2.292
16670TIP3    H171501   5.112   5.821   2.318
16670TIP3    H271502   5.161   5.679   2.307
16671TIP3   OH271503   3.916   0.011   2.361
16671TIP3    H171504   3.945   0.022   2.271
16671TIP3    H271505   3.853   0.082   2.375
16672TIP3   OH271506   4.194   5.856   1.988
16672TIP3    H171507   4.180   5.762   1.998
16672TIP3    H271508   4.231   5.884   2.072
16673TIP3   OH271509   4.605   5.976   2.260
16673TIP3    H171510   4.643   5.905   2.312
16673TIP3    H271511   4.619   6.055   2.312
16674TIP3   OH271512   4.045   5.782   3.499
16674TIP3    H171513   3.987   5.715   3.533
16674TIP3    H271514   4.127   5.770   3.546
16675TIP3   OH271515   4.241   5.719   3.681
16675TIP3    H171516   4.329   5.687   3.663
16675TIP3    H271517   4.199   5.647   3.729
16676TIP3   OH271518   5.112   5.704   3.705
16676TIP3    H171519   5.100   5.652   3.784
16676TIP3    H271520   5.204   5.692   3.681
16677TIP3   OH271521   5.406   7.280   3.515
16677TIP3    H171522   5.318   7.264   3.482
16677TIP3    H271523   5.395   7.290   3.609
16678TIP3   OH271524   6.844   6.703   2.517
16678TIP3    H171525   6.802   6.786   2.541
16678TIP3    H271526   6.779   6.658   2.463
16679TIP3   OH271527   6.723   6.586   2.912
16679TIP3    H171528   6.746   6.546   2.996
16679TIP3    H271529   6.685   6.514   2.862
16680TIP3   OH271530   5.936   6.541   3.087
16680TIP3    H171531   5.941   6.454   3.125
16680TIP3    H271532   5.989   6.596   3.146
16681TIP3   OH271533   7.092   6.911   2.748
16681TIP3    H171534   7.062   6.834   2.797
16681TIP3    H271535   7.115   6.974   2.816
16682TIP3   OH271536   5.994   6.968   2.865
16682TIP3    H171537   5.998   6.876   2.836
16682TIP3    H271538   6.045   6.969   2.946
16683TIP3   OH271539   5.735   6.349   2.384
16683TIP3    H171540   5.700   6.429   2.424
16683TIP3    H271541   5.665   6.318   2.327
16684TIP3   OH271542   5.794   6.577   2.707
16684TIP3    H171543   5.819   6.487   2.725
16684TIP3    H271544   5.874   6.628   2.722
16685TIP3   OH271545   6.591   6.828   2.953
16685TIP3    H171546   6.626   6.745   2.920
16685TIP3    H271547   6.657   6.860   3.014
16686TIP3   OH271548   6.871   6.253   2.963
16686TIP3    H171549   6.876   6.157   2.972
16686TIP3    H271550   6.857   6.268   2.870
16687TIP3   OH271551   6.224   6.084   2.687
16687TIP3    H171552   6.226   6.168   2.641
16687TIP3    H271553   6.175   6.026   2.629
16688TIP3   OH271554   6.987   6.095   2.528
16688TIP3    H171555   7.030   6.045   2.597
16688TIP3    H271556   7.059   6.126   2.472
16689TIP3   OH271557   5.871   6.320   2.768
16689TIP3    H171558   5.933   6.274   2.824
16689TIP3    H271559   5.888   6.286   2.680
16690TIP3   OH271560   6.358   6.483   2.715
16690TIP3    H171561   6.442   6.445   2.742
16690TIP3    H271562   6.314   6.414   2.666
16691TIP3   OH271563   6.130   6.000   3.129
16691TIP3    H171564   6.104   6.056   3.055
16691TIP3    H271565   6.055   6.004   3.188
16692TIP3   OH271566   6.703   6.946   2.450
16692TIP3    H171567   6.776   6.943   2.387
16692TIP3    H271568   6.703   7.037   2.481
16693TIP3   OH271569   6.348   6.783   3.083
16693TIP3    H171570   6.285   6.855   3.088
16693TIP3    H271571   6.426   6.822   3.044
16694TIP3   OH271572   7.095   5.978   2.751
16694TIP3    H171573   7.034   5.942   2.816
16694TIP3    H271574   7.159   6.027   2.803
16695TIP3   OH271575   6.059   6.153   2.898
16695TIP3    H171576   6.112   6.217   2.946
16695TIP3    H271577   6.117   6.119   2.831
16696TIP3   OH271578   6.147   6.982   3.098
16696TIP3    H171579   6.178   7.070   3.118
16696TIP3    H271580   6.076   6.967   3.160
16697TIP3   OH271581   5.775   6.929   2.272
16697TIP3    H171582   5.759   6.981   2.193
16697TIP3    H271583   5.822   6.989   2.331
16698TIP3   OH271584   7.120   7.130   2.928
16698TIP3    H171585   7.037   7.126   2.975
16698TIP3    H271586   7.114   7.210   2.876
16699TIP3   OH271587   7.120   5.885   3.053
16699TIP3    H171588   7.030   5.912   3.032
16699TIP3    H271589   7.173   5.961   3.028
16700TIP3   OH271590   6.400   5.662   2.818
16700TIP3    H171591   6.386   5.571   2.845
16700TIP3    H271592   6.335   5.712   2.868
16701TIP3   OH271593   7.011   7.269   2.529
16701TIP3    H171594   7.032   7.178   2.511
16701TIP3    H271595   7.063   7.291   2.606
16702TIP3   OH271596   7.072   7.010   2.493
16702TIP3    H171597   7.109   6.947   2.432
16702TIP3    H271598   7.080   6.969   2.579
16703TIP3   OH271599   7.174   6.916   3.293
16703TIP3    H171600   7.183   6.852   3.222
16703TIP3    H271601   7.236   6.985   3.271
16704TIP3   OH271602   6.701   6.597   2.303
16704TIP3    H171603   6.643   6.665   2.268
16704TIP3    H271604   6.773   6.593   2.239
16705TIP3   OH271605   6.751   6.472   1.957
16705TIP3    H171606   6.805   6.495   2.033
16705TIP3    H271607   6.803   6.407   1.909
16706TIP3   OH271608   7.068   6.616   2.387
16706TIP3    H171609   7.000   6.646   2.447
16706TIP3    H271610   7.117   6.550   2.437
16707TIP3   OH271611   7.002   6.407   3.324
16707TIP3    H171612   6.994   6.468   3.396
16707TIP3    H271613   6.935   6.434   3.261
16708TIP3   OH271614   6.222   6.672   2.571
16708TIP3    H171615   6.194   6.628   2.492
16708TIP3    H271616   6.273   6.607   2.619
16709TIP3   OH271617   6.386   6.962   2.826
16709TIP3    H171618   6.329   6.885   2.825
16709TIP3    H271619   6.470   6.929   2.857
16710TIP3   OH271620   6.223   6.580   2.939
16710TIP3    H171621   6.284   6.549   2.872
16710TIP3    H271622   6.275   6.639   2.994
16711TIP3   OH271623   6.894   7.112   3.077
16711TIP3    H171624   6.896   7.141   3.168
16711TIP3    H271625   6.855   7.025   3.081
16712TIP3   OH271626   6.363   7.022   3.341
16712TIP3    H171627   6.328   7.022   3.430
16712TIP3    H271628   6.364   6.930   3.315
16713TIP3   OH271629   6.937   6.559   2.153
16713TIP3    H171630   6.986   6.584   2.231
16713TIP3    H271631   6.989   6.592   2.080
16714TIP3   OH271632   6.030   6.620   3.348
16714TIP3    H171633   6.037   6.699   3.400
16714TIP3    H271634   5.936   6.599   3.348
16715TIP3   OH271635   6.734   7.215   2.501
16715TIP3    H171636   6.828   7.228   2.514
16715TIP3    H271637   6.694   7.297   2.531
16716TIP3   OH271638   6.103   7.209   3.438
16716TIP3    H171639   6.152   7.143   3.487
16716TIP3    H271640   6.023   7.223   3.488
16717TIP3   OH271641   7.245   5.822   2.059
16717TIP3    H171642   7.183   5.791   2.125
16717TIP3    H271643   7.329   5.785   2.086
16718TIP3   OH271644   6.139   6.578   2.318
16718TIP3    H171645   6.071   6.632   2.276
16718TIP3    H271646   6.106   6.488   2.311
16719TIP3   OH271647   5.712   6.822   3.237
16719TIP3    H171648   5.656   6.825   3.159
16719TIP3    H271649   5.724   6.729   3.256
16720TIP3   OH271650   5.749   7.097   2.882
16720TIP3    H171651   5.826   7.042   2.867
16720TIP3    H271652   5.766   7.139   2.966
16721TIP3   OH271653   6.600   7.153   3.378
16721TIP3    H171654   6.575   7.220   3.441
16721TIP3    H271655   6.520   7.103   3.363
16722TIP3   OH271656   7.198   6.324   3.573
16722TIP3    H171657   7.209   6.396   3.511
16722TIP3    H271658   7.262   6.259   3.545
16723TIP3   OH271659   5.933   6.978   3.269
16723TIP3    H171660   5.963   6.948   3.355
16723TIP3    H271661   5.852   6.929   3.253
16724TIP3   OH271662   6.187   5.790   2.950
16724TIP3    H171663   6.104   5.791   2.901
16724TIP3    H271664   6.180   5.863   3.010
16725TIP3   OH271665   6.668   5.797   3.394
16725TIP3    H171666   6.717   5.722   3.427
16725TIP3    H271667   6.653   5.777   3.301
16726TIP3   OH271668   7.010   6.128   3.381
16726TIP3    H171669   6.941   6.123   3.447
16726TIP3    H271670   7.019   6.221   3.363
16727TIP3   OH271671   7.080   6.649   1.939
16727TIP3    H171672   7.057   6.621   1.850
16727TIP3    H271673   7.139   6.723   1.926
16728TIP3   OH271674   6.619   6.011   2.027
16728TIP3    H171675   6.567   6.001   2.107
16728TIP3    H271676   6.586   5.943   1.968
16729TIP3   OH271677   6.198   6.328   3.054
16729TIP3    H171678   6.136   6.328   3.127
16729TIP3    H271679   6.197   6.419   3.023
16730TIP3   OH271680   6.204   6.322   2.548
16730TIP3    H171681   6.110   6.306   2.546
16730TIP3    H271682   6.235   6.300   2.460
16731TIP3   OH271683   6.750   6.352   2.429
16731TIP3    H171684   6.728   6.438   2.393
16731TIP3    H271685   6.822   6.321   2.375
16732TIP3   OH271686   6.680   6.352   3.553
16732TIP3    H171687   6.629   6.285   3.598
16732TIP3    H271688   6.766   6.350   3.595
16733TIP3   OH271689   6.873   6.287   2.688
16733TIP3    H171690   6.814   6.335   2.631
16733TIP3    H271691   6.907   6.216   2.634
16734TIP3   OH271692   5.991   6.311   3.237
16734TIP3    H171693   6.002   6.347   3.325
16734TIP3    H271694   5.957   6.223   3.250
16735TIP3   OH271695   6.317   6.054   1.912
16735TIP3    H171696   6.284   6.036   2.000
16735TIP3    H271697   6.255   6.118   1.876
16736TIP3   OH271698   5.666   6.024   2.628
16736TIP3    H171699   5.719   6.030   2.707
16736TIP3    H271700   5.727   5.992   2.561
16737TIP3   OH271701   5.691   6.105   2.136
16737TIP3    H171702   5.762   6.144   2.084
16737TIP3    H271703   5.633   6.179   2.156
16738TIP3   OH271704   6.784   6.441   3.140
16738TIP3    H171705   6.819   6.374   3.081
16738TIP3    H271706   6.711   6.397   3.185
16739TIP3   OH271707   6.509   6.106   2.681
16739TIP3    H171708   6.418   6.084   2.702
16739TIP3    H271709   6.560   6.031   2.710
16740TIP3   OH271710   5.948   6.230   2.520
16740TIP3    H171711   5.875   6.256   2.463
16740TIP3    H271712   5.968   6.140   2.493
16741TIP3   OH271713   6.274   6.249   2.294
16741TIP3    H171714   6.368   6.237   2.313
16741TIP3    H271715   6.273   6.286   2.206
16742TIP3   OH271716   6.869   5.970   2.945
16742TIP3    H171717   6.800   5.931   2.998
16742TIP3    H271718   6.833   5.970   2.856
16743TIP3   OH271719   6.248   6.350   2.038
16743TIP3    H171720   6.195   6.318   1.964
16743TIP3    H271721   6.326   6.387   1.998
16744TIP3   OH271722   5.999   6.847   3.504
16744TIP3    H171723   6.076   6.884   3.547
16744TIP3    H271724   5.932   6.844   3.572
16745TIP3   OH271725   6.583   6.355   2.811
16745TIP3    H171726   6.584   6.272   2.763
16745TIP3    H271727   6.553   6.331   2.899
16746TIP3   OH271728   6.058   5.968   2.489
16746TIP3    H171729   6.001   5.897   2.518
16746TIP3    H271730   6.110   5.930   2.418
16747TIP3   OH271731   6.477   6.290   3.051
16747TIP3    H171732   6.381   6.292   3.059
16747TIP3    H271733   6.508   6.285   3.142
16748TIP3   OH271734   6.519   6.810   2.226
16748TIP3    H171735   6.448   6.763   2.183
16748TIP3    H271736   6.484   6.830   2.313
16749TIP3   OH271737   7.211   6.752   3.075
16749TIP3    H171738   7.280   6.714   3.020
16749TIP3    H271739   7.130   6.736   3.026
16750TIP3   OH271740   6.877   6.062   2.102
16750TIP3    H171741   6.784   6.060   2.077
16750TIP3    H271742   6.889   6.148   2.143
16751TIP3   OH271743   6.696   6.889   3.397
16751TIP3    H171744   6.629   6.843   3.448
16751TIP3    H271745   6.677   6.982   3.412
16752TIP3   OH271746   6.956   6.287   2.249
16752TIP3    H171747   7.041   6.259   2.283
16752TIP3    H271748   6.972   6.374   2.212
16753TIP3   OH271749   6.034   6.706   2.778
16753TIP3    H171750   6.095   6.699   2.704
16753TIP3    H271751   6.075   6.655   2.848
16754TIP3   OH271752   6.742   6.949   2.137
16754TIP3    H171753   6.706   7.037   2.141
16754TIP3    H271754   6.674   6.893   2.174
16755TIP3   OH271755   5.757   6.573   3.362
16755TIP3    H171756   5.764   6.553   3.455
16755TIP3    H271757   5.682   6.522   3.332
16756TIP3   OH271758   6.455   6.524   3.582
16756TIP3    H171759   6.389   6.498   3.519
16756TIP3    H271760   6.536   6.482   3.552
16757TIP3   OH271761   6.878   7.169   3.347
16757TIP3    H171762   6.782   7.173   3.347
16757TIP3    H271763   6.900   7.141   3.436
16758TIP3   OH271764   7.313   7.175   2.203
16758TIP3    H171765   7.257   7.111   2.246
16758TIP3    H271766   7.361   7.126   2.137
16759TIP3   OH271767   7.000   6.685   2.897
16759TIP3    H171768   6.905   6.670   2.896
16759TIP3    H271769   7.037   6.607   2.855
16760TIP3   OH271770   6.239   7.167   2.555
16760TIP3    H171771   6.312   7.228   2.566
16760TIP3    H271772   6.188   7.176   2.635
16761TIP3   OH271773   5.850   6.542   2.037
16761TIP3    H171774   5.901   6.603   2.090
16761TIP3    H271775   5.761   6.546   2.074
16762TIP3   OH271776   6.359   6.883   2.461
16762TIP3    H171777   6.429   6.911   2.520
16762TIP3    H271778   6.320   6.807   2.506
16763TIP3   OH271779   6.526   7.264   3.107
16763TIP3    H171780   6.558   7.345   3.146
16763TIP3    H271781   6.567   7.195   3.158
16764TIP3   OH271782   6.208   0.084   2.389
16764TIP3    H171783   6.129   0.050   2.432
16764TIP3    H271784   6.277   0.074   2.455
16765TIP3   OH271785   6.788   6.862   3.141
16765TIP3    H171786   6.750   6.869   3.229
16765TIP3    H271787   6.862   6.803   3.152
16766TIP3   OH271788   7.019   6.973   2.095
16766TIP3    H171789   7.064   6.931   2.168
16766TIP3    H271790   6.926   6.960   2.114
16767TIP3   OH271791   7.135   7.288   3.329
16767TIP3    H171792   7.063   7.224   3.334
16767TIP3    H271793   7.092   7.373   3.334
16768TIP3   OH271794   5.892   6.051   3.276
16768TIP3    H171795   5.801   6.074   3.256
16768TIP3    H271796   5.886   5.980   3.339
16769TIP3   OH271797   7.170   6.849   2.287
16769TIP3    H171798   7.144   6.763   2.319
16769TIP3    H271799   7.266   6.846   2.286
16770TIP3   OH271800   5.858   7.203   3.112
16770TIP3    H171801   5.887   7.139   3.177
16770TIP3    H271802   5.813   7.271   3.164
16771TIP3   OH271803   6.438   7.036   1.901
16771TIP3    H171804   6.446   6.954   1.851
16771TIP3    H271805   6.448   7.009   1.992
16772TIP3   OH271806   6.343   7.073   2.214
16772TIP3    H171807   6.432   7.038   2.223
16772TIP3    H271808   6.355   7.165   2.191
16773TIP3   OH271809   5.968   6.754   2.182
16773TIP3    H171810   5.893   6.796   2.224
16773TIP3    H271811   6.010   6.823   2.132
16774TIP3   OH271812   6.763   6.068   3.257
16774TIP3    H171813   6.858   6.061   3.266
16774TIP3    H271814   6.740   6.004   3.190
16775TIP3   OH271815   6.863   5.927   2.345
16775TIP3    H171816   6.870   5.971   2.260
16775TIP3    H271817   6.901   5.990   2.407
16776TIP3   OH271818   6.612   7.192   2.119
16776TIP3    H171819   6.546   7.247   2.160
16776TIP3    H271820   6.655   7.249   2.056
16777TIP3   OH271821   6.524   6.194   2.418
16777TIP3    H171822   6.603   6.249   2.418
16777TIP3    H271823   6.515   6.165   2.509
16778TIP3   OH271824   6.613   6.286   3.296
16778TIP3    H171825   6.638   6.319   3.383
16778TIP3    H271826   6.677   6.217   3.279
16779TIP3   OH271827   6.640   5.829   2.473
16779TIP3    H171828   6.652   5.859   2.563
16779TIP3    H271829   6.718   5.861   2.427
16780TIP3   OH271830   6.384  -0.000   2.180
16780TIP3    H171831   6.396   0.064   2.110
16780TIP3    H271832   6.324   0.042   2.241
16781TIP3   OH271833   6.221   5.998   2.167
16781TIP3    H171834   6.210   6.079   2.216
16781TIP3    H271835   6.305   5.962   2.197
16782TIP3   OH271836   7.232   5.952   3.394
16782TIP3    H171837   7.152   6.001   3.376
16782TIP3    H271838   7.289   6.014   3.439
16783TIP3   OH271839   7.088   6.438   2.795
16783TIP3    H171840   7.011   6.383   2.778
16783TIP3    H271841   7.137   6.390   2.862
16784TIP3   OH271842   6.068   6.981   2.033
16784TIP3    H171843   6.108   7.064   2.005
16784TIP3    H271844   6.115   6.914   1.984
16785TIP3   OH271845   5.836   6.268   1.973
16785TIP3    H171846   5.853   6.360   1.993
16785TIP3    H271847   5.793   6.270   1.888
16786TIP3   OH271848   5.933   5.773   2.839
16786TIP3    H171849   5.925   5.759   2.744
16786TIP3    H271850   5.906   5.690   2.878
16787TIP3   OH271851   5.963   7.101   2.413
16787TIP3    H171852   5.949   7.109   2.507
16787TIP3    H271853   5.906   7.168   2.374
16788TIP3   OH271854   6.306   7.285   3.726
16788TIP3    H171855   6.367   7.268   3.798
16788TIP3    H271856   6.276   7.198   3.699
16789TIP3   OH271857   6.612   7.209   1.769
16789TIP3    H171858   6.564   7.148   1.825
16789TIP3    H271859   6.704   7.187   1.784
16790TIP3   OH271860   6.914   7.100   3.605
16790TIP3    H171861   6.876   7.026   3.653
16790TIP3    H271862   6.983   7.133   3.663
16791TIP3   OH271863   7.099   7.169   1.921
16791TIP3    H171864   7.070   7.111   1.991
16791TIP3    H271865   7.133   7.246   1.967
16792TIP3   OH271866   5.778   6.835   3.679
16792TIP3    H171867   5.790   6.740   3.679
16792TIP3    H271868   5.702   6.849   3.622
16793TIP3   OH271869   6.200   6.789   1.893
16793TIP3    H171870   6.226   6.737   1.969
16793TIP3    H271871   6.279   6.794   1.839
16794TIP3   OH271872   6.470   6.797   3.525
16794TIP3    H171873   6.401   6.844   3.573
16794TIP3    H271874   6.466   6.708   3.560
16795TIP3   OH271875   6.752   6.934   1.854
16795TIP3    H171876   6.753   6.926   1.949
16795TIP3    H271877   6.753   6.844   1.822
16796TIP3   OH271878   6.951   6.778   3.377
16796TIP3    H171879   7.021   6.840   3.360
16796TIP3    H271880   6.875   6.832   3.398
16797TIP3   OH271881   5.868   6.568   3.642
16797TIP3    H171882   5.963   6.577   3.631
16797TIP3    H271883   5.857   6.551   3.735
16798TIP3   OH271884   6.316   6.660   2.112
16798TIP3    H171885   6.266   6.615   2.179
16798TIP3    H271886   6.363   6.590   2.066
16799TIP3   OH271887   6.260   6.461   3.376
16799TIP3    H171888   6.186   6.520   3.368
16799TIP3    H271889   6.327   6.498   3.318
16800TIP3   OH271890   6.468   6.491   1.946
16800TIP3    H171891   6.463   6.511   1.852
16800TIP3    H271892   6.561   6.474   1.962
16801TIP3   OH271893   6.773   6.659   3.688
16801TIP3    H171894   6.846   6.624   3.639
16801TIP3    H271895   6.748   6.589   3.748
16802TIP3   OH271896   6.290   6.201   3.446
16802TIP3    H171897   6.315   6.151   3.369
16802TIP3    H271898   6.279   6.291   3.415
16803TIP3   OH271899   6.400   6.031   3.248
16803TIP3    H171900   6.458   5.995   3.181
16803TIP3    H271901   6.312   6.011   3.217
16804TIP3   OH271902   6.456   6.576   3.230
16804TIP3    H171903   6.551   6.586   3.227
16804TIP3    H271904   6.423   6.652   3.182
16805TIP3   OH271905   6.925   6.313   3.694
16805TIP3    H171906   6.960   6.229   3.723
16805TIP3    H271907   6.999   6.358   3.653
16806TIP3   OH271908   7.013   6.585   3.552
16806TIP3    H171909   6.984   6.654   3.492
16806TIP3    H271910   7.109   6.593   3.553
16807TIP3   OH271911   6.141   6.221   3.683
16807TIP3    H171912   6.057   6.177   3.673
16807TIP3    H271913   6.179   6.219   3.595
16808TIP3   OH271914   6.380   5.718   3.272
16808TIP3    H171915   6.435   5.752   3.202
16808TIP3    H271916   6.308   5.674   3.227
16809TIP3   OH271917   6.503   6.131   3.601
16809TIP3    H171918   6.472   6.102   3.687
16809TIP3    H271919   6.426   6.166   3.558
16810TIP3   OH271920   6.777   6.054   3.567
16810TIP3    H171921   6.714   6.078   3.635
16810TIP3    H271922   6.849   6.012   3.614
16811TIP3   OH271923   6.967   5.957   3.740
16811TIP3    H171924   6.970   5.861   3.742
16811TIP3    H271925   6.944   5.982   3.829
16812TIP3   OH271926   5.929   6.037   3.649
16812TIP3    H171927   5.933   5.957   3.596
16812TIP3    H271928   5.941   6.008   3.739
16813TIP3   OH271929   6.384   5.661   3.541
16813TIP3    H171930   6.435   5.580   3.535
16813TIP3    H271931   6.377   5.691   3.450
16814TIP3   OH271932   6.470   5.820   3.752
16814TIP3    H171933   6.444   5.765   3.678
16814TIP3    H271934   6.403   5.889   3.754
16815TIP3   OH271935   5.801   7.032   2.006
16815TIP3    H171936   5.894   7.013   2.020
16815TIP3    H271937   5.772   6.964   1.945
16816TIP3   OH271938   5.724   7.330   2.714
16816TIP3    H171939   5.711   7.243   2.751
16816TIP3    H271940   5.773   7.378   2.782
16817TIP3   OH271941   7.224   6.893   3.799
16817TIP3    H171942   7.141   6.928   3.833
16817TIP3    H271943   7.291   6.951   3.835
16818TIP3   OH271944   7.298   7.128   3.143
16818TIP3    H171945   7.256   7.194   3.197
16818TIP3    H271946   7.240   7.118   3.068
16819TIP3   OH271947   7.304   6.257   1.932
16819TIP3    H171948   7.259   6.309   1.866
16819TIP3    H271949   7.282   6.167   1.910
16820TIP3   OH271950   7.187   6.417   2.533
16820TIP3    H171951   7.185   6.322   2.525
16820TIP3    H271952   7.165   6.433   2.625
16821TIP3   OH271953   5.716   6.644   2.964
16821TIP3    H171954   5.726   6.617   2.872
16821TIP3    H271955   5.796   6.613   3.006
16822TIP3   OH271956   7.280   6.624   3.541
16822TIP3    H171957   7.363   6.587   3.573
16822TIP3    H271958   7.307   6.696   3.484
16823TIP3   OH271959   7.232   6.004   1.852
16823TIP3    H171960   7.250   5.940   1.920
16823TIP3    H271961   7.138   5.998   1.836
16824TIP3   OH271962   7.198   6.175   2.365
16824TIP3    H171963   7.219   6.088   2.399
16824TIP3    H271964   7.272   6.198   2.308
16825TIP3   OH271965   7.261   6.098   2.938
16825TIP3    H171966   7.348   6.068   2.911
16825TIP3    H271967   7.272   6.190   2.958
16826TIP3   OH271968   7.277   6.383   3.252
16826TIP3    H171969   7.182   6.390   3.263
16826TIP3    H271970   7.289   6.363   3.160
16827TIP3   OH271971   5.714   6.159   3.525
16827TIP3    H171972   5.795   6.134   3.568
16827TIP3    H271973   5.654   6.087   3.541
16828TIP3   OH271974   7.224   5.905   2.423
16828TIP3    H171975   7.261   5.842   2.485
16828TIP3    H271976   7.165   5.852   2.368
16829TIP3   OH271977   5.810   6.015   2.870
16829TIP3    H171978   5.844   5.925   2.866
16829TIP3    H271979   5.887   6.069   2.888
16830TIP3   OH271980   5.631   6.305   2.918
16830TIP3    H171981   5.704   6.301   2.857
16830TIP3    H271982   5.672   6.327   3.002
16831TIP3   OH271983   5.690   5.917   2.333
16831TIP3    H171984   5.596   5.915   2.354
16831TIP3    H271985   5.699   5.988   2.271
16832TIP3   OH271986   5.691   5.782   3.204
16832TIP3    H171987   5.619   5.773   3.266
16832TIP3    H271988   5.657   5.843   3.138
16833TIP3   OH271989   5.895   7.223   3.630
16833TIP3    H171990   5.815   7.198   3.582
16833TIP3    H271991   5.896   7.167   3.707
16834TIP3   OH271992   6.233   7.234   3.197
16834TIP3    H171993   6.172   7.237   3.270
16834TIP3    H271994   6.309   7.187   3.230
16835TIP3   OH271995   6.064   7.215   2.765
16835TIP3    H171996   6.025   7.134   2.797
16835TIP3    H271997   6.141   7.228   2.820
16836TIP3   OH271998   6.291   7.210   2.909
16836TIP3    H171999   6.334   7.129   2.884
16836TIP3    H272000   6.316   7.223   3.000
16837TIP3   OH272001   6.661   5.879   2.755
16837TIP3    H172002   6.613   5.860   2.836
16837TIP3    H272003   6.733   5.817   2.754
16838TIP3   OH272004   7.173   5.683   2.772
16838TIP3    H172005   7.223   5.762   2.750
16838TIP3    H272006   7.082   5.711   2.771
16839TIP3   OH272007   5.907   5.751   2.562
16839TIP3    H172008   5.816   5.726   2.541
16839TIP3    H272009   5.956   5.669   2.557
16840TIP3   OH272010   5.797   5.733   2.144
16840TIP3    H172011   5.863   5.786   2.100
16840TIP3    H272012   5.768   5.787   2.217
16841TIP3   OH272013   6.398   5.716   2.550
16841TIP3    H172014   6.481   5.758   2.528
16841TIP3    H272015   6.401   5.704   2.644
16842TIP3   OH272016   6.888   5.717   2.737
16842TIP3    H172017   6.904   5.685   2.648
16842TIP3    H272018   6.868   5.639   2.787
16843TIP3   OH272019   7.063   5.746   2.271
16843TIP3    H172020   6.984   5.797   2.288
16843TIP3    H272021   7.036   5.655   2.284
16844TIP3   OH272022   5.751   7.261   2.328
16844TIP3    H172023   5.665   7.221   2.319
16844TIP3    H272024   5.734   7.355   2.329
16845TIP3   OH272025   6.016   5.884   2.003
16845TIP3    H172026   6.065   5.822   1.949
16845TIP3    H272027   6.080   5.917   2.065
16846TIP3   OH272028   6.482   5.969   2.265
16846TIP3    H172029   6.512   5.895   2.318
16846TIP3    H272030   6.499   6.046   2.319
16847TIP3   OH272031   5.939   5.794   3.508
16847TIP3    H172032   5.882   5.725   3.540
16847TIP3    H272033   6.022   5.779   3.553
16848TIP3   OH272034   6.145   5.724   3.680
16848TIP3    H172035   6.225   5.695   3.638
16848TIP3    H272036   6.110   5.646   3.723
16849TIP3   OH272037   7.005   5.674   3.725
16849TIP3    H172038   7.026   5.654   3.816
16849TIP3    H272039   7.090   5.683   3.682
16850TIP3   OH272040   7.347   7.316   3.513
16850TIP3    H172041   7.277   7.287   3.454
16850TIP3    H272042   7.303   7.333   3.596
16851TIP3   OH272043   1.207   1.044   4.412
16851TIP3    H172044   1.194   1.138   4.400
16851TIP3    H272045   1.132   1.004   4.368
16852TIP3   OH272046   1.072   0.951   4.813
16852TIP3    H172047   1.091   0.909   4.897
16852TIP3    H272048   1.029   0.882   4.761
16853TIP3   OH272049   0.291   0.885   4.948
16853TIP3    H172050   0.292   0.799   4.991
16853TIP3    H272051   0.342   0.941   5.006
16854TIP3   OH272052   1.470   1.252   4.627
16854TIP3    H172053   1.433   1.178   4.674
16854TIP3    H272054   1.492   1.315   4.696
16855TIP3   OH272055   0.409   1.338   4.765
16855TIP3    H172056   0.387   1.251   4.731
16855TIP3    H272057   0.481   1.323   4.826
16856TIP3   OH272058   0.077   0.652   4.306
16856TIP3    H172059   0.038   0.731   4.343
16856TIP3    H272060   0.066   0.586   4.375
16857TIP3   OH272061   0.188   0.936   4.561
16857TIP3    H172062   0.208   0.848   4.594
16857TIP3    H272063   0.261   0.990   4.590
16858TIP3   OH272064   1.207   1.748   4.689
16858TIP3    H172065   1.228   1.669   4.638
16858TIP3    H272066   1.214   1.720   4.780
16859TIP3   OH272067   0.934   1.197   4.846
16859TIP3    H172068   0.977   1.118   4.812
16859TIP3    H272069   0.994   1.230   4.913
16860TIP3   OH272070   1.826   0.333   4.947
16860TIP3    H172071   1.834   0.406   5.007
16860TIP3    H272072   1.871   0.362   4.868
16861TIP3   OH272073   1.222   0.624   4.846
16861TIP3    H172074   1.241   0.532   4.863
16861TIP3    H272075   1.211   0.629   4.751
16862TIP3   OH272076   0.590   0.426   4.576
16862TIP3    H172077   0.604   0.507   4.528
16862TIP3    H272078   0.536   0.373   4.517
16863TIP3   OH272079   1.356   0.449   4.419
16863TIP3    H172080   1.393   0.417   4.502
16863TIP3    H272081   1.431   0.486   4.373
16864TIP3   OH272082   0.244   0.680   4.652
16864TIP3    H172083   0.302   0.635   4.714
16864TIP3    H272084   0.272   0.648   4.566
16865TIP3   OH272085   0.721   0.832   4.604
16865TIP3    H172086   0.803   0.795   4.637
16865TIP3    H272087   0.685   0.763   4.549
16866TIP3   OH272088   1.832   0.513   5.167
16866TIP3    H172089   1.751   0.551   5.133
16866TIP3    H272090   1.853   0.567   5.244
16867TIP3   OH272091   0.425   0.343   5.007
16867TIP3    H172092   0.400   0.404   4.938
16867TIP3    H272093   0.355   0.352   5.072
16868TIP3   OH272094   1.176   1.300   4.306
16868TIP3    H172095   1.151   1.291   4.215
16868TIP3    H272096   1.126   1.375   4.337
16869TIP3   OH272097   0.714   1.102   4.983
16869TIP3    H172098   0.658   1.172   5.018
16869TIP3    H272099   0.783   1.149   4.936
16870TIP3   OH272100   1.447   0.404   4.672
16870TIP3    H172101   1.385   0.376   4.739
16870TIP3    H272102   1.507   0.462   4.718
16871TIP3   OH272103   0.420   0.504   4.779
16871TIP3    H172104   0.471   0.563   4.836
16871TIP3    H272105   0.484   0.470   4.717
16872TIP3   OH272106   0.559   1.312   5.082
16872TIP3    H172107   0.569   1.407   5.083
16872TIP3    H272108   0.470   1.297   5.113
16873TIP3   OH272109   0.108   1.284   4.173
16873TIP3    H172110   0.129   1.319   4.087
16873TIP3    H272111   0.141   1.349   4.235
16874TIP3   OH272112   1.511   1.454   4.819
16874TIP3    H172113   1.421   1.446   4.853
16874TIP3    H272114   1.523   1.548   4.805
16875TIP3   OH272115   1.573   0.254   5.052
16875TIP3    H172116   1.504   0.282   4.992
16875TIP3    H272117   1.654   0.276   5.006
16876TIP3   OH272118   0.805   0.109   4.746
16876TIP3    H172119   0.802   0.017   4.771
16876TIP3    H272120   0.724   0.146   4.781
16877TIP3   OH272121   1.310   1.602   4.466
16877TIP3    H172122   1.357   1.521   4.447
16877TIP3    H272123   1.378   1.669   4.471
16878TIP3   OH272124   1.436   1.372   4.384
16878TIP3    H172125   1.355   1.332   4.352
16878TIP3    H272126   1.458   1.323   4.463
16879TIP3   OH272127   1.584   1.247   5.196
16879TIP3    H172128   1.582   1.189   5.120
16879TIP3    H272129   1.576   1.335   5.160
16880TIP3   OH272130   1.044   0.937   4.210
16880TIP3    H172131   0.978   1.002   4.185
16880TIP3    H272132   1.110   0.941   4.141
16881TIP3   OH272133   1.062   0.821   3.855
16881TIP3    H172134   1.116   0.846   3.930
16881TIP3    H272135   1.111   0.749   3.814
16882TIP3   OH272136   1.756   0.898   5.036
16882TIP3    H172137   1.684   0.960   5.029
16882TIP3    H272138   1.815   0.922   4.965
16883TIP3   OH272139   1.419   0.963   4.263
16883TIP3    H172140   1.353   0.991   4.326
16883TIP3    H272141   1.483   0.914   4.316
16884TIP3   OH272142   1.357   0.739   5.174
16884TIP3    H172143   1.381   0.806   5.239
16884TIP3    H272144   1.283   0.777   5.127
16885TIP3   OH272145   0.573   1.021   4.465
16885TIP3    H172146   0.545   0.978   4.385
16885TIP3    H272147   0.631   0.958   4.508
16886TIP3   OH272148   0.737   1.381   4.743
16886TIP3    H172149   0.731   1.376   4.647
16886TIP3    H272150   0.806   1.319   4.766
16887TIP3   OH272151   0.582   0.915   4.830
16887TIP3    H172152   0.640   0.895   4.757
16887TIP3    H272153   0.631   0.978   4.882
16888TIP3   OH272154   1.271   1.448   4.942
16888TIP3    H172155   1.231   1.534   4.953
16888TIP3    H272156   1.205   1.386   4.974
16889TIP3   OH272157   0.714   1.301   5.324
16889TIP3    H172158   0.659   1.367   5.367
16889TIP3    H272159   0.672   1.286   5.240
16890TIP3   OH272160   1.266   0.903   4.041
16890TIP3    H172161   1.322   0.936   4.111
16890TIP3    H272162   1.319   0.913   3.962
16891TIP3   OH272163   0.404   0.952   5.220
16891TIP3    H172164   0.408   1.028   5.279
16891TIP3    H272165   0.313   0.923   5.224
16892TIP3   OH272166   1.059   1.542   4.372
16892TIP3    H172167   1.137   1.570   4.418
16892TIP3    H272168   1.021   1.622   4.336
16893TIP3   OH272169   0.520   1.495   5.396
16893TIP3    H172170   0.513   1.526   5.305
16893TIP3    H272171   0.430   1.476   5.422
16894TIP3   OH272172   1.659   0.005   4.032
16894TIP3    H172173   1.581   0.030   4.081
16894TIP3    H272174   1.692   0.088   3.996
16895TIP3   OH272175   0.469   0.920   4.215
16895TIP3    H172176   0.404   0.978   4.176
16895TIP3    H272177   0.420   0.841   4.238
16896TIP3   OH272178   1.799   1.510   3.844
16896TIP3    H172179   1.806   1.597   3.882
16896TIP3    H272180   1.877   1.464   3.874
16897TIP3   OH272181   0.137   1.099   5.114
16897TIP3    H172182   0.055   1.112   5.065
16897TIP3    H272183   0.127   1.012   5.152
16898TIP3   OH272184   0.089   1.445   4.732
16898TIP3    H172185   0.164   1.405   4.777
16898TIP3    H272186   0.013   1.419   4.785
16899TIP3   OH272187   1.843   1.518   5.416
16899TIP3    H172188   1.829   1.424   5.403
16899TIP3    H272189   1.777   1.544   5.480
16900TIP3   OH272190   1.024   1.805   4.248
16900TIP3    H172191   0.994   1.816   4.157
16900TIP3    H272192   0.993   1.884   4.292
16901TIP3   OH272193   0.377   1.696   4.438
16901TIP3    H172194   0.396   1.660   4.524
16901TIP3    H272195   0.327   1.627   4.394
16902TIP3   OH272196   1.313   1.774   3.932
16902TIP3    H172197   1.363   1.700   3.897
16902TIP3    H272198   1.320   1.765   4.027
16903TIP3   OH272199   1.291   1.758   4.207
16903TIP3    H172200   1.198   1.768   4.226
16903TIP3    H272201   1.324   1.703   4.279
16904TIP3   OH272202   1.575   0.659   5.459
16904TIP3    H172203   1.520   0.727   5.420
16904TIP3    H272204   1.561   0.582   5.404
16905TIP3   OH272205   0.311   1.297   5.195
16905TIP3    H172206   0.329   1.263   5.283
16905TIP3    H272207   0.243   1.239   5.160
16906TIP3   OH272208   0.553   0.170   4.838
16906TIP3    H172209   0.483   0.158   4.774
16906TIP3    H272210   0.513   0.223   4.907
16907TIP3   OH272211   1.001   0.142   5.234
16907TIP3    H172212   0.991   0.089   5.314
16907TIP3    H272213   0.914   0.141   5.194
16908TIP3   OH272214   1.309   0.483   5.264
16908TIP3    H172215   1.240   0.485   5.330
16908TIP3    H272216   1.314   0.573   5.232
16909TIP3   OH272217   1.414   0.909   3.811
16909TIP3    H172218   1.394   0.933   3.720
16909TIP3    H272219   1.502   0.943   3.826
16910TIP3   OH272220   1.015   0.385   3.869
16910TIP3    H172221   0.980   0.366   3.956
16910TIP3    H272222   0.962   0.332   3.809
16911TIP3   OH272223   0.547   0.671   4.955
16911TIP3    H172224   0.482   0.673   5.025
16911TIP3    H272225   0.547   0.760   4.920
16912TIP3   OH272226   0.594   0.662   4.429
16912TIP3    H172227   0.498   0.651   4.426
16912TIP3    H272228   0.622   0.652   4.339
16913TIP3   OH272229   1.094   0.693   4.324
16913TIP3    H172230   1.070   0.780   4.292
16913TIP3    H272231   1.167   0.666   4.267
16914TIP3   OH272232   1.202   0.628   4.572
16914TIP3    H172233   1.154   0.670   4.500
16914TIP3    H272234   1.248   0.554   4.530
16915TIP3   OH272235   0.314   0.658   5.112
16915TIP3    H172236   0.265   0.713   5.173
16915TIP3    H272237   0.290   0.568   5.136
16916TIP3   OH272238   0.597   0.449   3.770
16916TIP3    H172239   0.620   0.393   3.844
16916TIP3    H272240   0.599   0.391   3.694
16917TIP3   OH272241   0.079   0.439   4.468
16917TIP3    H172242   0.107   0.421   4.558
16917TIP3    H272243   0.089   0.355   4.423
16918TIP3   OH272244   0.184   0.495   4.092
16918TIP3    H172245   0.272   0.470   4.120
16918TIP3    H272246   0.154   0.556   4.159
16919TIP3   OH272247   1.109   0.784   5.034
16919TIP3    H172248   1.152   0.731   4.967
16919TIP3    H272249   1.059   0.721   5.086
16920TIP3   OH272250   0.876   0.409   4.551
16920TIP3    H172251   0.786   0.398   4.581
16920TIP3    H272252   0.930   0.371   4.620
16921TIP3   OH272253   0.334   0.592   4.403
16921TIP3    H172254   0.249   0.607   4.362
16921TIP3    H272255   0.343   0.496   4.405
16922TIP3   OH272256   0.651   0.596   4.164
16922TIP3    H172257   0.732   0.567   4.206
16922TIP3    H272258   0.677   0.620   4.075
16923TIP3   OH272259   1.253   0.349   4.865
16923TIP3    H172260   1.215   0.344   4.953
16923TIP3    H272261   1.185   0.316   4.807
16924TIP3   OH272262   0.513   0.695   3.845
16924TIP3    H172263   0.538   0.607   3.818
16924TIP3    H272264   0.595   0.744   3.846
16925TIP3   OH272265   1.538   2.005   5.515
16925TIP3    H172266   1.563   1.986   5.424
16925TIP3    H272267   1.610   1.969   5.567
16926TIP3   OH272268   0.366   1.145   5.424
16926TIP3    H172269   0.430   1.137   5.495
16926TIP3    H272270   0.285   1.168   5.469
16927TIP3   OH272271   0.940   0.709   4.719
16927TIP3    H172272   1.003   0.651   4.678
16927TIP3    H272273   0.899   0.657   4.787
16928TIP3   OH272274   0.401   0.322   4.394
16928TIP3    H172275   0.376   0.232   4.414
16928TIP3    H272276   0.416   0.322   4.299
16929TIP3   OH272277   0.806   0.576   4.926
16929TIP3    H172278   0.721   0.616   4.943
16929TIP3    H272279   0.857   0.592   5.006
16930TIP3   OH272280   0.858   1.128   4.137
16930TIP3    H172281   0.787   1.089   4.086
16930TIP3    H272282   0.815   1.165   4.214
16931TIP3   OH272283   1.572   1.094   4.967
16931TIP3    H172284   1.637   1.146   4.920
16931TIP3    H272285   1.503   1.076   4.903
16932TIP3   OH272286   1.252   0.420   3.999
16932TIP3    H172287   1.164   0.421   3.960
16932TIP3    H272288   1.258   0.504   4.046
16933TIP3   OH272289   0.990   1.240   5.303
16933TIP3    H172290   1.006   1.182   5.377
16933TIP3    H272291   0.899   1.268   5.313
16934TIP3   OH272292   1.307   0.643   4.151
16934TIP3    H172293   1.395   0.625   4.183
16934TIP3    H272294   1.313   0.731   4.114
16935TIP3   OH272295   0.400   1.068   4.679
16935TIP3    H172296   0.462   1.064   4.606
16935TIP3    H272297   0.438   1.011   4.746
16936TIP3   OH272298   1.064   1.283   4.048
16936TIP3    H172299   1.030   1.372   4.053
16936TIP3    H272300   0.991   1.228   4.077
16937TIP3   OH272301   0.148   0.837   5.253
16937TIP3    H172302   0.174   0.855   5.343
16937TIP3    H272303   0.061   0.797   5.261
16938TIP3   OH272304   0.815   0.890   5.416
16938TIP3    H172305   0.735   0.838   5.410
16938TIP3    H272306   0.847   0.895   5.326
16939TIP3   OH272307   1.754   0.660   4.070
16939TIP3    H172308   1.713   0.640   3.986
16939TIP3    H272309   1.779   0.752   4.064
16940TIP3   OH272310   1.793   1.249   5.372
16940TIP3    H172311   1.711   1.247   5.323
16940TIP3    H272312   1.860   1.225   5.307
16941TIP3   OH272313   1.599   1.494   4.194
16941TIP3    H172314   1.548   1.460   4.268
16941TIP3    H272315   1.602   1.421   4.132
16942TIP3   OH272316   1.374   1.026   4.774
16942TIP3    H172317   1.279   1.020   4.779
16942TIP3    H272318   1.401   0.945   4.730
16943TIP3   OH272319   0.640   1.453   4.480
16943TIP3    H172320   0.660   1.535   4.435
16943TIP3    H272321   0.563   1.472   4.532
16944TIP3   OH272322   0.106   0.938   3.895
16944TIP3    H172323   0.172   0.972   3.955
16944TIP3    H272324   0.023   0.971   3.931
16945TIP3   OH272325   0.701   1.231   4.331
16945TIP3    H172326   0.688   1.311   4.383
16945TIP3    H272327   0.657   1.162   4.382
16946TIP3   OH272328   0.849   1.637   5.070
16946TIP3    H172329   0.895   1.712   5.031
16946TIP3    H272330   0.909   1.605   5.138
16947TIP3   OH272331   0.640   1.705   4.357
16947TIP3    H172332   0.547   1.718   4.377
16947TIP3    H272333   0.683   1.780   4.396
16948TIP3   OH272334   1.115   1.246   5.059
16948TIP3    H172335   1.065   1.249   5.140
16948TIP3    H272336   1.187   1.186   5.078
16949TIP3   OH272337   1.419   1.321   3.915
16949TIP3    H172338   1.444   1.268   3.991
16949TIP3    H272339   1.332   1.290   3.892
16950TIP3   OH272340   1.838   1.766   3.937
16950TIP3    H172341   1.904   1.836   3.943
16950TIP3    H272342   1.757   1.808   3.965
16951TIP3   OH272343   0.224   0.405   5.181
16951TIP3    H172344   0.129   0.405   5.177
16951TIP3    H272345   0.245   0.342   5.251
16952TIP3   OH272346   1.531   1.171   4.115
16952TIP3    H172347   1.484   1.109   4.170
16952TIP3    H272348   1.623   1.160   4.140
16953TIP3   OH272349   0.217   1.631   5.017
16953TIP3    H172350   0.220   1.553   5.073
16953TIP3    H272351   0.233   1.704   5.077
16954TIP3   OH272352   0.784   1.425   3.787
16954TIP3    H172353   0.794   1.340   3.744
16954TIP3    H272354   0.753   1.404   3.875
16955TIP3   OH272355   0.672   1.387   4.043
16955TIP3    H172356   0.698   1.342   4.123
16955TIP3    H272357   0.680   1.480   4.064
16956TIP3   OH272358   0.283   1.083   4.076
16956TIP3    H172359   0.222   1.131   4.132
16956TIP3    H272360   0.340   1.151   4.040
16957TIP3   OH272361   1.129   0.347   5.108
16957TIP3    H172362   1.197   0.377   5.168
16957TIP3    H272363   1.089   0.272   5.152
16958TIP3   OH272364   1.244   0.272   4.236
16958TIP3    H172365   1.240   0.318   4.151
16958TIP3    H272366   1.277   0.338   4.297
16959TIP3   OH272367   0.962   1.532   4.059
16959TIP3    H172368   0.874   1.562   4.084
16959TIP3    H272369   1.010   1.613   4.040
16960TIP3   OH272370   0.875   0.528   4.306
16960TIP3    H172371   0.950   0.587   4.310
16960TIP3    H272372   0.868   0.492   4.394
16961TIP3   OH272373   0.973   0.579   5.151
16961TIP3    H172374   0.911   0.564   5.222
16961TIP3    H272375   1.016   0.495   5.138
16962TIP3   OH272376   1.016   0.205   4.391
16962TIP3    H172377   0.982   0.290   4.420
16962TIP3    H272378   1.063   0.225   4.310
16963TIP3   OH272379   0.716   1.649   4.102
16963TIP3    H172380   0.720   1.734   4.057
16963TIP3    H272381   0.688   1.671   4.191
16964TIP3   OH272382   0.451   0.407   4.127
16964TIP3    H172383   0.508   0.481   4.147
16964TIP3    H272384   0.509   0.339   4.094
16965TIP3   OH272385   1.557   0.399   5.331
16965TIP3    H172386   1.469   0.420   5.299
16965TIP3    H272387   1.598   0.351   5.259
16966TIP3   OH272388   1.440   0.771   4.658
16966TIP3    H172389   1.356   0.729   4.641
16966TIP3    H272390   1.485   0.712   4.718
16967TIP3   OH272391   0.422   1.304   3.959
16967TIP3    H172392   0.490   1.353   4.003
16967TIP3    H272393   0.469   1.254   3.891
16968TIP3   OH272394   0.233   0.639   3.857
16968TIP3    H172395   0.327   0.647   3.868
16968TIP3    H272396   0.205   0.581   3.927
16969TIP3   OH272397   1.563   1.730   4.827
16969TIP3    H172398   1.550   1.802   4.766
16969TIP3    H272399   1.657   1.730   4.846
16970TIP3   OH272400   0.247   0.112   4.794
16970TIP3    H172401   0.301   0.035   4.774
16970TIP3    H272402   0.212   0.094   4.881
16971TIP3   OH272403   0.193   1.521   4.309
16971TIP3    H172404   0.133   1.555   4.375
16971TIP3    H272405   0.182   1.580   4.234
16972TIP3   OH272406   0.130   1.828   5.528
16972TIP3    H172407   0.187   1.798   5.599
16972TIP3    H272408   0.089   1.748   5.495
16973TIP3   OH272409   0.545   1.681   5.602
16973TIP3    H172410   0.636   1.709   5.593
16973TIP3    H272411   0.534   1.611   5.537
16974TIP3   OH272412   0.992   1.605   3.752
16974TIP3    H172413   0.925   1.541   3.775
16974TIP3    H272414   1.068   1.553   3.726
16975TIP3   OH272415   1.448   1.568   3.806
16975TIP3    H172416   1.441   1.487   3.856
16975TIP3    H272417   1.538   1.567   3.772
16976TIP3   OH272418   0.121   1.172   5.546
16976TIP3    H172419   0.053   1.121   5.501
16976TIP3    H272420   0.075   1.218   5.615
16977TIP3   OH272421   0.571   1.143   3.798
16977TIP3    H172422   0.598   1.095   3.877
16977TIP3    H272423   0.652   1.159   3.751
16978TIP3   OH272424   0.790   1.136   5.536
16978TIP3    H172425   0.761   1.189   5.462
16978TIP3    H272426   0.807   1.049   5.499
16979TIP3   OH272427   1.172   1.262   3.799
16979TIP3    H172428   1.124   1.262   3.882
16979TIP3    H272429   1.143   1.182   3.754
16980TIP3   OH272430   1.336   1.145   5.270
16980TIP3    H172431   1.425   1.174   5.248
16980TIP3    H272432   1.292   1.224   5.301
16981TIP3   OH272433   0.230   0.898   5.506
16981TIP3    H172434   0.306   0.957   5.509
16981TIP3    H272435   0.159   0.949   5.545
16982TIP3   OH272436   0.652   0.996   4.014
16982TIP3    H172437   0.599   0.958   4.084
16982TIP3    H272438   0.688   0.920   3.968
16983TIP3   OH272439   0.611   0.768   5.259
16983TIP3    H172440   0.534   0.823   5.249
16983TIP3    H272441   0.677   0.809   5.203
16984TIP3   OH272442   0.772   0.821   3.832
16984TIP3    H172443   0.777   0.853   3.742
16984TIP3    H272444   0.863   0.807   3.857
16985TIP3   OH272445   1.165   1.004   5.563
16985TIP3    H172446   1.257   1.006   5.587
16985TIP3    H272447   1.118   1.027   5.643
16986TIP3   OH272448   1.668   1.021   3.799
16986TIP3    H172449   1.671   0.997   3.707
16986TIP3    H272450   1.668   1.117   3.799
16987TIP3   OH272451   0.753   0.533   5.309
16987TIP3    H172452   0.715   0.466   5.252
16987TIP3    H272453   0.693   0.607   5.303
16988TIP3   OH272454   0.685   0.365   5.093
16988TIP3    H172455   0.728   0.411   5.021
16988TIP3    H272456   0.592   0.364   5.068
16989TIP3   OH272457   0.826   0.895   5.131
16989TIP3    H172458   0.912   0.884   5.092
16989TIP3    H272459   0.787   0.969   5.084
16990TIP3   OH272460   1.450   0.904   5.370
16990TIP3    H172461   1.394   0.980   5.355
16990TIP3    H272462   1.529   0.941   5.411
16991TIP3   OH272463   0.726   0.103   5.167
16991TIP3    H172464   0.710   0.195   5.145
16991TIP3    H272465   0.647   0.057   5.139
16992TIP3   OH272466   1.135   0.398   5.459
16992TIP3    H172467   1.060   0.339   5.469
16992TIP3    H272468   1.205   0.355   5.508
16993TIP3   OH272469   1.354   0.298   5.602
16993TIP3    H172470   1.412   0.279   5.528
16993TIP3    H272471   1.398   0.369   5.649
16994TIP3   OH272472   0.817   0.017   5.419
16994TIP3    H172473   0.752  -0.023   5.476
16994TIP3    H272474   0.767   0.050   5.345
16995TIP3   OH272475   0.964   0.210   5.574
16995TIP3    H172476   0.917   0.140   5.528
16995TIP3    H272477   0.896   0.256   5.623
16996TIP3   OH272478   0.786   1.887   3.977
16996TIP3    H172479   0.876   1.855   3.968
16996TIP3    H272480   0.777   1.954   3.909
16997TIP3   OH272481   0.160   1.329   3.902
16997TIP3    H172482   0.252   1.345   3.924
16997TIP3    H272483   0.163   1.255   3.841
16998TIP3   OH272484   0.057   1.853   4.358
16998TIP3    H172485  -0.038   1.855   4.346
16998TIP3    H272486   0.073   1.781   4.419
16999TIP3   OH272487   0.080   1.647   4.551
16999TIP3    H172488   0.071   1.562   4.595
16999TIP3    H272489   0.131   1.700   4.612
17000TIP3   OH272490   1.823   1.730   4.923
17000TIP3    H172491   1.811   1.703   5.014
17000TIP3    H272492   1.863   1.817   4.929
17001TIP3   OH272493   1.764   1.662   5.186
17001TIP3    H172494   1.690   1.607   5.159
17001TIP3    H272495   1.805   1.613   5.258
17002TIP3   OH272496   1.792   1.118   4.196
17002TIP3    H172497   1.864   1.181   4.202
17002TIP3    H272498   1.807   1.057   4.268
17003TIP3   OH272499   1.837   0.916   4.381
17003TIP3    H172500   1.753   0.884   4.412
17003TIP3    H272501   1.888   0.929   4.462
17004TIP3   OH272502   1.814   1.220   4.903
17004TIP3    H172503   1.868   1.153   4.859
17004TIP3    H272504   1.843   1.302   4.864
17005TIP3   OH272505   1.554   1.503   5.092
17005TIP3    H172506   1.464   1.533   5.098
17005TIP3    H272507   1.565   1.480   5.000
17006TIP3   OH272508   1.818   0.921   4.007
17006TIP3    H172509   1.764   0.949   3.933
17006TIP3    H272510   1.805   0.989   4.073
17007TIP3   OH272511   1.658   0.622   3.816
17007TIP3    H172512   1.631   0.674   3.740
17007TIP3    H272513   1.645   0.531   3.788
17008TIP3   OH272514   1.583   0.799   4.422
17008TIP3    H172515   1.580   0.709   4.391
17008TIP3    H272516   1.538   0.797   4.507
17009TIP3   OH272517   0.079   0.996   4.812
17009TIP3    H172518   0.103   1.002   4.719
17009TIP3    H272519   0.161   0.977   4.857
17010TIP3   OH272520   1.700   0.991   5.462
17010TIP3    H172521   1.768   0.925   5.448
17010TIP3    H272522   1.742   1.074   5.440
17011TIP3   OH272523   1.839   0.730   5.405
17011TIP3    H172524   1.747   0.714   5.428
17011TIP3    H272525   1.887   0.663   5.453
17012TIP3   OH272526   1.599   0.370   3.722
17012TIP3    H172527   1.636   0.311   3.789
17012TIP3    H272528   1.505   0.355   3.726
17013TIP3   OH272529   1.569   0.550   4.260
17013TIP3    H172530   1.596   0.458   4.268
17013TIP3    H272531   1.633   0.588   4.199
17014TIP3   OH272532   1.595   0.592   4.813
17014TIP3    H172533   1.688   0.602   4.795
17014TIP3    H272534   1.587   0.607   4.908
17015TIP3   OH272535   1.612   0.662   5.083
17015TIP3    H172536   1.524   0.686   5.112
17015TIP3    H272537   1.658   0.746   5.073
17016TIP3   OH272538   1.628   0.272   4.292
17016TIP3    H172539   1.646   0.230   4.376
17016TIP3    H272540   1.567   0.213   4.248
17017TIP3   OH272541   0.184   0.368   4.709
17017TIP3    H172542   0.198   0.279   4.742
17017TIP3    H272543   0.261   0.417   4.738
17018TIP3   OH272544   0.018   0.728   4.811
17018TIP3    H172545   0.094   0.702   4.759
17018TIP3    H272546   0.030   0.822   4.826
17019TIP3   OH272547   1.767   0.233   3.904
17019TIP3    H172548   1.829   0.182   3.851
17019TIP3    H272549   1.820   0.302   3.943
17020TIP3   OH272550   0.099   0.251   4.235
17020TIP3    H172551   0.008   0.263   4.261
17020TIP3    H272552   0.112   0.314   4.164
17021TIP3   OH272553   1.494   1.797   4.440
17021TIP3    H172554   1.573   1.789   4.386
17021TIP3    H272555   1.522   1.846   4.517
17022TIP3   OH272556   0.059   0.126   5.041
17022TIP3    H172557   0.051   0.191   5.111
17022TIP3    H272558  -0.019   0.139   4.987
17023TIP3   OH272559   0.263   1.461   5.502
17023TIP3    H172560   0.179   1.447   5.458
17023TIP3    H272561   0.248   1.431   5.592
17024TIP3   OH272562   0.583   1.586   5.125
17024TIP3    H172563   0.547   1.671   5.101
17024TIP3    H272564   0.677   1.596   5.117
17025TIP3   OH272565   1.722   0.050   5.176
17025TIP3    H172566   1.657   0.111   5.140
17025TIP3    H272567   1.694  -0.036   5.145
17026TIP3   OH272568   0.261   1.883   5.134
17026TIP3    H172569   0.180   1.922   5.099
17026TIP3    H272570   0.272   1.926   5.219
17027TIP3   OH272571   0.524   1.851   5.056
17027TIP3    H172572   0.433   1.862   5.082
17027TIP3    H272573   0.532   1.899   4.974
17028TIP3   OH272574   0.979   1.856   4.964
17028TIP3    H172575   0.921   1.899   4.900
17028TIP3    H272576   0.989   1.920   5.034
17029TIP3   OH272577   1.217   1.717   4.968
17029TIP3    H172578   1.133   1.763   4.971
17029TIP3    H272579   1.277   1.772   5.017
17030TIP3   OH272580   1.474   1.872   5.054
17030TIP3    H172581   1.485   1.963   5.025
17030TIP3    H272582   1.497   1.819   4.978
17031TIP3   OH272583   0.229   1.741   4.769
17031TIP3    H172584   0.216   1.707   4.857
17031TIP3    H272585   0.307   1.695   4.736
17032TIP3   OH272586   0.451   1.596   4.682
17032TIP3    H172587   0.430   1.509   4.715
17032TIP3    H272588   0.530   1.621   4.731
17033TIP3   OH272589   0.703   1.646   4.814
17033TIP3    H172590   0.721   1.557   4.783
17033TIP3    H272591   0.735   1.647   4.904
17034TIP3   OH272592   1.040   0.256   4.716
17034TIP3    H172593   0.967   0.198   4.737
17034TIP3    H272594   1.100   0.201   4.666
17035TIP3   OH272595   1.492   0.024   4.655
17035TIP3    H172596   1.572   0.059   4.615
17035TIP3    H272597   1.433   0.100   4.660
17036TIP3   OH272598   1.716   0.120   4.520
17036TIP3    H172599   1.781   0.051   4.533
17036TIP3    H272600   1.765   0.201   4.535
17037TIP3   OH272601   0.340   0.057   4.462
17037TIP3    H172602   0.245   0.042   4.467
17037TIP3    H272603   0.376   0.013   4.538
17038TIP3   OH272604   0.110   0.162   3.930
17038TIP3    H172605   0.192   0.204   3.906
17038TIP3    H272606   0.135   0.094   3.993
17039TIP3   OH272607   0.764   0.114   4.471
17039TIP3    H172608   0.849   0.137   4.434
17039TIP3    H272609   0.777   0.116   4.566
17040TIP3   OH272610   1.234   0.139   4.556
17040TIP3    H172611   1.181   0.175   4.486
17040TIP3    H272612   1.270   0.058   4.520
17041TIP3   OH272613   1.443   0.082   4.200
17041TIP3    H172614   1.368   0.141   4.199
17041TIP3    H272615   1.418   0.012   4.260
17042TIP3   OH272616   0.149   1.681   4.084
17042TIP3    H172617   0.058   1.652   4.080
17042TIP3    H272618   0.144   1.776   4.074
17043TIP3   OH272619   0.352   0.285   3.884
17043TIP3    H172620   0.433   0.234   3.873
17043TIP3    H272621   0.368   0.336   3.964
17044TIP3   OH272622   0.920   0.331   4.116
17044TIP3    H172623   0.837   0.288   4.092
17044TIP3    H272624   0.896   0.392   4.185
17045TIP3   OH272625   1.038   1.783   3.954
17045TIP3    H172626   1.132   1.798   3.948
17045TIP3    H272627   1.017   1.730   3.878
17046TIP3   OH272628   1.698   1.748   4.250
17046TIP3    H172629   1.669   1.659   4.229
17046TIP3    H272630   1.675   1.800   4.173
17047TIP3   OH272631   0.255   0.215   5.372
17047TIP3    H172632   0.189   0.258   5.426
17047TIP3    H272633   0.320   0.182   5.434
17048TIP3   OH272634   0.431   0.129   5.565
17048TIP3    H172635   0.513   0.096   5.602
17048TIP3    H272636   0.365   0.112   5.633
17049TIP3   OH272637   0.335   1.747   3.795
17049TIP3    H172638   0.302   1.737   3.885
17049TIP3    H272639   0.412   1.691   3.792
17050TIP3   OH272640   3.087   1.038   4.413
17050TIP3    H172641   3.073   1.132   4.403
17050TIP3    H272642   3.015   0.998   4.364
17051TIP3   OH272643   2.956   0.944   4.818
17051TIP3    H172644   2.982   0.903   4.900
17051TIP3    H272645   2.907   0.877   4.771
17052TIP3   OH272646   2.155   0.844   4.966
17052TIP3    H172647   2.161   0.770   5.027
17052TIP3    H272648   2.220   0.906   4.997
17053TIP3   OH272649   3.347   1.251   4.643
17053TIP3    H172650   3.308   1.176   4.688
17053TIP3    H272651   3.363   1.316   4.712
17054TIP3   OH272652   2.330   1.338   4.724
17054TIP3    H172653   2.292   1.251   4.714
17054TIP3    H272654   2.420   1.322   4.752
17055TIP3   OH272655   1.959   0.683   4.277
17055TIP3    H172656   1.929   0.766   4.314
17055TIP3    H272657   1.894   0.662   4.210
17056TIP3   OH272658   2.024   0.933   4.591
17056TIP3    H172659   2.053   0.844   4.609
17056TIP3    H272660   2.103   0.987   4.604
17057TIP3   OH272661   3.082   1.718   4.689
17057TIP3    H172662   3.112   1.665   4.616
17057TIP3    H272663   3.061   1.656   4.758
17058TIP3   OH272664   2.813   1.193   4.831
17058TIP3    H172665   2.850   1.110   4.802
17058TIP3    H272666   2.880   1.230   4.889
17059TIP3   OH272667   3.692   0.356   4.921
17059TIP3    H172668   3.702   0.413   4.997
17059TIP3    H272669   3.714   0.412   4.846
17060TIP3   OH272670   3.110   0.625   4.837
17060TIP3    H172671   3.120   0.532   4.855
17060TIP3    H272672   3.096   0.631   4.743
17061TIP3   OH272673   2.458   0.425   4.570
17061TIP3    H172674   2.462   0.511   4.529
17061TIP3    H272675   2.407   0.371   4.509
17062TIP3   OH272676   3.251   0.441   4.423
17062TIP3    H172677   3.292   0.417   4.507
17062TIP3    H272678   3.321   0.483   4.373
17063TIP3   OH272679   2.099   0.674   4.653
17063TIP3    H172680   2.162   0.634   4.712
17063TIP3    H272681   2.120   0.638   4.567
17064TIP3   OH272682   2.582   0.827   4.616
17064TIP3    H172683   2.665   0.789   4.646
17064TIP3    H272684   2.543   0.759   4.561
17065TIP3   OH272685   3.706   0.516   5.139
17065TIP3    H172686   3.626   0.568   5.133
17065TIP3    H272687   3.738   0.531   5.228
17066TIP3   OH272688   2.319   0.355   5.015
17066TIP3    H172689   2.295   0.414   4.944
17066TIP3    H272690   2.245   0.358   5.076
17067TIP3   OH272691   3.049   1.294   4.313
17067TIP3    H172692   3.026   1.285   4.220
17067TIP3    H272693   3.001   1.372   4.341
17068TIP3   OH272694   2.582   1.117   4.969
17068TIP3    H172695   2.531   1.187   5.009
17068TIP3    H272696   2.654   1.161   4.925
17069TIP3   OH272697   3.333   0.383   4.676
17069TIP3    H172698   3.262   0.369   4.739
17069TIP3    H272699   3.390   0.447   4.718
17070TIP3   OH272700   2.292   0.507   4.780
17070TIP3    H172701   2.344   0.568   4.832
17070TIP3    H272702   2.353   0.472   4.716
17071TIP3   OH272703   2.429   1.318   5.089
17071TIP3    H172704   2.434   1.413   5.084
17071TIP3    H272705   2.339   1.300   5.117
17072TIP3   OH272706   2.008   1.295   4.176
17072TIP3    H172707   1.998   1.342   4.092
17072TIP3    H272708   2.030   1.363   4.239
17073TIP3   OH272709   3.371   1.461   4.835
17073TIP3    H172710   3.277   1.463   4.851
17073TIP3    H272711   3.394   1.551   4.812
17074TIP3   OH272712   3.457   0.261   5.037
17074TIP3    H172713   3.382   0.290   4.986
17074TIP3    H272714   3.533   0.290   4.987
17075TIP3   OH272715   2.677   0.112   4.734
17075TIP3    H172716   2.658   0.018   4.745
17075TIP3    H272717   2.602   0.156   4.773
17076TIP3   OH272718   3.196   1.606   4.461
17076TIP3    H172719   3.239   1.522   4.444
17076TIP3    H272720   3.268   1.669   4.465
17077TIP3   OH272721   3.308   1.366   4.395
17077TIP3    H172722   3.228   1.324   4.364
17077TIP3    H272723   3.331   1.318   4.474
17078TIP3   OH272724   3.483   1.252   5.195
17078TIP3    H172725   3.474   1.188   5.125
17078TIP3    H272726   3.498   1.335   5.150
17079TIP3   OH272727   2.930   0.937   4.204
17079TIP3    H172728   2.860   0.996   4.177
17079TIP3    H272729   2.995   0.943   4.135
17080TIP3   OH272730   2.970   0.827   3.846
17080TIP3    H172731   3.023   0.850   3.922
17080TIP3    H272732   3.016   0.754   3.804
17081TIP3   OH272733   3.644   0.898   5.029
17081TIP3    H172734   3.572   0.961   5.020
17081TIP3    H272735   3.706   0.922   4.961
17082TIP3   OH272736   3.304   0.963   4.267
17082TIP3    H172737   3.236   0.990   4.329
17082TIP3    H272738   3.369   0.916   4.320
17083TIP3   OH272739   3.245   0.754   5.220
17083TIP3    H172740   3.248   0.828   5.281
17083TIP3    H272741   3.178   0.779   5.156
17084TIP3   OH272742   2.451   1.018   4.460
17084TIP3    H172743   2.425   0.973   4.379
17084TIP3    H272744   2.504   0.954   4.507
17085TIP3   OH272745   2.615   1.366   4.731
17085TIP3    H172746   2.618   1.371   4.635
17085TIP3    H272747   2.689   1.309   4.754
17086TIP3   OH272748   2.440   0.922   4.835
17086TIP3    H172749   2.498   0.894   4.764
17086TIP3    H272750   2.491   0.987   4.883
17087TIP3   OH272751   3.109   1.477   4.904
17087TIP3    H172752   3.093   1.546   4.968
17087TIP3    H272753   3.072   1.398   4.943
17088TIP3   OH272754   2.580   1.325   5.325
17088TIP3    H172755   2.516   1.381   5.370
17088TIP3    H272756   2.539   1.304   5.241
17089TIP3   OH272757   3.162   0.898   4.040
17089TIP3    H172758   3.214   0.934   4.112
17089TIP3    H272759   3.216   0.911   3.962
17090TIP3   OH272760   2.259   0.944   5.218
17090TIP3    H172761   2.262   1.014   5.283
17090TIP3    H272762   2.167   0.917   5.216
17091TIP3   OH272763   2.943   1.544   4.371
17091TIP3    H172764   3.025   1.571   4.414
17091TIP3    H272765   2.908   1.624   4.333
17092TIP3   OH272766   2.373   1.495   5.390
17092TIP3    H172767   2.380   1.542   5.307
17092TIP3    H272768   2.283   1.508   5.418
17093TIP3   OH272769   3.473   0.036   3.966
17093TIP3    H172770   3.427   0.051   4.049
17093TIP3    H272771   3.530   0.113   3.956
17094TIP3   OH272772   2.361   0.921   4.207
17094TIP3    H172773   2.298   0.986   4.176
17094TIP3    H272774   2.314   0.838   4.203
17095TIP3   OH272775   3.672   1.483   3.901
17095TIP3    H172776   3.681   1.578   3.906
17095TIP3    H272777   3.762   1.451   3.890
17096TIP3   OH272778   1.942   1.172   5.153
17096TIP3    H172779   1.893   1.180   5.071
17096TIP3    H272780   1.956   1.078   5.164
17097TIP3   OH272781   1.917   1.480   4.832
17097TIP3    H172782   1.995   1.486   4.887
17097TIP3    H272783   1.866   1.558   4.852
17098TIP3   OH272784   3.722   1.574   5.406
17098TIP3    H172785   3.732   1.480   5.393
17098TIP3    H272786   3.635   1.584   5.446
17099TIP3   OH272787   2.804   1.489   5.279
17099TIP3    H172788   2.801   1.570   5.329
17099TIP3    H272789   2.725   1.442   5.305
17100TIP3   OH272790   2.913   1.804   4.246
17100TIP3    H172791   2.891   1.811   4.153
17100TIP3    H272792   2.880   1.885   4.284
17101TIP3   OH272793   2.253   1.703   4.440
17101TIP3    H172794   2.277   1.671   4.528
17101TIP3    H272795   2.201   1.632   4.403
17102TIP3   OH272796   3.197   1.776   3.926
17102TIP3    H172797   3.245   1.702   3.888
17102TIP3    H272798   3.208   1.766   4.021
17103TIP3   OH272799   3.181   1.754   4.203
17103TIP3    H172800   3.088   1.765   4.223
17103TIP3    H272801   3.213   1.695   4.271
17104TIP3   OH272802   3.468   0.634   5.376
17104TIP3    H172803   3.380   0.664   5.352
17104TIP3    H272804   3.462   0.538   5.374
17105TIP3   OH272805   2.175   1.309   5.203
17105TIP3    H172806   2.196   1.268   5.287
17105TIP3    H272807   2.092   1.269   5.176
17106TIP3   OH272808   2.431   0.177   4.839
17106TIP3    H172809   2.351   0.161   4.789
17106TIP3    H272810   2.403   0.234   4.911
17107TIP3   OH272811   2.911   0.125   5.204
17107TIP3    H172812   2.942   0.047   5.249
17107TIP3    H272813   2.817   0.127   5.220
17108TIP3   OH272814   3.204   0.483   5.263
17108TIP3    H172815   3.144   0.476   5.338
17108TIP3    H272816   3.208   0.576   5.244
17109TIP3   OH272817   3.306   0.907   3.807
17109TIP3    H172818   3.282   0.934   3.719
17109TIP3    H272819   3.395   0.940   3.819
17110TIP3   OH272820   2.868   0.373   3.926
17110TIP3    H172821   2.808   0.348   3.996
17110TIP3    H272822   2.846   0.314   3.854
17111TIP3   OH272823   2.426   0.671   4.957
17111TIP3    H172824   2.367   0.669   5.032
17111TIP3    H272825   2.422   0.761   4.925
17112TIP3   OH272826   2.438   0.666   4.441
17112TIP3    H172827   2.343   0.654   4.439
17112TIP3    H272828   2.466   0.647   4.351
17113TIP3   OH272829   2.980   0.691   4.316
17113TIP3    H172830   2.956   0.779   4.285
17113TIP3    H272831   3.054   0.666   4.259
17114TIP3   OH272832   2.866   0.685   5.439
17114TIP3    H172833   2.821   0.608   5.474
17114TIP3    H272834   2.956   0.676   5.471
17115TIP3   OH272835   3.092   0.628   4.563
17115TIP3    H172836   3.040   0.669   4.494
17115TIP3    H272837   3.135   0.554   4.520
17116TIP3   OH272838   2.224   0.643   5.152
17116TIP3    H172839   2.245   0.666   5.242
17116TIP3    H272840   2.180   0.558   5.158
17117TIP3   OH272841   2.549   0.370   3.790
17117TIP3    H172842   2.523   0.361   3.881
17117TIP3    H272843   2.492   0.438   3.755
17118TIP3   OH272844   1.877   0.338   4.531
17118TIP3    H172845   1.936   0.357   4.604
17118TIP3    H272846   1.932   0.349   4.453
17119TIP3   OH272847   1.920   0.439   4.023
17119TIP3    H172848   1.991   0.481   3.975
17119TIP3    H272849   1.859   0.511   4.043
17120TIP3   OH272850   3.030   0.788   5.038
17120TIP3    H172851   3.064   0.733   4.968
17120TIP3    H272852   2.968   0.732   5.085
17121TIP3   OH272853   2.744   0.418   4.538
17121TIP3    H172854   2.653   0.407   4.565
17121TIP3    H272855   2.795   0.378   4.608
17122TIP3   OH272856   2.178   0.578   4.409
17122TIP3    H172857   2.105   0.603   4.353
17122TIP3    H272858   2.199   0.488   4.382
17123TIP3   OH272859   2.503   0.588   4.186
17123TIP3    H172860   2.597   0.581   4.206
17123TIP3    H272861   2.501   0.629   4.099
17124TIP3   OH272862   3.122   0.350   4.853
17124TIP3    H172863   3.088   0.348   4.942
17124TIP3    H272864   3.050   0.319   4.798
17125TIP3   OH272865   2.490   0.678   3.930
17125TIP3    H172866   2.441   0.649   3.853
17125TIP3    H272867   2.564   0.727   3.895
17126TIP3   OH272868   3.506   1.895   5.510
17126TIP3    H172869   3.536   1.937   5.429
17126TIP3    H272870   3.572   1.919   5.575
17127TIP3   OH272871   2.227   1.121   5.431
17127TIP3    H172872   2.286   1.165   5.493
17127TIP3    H272873   2.205   1.038   5.475
17128TIP3   OH272874   2.810   0.709   4.729
17128TIP3    H172875   2.867   0.645   4.687
17128TIP3    H272876   2.773   0.663   4.804
17129TIP3   OH272877   2.290   0.319   4.366
17129TIP3    H172878   2.261   0.233   4.396
17129TIP3    H272879   2.325   0.304   4.278
17130TIP3   OH272880   2.693   0.585   4.951
17130TIP3    H172881   2.608   0.627   4.962
17130TIP3    H272882   2.743   0.612   5.028
17131TIP3   OH272883   2.733   1.117   4.124
17131TIP3    H172884   2.661   1.086   4.069
17131TIP3    H272885   2.689   1.153   4.201
17132TIP3   OH272886   3.453   1.090   4.970
17132TIP3    H172887   3.516   1.143   4.920
17132TIP3    H272888   3.383   1.071   4.907
17133TIP3   OH272889   3.124   0.415   4.001
17133TIP3    H172890   3.032   0.412   3.977
17133TIP3    H272891   3.135   0.500   4.044
17134TIP3   OH272892   2.891   1.221   5.255
17134TIP3    H172893   2.853   1.177   5.330
17134TIP3    H272894   2.860   1.311   5.260
17135TIP3   OH272895   3.195   0.639   4.147
17135TIP3    H172896   3.285   0.623   4.177
17135TIP3    H272897   3.199   0.726   4.108
17136TIP3   OH272898   2.266   1.061   4.666
17136TIP3    H172899   2.326   1.056   4.591
17136TIP3    H272900   2.309   1.009   4.734
17137TIP3   OH272901   2.942   1.275   4.051
17137TIP3    H172902   2.908   1.365   4.055
17137TIP3    H272903   2.868   1.220   4.075
17138TIP3   OH272904   1.967   0.899   5.221
17138TIP3    H172905   1.945   0.845   5.296
17138TIP3    H272906   1.896   0.883   5.158
17139TIP3   OH272907   2.666   0.872   5.469
17139TIP3    H172908   2.598   0.843   5.408
17139TIP3    H272909   2.740   0.814   5.451
17140TIP3   OH272910   3.093   1.475   5.274
17140TIP3    H172911   2.999   1.482   5.256
17140TIP3    H272912   3.098   1.465   5.369
17141TIP3   OH272913   3.645   0.662   4.073
17141TIP3    H172914   3.604   0.640   3.989
17141TIP3    H272915   3.668   0.755   4.064
17142TIP3   OH272916   3.711   1.300   5.352
17142TIP3    H172917   3.622   1.282   5.322
17142TIP3    H272918   3.767   1.264   5.283
17143TIP3   OH272919   3.522   1.515   4.152
17143TIP3    H172920   3.468   1.445   4.191
17143TIP3    H272921   3.554   1.477   4.070
17144TIP3   OH272922   3.248   1.021   4.781
17144TIP3    H172923   3.153   1.013   4.781
17144TIP3    H272924   3.279   0.944   4.735
17145TIP3   OH272925   2.529   1.447   4.472
17145TIP3    H172926   2.543   1.533   4.431
17145TIP3    H272927   2.444   1.455   4.515
17146TIP3   OH272928   2.082   0.893   3.935
17146TIP3    H172929   2.127   0.960   3.987
17146TIP3    H272930   1.991   0.899   3.964
17147TIP3   OH272931   2.581   1.224   4.321
17147TIP3    H172932   2.573   1.304   4.373
17147TIP3    H272933   2.536   1.157   4.373
17148TIP3   OH272934   2.711   1.620   5.047
17148TIP3    H172935   2.770   1.693   5.027
17148TIP3    H272936   2.757   1.570   5.115
17149TIP3   OH272937   2.516   1.704   4.357
17149TIP3    H172938   2.424   1.718   4.379
17149TIP3    H272939   2.561   1.780   4.394
17150TIP3   OH272940   3.020   1.235   5.015
17150TIP3    H172941   2.977   1.227   5.100
17150TIP3    H272942   3.082   1.163   5.013
17151TIP3   OH272943   3.303   1.327   3.916
17151TIP3    H172944   3.329   1.275   3.992
17151TIP3    H272945   3.216   1.296   3.894
17152TIP3   OH272946   3.308   1.645   5.229
17152TIP3    H172947   3.227   1.594   5.228
17152TIP3    H272948   3.293   1.715   5.166
17153TIP3   OH272949   3.712   1.755   3.926
17153TIP3    H172950   3.764   1.827   3.890
17153TIP3    H272951   3.634   1.798   3.961
17154TIP3   OH272952   2.098   0.396   5.176
17154TIP3    H172953   2.005   0.411   5.163
17154TIP3    H272954   2.103   0.321   5.236
17155TIP3   OH272955   3.411   1.170   4.114
17155TIP3    H172956   3.366   1.108   4.172
17155TIP3    H272957   3.504   1.162   4.136
17156TIP3   OH272958   2.110   1.580   5.020
17156TIP3    H172959   2.144   1.510   5.075
17156TIP3    H272960   2.118   1.659   5.073
17157TIP3   OH272961   2.662   1.417   3.779
17157TIP3    H172962   2.669   1.332   3.736
17157TIP3    H272963   2.625   1.397   3.865
17158TIP3   OH272964   2.532   1.388   4.027
17158TIP3    H172965   2.558   1.337   4.104
17158TIP3    H272966   2.546   1.479   4.053
17159TIP3   OH272967   2.188   1.103   4.085
17159TIP3    H172968   2.123   1.153   4.134
17159TIP3    H272969   2.235   1.168   4.033
17160TIP3   OH272970   3.016   0.358   5.105
17160TIP3    H172971   3.084   0.384   5.167
17160TIP3    H272972   2.979   0.277   5.141
17161TIP3   OH272973   3.124   0.274   4.241
17161TIP3    H172974   3.124   0.316   4.155
17161TIP3    H272975   3.163   0.340   4.299
17162TIP3   OH272976   2.836   1.524   4.060
17162TIP3    H172977   2.749   1.556   4.084
17162TIP3    H272978   2.886   1.604   4.041
17163TIP3   OH272979   2.756   0.535   4.289
17163TIP3    H172980   2.832   0.592   4.294
17163TIP3    H272981   2.747   0.500   4.378
17164TIP3   OH272982   2.869   0.608   5.168
17164TIP3    H172983   2.861   0.626   5.262
17164TIP3    H272984   2.902   0.518   5.164
17165TIP3   OH272985   2.875   0.216   4.355
17165TIP3    H172986   2.871   0.288   4.418
17165TIP3    H272987   2.964   0.219   4.320
17166TIP3   OH272988   2.591   1.646   4.100
17166TIP3    H172989   2.601   1.731   4.058
17166TIP3    H272990   2.565   1.667   4.190
17167TIP3   OH272991   2.456   0.344   4.054
17167TIP3    H172992   2.444   0.429   4.095
17167TIP3    H272993   2.540   0.312   4.087
17168TIP3   OH272994   3.441   0.357   5.301
17168TIP3    H172995   3.351   0.391   5.297
17168TIP3    H272996   3.460   0.328   5.212
17169TIP3   OH272997   3.323   0.774   4.655
17169TIP3    H172998   3.239   0.733   4.636
17169TIP3    H272999   3.366   0.712   4.716
17170TIP3   OH273000   2.290   1.309   3.918
17170TIP3    H173001   2.364   1.352   3.962
17170TIP3    H273002   2.331   1.252   3.852
17171TIP3   OH273003   2.065   0.621   3.879
17171TIP3    H173004   2.086   0.709   3.909
17171TIP3    H273005   2.027   0.634   3.792
17172TIP3   OH273006   3.455   1.727   4.825
17172TIP3    H173007   3.443   1.800   4.765
17172TIP3    H273008   3.550   1.722   4.837
17173TIP3   OH273009   2.151   0.090   4.774
17173TIP3    H173010   2.203   0.024   4.729
17173TIP3    H273011   2.130   0.050   4.859
17174TIP3   OH273012   2.061   1.522   4.333
17174TIP3    H173013   2.011   1.550   4.410
17174TIP3    H273014   2.045   1.590   4.268
17175TIP3   OH273015   2.037   1.839   5.506
17175TIP3    H173016   2.039   1.835   5.602
17175TIP3    H273017   2.001   1.755   5.478
17176TIP3   OH273018   2.868   1.602   3.753
17176TIP3    H173019   2.802   1.535   3.772
17176TIP3    H273020   2.945   1.552   3.725
17177TIP3   OH273021   3.121   1.424   5.544
17177TIP3    H173022   3.118   1.329   5.549
17177TIP3    H273023   3.198   1.449   5.595
17178TIP3   OH273024   3.323   1.571   3.794
17178TIP3    H173025   3.330   1.491   3.845
17178TIP3    H273026   3.399   1.570   3.736
17179TIP3   OH273027   2.424   1.133   3.758
17179TIP3    H173028   2.445   1.083   3.837
17179TIP3    H273029   2.508   1.147   3.715
17180TIP3   OH273030   2.734   1.142   5.470
17180TIP3    H173031   2.665   1.188   5.423
17180TIP3    H273032   2.702   1.052   5.477
17181TIP3   OH273033   3.055   1.261   3.802
17181TIP3    H173034   3.008   1.258   3.885
17181TIP3    H273035   3.026   1.183   3.755
17182TIP3   OH273036   3.231   1.220   5.303
17182TIP3    H173037   3.317   1.240   5.268
17182TIP3    H273038   3.176   1.294   5.276
17183TIP3   OH273039   2.204   0.878   5.562
17183TIP3    H173040   2.227   0.794   5.521
17183TIP3    H273041   2.210   0.861   5.656
17184TIP3   OH273042   2.519   1.004   3.985
17184TIP3    H173043   2.474   0.963   4.059
17184TIP3    H273044   2.572   0.934   3.947
17185TIP3   OH273045   2.498   0.791   5.259
17185TIP3    H173046   2.418   0.841   5.244
17185TIP3    H273047   2.558   0.823   5.192
17186TIP3   OH273048   2.690   0.840   3.839
17186TIP3    H173049   2.685   0.865   3.746
17186TIP3    H273050   2.784   0.830   3.855
17187TIP3   OH273051   3.095   1.049   5.600
17187TIP3    H173052   3.140   1.013   5.524
17187TIP3    H273053   3.002   1.040   5.580
17188TIP3   OH273054   3.561   1.017   3.784
17188TIP3    H173055   3.565   0.999   3.690
17188TIP3    H273056   3.556   1.112   3.791
17189TIP3   OH273057   2.531   0.536   5.361
17189TIP3    H173058   2.550   0.476   5.289
17189TIP3    H273059   2.531   0.623   5.320
17190TIP3   OH273060   2.572   0.382   5.123
17190TIP3    H173061   2.622   0.430   5.057
17190TIP3    H273062   2.484   0.377   5.087
17191TIP3   OH273063   2.684   0.888   5.085
17191TIP3    H173064   2.778   0.901   5.094
17191TIP3    H273065   2.652   0.969   5.046
17192TIP3   OH273066   3.268   0.967   5.396
17192TIP3    H173067   3.252   1.053   5.357
17192TIP3    H273068   3.358   0.972   5.429
17193TIP3   OH273069   2.276   0.634   5.434
17193TIP3    H173070   2.235   0.561   5.481
17193TIP3    H273071   2.367   0.608   5.423
17194TIP3   OH273072   2.631   0.125   5.212
17194TIP3    H173073   2.615   0.217   5.188
17194TIP3    H273074   2.547   0.082   5.195
17195TIP3   OH273075   2.761   0.449   5.525
17195TIP3    H173076   2.766   0.397   5.605
17195TIP3    H273077   2.667   0.454   5.506
17196TIP3   OH273078   3.030   0.444   5.463
17196TIP3    H173079   2.940   0.428   5.490
17196TIP3    H273080   3.084   0.397   5.527
17197TIP3   OH273081   3.226   0.322   5.614
17197TIP3    H173082   3.305   0.286   5.575
17197TIP3    H273083   3.258   0.372   5.689
17198TIP3   OH273084   2.174   0.406   5.549
17198TIP3    H173085   2.184   0.330   5.493
17198TIP3    H273086   2.198   0.375   5.636
17199TIP3   OH273087   2.613   0.016   5.467
17199TIP3    H173088   2.695  -0.025   5.494
17199TIP3    H273089   2.634   0.059   5.384
17200TIP3   OH273090   2.670   1.882   3.977
17200TIP3    H173091   2.760   1.849   3.971
17200TIP3    H273092   2.664   1.949   3.909
17201TIP3   OH273093   2.023   1.354   3.880
17201TIP3    H173094   2.116   1.346   3.901
17201TIP3    H273095   2.006   1.281   3.819
17202TIP3   OH273096   1.890   1.841   4.425
17202TIP3    H173097   1.832   1.808   4.357
17202TIP3    H273098   1.908   1.765   4.480
17203TIP3   OH273099   1.962   1.623   4.581
17203TIP3    H173100   1.926   1.550   4.631
17203TIP3    H273101   2.013   1.673   4.645
17204TIP3   OH273102   3.724   1.718   4.895
17204TIP3    H173103   3.716   1.727   4.990
17204TIP3    H273104   3.801   1.771   4.873
17205TIP3   OH273105   3.667   1.699   5.167
17205TIP3    H173106   3.610   1.631   5.132
17205TIP3    H273107   3.701   1.662   5.248
17206TIP3   OH273108   3.514   1.258   5.659
17206TIP3    H173109   3.476   1.207   5.587
17206TIP3    H273110   3.608   1.242   5.653
17207TIP3   OH273111   3.675   1.118   4.191
17207TIP3    H173112   3.745   1.184   4.196
17207TIP3    H273113   3.691   1.061   4.266
17208TIP3   OH273114   3.723   0.922   4.383
17208TIP3    H173115   3.638   0.889   4.411
17208TIP3    H273116   3.773   0.933   4.464
17209TIP3   OH273117   3.692   1.214   4.898
17209TIP3    H173118   3.747   1.146   4.860
17209TIP3    H273119   3.724   1.296   4.859
17210TIP3   OH273120   3.495   1.502   5.080
17210TIP3    H173121   3.423   1.544   5.127
17210TIP3    H273122   3.460   1.484   4.993
17211TIP3   OH273123   3.706   0.923   4.001
17211TIP3    H173124   3.655   0.949   3.924
17211TIP3    H273125   3.690   0.991   4.065
17212TIP3   OH273126   3.544   0.623   3.822
17212TIP3    H173127   3.519   0.681   3.750
17212TIP3    H273128   3.529   0.535   3.787
17213TIP3   OH273129   3.472   0.801   4.424
17213TIP3    H173130   3.468   0.711   4.392
17213TIP3    H273131   3.426   0.799   4.508
17214TIP3   OH273132   1.944   0.974   4.851
17214TIP3    H173133   1.957   0.965   4.756
17214TIP3    H273134   2.022   0.935   4.890
17215TIP3   OH273135   3.534   0.984   5.497
17215TIP3    H173136   3.569   0.899   5.469
17215TIP3    H273137   3.611   1.034   5.524
17216TIP3   OH273138   3.701   0.760   5.422
17216TIP3    H173139   3.618   0.714   5.411
17216TIP3    H273140   3.765   0.691   5.438
17217TIP3   OH273141   3.479   0.376   3.719
17217TIP3    H173142   3.519   0.321   3.787
17217TIP3    H273143   3.385   0.358   3.725
17218TIP3   OH273144   3.458   0.549   4.260
17218TIP3    H173145   3.486   0.458   4.267
17218TIP3    H273146   3.522   0.590   4.202
17219TIP3   OH273147   3.471   0.587   4.806
17219TIP3    H173148   3.565   0.594   4.788
17219TIP3    H273149   3.463   0.609   4.899
17220TIP3   OH273150   3.483   0.675   5.069
17220TIP3    H173151   3.410   0.700   5.124
17220TIP3    H273152   3.537   0.754   5.063
17221TIP3   OH273153   1.920   0.461   5.475
17221TIP3    H173154   2.011   0.456   5.503
17221TIP3    H273155   1.915   0.404   5.398
17222TIP3   OH273156   3.517   0.270   4.291
17222TIP3    H173157   3.536   0.228   4.375
17222TIP3    H273158   3.456   0.211   4.248
17223TIP3   OH273159   2.053   0.353   4.745
17223TIP3    H173160   2.086   0.264   4.756
17223TIP3    H273161   2.129   0.408   4.759
17224TIP3   OH273162   1.867   0.643   4.810
17224TIP3    H173163   1.937   0.642   4.745
17224TIP3    H273164   1.894   0.709   4.874
17225TIP3   OH273165   3.695   0.279   5.384
17225TIP3    H173166   3.605   0.313   5.381
17225TIP3    H273167   3.696   0.209   5.319
17226TIP3   OH273168   3.643   0.248   3.905
17226TIP3    H173169   3.696   0.183   3.858
17226TIP3    H273170   3.708   0.306   3.945
17227TIP3   OH273171   1.902   0.265   4.233
17227TIP3    H173172   1.809   0.263   4.254
17227TIP3    H273173   1.911   0.336   4.170
17228TIP3   OH273174   3.384   1.797   4.441
17228TIP3    H173175   3.459   1.791   4.382
17228TIP3    H273176   3.416   1.846   4.517
17229TIP3   OH273177   1.961   0.111   5.064
17229TIP3    H173178   1.887   0.082   5.117
17229TIP3    H273179   1.928   0.184   5.013
17230TIP3   OH273180   2.112   1.534   5.496
17230TIP3    H173181   2.029   1.518   5.452
17230TIP3    H273182   2.091   1.527   5.589
17231TIP3   OH273183   2.447   1.595   5.124
17231TIP3    H173184   2.417   1.684   5.105
17231TIP3    H273185   2.541   1.596   5.105
17232TIP3   OH273186   2.812   1.731   5.417
17232TIP3    H173187   2.833   1.693   5.502
17232TIP3    H273188   2.886   1.787   5.397
17233TIP3   OH273189   3.057   1.857   5.360
17233TIP3    H173190   3.114   1.793   5.318
17233TIP3    H273191   3.105   1.883   5.438
17234TIP3   OH273192   3.636   0.094   5.178
17234TIP3    H173193   3.564   0.135   5.130
17234TIP3    H273194   3.613   0.001   5.181
17235TIP3   OH273195   2.124   1.852   5.126
17235TIP3    H173196   2.052   1.896   5.082
17235TIP3    H273197   2.117   1.880   5.218
17236TIP3   OH273198   2.395   1.860   5.057
17236TIP3    H173199   2.301   1.863   5.076
17236TIP3    H273200   2.405   1.903   4.973
17237TIP3   OH273201   2.856   1.842   4.961
17237TIP3    H173202   2.802   1.877   4.891
17237TIP3    H273203   2.864   1.913   5.024
17238TIP3   OH273204   3.087   1.715   5.041
17238TIP3    H173205   3.007   1.758   5.010
17238TIP3    H273206   3.156   1.779   5.026
17239TIP3   OH273207   3.329   1.854   5.035
17239TIP3    H173208   3.356   1.945   5.022
17239TIP3    H273209   3.369   1.806   4.963
17240TIP3   OH273210   2.122   1.736   4.782
17240TIP3    H173211   2.102   1.693   4.865
17240TIP3    H273212   2.202   1.693   4.752
17241TIP3   OH273213   2.340   1.606   4.683
17241TIP3    H173214   2.326   1.514   4.705
17241TIP3    H273215   2.424   1.627   4.723
17242TIP3   OH273216   2.594   1.637   4.796
17242TIP3    H173217   2.608   1.548   4.766
17242TIP3    H273218   2.625   1.637   4.887
17243TIP3   OH273219   2.910   0.261   4.696
17243TIP3    H173220   2.841   0.200   4.721
17243TIP3    H273221   2.972   0.208   4.646
17244TIP3   OH273222   3.387   0.025   4.656
17244TIP3    H173223   3.467   0.054   4.613
17244TIP3    H273224   3.353   0.105   4.698
17245TIP3   OH273225   3.606   0.126   4.523
17245TIP3    H173226   3.674   0.060   4.538
17245TIP3    H273227   3.650   0.210   4.538
17246TIP3   OH273228   2.230   0.057   4.427
17246TIP3    H173229   2.153   0.029   4.377
17246TIP3    H273230   2.233  -0.004   4.501
17247TIP3   OH273231   2.057   0.142   4.006
17247TIP3    H173232   2.112   0.195   3.949
17247TIP3    H273233   2.008   0.205   4.059
17248TIP3   OH273234   2.643   0.114   4.460
17248TIP3    H173235   2.726   0.145   4.425
17248TIP3    H273236   2.654   0.118   4.555
17249TIP3   OH273237   3.115   0.153   4.550
17249TIP3    H173238   3.176   0.220   4.519
17249TIP3    H273239   3.149   0.071   4.516
17250TIP3   OH273240   3.327   0.087   4.204
17250TIP3    H173241   3.248   0.141   4.204
17250TIP3    H273242   3.309   0.018   4.268
17251TIP3   OH273243   2.029   1.709   4.135
17251TIP3    H173244   1.951   1.697   4.082
17251TIP3    H273245   2.051   1.801   4.126
17252TIP3   OH273246   2.245   0.294   3.871
17252TIP3    H173247   2.277   0.222   3.816
17252TIP3    H273248   2.314   0.306   3.937
17253TIP3   OH273249   2.712   0.304   4.146
17253TIP3    H173250   2.757   0.241   4.203
17253TIP3    H273251   2.724   0.388   4.189
17254TIP3   OH273252   2.923   1.775   3.958
17254TIP3    H173253   3.016   1.792   3.948
17254TIP3    H273254   2.899   1.723   3.881
17255TIP3   OH273255   3.586   1.761   4.252
17255TIP3    H173256   3.566   1.672   4.223
17255TIP3    H273257   3.569   1.816   4.176
17256TIP3   OH273258   2.115   0.193   5.364
17256TIP3    H173259   2.062   0.113   5.357
17256TIP3    H273260   2.199   0.162   5.398
17257TIP3   OH273261   2.345   0.111   5.481
17257TIP3    H173262   2.441   0.108   5.477
17257TIP3    H273263   2.322   0.047   5.548
17258TIP3   OH273264   2.214   1.758   3.825
17258TIP3    H173265   2.197   1.754   3.919
17258TIP3    H273266   2.290   1.701   3.812
17259TIP3   OH273267   3.455   1.629   5.466
17259TIP3    H173268   3.403   1.628   5.385
17259TIP3    H273269   3.467   1.722   5.485
17260TIP3   OH273270   4.965   1.032   4.404
17260TIP3    H173271   4.941   1.125   4.406
17260TIP3    H273272   4.891   0.988   4.363
17261TIP3   OH273273   4.834   0.944   4.822
17261TIP3    H173274   4.872   0.909   4.903
17261TIP3    H273275   4.797   0.867   4.778
17262TIP3   OH273276   4.053   0.880   4.989
17262TIP3    H173277   4.054   0.789   5.019
17262TIP3    H273278   4.087   0.930   5.064
17263TIP3   OH273279   5.240   1.256   4.641
17263TIP3    H173280   5.204   1.180   4.687
17263TIP3    H273281   5.255   1.321   4.710
17264TIP3   OH273282   4.219   1.336   4.735
17264TIP3    H173283   4.178   1.289   4.807
17264TIP3    H273284   4.313   1.335   4.755
17265TIP3   OH273285   3.867   0.714   4.263
17265TIP3    H173286   3.825   0.788   4.306
17265TIP3    H273287   3.801   0.681   4.202
17266TIP3   OH273288   3.909   0.926   4.593
17266TIP3    H173289   3.932   0.835   4.608
17266TIP3    H273290   3.991   0.974   4.606
17267TIP3   OH273291   4.964   1.715   4.695
17267TIP3    H173292   4.991   1.654   4.626
17267TIP3    H273293   4.962   1.661   4.774
17268TIP3   OH273294   4.695   1.188   4.847
17268TIP3    H173295   4.734   1.106   4.816
17268TIP3    H273296   4.761   1.225   4.905
17269TIP3   OH273297   5.583   0.327   4.930
17269TIP3    H173298   5.591   0.391   5.001
17269TIP3    H273299   5.644   0.357   4.863
17270TIP3   OH273300   5.005   0.592   4.840
17270TIP3    H173301   5.027   0.501   4.861
17270TIP3    H273302   4.989   0.591   4.746
17271TIP3   OH273303   4.312   0.439   4.575
17271TIP3    H173304   4.325   0.522   4.529
17271TIP3    H273305   4.272   0.381   4.510
17272TIP3   OH273306   5.131   0.439   4.415
17272TIP3    H173307   5.175   0.421   4.497
17272TIP3    H273308   5.198   0.479   4.359
17273TIP3   OH273309   3.981   0.667   4.645
17273TIP3    H173310   4.041   0.625   4.707
17273TIP3    H273311   4.005   0.630   4.560
17274TIP3   OH273312   4.498   0.806   4.617
17274TIP3    H173313   4.582   0.774   4.650
17274TIP3    H273314   4.460   0.730   4.572
17275TIP3   OH273315   5.590   0.493   5.149
17275TIP3    H173316   5.517   0.554   5.132
17275TIP3    H273317   5.610   0.505   5.242
17276TIP3   OH273318   4.196   0.349   5.016
17276TIP3    H173319   4.163   0.414   4.953
17276TIP3    H273320   4.130   0.348   5.085
17277TIP3   OH273321   4.857   1.274   4.325
17277TIP3    H173322   4.885   1.290   4.235
17277TIP3    H273323   4.834   1.361   4.358
17278TIP3   OH273324   4.473   1.106   4.992
17278TIP3    H173325   4.421   1.181   5.022
17278TIP3    H273326   4.549   1.146   4.949
17279TIP3   OH273327   5.231   0.410   4.665
17279TIP3    H173328   5.178   0.375   4.737
17279TIP3    H273329   5.292   0.470   4.707
17280TIP3   OH273330   4.165   0.515   4.792
17280TIP3    H173331   4.219   0.574   4.844
17280TIP3    H273332   4.224   0.480   4.726
17281TIP3   OH273333   4.312   1.316   5.081
17281TIP3    H173334   4.320   1.411   5.078
17281TIP3    H273335   4.226   1.301   5.122
17282TIP3   OH273336   3.889   1.300   4.169
17282TIP3    H173337   3.876   1.348   4.088
17282TIP3    H273338   3.913   1.367   4.233
17283TIP3   OH273339   5.257   1.458   4.842
17283TIP3    H173340   5.162   1.456   4.855
17283TIP3    H273341   5.277   1.549   4.822
17284TIP3   OH273342   5.320   0.276   5.028
17284TIP3    H173343   5.246   0.295   4.970
17284TIP3    H273344   5.397   0.300   4.976
17285TIP3   OH273345   4.562   0.118   4.740
17285TIP3    H173346   4.574   0.035   4.787
17285TIP3    H273347   4.477   0.150   4.771
17286TIP3   OH273348   5.070   1.584   4.474
17286TIP3    H173349   5.110   1.502   4.447
17286TIP3    H273350   5.142   1.647   4.476
17287TIP3   OH273351   5.203   1.363   4.390
17287TIP3    H173352   5.233   1.298   4.325
17287TIP3    H273353   5.219   1.320   4.474
17288TIP3   OH273354   5.363   1.242   5.198
17288TIP3    H173355   5.360   1.185   5.122
17288TIP3    H273356   5.373   1.330   5.162
17289TIP3   OH273357   4.804   0.929   4.193
17289TIP3    H173358   4.752   1.006   4.170
17289TIP3    H273359   4.880   0.933   4.135
17290TIP3   OH273360   4.856   0.818   3.849
17290TIP3    H173361   4.909   0.842   3.925
17290TIP3    H273362   4.905   0.746   3.809
17291TIP3   OH273363   5.535   0.897   5.044
17291TIP3    H173364   5.463   0.960   5.034
17291TIP3    H273365   5.598   0.923   4.977
17292TIP3   OH273366   5.189   0.960   4.268
17292TIP3    H173367   5.119   0.985   4.328
17292TIP3    H273368   5.251   0.911   4.322
17293TIP3   OH273369   5.140   0.763   5.224
17293TIP3    H173370   5.137   0.835   5.286
17293TIP3    H273371   5.078   0.787   5.155
17294TIP3   OH273372   4.349   0.982   4.474
17294TIP3    H173373   4.264   0.986   4.516
17294TIP3    H273374   4.404   0.933   4.535
17295TIP3   OH273375   4.497   1.356   4.732
17295TIP3    H173376   4.514   1.363   4.638
17295TIP3    H273377   4.570   1.304   4.766
17296TIP3   OH273378   4.352   0.928   4.822
17296TIP3    H173379   4.420   0.894   4.763
17296TIP3    H273380   4.399   0.986   4.882
17297TIP3   OH273381   4.991   1.454   4.902
17297TIP3    H173382   4.973   1.531   4.956
17297TIP3    H273383   4.953   1.381   4.950
17298TIP3   OH273384   4.471   1.319   5.321
17298TIP3    H173385   4.406   1.375   5.363
17298TIP3    H273386   4.430   1.293   5.238
17299TIP3   OH273387   5.043   0.898   4.044
17299TIP3    H173388   5.098   0.932   4.115
17299TIP3    H273389   5.096   0.911   3.965
17300TIP3   OH273390   4.110   0.962   5.257
17300TIP3    H173391   4.117   1.034   5.319
17300TIP3    H273392   4.017   0.937   5.259
17301TIP3   OH273393   4.815   1.543   4.378
17301TIP3    H173394   4.899   1.558   4.421
17301TIP3    H273395   4.792   1.628   4.340
17302TIP3   OH273396   4.266   1.491   5.367
17302TIP3    H173397   4.262   1.553   5.294
17302TIP3    H273398   4.195   1.519   5.426
17303TIP3   OH273399   5.337   0.064   3.919
17303TIP3    H173400   5.323   0.044   4.012
17303TIP3    H273401   5.405   0.131   3.919
17304TIP3   OH273402   4.169   0.887   4.215
17304TIP3    H173403   4.135   0.968   4.177
17304TIP3    H273404   4.092   0.832   4.229
17305TIP3   OH273405   5.554   1.480   3.898
17305TIP3    H173406   5.564   1.575   3.898
17305TIP3    H273407   5.643   1.447   3.887
17306TIP3   OH273408   3.835   1.175   5.142
17306TIP3    H173409   3.780   1.179   5.064
17306TIP3    H273410   3.835   1.083   5.167
17307TIP3   OH273411   3.813   1.461   4.825
17307TIP3    H173412   3.892   1.469   4.878
17307TIP3    H273413   3.761   1.538   4.849
17308TIP3   OH273414   5.602   1.524   5.451
17308TIP3    H173415   5.590   1.432   5.426
17308TIP3    H273416   5.545   1.536   5.527
17309TIP3   OH273417   4.694   1.478   5.273
17309TIP3    H173418   4.697   1.557   5.326
17309TIP3    H273419   4.616   1.432   5.304
17310TIP3   OH273420   4.798   1.798   4.252
17310TIP3    H173421   4.785   1.809   4.158
17310TIP3    H273422   4.771   1.882   4.290
17311TIP3   OH273423   4.139   1.704   4.436
17311TIP3    H173424   4.161   1.671   4.524
17311TIP3    H273425   4.086   1.635   4.397
17312TIP3   OH273426   5.075   1.753   3.944
17312TIP3    H173427   5.128   1.683   3.904
17312TIP3    H273428   5.093   1.747   4.038
17313TIP3   OH273429   5.073   1.757   4.218
17313TIP3    H173430   4.981   1.758   4.245
17313TIP3    H273431   5.121   1.729   4.295
17314TIP3   OH273432   5.294   0.632   5.427
17314TIP3    H173433   5.250   0.671   5.352
17314TIP3    H273434   5.300   0.539   5.406
17315TIP3   OH273435   4.060   1.318   5.198
17315TIP3    H173436   4.086   1.291   5.286
17315TIP3    H273437   3.984   1.264   5.178
17316TIP3   OH273438   4.307   0.178   4.830
17316TIP3    H173439   4.226   0.157   4.784
17316TIP3    H273440   4.280   0.232   4.904
17317TIP3   OH273441   4.804   0.142   5.224
17317TIP3    H173442   4.812   0.070   5.286
17317TIP3    H273443   4.712   0.141   5.197
17318TIP3   OH273444   5.039   0.506   5.263
17318TIP3    H173445   5.000   0.495   5.349
17318TIP3    H273446   5.059   0.600   5.257
17319TIP3   OH273447   5.184   0.905   3.808
17319TIP3    H173448   5.164   0.932   3.718
17319TIP3    H273449   5.273   0.935   3.823
17320TIP3   OH273450   4.747   0.378   3.943
17320TIP3    H173451   4.691   0.352   4.016
17320TIP3    H273452   4.724   0.318   3.872
17321TIP3   OH273453   4.323   0.682   4.943
17321TIP3    H173454   4.287   0.692   5.031
17321TIP3    H273455   4.319   0.770   4.905
17322TIP3   OH273456   4.325   0.672   4.423
17322TIP3    H173457   4.231   0.655   4.417
17322TIP3    H273458   4.361   0.642   4.339
17323TIP3   OH273459   4.874   0.690   4.314
17323TIP3    H173460   4.846   0.774   4.278
17323TIP3    H273461   4.948   0.663   4.259
17324TIP3   OH273462   4.793   0.684   5.421
17324TIP3    H173463   4.741   0.619   5.468
17324TIP3    H273464   4.875   0.689   5.471
17325TIP3   OH273465   4.965   0.611   4.567
17325TIP3    H173466   4.923   0.659   4.497
17325TIP3    H273467   5.014   0.541   4.523
17326TIP3   OH273468   4.085   0.634   5.122
17326TIP3    H173469   4.148   0.664   5.188
17326TIP3    H273470   4.046   0.555   5.160
17327TIP3   OH273471   4.430   0.395   3.797
17327TIP3    H173472   4.403   0.384   3.888
17327TIP3    H273473   4.370   0.460   3.761
17328TIP3   OH273474   3.755   0.353   4.519
17328TIP3    H173475   3.827   0.361   4.582
17328TIP3    H273476   3.798   0.337   4.435
17329TIP3   OH273477   3.815   0.441   4.033
17329TIP3    H173478   3.884   0.485   3.984
17329TIP3    H273479   3.750   0.509   4.050
17330TIP3   OH273480   4.935   0.778   5.028
17330TIP3    H173481   4.967   0.717   4.961
17330TIP3    H273482   4.866   0.730   5.073
17331TIP3   OH273483   4.590   0.464   4.544
17331TIP3    H173484   4.508   0.437   4.584
17331TIP3    H273485   4.654   0.400   4.577
17332TIP3   OH273486   4.070   0.578   4.393
17332TIP3    H173487   3.996   0.613   4.342
17332TIP3    H273488   4.079   0.488   4.364
17333TIP3   OH273489   4.442   0.671   4.179
17333TIP3    H173490   4.519   0.616   4.192
17333TIP3    H273491   4.418   0.658   4.087
17334TIP3   OH273492   5.073   0.311   4.866
17334TIP3    H173493   5.012   0.314   4.940
17334TIP3    H273494   5.036   0.243   4.808
17335TIP3   OH273495   4.364   0.696   3.915
17335TIP3    H173496   4.314   0.661   3.841
17335TIP3    H273497   4.443   0.732   3.876
17336TIP3   OH273498   5.382   1.927   5.516
17336TIP3    H173499   5.456   1.911   5.458
17336TIP3    H273500   5.422   1.950   5.600
17337TIP3   OH273501   4.108   1.176   5.444
17337TIP3    H173502   4.190   1.153   5.490
17337TIP3    H273503   4.044   1.186   5.514
17338TIP3   OH273504   4.724   0.702   4.728
17338TIP3    H173505   4.789   0.647   4.686
17338TIP3    H273506   4.685   0.646   4.796
17339TIP3   OH273507   4.196   0.309   4.351
17339TIP3    H173508   4.134   0.248   4.391
17339TIP3    H273509   4.263   0.253   4.313
17340TIP3   OH273510   4.583   0.579   4.936
17340TIP3    H173511   4.498   0.622   4.945
17340TIP3    H273512   4.631   0.603   5.015
17341TIP3   OH273513   4.626   1.135   4.122
17341TIP3    H173514   4.553   1.087   4.083
17341TIP3    H273515   4.592   1.165   4.207
17342TIP3   OH273516   5.349   1.089   4.969
17342TIP3    H173517   5.413   1.143   4.923
17342TIP3    H273518   5.280   1.074   4.904
17343TIP3   OH273519   5.012   0.412   3.993
17343TIP3    H173520   4.917   0.412   3.979
17343TIP3    H273521   5.029   0.493   4.042
17344TIP3   OH273522   4.758   1.179   5.270
17344TIP3    H173523   4.782   1.143   5.355
17344TIP3    H273524   4.724   1.267   5.290
17345TIP3   OH273525   5.087   0.633   4.144
17345TIP3    H173526   5.174   0.613   4.176
17345TIP3    H273527   5.095   0.721   4.107
17346TIP3   OH273528   4.153   1.035   4.663
17346TIP3    H173529   4.192   1.123   4.662
17346TIP3    H273530   4.197   0.990   4.735
17347TIP3   OH273531   4.845   1.281   4.035
17347TIP3    H173532   4.810   1.370   4.042
17347TIP3    H273533   4.774   1.225   4.065
17348TIP3   OH273534   3.833   0.914   5.235
17348TIP3    H173535   3.800   0.870   5.314
17348TIP3    H273536   3.772   0.889   5.166
17349TIP3   OH273537   4.595   0.886   5.452
17349TIP3    H173538   4.566   0.894   5.361
17349TIP3    H273539   4.670   0.827   5.448
17350TIP3   OH273540   4.975   1.449   5.253
17350TIP3    H173541   4.880   1.455   5.248
17350TIP3    H273542   4.996   1.466   5.345
17351TIP3   OH273543   5.521   0.669   4.075
17351TIP3    H173544   5.479   0.647   3.992
17351TIP3    H273545   5.547   0.760   4.066
17352TIP3   OH273546   5.571   1.233   5.374
17352TIP3    H173547   5.486   1.243   5.332
17352TIP3    H273548   5.632   1.222   5.301
17353TIP3   OH273549   5.412   1.520   4.140
17353TIP3    H173550   5.364   1.444   4.172
17353TIP3    H273551   5.454   1.490   4.059
17354TIP3   OH273552   5.147   1.026   4.778
17354TIP3    H173553   5.051   1.023   4.785
17354TIP3    H273554   5.170   0.944   4.734
17355TIP3   OH273555   4.421   1.435   4.461
17355TIP3    H173556   4.444   1.518   4.420
17355TIP3    H273557   4.336   1.451   4.502
17356TIP3   OH273558   3.971   0.897   3.929
17356TIP3    H173559   4.013   0.968   3.979
17356TIP3    H273560   3.879   0.901   3.955
17357TIP3   OH273561   4.467   1.192   4.335
17357TIP3    H173562   4.462   1.280   4.374
17357TIP3    H273563   4.425   1.135   4.399
17358TIP3   OH273564   4.587   1.611   5.049
17358TIP3    H173565   4.643   1.686   5.030
17358TIP3    H273566   4.636   1.560   5.113
17359TIP3   OH273567   4.404   1.698   4.355
17359TIP3    H173568   4.312   1.715   4.375
17359TIP3    H273569   4.451   1.774   4.390
17360TIP3   OH273570   4.896   1.224   5.037
17360TIP3    H173571   4.842   1.208   5.114
17360TIP3    H273572   4.983   1.193   5.062
17361TIP3   OH273573   5.182   1.324   3.955
17361TIP3    H173574   5.216   1.284   4.035
17361TIP3    H273575   5.087   1.314   3.962
17362TIP3   OH273576   5.170   1.658   5.206
17362TIP3    H173577   5.092   1.606   5.187
17362TIP3    H273578   5.167   1.730   5.144
17363TIP3   OH273579   5.592   1.752   3.921
17363TIP3    H173580   5.639   1.820   3.873
17363TIP3    H273581   5.517   1.797   3.961
17364TIP3   OH273582   3.998   0.363   5.214
17364TIP3    H173583   3.924   0.332   5.163
17364TIP3    H273584   4.024   0.288   5.267
17365TIP3   OH273585   5.295   1.198   4.175
17365TIP3    H173586   5.253   1.117   4.204
17365TIP3    H273587   5.389   1.180   4.179
17366TIP3   OH273588   4.039   1.547   5.022
17366TIP3    H173589   4.020   1.475   5.083
17366TIP3    H273590   4.131   1.568   5.038
17367TIP3   OH273591   4.550   1.426   3.772
17367TIP3    H173592   4.566   1.342   3.728
17367TIP3    H273593   4.518   1.402   3.859
17368TIP3   OH273594   4.435   1.380   4.021
17368TIP3    H173595   4.490   1.333   4.084
17368TIP3    H273596   4.440   1.471   4.048
17369TIP3   OH273597   4.070   1.108   4.083
17369TIP3    H173598   4.003   1.160   4.128
17369TIP3    H273599   4.120   1.173   4.033
17370TIP3   OH273600   4.912   0.347   5.082
17370TIP3    H173601   4.963   0.396   5.147
17370TIP3    H273602   4.876   0.273   5.130
17371TIP3   OH273603   4.984   0.272   4.242
17371TIP3    H173604   5.004   0.304   4.154
17371TIP3    H273605   5.032   0.329   4.301
17372TIP3   OH273606   4.723   1.522   4.058
17372TIP3    H173607   4.637   1.555   4.083
17372TIP3    H273608   4.776   1.601   4.046
17373TIP3   OH273609   4.651   0.531   4.289
17373TIP3    H173610   4.733   0.580   4.295
17373TIP3    H273611   4.630   0.510   4.380
17374TIP3   OH273612   4.751   0.615   5.155
17374TIP3    H173613   4.758   0.639   5.247
17374TIP3    H273614   4.787   0.526   5.151
17375TIP3   OH273615   4.757   0.164   4.354
17375TIP3    H173616   4.762   0.207   4.439
17375TIP3    H273617   4.835   0.192   4.308
17376TIP3   OH273618   4.474   1.638   4.097
17376TIP3    H173619   4.481   1.722   4.052
17376TIP3    H273620   4.450   1.662   4.187
17377TIP3   OH273621   4.339   0.340   4.052
17377TIP3    H173622   4.286   0.362   4.129
17377TIP3    H273623   4.423   0.313   4.088
17378TIP3   OH273624   5.263   0.361   5.313
17378TIP3    H173625   5.189   0.408   5.276
17378TIP3    H273626   5.316   0.334   5.238
17379TIP3   OH273627   5.206   0.768   4.664
17379TIP3    H173628   5.122   0.724   4.653
17379TIP3    H273629   5.255   0.714   4.725
17380TIP3   OH273630   4.185   1.308   3.926
17380TIP3    H173631   4.261   1.348   3.969
17380TIP3    H273632   4.222   1.264   3.849
17381TIP3   OH273633   3.961   0.621   3.889
17381TIP3    H173634   3.978   0.712   3.913
17381TIP3    H273635   3.938   0.625   3.796
17382TIP3   OH273636   5.337   1.726   4.827
17382TIP3    H173637   5.333   1.796   4.761
17382TIP3    H273638   5.429   1.724   4.854
17383TIP3   OH273639   4.025   0.091   4.781
17383TIP3    H173640   4.073   0.013   4.752
17383TIP3    H273641   3.994   0.068   4.869
17384TIP3   OH273642   3.947   1.527   4.326
17384TIP3    H173643   3.895   1.556   4.401
17384TIP3    H273644   3.929   1.592   4.258
17385TIP3   OH273645   3.898   1.784   5.477
17385TIP3    H173646   3.969   1.727   5.506
17385TIP3    H273647   3.828   1.724   5.452
17386TIP3   OH273648   4.753   1.616   3.754
17386TIP3    H173649   4.687   1.548   3.768
17386TIP3    H273650   4.832   1.567   3.727
17387TIP3   OH273651   5.019   1.480   5.522
17387TIP3    H173652   4.985   1.406   5.571
17387TIP3    H273653   5.100   1.505   5.566
17388TIP3   OH273654   5.206   1.559   3.800
17388TIP3    H173655   5.222   1.481   3.852
17388TIP3    H273656   5.281   1.565   3.741
17389TIP3   OH273657   3.750   1.137   5.582
17389TIP3    H173658   3.831   1.143   5.633
17389TIP3    H273659   3.767   1.188   5.503
17390TIP3   OH273660   4.310   1.147   3.741
17390TIP3    H173661   4.328   1.078   3.805
17390TIP3    H273662   4.395   1.166   3.702
17391TIP3   OH273663   4.585   1.160   5.523
17391TIP3    H173664   4.541   1.199   5.447
17391TIP3    H273665   4.585   1.066   5.505
17392TIP3   OH273666   4.899   1.274   3.765
17392TIP3    H173667   4.876   1.267   3.857
17392TIP3    H273668   4.889   1.186   3.730
17393TIP3   OH273669   5.098   1.194   5.247
17393TIP3    H173670   5.191   1.216   5.239
17393TIP3    H273671   5.054   1.279   5.254
17394TIP3   OH273672   4.045   0.809   5.609
17394TIP3    H173673   4.106   0.749   5.565
17394TIP3    H273674   4.092   0.892   5.612
17395TIP3   OH273675   4.428   0.946   4.045
17395TIP3    H173676   4.350   0.898   4.020
17395TIP3    H273677   4.495   0.918   3.982
17396TIP3   OH273678   4.315   0.770   5.221
17396TIP3    H173679   4.254   0.839   5.248
17396TIP3    H273680   4.398   0.815   5.208
17397TIP3   OH273681   4.582   0.848   3.838
17397TIP3    H173682   4.576   0.873   3.746
17397TIP3    H273683   4.675   0.831   3.853
17398TIP3   OH273684   4.925   1.025   5.574
17398TIP3    H173685   4.998   0.999   5.518
17398TIP3    H273686   4.929   0.963   5.647
17399TIP3   OH273687   5.438   1.015   3.795
17399TIP3    H173688   5.445   0.996   3.701
17399TIP3    H273689   5.430   1.110   3.799
17400TIP3   OH273690   4.412   0.531   5.343
17400TIP3    H173691   4.432   0.473   5.270
17400TIP3    H273692   4.388   0.614   5.302
17401TIP3   OH273693   4.451   0.390   5.108
17401TIP3    H173694   4.501   0.429   5.037
17401TIP3    H273695   4.363   0.377   5.072
17402TIP3   OH273696   4.550   0.910   5.173
17402TIP3    H173697   4.645   0.909   5.162
17402TIP3    H273698   4.520   0.982   5.117
17403TIP3   OH273699   5.034   0.661   5.561
17403TIP3    H173700   5.030   0.664   5.657
17403TIP3    H273701   5.127   0.670   5.540
17404TIP3   OH273702   5.146   0.971   5.404
17404TIP3    H173703   5.124   1.049   5.353
17404TIP3    H273704   5.238   0.982   5.425
17405TIP3   OH273705   4.244   0.640   5.534
17405TIP3    H173706   4.283   0.576   5.474
17405TIP3    H273707   4.318   0.679   5.579
17406TIP3   OH273708   4.532   0.134   5.171
17406TIP3    H173709   4.502   0.224   5.158
17406TIP3    H273710   4.503   0.111   5.260
17407TIP3   OH273711   4.631   0.490   5.524
17407TIP3    H173712   4.600   0.455   5.608
17407TIP3    H273713   4.553   0.492   5.469
17408TIP3   OH273714   4.933   0.360   5.482
17408TIP3    H173715   4.839   0.351   5.467
17408TIP3    H273716   4.941   0.385   5.574
17409TIP3   OH273717   5.080   0.304   5.726
17409TIP3    H173718   5.073   0.224   5.777
17409TIP3    H273719   5.040   0.371   5.781
17410TIP3   OH273720   4.644   7.314   5.396
17410TIP3    H173721   4.612   7.266   5.473
17410TIP3    H273722   4.634   7.406   5.420
17411TIP3   OH273723   4.561   0.189   5.531
17411TIP3    H173724   4.560   0.112   5.588
17411TIP3    H273725   4.530   0.261   5.586
17412TIP3   OH273726   4.544   1.872   3.966
17412TIP3    H173727   4.636   1.845   3.973
17412TIP3    H273728   4.545   1.939   3.897
17413TIP3   OH273729   3.925   1.373   3.864
17413TIP3    H173730   4.014   1.358   3.895
17413TIP3    H273731   3.906   1.297   3.809
17414TIP3   OH273732   3.778   1.844   4.430
17414TIP3    H173733   3.720   1.814   4.359
17414TIP3    H273734   3.795   1.765   4.481
17415TIP3   OH273735   3.850   1.621   4.580
17415TIP3    H173736   3.814   1.544   4.624
17415TIP3    H273737   3.898   1.667   4.649
17416TIP3   OH273738   5.592   1.725   4.938
17416TIP3    H173739   5.586   1.699   5.030
17416TIP3    H273740   5.635   1.811   4.940
17417TIP3   OH273741   5.549   1.670   5.212
17417TIP3    H173742   5.487   1.606   5.177
17417TIP3    H273743   5.579   1.632   5.295
17418TIP3   OH273744   5.559   1.121   4.199
17418TIP3    H173745   5.631   1.185   4.199
17418TIP3    H273746   5.580   1.061   4.270
17419TIP3   OH273747   5.609   0.919   4.384
17419TIP3    H173748   5.524   0.888   4.418
17419TIP3    H273749   5.662   0.933   4.463
17420TIP3   OH273750   5.585   1.221   4.903
17420TIP3    H173751   5.640   1.156   4.859
17420TIP3    H273752   5.614   1.305   4.868
17421TIP3   OH273753   5.367   1.496   5.099
17421TIP3    H173754   5.297   1.547   5.140
17421TIP3    H273755   5.337   1.482   5.009
17422TIP3   OH273756   5.587   0.926   4.007
17422TIP3    H173757   5.534   0.954   3.932
17422TIP3    H273758   5.574   0.995   4.072
17423TIP3   OH273759   5.418   0.623   3.826
17423TIP3    H173760   5.393   0.677   3.751
17423TIP3    H273761   5.407   0.533   3.795
17424TIP3   OH273762   5.352   0.800   4.429
17424TIP3    H173763   5.352   0.709   4.399
17424TIP3    H273764   5.308   0.797   4.514
17425TIP3   OH273765   3.838   0.984   4.853
17425TIP3    H173766   3.853   0.965   4.760
17425TIP3    H273767   3.918   0.953   4.896
17426TIP3   OH273768   5.420   0.993   5.441
17426TIP3    H173769   5.477   0.917   5.427
17426TIP3    H273770   5.477   1.069   5.426
17427TIP3   OH273771   5.548   0.747   5.410
17427TIP3    H173772   5.460   0.713   5.426
17427TIP3    H273773   5.606   0.672   5.421
17428TIP3   OH273774   5.362   0.372   3.721
17428TIP3    H173775   5.406   0.323   3.790
17428TIP3    H273776   5.270   0.348   3.729
17429TIP3   OH273777   5.340   0.548   4.257
17429TIP3    H173778   5.373   0.459   4.268
17429TIP3    H273779   5.403   0.591   4.200
17430TIP3   OH273780   5.365   0.596   4.820
17430TIP3    H173781   5.458   0.609   4.802
17430TIP3    H273782   5.356   0.611   4.914
17431TIP3   OH273783   5.379   0.673   5.092
17431TIP3    H173784   5.299   0.707   5.131
17431TIP3    H273785   5.435   0.750   5.081
17432TIP3   OH273786   3.835   0.514   5.395
17432TIP3    H173787   3.915   0.482   5.353
17432TIP3    H273788   3.784   0.435   5.415
17433TIP3   OH273789   5.640   0.053   5.607
17433TIP3    H173790   5.657  -0.031   5.565
17433TIP3    H273791   5.620   0.112   5.535
17434TIP3   OH273792   5.417   0.281   4.296
17434TIP3    H173793   5.437   0.234   4.377
17434TIP3    H273794   5.352   0.226   4.252
17435TIP3   OH273795   3.961   0.346   4.697
17435TIP3    H173796   3.981   0.258   4.729
17435TIP3    H273797   4.025   0.403   4.741
17436TIP3   OH273798   3.748   0.616   4.800
17436TIP3    H173799   3.818   0.629   4.736
17436TIP3    H273800   3.778   0.662   4.878
17437TIP3   OH273801   5.543   0.241   5.423
17437TIP3    H173802   5.462   0.264   5.467
17437TIP3    H273803   5.515   0.194   5.344
17438TIP3   OH273804   5.535   0.261   3.906
17438TIP3    H173805   5.599   0.192   3.889
17438TIP3    H273806   5.585   0.330   3.950
17439TIP3   OH273807   3.793   0.276   4.251
17439TIP3    H173808   3.698   0.268   4.259
17439TIP3    H273809   3.806   0.340   4.181
17440TIP3   OH273810   5.254   1.782   4.440
17440TIP3    H173811   5.332   1.778   4.385
17440TIP3    H273812   5.280   1.832   4.517
17441TIP3   OH273813   3.860   0.162   5.032
17441TIP3    H173814   3.792   0.128   5.091
17441TIP3    H273815   3.812   0.220   4.972
17442TIP3   OH273816   4.047   1.555   5.539
17442TIP3    H173817   3.977   1.490   5.542
17442TIP3    H273818   4.088   1.550   5.625
17443TIP3   OH273819   4.314   1.600   5.094
17443TIP3    H173820   4.299   1.694   5.086
17443TIP3    H273821   4.409   1.590   5.088
17444TIP3   OH273822   4.717   1.721   5.409
17444TIP3    H173823   4.729   1.683   5.497
17444TIP3    H273824   4.803   1.756   5.386
17445TIP3   OH273825   4.967   1.824   5.347
17445TIP3    H173826   5.034   1.764   5.313
17445TIP3    H273827   5.007   1.862   5.425
17446TIP3   OH273828   5.458   0.106   5.193
17446TIP3    H173829   5.411   0.161   5.131
17446TIP3    H273830   5.424   0.018   5.179
17447TIP3   OH273831   4.027   1.886   5.149
17447TIP3    H173832   3.954   1.933   5.107
17447TIP3    H273833   3.990   1.801   5.174
17448TIP3   OH273834   4.286   1.868   5.057
17448TIP3    H173835   4.197   1.887   5.088
17448TIP3    H273836   4.291   1.913   4.973
17449TIP3   OH273837   4.725   1.836   4.964
17449TIP3    H173838   4.683   1.882   4.892
17449TIP3    H273839   4.746   1.904   5.028
17450TIP3   OH273840   4.965   1.706   5.002
17450TIP3    H173841   4.882   1.752   4.988
17450TIP3    H273842   5.031   1.775   5.001
17451TIP3   OH273843   5.193   1.865   5.019
17451TIP3    H173844   5.231   1.953   5.021
17451TIP3    H273845   5.244   1.818   4.953
17452TIP3   OH273846   4.003   1.730   4.803
17452TIP3    H173847   4.003   1.682   4.886
17452TIP3    H273848   4.081   1.698   4.758
17453TIP3   OH273849   4.218   1.610   4.684
17453TIP3    H173850   4.208   1.516   4.702
17453TIP3    H273851   4.304   1.633   4.720
17454TIP3   OH273852   4.472   1.632   4.796
17454TIP3    H173853   4.493   1.544   4.765
17454TIP3    H273854   4.508   1.635   4.885
17455TIP3   OH273855   4.761   0.259   4.614
17455TIP3    H173856   4.703   0.211   4.673
17455TIP3    H273857   4.849   0.227   4.634
17456TIP3   OH273858   5.295   0.017   4.662
17456TIP3    H173859   5.367   0.041   4.605
17456TIP3    H273860   5.298   0.081   4.733
17457TIP3   OH273861   5.509   0.118   4.517
17457TIP3    H173862   5.576   0.050   4.525
17457TIP3    H273863   5.557   0.201   4.530
17458TIP3   OH273864   4.108   0.057   4.435
17458TIP3    H173865   4.032   0.023   4.388
17458TIP3    H273866   4.117  -0.001   4.510
17459TIP3   OH273867   3.933   0.155   3.997
17459TIP3    H173868   4.001   0.188   3.938
17459TIP3    H273869   3.902   0.233   4.044
17460TIP3   OH273870   4.525   0.042   4.472
17460TIP3    H173871   4.606   0.073   4.431
17460TIP3    H273872   4.533   0.069   4.563
17461TIP3   OH273873   5.017   0.158   4.629
17461TIP3    H173874   5.084   0.205   4.580
17461TIP3    H273875   5.026   0.067   4.601
17462TIP3   OH273876   5.231   0.107   4.199
17462TIP3    H173877   5.137   0.110   4.218
17462TIP3    H273878   5.251   0.014   4.195
17463TIP3   OH273879   3.906   1.706   4.122
17463TIP3    H173880   3.829   1.698   4.066
17463TIP3    H273881   3.935   1.797   4.110
17464TIP3   OH273882   4.138   0.284   3.863
17464TIP3    H173883   4.183   0.231   3.798
17464TIP3    H273884   4.204   0.301   3.930
17465TIP3   OH273885   4.590   0.298   4.161
17465TIP3    H173886   4.632   0.229   4.213
17465TIP3    H273887   4.614   0.379   4.207
17466TIP3   OH273888   4.804   1.780   3.967
17466TIP3    H173889   4.899   1.789   3.963
17466TIP3    H273890   4.781   1.732   3.888
17467TIP3   OH273891   5.464   1.761   4.258
17467TIP3    H173892   5.449   1.673   4.223
17467TIP3    H273893   5.453   1.819   4.183
17468TIP3   OH273894   4.071   0.134   5.357
17468TIP3    H173895   4.039   0.048   5.385
17468TIP3    H273896   4.165   0.131   5.374
17469TIP3   OH273897   4.094   1.747   3.798
17469TIP3    H173898   4.062   1.748   3.889
17469TIP3    H273899   4.166   1.683   3.800
17470TIP3   OH273900   5.114   0.028   5.610
17470TIP3    H173901   5.069   0.045   5.693
17470TIP3    H273902   5.203   0.003   5.635
17471TIP3   OH273903   6.854   1.045   4.409
17471TIP3    H173904   6.837   1.139   4.401
17471TIP3    H273905   6.784   1.003   4.358
17472TIP3   OH273906   6.714   0.947   4.811
17472TIP3    H173907   6.737   0.904   4.894
17472TIP3    H273908   6.666   0.881   4.762
17473TIP3   OH273909   5.932   0.864   4.972
17473TIP3    H173910   5.941   0.785   5.026
17473TIP3    H273911   6.000   0.923   5.006
17474TIP3   OH273912   7.095   1.261   4.643
17474TIP3    H173913   7.059   1.185   4.689
17474TIP3    H273914   7.123   1.320   4.713
17475TIP3   OH273915   6.101   1.337   4.721
17475TIP3    H173916   6.064   1.249   4.712
17475TIP3    H273917   6.191   1.323   4.749
17476TIP3   OH273918   5.722   0.680   4.285
17476TIP3    H173919   5.697   0.765   4.322
17476TIP3    H273920   5.658   0.665   4.215
17477TIP3   OH273921   5.797   0.935   4.591
17477TIP3    H173922   5.826   0.845   4.609
17477TIP3    H273923   5.876   0.988   4.605
17478TIP3   OH273924   6.842   1.701   4.695
17478TIP3    H173925   6.864   1.641   4.624
17478TIP3    H273926   6.836   1.645   4.772
17479TIP3   OH273927   6.581   1.194   4.826
17479TIP3    H173928   6.617   1.110   4.799
17479TIP3    H273929   6.649   1.234   4.879
17480TIP3   OH273930   6.895   0.629   4.823
17480TIP3    H173931   6.909   0.535   4.840
17480TIP3    H273932   6.853   0.631   4.737
17481TIP3   OH273933   6.202   0.420   4.572
17481TIP3    H173934   6.217   0.506   4.532
17481TIP3    H273935   6.155   0.370   4.505
17482TIP3   OH273936   6.948   0.453   4.410
17482TIP3    H173937   6.995   0.410   4.481
17482TIP3    H273938   7.016   0.494   4.357
17483TIP3   OH273939   5.867   0.674   4.651
17483TIP3    H173940   5.929   0.633   4.712
17483TIP3    H273941   5.890   0.638   4.566
17484TIP3   OH273942   6.353   0.824   4.610
17484TIP3    H173943   6.434   0.785   4.644
17484TIP3    H273944   6.314   0.755   4.557
17485TIP3   OH273945   6.085   0.351   5.011
17485TIP3    H173946   6.059   0.415   4.944
17485TIP3    H273947   6.016   0.356   5.077
17486TIP3   OH273948   6.815   1.300   4.310
17486TIP3    H173949   6.793   1.291   4.217
17486TIP3    H273950   6.761   1.374   4.340
17487TIP3   OH273951   6.359   1.113   4.973
17487TIP3    H173952   6.307   1.185   5.011
17487TIP3    H273953   6.430   1.157   4.927
17488TIP3   OH273954   7.095   0.343   4.610
17488TIP3    H173955   7.020   0.328   4.667
17488TIP3    H273956   7.160   0.386   4.665
17489TIP3   OH273957   6.053   0.510   4.785
17489TIP3    H173958   6.110   0.569   4.833
17489TIP3    H273959   6.109   0.474   4.716
17490TIP3   OH273960   6.207   1.320   5.085
17490TIP3    H173961   6.217   1.415   5.082
17490TIP3    H273962   6.114   1.306   5.102
17491TIP3   OH273963   5.773   1.299   4.167
17491TIP3    H173964   5.767   1.347   4.085
17491TIP3    H273965   5.795   1.366   4.232
17492TIP3   OH273966   7.156   1.462   4.841
17492TIP3    H173967   7.061   1.465   4.855
17492TIP3    H273968   7.181   1.554   4.832
17493TIP3   OH273969   7.174   0.202   4.887
17493TIP3    H173970   7.098   0.217   4.944
17493TIP3    H273971   7.204   0.290   4.864
17494TIP3   OH273972   6.446   0.108   4.735
17494TIP3    H173973   6.434   0.015   4.755
17494TIP3    H273974   6.370   0.151   4.776
17495TIP3   OH273975   6.950   1.596   4.454
17495TIP3    H173976   6.989   1.509   4.439
17495TIP3    H273977   7.025   1.652   4.475
17496TIP3   OH273978   7.077   1.363   4.386
17496TIP3    H173979   6.995   1.322   4.357
17496TIP3    H273980   7.097   1.320   4.470
17497TIP3   OH273981   7.202   1.178   5.218
17497TIP3    H173982   7.195   1.134   5.134
17497TIP3    H273983   7.237   1.265   5.197
17498TIP3   OH273984   6.705   0.947   4.193
17498TIP3    H173985   6.634   1.005   4.167
17498TIP3    H273986   6.771   0.957   4.124
17499TIP3   OH273987   6.756   0.809   3.848
17499TIP3    H173988   6.808   0.833   3.924
17499TIP3    H273989   6.807   0.742   3.803
17500TIP3   OH273990   7.078   0.974   4.272
17500TIP3    H173991   7.007   1.004   4.329
17500TIP3    H273992   7.129   0.915   4.326
17501TIP3   OH273993   7.015   0.783   5.161
17501TIP3    H173994   7.006   0.847   5.232
17501TIP3    H273995   6.938   0.797   5.106
17502TIP3   OH273996   6.226   1.019   4.458
17502TIP3    H173997   6.200   0.976   4.376
17502TIP3    H273998   6.278   0.954   4.504
17503TIP3   OH273999   6.383   1.367   4.729
17503TIP3    H174000   6.387   1.373   4.634
17503TIP3    H274001   6.456   1.310   4.753
17504TIP3   OH274002   6.219   0.922   4.832
17504TIP3    H174003   6.275   0.895   4.760
17504TIP3    H274004   6.270   0.987   4.881
17505TIP3   OH274005   6.886   1.480   4.890
17505TIP3    H174006   6.868   1.547   4.956
17505TIP3    H274007   6.849   1.399   4.926
17506TIP3   OH274008   6.346   1.333   5.326
17506TIP3    H174009   6.281   1.387   5.371
17506TIP3    H274010   6.305   1.309   5.243
17507TIP3   OH274011   6.948   0.906   4.039
17507TIP3    H174012   6.992   0.939   4.117
17507TIP3    H274013   7.004   0.934   3.966
17508TIP3   OH274014   6.031   0.946   5.249
17508TIP3    H174015   6.044   1.028   5.296
17508TIP3    H274016   5.936   0.935   5.244
17509TIP3   OH274017   6.692   1.540   4.374
17509TIP3    H174018   6.774   1.568   4.415
17509TIP3    H274019   6.656   1.620   4.335
17510TIP3   OH274020   6.145   1.509   5.404
17510TIP3    H174021   6.143   1.546   5.316
17510TIP3    H274022   6.053   1.491   5.425
17511TIP3   OH274023   7.186   0.075   3.935
17511TIP3    H174024   7.150   0.080   4.024
17511TIP3    H274025   7.278   0.101   3.945
17512TIP3   OH274026   6.134   0.925   4.204
17512TIP3    H174027   6.070   0.990   4.172
17512TIP3    H274028   6.087   0.842   4.201
17513TIP3   OH274029   5.721   1.180   5.148
17513TIP3    H174030   5.668   1.186   5.069
17513TIP3    H274031   5.732   1.086   5.163
17514TIP3   OH274032   5.689   1.479   4.835
17514TIP3    H174033   5.768   1.487   4.889
17514TIP3    H274034   5.636   1.554   4.860
17515TIP3   OH274035   6.577   1.480   5.267
17515TIP3    H174036   6.581   1.563   5.314
17515TIP3    H274037   6.493   1.441   5.294
17516TIP3   OH274038   6.676   1.807   4.246
17516TIP3    H174039   6.646   1.812   4.155
17516TIP3    H274040   6.642   1.887   4.286
17517TIP3   OH274041   6.023   1.701   4.435
17517TIP3    H174042   6.044   1.669   4.523
17517TIP3    H274043   5.968   1.633   4.397
17518TIP3   OH274044   6.962   1.766   3.930
17518TIP3    H174045   7.014   1.697   3.888
17518TIP3    H274046   6.972   1.749   4.024
17519TIP3   OH274047   6.938   1.736   4.207
17519TIP3    H174048   6.845   1.757   4.219
17519TIP3    H274049   6.958   1.676   4.279
17520TIP3   OH274050   7.242   0.746   5.342
17520TIP3    H174051   7.154   0.758   5.307
17520TIP3    H274052   7.240   0.660   5.384
17521TIP3   OH274053   5.945   1.338   5.178
17521TIP3    H174054   5.976   1.305   5.262
17521TIP3    H274055   5.864   1.290   5.162
17522TIP3   OH274056   6.202   0.177   4.836
17522TIP3    H174057   6.135   0.183   4.768
17522TIP3    H274058   6.168   0.231   4.908
17523TIP3   OH274059   6.679   0.145   5.215
17523TIP3    H174060   6.697   0.215   5.278
17523TIP3    H274061   6.583   0.135   5.216
17524TIP3   OH274062   6.937   0.510   5.184
17524TIP3    H174063   6.981   0.478   5.263
17524TIP3    H274064   6.966   0.601   5.176
17525TIP3   OH274065   7.103   0.988   3.829
17525TIP3    H174066   7.074   0.972   3.739
17525TIP3    H274067   7.122   1.082   3.831
17526TIP3   OH274068   6.631   0.367   3.925
17526TIP3    H174069   6.575   0.341   3.999
17526TIP3    H274070   6.608   0.306   3.855
17527TIP3   OH274071   6.208   0.669   4.948
17527TIP3    H174072   6.145   0.669   5.021
17527TIP3    H274073   6.207   0.760   4.916
17528TIP3   OH274074   6.204   0.661   4.439
17528TIP3    H174075   6.109   0.650   4.436
17528TIP3    H274076   6.233   0.643   4.350
17529TIP3   OH274077   6.737   0.702   4.308
17529TIP3    H174078   6.718   0.790   4.276
17529TIP3    H274079   6.807   0.670   4.251
17530TIP3   OH274080   6.669   0.712   5.464
17530TIP3    H174081   6.630   0.631   5.496
17530TIP3    H274082   6.759   0.710   5.494
17531TIP3   OH274083   6.788   0.616   4.570
17531TIP3    H174084   6.760   0.672   4.497
17531TIP3    H274085   6.836   0.545   4.528
17532TIP3   OH274086   6.002   0.646   5.135
17532TIP3    H174087   6.027   0.683   5.219
17532TIP3    H274088   5.958   0.564   5.157
17533TIP3   OH274089   6.316   0.373   3.784
17533TIP3    H174090   6.294   0.365   3.876
17533TIP3    H274091   6.263   0.447   3.753
17534TIP3   OH274092   5.658   0.345   4.531
17534TIP3    H174093   5.706   0.358   4.613
17534TIP3    H274094   5.698   0.408   4.471
17535TIP3   OH274095   5.693   0.458   4.030
17535TIP3    H174096   5.765   0.500   3.981
17535TIP3    H274097   5.633   0.529   4.050
17536TIP3   OH274098   6.773   0.778   5.022
17536TIP3    H174099   6.812   0.720   4.957
17536TIP3    H274100   6.731   0.720   5.085
17537TIP3   OH274101   6.482   0.442   4.532
17537TIP3    H174102   6.397   0.418   4.569
17537TIP3    H274103   6.545   0.391   4.582
17538TIP3   OH274104   5.944   0.571   4.408
17538TIP3    H174105   5.872   0.599   4.353
17538TIP3    H274106   5.966   0.483   4.376
17539TIP3   OH274107   6.268   0.588   4.182
17539TIP3    H174108   6.362   0.580   4.203
17539TIP3    H274109   6.266   0.631   4.097
17540TIP3   OH274110   6.883   0.349   4.789
17540TIP3    H174111   6.872   0.321   4.880
17540TIP3    H274112   6.798   0.333   4.749
17541TIP3   OH274113   6.259   0.681   3.927
17541TIP3    H174114   6.210   0.655   3.849
17541TIP3    H274115   6.337   0.725   3.893
17542TIP3   OH274116   7.188   1.906   5.491
17542TIP3    H174117   7.280   1.915   5.515
17542TIP3    H274118   7.139   1.920   5.572
17543TIP3   OH274119   6.036   1.182   5.399
17543TIP3    H174120   6.100   1.187   5.470
17543TIP3    H274121   5.951   1.185   5.443
17544TIP3   OH274122   6.576   0.711   4.731
17544TIP3    H174123   6.638   0.659   4.681
17544TIP3    H274124   6.553   0.656   4.806
17545TIP3   OH274125   6.054   0.312   4.358
17545TIP3    H174126   6.024   0.227   4.391
17545TIP3    H274127   6.095   0.292   4.274
17546TIP3   OH274128   6.484   0.583   4.969
17546TIP3    H174129   6.404   0.635   4.976
17546TIP3    H274130   6.532   0.602   5.050
17547TIP3   OH274131   6.507   1.124   4.120
17547TIP3    H174132   6.436   1.092   4.065
17547TIP3    H274133   6.464   1.160   4.197
17548TIP3   OH274134   7.212   1.079   4.964
17548TIP3    H174135   7.283   1.055   4.904
17548TIP3    H274136   7.132   1.069   4.912
17549TIP3   OH274137   6.889   0.419   3.983
17549TIP3    H174138   6.796   0.410   3.962
17549TIP3    H274139   6.895   0.503   4.029
17550TIP3   OH274140   6.656   1.204   5.230
17550TIP3    H174141   6.629   1.151   5.305
17550TIP3    H274142   6.622   1.291   5.249
17551TIP3   OH274143   6.943   0.644   4.128
17551TIP3    H174144   7.025   0.620   4.171
17551TIP3    H274145   6.956   0.735   4.102
17552TIP3   OH274146   6.040   1.058   4.664
17552TIP3    H174147   6.101   1.055   4.590
17552TIP3    H274148   6.084   1.007   4.732
17553TIP3   OH274149   6.718   1.280   4.047
17553TIP3    H174150   6.685   1.369   4.051
17553TIP3    H274151   6.643   1.225   4.070
17554TIP3   OH274152   5.749   0.918   5.253
17554TIP3    H174153   5.737   0.897   5.346
17554TIP3    H274154   5.674   0.878   5.210
17555TIP3   OH274155   6.466   0.896   5.438
17555TIP3    H174156   6.398   0.847   5.391
17555TIP3    H274157   6.541   0.836   5.441
17556TIP3   OH274158   6.862   1.476   5.255
17556TIP3    H174159   6.770   1.483   5.228
17556TIP3    H274160   6.860   1.484   5.350
17557TIP3   OH274161   7.253   1.518   4.121
17557TIP3    H174162   7.195   1.507   4.197
17557TIP3    H274163   7.282   1.429   4.100
17558TIP3   OH274164   6.994   1.031   4.788
17558TIP3    H174165   6.900   1.018   4.781
17558TIP3    H274166   7.032   0.953   4.749
17559TIP3   OH274167   6.298   1.447   4.471
17559TIP3    H174168   6.312   1.532   4.431
17559TIP3    H274169   6.214   1.455   4.516
17560TIP3   OH274170   5.845   0.904   3.914
17560TIP3    H174171   5.894   0.966   3.967
17560TIP3    H274172   5.756   0.907   3.949
17561TIP3   OH274173   6.355   1.226   4.319
17561TIP3    H174174   6.346   1.306   4.371
17561TIP3    H274175   6.311   1.159   4.371
17562TIP3   OH274176   6.488   1.622   5.039
17562TIP3    H174177   6.544   1.697   5.023
17562TIP3    H274178   6.538   1.567   5.100
17563TIP3   OH274179   6.288   1.702   4.358
17563TIP3    H174180   6.195   1.717   4.377
17563TIP3    H274181   6.332   1.778   4.395
17564TIP3   OH274182   6.794   1.239   4.997
17564TIP3    H174183   6.749   1.224   5.080
17564TIP3    H274184   6.860   1.170   4.992
17565TIP3   OH274185   7.074   1.303   3.906
17565TIP3    H174186   7.099   1.263   3.989
17565TIP3    H274187   6.980   1.287   3.899
17566TIP3   OH274188   7.098   1.625   5.208
17566TIP3    H174189   7.011   1.585   5.211
17566TIP3    H274190   7.085   1.706   5.158
17567TIP3   OH274191   5.883   0.395   5.190
17567TIP3    H174192   5.788   0.408   5.186
17567TIP3    H274193   5.895   0.328   5.258
17568TIP3   OH274194   7.196   1.173   4.115
17568TIP3    H174195   7.157   1.112   4.177
17568TIP3    H274196   7.279   1.200   4.155
17569TIP3   OH274197   5.884   1.574   5.018
17569TIP3    H174198   5.912   1.503   5.075
17569TIP3    H274199   5.892   1.653   5.073
17570TIP3   OH274200   6.439   1.415   3.784
17570TIP3    H174201   6.445   1.330   3.740
17570TIP3    H274202   6.402   1.395   3.870
17571TIP3   OH274203   6.311   1.386   4.033
17571TIP3    H174204   6.331   1.338   4.113
17571TIP3    H274205   6.322   1.478   4.056
17572TIP3   OH274206   5.954   1.102   4.081
17572TIP3    H174207   5.888   1.152   4.129
17572TIP3    H274208   6.003   1.167   4.032
17573TIP3   OH274209   6.856   0.285   5.049
17573TIP3    H174210   6.877   0.360   5.104
17573TIP3    H274211   6.796   0.233   5.103
17574TIP3   OH274212   6.862   0.270   4.220
17574TIP3    H174213   6.874   0.312   4.135
17574TIP3    H274214   6.886   0.338   4.284
17575TIP3   OH274215   6.614   1.528   4.058
17575TIP3    H174216   6.526   1.555   4.085
17575TIP3    H274217   6.657   1.609   4.032
17576TIP3   OH274218   6.520   0.535   4.280
17576TIP3    H174219   6.595   0.594   4.286
17576TIP3    H274220   6.506   0.506   4.370
17577TIP3   OH274221   6.649   0.611   5.202
17577TIP3    H174222   6.648   0.656   5.286
17577TIP3    H274223   6.698   0.531   5.218
17578TIP3   OH274224   6.640   0.191   4.361
17578TIP3    H174225   6.657   0.235   4.443
17578TIP3    H274226   6.719   0.206   4.308
17579TIP3   OH274227   6.368   1.645   4.103
17579TIP3    H174228   6.373   1.729   4.059
17579TIP3    H274229   6.339   1.665   4.192
17580TIP3   OH274230   6.230   0.344   4.050
17580TIP3    H174231   6.217   0.429   4.092
17580TIP3    H274232   6.312   0.311   4.087
17581TIP3   OH274233   7.292   0.383   5.168
17581TIP3    H174234   7.247   0.384   5.253
17581TIP3    H274235   7.264   0.463   5.125
17582TIP3   OH274236   7.102   0.780   4.707
17582TIP3    H174237   7.034   0.729   4.751
17582TIP3    H274238   7.184   0.752   4.749
17583TIP3   OH274239   6.066   1.305   3.926
17583TIP3    H174240   6.139   1.350   3.969
17583TIP3    H274241   6.107   1.253   3.857
17584TIP3   OH274242   5.848   0.626   3.883
17584TIP3    H174243   5.860   0.719   3.902
17584TIP3    H274244   5.848   0.621   3.787
17585TIP3   OH274245   7.243   1.728   4.830
17585TIP3    H174246   7.224   1.802   4.773
17585TIP3    H274247   7.339   1.726   4.835
17586TIP3   OH274248   5.903   0.088   4.782
17586TIP3    H174249   5.968   0.026   4.748
17586TIP3    H274250   5.879   0.052   4.868
17587TIP3   OH274251   5.825   1.527   4.325
17587TIP3    H174252   5.777   1.556   4.403
17587TIP3    H274253   5.806   1.594   4.259
17588TIP3   OH274254   5.778   1.832   5.449
17588TIP3    H174255   5.749   1.890   5.519
17588TIP3    H274256   5.736   1.748   5.467
17589TIP3   OH274257   6.209   1.635   5.645
17589TIP3    H174258   6.301   1.658   5.633
17589TIP3    H274259   6.185   1.590   5.564
17590TIP3   OH274260   6.639   1.604   3.750
17590TIP3    H174261   6.574   1.537   3.770
17590TIP3    H274262   6.715   1.556   3.720
17591TIP3   OH274263   6.886   1.435   5.529
17591TIP3    H174264   6.932   1.361   5.490
17591TIP3    H274265   6.955   1.486   5.572
17592TIP3   OH274266   7.093   1.564   3.795
17592TIP3    H174267   7.092   1.488   3.854
17592TIP3    H274268   7.172   1.554   3.743
17593TIP3   OH274269   5.796   1.181   5.528
17593TIP3    H174270   5.797   1.086   5.542
17593TIP3    H274271   5.707   1.199   5.496
17594TIP3   OH274272   6.199   1.132   3.760
17594TIP3    H174273   6.222   1.083   3.840
17594TIP3    H274274   6.283   1.149   3.717
17595TIP3   OH274275   6.458   1.157   5.509
17595TIP3    H174276   6.416   1.201   5.434
17595TIP3    H274277   6.460   1.065   5.484
17596TIP3   OH274278   6.814   1.265   3.792
17596TIP3    H174279   6.768   1.265   3.876
17596TIP3    H274280   6.785   1.185   3.749
17597TIP3   OH274281   6.973   1.237   5.354
17597TIP3    H174282   7.059   1.220   5.315
17597TIP3    H274283   6.931   1.298   5.294
17598TIP3   OH274284   5.817   0.902   5.548
17598TIP3    H174285   5.875   0.829   5.531
17598TIP3    H274286   5.810   0.906   5.644
17599TIP3   OH274287   6.298   1.002   3.985
17599TIP3    H174288   6.251   0.964   4.059
17599TIP3    H274289   6.350   0.929   3.950
17600TIP3   OH274290   6.261   0.787   5.263
17600TIP3    H174291   6.187   0.848   5.259
17600TIP3    H274292   6.322   0.818   5.196
17601TIP3   OH274293   6.471   0.832   3.840
17601TIP3    H174294   6.466   0.863   3.750
17601TIP3    H274295   6.564   0.818   3.855
17602TIP3   OH274296   6.288   0.528   5.349
17602TIP3    H174297   6.307   0.473   5.273
17602TIP3    H274298   6.281   0.617   5.313
17603TIP3   OH274299   6.340   0.383   5.114
17603TIP3    H174300   6.393   0.433   5.052
17603TIP3    H274301   6.254   0.378   5.072
17604TIP3   OH274302   6.449   0.879   5.089
17604TIP3    H174303   6.545   0.881   5.087
17604TIP3    H274304   6.423   0.963   5.052
17605TIP3   OH274305   6.924   0.670   5.558
17605TIP3    H174306   6.979   0.604   5.516
17605TIP3    H274307   6.940   0.659   5.651
17606TIP3   OH274308   7.003   0.960   5.366
17606TIP3    H174309   6.975   1.052   5.366
17606TIP3    H274310   7.059   0.952   5.442
17607TIP3   OH274311   6.149   0.572   5.585
17607TIP3    H174312   6.061   0.537   5.570
17607TIP3    H274313   6.195   0.560   5.502
17608TIP3   OH274314   6.400   0.131   5.205
17608TIP3    H174315   6.386   0.221   5.177
17608TIP3    H274316   6.313   0.091   5.202
17609TIP3   OH274317   6.510   0.492   5.508
17609TIP3    H174318   6.485   0.449   5.590
17609TIP3    H274319   6.428   0.500   5.460
17610TIP3   OH274320   6.710   0.369   5.367
17610TIP3    H174321   6.634   0.410   5.407
17610TIP3    H274322   6.770   0.354   5.439
17611TIP3   OH274323   6.801   0.326   5.622
17611TIP3    H174324   6.860   0.253   5.641
17611TIP3    H274325   6.799   0.378   5.702
17612TIP3   OH274326   5.913   0.428   5.534
17612TIP3    H174327   5.924   0.347   5.483
17612TIP3    H274328   5.903   0.399   5.624
17613TIP3   OH274329   6.428   0.086   5.482
17613TIP3    H174330   6.498   0.022   5.494
17613TIP3    H274331   6.427   0.104   5.388
17614TIP3   OH274332   6.367   0.146   5.745
17614TIP3    H174333   6.401   0.125   5.659
17614TIP3    H274334   6.368   0.242   5.748
17615TIP3   OH274335   6.439   1.885   3.982
17615TIP3    H174336   6.528   1.853   3.971
17615TIP3    H274337   6.428   1.950   3.913
17616TIP3   OH274338   5.806   1.368   3.864
17616TIP3    H174339   5.897   1.356   3.893
17616TIP3    H274340   5.790   1.293   3.806
17617TIP3   OH274341   5.664   1.842   4.429
17617TIP3    H174342   5.604   1.811   4.361
17617TIP3    H274343   5.681   1.765   4.483
17618TIP3   OH274344   5.734   1.621   4.582
17618TIP3    H174345   5.699   1.548   4.634
17618TIP3    H274346   5.785   1.672   4.645
17619TIP3   OH274347   7.273   1.274   5.738
17619TIP3    H174348   7.261   1.217   5.815
17619TIP3    H274349   7.350   1.327   5.759
17620TIP3   OH274350   7.253   1.422   5.104
17620TIP3    H174351   7.210   1.497   5.145
17620TIP3    H274352   7.227   1.426   5.012
17621TIP3   OH274353   7.227   0.606   3.874
17621TIP3    H174354   7.154   0.606   3.936
17621TIP3    H274355   7.242   0.513   3.855
17622TIP3   OH274356   7.187   0.779   4.437
17622TIP3    H174357   7.147   0.693   4.425
17622TIP3    H274358   7.167   0.802   4.528
17623TIP3   OH274359   5.716   0.977   4.852
17623TIP3    H174360   5.731   0.967   4.758
17623TIP3    H274361   5.797   0.944   4.892
17624TIP3   OH274362   7.286   1.008   5.425
17624TIP3    H174363   7.273   0.917   5.399
17624TIP3    H274364   7.255   1.059   5.350
17625TIP3   OH274365   7.264   0.343   3.822
17625TIP3    H174366   7.336   0.289   3.855
17625TIP3    H274367   7.192   0.282   3.810
17626TIP3   OH274368   7.165   0.540   4.256
17626TIP3    H174369   7.184   0.448   4.275
17626TIP3    H274370   7.251   0.582   4.250
17627TIP3   OH274371   7.229   0.465   4.820
17627TIP3    H174372   7.307   0.513   4.792
17627TIP3    H274373   7.203   0.507   4.902
17628TIP3   OH274374   7.220   0.624   5.045
17628TIP3    H174375   7.159   0.682   5.090
17628TIP3    H274376   7.277   0.683   4.996
17629TIP3   OH274377   5.670   0.493   5.414
17629TIP3    H174378   5.753   0.491   5.462
17629TIP3    H274379   5.630   0.408   5.430
17630TIP3   OH274380   7.191   0.279   4.340
17630TIP3    H174381   7.167   0.274   4.432
17630TIP3    H274382   7.146   0.206   4.298
17631TIP3   OH274383   5.814   0.353   4.758
17631TIP3    H174384   5.847   0.264   4.768
17631TIP3    H274385   5.891   0.409   4.772
17632TIP3   OH274386   5.632   0.655   4.804
17632TIP3    H174387   5.706   0.655   4.743
17632TIP3    H274388   5.657   0.717   4.872
17633TIP3   OH274389   5.681   0.250   4.204
17633TIP3    H174390   5.592   0.255   4.240
17633TIP3    H274391   5.692   0.333   4.158
17634TIP3   OH274392   7.169   1.746   4.492
17634TIP3    H174393   7.247   1.695   4.516
17634TIP3    H274394   7.167   1.818   4.555
17635TIP3   OH274395   5.701   0.101   5.055
17635TIP3    H174396   5.630   0.091   5.119
17635TIP3    H274397   5.673   0.174   4.999
17636TIP3   OH274398   5.881   1.453   5.486
17636TIP3    H174399   5.796   1.497   5.475
17636TIP3    H274400   5.858   1.367   5.524
17637TIP3   OH274401   6.229   1.594   5.131
17637TIP3    H174402   6.194   1.681   5.110
17637TIP3    H274403   6.321   1.599   5.105
17638TIP3   OH274404   6.618   1.724   5.402
17638TIP3    H174405   6.628   1.677   5.484
17638TIP3    H274406   6.693   1.783   5.398
17639TIP3   OH274407   6.836   1.899   5.438
17639TIP3    H174408   6.927   1.883   5.414
17639TIP3    H274409   6.840   1.931   5.528
17640TIP3   OH274410   5.904   1.838   5.127
17640TIP3    H174411   5.834   1.888   5.084
17640TIP3    H274412   5.894   1.858   5.220
17641TIP3   OH274413   6.174   1.858   5.061
17641TIP3    H174414   6.081   1.859   5.082
17641TIP3    H274415   6.180   1.903   4.976
17642TIP3   OH274416   6.624   1.853   4.968
17642TIP3    H174417   6.568   1.892   4.901
17642TIP3    H274418   6.635   1.922   5.033
17643TIP3   OH274419   6.846   1.706   5.032
17643TIP3    H174420   6.771   1.761   5.008
17643TIP3    H274421   6.920   1.766   5.032
17644TIP3   OH274422   7.083   1.846   5.026
17644TIP3    H174423   7.102   1.938   5.009
17644TIP3    H274424   7.141   1.798   4.967
17645TIP3   OH274425   5.893   1.736   4.783
17645TIP3    H174426   5.875   1.694   4.867
17645TIP3    H274427   5.972   1.693   4.751
17646TIP3   OH274428   6.109   1.605   4.679
17646TIP3    H174429   6.095   1.513   4.703
17646TIP3    H274430   6.192   1.627   4.720
17647TIP3   OH274431   6.363   1.639   4.793
17647TIP3    H174432   6.377   1.549   4.763
17647TIP3    H274433   6.397   1.640   4.883
17648TIP3   OH274434   6.656   0.258   4.644
17648TIP3    H174435   6.590   0.205   4.689
17648TIP3    H274436   6.729   0.197   4.629
17649TIP3   OH274437   7.157   0.022   4.672
17649TIP3    H174438   7.247   0.015   4.640
17649TIP3    H274439   7.162   0.086   4.743
17650TIP3   OH274440   5.995   0.053   4.445
17650TIP3    H174441   5.908   0.021   4.422
17650TIP3    H274442   6.019   0.005   4.524
17651TIP3   OH274443   5.794   0.147   3.963
17651TIP3    H174444   5.869   0.198   3.932
17651TIP3    H274445   5.766   0.192   4.043
17652TIP3   OH274446   6.405   0.087   4.463
17652TIP3    H174447   6.486   0.121   4.425
17652TIP3    H274448   6.417   0.098   4.557
17653TIP3   OH274449   6.869   0.101   4.593
17653TIP3    H174450   6.915   0.055   4.522
17653TIP3    H274451   6.927   0.091   4.669
17654TIP3   OH274452   7.067   0.085   4.189
17654TIP3    H174453   6.982   0.129   4.191
17654TIP3    H274454   7.057   0.009   4.246
17655TIP3   OH274455   5.785   1.708   4.121
17655TIP3    H174456   5.710   1.701   4.061
17655TIP3    H274457   5.817   1.797   4.111
17656TIP3   OH274458   6.018   0.283   3.874
17656TIP3    H174459   6.054   0.216   3.816
17656TIP3    H274460   6.087   0.300   3.937
17657TIP3   OH274461   6.482   0.295   4.152
17657TIP3    H174462   6.526   0.236   4.213
17657TIP3    H274463   6.494   0.382   4.190
17658TIP3   OH274464   6.689   1.777   3.954
17658TIP3    H174465   6.783   1.791   3.947
17658TIP3    H274466   6.666   1.728   3.876
17659TIP3   OH274467   5.930   0.191   5.388
17659TIP3    H174468   5.873   0.115   5.381
17659TIP3    H274469   6.004   0.161   5.441
17660TIP3   OH274470   6.126   0.111   5.566
17660TIP3    H174471   6.215   0.146   5.559
17660TIP3    H274472   6.138   0.022   5.599
17661TIP3   OH274473   5.995   1.746   3.806
17661TIP3    H174474   5.974   1.746   3.899
17661TIP3    H274475   6.072   1.689   3.799
17662TIP3   OH274476   6.985   0.120   5.641
17662TIP3    H174477   6.993   0.025   5.632
17662TIP3    H274478   7.038   0.155   5.569
17663TIP3   OH274479   7.260   1.649   5.436
17663TIP3    H174480   7.220   1.617   5.355
17663TIP3    H274481   7.227   1.738   5.446
17664TIP3   OH274482   1.207   2.923   4.410
17664TIP3    H174483   1.195   3.018   4.400
17664TIP3    H274484   1.128   2.885   4.371
17665TIP3   OH274485   1.082   2.831   4.828
17665TIP3    H174486   1.111   2.789   4.909
17665TIP3    H274487   1.027   2.766   4.786
17666TIP3   OH274488   0.285   2.769   4.950
17666TIP3    H174489   0.287   2.682   4.989
17666TIP3    H274490   0.327   2.825   5.015
17667TIP3   OH274491   1.461   3.148   4.635
17667TIP3    H174492   1.425   3.072   4.679
17667TIP3    H274493   1.480   3.210   4.706
17668TIP3   OH274494   0.360   3.221   4.766
17668TIP3    H174495   0.362   3.131   4.736
17668TIP3    H274496   0.405   3.220   4.851
17669TIP3   OH274497   0.106   2.648   4.310
17669TIP3    H174498   0.154   2.705   4.371
17669TIP3    H274499   0.015   2.653   4.338
17670TIP3   OH274500   0.225   2.787   4.514
17670TIP3    H174501   0.215   2.717   4.579
17670TIP3    H274502   0.270   2.857   4.560
17671TIP3   OH274503   1.168   3.646   4.672
17671TIP3    H174504   1.203   3.571   4.624
17671TIP3    H274505   1.132   3.609   4.753
17672TIP3   OH274506   0.933   3.085   4.843
17672TIP3    H174507   0.968   3.000   4.816
17672TIP3    H274508   0.996   3.119   4.906
17673TIP3   OH274509   1.812   2.230   4.936
17673TIP3    H174510   1.823   2.294   5.007
17673TIP3    H274511   1.853   2.271   4.860
17674TIP3   OH274512   1.224   2.498   4.843
17674TIP3    H174513   1.230   2.404   4.856
17674TIP3    H274514   1.217   2.508   4.748
17675TIP3   OH274515   0.587   2.304   4.566
17675TIP3    H174516   0.591   2.392   4.530
17675TIP3    H274517   0.530   2.256   4.506
17676TIP3   OH274518   1.359   2.335   4.423
17676TIP3    H174519   1.397   2.296   4.501
17676TIP3    H274520   1.434   2.372   4.376
17677TIP3   OH274521   0.218   2.553   4.668
17677TIP3    H174522   0.287   2.514   4.722
17677TIP3    H274523   0.234   2.519   4.580
17678TIP3   OH274524   0.722   2.716   4.600
17678TIP3    H174525   0.798   2.674   4.640
17678TIP3    H274526   0.679   2.647   4.550
17679TIP3   OH274527   1.846   2.407   5.148
17679TIP3    H174528   1.767   2.455   5.125
17679TIP3    H274529   1.853   2.415   5.243
17680TIP3   OH274530   0.428   2.224   5.012
17680TIP3    H174531   0.400   2.287   4.945
17680TIP3    H274532   0.361   2.229   5.080
17681TIP3   OH274533   1.178   3.180   4.304
17681TIP3    H174534   1.148   3.169   4.214
17681TIP3    H274535   1.128   3.255   4.337
17682TIP3   OH274536   0.707   2.965   4.997
17682TIP3    H174537   0.653   2.996   5.069
17682TIP3    H274538   0.752   3.044   4.966
17683TIP3   OH274539   1.453   2.255   4.666
17683TIP3    H174540   1.376   2.243   4.723
17683TIP3    H274541   1.504   2.323   4.710
17684TIP3   OH274542   0.416   2.380   4.774
17684TIP3    H174543   0.468   2.442   4.826
17684TIP3    H274544   0.477   2.344   4.711
17685TIP3   OH274545   0.499   3.233   5.000
17685TIP3    H174546   0.514   3.317   5.043
17685TIP3    H274547   0.498   3.169   5.071
17686TIP3   OH274548   0.116   3.176   4.162
17686TIP3    H174549   0.127   3.221   4.078
17686TIP3    H274550   0.144   3.239   4.228
17687TIP3   OH274551   1.494   3.347   4.839
17687TIP3    H174552   1.400   3.345   4.857
17687TIP3    H274553   1.514   3.439   4.823
17688TIP3   OH274554   1.553   2.137   4.998
17688TIP3    H174555   1.490   2.189   4.948
17688TIP3    H274556   1.638   2.165   4.966
17689TIP3   OH274557   0.786   1.919   4.755
17689TIP3    H174558   0.762   1.826   4.762
17689TIP3    H274559   0.707   1.966   4.784
17690TIP3   OH274560   1.308   3.495   4.469
17690TIP3    H174561   1.348   3.409   4.454
17690TIP3    H274562   1.381   3.556   4.468
17691TIP3   OH274563   1.435   3.262   4.384
17691TIP3    H174564   1.355   3.220   4.352
17691TIP3    H274565   1.455   3.216   4.465
17692TIP3   OH274566   1.573   3.105   5.229
17692TIP3    H174567   1.562   3.050   5.151
17692TIP3    H274568   1.576   3.194   5.195
17693TIP3   OH274569   1.043   2.818   4.204
17693TIP3    H174570   0.972   2.877   4.179
17693TIP3    H274571   1.111   2.832   4.138
17694TIP3   OH274572   1.065   2.730   3.854
17694TIP3    H174573   1.119   2.745   3.932
17694TIP3    H274574   1.111   2.661   3.807
17695TIP3   OH274575   1.768   2.788   5.017
17695TIP3    H174576   1.693   2.847   5.022
17695TIP3    H274577   1.820   2.821   4.944
17696TIP3   OH274578   1.420   2.845   4.262
17696TIP3    H174579   1.352   2.873   4.322
17696TIP3    H274580   1.484   2.800   4.317
17697TIP3   OH274581   1.408   2.648   5.213
17697TIP3    H174582   1.453   2.721   5.255
17697TIP3    H274583   1.337   2.688   5.164
17698TIP3   OH274584   0.570   2.910   4.469
17698TIP3    H174585   0.538   2.867   4.390
17698TIP3    H274586   0.627   2.846   4.511
17699TIP3   OH274587   0.760   3.267   4.719
17699TIP3    H174588   0.711   3.205   4.665
17699TIP3    H274589   0.825   3.214   4.764
17700TIP3   OH274590   0.574   2.806   4.818
17700TIP3    H174591   0.636   2.786   4.748
17700TIP3    H274592   0.622   2.863   4.877
17701TIP3   OH274593   1.235   3.354   4.913
17701TIP3    H174594   1.212   3.431   4.965
17701TIP3    H274595   1.189   3.282   4.956
17702TIP3   OH274596   0.729   3.243   5.353
17702TIP3    H174597   0.702   3.262   5.443
17702TIP3    H274598   0.663   3.181   5.322
17703TIP3   OH274599   1.279   2.764   4.039
17703TIP3    H174600   1.331   2.801   4.111
17703TIP3    H274601   1.333   2.779   3.961
17704TIP3   OH274602   0.367   2.763   5.236
17704TIP3    H174603   0.416   2.844   5.245
17704TIP3    H274604   0.279   2.784   5.267
17705TIP3   OH274605   1.062   3.421   4.368
17705TIP3    H174606   1.136   3.456   4.418
17705TIP3    H274607   1.017   3.499   4.335
17706TIP3   OH274608   0.389   3.461   5.333
17706TIP3    H174609   0.456   3.472   5.265
17706TIP3    H274610   0.345   3.379   5.311
17707TIP3   OH274611   1.632   1.920   4.037
17707TIP3    H174612   1.548   1.944   4.077
17707TIP3    H274613   1.666   2.002   4.001
17708TIP3   OH274614   0.467   2.810   4.217
17708TIP3    H174615   0.405   2.872   4.178
17708TIP3    H274616   0.414   2.735   4.243
17709TIP3   OH274617   1.796   3.386   3.856
17709TIP3    H174618   1.810   3.477   3.882
17709TIP3    H274619   1.877   3.341   3.882
17710TIP3   OH274620   0.155   3.027   5.098
17710TIP3    H174621   0.073   3.039   5.050
17710TIP3    H274622   0.139   2.953   5.156
17711TIP3   OH274623   0.105   3.336   4.745
17711TIP3    H174624   0.192   3.295   4.753
17711TIP3    H274625   0.063   3.319   4.829
17712TIP3   OH274626   1.859   3.405   5.417
17712TIP3    H174627   1.842   3.311   5.416
17712TIP3    H274628   1.775   3.444   5.441
17713TIP3   OH274629   0.924   3.383   5.239
17713TIP3    H174630   0.957   3.443   5.306
17713TIP3    H274631   0.845   3.344   5.278
17714TIP3   OH274632   1.025   3.691   4.244
17714TIP3    H174633   0.988   3.696   4.156
17714TIP3    H274634   0.995   3.771   4.287
17715TIP3   OH274635   0.374   3.579   4.439
17715TIP3    H174636   0.396   3.540   4.523
17715TIP3    H274637   0.325   3.511   4.393
17716TIP3   OH274638   1.312   3.655   3.931
17716TIP3    H174639   1.361   3.582   3.895
17716TIP3    H274640   1.317   3.644   4.026
17717TIP3   OH274641   1.290   3.635   4.206
17717TIP3    H174642   1.197   3.648   4.221
17717TIP3    H274643   1.317   3.574   4.276
17718TIP3   OH274644   1.637   2.503   5.337
17718TIP3    H174645   1.558   2.549   5.366
17718TIP3    H274646   1.608   2.414   5.319
17719TIP3   OH274647   0.287   3.231   5.232
17719TIP3    H174648   0.363   3.174   5.247
17719TIP3    H274649   0.225   3.177   5.182
17720TIP3   OH274650   0.539   2.028   4.843
17720TIP3    H174651   0.464   2.021   4.784
17720TIP3    H274652   0.516   2.099   4.903
17721TIP3   OH274653   1.010   1.986   5.209
17721TIP3    H174654   1.033   1.919   5.275
17721TIP3    H274655   0.915   1.993   5.214
17722TIP3   OH274656   1.312   2.380   5.242
17722TIP3    H174657   1.256   2.379   5.320
17722TIP3    H274658   1.332   2.473   5.229
17723TIP3   OH274659   1.421   2.774   3.799
17723TIP3    H174660   1.396   2.808   3.713
17723TIP3    H274661   1.507   2.811   3.815
17724TIP3   OH274662   0.992   2.215   3.915
17724TIP3    H174663   0.933   2.213   3.991
17724TIP3    H274664   0.950   2.157   3.852
17725TIP3   OH274665   0.552   2.555   4.932
17725TIP3    H174666   0.488   2.552   5.004
17725TIP3    H274667   0.550   2.645   4.902
17726TIP3   OH274668   0.571   2.547   4.439
17726TIP3    H174669   0.476   2.541   4.443
17726TIP3    H274670   0.593   2.526   4.348
17727TIP3   OH274671   1.096   2.574   4.319
17727TIP3    H174672   1.072   2.661   4.287
17727TIP3    H274673   1.165   2.545   4.259
17728TIP3   OH274674   0.956   2.618   5.459
17728TIP3    H174675   0.922   2.535   5.493
17728TIP3    H274676   1.003   2.657   5.532
17729TIP3   OH274677   1.205   2.516   4.570
17729TIP3    H174678   1.152   2.558   4.502
17729TIP3    H274679   1.249   2.444   4.525
17730TIP3   OH274680   0.328   2.525   5.098
17730TIP3    H174681   0.341   2.593   5.165
17730TIP3    H274682   0.295   2.450   5.147
17731TIP3   OH274683   0.669   2.288   3.798
17731TIP3    H174684   0.635   2.274   3.887
17731TIP3    H274685   0.611   2.355   3.762
17732TIP3   OH274686   0.056   2.320   4.488
17732TIP3    H174687   0.091   2.304   4.575
17732TIP3    H274688   0.078   2.242   4.438
17733TIP3   OH274689   0.072   2.404   4.069
17733TIP3    H174690   0.160   2.439   4.054
17733TIP3    H274691   0.021   2.434   3.993
17734TIP3   OH274692   1.174   2.677   5.044
17734TIP3    H174693   1.201   2.614   4.977
17734TIP3    H274694   1.115   2.628   5.101
17735TIP3   OH274695   0.862   2.259   4.522
17735TIP3    H174696   0.772   2.266   4.554
17735TIP3    H274697   0.911   2.224   4.596
17736TIP3   OH274698   0.309   2.473   4.414
17736TIP3    H174699   0.230   2.501   4.367
17736TIP3    H274700   0.320   2.381   4.391
17737TIP3   OH274701   0.620   2.466   4.180
17737TIP3    H174702   0.714   2.465   4.195
17737TIP3    H274703   0.609   2.511   4.097
17738TIP3   OH274704   1.235   2.221   4.829
17738TIP3    H174705   1.216   2.201   4.921
17738TIP3    H274706   1.161   2.183   4.781
17739TIP3   OH274707   0.582   2.564   3.928
17739TIP3    H174708   0.523   2.543   3.855
17739TIP3    H274709   0.655   2.611   3.887
17740TIP3   OH274710   1.613   3.791   5.498
17740TIP3    H174711   1.645   3.803   5.408
17740TIP3    H274712   1.687   3.813   5.553
17741TIP3   OH274713   0.352   2.957   5.510
17741TIP3    H174714   0.409   2.987   5.439
17741TIP3    H274715   0.294   3.031   5.527
17742TIP3   OH274716   0.930   2.591   4.742
17742TIP3    H174717   1.004   2.537   4.716
17742TIP3    H274718   0.892   2.547   4.818
17743TIP3   OH274719   0.410   2.207   4.370
17743TIP3    H174720   0.369   2.124   4.395
17743TIP3    H274721   0.437   2.193   4.279
17744TIP3   OH274722   0.811   2.469   4.971
17744TIP3    H174723   0.723   2.504   4.959
17744TIP3    H274724   0.850   2.523   5.040
17745TIP3   OH274725   0.849   2.999   4.125
17745TIP3    H174726   0.777   2.969   4.070
17745TIP3    H274727   0.807   3.038   4.201
17746TIP3   OH274728   1.565   2.975   4.981
17746TIP3    H174729   1.627   3.036   4.939
17746TIP3    H274730   1.498   2.961   4.914
17747TIP3   OH274731   1.223   2.358   3.904
17747TIP3    H174732   1.138   2.315   3.915
17747TIP3    H274733   1.241   2.397   3.989
17748TIP3   OH274734   1.005   3.111   5.283
17748TIP3    H174735   0.944   3.042   5.310
17748TIP3    H274736   0.952   3.189   5.274
17749TIP3   OH274737   1.297   2.498   4.134
17749TIP3    H174738   1.384   2.483   4.173
17749TIP3    H274739   1.301   2.588   4.102
17750TIP3   OH274740   0.381   2.953   4.676
17750TIP3    H174741   0.446   2.954   4.606
17750TIP3    H274742   0.419   2.899   4.745
17751TIP3   OH274743   1.056   3.161   4.050
17751TIP3    H174744   1.023   3.251   4.056
17751TIP3    H274745   0.982   3.106   4.075
17752TIP3   OH274746   0.070   2.793   5.238
17752TIP3    H174747   0.050   2.715   5.290
17752TIP3    H274748  -0.006   2.804   5.180
17753TIP3   OH274749   0.865   2.890   5.404
17753TIP3    H174750   0.770   2.901   5.395
17753TIP3    H274751   0.877   2.796   5.416
17754TIP3   OH274752   1.757   2.553   4.077
17754TIP3    H174753   1.721   2.532   3.991
17754TIP3    H274754   1.781   2.645   4.071
17755TIP3   OH274755   1.805   3.134   5.378
17755TIP3    H174756   1.716   3.127   5.344
17755TIP3    H274757   1.860   3.113   5.303
17756TIP3   OH274758   1.604   3.384   4.190
17756TIP3    H174759   1.553   3.344   4.260
17756TIP3    H274760   1.602   3.320   4.119
17757TIP3   OH274761   1.369   2.914   4.780
17757TIP3    H174762   1.274   2.905   4.786
17757TIP3    H274763   1.398   2.834   4.735
17758TIP3   OH274764   0.609   3.342   4.431
17758TIP3    H174765   0.632   3.428   4.395
17758TIP3    H274766   0.558   3.362   4.510
17759TIP3   OH274767   0.154   2.825   3.895
17759TIP3    H174768   0.215   2.871   3.954
17759TIP3    H274769   0.076   2.811   3.949
17760TIP3   OH274770   0.696   3.111   4.318
17760TIP3    H174771   0.674   3.194   4.359
17760TIP3    H274772   0.655   3.045   4.374
17761TIP3   OH274773   0.824   3.517   5.027
17761TIP3    H174774   0.888   3.586   5.008
17761TIP3    H274775   0.867   3.462   5.093
17762TIP3   OH274776   0.628   3.605   4.340
17762TIP3    H174777   0.537   3.612   4.368
17762TIP3    H274778   0.671   3.681   4.380
17763TIP3   OH274779   1.130   3.125   5.036
17763TIP3    H174780   1.091   3.123   5.123
17763TIP3    H274781   1.188   3.050   5.034
17764TIP3   OH274782   1.424   3.215   3.918
17764TIP3    H174783   1.447   3.159   3.991
17764TIP3    H274784   1.336   3.186   3.893
17765TIP3   OH274785   1.420   3.546   5.218
17765TIP3    H174786   1.331   3.518   5.198
17765TIP3    H274787   1.430   3.629   5.172
17766TIP3   OH274788   1.853   3.651   3.929
17766TIP3    H174789   1.916   3.722   3.924
17766TIP3    H274790   1.771   3.692   3.958
17767TIP3   OH274791   0.228   2.257   5.214
17767TIP3    H174792   0.133   2.272   5.220
17767TIP3    H274793   0.244   2.180   5.269
17768TIP3   OH274794   1.528   3.052   4.110
17768TIP3    H174795   1.481   2.990   4.166
17768TIP3    H274796   1.620   3.043   4.136
17769TIP3   OH274797   0.220   3.514   5.017
17769TIP3    H174798   0.228   3.437   5.073
17769TIP3    H274799   0.241   3.588   5.074
17770TIP3   OH274800   0.784   3.298   3.788
17770TIP3    H174801   0.787   3.213   3.744
17770TIP3    H274802   0.750   3.279   3.875
17771TIP3   OH274803   0.664   3.272   4.043
17771TIP3    H174804   0.680   3.228   4.126
17771TIP3    H274805   0.673   3.365   4.062
17772TIP3   OH274806   0.295   2.982   4.075
17772TIP3    H174807   0.231   3.030   4.127
17772TIP3    H274808   0.350   3.049   4.036
17773TIP3   OH274809   1.178   2.180   5.090
17773TIP3    H174810   1.217   2.241   5.152
17773TIP3    H274811   1.125   2.121   5.143
17774TIP3   OH274812   1.207   2.185   4.252
17774TIP3    H174813   1.184   2.254   4.189
17774TIP3    H274814   1.253   2.231   4.321
17775TIP3   OH274815   0.959   3.414   4.058
17775TIP3    H174816   0.871   3.443   4.080
17775TIP3    H274817   1.006   3.495   4.037
17776TIP3   OH274818   0.875   2.414   4.292
17776TIP3    H174819   0.947   2.475   4.303
17776TIP3    H274820   0.866   2.372   4.377
17777TIP3   OH274821   1.009   2.526   5.202
17777TIP3    H174822   0.989   2.563   5.289
17777TIP3    H274823   1.001   2.432   5.214
17778TIP3   OH274824   0.968   2.070   4.346
17778TIP3    H174825   0.940   2.138   4.408
17778TIP3    H274826   1.057   2.095   4.321
17779TIP3   OH274827   0.715   3.537   4.094
17779TIP3    H174828   0.721   3.621   4.047
17779TIP3    H274829   0.682   3.560   4.180
17780TIP3   OH274830   0.563   2.224   4.051
17780TIP3    H174831   0.558   2.308   4.096
17780TIP3    H274832   0.647   2.188   4.078
17781TIP3   OH274833   1.551   2.248   5.258
17781TIP3    H174834   1.462   2.283   5.259
17781TIP3    H274835   1.557   2.201   5.175
17782TIP3   OH274836   1.438   2.660   4.658
17782TIP3    H174837   1.352   2.622   4.639
17782TIP3    H274838   1.480   2.596   4.715
17783TIP3   OH274839   0.419   3.196   3.942
17783TIP3    H174840   0.494   3.236   3.985
17783TIP3    H274841   0.456   3.146   3.869
17784TIP3   OH274842   0.232   2.551   3.864
17784TIP3    H174843   0.229   2.643   3.892
17784TIP3    H274844   0.141   2.530   3.842
17785TIP3   OH274845   1.567   3.618   4.832
17785TIP3    H174846   1.558   3.687   4.767
17785TIP3    H274847   1.661   3.616   4.852
17786TIP3   OH274848   0.298   2.002   4.704
17786TIP3    H174849   0.301   1.993   4.609
17786TIP3    H274850   0.267   1.918   4.736
17787TIP3   OH274851   0.191   3.411   4.305
17787TIP3    H174852   0.126   3.443   4.366
17787TIP3    H274853   0.184   3.469   4.229
17788TIP3   OH274854   0.197   3.644   5.424
17788TIP3    H174855   0.260   3.579   5.391
17788TIP3    H274856   0.113   3.599   5.420
17789TIP3   OH274857   0.522   3.530   5.565
17789TIP3    H174858   0.578   3.456   5.586
17789TIP3    H274859   0.480   3.506   5.482
17790TIP3   OH274860   0.987   3.484   3.748
17790TIP3    H174861   0.921   3.419   3.772
17790TIP3    H274862   1.063   3.432   3.721
17791TIP3   OH274863   1.445   3.459   3.795
17791TIP3    H174864   1.451   3.378   3.846
17791TIP3    H274865   1.526   3.460   3.742
17792TIP3   OH274866   0.112   3.064   5.652
17792TIP3    H174867   0.143   3.025   5.734
17792TIP3    H274868   0.056   2.996   5.613
17793TIP3   OH274869   0.545   3.024   3.770
17793TIP3    H174870   0.566   2.974   3.848
17793TIP3    H274871   0.629   3.036   3.725
17794TIP3   OH274872   1.176   3.149   3.805
17794TIP3    H174873   1.126   3.148   3.886
17794TIP3    H274874   1.143   3.074   3.755
17795TIP3   OH274875   0.192   2.754   5.617
17795TIP3    H174876   0.259   2.813   5.581
17795TIP3    H274877   0.231   2.720   5.698
17796TIP3   OH274878   0.631   2.886   3.995
17796TIP3    H174879   0.583   2.848   4.069
17796TIP3    H274880   0.675   2.812   3.954
17797TIP3   OH274881   0.603   2.602   5.254
17797TIP3    H174882   0.531   2.664   5.263
17797TIP3    H274883   0.669   2.649   5.203
17798TIP3   OH274884   0.787   2.719   3.833
17798TIP3    H174885   0.784   2.746   3.741
17798TIP3    H274886   0.881   2.720   3.855
17799TIP3   OH274887   1.669   2.900   3.780
17799TIP3    H174888   1.674   2.884   3.686
17799TIP3    H274889   1.666   2.995   3.788
17800TIP3   OH274890   0.682   2.361   5.358
17800TIP3    H174891   0.681   2.311   5.276
17800TIP3    H274892   0.650   2.447   5.334
17801TIP3   OH274893   0.689   2.242   5.103
17801TIP3    H174894   0.737   2.306   5.051
17801TIP3    H274895   0.600   2.245   5.070
17802TIP3   OH274896   0.798   2.731   5.105
17802TIP3    H174897   0.883   2.756   5.143
17802TIP3    H274898   0.766   2.811   5.064
17803TIP3   OH274899   1.273   2.529   5.635
17803TIP3    H174900   1.240   2.474   5.564
17803TIP3    H274901   1.367   2.535   5.619
17804TIP3   OH274902   0.732   1.983   5.195
17804TIP3    H174903   0.717   2.073   5.166
17804TIP3    H274904   0.665   1.932   5.150
17805TIP3   OH274905   0.892   2.348   5.532
17805TIP3    H174906   0.855   2.309   5.612
17805TIP3    H274907   0.818   2.349   5.470
17806TIP3   OH274908   1.160   2.339   5.464
17806TIP3    H174909   1.067   2.338   5.489
17806TIP3    H274910   1.198   2.265   5.511
17807TIP3   OH274911   1.314   2.154   5.602
17807TIP3    H174912   1.359   2.080   5.562
17807TIP3    H274913   1.384   2.207   5.641
17808TIP3   OH274914   0.749   1.876   5.450
17808TIP3    H174915   0.832   1.830   5.441
17808TIP3    H274916   0.735   1.918   5.365
17809TIP3   OH274917   0.792   3.779   3.979
17809TIP3    H174918   0.880   3.743   3.966
17809TIP3    H274919   0.781   3.844   3.910
17810TIP3   OH274920   0.158   3.249   3.880
17810TIP3    H174921   0.246   3.262   3.914
17810TIP3    H274922   0.166   3.176   3.819
17811TIP3   OH274923   0.054   3.730   4.357
17811TIP3    H174924  -0.042   3.736   4.352
17811TIP3    H274925   0.070   3.663   4.423
17812TIP3   OH274926   0.073   3.537   4.561
17812TIP3    H174927   0.065   3.451   4.604
17812TIP3    H274928   0.131   3.586   4.618
17813TIP3   OH274929   1.828   3.622   4.918
17813TIP3    H174930   1.823   3.586   5.007
17813TIP3    H274931   1.869   3.708   4.930
17814TIP3   OH274932   1.793   3.532   5.174
17814TIP3    H174933   1.726   3.467   5.153
17814TIP3    H274934   1.834   3.500   5.254
17815TIP3   OH274935   1.790   3.000   4.191
17815TIP3    H174936   1.860   3.064   4.200
17815TIP3    H274937   1.804   2.938   4.263
17816TIP3   OH274938   1.839   2.800   4.377
17816TIP3    H174939   1.755   2.769   4.411
17816TIP3    H274940   1.892   2.814   4.455
17817TIP3   OH274941   1.799   3.110   4.903
17817TIP3    H174942   1.853   3.046   4.856
17817TIP3    H274943   1.824   3.194   4.867
17818TIP3   OH274944   1.589   3.356   5.104
17818TIP3    H174945   1.522   3.414   5.141
17818TIP3    H274946   1.563   3.345   5.013
17819TIP3   OH274947   1.818   2.810   3.996
17819TIP3    H174948   1.765   2.837   3.922
17819TIP3    H274949   1.804   2.878   4.062
17820TIP3   OH274950   1.675   2.512   3.821
17820TIP3    H174951   1.645   2.571   3.751
17820TIP3    H274952   1.645   2.425   3.793
17821TIP3   OH274953   1.585   2.688   4.426
17821TIP3    H174954   1.577   2.598   4.395
17821TIP3    H274955   1.539   2.689   4.510
17822TIP3   OH274956   0.093   2.896   4.807
17822TIP3    H174957   0.133   2.950   4.739
17822TIP3    H274958   0.166   2.862   4.858
17823TIP3   OH274959   1.587   2.828   5.345
17823TIP3    H174960   1.662   2.801   5.398
17823TIP3    H274961   1.582   2.923   5.355
17824TIP3   OH274962   1.861   2.639   5.406
17824TIP3    H174963   1.773   2.610   5.384
17824TIP3    H274964   1.907   2.559   5.432
17825TIP3   OH274965   1.580   2.269   3.728
17825TIP3    H174966   1.613   2.218   3.801
17825TIP3    H274967   1.490   2.241   3.717
17826TIP3   OH274968   1.560   2.440   4.250
17826TIP3    H174969   1.590   2.349   4.252
17826TIP3    H274970   1.627   2.485   4.198
17827TIP3   OH274971   1.587   2.461   4.794
17827TIP3    H174972   1.680   2.468   4.773
17827TIP3    H274973   1.581   2.486   4.886
17828TIP3   OH274974   1.622   2.555   5.048
17828TIP3    H174975   1.553   2.572   5.112
17828TIP3    H274976   1.671   2.637   5.042
17829TIP3   OH274977   1.759   1.948   5.667
17829TIP3    H174978   1.776   1.908   5.752
17829TIP3    H274979   1.845   1.975   5.635
17830TIP3   OH274980   1.625   2.169   4.265
17830TIP3    H174981   1.647   2.132   4.351
17830TIP3    H274982   1.554   2.113   4.233
17831TIP3   OH274983   0.172   2.250   4.729
17831TIP3    H174984   0.204   2.160   4.732
17831TIP3    H274985   0.248   2.303   4.750
17832TIP3   OH274986  -0.000   2.637   4.821
17832TIP3    H174987   0.072   2.597   4.772
17832TIP3    H274988   0.021   2.730   4.824
17833TIP3   OH274989   1.784   2.162   5.378
17833TIP3    H174990   1.702   2.202   5.352
17833TIP3    H274991   1.779   2.072   5.345
17834TIP3   OH274992   1.747   2.138   3.907
17834TIP3    H174993   1.802   2.082   3.852
17834TIP3    H274994   1.808   2.199   3.947
17835TIP3   OH274995   0.112   2.159   4.195
17835TIP3    H174996   0.030   2.147   4.244
17835TIP3    H274997   0.101   2.245   4.152
17836TIP3   OH274998   1.506   3.673   4.430
17836TIP3    H174999   1.583   3.663   4.375
17836TIP3    H275000   1.539   3.716   4.509
17837TIP3   OH275001   7.359   2.005   5.083
17837TIP3    H175002   7.318   2.014   5.169
17837TIP3    H275003   7.298   2.047   5.023
17838TIP3   OH275004   0.562   3.483   5.116
17838TIP3    H175005   0.542   3.573   5.091
17838TIP3    H275006   0.656   3.474   5.099
17839TIP3   OH275007   0.977   3.578   5.431
17839TIP3    H175008   1.024   3.531   5.499
17839TIP3    H275009   1.039   3.644   5.399
17840TIP3   OH275010   1.191   3.733   5.351
17840TIP3    H175011   1.231   3.646   5.354
17840TIP3    H275012   1.234   3.781   5.422
17841TIP3   OH275013   1.692   1.927   5.232
17841TIP3    H175014   1.609   1.925   5.185
17841TIP3    H275015   1.723   1.836   5.231
17842TIP3   OH275016   0.274   3.766   5.129
17842TIP3    H175017   0.189   3.799   5.101
17842TIP3    H275018   0.289   3.807   5.214
17843TIP3   OH275019   0.534   3.748   5.044
17843TIP3    H175020   0.444   3.757   5.075
17843TIP3    H275021   0.535   3.793   4.960
17844TIP3   OH275022   0.982   3.732   4.939
17844TIP3    H175023   0.911   3.764   4.882
17844TIP3    H275024   0.991   3.798   5.007
17845TIP3   OH275025   1.212   3.607   5.026
17845TIP3    H175026   1.128   3.646   5.002
17845TIP3    H275027   1.272   3.682   5.031
17846TIP3   OH275028   1.472   3.765   5.047
17846TIP3    H175029   1.480   3.854   5.013
17846TIP3    H275030   1.499   3.709   4.973
17847TIP3   OH275031   0.239   3.626   4.768
17847TIP3    H175032   0.224   3.592   4.856
17847TIP3    H275033   0.314   3.576   4.735
17848TIP3   OH275034   0.451   3.466   4.675
17848TIP3    H175035   0.424   3.382   4.712
17848TIP3    H275036   0.532   3.487   4.722
17849TIP3   OH275037   0.705   3.528   4.780
17849TIP3    H175038   0.731   3.442   4.746
17849TIP3    H275039   0.731   3.525   4.872
17850TIP3   OH275040   1.023   2.098   4.683
17850TIP3    H175041   0.965   2.027   4.709
17850TIP3    H275042   1.093   2.055   4.635
17851TIP3   OH275043   1.531   1.953   4.666
17851TIP3    H175044   1.599   2.004   4.622
17851TIP3    H275045   1.457   2.014   4.674
17852TIP3   OH275046   1.722   2.050   4.494
17852TIP3    H175047   1.783   1.978   4.475
17852TIP3    H275048   1.778   2.126   4.511
17853TIP3   OH275049   0.298   1.961   4.430
17853TIP3    H175050   0.212   1.947   4.391
17853TIP3    H275051   0.341   1.876   4.426
17854TIP3   OH275052   0.167   1.962   4.013
17854TIP3    H175053   0.236   2.003   3.961
17854TIP3    H275054   0.158   2.019   4.090
17855TIP3   OH275055   0.760   1.921   4.470
17855TIP3    H175056   0.830   1.973   4.432
17855TIP3    H275057   0.773   1.929   4.565
17856TIP3   OH275058   1.239   1.979   4.557
17856TIP3    H175059   1.299   1.954   4.487
17856TIP3    H275060   1.227   1.899   4.608
17857TIP3   OH275061   1.411   2.006   4.183
17857TIP3    H175062   1.337   2.064   4.199
17857TIP3    H275063   1.377   1.918   4.199
17858TIP3   OH275064   0.157   3.570   4.075
17858TIP3    H175065   0.066   3.540   4.078
17858TIP3    H275066   0.151   3.665   4.068
17859TIP3   OH275067   0.369   2.114   3.877
17859TIP3    H175068   0.423   2.063   3.817
17859TIP3    H275069   0.431   2.148   3.941
17860TIP3   OH275070   0.826   2.194   4.135
17860TIP3    H175071   0.858   2.125   4.194
17860TIP3    H275072   0.839   2.275   4.185
17861TIP3   OH275073   1.037   3.663   3.949
17861TIP3    H175074   1.131   3.676   3.942
17861TIP3    H275075   1.014   3.609   3.873
17862TIP3   OH275076   1.710   3.633   4.242
17862TIP3    H175077   1.679   3.544   4.222
17862TIP3    H275078   1.686   3.685   4.165
17863TIP3   OH275079   0.271   2.019   5.378
17863TIP3    H175080   0.212   1.961   5.426
17863TIP3    H275081   0.356   2.007   5.421
17864TIP3   OH275082   0.493   1.954   5.531
17864TIP3    H175083   0.585   1.946   5.504
17864TIP3    H275084   0.473   1.872   5.575
17865TIP3   OH275085   0.346   3.634   3.816
17865TIP3    H175086   0.311   3.615   3.902
17865TIP3    H275087   0.422   3.577   3.807
17866TIP3   OH275088   1.610   3.520   5.423
17866TIP3    H175089   1.538   3.522   5.360
17866TIP3    H275090   1.599   3.600   5.475
17867TIP3   OH275091   3.083   2.913   4.412
17867TIP3    H175092   3.062   3.007   4.406
17867TIP3    H275093   3.010   2.870   4.367
17868TIP3   OH275094   2.961   2.825   4.818
17868TIP3    H175095   2.990   2.786   4.900
17868TIP3    H275096   2.910   2.756   4.775
17869TIP3   OH275097   2.164   2.776   4.944
17869TIP3    H175098   2.169   2.686   4.976
17869TIP3    H275099   2.218   2.827   5.005
17870TIP3   OH275100   3.354   3.137   4.648
17870TIP3    H175101   3.311   3.064   4.692
17870TIP3    H275102   3.367   3.203   4.716
17871TIP3   OH275103   2.314   3.213   4.767
17871TIP3    H175104   2.284   3.128   4.735
17871TIP3    H275105   2.343   3.196   4.857
17872TIP3   OH275106   1.967   2.572   4.275
17872TIP3    H175107   1.938   2.654   4.314
17872TIP3    H275108   1.896   2.548   4.214
17873TIP3   OH275109   2.032   2.817   4.579
17873TIP3    H175110   2.057   2.728   4.605
17873TIP3    H275111   2.110   2.870   4.596
17874TIP3   OH275112   3.074   3.597   4.688
17874TIP3    H175113   3.107   3.544   4.616
17874TIP3    H275114   3.060   3.535   4.759
17875TIP3   OH275115   2.819   3.072   4.839
17875TIP3    H175116   2.855   2.989   4.809
17875TIP3    H275117   2.888   3.110   4.894
17876TIP3   OH275118   3.696   2.219   4.922
17876TIP3    H175119   3.705   2.292   4.983
17876TIP3    H275120   3.754   2.241   4.849
17877TIP3   OH275121   3.110   2.498   4.834
17877TIP3    H175122   3.117   2.403   4.849
17877TIP3    H275123   3.101   2.506   4.739
17878TIP3   OH275124   2.465   2.301   4.566
17878TIP3    H175125   2.469   2.387   4.524
17878TIP3    H275126   2.405   2.251   4.511
17879TIP3   OH275127   3.242   2.334   4.413
17879TIP3    H175128   3.280   2.302   4.495
17879TIP3    H275129   3.315   2.373   4.365
17880TIP3   OH275130   2.101   2.560   4.656
17880TIP3    H175131   2.167   2.520   4.713
17880TIP3    H275132   2.119   2.525   4.569
17881TIP3   OH275133   2.597   2.712   4.599
17881TIP3    H175134   2.677   2.672   4.634
17881TIP3    H275135   2.555   2.643   4.549
17882TIP3   OH275136   3.720   2.395   5.135
17882TIP3    H175137   3.643   2.450   5.116
17882TIP3    H275138   3.735   2.408   5.228
17883TIP3   OH275139   2.318   2.224   4.990
17883TIP3    H175140   2.297   2.287   4.920
17883TIP3    H275141   2.245   2.233   5.052
17884TIP3   OH275142   2.998   3.158   4.316
17884TIP3    H175143   3.016   3.171   4.223
17884TIP3    H275144   2.973   3.245   4.348
17885TIP3   OH275145   2.585   2.995   4.971
17885TIP3    H175146   2.527   3.066   4.995
17885TIP3    H275147   2.661   3.038   4.931
17886TIP3   OH275148   3.330   2.280   4.666
17886TIP3    H175149   3.261   2.256   4.728
17886TIP3    H275150   3.386   2.340   4.716
17887TIP3   OH275151   2.302   2.396   4.772
17887TIP3    H175152   2.355   2.455   4.826
17887TIP3    H275153   2.363   2.360   4.709
17888TIP3   OH275154   2.402   3.196   5.038
17888TIP3    H175155   2.427   3.288   5.044
17888TIP3    H275156   2.319   3.191   5.084
17889TIP3   OH275157   2.007   3.175   4.183
17889TIP3    H175158   1.994   3.224   4.101
17889TIP3    H275159   2.029   3.241   4.248
17890TIP3   OH275160   3.376   3.349   4.842
17890TIP3    H175161   3.281   3.350   4.855
17890TIP3    H275162   3.397   3.438   4.817
17891TIP3   OH275163   3.448   2.114   5.012
17891TIP3    H175164   3.379   2.161   4.966
17891TIP3    H275165   3.529   2.142   4.969
17892TIP3   OH275166   2.674   1.910   4.749
17892TIP3    H175167   2.651   1.817   4.752
17892TIP3    H275168   2.596   1.956   4.778
17893TIP3   OH275169   3.190   3.472   4.468
17893TIP3    H175170   3.236   3.391   4.447
17893TIP3    H275171   3.259   3.539   4.466
17894TIP3   OH275172   3.329   3.250   4.398
17894TIP3    H175173   3.353   3.186   4.331
17894TIP3    H275174   3.341   3.204   4.481
17895TIP3   OH275175   3.483   3.126   5.200
17895TIP3    H175176   3.472   3.067   5.125
17895TIP3    H275177   3.495   3.212   5.161
17896TIP3   OH275178   2.927   2.816   4.197
17896TIP3    H175179   2.866   2.886   4.173
17896TIP3    H275180   2.999   2.823   4.135
17897TIP3   OH275181   2.967   2.721   3.846
17897TIP3    H175182   3.020   2.742   3.922
17897TIP3    H275183   3.016   2.653   3.800
17898TIP3   OH275184   3.646   2.785   5.028
17898TIP3    H175185   3.573   2.847   5.022
17898TIP3    H275186   3.706   2.812   4.959
17899TIP3   OH275187   3.304   2.850   4.267
17899TIP3    H175188   3.234   2.871   4.329
17899TIP3    H275189   3.368   2.801   4.319
17900TIP3   OH275190   3.264   2.642   5.219
17900TIP3    H175191   3.268   2.715   5.281
17900TIP3    H275192   3.197   2.668   5.156
17901TIP3   OH275193   2.464   2.910   4.454
17901TIP3    H175194   2.433   2.864   4.376
17901TIP3    H275195   2.518   2.847   4.501
17902TIP3   OH275196   2.660   3.272   4.718
17902TIP3    H175197   2.628   3.227   4.639
17902TIP3    H275198   2.719   3.208   4.759
17903TIP3   OH275199   2.457   2.803   4.821
17903TIP3    H175200   2.516   2.781   4.749
17903TIP3    H275201   2.505   2.868   4.872
17904TIP3   OH275202   3.109   3.360   4.896
17904TIP3    H175203   3.093   3.428   4.962
17904TIP3    H275204   3.078   3.279   4.937
17905TIP3   OH275205   2.602   3.180   5.313
17905TIP3    H175206   2.547   3.254   5.339
17905TIP3    H275207   2.546   3.128   5.254
17906TIP3   OH275208   3.163   2.783   4.041
17906TIP3    H175209   3.216   2.815   4.113
17906TIP3    H275210   3.218   2.796   3.963
17907TIP3   OH275211   2.251   2.848   5.206
17907TIP3    H175212   2.269   2.925   5.260
17907TIP3    H275213   2.156   2.840   5.205
17908TIP3   OH275214   2.946   3.435   4.354
17908TIP3    H175215   3.028   3.439   4.403
17908TIP3    H275216   2.913   3.525   4.355
17909TIP3   OH275217   2.453   3.399   5.337
17909TIP3    H175218   2.426   3.436   5.252
17909TIP3    H275219   2.396   3.442   5.400
17910TIP3   OH275220   3.522   1.922   4.034
17910TIP3    H175221   3.439   1.948   4.075
17910TIP3    H275222   3.558   2.004   4.000
17911TIP3   OH275223   2.366   2.808   4.207
17911TIP3    H175224   2.301   2.871   4.177
17911TIP3    H275225   2.320   2.724   4.208
17912TIP3   OH275226   3.666   3.367   3.901
17912TIP3    H175227   3.682   3.461   3.898
17912TIP3    H275228   3.753   3.328   3.892
17913TIP3   OH275229   1.939   3.062   5.145
17913TIP3    H175230   1.883   3.073   5.068
17913TIP3    H275231   1.947   2.967   5.155
17914TIP3   OH275232   1.907   3.366   4.826
17914TIP3    H175233   1.986   3.371   4.880
17914TIP3    H275234   1.858   3.445   4.849
17915TIP3   OH275235   3.740   3.411   5.411
17915TIP3    H175236   3.721   3.318   5.402
17915TIP3    H275237   3.658   3.449   5.443
17916TIP3   OH275238   2.820   3.343   5.251
17916TIP3    H175239   2.832   3.410   5.317
17916TIP3    H275240   2.737   3.300   5.274
17917TIP3   OH275241   2.912   3.696   4.258
17917TIP3    H175242   2.899   3.706   4.164
17917TIP3    H275243   2.893   3.783   4.294
17918TIP3   OH275244   2.255   3.579   4.447
17918TIP3    H175245   2.284   3.545   4.531
17918TIP3    H275246   2.203   3.509   4.409
17919TIP3   OH275247   3.176   3.654   3.920
17919TIP3    H175248   3.224   3.580   3.883
17919TIP3    H275249   3.195   3.651   4.014
17920TIP3   OH275250   3.181   3.646   4.200
17920TIP3    H175251   3.092   3.645   4.235
17920TIP3    H275252   3.236   3.612   4.270
17921TIP3   OH275253   3.446   2.535   5.412
17921TIP3    H175254   3.382   2.566   5.348
17921TIP3    H275255   3.455   2.442   5.394
17922TIP3   OH275256   2.153   3.236   5.154
17922TIP3    H175257   2.157   3.259   5.247
17922TIP3    H275258   2.080   3.174   5.148
17923TIP3   OH275259   2.428   2.021   4.833
17923TIP3    H175260   2.353   2.011   4.775
17923TIP3    H275261   2.405   2.095   4.890
17924TIP3   OH275262   2.902   2.006   5.181
17924TIP3    H175263   2.949   1.957   5.249
17924TIP3    H275264   2.810   1.997   5.205
17925TIP3   OH275265   3.202   2.368   5.249
17925TIP3    H175266   3.145   2.360   5.326
17925TIP3    H275267   3.207   2.463   5.233
17926TIP3   OH275268   3.308   2.799   3.809
17926TIP3    H175269   3.284   2.825   3.720
17926TIP3    H275270   3.399   2.828   3.818
17927TIP3   OH275271   2.856   2.235   3.904
17927TIP3    H175272   2.799   2.230   3.981
17927TIP3    H275273   2.822   2.168   3.845
17928TIP3   OH275274   2.435   2.559   4.949
17928TIP3    H175275   2.365   2.561   5.014
17928TIP3    H275276   2.438   2.648   4.913
17929TIP3   OH275277   2.444   2.543   4.438
17929TIP3    H175278   2.348   2.535   4.439
17929TIP3    H275279   2.468   2.525   4.347
17930TIP3   OH275280   2.977   2.571   4.311
17930TIP3    H175281   2.952   2.657   4.278
17930TIP3    H275282   3.049   2.543   4.254
17931TIP3   OH275283   2.886   2.590   5.439
17931TIP3    H175284   2.851   2.509   5.476
17931TIP3    H275285   2.973   2.600   5.479
17932TIP3   OH275286   3.089   2.514   4.562
17932TIP3    H175287   3.038   2.557   4.494
17932TIP3    H275288   3.134   2.443   4.518
17933TIP3   OH275289   2.202   2.546   5.098
17933TIP3    H175290   2.165   2.598   5.169
17933TIP3    H275291   2.173   2.456   5.117
17934TIP3   OH275292   2.543   2.278   3.796
17934TIP3    H175293   2.510   2.267   3.885
17934TIP3    H275294   2.486   2.345   3.758
17935TIP3   OH275295   1.906   2.245   4.508
17935TIP3    H175296   1.953   2.258   4.590
17935TIP3    H275297   1.975   2.241   4.441
17936TIP3   OH275298   1.918   2.333   4.013
17936TIP3    H175299   1.986   2.375   3.960
17936TIP3    H275300   1.864   2.405   4.045
17937TIP3   OH275301   3.053   2.670   5.035
17937TIP3    H175302   3.080   2.611   4.965
17937TIP3    H275303   2.985   2.620   5.082
17938TIP3   OH275304   2.745   2.256   4.522
17938TIP3    H175305   2.656   2.262   4.556
17938TIP3    H275306   2.797   2.221   4.594
17939TIP3   OH275307   2.181   2.463   4.411
17939TIP3    H175308   2.109   2.490   4.355
17939TIP3    H275309   2.199   2.373   4.385
17940TIP3   OH275310   2.500   2.469   4.179
17940TIP3    H175311   2.593   2.463   4.198
17940TIP3    H275312   2.496   2.511   4.093
17941TIP3   OH275313   3.119   2.221   4.840
17941TIP3    H175314   3.081   2.222   4.928
17941TIP3    H275315   3.052   2.179   4.786
17942TIP3   OH275316   2.476   2.564   3.923
17942TIP3    H175317   2.425   2.541   3.845
17942TIP3    H275318   2.552   2.611   3.888
17943TIP3   OH275319   3.459   3.781   5.488
17943TIP3    H175320   3.497   3.817   5.408
17943TIP3    H275321   3.518   3.811   5.558
17944TIP3   OH275322   2.276   3.051   5.394
17944TIP3    H175323   2.340   3.053   5.465
17944TIP3    H275324   2.220   3.127   5.411
17945TIP3   OH275325   2.815   2.590   4.728
17945TIP3    H175326   2.887   2.534   4.698
17945TIP3    H275327   2.778   2.542   4.802
17946TIP3   OH275328   2.277   2.196   4.376
17946TIP3    H175329   2.229   2.117   4.401
17946TIP3    H275330   2.321   2.173   4.295
17947TIP3   OH275331   2.698   2.466   4.952
17947TIP3    H175332   2.614   2.511   4.961
17947TIP3    H275333   2.749   2.495   5.027
17948TIP3   OH275334   2.753   3.021   4.116
17948TIP3    H175335   2.681   2.983   4.065
17948TIP3    H275336   2.710   3.059   4.193
17949TIP3   OH275337   3.455   2.975   4.970
17949TIP3    H175338   3.517   3.031   4.923
17949TIP3    H275339   3.386   2.957   4.906
17950TIP3   OH275340   3.110   2.283   3.994
17950TIP3    H175341   3.020   2.282   3.964
17950TIP3    H275342   3.123   2.372   4.028
17951TIP3   OH275343   2.894   3.073   5.234
17951TIP3    H175344   2.865   3.038   5.318
17951TIP3    H275345   2.866   3.164   5.233
17952TIP3   OH275346   3.185   2.515   4.131
17952TIP3    H175347   3.273   2.498   4.166
17952TIP3    H275348   3.191   2.604   4.096
17953TIP3   OH275349   2.270   2.943   4.662
17953TIP3    H175350   2.335   2.945   4.591
17953TIP3    H275351   2.310   2.889   4.730
17954TIP3   OH275352   2.964   3.179   4.025
17954TIP3    H175353   2.928   3.266   4.043
17954TIP3    H275354   2.895   3.119   4.055
17955TIP3   OH275355   1.974   2.784   5.204
17955TIP3    H175356   1.938   2.745   5.284
17955TIP3    H275357   1.908   2.770   5.137
17956TIP3   OH275358   2.680   2.775   5.450
17956TIP3    H175359   2.609   2.740   5.396
17956TIP3    H275360   2.750   2.711   5.441
17957TIP3   OH275361   3.108   3.331   5.250
17957TIP3    H175362   3.014   3.339   5.234
17957TIP3    H275363   3.118   3.349   5.344
17958TIP3   OH275364   3.638   2.557   4.071
17958TIP3    H175365   3.594   2.535   3.989
17958TIP3    H275366   3.666   2.648   4.060
17959TIP3   OH275367   3.689   3.135   5.378
17959TIP3    H175368   3.607   3.143   5.329
17959TIP3    H275369   3.755   3.119   5.312
17960TIP3   OH275370   3.520   3.407   4.137
17960TIP3    H175371   3.479   3.326   4.170
17960TIP3    H275372   3.564   3.380   4.057
17961TIP3   OH275373   3.250   2.907   4.783
17961TIP3    H175374   3.155   2.899   4.783
17961TIP3    H275375   3.281   2.829   4.737
17962TIP3   OH275376   2.505   3.344   4.450
17962TIP3    H175377   2.523   3.431   4.415
17962TIP3    H275378   2.451   3.359   4.527
17963TIP3   OH275379   2.083   2.778   3.928
17963TIP3    H175380   2.130   2.841   3.983
17963TIP3    H275381   1.992   2.784   3.957
17964TIP3   OH275382   2.570   3.124   4.301
17964TIP3    H175383   2.553   3.201   4.355
17964TIP3    H275384   2.536   3.051   4.353
17965TIP3   OH275385   2.722   3.504   5.039
17965TIP3    H175386   2.781   3.578   5.026
17965TIP3    H275387   2.767   3.449   5.102
17966TIP3   OH275388   2.509   3.606   4.342
17966TIP3    H175389   2.418   3.611   4.373
17966TIP3    H275390   2.553   3.680   4.383
17967TIP3   OH275391   3.039   3.111   5.006
17967TIP3    H175392   2.992   3.095   5.089
17967TIP3    H275393   3.113   3.051   5.008
17968TIP3   OH275394   3.284   3.214   3.961
17968TIP3    H175395   3.326   3.174   4.038
17968TIP3    H275396   3.190   3.202   3.976
17969TIP3   OH275397   3.312   3.524   5.228
17969TIP3    H175398   3.232   3.472   5.221
17969TIP3    H275399   3.296   3.599   5.170
17970TIP3   OH275400   3.716   3.638   3.930
17970TIP3    H175401   3.784   3.704   3.913
17970TIP3    H275402   3.640   3.689   3.956
17971TIP3   OH275403   2.104   2.291   5.158
17971TIP3    H175404   2.014   2.321   5.148
17971TIP3    H275405   2.104   2.241   5.240
17972TIP3   OH275406   3.409   3.088   4.175
17972TIP3    H175407   3.367   3.007   4.204
17972TIP3    H275408   3.503   3.068   4.176
17973TIP3   OH275409   2.102   3.468   5.009
17973TIP3    H175410   2.130   3.388   5.053
17973TIP3    H275411   2.098   3.533   5.079
17974TIP3   OH275412   2.626   3.260   3.793
17974TIP3    H175413   2.643   3.176   3.751
17974TIP3    H275414   2.598   3.238   3.881
17975TIP3   OH275415   2.532   3.257   4.055
17975TIP3    H175416   2.545   3.208   4.136
17975TIP3    H275417   2.554   3.348   4.078
17976TIP3   OH275418   2.186   2.983   4.088
17976TIP3    H175419   2.120   3.031   4.138
17976TIP3    H275420   2.234   3.051   4.040
17977TIP3   OH275421   3.012   2.241   5.091
17977TIP3    H175422   3.082   2.265   5.152
17977TIP3    H275423   2.974   2.161   5.127
17978TIP3   OH275424   3.092   2.169   4.248
17978TIP3    H175425   3.099   2.209   4.161
17978TIP3    H275426   3.136   2.230   4.307
17979TIP3   OH275427   2.855   3.421   4.097
17979TIP3    H175428   2.763   3.448   4.103
17979TIP3    H275429   2.887   3.423   4.187
17980TIP3   OH275430   2.752   2.414   4.293
17980TIP3    H175431   2.828   2.472   4.299
17980TIP3    H275432   2.748   2.370   4.378
17981TIP3   OH275433   2.879   2.503   5.165
17981TIP3    H175434   2.871   2.523   5.259
17981TIP3    H275435   2.905   2.411   5.163
17982TIP3   OH275436   2.850   2.070   4.340
17982TIP3    H175437   2.824   2.137   4.402
17982TIP3    H275438   2.938   2.096   4.311
17983TIP3   OH275439   2.598   3.525   4.099
17983TIP3    H175440   2.589   3.605   4.046
17983TIP3    H275441   2.567   3.550   4.186
17984TIP3   OH275442   2.439   2.225   4.050
17984TIP3    H175443   2.432   2.309   4.096
17984TIP3    H275444   2.524   2.191   4.077
17985TIP3   OH275445   3.455   2.276   5.285
17985TIP3    H175446   3.362   2.295   5.276
17985TIP3    H275447   3.482   2.246   5.199
17986TIP3   OH275448   3.325   2.657   4.660
17986TIP3    H175449   3.241   2.616   4.638
17986TIP3    H275450   3.367   2.595   4.719
17987TIP3   OH275451   2.296   3.191   3.932
17987TIP3    H175452   2.369   3.224   3.983
17987TIP3    H275453   2.336   3.135   3.865
17988TIP3   OH275454   2.057   2.509   3.853
17988TIP3    H175455   2.089   2.590   3.892
17988TIP3    H275456   1.992   2.538   3.789
17989TIP3   OH275457   3.453   3.621   4.819
17989TIP3    H175458   3.445   3.691   4.754
17989TIP3    H275459   3.546   3.618   4.840
17990TIP3   OH275460   2.184   1.995   4.705
17990TIP3    H175461   2.172   1.987   4.610
17990TIP3    H275462   2.151   1.912   4.740
17991TIP3   OH275463   2.061   3.402   4.338
17991TIP3    H175464   2.012   3.430   4.415
17991TIP3    H275465   2.042   3.469   4.272
17992TIP3   OH275466   2.024   3.674   5.471
17992TIP3    H175467   2.105   3.634   5.502
17992TIP3    H275468   1.962   3.601   5.468
17993TIP3   OH275469   2.591   3.554   5.625
17993TIP3    H175470   2.573   3.604   5.704
17993TIP3    H275471   2.504   3.528   5.593
17994TIP3   OH275472   2.838   3.431   3.790
17994TIP3    H175473   2.779   3.357   3.801
17994TIP3    H275474   2.925   3.392   3.777
17995TIP3   OH275475   3.135   3.371   5.514
17995TIP3    H175476   3.073   3.317   5.562
17995TIP3    H275477   3.202   3.394   5.579
17996TIP3   OH275478   3.299   3.443   3.795
17996TIP3    H175479   3.314   3.367   3.851
17996TIP3    H275480   3.373   3.444   3.735
17997TIP3   OH275481   1.933   3.004   5.595
17997TIP3    H175482   1.876   2.958   5.655
17997TIP3    H275483   1.874   3.046   5.532
17998TIP3   OH275484   2.427   3.013   3.769
17998TIP3    H175485   2.453   2.966   3.849
17998TIP3    H275486   2.507   3.015   3.716
17999TIP3   OH275487   2.765   3.034   5.482
17999TIP3    H175488   2.699   3.090   5.441
17999TIP3    H275489   2.729   2.946   5.476
18000TIP3   OH275490   2.992   3.179   3.750
18000TIP3    H175491   2.986   3.167   3.845
18000TIP3    H275492   2.995   3.090   3.714
18001TIP3   OH275493   3.233   3.070   5.305
18001TIP3    H175494   3.319   3.099   5.276
18001TIP3    H275495   3.176   3.146   5.289
18002TIP3   OH275496   2.534   2.892   3.994
18002TIP3    H175497   2.486   2.854   4.068
18002TIP3    H275498   2.581   2.819   3.955
18003TIP3   OH275499   2.477   2.676   5.269
18003TIP3    H175500   2.402   2.731   5.248
18003TIP3    H275501   2.543   2.699   5.204
18004TIP3   OH275502   2.687   2.719   3.838
18004TIP3    H175503   2.682   2.739   3.745
18004TIP3    H275504   2.781   2.714   3.856
18005TIP3   OH275505   3.564   2.903   3.776
18005TIP3    H175506   3.569   2.888   3.681
18005TIP3    H275507   3.551   2.997   3.785
18006TIP3   OH275508   2.585   2.416   5.331
18006TIP3    H175509   2.572   2.356   5.257
18006TIP3    H275510   2.537   2.495   5.307
18007TIP3   OH275511   2.570   2.252   5.099
18007TIP3    H175512   2.620   2.305   5.037
18007TIP3    H275513   2.482   2.247   5.061
18008TIP3   OH275514   2.672   2.767   5.102
18008TIP3    H175515   2.763   2.785   5.126
18008TIP3    H275516   2.643   2.847   5.058
18009TIP3   OH275517   3.135   2.608   5.565
18009TIP3    H175518   3.173   2.521   5.559
18009TIP3    H275519   3.204   2.666   5.533
18010TIP3   OH275520   3.302   2.829   5.421
18010TIP3    H175521   3.264   2.910   5.387
18010TIP3    H275522   3.385   2.855   5.459
18011TIP3   OH275523   2.621   1.987   5.178
18011TIP3    H175524   2.605   2.078   5.156
18011TIP3    H275525   2.550   1.938   5.136
18012TIP3   OH275526   2.775   2.353   5.518
18012TIP3    H175527   2.726   2.321   5.594
18012TIP3    H275528   2.709   2.364   5.450
18013TIP3   OH275529   3.045   2.322   5.463
18013TIP3    H175530   2.952   2.312   5.483
18013TIP3    H275531   3.089   2.261   5.523
18014TIP3   OH275532   3.219   2.178   5.633
18014TIP3    H175533   3.219   2.091   5.593
18014TIP3    H275534   3.194   2.163   5.724
18015TIP3   OH275535   2.168   2.280   5.557
18015TIP3    H175536   2.183   2.203   5.503
18015TIP3    H275537   2.207   2.260   5.641
18016TIP3   OH275538   2.548   1.864   5.421
18016TIP3    H175539   2.627   1.814   5.443
18016TIP3    H275540   2.573   1.915   5.344
18017TIP3   OH275541   2.653   3.749   3.923
18017TIP3    H175542   2.737   3.738   3.967
18017TIP3    H275543   2.653   3.839   3.893
18018TIP3   OH275544   2.028   3.233   3.894
18018TIP3    H175545   2.120   3.221   3.917
18018TIP3    H275546   2.006   3.155   3.842
18019TIP3   OH275547   1.895   3.723   4.422
18019TIP3    H175548   1.834   3.689   4.357
18019TIP3    H275549   1.910   3.650   4.482
18020TIP3   OH275550   1.964   3.509   4.583
18020TIP3    H175551   1.924   3.439   4.636
18020TIP3    H275552   2.021   3.555   4.643
18021TIP3   OH275553   3.713   3.619   4.917
18021TIP3    H175554   3.700   3.605   5.010
18021TIP3    H275555   3.769   3.697   4.911
18022TIP3   OH275556   3.663   3.581   5.187
18022TIP3    H175557   3.609   3.507   5.161
18022TIP3    H275558   3.712   3.549   5.263
18023TIP3   OH275559   3.672   3.005   4.192
18023TIP3    H175560   3.744   3.067   4.192
18023TIP3    H275561   3.694   2.943   4.262
18024TIP3   OH275562   3.724   2.804   4.378
18024TIP3    H175563   3.640   2.772   4.410
18024TIP3    H275564   3.776   2.817   4.457
18025TIP3   OH275565   3.697   3.106   4.910
18025TIP3    H175566   3.750   3.041   4.865
18025TIP3    H275567   3.725   3.190   4.873
18026TIP3   OH275568   3.499   3.377   5.092
18026TIP3    H175569   3.428   3.423   5.137
18026TIP3    H275570   3.466   3.362   5.003
18027TIP3   OH275571   3.707   2.813   3.996
18027TIP3    H175572   3.660   2.840   3.917
18027TIP3    H275573   3.689   2.883   4.059
18028TIP3   OH275574   3.528   2.508   3.826
18028TIP3    H175575   3.508   2.566   3.752
18028TIP3    H275576   3.515   2.420   3.792
18029TIP3   OH275577   3.469   2.688   4.424
18029TIP3    H175578   3.464   2.598   4.391
18029TIP3    H275579   3.426   2.684   4.510
18030TIP3   OH275580   1.942   2.884   4.828
18030TIP3    H175581   1.955   2.869   4.735
18030TIP3    H275582   2.023   2.855   4.869
18031TIP3   OH275583   3.586   2.903   5.497
18031TIP3    H175584   3.624   2.821   5.465
18031TIP3    H275585   3.610   2.968   5.431
18032TIP3   OH275586   3.687   2.662   5.407
18032TIP3    H175587   3.600   2.624   5.402
18032TIP3    H275588   3.745   2.589   5.427
18033TIP3   OH275589   3.473   2.257   3.725
18033TIP3    H175590   3.511   2.209   3.799
18033TIP3    H275591   3.380   2.236   3.728
18034TIP3   OH275592   3.448   2.443   4.250
18034TIP3    H175593   3.478   2.352   4.252
18034TIP3    H275594   3.512   2.488   4.195
18035TIP3   OH275595   3.473   2.470   4.815
18035TIP3    H175596   3.565   2.481   4.793
18035TIP3    H275597   3.467   2.491   4.908
18036TIP3   OH275598   3.499   2.557   5.080
18036TIP3    H175599   3.418   2.586   5.123
18036TIP3    H275600   3.549   2.637   5.066
18037TIP3   OH275601   1.949   2.379   5.425
18037TIP3    H175602   2.023   2.349   5.477
18037TIP3    H275603   1.889   2.304   5.423
18038TIP3   OH275604   3.782   1.999   5.617
18038TIP3    H175605   3.818   1.920   5.577
18038TIP3    H275606   3.757   2.054   5.543
18039TIP3   OH275607   3.513   2.171   4.266
18039TIP3    H175608   3.536   2.134   4.352
18039TIP3    H275609   3.445   2.114   4.232
18040TIP3   OH275610   2.066   2.246   4.731
18040TIP3    H175611   2.101   2.157   4.736
18040TIP3    H275612   2.140   2.302   4.750
18041TIP3   OH275613   1.860   2.509   4.796
18041TIP3    H175614   1.937   2.520   4.740
18041TIP3    H275615   1.873   2.573   4.866
18042TIP3   OH275616   3.668   2.148   5.416
18042TIP3    H175617   3.587   2.200   5.420
18042TIP3    H275618   3.656   2.090   5.340
18043TIP3   OH275619   3.640   2.138   3.911
18043TIP3    H175620   3.698   2.083   3.859
18043TIP3    H275621   3.697   2.205   3.947
18044TIP3   OH275622   1.910   2.128   4.194
18044TIP3    H175623   1.821   2.134   4.229
18044TIP3    H275624   1.921   2.209   4.143
18045TIP3   OH275625   3.367   3.674   4.430
18045TIP3    H175626   3.447   3.670   4.376
18045TIP3    H275627   3.392   3.729   4.504
18046TIP3   OH275628   1.894   1.981   5.036
18046TIP3    H175629   1.827   1.976   5.104
18046TIP3    H275630   1.877   2.065   4.992
18047TIP3   OH275631   2.131   3.298   5.421
18047TIP3    H175632   2.041   3.327   5.437
18047TIP3    H275633   2.185   3.356   5.475
18048TIP3   OH275634   2.451   3.468   5.066
18048TIP3    H175635   2.422   3.559   5.055
18048TIP3    H275636   2.547   3.474   5.061
18049TIP3   OH275637   2.861   3.541   5.430
18049TIP3    H175638   2.790   3.593   5.467
18049TIP3    H275639   2.933   3.603   5.418
18050TIP3   OH275640   3.066   3.728   5.385
18050TIP3    H175641   3.133   3.666   5.357
18050TIP3    H275642   3.100   3.764   5.467
18051TIP3   OH275643   3.585   1.957   5.231
18051TIP3    H175644   3.512   1.982   5.175
18051TIP3    H275645   3.601   1.865   5.210
18052TIP3   OH275646   2.152   3.791   5.130
18052TIP3    H175647   2.066   3.815   5.096
18052TIP3    H275648   2.156   3.829   5.217
18053TIP3   OH275649   2.408   3.740   5.047
18053TIP3    H175650   2.319   3.754   5.079
18053TIP3    H275651   2.412   3.790   4.965
18054TIP3   OH275652   2.860   3.737   4.966
18054TIP3    H175653   2.803   3.778   4.900
18054TIP3    H275654   2.866   3.802   5.036
18055TIP3   OH275655   3.083   3.593   5.037
18055TIP3    H175656   3.006   3.643   5.010
18055TIP3    H275657   3.155   3.656   5.032
18056TIP3   OH275658   3.321   3.736   5.034
18056TIP3    H175659   3.348   3.827   5.027
18056TIP3    H275660   3.364   3.692   4.961
18057TIP3   OH275661   2.140   3.615   4.774
18057TIP3    H175662   2.115   3.577   4.858
18057TIP3    H275663   2.219   3.567   4.748
18058TIP3   OH275664   2.357   3.467   4.678
18058TIP3    H175665   2.338   3.380   4.713
18058TIP3    H275666   2.437   3.494   4.723
18059TIP3   OH275667   2.609   3.531   4.785
18059TIP3    H175668   2.634   3.446   4.749
18059TIP3    H275669   2.639   3.528   4.876
18060TIP3   OH275670   2.908   2.097   4.686
18060TIP3    H175671   2.848   2.027   4.712
18060TIP3    H275672   2.981   2.051   4.645
18061TIP3   OH275673   3.416   1.953   4.673
18061TIP3    H175674   3.478   2.009   4.626
18061TIP3    H275675   3.332   1.999   4.665
18062TIP3   OH275676   3.604   2.050   4.497
18062TIP3    H175677   3.666   1.980   4.477
18062TIP3    H275678   3.660   2.126   4.516
18063TIP3   OH275679   2.146   1.958   4.432
18063TIP3    H175680   2.053   1.937   4.418
18063TIP3    H275681   2.190   1.873   4.425
18064TIP3   OH275682   2.028   1.965   4.006
18064TIP3    H175683   2.096   2.019   3.966
18064TIP3    H275684   1.992   2.019   4.076
18065TIP3   OH275685   2.641   1.922   4.465
18065TIP3    H175686   2.713   1.971   4.425
18065TIP3    H275687   2.659   1.926   4.559
18066TIP3   OH275688   3.131   1.967   4.587
18066TIP3    H175689   3.171   1.943   4.503
18066TIP3    H275690   3.115   1.883   4.631
18067TIP3   OH275691   3.305   2.000   4.186
18067TIP3    H175692   3.229   2.056   4.204
18067TIP3    H275693   3.274   1.911   4.200
18068TIP3   OH275694   2.032   3.589   4.138
18068TIP3    H175695   1.960   3.587   4.075
18068TIP3    H275696   2.031   3.679   4.172
18069TIP3   OH275697   2.241   2.115   3.877
18069TIP3    H175698   2.296   2.062   3.820
18069TIP3    H275699   2.302   2.152   3.941
18070TIP3   OH275700   2.702   2.197   4.132
18070TIP3    H175701   2.739   2.126   4.185
18070TIP3    H275702   2.719   2.276   4.184
18071TIP3   OH275703   2.906   3.667   3.973
18071TIP3    H175704   2.997   3.679   3.947
18071TIP3    H275705   2.899   3.575   3.998
18072TIP3   OH275706   3.577   3.649   4.249
18072TIP3    H175707   3.559   3.561   4.216
18072TIP3    H275708   3.569   3.706   4.173
18073TIP3   OH275709   2.195   2.045   5.412
18073TIP3    H175710   2.136   1.976   5.444
18073TIP3    H275711   2.279   2.001   5.399
18074TIP3   OH275712   2.213   3.630   3.891
18074TIP3    H175713   2.155   3.703   3.912
18074TIP3    H275714   2.215   3.577   3.971
18075TIP3   OH275715   3.237   1.912   5.569
18075TIP3    H175716   3.230   1.884   5.660
18075TIP3    H275717   3.329   1.901   5.548
18076TIP3   OH275718   3.485   3.509   5.453
18076TIP3    H175719   3.420   3.498   5.384
18076TIP3    H275720   3.477   3.601   5.478
18077TIP3   OH275721   4.967   2.921   4.417
18077TIP3    H175722   4.955   3.015   4.406
18077TIP3    H275723   4.897   2.881   4.365
18078TIP3   OH275724   4.815   2.834   4.803
18078TIP3    H175725   4.844   2.796   4.886
18078TIP3    H275726   4.775   2.761   4.756
18079TIP3   OH275727   4.059   2.763   4.943
18079TIP3    H175728   4.070   2.692   5.006
18079TIP3    H275729   4.149   2.785   4.917
18080TIP3   OH275730   5.228   3.149   4.647
18080TIP3    H175731   5.198   3.069   4.690
18080TIP3    H275732   5.248   3.209   4.719
18081TIP3   OH275733   4.209   3.227   4.726
18081TIP3    H175734   4.174   3.139   4.712
18081TIP3    H275735   4.299   3.213   4.754
18082TIP3   OH275736   3.844   2.569   4.276
18082TIP3    H175737   3.817   2.653   4.313
18082TIP3    H275738   3.778   2.550   4.209
18083TIP3   OH275739   3.910   2.819   4.588
18083TIP3    H175740   3.939   2.730   4.608
18083TIP3    H275741   3.988   2.873   4.599
18084TIP3   OH275742   4.970   3.597   4.699
18084TIP3    H175743   4.998   3.547   4.621
18084TIP3    H275744   4.962   3.531   4.767
18085TIP3   OH275745   4.691   3.081   4.842
18085TIP3    H175746   4.727   2.998   4.809
18085TIP3    H275747   4.762   3.118   4.895
18086TIP3   OH275748   5.576   2.210   4.923
18086TIP3    H175749   5.589   2.268   4.998
18086TIP3    H275750   5.628   2.250   4.853
18087TIP3   OH275751   4.983   2.503   4.832
18087TIP3    H175752   4.997   2.411   4.853
18087TIP3    H275753   4.975   2.506   4.737
18088TIP3   OH275754   4.340   2.302   4.566
18088TIP3    H175755   4.348   2.388   4.524
18088TIP3    H275756   4.285   2.252   4.505
18089TIP3   OH275757   5.127   2.335   4.417
18089TIP3    H175758   5.167   2.300   4.496
18089TIP3    H275759   5.200   2.373   4.368
18090TIP3   OH275760   3.982   2.558   4.653
18090TIP3    H175761   4.048   2.518   4.710
18090TIP3    H275762   4.001   2.524   4.566
18091TIP3   OH275763   4.458   2.705   4.625
18091TIP3    H175764   4.543   2.669   4.650
18091TIP3    H275765   4.420   2.640   4.567
18092TIP3   OH275766   5.605   2.349   5.159
18092TIP3    H175767   5.540   2.417   5.141
18092TIP3    H275768   5.575   2.307   5.239
18093TIP3   OH275769   4.208   2.229   4.993
18093TIP3    H175770   4.190   2.290   4.921
18093TIP3    H275771   4.134   2.240   5.053
18094TIP3   OH275772   4.932   3.177   4.315
18094TIP3    H175773   4.913   3.169   4.221
18094TIP3    H275774   4.885   3.255   4.343
18095TIP3   OH275775   4.467   2.994   4.983
18095TIP3    H175776   4.416   3.071   5.008
18095TIP3    H275777   4.544   3.030   4.939
18096TIP3   OH275778   5.217   2.270   4.670
18096TIP3    H175779   5.143   2.255   4.729
18096TIP3    H275780   5.272   2.333   4.716
18097TIP3   OH275781   4.181   2.395   4.773
18097TIP3    H175782   4.238   2.454   4.822
18097TIP3    H275783   4.237   2.357   4.705
18098TIP3   OH275784   4.313   3.214   5.062
18098TIP3    H175785   4.327   3.308   5.066
18098TIP3    H275786   4.220   3.202   5.080
18099TIP3   OH275787   3.886   3.181   4.168
18099TIP3    H175788   3.885   3.224   4.082
18099TIP3    H275789   3.911   3.250   4.229
18100TIP3   OH275790   5.250   3.354   4.845
18100TIP3    H175791   5.155   3.360   4.853
18100TIP3    H275792   5.278   3.443   4.823
18101TIP3   OH275793   5.318   2.122   4.997
18101TIP3    H175794   5.262   2.184   4.950
18101TIP3    H275795   5.407   2.143   4.968
18102TIP3   OH275796   4.555   1.911   4.744
18102TIP3    H175797   4.534   1.818   4.750
18102TIP3    H275798   4.475   1.955   4.773
18103TIP3   OH275799   5.077   3.497   4.460
18103TIP3    H175800   5.119   3.412   4.445
18103TIP3    H275801   5.150   3.559   4.464
18104TIP3   OH275802   5.189   3.258   4.398
18104TIP3    H175803   5.112   3.211   4.366
18104TIP3    H275804   5.213   3.213   4.479
18105TIP3   OH275805   5.379   3.138   5.193
18105TIP3    H175806   5.369   3.078   5.119
18105TIP3    H275807   5.395   3.224   5.153
18106TIP3   OH275808   4.814   2.822   4.204
18106TIP3    H175809   4.747   2.885   4.175
18106TIP3    H275810   4.883   2.830   4.138
18107TIP3   OH275811   4.854   2.714   3.853
18107TIP3    H175812   4.907   2.737   3.929
18107TIP3    H275813   4.909   2.654   3.802
18108TIP3   OH275814   5.518   2.771   5.014
18108TIP3    H175815   5.451   2.839   5.011
18108TIP3    H275816   5.590   2.805   4.962
18109TIP3   OH275817   5.189   2.853   4.271
18109TIP3    H175818   5.121   2.877   4.335
18109TIP3    H275819   5.253   2.805   4.323
18110TIP3   OH275820   5.090   2.636   5.220
18110TIP3    H175821   5.131   2.702   5.275
18110TIP3    H275822   5.041   2.685   5.154
18111TIP3   OH275823   4.337   2.901   4.460
18111TIP3    H175824   4.313   2.858   4.378
18111TIP3    H275825   4.390   2.835   4.507
18112TIP3   OH275826   4.494   3.257   4.736
18112TIP3    H175827   4.501   3.261   4.640
18112TIP3    H275828   4.566   3.200   4.763
18113TIP3   OH275829   4.319   2.811   4.841
18113TIP3    H175830   4.375   2.784   4.767
18113TIP3    H275831   4.373   2.874   4.889
18114TIP3   OH275832   4.981   3.378   4.894
18114TIP3    H175833   4.972   3.442   4.964
18114TIP3    H275834   4.952   3.295   4.932
18115TIP3   OH275835   4.464   3.190   5.295
18115TIP3    H175836   4.405   3.247   5.346
18115TIP3    H275837   4.421   3.181   5.210
18116TIP3   OH275838   5.047   2.783   4.047
18116TIP3    H175839   5.099   2.816   4.120
18116TIP3    H275840   5.100   2.802   3.969
18117TIP3   OH275841   4.110   2.819   5.332
18117TIP3    H175842   4.116   2.911   5.360
18117TIP3    H275843   4.030   2.816   5.279
18118TIP3   OH275844   4.825   3.427   4.373
18118TIP3    H175845   4.906   3.456   4.415
18118TIP3    H275846   4.792   3.505   4.329
18119TIP3   OH275847   4.252   3.349   5.360
18119TIP3    H175848   4.269   3.418   5.296
18119TIP3    H275849   4.178   3.382   5.412
18120TIP3   OH275850   5.408   1.922   4.039
18120TIP3    H175851   5.325   1.949   4.077
18120TIP3    H275852   5.446   2.002   4.003
18121TIP3   OH275853   4.247   2.806   4.208
18121TIP3    H175854   4.188   2.874   4.178
18121TIP3    H275855   4.198   2.724   4.197
18122TIP3   OH275856   5.565   3.386   3.895
18122TIP3    H175857   5.582   3.481   3.893
18122TIP3    H275858   5.651   3.346   3.885
18123TIP3   OH275859   3.832   3.069   5.155
18123TIP3    H175860   3.780   3.077   5.076
18123TIP3    H275861   3.844   2.975   5.167
18124TIP3   OH275862   3.805   3.362   4.837
18124TIP3    H175863   3.884   3.369   4.891
18124TIP3    H275864   3.754   3.440   4.859
18125TIP3   OH275865   5.620   3.400   5.389
18125TIP3    H175866   5.608   3.305   5.395
18125TIP3    H275867   5.538   3.437   5.419
18126TIP3   OH275868   4.694   3.355   5.264
18126TIP3    H175869   4.703   3.429   5.323
18126TIP3    H275870   4.615   3.310   5.293
18127TIP3   OH275871   4.796   3.687   4.242
18127TIP3    H175872   4.771   3.691   4.150
18127TIP3    H275873   4.765   3.769   4.279
18128TIP3   OH275874   4.140   3.585   4.440
18128TIP3    H175875   4.159   3.552   4.528
18128TIP3    H275876   4.085   3.517   4.400
18129TIP3   OH275877   5.082   3.657   3.927
18129TIP3    H175878   5.132   3.585   3.889
18129TIP3    H275879   5.091   3.647   4.021
18130TIP3   OH275880   5.065   3.638   4.202
18130TIP3    H175881   4.971   3.649   4.221
18130TIP3    H275882   5.096   3.580   4.271
18131TIP3   OH275883   5.357   2.492   5.368
18131TIP3    H175884   5.310   2.505   5.450
18131TIP3    H275885   5.342   2.401   5.345
18132TIP3   OH275886   4.053   3.232   5.161
18132TIP3    H175887   4.090   3.217   5.248
18132TIP3    H275888   3.976   3.176   5.158
18133TIP3   OH275889   4.308   2.023   4.831
18133TIP3    H175890   4.232   2.015   4.775
18133TIP3    H275891   4.291   2.100   4.885
18134TIP3   OH275892   4.805   1.987   5.183
18134TIP3    H175893   4.861   1.936   5.241
18134TIP3    H275894   4.716   1.976   5.218
18135TIP3   OH275895   5.061   2.366   5.233
18135TIP3    H175896   5.012   2.355   5.314
18135TIP3    H275897   5.077   2.461   5.227
18136TIP3   OH275898   5.191   2.817   3.820
18136TIP3    H175899   5.170   2.833   3.728
18136TIP3    H275900   5.282   2.845   3.828
18137TIP3   OH275901   4.717   2.244   3.887
18137TIP3    H175902   4.672   2.236   3.971
18137TIP3    H275903   4.694   2.164   3.840
18138TIP3   OH275904   4.333   2.553   4.940
18138TIP3    H175905   4.267   2.551   5.010
18138TIP3    H275906   4.335   2.644   4.911
18139TIP3   OH275907   4.321   2.547   4.442
18139TIP3    H175908   4.226   2.536   4.438
18139TIP3    H275909   4.350   2.534   4.352
18140TIP3   OH275910   4.864   2.573   4.307
18140TIP3    H175911   4.842   2.662   4.278
18140TIP3    H275912   4.936   2.546   4.250
18141TIP3   OH275913   4.827   2.601   5.419
18141TIP3    H175914   4.798   2.527   5.473
18141TIP3    H275915   4.918   2.614   5.444
18142TIP3   OH275916   4.962   2.509   4.561
18142TIP3    H175917   4.918   2.553   4.488
18142TIP3    H275918   5.013   2.439   4.520
18143TIP3   OH275919   4.117   2.547   5.109
18143TIP3    H175920   4.169   2.569   5.186
18143TIP3    H275921   4.071   2.467   5.134
18144TIP3   OH275922   4.402   2.253   3.785
18144TIP3    H175923   4.384   2.258   3.879
18144TIP3    H275924   4.360   2.330   3.748
18145TIP3   OH275925   3.785   2.248   4.524
18145TIP3    H175926   3.833   2.258   4.606
18145TIP3    H275927   3.849   2.271   4.456
18146TIP3   OH275928   3.804   2.341   4.009
18146TIP3    H175929   3.871   2.384   3.956
18146TIP3    H275930   3.746   2.413   4.037
18147TIP3   OH275931   4.887   2.678   5.018
18147TIP3    H175932   4.933   2.622   4.956
18147TIP3    H275933   4.840   2.618   5.076
18148TIP3   OH275934   4.623   2.259   4.516
18148TIP3    H175935   4.534   2.264   4.553
18148TIP3    H275936   4.676   2.222   4.587
18149TIP3   OH275937   4.060   2.459   4.410
18149TIP3    H175938   3.989   2.487   4.351
18149TIP3    H275939   4.083   2.371   4.379
18150TIP3   OH275940   4.388   2.478   4.185
18150TIP3    H175941   4.481   2.469   4.206
18150TIP3    H275942   4.386   2.515   4.097
18151TIP3   OH275943   4.997   2.225   4.834
18151TIP3    H175944   4.959   2.222   4.922
18151TIP3    H275945   4.933   2.180   4.778
18152TIP3   OH275946   4.371   2.554   3.923
18152TIP3    H175947   4.317   2.535   3.846
18152TIP3    H275948   4.444   2.605   3.890
18153TIP3   OH275949   4.114   3.096   5.426
18153TIP3    H175950   4.207   3.110   5.446
18153TIP3    H275951   4.070   3.174   5.459
18154TIP3   OH275952   4.692   2.585   4.716
18154TIP3    H175953   4.770   2.542   4.680
18154TIP3    H275954   4.667   2.530   4.791
18155TIP3   OH275955   4.163   2.197   4.369
18155TIP3    H175956   4.115   2.118   4.395
18155TIP3    H275957   4.207   2.172   4.288
18156TIP3   OH275958   4.590   2.447   4.943
18156TIP3    H175959   4.506   2.492   4.952
18156TIP3    H275960   4.639   2.471   5.021
18157TIP3   OH275961   4.622   3.007   4.125
18157TIP3    H175962   4.551   2.975   4.070
18157TIP3    H275963   4.578   3.042   4.203
18158TIP3   OH275964   5.343   2.983   4.966
18158TIP3    H175965   5.408   3.032   4.916
18158TIP3    H275966   5.275   2.962   4.902
18159TIP3   OH275967   4.976   2.285   3.997
18159TIP3    H175968   4.889   2.295   3.958
18159TIP3    H275969   4.999   2.372   4.027
18160TIP3   OH275970   4.784   3.090   5.244
18160TIP3    H175971   4.773   3.054   5.332
18160TIP3    H275972   4.748   3.178   5.249
18161TIP3   OH275973   5.072   2.513   4.128
18161TIP3    H175974   5.159   2.494   4.163
18161TIP3    H275975   5.078   2.603   4.094
18162TIP3   OH275976   4.151   2.951   4.659
18162TIP3    H175977   4.211   2.946   4.584
18162TIP3    H275978   4.196   2.903   4.729
18163TIP3   OH275979   4.831   3.164   4.051
18163TIP3    H175980   4.797   3.253   4.055
18163TIP3    H275981   4.757   3.109   4.074
18164TIP3   OH275982   3.844   2.799   5.226
18164TIP3    H175983   3.805   2.754   5.300
18164TIP3    H275984   3.786   2.779   5.152
18165TIP3   OH275985   4.611   2.777   5.440
18165TIP3    H175986   4.582   2.786   5.349
18165TIP3    H275987   4.694   2.729   5.434
18166TIP3   OH275988   4.991   3.344   5.267
18166TIP3    H175989   4.897   3.346   5.248
18166TIP3    H275990   4.996   3.335   5.362
18167TIP3   OH275991   5.526   2.555   4.071
18167TIP3    H175992   5.484   2.536   3.987
18167TIP3    H275993   5.552   2.647   4.064
18168TIP3   OH275994   5.588   3.111   5.368
18168TIP3    H175995   5.503   3.122   5.325
18168TIP3    H275996   5.650   3.099   5.297
18169TIP3   OH275997   5.408   3.404   4.143
18169TIP3    H175998   5.358   3.332   4.182
18169TIP3    H275999   5.443   3.368   4.062
18170TIP3   OH276000   5.142   2.912   4.776
18170TIP3    H176001   5.047   2.906   4.773
18170TIP3    H276002   5.172   2.830   4.735
18171TIP3   OH276003   4.416   3.334   4.471
18171TIP3    H176004   4.433   3.419   4.431
18171TIP3    H276005   4.324   3.338   4.499
18172TIP3   OH276006   3.976   2.779   3.940
18172TIP3    H176007   4.019   2.848   3.989
18172TIP3    H276008   3.883   2.787   3.963
18173TIP3   OH276009   4.471   3.108   4.325
18173TIP3    H176010   4.464   3.188   4.377
18173TIP3    H276011   4.425   3.042   4.378
18174TIP3   OH276012   4.601   3.508   5.050
18174TIP3    H176013   4.662   3.581   5.039
18174TIP3    H276014   4.645   3.449   5.110
18175TIP3   OH276015   4.404   3.593   4.361
18175TIP3    H176016   4.311   3.606   4.380
18175TIP3    H276017   4.446   3.671   4.397
18176TIP3   OH276018   4.915   3.127   5.009
18176TIP3    H176019   4.870   3.109   5.091
18176TIP3    H276020   4.995   3.076   5.014
18177TIP3   OH276021   5.194   3.214   3.920
18177TIP3    H176022   5.218   3.162   3.996
18177TIP3    H276023   5.108   3.180   3.894
18178TIP3   OH276024   5.185   3.543   5.249
18178TIP3    H176025   5.114   3.479   5.239
18178TIP3    H276026   5.174   3.603   5.176
18179TIP3   OH276027   5.618   3.665   3.921
18179TIP3    H176028   5.685   3.726   3.950
18179TIP3    H276029   5.537   3.698   3.958
18180TIP3   OH276030   3.988   2.300   5.153
18180TIP3    H176031   3.899   2.328   5.131
18180TIP3    H276032   3.978   2.247   5.232
18181TIP3   OH276033   5.298   3.063   4.122
18181TIP3    H176034   5.252   3.000   4.177
18181TIP3    H276035   5.391   3.051   4.144
18182TIP3   OH276036   3.999   3.472   5.025
18182TIP3    H176037   4.024   3.391   5.070
18182TIP3    H276038   4.000   3.539   5.094
18183TIP3   OH276039   4.558   3.300   3.785
18183TIP3    H176040   4.561   3.217   3.738
18183TIP3    H276041   4.519   3.279   3.869
18184TIP3   OH276042   4.426   3.277   4.032
18184TIP3    H176043   4.455   3.229   4.110
18184TIP3    H276044   4.438   3.369   4.054
18185TIP3   OH276045   4.075   2.990   4.091
18185TIP3    H176046   4.007   3.040   4.136
18185TIP3    H276047   4.122   3.055   4.038
18186TIP3   OH276048   4.879   2.234   5.082
18186TIP3    H176049   4.950   2.266   5.137
18186TIP3    H276050   4.855   2.150   5.121
18187TIP3   OH276051   4.976   2.170   4.250
18187TIP3    H176052   4.978   2.212   4.164
18187TIP3    H276053   5.021   2.231   4.308
18188TIP3   OH276054   4.726   3.413   4.062
18188TIP3    H176055   4.639   3.445   4.086
18188TIP3    H276056   4.774   3.492   4.035
18189TIP3   OH276057   4.639   2.417   4.290
18189TIP3    H176058   4.715   2.474   4.295
18189TIP3    H276059   4.635   2.373   4.375
18190TIP3   OH276060   4.751   2.489   5.167
18190TIP3    H176061   4.778   2.518   5.254
18190TIP3    H276062   4.793   2.404   5.156
18191TIP3   OH276063   4.735   2.068   4.338
18191TIP3    H176064   4.708   2.135   4.402
18191TIP3    H276065   4.824   2.093   4.313
18192TIP3   OH276066   4.483   3.536   4.105
18192TIP3    H176067   4.489   3.622   4.061
18192TIP3    H276068   4.454   3.557   4.194
18193TIP3   OH276069   4.326   2.235   4.058
18193TIP3    H176070   4.323   2.320   4.101
18193TIP3    H276071   4.412   2.200   4.082
18194TIP3   OH276072   5.301   2.243   5.255
18194TIP3    H176073   5.213   2.278   5.244
18194TIP3    H276074   5.317   2.192   5.175
18195TIP3   OH276075   5.209   2.656   4.662
18195TIP3    H176076   5.124   2.615   4.648
18195TIP3    H276077   5.254   2.597   4.722
18196TIP3   OH276078   4.181   3.193   3.931
18196TIP3    H176079   4.254   3.239   3.971
18196TIP3    H276080   4.220   3.140   3.861
18197TIP3   OH276081   3.955   2.513   3.857
18197TIP3    H176082   3.980   2.594   3.902
18197TIP3    H276083   3.930   2.542   3.769
18198TIP3   OH276084   5.341   3.618   4.831
18198TIP3    H176085   5.329   3.689   4.768
18198TIP3    H276086   5.435   3.617   4.849
18199TIP3   OH276087   4.058   1.996   4.712
18199TIP3    H176088   4.050   1.987   4.617
18199TIP3    H276089   4.028   1.912   4.747
18200TIP3   OH276090   3.948   3.404   4.333
18200TIP3    H176091   3.898   3.430   4.410
18200TIP3    H276092   3.927   3.469   4.266
18201TIP3   OH276093   3.920   3.711   5.546
18201TIP3    H176094   3.993   3.703   5.608
18201TIP3    H276095   3.845   3.674   5.591
18202TIP3   OH276096   4.447   3.606   5.605
18202TIP3    H176097   4.420   3.617   5.696
18202TIP3    H276098   4.457   3.511   5.594
18203TIP3   OH276099   4.759   3.486   3.754
18203TIP3    H176100   4.693   3.420   3.773
18203TIP3    H276101   4.836   3.437   3.725
18204TIP3   OH276102   5.010   3.312   5.537
18204TIP3    H176103   4.943   3.272   5.593
18204TIP3    H276104   5.093   3.290   5.580
18205TIP3   OH276105   5.214   3.456   3.796
18205TIP3    H176106   5.217   3.376   3.848
18205TIP3    H276107   5.290   3.449   3.738
18206TIP3   OH276108   4.317   3.018   3.769
18206TIP3    H176109   4.343   2.970   3.848
18206TIP3    H276110   4.399   3.035   3.723
18207TIP3   OH276111   4.626   3.064   5.478
18207TIP3    H176112   4.560   3.084   5.411
18207TIP3    H276113   4.618   2.969   5.491
18208TIP3   OH276114   4.947   3.147   3.803
18208TIP3    H176115   4.899   3.145   3.886
18208TIP3    H276116   4.918   3.069   3.756
18209TIP3   OH276117   5.118   3.080   5.255
18209TIP3    H176118   5.207   3.111   5.242
18209TIP3    H276119   5.065   3.160   5.259
18210TIP3   OH276120   3.993   2.672   5.546
18210TIP3    H176121   4.045   2.700   5.471
18210TIP3    H276122   3.976   2.752   5.595
18211TIP3   OH276123   4.413   2.885   3.991
18211TIP3    H176124   4.367   2.844   4.064
18211TIP3    H276125   4.463   2.814   3.952
18212TIP3   OH276126   4.331   2.648   5.259
18212TIP3    H176127   4.273   2.715   5.296
18212TIP3    H276128   4.406   2.697   5.226
18213TIP3   OH276129   4.575   2.716   3.840
18213TIP3    H176130   4.570   2.747   3.750
18213TIP3    H276131   4.669   2.710   3.859
18214TIP3   OH276132   4.882   2.935   5.660
18214TIP3    H176133   4.974   2.909   5.651
18214TIP3    H276134   4.838   2.856   5.692
18215TIP3   OH276135   5.450   2.914   3.785
18215TIP3    H176136   5.454   2.892   3.692
18215TIP3    H276137   5.448   3.010   3.787
18216TIP3   OH276138   4.445   2.405   5.351
18216TIP3    H176139   4.460   2.344   5.279
18216TIP3    H276140   4.426   2.488   5.308
18217TIP3   OH276141   4.459   2.249   5.112
18217TIP3    H176142   4.516   2.292   5.047
18217TIP3    H276143   4.373   2.246   5.070
18218TIP3   OH276144   4.551   2.793   5.163
18218TIP3    H176145   4.641   2.779   5.136
18218TIP3    H276146   4.522   2.867   5.110
18219TIP3   OH276147   5.055   2.564   5.639
18219TIP3    H176148   5.130   2.513   5.670
18219TIP3    H276149   5.086   2.655   5.640
18220TIP3   OH276150   5.193   2.841   5.370
18220TIP3    H176151   5.163   2.923   5.332
18220TIP3    H276152   5.288   2.853   5.381
18221TIP3   OH276153   4.246   2.457   5.538
18221TIP3    H176154   4.166   2.420   5.502
18221TIP3    H276155   4.308   2.459   5.465
18222TIP3   OH276156   4.514   1.981   5.177
18222TIP3    H176157   4.501   2.074   5.156
18222TIP3    H276158   4.443   1.936   5.132
18223TIP3   OH276159   4.663   2.408   5.547
18223TIP3    H176160   4.629   2.480   5.600
18223TIP3    H276161   4.594   2.391   5.483
18224TIP3   OH276162   4.905   2.308   5.446
18224TIP3    H176163   4.820   2.323   5.486
18224TIP3    H276164   4.956   2.263   5.514
18225TIP3   OH276165   5.027   2.156   5.645
18225TIP3    H176166   5.056   2.072   5.607
18225TIP3    H276167   5.054   2.151   5.736
18226TIP3   OH276168   4.026   2.289   5.483
18226TIP3    H176169   4.021   2.197   5.458
18226TIP3    H276170   4.008   2.289   5.577
18227TIP3   OH276171   4.497   1.896   5.435
18227TIP3    H176172   4.561   1.825   5.441
18227TIP3    H276173   4.498   1.922   5.343
18228TIP3   OH276174   4.587   2.113   5.573
18228TIP3    H176175   4.552   2.039   5.524
18228TIP3    H276176   4.511   2.169   5.590
18229TIP3   OH276177   4.561   3.780   3.989
18229TIP3    H176178   4.648   3.744   3.973
18229TIP3    H276179   4.546   3.840   3.916
18230TIP3   OH276180   3.914   3.243   3.878
18230TIP3    H176181   4.008   3.240   3.898
18230TIP3    H276182   3.900   3.171   3.817
18231TIP3   OH276183   3.790   3.712   4.417
18231TIP3    H176184   3.730   3.683   4.348
18231TIP3    H276185   3.804   3.635   4.472
18232TIP3   OH276186   3.854   3.502   4.587
18232TIP3    H176187   3.822   3.430   4.640
18232TIP3    H276188   3.898   3.560   4.650
18233TIP3   OH276189   5.604   3.639   4.899
18233TIP3    H176190   5.610   3.625   4.994
18233TIP3    H276191   5.694   3.660   4.872
18234TIP3   OH276192   5.575   3.571   5.173
18234TIP3    H176193   5.512   3.511   5.135
18234TIP3    H276194   5.613   3.523   5.246
18235TIP3   OH276195   5.411   3.211   5.705
18235TIP3    H176196   5.393   3.198   5.798
18235TIP3    H276197   5.506   3.226   5.701
18236TIP3   OH276198   5.561   3.005   4.195
18236TIP3    H176199   5.634   3.067   4.199
18236TIP3    H276200   5.578   2.944   4.267
18237TIP3   OH276201   5.610   2.805   4.383
18237TIP3    H176202   5.526   2.773   4.414
18237TIP3    H276203   5.662   2.817   4.463
18238TIP3   OH276204   5.579   3.101   4.883
18238TIP3    H176205   5.633   3.027   4.855
18238TIP3    H276206   5.623   3.178   4.850
18239TIP3   OH276207   5.379   3.394   5.090
18239TIP3    H176208   5.306   3.434   5.138
18239TIP3    H276209   5.343   3.376   5.003
18240TIP3   OH276210   5.591   2.813   4.000
18240TIP3    H176211   5.541   2.842   3.924
18240TIP3    H276212   5.576   2.881   4.066
18241TIP3   OH276213   5.425   2.519   3.820
18241TIP3    H176214   5.392   2.570   3.746
18241TIP3    H276215   5.405   2.428   3.797
18242TIP3   OH276216   5.354   2.689   4.426
18242TIP3    H176217   5.350   2.600   4.393
18242TIP3    H276218   5.311   2.684   4.512
18243TIP3   OH276219   3.830   2.869   4.845
18243TIP3    H176220   3.841   2.858   4.751
18243TIP3    H276221   3.913   2.841   4.883
18244TIP3   OH276222   5.464   2.864   5.429
18244TIP3    H176223   5.515   2.784   5.414
18244TIP3    H276224   5.522   2.935   5.401
18245TIP3   OH276225   5.595   2.626   5.377
18245TIP3    H176226   5.512   2.578   5.372
18245TIP3    H276227   5.651   2.570   5.431
18246TIP3   OH276228   5.349   2.270   3.742
18246TIP3    H176229   5.395   2.215   3.805
18246TIP3    H276230   5.259   2.237   3.741
18247TIP3   OH276231   5.332   2.443   4.247
18247TIP3    H176232   5.362   2.352   4.252
18247TIP3    H276233   5.397   2.487   4.193
18248TIP3   OH276234   5.354   2.466   4.816
18248TIP3    H176235   5.446   2.476   4.792
18248TIP3    H276236   5.351   2.483   4.910
18249TIP3   OH276237   5.403   2.531   5.084
18249TIP3    H176238   5.360   2.542   5.169
18249TIP3    H276239   5.443   2.617   5.067
18250TIP3   OH276240   3.790   2.402   5.402
18250TIP3    H176241   3.881   2.387   5.429
18250TIP3    H276242   3.744   2.322   5.426
18251TIP3   OH276243   5.398   2.173   4.268
18251TIP3    H176244   5.422   2.134   4.352
18251TIP3    H276245   5.331   2.115   4.233
18252TIP3   OH276246   3.937   2.243   4.756
18252TIP3    H176247   3.976   2.156   4.750
18252TIP3    H276248   4.011   2.302   4.767
18253TIP3   OH276249   3.743   2.531   4.803
18253TIP3    H176250   3.816   2.530   4.741
18253TIP3    H276251   3.769   2.596   4.869
18254TIP3   OH276252   5.569   2.212   5.396
18254TIP3    H176253   5.496   2.220   5.459
18254TIP3    H276254   5.570   2.119   5.373
18255TIP3   OH276255   5.520   2.140   3.916
18255TIP3    H176256   5.569   2.087   3.853
18255TIP3    H276257   5.584   2.203   3.950
18256TIP3   OH276258   3.798   2.137   4.193
18256TIP3    H176259   3.708   2.141   4.224
18256TIP3    H276260   3.809   2.216   4.139
18257TIP3   OH276261   5.268   3.685   4.438
18257TIP3    H176262   5.345   3.675   4.383
18257TIP3    H276263   5.301   3.728   4.517
18258TIP3   OH276264   3.801   2.003   5.058
18258TIP3    H176265   3.729   1.994   5.120
18258TIP3    H276266   3.773   2.075   5.000
18259TIP3   OH276267   4.003   3.359   5.500
18259TIP3    H176268   3.920   3.390   5.465
18259TIP3    H276269   4.020   3.415   5.576
18260TIP3   OH276270   4.337   3.492   5.126
18260TIP3    H176271   4.309   3.583   5.114
18260TIP3    H276272   4.431   3.494   5.108
18261TIP3   OH276273   4.746   3.577   5.419
18261TIP3    H176274   4.746   3.544   5.509
18261TIP3    H276275   4.831   3.619   5.408
18262TIP3   OH276276   4.995   3.706   5.396
18262TIP3    H176277   5.062   3.651   5.354
18262TIP3    H276278   5.021   3.709   5.488
18263TIP3   OH276279   5.509   1.945   5.252
18263TIP3    H176280   5.414   1.955   5.256
18263TIP3    H276281   5.522   1.850   5.243
18264TIP3   OH276282   4.036   3.773   5.139
18264TIP3    H176283   3.953   3.805   5.103
18264TIP3    H276284   4.041   3.812   5.226
18265TIP3   OH276285   4.274   3.756   5.009
18265TIP3    H176286   4.193   3.770   5.057
18265TIP3    H276287   4.251   3.695   4.939
18266TIP3   OH276288   4.740   3.742   4.987
18266TIP3    H176289   4.692   3.771   4.908
18266TIP3    H276290   4.708   3.800   5.056
18267TIP3   OH276291   4.975   3.608   5.043
18267TIP3    H176292   4.896   3.658   5.022
18267TIP3    H276293   5.047   3.671   5.031
18268TIP3   OH276294   5.219   3.745   5.044
18268TIP3    H176295   5.253   3.834   5.036
18268TIP3    H276296   5.262   3.696   4.974
18269TIP3   OH276297   4.012   3.629   4.796
18269TIP3    H176298   3.994   3.582   4.877
18269TIP3    H276299   4.085   3.581   4.756
18270TIP3   OH276300   4.221   3.494   4.688
18270TIP3    H176301   4.207   3.401   4.705
18270TIP3    H276302   4.309   3.512   4.723
18271TIP3   OH276303   4.475   3.529   4.804
18271TIP3    H176304   4.489   3.440   4.770
18271TIP3    H276305   4.514   3.527   4.891
18272TIP3   OH276306   4.777   2.096   4.679
18272TIP3    H176307   4.717   2.026   4.706
18272TIP3    H276308   4.851   2.050   4.639
18273TIP3   OH276309   5.303   1.947   4.658
18273TIP3    H176310   5.374   1.991   4.611
18273TIP3    H276311   5.247   2.019   4.689
18274TIP3   OH276312   5.494   2.049   4.494
18274TIP3    H176313   5.557   1.979   4.475
18274TIP3    H276314   5.548   2.126   4.513
18275TIP3   OH276315   4.033   1.960   4.438
18275TIP3    H176316   3.941   1.941   4.420
18275TIP3    H276317   4.078   1.876   4.425
18276TIP3   OH276318   3.939   1.964   4.026
18276TIP3    H176319   3.996   2.025   3.979
18276TIP3    H276320   3.893   2.019   4.089
18277TIP3   OH276321   4.525   1.920   4.460
18277TIP3    H176322   4.597   1.968   4.419
18277TIP3    H276323   4.543   1.925   4.554
18278TIP3   OH276324   4.994   1.962   4.584
18278TIP3    H176325   5.070   1.950   4.528
18278TIP3    H276326   4.984   1.878   4.629
18279TIP3   OH276327   5.189   2.004   4.184
18279TIP3    H176328   5.114   2.060   4.204
18279TIP3    H276329   5.157   1.915   4.198
18280TIP3   OH276330   3.899   3.582   4.134
18280TIP3    H176331   3.824   3.573   4.074
18280TIP3    H276332   3.934   3.669   4.114
18281TIP3   OH276333   4.132   2.125   3.885
18281TIP3    H176334   4.199   2.069   3.846
18281TIP3    H276335   4.179   2.174   3.953
18282TIP3   OH276336   4.593   2.199   4.130
18282TIP3    H176337   4.630   2.129   4.184
18282TIP3    H276338   4.609   2.279   4.180
18283TIP3   OH276339   4.807   3.664   3.954
18283TIP3    H176340   4.902   3.677   3.946
18283TIP3    H276341   4.784   3.611   3.878
18284TIP3   OH276342   5.472   3.646   4.250
18284TIP3    H176343   5.451   3.557   4.222
18284TIP3    H276344   5.451   3.701   4.175
18285TIP3   OH276345   4.010   2.029   5.390
18285TIP3    H176346   3.971   1.950   5.428
18285TIP3    H276347   4.041   2.001   5.304
18286TIP3   OH276348   4.121   3.640   3.798
18286TIP3    H176349   4.089   3.631   3.888
18286TIP3    H276350   4.194   3.579   3.792
18287TIP3   OH276351   5.113   1.910   5.564
18287TIP3    H176352   5.110   1.854   5.641
18287TIP3    H276353   5.206   1.913   5.539
18288TIP3   OH276354   5.384   3.529   5.450
18288TIP3    H176355   5.317   3.531   5.381
18288TIP3    H276356   5.335   3.545   5.531
18289TIP3   OH276357   6.858   2.928   4.407
18289TIP3    H176358   6.840   3.022   4.400
18289TIP3    H276359   6.786   2.887   4.359
18290TIP3   OH276360   6.714   2.835   4.810
18290TIP3    H176361   6.741   2.795   4.893
18290TIP3    H276362   6.664   2.766   4.766
18291TIP3   OH276363   5.937   2.755   4.986
18291TIP3    H176364   5.939   2.675   5.037
18291TIP3    H276365   5.997   2.814   5.031
18292TIP3   OH276366   7.101   3.148   4.645
18292TIP3    H176367   7.068   3.070   4.690
18292TIP3    H276368   7.122   3.209   4.715
18293TIP3   OH276369   6.076   3.224   4.740
18293TIP3    H176370   6.050   3.135   4.718
18293TIP3    H276371   6.168   3.217   4.765
18294TIP3   OH276372   5.734   2.574   4.275
18294TIP3    H176373   5.704   2.656   4.314
18294TIP3    H276374   5.666   2.551   4.212
18295TIP3   OH276375   5.798   2.819   4.594
18295TIP3    H176376   5.825   2.730   4.613
18295TIP3    H276377   5.877   2.872   4.605
18296TIP3   OH276378   6.841   3.579   4.700
18296TIP3    H176379   6.866   3.523   4.626
18296TIP3    H276380   6.829   3.519   4.773
18297TIP3   OH276381   6.574   3.083   4.829
18297TIP3    H176382   6.611   3.000   4.800
18297TIP3    H276383   6.640   3.119   4.889
18298TIP3   OH276384   6.902   2.496   4.821
18298TIP3    H176385   6.906   2.403   4.844
18298TIP3    H276386   6.862   2.498   4.735
18299TIP3   OH276387   6.233   2.301   4.566
18299TIP3    H176388   6.236   2.387   4.526
18299TIP3    H276389   6.173   2.250   4.511
18300TIP3   OH276390   6.971   2.337   4.408
18300TIP3    H176391   7.012   2.297   4.484
18300TIP3    H276392   7.043   2.376   4.359
18301TIP3   OH276393   5.869   2.560   4.658
18301TIP3    H176394   5.935   2.520   4.715
18301TIP3    H276395   5.888   2.525   4.571
18302TIP3   OH276396   6.357   2.712   4.604
18302TIP3    H176397   6.438   2.673   4.638
18302TIP3    H276398   6.317   2.642   4.553
18303TIP3   OH276399   6.091   2.226   4.999
18303TIP3    H176400   6.067   2.288   4.930
18303TIP3    H276401   6.020   2.233   5.063
18304TIP3   OH276402   6.818   3.185   4.310
18304TIP3    H176403   6.797   3.176   4.217
18304TIP3    H276404   6.765   3.260   4.339
18305TIP3   OH276405   6.349   2.998   4.968
18305TIP3    H176406   6.300   3.069   5.011
18305TIP3    H276407   6.423   3.043   4.926
18306TIP3   OH276408   7.077   2.228   4.633
18306TIP3    H176409   7.004   2.212   4.693
18306TIP3    H276410   7.140   2.277   4.684
18307TIP3   OH276411   6.068   2.393   4.776
18307TIP3    H176412   6.119   2.454   4.829
18307TIP3    H276413   6.130   2.357   4.713
18308TIP3   OH276414   6.204   3.204   5.088
18308TIP3    H176415   6.212   3.300   5.086
18308TIP3    H276416   6.112   3.188   5.110
18309TIP3   OH276417   5.778   3.182   4.173
18309TIP3    H176418   5.772   3.233   4.092
18309TIP3    H276419   5.802   3.246   4.240
18310TIP3   OH276420   7.127   3.348   4.846
18310TIP3    H176421   7.032   3.355   4.858
18310TIP3    H276422   7.156   3.437   4.831
18311TIP3   OH276423   7.142   2.112   4.932
18311TIP3    H176424   7.049   2.132   4.919
18311TIP3    H276425   7.188   2.191   4.904
18312TIP3   OH276426   6.442   1.915   4.751
18312TIP3    H176427   6.420   1.822   4.754
18312TIP3    H276428   6.362   1.959   4.781
18313TIP3   OH276429   6.957   3.490   4.455
18313TIP3    H176430   6.997   3.404   4.441
18313TIP3    H276431   7.029   3.547   4.482
18314TIP3   OH276432   7.078   3.255   4.391
18314TIP3    H176433   6.999   3.211   4.360
18314TIP3    H276434   7.100   3.211   4.473
18315TIP3   OH276435   7.222   3.068   5.217
18315TIP3    H176436   7.215   3.023   5.132
18315TIP3    H276437   7.251   3.156   5.195
18316TIP3   OH276438   6.705   2.826   4.195
18316TIP3    H176439   6.636   2.887   4.167
18316TIP3    H276440   6.773   2.833   4.128
18317TIP3   OH276441   6.748   2.703   3.847
18317TIP3    H176442   6.802   2.727   3.923
18317TIP3    H276443   6.801   2.640   3.799
18318TIP3   OH276444   7.080   2.858   4.266
18318TIP3    H176445   7.010   2.887   4.325
18318TIP3    H276446   7.128   2.793   4.318
18319TIP3   OH276447   7.013   2.616   5.196
18319TIP3    H176448   7.023   2.680   5.267
18319TIP3    H276449   6.943   2.651   5.141
18320TIP3   OH276450   6.224   2.907   4.457
18320TIP3    H176451   6.198   2.862   4.376
18320TIP3    H276452   6.278   2.843   4.504
18321TIP3   OH276453   6.367   3.252   4.731
18321TIP3    H176454   6.376   3.257   4.636
18321TIP3    H276455   6.441   3.198   4.759
18322TIP3   OH276456   6.216   2.806   4.824
18322TIP3    H176457   6.276   2.781   4.754
18322TIP3    H276458   6.265   2.871   4.876
18323TIP3   OH276459   6.856   3.370   4.898
18323TIP3    H176460   6.848   3.433   4.969
18323TIP3    H276461   6.824   3.288   4.935
18324TIP3   OH276462   6.361   3.233   5.322
18324TIP3    H176463   6.295   3.289   5.363
18324TIP3    H276464   6.317   3.201   5.243
18325TIP3   OH276465   6.943   2.785   4.039
18325TIP3    H176466   6.991   2.816   4.115
18325TIP3    H276467   6.992   2.818   3.963
18326TIP3   OH276468   6.053   2.859   5.231
18326TIP3    H176469   6.060   2.932   5.293
18326TIP3    H276470   5.962   2.830   5.238
18327TIP3   OH276471   6.700   3.429   4.371
18327TIP3    H176472   6.781   3.456   4.414
18327TIP3    H276473   6.666   3.509   4.332
18328TIP3   OH276474   6.156   3.408   5.393
18328TIP3    H176475   6.163   3.441   5.304
18328TIP3    H276476   6.062   3.413   5.414
18329TIP3   OH276477   7.253   2.016   3.917
18329TIP3    H176478   7.195   2.004   3.992
18329TIP3    H276479   7.340   1.995   3.952
18330TIP3   OH276480   6.135   2.807   4.206
18330TIP3    H176481   6.071   2.871   4.174
18330TIP3    H276482   6.088   2.723   4.202
18331TIP3   OH276483   5.726   3.052   5.138
18331TIP3    H176484   5.673   3.047   5.058
18331TIP3    H276485   5.742   2.961   5.162
18332TIP3   OH276486   5.758   3.311   4.808
18332TIP3    H176487   5.846   3.277   4.791
18332TIP3    H276488   5.768   3.363   4.888
18333TIP3   OH276489   6.592   3.373   5.262
18333TIP3    H176490   6.586   3.453   5.314
18333TIP3    H276491   6.513   3.324   5.285
18334TIP3   OH276492   6.676   3.690   4.244
18334TIP3    H176493   6.651   3.697   4.152
18334TIP3    H276494   6.644   3.771   4.283
18335TIP3   OH276495   6.023   3.586   4.443
18335TIP3    H176496   6.045   3.556   4.531
18335TIP3    H276497   5.971   3.516   4.405
18336TIP3   OH276498   6.960   3.653   3.932
18336TIP3    H176499   7.009   3.583   3.890
18336TIP3    H276500   6.973   3.639   4.026
18337TIP3   OH276501   6.943   3.631   4.211
18337TIP3    H176502   6.849   3.649   4.222
18337TIP3    H276503   6.963   3.570   4.282
18338TIP3   OH276504   7.320   2.574   5.379
18338TIP3    H176505   7.294   2.575   5.471
18338TIP3    H276506   7.306   2.483   5.350
18339TIP3   OH276507   5.941   3.217   5.182
18339TIP3    H176508   5.969   3.188   5.268
18339TIP3    H276509   5.865   3.162   5.161
18340TIP3   OH276510   6.197   2.023   4.838
18340TIP3    H176511   6.121   2.014   4.781
18340TIP3    H276512   6.175   2.097   4.895
18341TIP3   OH276513   6.686   2.003   5.201
18341TIP3    H176514   6.727   1.969   5.280
18341TIP3    H276515   6.592   1.996   5.218
18342TIP3   OH276516   7.002   2.345   5.278
18342TIP3    H176517   6.938   2.335   5.348
18342TIP3    H276518   7.000   2.438   5.256
18343TIP3   OH276519   7.078   2.874   3.817
18343TIP3    H176520   7.050   2.853   3.728
18343TIP3    H276521   7.139   2.947   3.806
18344TIP3   OH276522   6.626   2.231   3.903
18344TIP3    H176523   6.569   2.228   3.980
18344TIP3    H276524   6.591   2.164   3.844
18345TIP3   OH276525   6.199   2.559   4.951
18345TIP3    H176526   6.140   2.559   5.027
18345TIP3    H276527   6.195   2.649   4.918
18346TIP3   OH276528   6.210   2.542   4.439
18346TIP3    H176529   6.115   2.534   4.439
18346TIP3    H276530   6.236   2.525   4.348
18347TIP3   OH276531   6.742   2.578   4.305
18347TIP3    H176532   6.723   2.667   4.274
18347TIP3    H276533   6.816   2.550   4.251
18348TIP3   OH276534   6.666   2.610   5.417
18348TIP3    H176535   6.621   2.536   5.459
18348TIP3    H276536   6.746   2.621   5.468
18349TIP3   OH276537   6.802   2.495   4.567
18349TIP3    H176538   6.773   2.558   4.500
18349TIP3    H276539   6.856   2.432   4.520
18350TIP3   OH276540   5.998   2.532   5.150
18350TIP3    H176541   6.020   2.551   5.241
18350TIP3    H276542   5.954   2.447   5.154
18351TIP3   OH276543   6.319   2.279   3.796
18351TIP3    H176544   6.285   2.269   3.885
18351TIP3    H276545   6.260   2.344   3.756
18352TIP3   OH276546   5.671   2.250   4.516
18352TIP3    H176547   5.720   2.261   4.597
18352TIP3    H276548   5.737   2.252   4.447
18353TIP3   OH276549   5.692   2.338   4.013
18353TIP3    H176550   5.760   2.379   3.959
18353TIP3    H276551   5.635   2.410   4.039
18354TIP3   OH276552   6.802   2.668   5.015
18354TIP3    H176553   6.838   2.607   4.952
18354TIP3    H276554   6.738   2.616   5.064
18355TIP3   OH276555   6.512   2.254   4.522
18355TIP3    H176556   6.422   2.263   4.554
18355TIP3    H276557   6.562   2.222   4.598
18356TIP3   OH276558   5.948   2.463   4.412
18356TIP3    H176559   5.876   2.491   4.356
18356TIP3    H276560   5.966   2.373   4.385
18357TIP3   OH276561   6.271   2.471   4.180
18357TIP3    H176562   6.365   2.465   4.199
18357TIP3    H276563   6.267   2.512   4.094
18358TIP3   OH276564   6.882   2.210   4.838
18358TIP3    H176565   6.854   2.217   4.929
18358TIP3    H276566   6.805   2.176   4.792
18359TIP3   OH276567   6.248   2.563   3.923
18359TIP3    H176568   6.196   2.539   3.846
18359TIP3    H276569   6.325   2.608   3.887
18360TIP3   OH276570   7.227   3.859   5.470
18360TIP3    H176571   7.200   3.922   5.403
18360TIP3    H276572   7.296   3.904   5.519
18361TIP3   OH276573   6.012   3.077   5.420
18361TIP3    H176574   6.078   3.087   5.489
18361TIP3    H276575   5.929   3.068   5.466
18362TIP3   OH276576   6.578   2.593   4.723
18362TIP3    H176577   6.648   2.540   4.683
18362TIP3    H276578   6.548   2.540   4.797
18363TIP3   OH276579   6.046   2.198   4.374
18363TIP3    H176580   5.999   2.119   4.401
18363TIP3    H276581   6.084   2.175   4.289
18364TIP3   OH276582   6.465   2.463   4.950
18364TIP3    H176583   6.382   2.511   4.958
18364TIP3    H276584   6.517   2.493   5.024
18365TIP3   OH276585   6.514   3.011   4.115
18365TIP3    H176586   6.443   2.978   4.061
18365TIP3    H276587   6.471   3.045   4.194
18366TIP3   OH276588   7.221   2.948   4.971
18366TIP3    H176589   7.291   2.933   4.907
18366TIP3    H276590   7.140   2.943   4.919
18367TIP3   OH276591   6.880   2.288   3.984
18367TIP3    H176592   6.788   2.286   3.959
18367TIP3    H276593   6.892   2.374   4.024
18368TIP3   OH276594   6.653   3.063   5.251
18368TIP3    H176595   6.701   3.014   5.318
18368TIP3    H276596   6.620   3.140   5.297
18369TIP3   OH276597   6.954   2.515   4.127
18369TIP3    H176598   7.039   2.494   4.165
18369TIP3    H276599   6.964   2.605   4.095
18370TIP3   OH276600   6.039   2.951   4.663
18370TIP3    H176601   6.099   2.945   4.589
18370TIP3    H276602   6.080   2.898   4.732
18371TIP3   OH276603   6.729   3.166   4.042
18371TIP3    H176604   6.693   3.254   4.047
18371TIP3    H276605   6.656   3.108   4.064
18372TIP3   OH276606   5.772   2.809   5.263
18372TIP3    H176607   5.814   2.795   5.347
18372TIP3    H276608   5.702   2.744   5.260
18373TIP3   OH276609   6.465   2.809   5.424
18373TIP3    H176610   6.396   2.756   5.384
18373TIP3    H276611   6.542   2.752   5.427
18374TIP3   OH276612   6.875   3.333   5.250
18374TIP3    H176613   6.782   3.346   5.233
18374TIP3    H276614   6.884   3.351   5.344
18375TIP3   OH276615   7.259   3.414   4.130
18375TIP3    H176616   7.206   3.398   4.208
18375TIP3    H276617   7.264   3.328   4.087
18376TIP3   OH276618   7.005   2.915   4.785
18376TIP3    H176619   6.909   2.908   4.786
18376TIP3    H276620   7.034   2.837   4.738
18377TIP3   OH276621   6.301   3.332   4.466
18377TIP3    H176622   6.319   3.417   4.428
18377TIP3    H276623   6.212   3.339   4.501
18378TIP3   OH276624   5.855   2.777   3.929
18378TIP3    H176625   5.902   2.842   3.982
18378TIP3    H276626   5.764   2.784   3.958
18379TIP3   OH276627   6.360   3.109   4.316
18379TIP3    H176628   6.353   3.189   4.369
18379TIP3    H276629   6.315   3.042   4.368
18380TIP3   OH276630   6.489   3.505   5.038
18380TIP3    H176631   6.545   3.580   5.019
18380TIP3    H276632   6.539   3.453   5.101
18381TIP3   OH276633   6.286   3.590   4.356
18381TIP3    H176634   6.194   3.603   4.379
18381TIP3    H276635   6.331   3.667   4.392
18382TIP3   OH276636   6.778   3.125   5.015
18382TIP3    H176637   6.728   3.108   5.095
18382TIP3    H276638   6.858   3.075   5.025
18383TIP3   OH276639   7.048   3.219   3.947
18383TIP3    H176640   7.089   3.167   4.015
18383TIP3    H276641   6.954   3.202   3.956
18384TIP3   OH276642   7.100   3.507   5.224
18384TIP3    H176643   7.021   3.452   5.220
18384TIP3    H276644   7.084   3.577   5.161
18385TIP3   OH276645   5.877   2.277   5.175
18385TIP3    H176646   5.784   2.298   5.166
18385TIP3    H276647   5.878   2.199   5.230
18386TIP3   OH276648   7.195   3.070   4.121
18386TIP3    H176649   7.160   3.001   4.178
18386TIP3    H276650   7.281   3.090   4.158
18387TIP3   OH276651   5.869   3.454   5.033
18387TIP3    H176652   5.899   3.376   5.079
18387TIP3    H276653   5.869   3.522   5.101
18388TIP3   OH276654   6.432   3.303   3.779
18388TIP3    H176655   6.440   3.218   3.736
18388TIP3    H276656   6.394   3.283   3.864
18389TIP3   OH276657   6.308   3.272   4.031
18389TIP3    H176658   6.336   3.221   4.107
18389TIP3    H276659   6.323   3.363   4.057
18390TIP3   OH276660   5.958   2.985   4.085
18390TIP3    H176661   5.891   3.035   4.133
18390TIP3    H276662   6.005   3.051   4.034
18391TIP3   OH276663   6.817   2.226   5.100
18391TIP3    H176664   6.883   2.253   5.164
18391TIP3    H276665   6.773   2.151   5.141
18392TIP3   OH276666   6.859   2.158   4.230
18392TIP3    H176667   6.865   2.201   4.145
18392TIP3    H276668   6.891   2.224   4.292
18393TIP3   OH276669   6.614   3.410   4.058
18393TIP3    H176670   6.527   3.437   4.085
18393TIP3    H276671   6.659   3.491   4.034
18394TIP3   OH276672   6.524   2.413   4.293
18394TIP3    H176673   6.598   2.474   4.298
18394TIP3    H276674   6.520   2.373   4.380
18395TIP3   OH276675   6.643   2.498   5.163
18395TIP3    H176676   6.644   2.539   5.249
18395TIP3    H276677   6.675   2.409   5.178
18396TIP3   OH276678   6.620   2.070   4.342
18396TIP3    H176679   6.595   2.140   4.402
18396TIP3    H276680   6.704   2.098   4.307
18397TIP3   OH276681   6.367   3.530   4.102
18397TIP3    H176682   6.374   3.615   4.059
18397TIP3    H276683   6.339   3.551   4.191
18398TIP3   OH276684   6.212   2.228   4.050
18398TIP3    H176685   6.204   2.312   4.095
18398TIP3    H276686   6.297   2.194   4.078
18399TIP3   OH276687   7.281   2.320   5.243
18399TIP3    H176688   7.189   2.303   5.263
18399TIP3    H276689   7.278   2.379   5.167
18400TIP3   OH276690   7.096   2.658   4.690
18400TIP3    H176691   7.030   2.606   4.737
18400TIP3    H276692   7.177   2.644   4.738
18401TIP3   OH276693   6.066   3.191   3.927
18401TIP3    H176694   6.141   3.232   3.970
18401TIP3    H276695   6.104   3.136   3.858
18402TIP3   OH276696   5.835   2.509   3.853
18402TIP3    H176697   5.862   2.592   3.891
18402TIP3    H276698   5.783   2.533   3.776
18403TIP3   OH276699   7.235   3.606   4.831
18403TIP3    H176700   7.220   3.687   4.783
18403TIP3    H276701   7.330   3.598   4.835
18404TIP3   OH276702   5.953   1.997   4.709
18404TIP3    H176703   5.943   1.988   4.614
18404TIP3    H276704   5.921   1.914   4.744
18405TIP3   OH276705   5.832   3.405   4.339
18405TIP3    H176706   5.780   3.433   4.415
18405TIP3    H276707   5.813   3.471   4.272
18406TIP3   OH276708   6.183   3.573   5.633
18406TIP3    H176709   6.270   3.576   5.673
18406TIP3    H276710   6.190   3.504   5.567
18407TIP3   OH276711   6.634   3.490   3.751
18407TIP3    H176712   6.569   3.422   3.769
18407TIP3    H276713   6.711   3.442   3.720
18408TIP3   OH276714   6.899   3.378   5.516
18408TIP3    H176715   6.871   3.293   5.552
18408TIP3    H276716   6.974   3.403   5.569
18409TIP3   OH276717   7.085   3.452   3.793
18409TIP3    H176718   7.091   3.375   3.849
18409TIP3    H276719   7.165   3.450   3.741
18410TIP3   OH276720   5.784   3.062   5.579
18410TIP3    H176721   5.789   2.983   5.632
18410TIP3    H276722   5.704   3.051   5.528
18411TIP3   OH276723   6.196   3.016   3.762
18411TIP3    H176724   6.220   2.967   3.840
18411TIP3    H276725   6.280   3.032   3.717
18412TIP3   OH276726   6.410   3.059   5.533
18412TIP3    H176727   6.403   3.111   5.453
18412TIP3    H276728   6.439   2.973   5.503
18413TIP3   OH276729   6.786   3.159   3.771
18413TIP3    H176730   6.757   3.151   3.862
18413TIP3    H276731   6.769   3.073   3.732
18414TIP3   OH276732   6.959   3.060   5.286
18414TIP3    H176733   7.054   3.068   5.271
18414TIP3    H276734   6.925   3.148   5.274
18415TIP3   OH276735   5.902   2.742   5.488
18415TIP3    H176736   5.955   2.662   5.488
18415TIP3    H276737   5.892   2.763   5.581
18416TIP3   OH276738   6.299   2.888   3.987
18416TIP3    H176739   6.252   2.849   4.061
18416TIP3    H276740   6.348   2.815   3.949
18417TIP3   OH276741   6.269   2.674   5.258
18417TIP3    H176742   6.195   2.734   5.252
18417TIP3    H276743   6.331   2.704   5.192
18418TIP3   OH276744   6.464   2.715   3.839
18418TIP3    H176745   6.458   2.744   3.749
18418TIP3    H276746   6.557   2.704   3.856
18419TIP3   OH276747   6.776   2.897   5.586
18419TIP3    H176748   6.867   2.869   5.589
18419TIP3    H276749   6.729   2.829   5.635
18420TIP3   OH276750   6.313   2.415   5.350
18420TIP3    H176751   6.322   2.356   5.276
18420TIP3    H276752   6.306   2.502   5.310
18421TIP3   OH276753   6.343   2.255   5.110
18421TIP3    H176754   6.391   2.310   5.048
18421TIP3    H276755   6.255   2.249   5.074
18422TIP3   OH276756   6.458   2.777   5.091
18422TIP3    H176757   6.536   2.809   5.137
18422TIP3    H276758   6.421   2.854   5.048
18423TIP3   OH276759   6.894   2.607   5.581
18423TIP3    H176760   6.947   2.529   5.601
18423TIP3    H276761   6.957   2.670   5.547
18424TIP3   OH276762   7.033   2.809   5.397
18424TIP3    H176763   6.995   2.891   5.365
18424TIP3    H276764   7.120   2.834   5.428
18425TIP3   OH276765   6.049   2.505   5.442
18425TIP3    H176766   6.031   2.427   5.493
18425TIP3    H276767   6.144   2.505   5.430
18426TIP3   OH276768   6.401   1.989   5.176
18426TIP3    H176769   6.382   2.081   5.157
18426TIP3    H276770   6.328   1.941   5.137
18427TIP3   OH276771   6.551   2.380   5.505
18427TIP3    H176772   6.548   2.349   5.595
18427TIP3    H276773   6.459   2.380   5.477
18428TIP3   OH276774   6.808   2.285   5.464
18428TIP3    H176775   6.720   2.322   5.473
18428TIP3    H276776   6.807   2.208   5.520
18429TIP3   OH276777   6.003   2.243   5.528
18429TIP3    H176778   5.966   2.185   5.461
18429TIP3    H276779   6.090   2.206   5.546
18430TIP3   OH276780   6.394   1.891   5.432
18430TIP3    H176781   6.464   1.825   5.426
18430TIP3    H276782   6.389   1.929   5.344
18431TIP3   OH276783   6.450   2.043   5.658
18431TIP3    H176784   6.434   1.997   5.576
18431TIP3    H276785   6.394   2.120   5.653
18432TIP3   OH276786   6.435   3.769   3.977
18432TIP3    H176787   6.525   3.736   3.970
18432TIP3    H276788   6.428   3.837   3.910
18433TIP3   OH276789   5.808   3.258   3.863
18433TIP3    H176790   5.897   3.242   3.895
18433TIP3    H276791   5.787   3.182   3.809
18434TIP3   OH276792   5.661   3.726   4.433
18434TIP3    H176793   5.603   3.694   4.364
18434TIP3    H276794   5.677   3.650   4.489
18435TIP3   OH276795   5.731   3.507   4.590
18435TIP3    H176796   5.698   3.429   4.634
18435TIP3    H276797   5.777   3.556   4.657
18436TIP3   OH276798   7.269   3.263   5.703
18436TIP3    H176799   7.200   3.216   5.751
18436TIP3    H276800   7.336   3.197   5.687
18437TIP3   OH276801   7.258   3.311   5.091
18437TIP3    H176802   7.221   3.382   5.142
18437TIP3    H276803   7.213   3.316   5.006
18438TIP3   OH276804   7.304   2.495   3.826
18438TIP3    H176805   7.257   2.550   3.764
18438TIP3    H276806   7.276   2.405   3.804
18439TIP3   OH276807   7.188   2.655   4.421
18439TIP3    H176808   7.189   2.560   4.407
18439TIP3    H276809   7.156   2.665   4.511
18440TIP3   OH276810   5.724   2.869   4.856
18440TIP3    H176811   5.740   2.853   4.763
18440TIP3    H276812   5.801   2.834   4.900
18441TIP3   OH276813   7.299   2.867   5.505
18441TIP3    H176814   7.369   2.811   5.538
18441TIP3    H276815   7.331   2.897   5.420
18442TIP3   OH276816   7.227   2.239   3.748
18442TIP3    H176817   7.246   2.169   3.811
18442TIP3    H276818   7.134   2.232   3.731
18443TIP3   OH276819   7.194   2.413   4.255
18443TIP3    H176820   7.215   2.326   4.288
18443TIP3    H276821   7.272   2.441   4.208
18444TIP3   OH276822   7.239   2.343   4.821
18444TIP3    H176823   7.330   2.354   4.792
18444TIP3    H276824   7.230   2.405   4.893
18445TIP3   OH276825   7.226   2.507   5.045
18445TIP3    H176826   7.157   2.552   5.094
18445TIP3    H276827   7.267   2.575   4.992
18446TIP3   OH276828   5.740   2.404   5.486
18446TIP3    H176829   5.821   2.401   5.435
18446TIP3    H276830   5.684   2.339   5.446
18447TIP3   OH276831   7.215   2.144   4.332
18447TIP3    H176832   7.183   2.133   4.422
18447TIP3    H276833   7.164   2.081   4.281
18448TIP3   OH276834   5.829   2.244   4.742
18448TIP3    H176835   5.866   2.156   4.743
18448TIP3    H276836   5.904   2.301   4.758
18449TIP3   OH276837   5.625   2.520   4.800
18449TIP3    H176838   5.704   2.527   4.745
18449TIP3    H276839   5.641   2.580   4.872
18450TIP3   OH276840   5.689   2.141   4.203
18450TIP3    H176841   5.597   2.144   4.230
18450TIP3    H276842   5.698   2.216   4.144
18451TIP3   OH276843   7.165   3.652   4.512
18451TIP3    H176844   7.242   3.600   4.535
18451TIP3    H276845   7.162   3.721   4.578
18452TIP3   OH276846   5.679   1.976   5.033
18452TIP3    H176847   5.626   1.976   5.113
18452TIP3    H276848   5.653   2.055   4.986
18453TIP3   OH276849   5.885   3.436   5.466
18453TIP3    H176850   5.799   3.425   5.426
18453TIP3    H276851   5.877   3.398   5.553
18454TIP3   OH276852   6.228   3.478   5.124
18454TIP3    H176853   6.198   3.565   5.098
18454TIP3    H276854   6.322   3.479   5.105
18455TIP3   OH276855   6.582   3.609   5.410
18455TIP3    H176856   6.599   3.565   5.493
18455TIP3    H276857   6.664   3.655   5.391
18456TIP3   OH276858   6.823   3.733   5.360
18456TIP3    H176859   6.884   3.672   5.319
18456TIP3    H276860   6.868   3.763   5.439
18457TIP3   OH276861   5.929   3.780   5.118
18457TIP3    H176862   5.849   3.818   5.083
18457TIP3    H276863   5.948   3.832   5.196
18458TIP3   OH276864   6.186   3.738   5.041
18458TIP3    H176865   6.095   3.749   5.067
18458TIP3    H276866   6.193   3.787   4.959
18459TIP3   OH276867   6.626   3.731   4.955
18459TIP3    H176868   6.572   3.771   4.887
18459TIP3    H276869   6.640   3.801   5.019
18460TIP3   OH276870   6.845   3.594   5.053
18460TIP3    H176871   6.772   3.644   5.016
18460TIP3    H276872   6.921   3.652   5.043
18461TIP3   OH276873   7.091   3.717   5.041
18461TIP3    H176874   7.140   3.797   5.059
18461TIP3    H276875   7.139   3.674   4.970
18462TIP3   OH276876   5.884   3.618   4.804
18462TIP3    H176877   5.879   3.572   4.888
18462TIP3    H276878   5.963   3.584   4.763
18463TIP3   OH276879   6.100   3.493   4.689
18463TIP3    H176880   6.086   3.401   4.712
18463TIP3    H276881   6.185   3.515   4.728
18464TIP3   OH276882   6.357   3.525   4.796
18464TIP3    H176883   6.370   3.435   4.766
18464TIP3    H276884   6.393   3.527   4.884
18465TIP3   OH276885   6.667   2.091   4.694
18465TIP3    H176886   6.600   2.026   4.717
18465TIP3    H276887   6.739   2.039   4.658
18466TIP3   OH276888   7.162   1.946   4.675
18466TIP3    H176889   7.196   2.028   4.712
18466TIP3    H276890   7.070   1.964   4.660
18467TIP3   OH276891   5.919   1.958   4.436
18467TIP3    H176892   5.827   1.939   4.420
18467TIP3    H276893   5.964   1.874   4.425
18468TIP3   OH276894   5.833   1.967   4.036
18468TIP3    H176895   5.886   2.026   3.984
18468TIP3    H276896   5.787   2.024   4.099
18469TIP3   OH276897   6.414   1.919   4.466
18469TIP3    H176898   6.481   1.975   4.428
18469TIP3    H276899   6.426   1.927   4.560
18470TIP3   OH276900   6.888   1.949   4.597
18470TIP3    H176901   6.885   1.929   4.503
18470TIP3    H276902   6.870   1.865   4.640
18471TIP3   OH276903   7.067   1.979   4.169
18471TIP3    H176904   6.989   2.033   4.178
18471TIP3    H276905   7.035   1.889   4.181
18472TIP3   OH276906   5.791   3.586   4.138
18472TIP3    H176907   5.716   3.574   4.079
18472TIP3    H276908   5.815   3.678   4.128
18473TIP3   OH276909   6.015   2.123   3.876
18473TIP3    H176910   6.067   2.067   3.818
18473TIP3    H276911   6.078   2.157   3.939
18474TIP3   OH276912   6.474   2.198   4.132
18474TIP3    H176913   6.506   2.126   4.186
18474TIP3    H276914   6.491   2.277   4.184
18475TIP3   OH276915   6.686   3.663   3.956
18475TIP3    H176916   6.781   3.677   3.949
18475TIP3    H276917   6.664   3.612   3.878
18476TIP3   OH276918   5.907   2.054   5.345
18476TIP3    H176919   5.844   1.993   5.382
18476TIP3    H276920   5.992   2.023   5.376
18477TIP3   OH276921   6.130   1.981   5.484
18477TIP3    H176922   6.218   1.944   5.474
18477TIP3    H276923   6.094   1.935   5.560
18478TIP3   OH276924   5.956   3.629   3.776
18478TIP3    H176925   5.939   3.616   3.869
18478TIP3    H276926   6.037   3.582   3.759
18479TIP3   OH276927   7.264   3.583   5.436
18479TIP3    H176928   7.214   3.550   5.361
18479TIP3    H276929   7.249   3.678   5.435
18480TIP3   OH276930   1.187   4.783   4.418
18480TIP3    H176931   1.179   4.879   4.417
18480TIP3    H276932   1.118   4.753   4.359
18481TIP3   OH276933   1.091   4.702   4.803
18481TIP3    H176934   1.102   4.681   4.896
18481TIP3    H276935   1.028   4.638   4.771
18482TIP3   OH276936   0.321   4.680   4.956
18482TIP3    H176937   0.314   4.592   4.992
18482TIP3    H276938   0.356   4.733   5.028
18483TIP3   OH276939   1.460   5.027   4.643
18483TIP3    H176940   1.424   4.953   4.692
18483TIP3    H276941   1.477   5.094   4.710
18484TIP3   OH276942   0.384   5.107   4.787
18484TIP3    H176943   0.372   5.020   4.750
18484TIP3    H276944   0.429   5.091   4.871
18485TIP3   OH276945   0.113   4.480   4.326
18485TIP3    H176946   0.122   4.559   4.378
18485TIP3    H276947   0.075   4.416   4.386
18486TIP3   OH276948   0.205   4.678   4.508
18486TIP3    H176949   0.220   4.605   4.568
18486TIP3    H276950   0.251   4.752   4.548
18487TIP3   OH276951   1.191   5.496   4.679
18487TIP3    H176952   1.226   5.438   4.611
18487TIP3    H276953   1.159   5.437   4.747
18488TIP3   OH276954   0.938   4.967   4.833
18488TIP3    H176955   0.978   4.891   4.790
18488TIP3    H276956   1.000   4.992   4.902
18489TIP3   OH276957   1.812   4.098   4.924
18489TIP3    H176958   1.819   4.162   4.995
18489TIP3    H276959   1.882   4.123   4.863
18490TIP3   OH276960   1.206   4.388   4.837
18490TIP3    H176961   1.191   4.312   4.892
18490TIP3    H276962   1.119   4.411   4.803
18491TIP3   OH276963   0.595   4.195   4.564
18491TIP3    H176964   0.595   4.280   4.522
18491TIP3    H276965   0.541   4.140   4.507
18492TIP3   OH276966   1.383   4.202   4.432
18492TIP3    H176967   1.444   4.147   4.481
18492TIP3    H276968   1.438   4.251   4.371
18493TIP3   OH276969   0.263   4.449   4.648
18493TIP3    H176970   0.319   4.402   4.710
18493TIP3    H276971   0.282   4.408   4.563
18494TIP3   OH276972   0.749   4.598   4.596
18494TIP3    H176973   0.819   4.546   4.636
18494TIP3    H276974   0.700   4.534   4.543
18495TIP3   OH276975   1.817   4.249   5.154
18495TIP3    H176976   1.749   4.315   5.143
18495TIP3    H276977   1.791   4.200   5.232
18496TIP3   OH276978   0.450   4.101   5.002
18496TIP3    H176979   0.416   4.165   4.939
18496TIP3    H276980   0.384   4.099   5.072
18497TIP3   OH276981   1.161   5.048   4.321
18497TIP3    H176982   1.139   5.042   4.228
18497TIP3    H276983   1.117   5.127   4.352
18498TIP3   OH276984   0.700   4.890   4.962
18498TIP3    H176985   0.641   4.959   4.994
18498TIP3    H276986   0.772   4.937   4.920
18499TIP3   OH276987   1.481   4.155   4.703
18499TIP3    H176988   1.481   4.085   4.768
18499TIP3    H276989   1.540   4.221   4.739
18500TIP3   OH276990   0.429   4.269   4.778
18500TIP3    H176991   0.482   4.328   4.832
18500TIP3    H276992   0.490   4.233   4.714
18501TIP3   OH276993   0.528   5.093   5.052
18501TIP3    H176994   0.547   5.187   5.059
18501TIP3    H276995   0.444   5.082   5.096
18502TIP3   OH276996   0.116   5.055   4.178
18502TIP3    H176997   0.132   5.091   4.091
18502TIP3    H276998   0.145   5.123   4.238
18503TIP3   OH276999   1.484   5.231   4.838
18503TIP3    H177000   1.391   5.230   4.861
18503TIP3    H277001   1.503   5.322   4.819
18504TIP3   OH277002   1.544   4.027   4.957
18504TIP3    H177003   1.523   4.084   5.031
18504TIP3    H277004   1.636   4.043   4.939
18505TIP3   OH277005   0.779   3.795   4.740
18505TIP3    H177006   0.754   3.703   4.744
18505TIP3    H277007   0.701   3.842   4.771
18506TIP3   OH277008   1.313   5.371   4.460
18506TIP3    H177009   1.357   5.288   4.441
18506TIP3    H277010   1.384   5.435   4.466
18507TIP3   OH277011   1.422   5.129   4.389
18507TIP3    H177012   1.339   5.087   4.364
18507TIP3    H277013   1.445   5.088   4.473
18508TIP3   OH277014   1.612   5.012   5.199
18508TIP3    H177015   1.603   4.953   5.124
18508TIP3    H277016   1.626   5.099   5.160
18509TIP3   OH277017   1.040   4.707   4.194
18509TIP3    H177018   0.968   4.767   4.174
18509TIP3    H277019   1.108   4.728   4.129
18510TIP3   OH277020   1.068   4.608   3.855
18510TIP3    H177021   1.124   4.629   3.930
18510TIP3    H277022   1.116   4.539   3.808
18511TIP3   OH277023   1.770   4.671   5.023
18511TIP3    H177024   1.694   4.730   5.021
18511TIP3    H277025   1.826   4.702   4.952
18512TIP3   OH277026   1.412   4.727   4.274
18512TIP3    H177027   1.339   4.751   4.331
18512TIP3    H277028   1.476   4.686   4.332
18513TIP3   OH277029   1.375   4.550   5.214
18513TIP3    H177030   1.384   4.612   5.287
18513TIP3    H277031   1.305   4.587   5.161
18514TIP3   OH277032   0.567   4.784   4.478
18514TIP3    H177033   0.537   4.743   4.396
18514TIP3    H277034   0.632   4.723   4.513
18515TIP3   OH277035   0.760   5.165   4.727
18515TIP3    H177036   0.747   5.149   4.633
18515TIP3    H277037   0.823   5.098   4.753
18516TIP3   OH277038   0.595   4.685   4.811
18516TIP3    H177039   0.657   4.673   4.740
18516TIP3    H277040   0.631   4.757   4.863
18517TIP3   OH277041   1.226   5.235   4.925
18517TIP3    H177042   1.208   5.309   4.983
18517TIP3    H277043   1.181   5.161   4.966
18518TIP3   OH277044   0.689   5.110   5.306
18518TIP3    H177045   0.625   5.167   5.350
18518TIP3    H277046   0.642   5.076   5.230
18519TIP3   OH277047   1.281   4.666   4.036
18519TIP3    H177048   1.331   4.701   4.109
18519TIP3    H277049   1.335   4.683   3.959
18520TIP3   OH277050   0.406   4.725   5.236
18520TIP3    H177051   0.404   4.803   5.291
18520TIP3    H277052   0.319   4.687   5.246
18521TIP3   OH277053   1.061   5.301   4.374
18521TIP3    H177054   1.142   5.333   4.413
18521TIP3    H277055   1.021   5.379   4.334
18522TIP3   OH277056   0.496   5.296   5.383
18522TIP3    H177057   0.485   5.320   5.291
18522TIP3    H277058   0.407   5.291   5.417
18523TIP3   OH277059   1.647   3.805   4.029
18523TIP3    H177060   1.562   3.828   4.068
18523TIP3    H277061   1.681   3.888   3.996
18524TIP3   OH277062   0.468   4.692   4.220
18524TIP3    H177063   0.406   4.754   4.181
18524TIP3    H277064   0.416   4.615   4.240
18525TIP3   OH277065   1.786   5.252   3.900
18525TIP3    H177066   1.792   5.348   3.903
18525TIP3    H277067   1.876   5.223   3.887
18526TIP3   OH277068   0.152   4.889   5.093
18526TIP3    H177069   0.067   4.896   5.051
18526TIP3    H277070   0.153   4.802   5.133
18527TIP3   OH277071   0.087   5.226   4.754
18527TIP3    H177072   0.170   5.197   4.794
18527TIP3    H277073   0.019   5.193   4.813
18528TIP3   OH277074   1.885   5.327   5.416
18528TIP3    H177075   1.876   5.232   5.411
18528TIP3    H277076   1.799   5.358   5.446
18529TIP3   OH277077   0.938   5.229   5.267
18529TIP3    H177078   0.950   5.292   5.339
18529TIP3    H277079   0.852   5.191   5.282
18530TIP3   OH277080   1.029   5.573   4.247
18530TIP3    H177081   1.004   5.581   4.155
18530TIP3    H277082   0.995   5.653   4.288
18531TIP3   OH277083   0.375   5.465   4.442
18531TIP3    H177084   0.398   5.425   4.526
18531TIP3    H277085   0.327   5.397   4.396
18532TIP3   OH277086   1.314   5.548   3.928
18532TIP3    H177087   1.362   5.474   3.891
18532TIP3    H277088   1.325   5.538   4.022
18533TIP3   OH277089   1.296   5.525   4.205
18533TIP3    H177090   1.203   5.536   4.223
18533TIP3    H277091   1.329   5.470   4.276
18534TIP3   OH277092   1.609   4.424   5.415
18534TIP3    H177093   1.521   4.458   5.432
18534TIP3    H277094   1.595   4.339   5.374
18535TIP3   OH277095   0.289   5.110   5.181
18535TIP3    H177096   0.302   5.089   5.273
18535TIP3    H277097   0.233   5.040   5.148
18536TIP3   OH277098   0.544   3.915   4.823
18536TIP3    H177099   0.464   3.907   4.770
18536TIP3    H277100   0.524   3.983   4.887
18537TIP3   OH277101   1.048   3.885   5.161
18537TIP3    H177102   1.094   3.838   5.231
18537TIP3    H277103   0.956   3.883   5.187
18538TIP3   OH277104   1.303   4.285   5.196
18538TIP3    H177105   1.241   4.266   5.267
18538TIP3    H277106   1.322   4.378   5.206
18539TIP3   OH277107   1.422   4.663   3.795
18539TIP3    H177108   1.398   4.701   3.710
18539TIP3    H277109   1.509   4.698   3.814
18540TIP3   OH277110   0.977   4.112   3.911
18540TIP3    H177111   0.921   4.108   3.989
18540TIP3    H277112   0.937   4.053   3.849
18541TIP3   OH277113   0.564   4.445   4.940
18541TIP3    H177114   0.490   4.446   5.000
18541TIP3    H277115   0.566   4.533   4.902
18542TIP3   OH277116   0.592   4.439   4.436
18542TIP3    H177117   0.497   4.429   4.439
18542TIP3    H277118   0.616   4.418   4.345
18543TIP3   OH277119   1.091   4.452   4.278
18543TIP3    H177120   1.065   4.540   4.251
18543TIP3    H277121   1.163   4.429   4.219
18544TIP3   OH277122   1.025   4.489   5.439
18544TIP3    H177123   0.980   4.415   5.479
18544TIP3    H277124   1.113   4.487   5.477
18545TIP3   OH277125   1.190   4.446   4.532
18545TIP3    H177126   1.191   4.539   4.556
18545TIP3    H277127   1.149   4.444   4.446
18546TIP3   OH277128   0.323   4.424   5.072
18546TIP3    H177129   0.324   4.422   5.168
18546TIP3    H277130   0.247   4.371   5.048
18547TIP3   OH277131   0.663   4.173   3.799
18547TIP3    H177132   0.629   4.158   3.887
18547TIP3    H277133   0.606   4.240   3.762
18548TIP3   OH277134   0.053   4.253   4.479
18548TIP3    H177135   0.094   4.228   4.561
18548TIP3    H277136   0.027   4.170   4.439
18549TIP3   OH277137   0.065   4.287   4.068
18549TIP3    H177138   0.152   4.326   4.057
18549TIP3    H277139   0.016   4.316   3.991
18550TIP3   OH277140   1.149   4.571   5.044
18550TIP3    H177141   1.186   4.505   4.986
18550TIP3    H277142   1.084   4.523   5.096
18551TIP3   OH277143   0.871   4.205   4.581
18551TIP3    H177144   0.777   4.194   4.587
18551TIP3    H277145   0.907   4.121   4.610
18552TIP3   OH277146   0.341   4.344   4.405
18552TIP3    H177147   0.263   4.370   4.356
18552TIP3    H277148   0.351   4.251   4.386
18553TIP3   OH277149   0.625   4.353   4.177
18553TIP3    H177150   0.720   4.347   4.187
18553TIP3    H277151   0.613   4.396   4.092
18554TIP3   OH277152   1.164   4.113   4.763
18554TIP3    H177153   1.168   4.097   4.858
18554TIP3    H277154   1.102   4.048   4.730
18555TIP3   OH277155   0.582   4.450   3.925
18555TIP3    H177156   0.523   4.429   3.853
18555TIP3    H277157   0.655   4.497   3.884
18556TIP3   OH277158   1.609   5.677   5.500
18556TIP3    H177159   1.636   5.715   5.416
18556TIP3    H277160   1.684   5.693   5.558
18557TIP3   OH277161   0.360   4.943   5.412
18557TIP3    H177162   0.422   4.943   5.484
18557TIP3    H277163   0.274   4.943   5.454
18558TIP3   OH277164   0.943   4.428   4.740
18558TIP3    H177165   0.927   4.356   4.679
18558TIP3    H277166   0.896   4.404   4.820
18559TIP3   OH277167   0.426   4.079   4.369
18559TIP3    H177168   0.377   4.002   4.397
18559TIP3    H277169   0.449   4.061   4.278
18560TIP3   OH277170   0.819   4.346   4.970
18560TIP3    H177171   0.734   4.390   4.972
18560TIP3    H277172   0.865   4.376   5.048
18561TIP3   OH277173   0.842   4.889   4.132
18561TIP3    H177174   0.770   4.857   4.077
18561TIP3    H277175   0.799   4.923   4.210
18562TIP3   OH277176   1.576   4.860   4.968
18562TIP3    H177177   1.636   4.918   4.921
18562TIP3    H277178   1.502   4.850   4.909
18563TIP3   OH277179   1.231   4.164   3.995
18563TIP3    H177180   1.139   4.161   3.968
18563TIP3    H277181   1.245   4.254   4.024
18564TIP3   OH277182   1.007   4.917   5.279
18564TIP3    H177183   1.044   4.869   5.354
18564TIP3    H277184   0.966   4.994   5.318
18565TIP3   OH277185   1.311   4.400   4.117
18565TIP3    H177186   1.396   4.386   4.159
18565TIP3    H277187   1.314   4.490   4.087
18566TIP3   OH277188   0.373   4.833   4.685
18566TIP3    H177189   0.444   4.826   4.621
18566TIP3    H277190   0.399   4.776   4.757
18567TIP3   OH277191   1.055   5.043   4.058
18567TIP3    H177192   1.026   5.134   4.062
18567TIP3    H277193   0.977   4.992   4.081
18568TIP3   OH277194   0.129   4.636   5.220
18568TIP3    H177195   0.159   4.556   5.262
18568TIP3    H277196   0.051   4.661   5.269
18569TIP3   OH277197   0.809   4.678   5.450
18569TIP3    H177198   0.743   4.634   5.397
18569TIP3    H277199   0.888   4.625   5.440
18570TIP3   OH277200   1.217   5.198   5.303
18570TIP3    H177201   1.127   5.206   5.271
18570TIP3    H277202   1.208   5.176   5.395
18571TIP3   OH277203   1.753   4.435   4.072
18571TIP3    H177204   1.712   4.412   3.989
18571TIP3    H277205   1.778   4.527   4.061
18572TIP3   OH277206   1.833   5.054   5.388
18572TIP3    H177207   1.737   5.059   5.391
18572TIP3    H277208   1.852   5.020   5.301
18573TIP3   OH277209   1.641   5.287   4.152
18573TIP3    H177210   1.584   5.219   4.189
18573TIP3    H277211   1.671   5.250   4.069
18574TIP3   OH277212   1.368   4.798   4.782
18574TIP3    H177213   1.273   4.790   4.787
18574TIP3    H277214   1.397   4.715   4.744
18575TIP3   OH277215   0.635   5.221   4.470
18575TIP3    H177216   0.654   5.304   4.426
18575TIP3    H277217   0.567   5.244   4.534
18576TIP3   OH277218   0.157   4.709   3.892
18576TIP3    H177219   0.218   4.755   3.950
18576TIP3    H277220   0.079   4.694   3.946
18577TIP3   OH277221   0.694   4.991   4.335
18577TIP3    H177222   0.680   5.073   4.380
18577TIP3    H277223   0.650   4.925   4.389
18578TIP3   OH277224   0.833   5.391   5.055
18578TIP3    H177225   0.894   5.461   5.032
18578TIP3    H277226   0.883   5.334   5.113
18579TIP3   OH277227   0.637   5.477   4.356
18579TIP3    H177228   0.545   5.490   4.378
18579TIP3    H277229   0.683   5.551   4.395
18580TIP3   OH277230   1.128   4.990   5.041
18580TIP3    H177231   1.075   4.969   5.118
18580TIP3    H277232   1.215   4.954   5.061
18581TIP3   OH277233   1.422   5.096   3.917
18581TIP3    H177234   1.445   5.039   3.991
18581TIP3    H277235   1.333   5.069   3.893
18582TIP3   OH277236   1.413   5.386   5.230
18582TIP3    H177237   1.347   5.323   5.258
18582TIP3    H277238   1.369   5.439   5.164
18583TIP3   OH277239   1.819   5.526   3.918
18583TIP3    H177240   1.855   5.595   3.862
18583TIP3    H277241   1.745   5.568   3.963
18584TIP3   OH277242   0.265   4.116   5.203
18584TIP3    H177243   0.254   4.195   5.256
18584TIP3    H277244   0.265   4.044   5.266
18585TIP3   OH277245   1.522   4.922   4.106
18585TIP3    H177246   1.478   4.869   4.173
18585TIP3    H277247   1.614   4.921   4.131
18586TIP3   OH277248   0.231   5.374   5.015
18586TIP3    H177249   0.234   5.295   5.069
18586TIP3    H277250   0.231   5.446   5.077
18587TIP3   OH277251   0.784   5.186   3.783
18587TIP3    H177252   0.787   5.101   3.739
18587TIP3    H277253   0.749   5.166   3.870
18588TIP3   OH277254   0.662   5.158   4.035
18588TIP3    H177255   0.688   5.112   4.115
18588TIP3    H277256   0.673   5.251   4.056
18589TIP3   OH277257   0.295   4.864   4.077
18589TIP3    H177258   0.233   4.909   4.135
18589TIP3    H277259   0.347   4.934   4.038
18590TIP3   OH277260   1.169   4.102   5.033
18590TIP3    H177261   1.216   4.155   5.098
18590TIP3    H277262   1.129   4.032   5.084
18591TIP3   OH277263   1.221   4.052   4.249
18591TIP3    H177264   1.223   4.095   4.164
18591TIP3    H277265   1.265   4.113   4.309
18592TIP3   OH277266   0.960   5.297   4.063
18592TIP3    H177267   0.872   5.329   4.085
18592TIP3    H277268   1.009   5.376   4.040
18593TIP3   OH277269   0.874   4.290   4.308
18593TIP3    H177270   0.949   4.349   4.299
18593TIP3    H277271   0.871   4.268   4.401
18594TIP3   OH277272   0.994   4.386   5.185
18594TIP3    H177273   0.991   4.435   5.267
18594TIP3    H277274   1.015   4.296   5.212
18595TIP3   OH277275   0.983   3.950   4.352
18595TIP3    H177276   0.995   3.968   4.445
18595TIP3    H277277   1.062   3.984   4.310
18596TIP3   OH277278   0.714   5.418   4.101
18596TIP3    H177279   0.721   5.502   4.056
18596TIP3    H277280   0.686   5.440   4.190
18597TIP3   OH277281   0.563   4.109   4.053
18597TIP3    H177282   0.556   4.193   4.098
18597TIP3    H277283   0.647   4.074   4.081
18598TIP3   OH277284   1.542   4.179   5.270
18598TIP3    H177285   1.459   4.213   5.238
18598TIP3    H277286   1.518   4.118   5.340
18599TIP3   OH277287   1.427   4.524   4.708
18599TIP3    H177288   1.350   4.502   4.760
18599TIP3    H277289   1.499   4.478   4.751
18600TIP3   OH277290   0.413   5.082   3.943
18600TIP3    H177291   0.489   5.124   3.983
18600TIP3    H277292   0.449   5.032   3.870
18601TIP3   OH277293   0.232   4.432   3.869
18601TIP3    H177294   0.229   4.526   3.891
18601TIP3    H277295   0.143   4.411   3.842
18602TIP3   OH277296   1.563   5.499   4.829
18602TIP3    H177297   1.549   5.570   4.767
18602TIP3    H277298   1.657   5.498   4.844
18603TIP3   OH277299   0.297   3.889   4.700
18603TIP3    H177300   0.297   3.878   4.605
18603TIP3    H277301   0.268   3.804   4.735
18604TIP3   OH277302   0.186   5.300   4.304
18604TIP3    H177303   0.128   5.335   4.372
18604TIP3    H277304   0.181   5.364   4.233
18605TIP3   OH277305   0.195   5.605   5.422
18605TIP3    H177306   0.238   5.586   5.506
18605TIP3    H277307   0.118   5.548   5.421
18606TIP3   OH277308   0.669   5.453   5.528
18606TIP3    H177309   0.712   5.393   5.588
18606TIP3    H277310   0.604   5.399   5.482
18607TIP3   OH277311   0.986   5.374   3.753
18607TIP3    H177312   0.920   5.308   3.773
18607TIP3    H277313   1.062   5.324   3.724
18608TIP3   OH277314   1.439   5.342   3.795
18608TIP3    H177315   1.449   5.261   3.846
18608TIP3    H277316   1.514   5.342   3.736
18609TIP3   OH277317   0.114   4.928   5.546
18609TIP3    H177318   0.120   4.834   5.565
18609TIP3    H277319   0.026   4.953   5.574
18610TIP3   OH277320   0.542   4.909   3.772
18610TIP3    H177321   0.564   4.859   3.851
18610TIP3    H277322   0.626   4.922   3.727
18611TIP3   OH277323   0.797   4.961   5.515
18611TIP3    H177324   0.755   4.998   5.437
18611TIP3    H277325   0.808   4.869   5.494
18612TIP3   OH277326   1.173   5.032   3.810
18612TIP3    H177327   1.123   5.030   3.892
18612TIP3    H277328   1.139   4.958   3.760
18613TIP3   OH277329   1.347   4.954   5.248
18613TIP3    H177330   1.440   4.978   5.243
18613TIP3    H277331   1.302   5.036   5.266
18614TIP3   OH277332   0.124   4.646   5.539
18614TIP3    H177333   0.170   4.568   5.509
18614TIP3    H277334   0.145   4.652   5.632
18615TIP3   OH277335   0.630   4.770   3.996
18615TIP3    H177336   0.583   4.729   4.069
18615TIP3    H277337   0.677   4.698   3.954
18616TIP3   OH277338   0.635   4.551   5.261
18616TIP3    H177339   0.553   4.602   5.258
18616TIP3    H277340   0.690   4.591   5.193
18617TIP3   OH277341   0.790   4.604   3.835
18617TIP3    H177342   0.786   4.632   3.743
18617TIP3    H277343   0.883   4.602   3.856
18618TIP3   OH277344   1.126   4.796   5.517
18618TIP3    H177345   1.214   4.760   5.502
18618TIP3    H277346   1.089   4.740   5.585
18619TIP3   OH277347   1.673   4.780   3.785
18619TIP3    H177348   1.676   4.766   3.691
18619TIP3    H277349   1.669   4.875   3.795
18620TIP3   OH277350   0.688   4.293   5.357
18620TIP3    H177351   0.685   4.233   5.283
18620TIP3    H277352   0.668   4.379   5.319
18621TIP3   OH277353   0.697   4.133   5.118
18621TIP3    H177354   0.742   4.191   5.057
18621TIP3    H277355   0.608   4.125   5.082
18622TIP3   OH277356   0.818   4.680   5.099
18622TIP3    H177357   0.887   4.726   5.148
18622TIP3    H277358   0.773   4.749   5.051
18623TIP3   OH277359   1.255   4.448   5.615
18623TIP3    H177360   1.271   4.368   5.663
18623TIP3    H277361   1.303   4.516   5.663
18624TIP3   OH277362   1.399   4.740   5.416
18624TIP3    H177363   1.374   4.816   5.364
18624TIP3    H277364   1.494   4.748   5.426
18625TIP3   OH277365   0.502   4.381   5.547
18625TIP3    H177366   0.422   4.392   5.497
18625TIP3    H277367   0.564   4.341   5.485
18626TIP3   OH277368   0.767   3.864   5.151
18626TIP3    H177369   0.742   3.957   5.148
18626TIP3    H277370   0.690   3.818   5.117
18627TIP3   OH277371   0.910   4.259   5.532
18627TIP3    H177372   0.902   4.218   5.618
18627TIP3    H277373   0.821   4.258   5.497
18628TIP3   OH277374   1.130   4.192   5.381
18628TIP3    H177375   1.052   4.204   5.436
18628TIP3    H277376   1.195   4.153   5.439
18629TIP3   OH277377   1.343   4.099   5.544
18629TIP3    H177378   1.335   4.004   5.552
18629TIP3    H277379   1.320   4.133   5.630
18630TIP3   OH277380   0.299   4.142   5.601
18630TIP3    H177381   0.297   4.183   5.515
18630TIP3    H277382   0.294   4.215   5.663
18631TIP3   OH277383   0.754   3.747   5.399
18631TIP3    H177384   0.819   3.677   5.406
18631TIP3    H277385   0.764   3.780   5.310
18632TIP3   OH277386   0.787   5.655   3.979
18632TIP3    H177387   0.878   5.625   3.970
18632TIP3    H277388   0.777   5.721   3.910
18633TIP3   OH277389   0.143   5.130   3.909
18633TIP3    H177390   0.235   5.151   3.928
18633TIP3    H277391   0.149   5.062   3.841
18634TIP3   OH277392   0.053   5.622   4.366
18634TIP3    H177393  -0.042   5.620   4.353
18634TIP3    H277394   0.070   5.555   4.432
18635TIP3   OH277395   0.076   5.420   4.562
18635TIP3    H177396   0.065   5.336   4.606
18635TIP3    H277397   0.135   5.470   4.619
18636TIP3   OH277398   1.829   5.503   4.904
18636TIP3    H177399   1.825   5.489   4.999
18636TIP3    H277400   1.887   5.579   4.893
18637TIP3   OH277401   1.799   5.446   5.173
18637TIP3    H177402   1.738   5.379   5.143
18637TIP3    H277403   1.837   5.412   5.253
18638TIP3   OH277404   1.599   5.093   5.564
18638TIP3    H177405   1.532   5.083   5.631
18638TIP3    H277406   1.671   5.138   5.608
18639TIP3   OH277407   1.788   4.882   4.191
18639TIP3    H177408   1.854   4.951   4.198
18639TIP3    H277409   1.803   4.826   4.268
18640TIP3   OH277410   1.829   4.681   4.387
18640TIP3    H177411   1.745   4.659   4.427
18640TIP3    H277412   1.887   4.700   4.461
18641TIP3   OH277413   1.807   4.994   4.897
18641TIP3    H177414   1.864   4.930   4.855
18641TIP3    H277415   1.837   5.079   4.863
18642TIP3   OH277416   1.614   5.264   5.084
18642TIP3    H177417   1.542   5.303   5.133
18642TIP3    H277418   1.578   5.247   4.997
18643TIP3   OH277419   1.822   4.691   3.999
18643TIP3    H177420   1.770   4.719   3.923
18643TIP3    H277421   1.807   4.759   4.065
18644TIP3   OH277422   1.654   4.382   3.821
18644TIP3    H177423   1.634   4.447   3.753
18644TIP3    H277424   1.631   4.298   3.781
18645TIP3   OH277425   1.566   4.574   4.455
18645TIP3    H177426   1.562   4.485   4.420
18645TIP3    H277427   1.520   4.568   4.539
18646TIP3   OH277428   0.099   4.764   4.817
18646TIP3    H177429   0.133   4.811   4.741
18646TIP3    H277430   0.176   4.747   4.871
18647TIP3   OH277431   1.670   4.768   5.445
18647TIP3    H177432   1.746   4.711   5.454
18647TIP3    H277433   1.703   4.856   5.463
18648TIP3   OH277434   1.857   4.542   5.435
18648TIP3    H177435   1.766   4.512   5.433
18648TIP3    H277436   1.908   4.461   5.435
18649TIP3   OH277437   1.581   4.125   3.731
18649TIP3    H177438   1.619   4.085   3.809
18649TIP3    H277439   1.487   4.113   3.742
18650TIP3   OH277440   1.560   4.325   4.250
18650TIP3    H177441   1.590   4.234   4.246
18650TIP3    H277442   1.626   4.373   4.200
18651TIP3   OH277443   1.611   4.360   4.828
18651TIP3    H177444   1.704   4.376   4.809
18651TIP3    H277445   1.603   4.377   4.922
18652TIP3   OH277446   1.617   4.448   5.088
18652TIP3    H177447   1.542   4.477   5.140
18652TIP3    H277448   1.670   4.527   5.077
18653TIP3   OH277449  -0.019   4.218   5.402
18653TIP3    H177450   0.063   4.268   5.398
18653TIP3    H277451  -0.022   4.185   5.492
18654TIP3   OH277452   1.862   3.849   5.611
18654TIP3    H177453   1.847   3.790   5.684
18654TIP3    H277454   1.926   3.804   5.556
18655TIP3   OH277455   1.621   4.054   4.261
18655TIP3    H177456   1.653   4.015   4.342
18655TIP3    H277457   1.556   3.992   4.228
18656TIP3   OH277458   0.187   4.145   4.696
18656TIP3    H177459   0.210   4.053   4.707
18656TIP3    H277460   0.260   4.193   4.735
18657TIP3   OH277461   0.033   4.498   4.787
18657TIP3    H177462   0.112   4.474   4.739
18657TIP3    H277463   0.045   4.590   4.810
18658TIP3   OH277464   1.814   4.102   5.402
18658TIP3    H177465   1.746   4.130   5.463
18658TIP3    H277466   1.823   4.008   5.419
18659TIP3   OH277467   1.773   4.017   3.898
18659TIP3    H177468   1.843   3.970   3.853
18659TIP3    H277469   1.818   4.087   3.945
18660TIP3   OH277470   0.116   4.047   4.196
18660TIP3    H177471   0.041   4.035   4.255
18660TIP3    H277472   0.101   4.130   4.153
18661TIP3   OH277473   1.501   5.560   4.442
18661TIP3    H177474   1.578   5.559   4.385
18661TIP3    H277475   1.528   5.614   4.517
18662TIP3   OH277476   0.027   3.875   5.081
18662TIP3    H177477   0.003   3.936   5.151
18662TIP3    H277478  -0.003   3.918   5.000
18663TIP3   OH277479   0.238   5.291   5.481
18663TIP3    H177480   0.150   5.322   5.463
18663TIP3    H277481   0.230   5.242   5.563
18664TIP3   OH277482   0.566   5.360   5.112
18664TIP3    H177483   0.533   5.448   5.095
18664TIP3    H277484   0.661   5.368   5.101
18665TIP3   OH277485   1.004   5.429   5.447
18665TIP3    H177486   0.929   5.488   5.452
18665TIP3    H277487   1.074   5.483   5.412
18666TIP3   OH277488   1.187   5.609   5.352
18666TIP3    H177489   1.249   5.574   5.288
18666TIP3    H277490   1.239   5.620   5.432
18667TIP3   OH277491   1.695   3.790   5.228
18667TIP3    H177492   1.612   3.789   5.179
18667TIP3    H277493   1.728   3.701   5.221
18668TIP3   OH277494   0.237   5.624   5.149
18668TIP3    H177495   0.167   5.684   5.124
18668TIP3    H277496   0.227   5.612   5.243
18669TIP3   OH277497   0.506   5.628   5.067
18669TIP3    H177498   0.414   5.633   5.095
18669TIP3    H277499   0.508   5.672   4.982
18670TIP3   OH277500   0.980   5.609   4.963
18670TIP3    H177501   0.922   5.644   4.895
18670TIP3    H277502   0.987   5.680   5.027
18671TIP3   OH277503   1.215   5.488   5.048
18671TIP3    H177504   1.133   5.527   5.017
18671TIP3    H277505   1.282   5.555   5.030
18672TIP3   OH277506   1.450   5.638   5.041
18672TIP3    H177507   1.473   5.729   5.019
18672TIP3    H277508   1.488   5.587   4.970
18673TIP3   OH277509   0.241   5.507   4.773
18673TIP3    H177510   0.227   5.469   4.860
18673TIP3    H277511   0.318   5.460   4.739
18674TIP3   OH277512   0.457   5.351   4.679
18674TIP3    H177513   0.431   5.268   4.719
18674TIP3    H277514   0.533   5.378   4.729
18675TIP3   OH277515   0.703   5.420   4.805
18675TIP3    H177516   0.729   5.335   4.769
18675TIP3    H277517   0.732   5.417   4.896
18676TIP3   OH277518   0.989   3.940   4.634
18676TIP3    H177519   0.920   3.891   4.679
18676TIP3    H277520   1.062   3.877   4.628
18677TIP3   OH277521   1.541   3.828   4.657
18677TIP3    H177522   1.601   3.889   4.614
18677TIP3    H277523   1.454   3.863   4.639
18678TIP3   OH277524   1.730   3.940   4.484
18678TIP3    H177525   1.789   3.865   4.473
18678TIP3    H277526   1.788   4.013   4.507
18679TIP3   OH277527   0.295   3.843   4.428
18679TIP3    H177528   0.210   3.831   4.388
18679TIP3    H277529   0.335   3.756   4.426
18680TIP3   OH277530   0.166   3.849   4.015
18680TIP3    H177531   0.234   3.889   3.962
18680TIP3    H277532   0.157   3.907   4.091
18681TIP3   OH277533   0.749   3.820   4.455
18681TIP3    H177534   0.822   3.872   4.423
18681TIP3    H277535   0.759   3.818   4.550
18682TIP3   OH277536   1.280   3.861   4.553
18682TIP3    H177537   1.302   3.824   4.467
18682TIP3    H277538   1.246   3.786   4.602
18683TIP3   OH277539   1.424   3.875   4.178
18683TIP3    H177540   1.349   3.932   4.194
18683TIP3    H277541   1.391   3.787   4.194
18684TIP3   OH277542   0.158   5.468   4.080
18684TIP3    H177543   0.068   5.436   4.068
18684TIP3    H277544   0.150   5.564   4.071
18685TIP3   OH277545   0.369   4.000   3.878
18685TIP3    H177546   0.422   3.946   3.820
18685TIP3    H277547   0.430   4.033   3.943
18686TIP3   OH277548   0.826   4.079   4.142
18686TIP3    H177549   0.855   4.004   4.194
18686TIP3    H277550   0.839   4.155   4.199
18687TIP3   OH277551   1.040   5.548   3.958
18687TIP3    H177552   1.133   5.566   3.947
18687TIP3    H277553   1.016   5.497   3.880
18688TIP3   OH277554   1.705   5.532   4.255
18688TIP3    H177555   1.686   5.443   4.225
18688TIP3    H277556   1.686   5.588   4.180
18689TIP3   OH277557   0.288   3.896   5.376
18689TIP3    H177558   0.245   3.814   5.401
18689TIP3    H277559   0.363   3.902   5.434
18690TIP3   OH277560   0.514   3.804   5.523
18690TIP3    H177561   0.596   3.804   5.474
18690TIP3    H277562   0.498   3.712   5.544
18691TIP3   OH277563   0.343   5.525   3.825
18691TIP3    H177564   0.311   5.505   3.914
18691TIP3    H277565   0.418   5.467   3.814
18692TIP3   OH277566   1.346   3.826   5.558
18692TIP3    H177567   1.318   3.785   5.640
18692TIP3    H277568   1.439   3.806   5.551
18693TIP3   OH277569   1.620   5.412   5.425
18693TIP3    H177570   1.549   5.401   5.362
18693TIP3    H277571   1.609   5.501   5.459
18694TIP3   OH277572   3.078   4.810   4.422
18694TIP3    H177573   3.068   4.904   4.406
18694TIP3    H277574   3.006   4.770   4.374
18695TIP3   OH277575   2.954   4.711   4.826
18695TIP3    H177576   2.985   4.666   4.904
18695TIP3    H277577   2.905   4.644   4.778
18696TIP3   OH277578   2.161   4.645   4.956
18696TIP3    H177579   2.167   4.570   5.014
18696TIP3    H277580   2.237   4.699   4.978
18697TIP3   OH277581   3.342   5.028   4.644
18697TIP3    H177582   3.303   4.951   4.687
18697TIP3    H277583   3.360   5.089   4.715
18698TIP3   OH277584   2.331   5.110   4.719
18698TIP3    H177585   2.293   5.023   4.711
18698TIP3    H277586   2.421   5.095   4.748
18699TIP3   OH277587   1.950   4.448   4.283
18699TIP3    H177588   1.923   4.531   4.323
18699TIP3    H277589   1.887   4.433   4.213
18700TIP3   OH277590   2.032   4.706   4.579
18700TIP3    H177591   2.060   4.617   4.603
18700TIP3    H277592   2.108   4.761   4.595
18701TIP3   OH277593   3.080   5.473   4.691
18701TIP3    H177594   3.107   5.417   4.618
18701TIP3    H277595   3.063   5.412   4.763
18702TIP3   OH277596   2.815   4.961   4.830
18702TIP3    H177597   2.851   4.877   4.804
18702TIP3    H277598   2.882   5.001   4.885
18703TIP3   OH277599   3.678   4.102   4.949
18703TIP3    H177600   3.699   4.168   5.015
18703TIP3    H277601   3.745   4.114   4.882
18704TIP3   OH277602   3.099   4.369   4.839
18704TIP3    H177603   3.120   4.277   4.851
18704TIP3    H277604   3.098   4.382   4.744
18705TIP3   OH277605   2.438   4.194   4.575
18705TIP3    H177606   2.448   4.278   4.531
18705TIP3    H277607   2.384   4.142   4.517
18706TIP3   OH277608   3.251   4.207   4.440
18706TIP3    H177609   3.297   4.171   4.516
18706TIP3    H277610   3.320   4.245   4.386
18707TIP3   OH277611   2.104   4.449   4.651
18707TIP3    H177612   2.164   4.406   4.712
18707TIP3    H277613   2.127   4.412   4.566
18708TIP3   OH277614   2.586   4.594   4.611
18708TIP3    H177615   2.668   4.556   4.642
18708TIP3    H277616   2.546   4.525   4.558
18709TIP3   OH277617   3.731   4.272   5.160
18709TIP3    H177618   3.656   4.329   5.144
18709TIP3    H277619   3.754   4.288   5.251
18710TIP3   OH277620   2.315   4.110   5.002
18710TIP3    H177621   2.293   4.173   4.933
18710TIP3    H277622   2.242   4.115   5.063
18711TIP3   OH277623   3.051   5.064   4.312
18711TIP3    H177624   3.028   5.056   4.220
18711TIP3    H277625   3.003   5.141   4.343
18712TIP3   OH277626   2.585   4.886   4.969
18712TIP3    H177627   2.532   4.958   5.004
18712TIP3    H277628   2.657   4.930   4.923
18713TIP3   OH277629   3.354   4.124   4.684
18713TIP3    H177630   3.279   4.120   4.743
18713TIP3    H277631   3.407   4.197   4.718
18714TIP3   OH277632   2.284   4.281   4.786
18714TIP3    H177633   2.339   4.340   4.837
18714TIP3    H277634   2.343   4.244   4.719
18715TIP3   OH277635   2.428   5.087   5.082
18715TIP3    H177636   2.439   5.182   5.079
18715TIP3    H277637   2.335   5.074   5.103
18716TIP3   OH277638   1.998   5.070   4.169
18716TIP3    H177639   1.984   5.119   4.088
18716TIP3    H277640   2.022   5.138   4.233
18717TIP3   OH277641   3.370   5.228   4.845
18717TIP3    H177642   3.275   5.232   4.856
18717TIP3    H277643   3.396   5.318   4.825
18718TIP3   OH277644   3.430   3.997   5.015
18718TIP3    H177645   3.365   4.049   4.968
18718TIP3    H277646   3.514   4.029   4.983
18719TIP3   OH277647   2.665   3.804   4.744
18719TIP3    H177648   2.648   3.710   4.752
18719TIP3    H277649   2.585   3.845   4.777
18720TIP3   OH277650   3.198   5.375   4.454
18720TIP3    H177651   3.238   5.290   4.438
18720TIP3    H277652   3.272   5.435   4.466
18721TIP3   OH277653   3.312   5.135   4.391
18721TIP3    H177654   3.233   5.092   4.359
18721TIP3    H277655   3.333   5.090   4.472
18722TIP3   OH277656   3.472   4.980   5.214
18722TIP3    H177657   3.468   4.932   5.131
18722TIP3    H277658   3.480   5.072   5.188
18723TIP3   OH277659   2.927   4.705   4.210
18723TIP3    H177660   2.860   4.767   4.182
18723TIP3    H277661   2.999   4.717   4.147
18724TIP3   OH277662   2.951   4.605   3.870
18724TIP3    H177663   3.001   4.630   3.948
18724TIP3    H277664   3.005   4.539   3.827
18725TIP3   OH277665   3.637   4.669   5.027
18725TIP3    H177666   3.571   4.737   5.011
18725TIP3    H277667   3.708   4.691   4.967
18726TIP3   OH277668   3.295   4.737   4.273
18726TIP3    H177669   3.227   4.763   4.335
18726TIP3    H277670   3.363   4.696   4.327
18727TIP3   OH277671   3.256   4.553   5.209
18727TIP3    H177672   3.265   4.643   5.242
18727TIP3    H277673   3.186   4.558   5.145
18728TIP3   OH277674   2.456   4.789   4.460
18728TIP3    H177675   2.429   4.746   4.378
18728TIP3    H277676   2.509   4.724   4.505
18729TIP3   OH277677   2.615   5.134   4.731
18729TIP3    H177678   2.617   5.144   4.636
18729TIP3    H277679   2.690   5.079   4.752
18730TIP3   OH277680   2.447   4.693   4.831
18730TIP3    H177681   2.503   4.665   4.759
18730TIP3    H277682   2.498   4.759   4.878
18731TIP3   OH277683   3.103   5.250   4.895
18731TIP3    H177684   3.089   5.318   4.961
18731TIP3    H277685   3.070   5.170   4.936
18732TIP3   OH277686   2.593   5.082   5.310
18732TIP3    H177687   2.533   5.143   5.352
18732TIP3    H277688   2.549   5.057   5.228
18733TIP3   OH277689   3.160   4.656   4.050
18733TIP3    H177690   3.212   4.689   4.123
18733TIP3    H277691   3.212   4.674   3.972
18734TIP3   OH277692   2.243   4.696   5.275
18734TIP3    H177693   2.251   4.776   5.326
18734TIP3    H277694   2.152   4.695   5.247
18735TIP3   OH277695   2.942   5.310   4.373
18735TIP3    H177696   3.023   5.342   4.412
18735TIP3    H277697   2.902   5.388   4.333
18736TIP3   OH277698   2.401   5.256   5.378
18736TIP3    H177699   2.399   5.308   5.297
18736TIP3    H277700   2.312   5.265   5.414
18737TIP3   OH277701   3.524   3.813   4.028
18737TIP3    H177702   3.440   3.839   4.065
18737TIP3    H277703   3.563   3.894   3.997
18738TIP3   OH277704   2.357   4.697   4.208
18738TIP3    H177705   2.298   4.767   4.177
18738TIP3    H277706   2.302   4.619   4.212
18739TIP3   OH277707   3.669   5.252   3.900
18739TIP3    H177708   3.675   5.347   3.902
18739TIP3    H277709   3.759   5.222   3.893
18740TIP3   OH277710   1.936   4.951   5.146
18740TIP3    H177711   1.880   4.958   5.069
18740TIP3    H277712   1.943   4.857   5.163
18741TIP3   OH277713   1.916   5.246   4.828
18741TIP3    H177714   1.991   5.255   4.886
18741TIP3    H277715   1.862   5.324   4.847
18742TIP3   OH277716   3.746   5.318   5.380
18742TIP3    H177717   3.734   5.224   5.372
18742TIP3    H277718   3.662   5.351   5.413
18743TIP3   OH277719   2.821   5.228   5.259
18743TIP3    H177720   2.818   5.309   5.310
18743TIP3    H277721   2.738   5.184   5.278
18744TIP3   OH277722   2.915   5.580   4.245
18744TIP3    H177723   2.886   5.584   4.154
18744TIP3    H277724   2.880   5.659   4.285
18745TIP3   OH277725   2.253   5.473   4.434
18745TIP3    H177726   2.272   5.440   4.522
18745TIP3    H277727   2.197   5.407   4.395
18746TIP3   OH277728   3.203   5.548   3.928
18746TIP3    H177729   3.252   5.475   3.890
18746TIP3    H277730   3.211   5.536   4.022
18747TIP3   OH277731   3.181   5.523   4.206
18747TIP3    H177732   3.087   5.539   4.219
18747TIP3    H277733   3.203   5.458   4.272
18748TIP3   OH277734   3.431   4.414   5.400
18748TIP3    H177735   3.368   4.454   5.341
18748TIP3    H277736   3.437   4.323   5.371
18749TIP3   OH277737   2.162   5.104   5.174
18749TIP3    H177738   2.174   5.097   5.269
18749TIP3    H277739   2.084   5.053   5.155
18750TIP3   OH277740   2.422   3.914   4.833
18750TIP3    H177741   2.344   3.904   4.778
18750TIP3    H277742   2.400   3.984   4.894
18751TIP3   OH277743   2.912   3.881   5.201
18751TIP3    H177744   2.960   3.831   5.266
18751TIP3    H277745   2.820   3.871   5.226
18752TIP3   OH277746   3.184   4.274   5.240
18752TIP3    H177747   3.146   4.267   5.327
18752TIP3    H277748   3.198   4.368   5.227
18753TIP3   OH277749   3.297   4.678   3.811
18753TIP3    H177750   3.284   4.708   3.722
18753TIP3    H277751   3.386   4.706   3.833
18754TIP3   OH277752   2.852   4.133   3.908
18754TIP3    H177753   2.806   4.119   3.990
18754TIP3    H277754   2.819   4.065   3.850
18755TIP3   OH277755   2.430   4.443   4.951
18755TIP3    H177756   2.365   4.443   5.021
18755TIP3    H277757   2.432   4.533   4.919
18756TIP3   OH277758   2.434   4.432   4.439
18756TIP3    H177759   2.339   4.423   4.436
18756TIP3    H277760   2.463   4.415   4.350
18757TIP3   OH277761   2.985   4.456   4.312
18757TIP3    H177762   2.962   4.544   4.284
18757TIP3    H277763   3.057   4.430   4.255
18758TIP3   OH277764   2.915   4.490   5.457
18758TIP3    H177765   2.849   4.423   5.479
18758TIP3    H277766   2.998   4.444   5.461
18759TIP3   OH277767   3.099   4.401   4.566
18759TIP3    H177768   3.048   4.441   4.496
18759TIP3    H277769   3.146   4.329   4.524
18760TIP3   OH277770   2.217   4.431   5.127
18760TIP3    H177771   2.212   4.476   5.211
18760TIP3    H277772   2.175   4.346   5.143
18761TIP3   OH277773   2.510   4.145   3.789
18761TIP3    H177774   2.499   4.157   3.884
18761TIP3    H277775   2.471   4.223   3.750
18762TIP3   OH277776   1.911   4.139   4.522
18762TIP3    H177777   1.949   4.137   4.610
18762TIP3    H277778   1.948   4.217   4.481
18763TIP3   OH277779   1.923   4.222   4.015
18763TIP3    H177780   1.987   4.268   3.961
18763TIP3    H277781   1.863   4.290   4.046
18764TIP3   OH277782   3.033   4.542   5.037
18764TIP3    H177783   3.063   4.484   4.967
18764TIP3    H277784   2.970   4.489   5.087
18765TIP3   OH277785   2.716   4.190   4.527
18765TIP3    H177786   2.629   4.182   4.565
18765TIP3    H277787   2.767   4.121   4.570
18766TIP3   OH277788   2.174   4.344   4.408
18766TIP3    H177789   2.102   4.371   4.351
18766TIP3    H277790   2.193   4.254   4.382
18767TIP3   OH277791   2.499   4.357   4.183
18767TIP3    H177792   2.593   4.354   4.204
18767TIP3    H277793   2.496   4.395   4.095
18768TIP3   OH277794   3.145   4.090   4.856
18768TIP3    H177795   3.092   4.095   4.935
18768TIP3    H277796   3.110   4.014   4.809
18769TIP3   OH277797   2.481   4.428   3.919
18769TIP3    H177798   2.424   4.419   3.842
18769TIP3    H277799   2.551   4.487   3.890
18770TIP3   OH277800   3.473   5.672   5.525
18770TIP3    H177801   3.482   5.741   5.459
18770TIP3    H277802   3.547   5.686   5.585
18771TIP3   OH277803   2.225   4.931   5.439
18771TIP3    H177804   2.258   5.019   5.460
18771TIP3    H277805   2.143   4.924   5.488
18772TIP3   OH277806   2.811   4.478   4.731
18772TIP3    H177807   2.877   4.421   4.692
18772TIP3    H277808   2.772   4.426   4.801
18773TIP3   OH277809   2.273   4.080   4.376
18773TIP3    H177810   2.222   4.003   4.402
18773TIP3    H277811   2.328   4.049   4.304
18774TIP3   OH277812   2.688   4.341   4.944
18774TIP3    H177813   2.604   4.386   4.954
18774TIP3    H277814   2.739   4.367   5.021
18775TIP3   OH277815   2.735   4.888   4.128
18775TIP3    H177816   2.664   4.860   4.071
18775TIP3    H277817   2.692   4.927   4.204
18776TIP3   OH277818   3.455   4.867   4.964
18776TIP3    H177819   3.518   4.920   4.916
18776TIP3    H277820   3.384   4.851   4.900
18777TIP3   OH277821   3.114   4.225   3.911
18777TIP3    H177822   3.022   4.202   3.921
18777TIP3    H277823   3.135   4.275   3.991
18778TIP3   OH277824   2.929   4.961   5.260
18778TIP3    H177825   2.867   4.907   5.309
18778TIP3    H277826   2.895   5.050   5.269
18779TIP3   OH277827   3.193   4.377   4.133
18779TIP3    H177828   3.279   4.357   4.171
18779TIP3    H277829   3.201   4.468   4.104
18780TIP3   OH277830   2.270   4.831   4.663
18780TIP3    H177831   2.331   4.828   4.589
18780TIP3    H277832   2.312   4.779   4.731
18781TIP3   OH277833   2.942   5.051   4.053
18781TIP3    H177834   2.908   5.141   4.058
18781TIP3    H277835   2.867   4.996   4.077
18782TIP3   OH277836   1.967   4.676   5.219
18782TIP3    H177837   1.932   4.636   5.299
18782TIP3    H277838   1.901   4.658   5.152
18783TIP3   OH277839   2.712   4.680   5.418
18783TIP3    H177840   2.643   4.628   5.376
18783TIP3    H277841   2.786   4.619   5.428
18784TIP3   OH277842   3.101   5.250   5.275
18784TIP3    H177843   3.009   5.244   5.252
18784TIP3    H277844   3.104   5.234   5.370
18785TIP3   OH277845   3.690   4.433   3.978
18785TIP3    H177846   3.612   4.428   3.923
18785TIP3    H277847   3.690   4.523   4.011
18786TIP3   OH277848   3.710   5.043   5.357
18786TIP3    H177849   3.619   5.022   5.336
18786TIP3    H277850   3.760   5.009   5.283
18787TIP3   OH277851   3.534   5.279   4.165
18787TIP3    H177852   3.476   5.215   4.206
18787TIP3    H277853   3.557   5.241   4.081
18788TIP3   OH277854   3.241   4.799   4.785
18788TIP3    H177855   3.146   4.789   4.781
18788TIP3    H277856   3.275   4.718   4.749
18789TIP3   OH277857   2.528   5.219   4.475
18789TIP3    H177858   2.541   5.304   4.433
18789TIP3    H277859   2.441   5.226   4.516
18790TIP3   OH277860   2.089   4.663   3.935
18790TIP3    H177861   2.132   4.733   3.983
18790TIP3    H277862   1.997   4.670   3.960
18791TIP3   OH277863   2.583   4.998   4.323
18791TIP3    H177864   2.574   5.078   4.374
18791TIP3    H277865   2.539   4.931   4.375
18792TIP3   OH277866   2.719   5.387   5.042
18792TIP3    H177867   2.774   5.463   5.024
18792TIP3    H277868   2.772   5.332   5.099
18793TIP3   OH277869   2.518   5.473   4.358
18793TIP3    H177870   2.425   5.489   4.377
18793TIP3    H277871   2.563   5.549   4.395
18794TIP3   OH277872   3.027   5.004   5.006
18794TIP3    H177873   2.996   4.989   5.095
18794TIP3    H277874   3.093   4.936   4.992
18795TIP3   OH277875   3.306   5.097   3.910
18795TIP3    H177876   3.329   5.044   3.986
18795TIP3    H277877   3.217   5.069   3.888
18796TIP3   OH277878   3.317   5.409   5.228
18796TIP3    H177879   3.235   5.359   5.235
18796TIP3    H277880   3.297   5.480   5.167
18797TIP3   OH277881   3.696   5.527   3.915
18797TIP3    H177882   3.730   5.593   3.856
18797TIP3    H277883   3.624   5.571   3.961
18798TIP3   OH277884   2.094   4.178   5.164
18798TIP3    H177885   2.003   4.208   5.157
18798TIP3    H277886   2.096   4.122   5.242
18799TIP3   OH277887   3.399   4.938   4.111
18799TIP3    H177888   3.357   4.876   4.171
18799TIP3    H277889   3.492   4.935   4.135
18800TIP3   OH277890   2.107   5.341   5.018
18800TIP3    H177891   2.133   5.264   5.069
18800TIP3    H277892   2.111   5.414   5.079
18801TIP3   OH277893   2.672   5.186   3.784
18801TIP3    H177894   2.676   5.101   3.741
18801TIP3    H277895   2.634   5.167   3.870
18802TIP3   OH277896   2.540   5.159   4.031
18802TIP3    H177897   2.560   5.113   4.113
18802TIP3    H277898   2.551   5.252   4.053
18803TIP3   OH277899   2.184   4.878   4.087
18803TIP3    H177900   2.116   4.928   4.132
18803TIP3    H277901   2.231   4.943   4.035
18804TIP3   OH277902   3.007   4.119   5.093
18804TIP3    H177903   3.075   4.154   5.151
18804TIP3    H277904   2.978   4.039   5.137
18805TIP3   OH277905   3.104   4.086   4.243
18805TIP3    H177906   3.111   4.156   4.178
18805TIP3    H277907   3.148   4.121   4.321
18806TIP3   OH277908   2.841   5.302   4.062
18806TIP3    H177909   2.753   5.332   4.085
18806TIP3    H277910   2.887   5.382   4.036
18807TIP3   OH277911   2.753   4.308   4.284
18807TIP3    H177912   2.831   4.363   4.292
18807TIP3    H277913   2.739   4.272   4.371
18808TIP3   OH277914   2.866   4.358   5.160
18808TIP3    H177915   2.852   4.351   5.254
18808TIP3    H277916   2.904   4.274   5.135
18809TIP3   OH277917   2.874   3.958   4.336
18809TIP3    H177918   2.875   3.975   4.430
18809TIP3    H277919   2.953   4.001   4.303
18810TIP3   OH277920   2.595   5.418   4.102
18810TIP3    H177921   2.603   5.503   4.059
18810TIP3    H277922   2.566   5.439   4.191
18811TIP3   OH277923   2.448   4.112   4.063
18811TIP3    H177924   2.439   4.197   4.108
18811TIP3    H277925   2.534   4.080   4.091
18812TIP3   OH277926   3.436   4.166   5.263
18812TIP3    H177927   3.344   4.188   5.250
18812TIP3    H277928   3.458   4.111   5.188
18813TIP3   OH277929   3.319   4.549   4.683
18813TIP3    H177930   3.241   4.505   4.647
18813TIP3    H277931   3.364   4.480   4.732
18814TIP3   OH277932   2.295   5.078   3.927
18814TIP3    H177933   2.368   5.124   3.968
18814TIP3    H277934   2.335   5.026   3.858
18815TIP3   OH277935   2.066   4.395   3.853
18815TIP3    H177936   2.093   4.476   3.897
18815TIP3    H277937   2.025   4.424   3.772
18816TIP3   OH277938   3.453   5.496   4.827
18816TIP3    H177939   3.432   5.573   4.774
18816TIP3    H277940   3.544   5.509   4.854
18817TIP3   OH277941   2.175   3.884   4.710
18817TIP3    H177942   2.167   3.875   4.615
18817TIP3    H277943   2.153   3.797   4.745
18818TIP3   OH277944   2.056   5.302   4.321
18818TIP3    H177945   2.004   5.331   4.396
18818TIP3    H277946   2.037   5.367   4.253
18819TIP3   OH277947   2.054   5.572   5.443
18819TIP3    H177948   2.111   5.552   5.517
18819TIP3    H277949   2.001   5.494   5.431
18820TIP3   OH277950   2.873   5.374   3.750
18820TIP3    H177951   2.807   5.308   3.771
18820TIP3    H277952   2.950   5.325   3.722
18821TIP3   OH277953   3.100   5.213   5.549
18821TIP3    H177954   3.086   5.130   5.594
18821TIP3    H277955   3.181   5.248   5.586
18822TIP3   OH277956   3.332   5.344   3.796
18822TIP3    H177957   3.336   5.262   3.846
18822TIP3    H277958   3.407   5.340   3.737
18823TIP3   OH277959   1.992   4.944   5.588
18823TIP3    H177960   1.944   4.950   5.671
18823TIP3    H277961   1.935   4.987   5.525
18824TIP3   OH277962   2.428   4.904   3.763
18824TIP3    H177963   2.451   4.858   3.844
18824TIP3    H277964   2.512   4.921   3.720
18825TIP3   OH277965   2.668   4.926   5.525
18825TIP3    H177966   2.646   4.978   5.448
18825TIP3    H277967   2.683   4.838   5.491
18826TIP3   OH277968   3.054   5.040   3.805
18826TIP3    H177969   3.007   5.039   3.888
18826TIP3    H277970   3.023   4.961   3.760
18827TIP3   OH277971   3.240   4.829   5.281
18827TIP3    H177972   3.315   4.888   5.270
18827TIP3    H277973   3.164   4.887   5.282
18828TIP3   OH277974   2.088   4.565   5.612
18828TIP3    H177975   2.143   4.574   5.534
18828TIP3    H277976   1.999   4.571   5.579
18829TIP3   OH277977   2.521   4.775   3.990
18829TIP3    H177978   2.474   4.737   4.065
18829TIP3    H277979   2.568   4.702   3.952
18830TIP3   OH277980   2.497   4.551   5.273
18830TIP3    H177981   2.416   4.602   5.272
18830TIP3    H277982   2.547   4.584   5.199
18831TIP3   OH277983   2.676   4.600   3.838
18831TIP3    H177984   2.676   4.631   3.748
18831TIP3    H277985   2.769   4.599   3.863
18832TIP3   OH277986   3.549   4.795   3.796
18832TIP3    H177987   3.556   4.768   3.704
18832TIP3    H277988   3.546   4.890   3.793
18833TIP3   OH277989   2.529   4.286   5.351
18833TIP3    H177990   2.539   4.229   5.275
18833TIP3    H277991   2.521   4.374   5.314
18834TIP3   OH277992   2.566   4.133   5.113
18834TIP3    H177993   2.616   4.181   5.047
18834TIP3    H277994   2.478   4.126   5.077
18835TIP3   OH277995   2.669   4.651   5.086
18835TIP3    H177996   2.764   4.656   5.091
18835TIP3    H277997   2.642   4.734   5.048
18836TIP3   OH277998   2.346   4.352   5.549
18836TIP3    H177999   2.280   4.282   5.548
18836TIP3    H278000   2.406   4.330   5.478
18837TIP3   OH278001   2.625   3.861   5.183
18837TIP3    H178002   2.605   3.953   5.166
18837TIP3    H278003   2.555   3.813   5.139
18838TIP3   OH278004   2.774   4.260   5.490
18838TIP3    H178005   2.776   4.215   5.574
18838TIP3    H278006   2.686   4.244   5.456
18839TIP3   OH278007   3.063   4.249   5.481
18839TIP3    H178008   2.971   4.227   5.496
18839TIP3    H278009   3.111   4.196   5.545
18840TIP3   OH278010   3.190   4.077   5.660
18840TIP3    H178011   3.185   3.981   5.654
18840TIP3    H278012   3.179   4.095   5.754
18841TIP3   OH278013   2.171   4.134   5.558
18841TIP3    H178014   2.173   4.059   5.498
18841TIP3    H278015   2.149   4.096   5.643
18842TIP3   OH278016   2.684   3.764   5.438
18842TIP3    H178017   2.620   3.702   5.471
18842TIP3    H278018   2.651   3.788   5.351
18843TIP3   OH278019   2.629   3.974   5.610
18843TIP3    H178020   2.676   3.911   5.555
18843TIP3    H278021   2.537   3.946   5.605
18844TIP3   OH278022   2.676   5.656   3.983
18844TIP3    H178023   2.766   5.624   3.970
18844TIP3    H278024   2.664   5.721   3.914
18845TIP3   OH278025   2.037   5.142   3.858
18845TIP3    H178026   2.125   5.128   3.891
18845TIP3    H278027   2.019   5.064   3.805
18846TIP3   OH278028   1.893   5.618   4.433
18846TIP3    H178029   1.836   5.588   4.362
18846TIP3    H278030   1.910   5.540   4.485
18847TIP3   OH278031   1.965   5.394   4.581
18847TIP3    H178032   1.929   5.319   4.628
18847TIP3    H278033   2.014   5.443   4.647
18848TIP3   OH278034   3.717   5.579   4.878
18848TIP3    H178035   3.693   5.562   4.969
18848TIP3    H278036   3.813   5.575   4.877
18849TIP3   OH278037   3.652   5.467   5.132
18849TIP3    H178038   3.600   5.388   5.115
18849TIP3    H278039   3.709   5.443   5.205
18850TIP3   OH278040   3.512   5.060   5.730
18850TIP3    H178041   3.429   5.079   5.774
18850TIP3    H278042   3.564   5.139   5.743
18851TIP3   OH278043   3.665   4.912   4.186
18851TIP3    H178044   3.741   4.971   4.183
18851TIP3    H278045   3.682   4.856   4.262
18852TIP3   OH278046   3.729   4.733   4.381
18852TIP3    H178047   3.650   4.689   4.413
18852TIP3    H278048   3.789   4.733   4.456
18853TIP3   OH278049   3.703   4.979   4.891
18853TIP3    H178050   3.750   4.905   4.854
18853TIP3    H278051   3.752   5.056   4.860
18854TIP3   OH278052   3.489   5.238   5.100
18854TIP3    H178053   3.422   5.289   5.144
18854TIP3    H278054   3.454   5.223   5.012
18855TIP3   OH278055   3.702   4.708   4.005
18855TIP3    H178056   3.646   4.734   3.932
18855TIP3    H278057   3.684   4.773   4.073
18856TIP3   OH278058   3.494   4.403   3.784
18856TIP3    H178059   3.478   4.435   3.695
18856TIP3    H278060   3.498   4.308   3.775
18857TIP3   OH278061   3.465   4.619   4.454
18857TIP3    H178062   3.520   4.540   4.452
18857TIP3    H278063   3.415   4.610   4.535
18858TIP3   OH278064   1.947   4.762   4.835
18858TIP3    H178065   1.963   4.750   4.741
18858TIP3    H278066   2.026   4.729   4.877
18859TIP3   OH278067   3.559   4.745   5.456
18859TIP3    H178068   3.610   4.669   5.426
18859TIP3    H278069   3.541   4.795   5.376
18860TIP3   OH278070   3.684   4.511   5.369
18860TIP3    H178071   3.598   4.472   5.386
18860TIP3    H278072   3.746   4.448   5.406
18861TIP3   OH278073   3.482   4.136   3.705
18861TIP3    H178074   3.518   4.094   3.783
18861TIP3    H278075   3.390   4.111   3.704
18862TIP3   OH278076   3.436   4.299   4.257
18862TIP3    H178077   3.473   4.213   4.239
18862TIP3    H278078   3.504   4.345   4.307
18863TIP3   OH278079   3.467   4.341   4.821
18863TIP3    H178080   3.560   4.342   4.798
18863TIP3    H278081   3.465   4.366   4.913
18864TIP3   OH278082   3.500   4.440   5.079
18864TIP3    H178083   3.423   4.475   5.125
18864TIP3    H278084   3.557   4.516   5.068
18865TIP3   OH278085   1.993   4.307   5.435
18865TIP3    H178086   2.059   4.261   5.487
18865TIP3    H278087   1.925   4.241   5.420
18866TIP3   OH278088   3.642   3.881   5.659
18866TIP3    H178089   3.715   3.851   5.714
18866TIP3    H278090   3.682   3.941   5.596
18867TIP3   OH278091   3.519   4.034   4.260
18867TIP3    H178092   3.545   3.998   4.345
18867TIP3    H278093   3.446   3.980   4.232
18868TIP3   OH278094   2.046   4.126   4.762
18868TIP3    H178095   2.087   4.039   4.757
18868TIP3    H278096   2.119   4.186   4.779
18869TIP3   OH278097   1.873   4.430   4.805
18869TIP3    H178098   1.948   4.435   4.747
18869TIP3    H278099   1.893   4.491   4.877
18870TIP3   OH278100   3.656   4.065   5.453
18870TIP3    H178101   3.583   4.097   5.506
18870TIP3    H278102   3.615   4.031   5.373
18871TIP3   OH278103   3.640   4.032   3.905
18871TIP3    H178104   3.693   3.974   3.852
18871TIP3    H278105   3.704   4.088   3.951
18872TIP3   OH278106   1.924   3.990   4.166
18872TIP3    H178107   1.848   3.993   4.224
18872TIP3    H278108   1.932   4.079   4.132
18873TIP3   OH278109   3.402   5.552   4.452
18873TIP3    H178110   3.466   5.551   4.381
18873TIP3    H278111   3.418   5.635   4.498
18874TIP3   OH278112   1.897   3.865   5.047
18874TIP3    H178113   1.833   3.854   5.117
18874TIP3    H278114   1.871   3.945   5.002
18875TIP3   OH278115   2.150   5.233   5.487
18875TIP3    H178116   2.059   5.261   5.480
18875TIP3    H278117   2.169   5.237   5.581
18876TIP3   OH278118   2.456   5.363   5.120
18876TIP3    H178119   2.422   5.450   5.100
18876TIP3    H278120   2.549   5.368   5.099
18877TIP3   OH278121   2.832   5.461   5.405
18877TIP3    H178122   2.839   5.416   5.490
18877TIP3    H278123   2.914   5.510   5.397
18878TIP3   OH278124   3.059   5.613   5.379
18878TIP3    H178125   3.131   5.568   5.334
18878TIP3    H278126   3.098   5.643   5.461
18879TIP3   OH278127   3.574   3.847   5.236
18879TIP3    H178128   3.506   3.867   5.172
18879TIP3    H278129   3.593   3.754   5.223
18880TIP3   OH278130   2.124   5.611   5.146
18880TIP3    H178131   2.057   5.666   5.107
18880TIP3    H278132   2.101   5.606   5.239
18881TIP3   OH278133   2.393   5.627   5.061
18881TIP3    H178134   2.301   5.630   5.085
18881TIP3    H278135   2.397   5.672   4.976
18882TIP3   OH278136   2.852   5.615   4.960
18882TIP3    H178137   2.795   5.654   4.893
18882TIP3    H278138   2.864   5.684   5.025
18883TIP3   OH278139   3.077   5.480   5.038
18883TIP3    H178140   3.000   5.529   5.008
18883TIP3    H278141   3.148   5.545   5.035
18884TIP3   OH278142   3.317   5.616   5.038
18884TIP3    H178143   3.349   5.705   5.027
18884TIP3    H278144   3.359   5.566   4.969
18885TIP3   OH278145   2.121   5.505   4.789
18885TIP3    H178146   2.105   5.458   4.871
18885TIP3    H278147   2.200   5.466   4.753
18886TIP3   OH278148   2.337   5.378   4.680
18886TIP3    H178149   2.323   5.286   4.702
18886TIP3    H278150   2.421   5.400   4.721
18887TIP3   OH278151   2.592   5.408   4.795
18887TIP3    H178152   2.605   5.318   4.765
18887TIP3    H278153   2.626   5.408   4.884
18888TIP3   OH278154   2.855   3.964   4.612
18888TIP3    H178155   2.801   3.910   4.670
18888TIP3    H278156   2.944   3.934   4.629
18889TIP3   OH278157   3.424   3.850   4.646
18889TIP3    H178158   3.503   3.871   4.597
18889TIP3    H278159   3.391   3.934   4.677
18890TIP3   OH278160   3.629   3.920   4.486
18890TIP3    H178161   3.686   3.847   4.461
18890TIP3    H278162   3.689   3.993   4.502
18891TIP3   OH278163   2.150   3.837   4.437
18891TIP3    H178164   2.057   3.817   4.425
18891TIP3    H278165   2.193   3.751   4.435
18892TIP3   OH278166   2.049   3.851   3.965
18892TIP3    H178167   2.116   3.912   3.936
18892TIP3    H278168   2.008   3.894   4.041
18893TIP3   OH278169   2.630   3.821   4.457
18893TIP3    H178170   2.702   3.876   4.428
18893TIP3    H278171   2.639   3.818   4.553
18894TIP3   OH278172   3.109   3.866   4.644
18894TIP3    H178173   3.191   3.864   4.596
18894TIP3    H278174   3.092   3.774   4.665
18895TIP3   OH278175   3.298   3.893   4.170
18895TIP3    H178176   3.226   3.954   4.190
18895TIP3    H278177   3.261   3.806   4.185
18896TIP3   OH278178   2.018   5.480   4.112
18896TIP3    H178179   1.943   5.476   4.054
18896TIP3    H278180   2.048   5.571   4.107
18897TIP3   OH278181   2.263   4.012   3.877
18897TIP3    H178182   2.332   4.025   3.812
18897TIP3    H278183   2.301   4.044   3.959
18898TIP3   OH278184   2.713   4.078   4.142
18898TIP3    H178185   2.756   4.016   4.202
18898TIP3    H278186   2.723   4.163   4.185
18899TIP3   OH278187   2.927   5.548   3.954
18899TIP3    H178188   3.021   5.565   3.944
18899TIP3    H278189   2.904   5.498   3.875
18900TIP3   OH278190   3.591   5.532   4.253
18900TIP3    H178191   3.572   5.443   4.223
18900TIP3    H278192   3.573   5.587   4.177
18901TIP3   OH278193   2.169   3.901   5.396
18901TIP3    H178194   2.113   3.827   5.420
18901TIP3    H278195   2.253   3.883   5.439
18902TIP3   OH278196   2.382   3.839   5.568
18902TIP3    H178197   2.372   3.747   5.542
18902TIP3    H278198   2.349   3.842   5.658
18903TIP3   OH278199   2.223   5.514   3.806
18903TIP3    H178200   2.197   5.511   3.899
18903TIP3    H278201   2.300   5.457   3.801
18904TIP3   OH278202   3.212   3.797   5.612
18904TIP3    H178203   3.224   3.751   5.695
18904TIP3    H278204   3.298   3.791   5.570
18905TIP3   OH278205   3.494   5.411   5.443
18905TIP3    H178206   3.432   5.403   5.370
18905TIP3    H278207   3.484   5.502   5.472
18906TIP3   OH278208   4.964   4.804   4.418
18906TIP3    H178209   4.954   4.899   4.410
18906TIP3    H278210   4.894   4.768   4.364
18907TIP3   OH278211   4.848   4.720   4.817
18907TIP3    H178212   4.871   4.675   4.899
18907TIP3    H278213   4.803   4.654   4.765
18908TIP3   OH278214   4.050   4.661   4.979
18908TIP3    H178215   4.049   4.572   5.016
18908TIP3    H278216   4.103   4.712   5.041
18909TIP3   OH278217   5.226   5.025   4.645
18909TIP3    H178218   5.192   4.949   4.693
18909TIP3    H278219   5.248   5.089   4.713
18910TIP3   OH278220   4.185   5.112   4.751
18910TIP3    H178221   4.163   5.022   4.726
18910TIP3    H278222   4.277   5.108   4.776
18911TIP3   OH278223   3.890   4.504   4.299
18911TIP3    H178224   3.857   4.594   4.293
18911TIP3    H278225   3.818   4.454   4.336
18912TIP3   OH278226   3.925   4.726   4.583
18912TIP3    H178227   3.956   4.636   4.597
18912TIP3    H278228   4.001   4.780   4.602
18913TIP3   OH278229   4.963   5.477   4.697
18913TIP3    H178230   4.999   5.427   4.624
18913TIP3    H278231   4.953   5.412   4.767
18914TIP3   OH278232   4.691   4.967   4.831
18914TIP3    H178233   4.732   4.887   4.799
18914TIP3    H278234   4.757   5.008   4.886
18915TIP3   OH278235   5.571   4.105   4.914
18915TIP3    H178236   5.585   4.168   4.985
18915TIP3    H278237   5.640   4.125   4.850
18916TIP3   OH278238   4.976   4.372   4.832
18916TIP3    H178239   4.998   4.280   4.848
18916TIP3    H278240   4.976   4.381   4.737
18917TIP3   OH278241   4.390   4.196   4.603
18917TIP3    H178242   4.380   4.277   4.553
18917TIP3    H278243   4.337   4.132   4.555
18918TIP3   OH278244   5.123   4.221   4.412
18918TIP3    H178245   5.164   4.193   4.494
18918TIP3    H278246   5.195   4.261   4.362
18919TIP3   OH278247   3.988   4.466   4.654
18919TIP3    H178248   3.903   4.437   4.687
18919TIP3    H278249   3.998   4.423   4.570
18920TIP3   OH278250   4.485   4.593   4.598
18920TIP3    H178251   4.570   4.557   4.624
18920TIP3    H278252   4.444   4.523   4.548
18921TIP3   OH278253   5.592   4.251   5.149
18921TIP3    H178254   5.530   4.321   5.133
18921TIP3    H278255   5.557   4.206   5.226
18922TIP3   OH278256   4.200   4.151   5.010
18922TIP3    H178257   4.145   4.186   4.940
18922TIP3    H278258   4.140   4.138   5.084
18923TIP3   OH278259   4.930   5.060   4.314
18923TIP3    H178260   4.912   5.056   4.220
18923TIP3    H278261   4.887   5.140   4.343
18924TIP3   OH278262   4.467   4.878   4.971
18924TIP3    H178263   4.415   4.948   5.012
18924TIP3    H278264   4.538   4.923   4.927
18925TIP3   OH278265   5.217   4.182   4.664
18925TIP3    H178266   5.156   4.148   4.730
18925TIP3    H278267   5.278   4.236   4.714
18926TIP3   OH278268   4.134   4.252   4.753
18926TIP3    H178269   4.105   4.343   4.753
18926TIP3    H278270   4.133   4.227   4.660
18927TIP3   OH278271   4.322   5.083   5.093
18927TIP3    H178272   4.332   5.178   5.089
18927TIP3    H278273   4.230   5.070   5.117
18928TIP3   OH278274   3.893   5.071   4.152
18928TIP3    H178275   3.888   5.111   4.066
18928TIP3    H278276   3.925   5.141   4.209
18929TIP3   OH278277   5.256   5.227   4.845
18929TIP3    H178278   5.161   5.235   4.853
18929TIP3    H278279   5.285   5.314   4.818
18930TIP3   OH278280   5.322   4.007   5.002
18930TIP3    H178281   5.257   4.046   4.943
18930TIP3    H278282   5.406   4.029   4.963
18931TIP3   OH278283   4.570   3.800   4.752
18931TIP3    H178284   4.540   3.709   4.759
18931TIP3    H278285   4.492   3.852   4.773
18932TIP3   OH278286   5.080   5.358   4.479
18932TIP3    H178287   5.125   5.278   4.452
18932TIP3    H278288   5.146   5.427   4.470
18933TIP3   OH278289   5.194   5.124   4.390
18933TIP3    H178290   5.110   5.086   4.365
18933TIP3    H278291   5.215   5.083   4.473
18934TIP3   OH278292   5.375   4.988   5.214
18934TIP3    H178293   5.364   4.934   5.136
18934TIP3    H278294   5.381   5.078   5.180
18935TIP3   OH278295   4.815   4.714   4.199
18935TIP3    H178296   4.748   4.776   4.171
18935TIP3    H278297   4.886   4.726   4.135
18936TIP3   OH278298   4.842   4.606   3.861
18936TIP3    H178299   4.897   4.631   3.936
18936TIP3    H278300   4.893   4.538   3.817
18937TIP3   OH278301   5.539   4.671   5.029
18937TIP3    H178302   5.467   4.732   5.018
18937TIP3    H278303   5.602   4.695   4.961
18938TIP3   OH278304   5.184   4.730   4.272
18938TIP3    H178305   5.117   4.757   4.335
18938TIP3    H278306   5.251   4.686   4.326
18939TIP3   OH278307   5.143   4.533   5.213
18939TIP3    H178308   5.133   4.595   5.286
18939TIP3    H278309   5.077   4.560   5.149
18940TIP3   OH278310   4.336   4.786   4.463
18940TIP3    H178311   4.307   4.745   4.382
18940TIP3    H278312   4.393   4.722   4.505
18941TIP3   OH278313   4.478   5.135   4.735
18941TIP3    H178314   4.485   5.143   4.639
18941TIP3    H278315   4.553   5.082   4.760
18942TIP3   OH278316   4.343   4.683   4.820
18942TIP3    H178317   4.403   4.665   4.747
18942TIP3    H278318   4.387   4.750   4.872
18943TIP3   OH278319   4.987   5.253   4.893
18943TIP3    H178320   4.974   5.318   4.962
18943TIP3    H278321   4.954   5.171   4.930
18944TIP3   OH278322   4.476   5.089   5.333
18944TIP3    H178323   4.412   5.148   5.373
18944TIP3    H278324   4.433   5.058   5.254
18945TIP3   OH278325   5.049   4.673   4.039
18945TIP3    H178326   5.102   4.704   4.113
18945TIP3    H278327   5.105   4.687   3.963
18946TIP3   OH278328   4.157   4.732   5.237
18946TIP3    H178329   4.172   4.803   5.300
18946TIP3    H278330   4.064   4.711   5.246
18947TIP3   OH278331   4.832   5.313   4.367
18947TIP3    H178332   4.911   5.335   4.418
18947TIP3    H278333   4.802   5.398   4.333
18948TIP3   OH278334   4.280   5.275   5.382
18948TIP3    H178335   4.292   5.317   5.297
18948TIP3    H278336   4.186   5.281   5.399
18949TIP3   OH278337   5.416   3.814   4.033
18949TIP3    H178338   5.329   3.833   4.071
18949TIP3    H278339   5.453   3.900   4.013
18950TIP3   OH278340   4.242   4.690   4.213
18950TIP3    H178341   4.181   4.756   4.179
18950TIP3    H278342   4.191   4.609   4.214
18951TIP3   OH278343   5.552   5.248   3.903
18951TIP3    H178344   5.560   5.343   3.904
18951TIP3    H278345   5.641   5.216   3.889
18952TIP3   OH278346   3.841   4.932   5.144
18952TIP3    H178347   3.788   4.929   5.064
18952TIP3    H278348   3.852   4.840   5.169
18953TIP3   OH278349   3.892   5.195   4.823
18953TIP3    H178350   3.977   5.160   4.799
18953TIP3    H278351   3.907   5.243   4.904
18954TIP3   OH278352   5.629   5.333   5.425
18954TIP3    H178353   5.631   5.239   5.408
18954TIP3    H278354   5.540   5.349   5.456
18955TIP3   OH278355   4.702   5.228   5.257
18955TIP3    H178356   4.711   5.305   5.313
18955TIP3    H278357   4.621   5.186   5.286
18956TIP3   OH278358   4.801   5.570   4.246
18956TIP3    H178359   4.788   5.587   4.153
18956TIP3    H278360   4.776   5.652   4.289
18957TIP3   OH278361   4.129   5.468   4.438
18957TIP3    H178362   4.151   5.433   4.524
18957TIP3    H278363   4.073   5.401   4.399
18958TIP3   OH278364   5.079   5.543   3.927
18958TIP3    H178365   5.126   5.468   3.890
18958TIP3    H278366   5.095   5.537   4.022
18959TIP3   OH278367   5.077   5.538   4.205
18959TIP3    H178368   4.986   5.535   4.235
18959TIP3    H278369   5.129   5.519   4.283
18960TIP3   OH278370   5.336   4.389   5.400
18960TIP3    H178371   5.285   4.435   5.334
18960TIP3    H278372   5.349   4.301   5.364
18961TIP3   OH278373   4.061   5.094   5.190
18961TIP3    H178374   4.087   5.068   5.279
18961TIP3    H278375   3.984   5.040   5.171
18962TIP3   OH278376   4.335   3.962   4.821
18962TIP3    H178377   4.255   3.945   4.772
18962TIP3    H278378   4.324   3.913   4.903
18963TIP3   OH278379   4.852   3.898   5.243
18963TIP3    H178380   4.909   3.828   5.275
18963TIP3    H278381   4.770   3.885   5.290
18964TIP3   OH278382   5.086   4.264   5.223
18964TIP3    H178383   5.045   4.258   5.309
18964TIP3    H278384   5.103   4.357   5.211
18965TIP3   OH278385   5.191   4.668   3.799
18965TIP3    H178386   5.174   4.703   3.711
18965TIP3    H278387   5.279   4.700   3.820
18966TIP3   OH278388   4.737   4.123   3.895
18966TIP3    H178389   4.688   4.120   3.977
18966TIP3    H278390   4.702   4.050   3.844
18967TIP3   OH278391   4.305   4.429   4.923
18967TIP3    H178392   4.240   4.431   4.993
18967TIP3    H278393   4.306   4.519   4.889
18968TIP3   OH278394   4.335   4.412   4.445
18968TIP3    H178395   4.240   4.402   4.447
18968TIP3    H278396   4.359   4.397   4.354
18969TIP3   OH278397   4.870   4.469   4.308
18969TIP3    H178398   4.846   4.556   4.276
18969TIP3    H278399   4.939   4.440   4.248
18970TIP3   OH278400   4.760   4.433   5.401
18970TIP3    H178401   4.697   4.464   5.466
18970TIP3    H278402   4.835   4.404   5.452
18971TIP3   OH278403   4.967   4.402   4.558
18971TIP3    H178404   4.930   4.447   4.482
18971TIP3    H278405   5.014   4.327   4.521
18972TIP3   OH278406   4.101   4.420   5.119
18972TIP3    H178407   4.132   4.459   5.201
18972TIP3    H278408   4.056   4.341   5.146
18973TIP3   OH278409   4.417   4.173   3.769
18973TIP3    H178410   4.390   4.155   3.859
18973TIP3    H278411   4.358   4.242   3.739
18974TIP3   OH278412   3.809   4.118   4.527
18974TIP3    H178413   3.827   4.126   4.621
18974TIP3    H278414   3.763   4.200   4.505
18975TIP3   OH278415   3.833   4.206   4.022
18975TIP3    H178416   3.912   4.240   3.979
18975TIP3    H278417   3.776   4.283   4.030
18976TIP3   OH278418   4.920   4.548   5.032
18976TIP3    H178419   4.952   4.491   4.963
18976TIP3    H278420   4.852   4.497   5.076
18977TIP3   OH278421   4.653   4.147   4.516
18977TIP3    H178422   4.566   4.157   4.554
18977TIP3    H278423   4.704   4.103   4.584
18978TIP3   OH278424   4.069   4.337   4.424
18978TIP3    H178425   4.012   4.389   4.367
18978TIP3    H278426   4.055   4.247   4.396
18979TIP3   OH278427   4.390   4.350   4.183
18979TIP3    H178428   4.485   4.348   4.196
18979TIP3    H278429   4.379   4.392   4.098
18980TIP3   OH278430   5.022   4.097   4.844
18980TIP3    H178431   4.978   4.095   4.929
18980TIP3    H278432   4.968   4.042   4.787
18981TIP3   OH278433   4.352   4.447   3.928
18981TIP3    H178434   4.297   4.432   3.851
18981TIP3    H278435   4.429   4.492   3.893
18982TIP3   OH278436   5.363   5.655   5.485
18982TIP3    H178437   5.386   5.688   5.398
18982TIP3    H278438   5.438   5.676   5.540
18983TIP3   OH278439   4.150   4.935   5.434
18983TIP3    H178440   4.212   4.935   5.507
18983TIP3    H278441   4.064   4.928   5.476
18984TIP3   OH278442   4.726   4.483   4.697
18984TIP3    H178443   4.799   4.455   4.642
18984TIP3    H278444   4.729   4.425   4.773
18985TIP3   OH278445   4.215   4.058   4.438
18985TIP3    H178446   4.148   3.991   4.448
18985TIP3    H278447   4.254   4.041   4.352
18986TIP3   OH278448   4.541   4.297   4.965
18986TIP3    H178449   4.486   4.376   4.970
18986TIP3    H278450   4.619   4.320   5.015
18987TIP3   OH278451   4.624   4.901   4.118
18987TIP3    H178452   4.552   4.862   4.069
18987TIP3    H278453   4.584   4.931   4.200
18988TIP3   OH278454   5.344   4.858   4.972
18988TIP3    H178455   5.407   4.915   4.928
18988TIP3    H278456   5.275   4.844   4.907
18989TIP3   OH278457   4.993   4.172   3.989
18989TIP3    H178458   4.902   4.172   3.959
18989TIP3    H278459   5.007   4.260   4.024
18990TIP3   OH278460   4.767   4.955   5.231
18990TIP3    H178461   4.739   4.922   5.316
18990TIP3    H278462   4.745   5.048   5.233
18991TIP3   OH278463   5.072   4.403   4.125
18991TIP3    H178464   5.158   4.384   4.163
18991TIP3    H278465   5.080   4.493   4.093
18992TIP3   OH278466   4.161   4.843   4.673
18992TIP3    H178467   4.221   4.833   4.599
18992TIP3    H278468   4.196   4.784   4.740
18993TIP3   OH278469   4.842   5.051   4.041
18993TIP3    H178470   4.808   5.140   4.048
18993TIP3    H278471   4.769   4.995   4.066
18994TIP3   OH278472   3.884   4.683   5.269
18994TIP3    H178473   3.914   4.665   5.358
18994TIP3    H278474   3.807   4.628   5.258
18995TIP3   OH278475   4.546   4.642   5.441
18995TIP3    H178476   4.456   4.616   5.423
18995TIP3    H278477   4.592   4.630   5.358
18996TIP3   OH278478   4.988   5.201   5.281
18996TIP3    H178479   4.897   5.213   5.253
18996TIP3    H278480   4.989   5.230   5.372
18997TIP3   OH278481   5.516   4.443   4.075
18997TIP3    H178482   5.476   4.419   3.991
18997TIP3    H278483   5.544   4.534   4.062
18998TIP3   OH278484   5.600   5.056   5.371
18998TIP3    H178485   5.513   5.038   5.335
18998TIP3    H278486   5.660   5.031   5.301
18999TIP3   OH278487   5.406   5.290   4.148
18999TIP3    H178488   5.359   5.217   4.189
18999TIP3    H278489   5.445   5.252   4.070
19000TIP3   OH278490   5.134   4.796   4.786
19000TIP3    H178491   5.039   4.788   4.784
19000TIP3    H278492   5.166   4.718   4.740
19001TIP3   OH278493   4.417   5.216   4.470
19001TIP3    H178494   4.440   5.300   4.430
19001TIP3    H278495   4.326   5.226   4.497
19002TIP3   OH278496   3.965   4.668   3.935
19002TIP3    H178497   4.012   4.732   3.988
19002TIP3    H278498   3.874   4.675   3.965
19003TIP3   OH278499   4.479   4.986   4.329
19003TIP3    H178500   4.470   5.068   4.378
19003TIP3    H278501   4.430   4.922   4.381
19004TIP3   OH278502   4.603   5.383   5.040
19004TIP3    H178503   4.659   5.459   5.023
19004TIP3    H278504   4.653   5.329   5.101
19005TIP3   OH278505   4.398   5.474   4.358
19005TIP3    H178506   4.306   5.491   4.380
19005TIP3    H278507   4.445   5.548   4.394
19006TIP3   OH278508   4.909   5.007   5.003
19006TIP3    H178509   4.865   4.984   5.085
19006TIP3    H278510   4.984   4.948   4.999
19007TIP3   OH278511   5.172   5.096   3.943
19007TIP3    H178512   5.216   5.041   4.008
19007TIP3    H278513   5.079   5.092   3.967
19008TIP3   OH278514   5.196   5.406   5.233
19008TIP3    H178515   5.110   5.366   5.220
19008TIP3    H278516   5.197   5.480   5.172
19009TIP3   OH278517   5.589   5.522   3.922
19009TIP3    H178518   5.636   5.589   3.872
19009TIP3    H278519   5.516   5.569   3.962
19010TIP3   OH278520   4.000   4.150   5.195
19010TIP3    H178521   3.909   4.177   5.192
19010TIP3    H278522   4.004   4.083   5.263
19011TIP3   OH278523   5.300   4.929   4.115
19011TIP3    H178524   5.257   4.872   4.178
19011TIP3    H278525   5.393   4.925   4.138
19012TIP3   OH278526   3.994   5.348   5.047
19012TIP3    H178527   4.021   5.271   5.096
19012TIP3    H278528   4.005   5.421   5.108
19013TIP3   OH278529   4.538   5.187   3.755
19013TIP3    H178530   4.560   5.101   3.719
19013TIP3    H278531   4.506   5.170   3.843
19014TIP3   OH278532   4.434   5.153   4.013
19014TIP3    H178533   4.472   5.099   4.082
19014TIP3    H278534   4.442   5.243   4.045
19015TIP3   OH278535   4.076   4.873   4.086
19015TIP3    H178536   4.006   4.923   4.128
19015TIP3    H278537   4.124   4.937   4.034
19016TIP3   OH278538   4.897   4.119   5.089
19016TIP3    H178539   4.973   4.155   5.134
19016TIP3    H278540   4.879   4.037   5.135
19017TIP3   OH278541   4.981   4.054   4.242
19017TIP3    H178542   4.987   4.096   4.157
19017TIP3    H278543   5.023   4.115   4.302
19018TIP3   OH278544   4.726   5.295   4.059
19018TIP3    H178545   4.640   5.325   4.087
19018TIP3    H278546   4.779   5.375   4.058
19019TIP3   OH278547   4.651   4.304   4.288
19019TIP3    H178548   4.724   4.366   4.293
19019TIP3    H278549   4.651   4.259   4.372
19020TIP3   OH278550   4.748   4.355   5.136
19020TIP3    H178551   4.744   4.376   5.229
19020TIP3    H278552   4.796   4.272   5.132
19021TIP3   OH278553   4.740   3.953   4.334
19021TIP3    H178554   4.717   4.022   4.396
19021TIP3    H278555   4.828   3.977   4.304
19022TIP3   OH278556   4.475   5.406   4.105
19022TIP3    H178557   4.483   5.489   4.058
19022TIP3    H278558   4.449   5.431   4.193
19023TIP3   OH278559   4.340   4.113   4.030
19023TIP3    H178560   4.326   4.192   4.083
19023TIP3    H278561   4.424   4.079   4.059
19024TIP3   OH278562   5.334   4.149   5.249
19024TIP3    H178563   5.245   4.181   5.233
19024TIP3    H278564   5.351   4.088   5.177
19025TIP3   OH278565   5.206   4.546   4.666
19025TIP3    H178566   5.125   4.499   4.644
19025TIP3    H278567   5.254   4.486   4.723
19026TIP3   OH278568   4.184   5.075   3.922
19026TIP3    H178569   4.256   5.120   3.965
19026TIP3    H278570   4.225   5.020   3.856
19027TIP3   OH278571   3.959   4.401   3.855
19027TIP3    H178572   3.987   4.484   3.895
19027TIP3    H278573   3.864   4.403   3.860
19028TIP3   OH278574   5.339   5.491   4.811
19028TIP3    H178575   5.324   5.564   4.751
19028TIP3    H278576   5.432   5.496   4.831
19029TIP3   OH278577   4.082   3.888   4.723
19029TIP3    H178578   4.069   3.881   4.628
19029TIP3    H278579   4.051   3.804   4.758
19030TIP3   OH278580   3.936   5.305   4.309
19030TIP3    H178581   3.845   5.292   4.337
19030TIP3    H278582   3.929   5.366   4.235
19031TIP3   OH278583   3.918   5.576   5.513
19031TIP3    H178584   3.993   5.545   5.564
19031TIP3    H278585   3.890   5.499   5.463
19032TIP3   OH278586   4.305   5.264   5.660
19032TIP3    H178587   4.391   5.256   5.701
19032TIP3    H278588   4.323   5.264   5.566
19033TIP3   OH278589   4.750   5.376   3.756
19033TIP3    H178590   4.685   5.307   3.770
19033TIP3    H278591   4.829   5.328   3.729
19034TIP3   OH278592   4.981   5.287   5.545
19034TIP3    H178593   4.902   5.312   5.593
19034TIP3    H278594   5.049   5.345   5.578
19035TIP3   OH278595   5.200   5.333   3.796
19035TIP3    H178596   5.211   5.255   3.851
19035TIP3    H278597   5.277   5.335   3.740
19036TIP3   OH278598   3.893   4.940   5.547
19036TIP3    H178599   3.855   4.876   5.608
19036TIP3    H278600   3.820   4.965   5.491
19037TIP3   OH278601   4.329   4.908   3.761
19037TIP3    H178602   4.353   4.860   3.840
19037TIP3    H278603   4.411   4.917   3.712
19038TIP3   OH278604   4.646   4.908   5.477
19038TIP3    H178605   4.578   4.972   5.453
19038TIP3    H278606   4.598   4.826   5.486
19039TIP3   OH278607   4.877   5.054   3.765
19039TIP3    H178608   4.864   5.046   3.860
19039TIP3    H278609   4.880   4.964   3.733
19040TIP3   OH278610   5.114   4.951   5.318
19040TIP3    H178611   5.202   4.969   5.285
19040TIP3    H278612   5.064   5.030   5.298
19041TIP3   OH278613   3.971   4.606   5.516
19041TIP3    H178614   3.975   4.522   5.562
19041TIP3    H278615   3.969   4.672   5.585
19042TIP3   OH278616   4.409   4.774   3.994
19042TIP3    H178617   4.358   4.737   4.066
19042TIP3    H278618   4.455   4.700   3.955
19043TIP3   OH278619   4.362   4.542   5.236
19043TIP3    H178620   4.293   4.609   5.237
19043TIP3    H278621   4.434   4.582   5.186
19044TIP3   OH278622   4.564   4.600   3.844
19044TIP3    H178623   4.561   4.621   3.751
19044TIP3    H278624   4.658   4.597   3.864
19045TIP3   OH278625   5.441   4.785   3.791
19045TIP3    H178626   5.450   4.770   3.697
19045TIP3    H278627   5.431   4.880   3.799
19046TIP3   OH278628   4.422   4.304   5.373
19046TIP3    H178629   4.431   4.233   5.310
19046TIP3    H278630   4.403   4.381   5.319
19047TIP3   OH278631   4.435   4.123   5.154
19047TIP3    H178632   4.489   4.177   5.097
19047TIP3    H278633   4.347   4.130   5.118
19048TIP3   OH278634   4.575   4.671   5.119
19048TIP3    H178635   4.668   4.696   5.119
19048TIP3    H278636   4.532   4.742   5.070
19049TIP3   OH278637   5.134   4.705   5.437
19049TIP3    H178638   5.105   4.787   5.398
19049TIP3    H278639   5.229   4.708   5.429
19050TIP3   OH278640   4.257   4.365   5.583
19050TIP3    H178641   4.190   4.297   5.589
19050TIP3    H278642   4.313   4.337   5.510
19051TIP3   OH278643   4.507   3.855   5.143
19051TIP3    H178644   4.483   3.946   5.158
19051TIP3    H278645   4.428   3.815   5.106
19052TIP3   OH278646   4.949   4.197   5.450
19052TIP3    H178647   4.904   4.125   5.407
19052TIP3    H278648   5.003   4.154   5.517
19053TIP3   OH278649   5.081   4.058   5.645
19053TIP3    H178650   5.138   3.995   5.600
19053TIP3    H278651   5.086   4.033   5.737
19054TIP3   OH278652   4.049   4.153   5.579
19054TIP3    H178653   4.060   4.088   5.510
19054TIP3    H278654   4.039   4.102   5.659
19055TIP3   OH278655   4.634   3.842   5.397
19055TIP3    H178656   4.640   3.753   5.429
19055TIP3    H278657   4.568   3.838   5.327
19056TIP3   OH278658   4.533   5.614   3.936
19056TIP3    H178659   4.627   5.607   3.952
19056TIP3    H278660   4.524   5.691   3.879
19057TIP3   OH278661   3.922   5.138   3.869
19057TIP3    H178662   4.014   5.124   3.893
19057TIP3    H278663   3.901   5.064   3.811
19058TIP3   OH278664   3.783   5.604   4.433
19058TIP3    H178665   3.728   5.580   4.358
19058TIP3    H278666   3.810   5.520   4.470
19059TIP3   OH278667   3.799   5.426   4.641
19059TIP3    H178668   3.775   5.336   4.664
19059TIP3    H278669   3.875   5.445   4.696
19060TIP3   OH278670   5.598   5.503   4.907
19060TIP3    H178671   5.585   5.487   5.000
19060TIP3    H278672   5.653   5.581   4.903
19061TIP3   OH278673   5.539   5.450   5.171
19061TIP3    H178674   5.492   5.370   5.151
19061TIP3    H278675   5.590   5.429   5.250
19062TIP3   OH278676   5.564   4.889   4.191
19062TIP3    H178677   5.633   4.955   4.195
19062TIP3    H278678   5.583   4.831   4.266
19063TIP3   OH278679   5.612   4.692   4.382
19063TIP3    H178680   5.527   4.662   4.417
19063TIP3    H278681   5.666   4.705   4.460
19064TIP3   OH278682   5.578   4.992   4.902
19064TIP3    H178683   5.634   4.926   4.860
19064TIP3    H278684   5.609   5.076   4.869
19065TIP3   OH278685   5.372   5.238   5.102
19065TIP3    H178686   5.304   5.292   5.142
19065TIP3    H278687   5.344   5.228   5.011
19066TIP3   OH278688   5.593   4.695   4.000
19066TIP3    H178689   5.541   4.725   3.925
19066TIP3    H278690   5.582   4.764   4.066
19067TIP3   OH278691   5.420   4.380   3.824
19067TIP3    H178692   5.408   4.438   3.748
19067TIP3    H278693   5.408   4.292   3.788
19068TIP3   OH278694   5.355   4.578   4.432
19068TIP3    H178695   5.353   4.486   4.403
19068TIP3    H278696   5.311   4.576   4.518
19069TIP3   OH278697   3.829   4.738   4.840
19069TIP3    H178698   3.854   4.736   4.747
19069TIP3    H278699   3.909   4.713   4.887
19070TIP3   OH278700   5.399   4.745   5.399
19070TIP3    H178701   5.471   4.683   5.411
19070TIP3    H278702   5.431   4.809   5.336
19071TIP3   OH278703   5.578   4.529   5.428
19071TIP3    H178704   5.499   4.475   5.427
19071TIP3    H278705   5.639   4.484   5.486
19072TIP3   OH278706   5.377   4.117   3.736
19072TIP3    H178707   5.408   4.073   3.816
19072TIP3    H278708   5.282   4.103   3.736
19073TIP3   OH278709   5.327   4.327   4.248
19073TIP3    H178710   5.358   4.237   4.251
19073TIP3    H278711   5.392   4.374   4.197
19074TIP3   OH278712   5.361   4.365   4.816
19074TIP3    H178713   5.453   4.376   4.794
19074TIP3    H278714   5.357   4.380   4.911
19075TIP3   OH278715   5.388   4.447   5.084
19075TIP3    H178716   5.309   4.485   5.121
19075TIP3    H278717   5.446   4.522   5.068
19076TIP3   OH278718   3.828   4.274   5.424
19076TIP3    H178719   3.903   4.264   5.483
19076TIP3    H278720   3.772   4.200   5.445
19077TIP3   OH278721   5.394   4.057   4.265
19077TIP3    H178722   5.420   4.021   4.349
19077TIP3    H278723   5.326   3.997   4.233
19078TIP3   OH278724   3.905   4.096   4.789
19078TIP3    H178725   3.954   4.015   4.775
19078TIP3    H278726   3.972   4.164   4.793
19079TIP3   OH278727   3.736   4.414   4.761
19079TIP3    H178728   3.704   4.412   4.671
19079TIP3    H278729   3.720   4.504   4.790
19080TIP3   OH278730   5.612   4.043   5.408
19080TIP3    H178731   5.556   4.040   5.486
19080TIP3    H278732   5.574   3.978   5.349
19081TIP3   OH278733   5.579   4.015   3.922
19081TIP3    H178734   5.646   3.961   3.964
19081TIP3    H278735   5.603   4.105   3.944
19082TIP3   OH278736   3.790   3.986   4.176
19082TIP3    H178737   3.703   4.000   4.213
19082TIP3    H278738   3.814   4.072   4.139
19083TIP3   OH278739   5.252   5.561   4.428
19083TIP3    H178740   5.334   5.557   4.378
19083TIP3    H278741   5.274   5.613   4.504
19084TIP3   OH278742   3.792   3.870   5.053
19084TIP3    H178743   3.735   3.865   5.130
19084TIP3    H278744   3.763   3.948   5.007
19085TIP3   OH278745   4.011   5.285   5.452
19085TIP3    H178746   3.922   5.288   5.417
19085TIP3    H278747   4.002   5.246   5.539
19086TIP3   OH278748   4.342   5.361   5.120
19086TIP3    H178749   4.310   5.449   5.098
19086TIP3    H278750   4.435   5.364   5.099
19087TIP3   OH278751   4.728   5.442   5.422
19087TIP3    H178752   4.727   5.422   5.516
19087TIP3    H278753   4.801   5.504   5.411
19088TIP3   OH278754   4.941   5.614   5.379
19088TIP3    H178755   5.012   5.587   5.321
19088TIP3    H278756   4.985   5.653   5.455
19089TIP3   OH278757   5.502   3.831   5.246
19089TIP3    H178758   5.407   3.828   5.243
19089TIP3    H278759   5.530   3.741   5.231
19090TIP3   OH278760   4.033   5.646   5.148
19090TIP3    H178761   3.960   5.696   5.112
19090TIP3    H278762   4.052   5.689   5.232
19091TIP3   OH278763   4.289   5.623   5.050
19091TIP3    H178764   4.200   5.636   5.080
19091TIP3    H278765   4.295   5.674   4.969
19092TIP3   OH278766   4.744   5.608   4.966
19092TIP3    H178767   4.700   5.651   4.893
19092TIP3    H278768   4.756   5.678   5.031
19093TIP3   OH278769   4.968   5.473   5.053
19093TIP3    H178770   4.891   5.520   5.021
19093TIP3    H278771   5.041   5.531   5.036
19094TIP3   OH278772   5.212   5.601   5.031
19094TIP3    H178773   5.240   5.692   5.020
19094TIP3    H278774   5.251   5.556   4.955
19095TIP3   OH278775   4.003   5.504   4.812
19095TIP3    H178776   4.002   5.462   4.898
19095TIP3    H278777   4.080   5.468   4.769
19096TIP3   OH278778   4.212   5.377   4.685
19096TIP3    H178779   4.199   5.286   4.712
19096TIP3    H278780   4.297   5.401   4.721
19097TIP3   OH278781   4.468   5.409   4.796
19097TIP3    H178782   4.482   5.319   4.768
19097TIP3    H278783   4.506   5.413   4.884
19098TIP3   OH278784   4.787   3.977   4.684
19098TIP3    H178785   4.727   3.909   4.715
19098TIP3    H278786   4.862   3.929   4.649
19099TIP3   OH278787   5.306   3.837   4.668
19099TIP3    H178788   5.369   3.894   4.623
19099TIP3    H278789   5.224   3.886   4.666
19100TIP3   OH278790   5.494   3.941   4.493
19100TIP3    H178791   5.552   3.866   4.479
19100TIP3    H278792   5.553   4.014   4.513
19101TIP3   OH278793   4.042   3.843   4.453
19101TIP3    H178794   3.951   3.834   4.426
19101TIP3    H278795   4.080   3.757   4.438
19102TIP3   OH278796   3.935   3.829   4.002
19102TIP3    H178797   3.993   3.891   3.958
19102TIP3    H278798   3.887   3.882   4.066
19103TIP3   OH278799   4.529   3.814   4.466
19103TIP3    H178800   4.602   3.855   4.420
19103TIP3    H278801   4.557   3.811   4.558
19104TIP3   OH278802   5.017   3.849   4.604
19104TIP3    H178803   5.056   3.826   4.520
19104TIP3    H278804   5.003   3.765   4.648
19105TIP3   OH278805   5.192   3.883   4.178
19105TIP3    H178806   5.116   3.938   4.197
19105TIP3    H278807   5.161   3.794   4.196
19106TIP3   OH278808   3.899   5.476   4.101
19106TIP3    H178809   3.823   5.475   4.042
19106TIP3    H278810   3.932   5.566   4.096
19107TIP3   OH278811   4.130   4.007   3.873
19107TIP3    H178812   4.179   3.952   3.813
19107TIP3    H278813   4.195   4.039   3.936
19108TIP3   OH278814   4.599   4.088   4.128
19108TIP3    H178815   4.630   4.014   4.180
19108TIP3    H278816   4.616   4.165   4.182
19109TIP3   OH278817   4.804   5.555   3.960
19109TIP3    H178818   4.898   5.571   3.951
19109TIP3    H278819   4.783   5.497   3.887
19110TIP3   OH278820   5.467   5.534   4.254
19110TIP3    H178821   5.449   5.446   4.222
19110TIP3    H278822   5.454   5.591   4.179
19111TIP3   OH278823   4.046   3.914   5.390
19111TIP3    H178824   3.983   3.859   5.436
19111TIP3    H278825   4.131   3.888   5.426
19112TIP3   OH278826   4.259   3.805   5.530
19112TIP3    H178827   4.336   3.748   5.538
19112TIP3    H278828   4.207   3.785   5.608
19113TIP3   OH278829   4.094   5.522   3.815
19113TIP3    H178830   4.070   5.527   3.908
19113TIP3    H278831   4.174   5.469   3.814
19114TIP3   OH278832   5.346   5.382   5.473
19114TIP3    H178833   5.295   5.372   5.392
19114TIP3    H278834   5.354   5.476   5.485
19115TIP3   OH278835   6.846   4.814   4.409
19115TIP3    H178836   6.830   4.907   4.394
19115TIP3    H278837   6.778   4.769   4.360
19116TIP3   OH278838   6.706   4.713   4.815
19116TIP3    H178839   6.739   4.675   4.897
19116TIP3    H278840   6.664   4.640   4.770
19117TIP3   OH278841   5.930   4.654   4.979
19117TIP3    H178842   5.933   4.569   5.023
19117TIP3    H278843   5.994   4.707   5.025
19118TIP3   OH278844   7.101   5.031   4.650
19118TIP3    H178845   7.070   4.951   4.694
19118TIP3    H278846   7.122   5.091   4.721
19119TIP3   OH278847   6.100   5.108   4.726
19119TIP3    H178848   6.062   5.021   4.713
19119TIP3    H278849   6.186   5.091   4.764
19120TIP3   OH278850   5.727   4.456   4.277
19120TIP3    H178851   5.706   4.540   4.318
19120TIP3    H278852   5.655   4.441   4.216
19121TIP3   OH278853   5.801   4.704   4.587
19121TIP3    H178854   5.828   4.614   4.608
19121TIP3    H278855   5.880   4.756   4.600
19122TIP3   OH278856   6.827   5.471   4.687
19122TIP3    H178857   6.863   5.404   4.629
19122TIP3    H278858   6.814   5.425   4.771
19123TIP3   OH278859   6.582   4.961   4.838
19123TIP3    H178860   6.615   4.875   4.812
19123TIP3    H278861   6.652   4.998   4.891
19124TIP3   OH278862   6.891   4.399   4.816
19124TIP3    H178863   6.891   4.305   4.835
19124TIP3    H278864   6.855   4.405   4.728
19125TIP3   OH278865   6.224   4.191   4.575
19125TIP3    H178866   6.231   4.277   4.533
19125TIP3    H278867   6.166   4.141   4.518
19126TIP3   OH278868   6.964   4.221   4.408
19126TIP3    H178869   7.006   4.189   4.488
19126TIP3    H278870   7.033   4.270   4.363
19127TIP3   OH278871   5.867   4.443   4.652
19127TIP3    H178872   5.932   4.405   4.712
19127TIP3    H278873   5.890   4.408   4.566
19128TIP3   OH278874   6.360   4.600   4.601
19128TIP3    H178875   6.440   4.560   4.636
19128TIP3    H278876   6.317   4.530   4.552
19129TIP3   OH278877   6.085   4.112   4.999
19129TIP3    H178878   6.063   4.179   4.933
19129TIP3    H278879   6.014   4.117   5.063
19130TIP3   OH278880   6.815   5.063   4.296
19130TIP3    H178881   6.802   5.059   4.201
19130TIP3    H278882   6.764   5.139   4.324
19131TIP3   OH278883   6.360   4.875   4.987
19131TIP3    H178884   6.310   4.947   5.025
19131TIP3    H278885   6.436   4.916   4.947
19132TIP3   OH278886   7.073   4.141   4.642
19132TIP3    H178887   6.998   4.122   4.700
19132TIP3    H278888   7.133   4.191   4.697
19133TIP3   OH278889   6.058   4.284   4.783
19133TIP3    H178890   6.110   4.346   4.834
19133TIP3    H278891   6.120   4.247   4.720
19134TIP3   OH278892   6.211   5.085   5.091
19134TIP3    H178893   6.220   5.180   5.083
19134TIP3    H278894   6.119   5.072   5.116
19135TIP3   OH278895   5.774   5.072   4.167
19135TIP3    H178896   5.767   5.121   4.085
19135TIP3    H278897   5.797   5.139   4.232
19136TIP3   OH278898   7.134   5.234   4.847
19136TIP3    H178899   7.039   5.237   4.853
19136TIP3    H278900   7.160   5.325   4.835
19137TIP3   OH278901   7.202   4.023   4.922
19137TIP3    H178902   7.184   4.042   5.014
19137TIP3    H278903   7.213   4.109   4.881
19138TIP3   OH278904   6.438   3.797   4.744
19138TIP3    H178905   6.415   3.705   4.752
19138TIP3    H278906   6.360   3.844   4.774
19139TIP3   OH278907   6.948   5.363   4.447
19139TIP3    H178908   6.989   5.277   4.433
19139TIP3    H278909   7.020   5.420   4.473
19140TIP3   OH278910   7.074   5.129   4.395
19140TIP3    H178911   7.001   5.076   4.362
19140TIP3    H278912   7.097   5.088   4.479
19141TIP3   OH278913   7.235   4.968   5.222
19141TIP3    H178914   7.228   4.923   5.137
19141TIP3    H278915   7.269   5.054   5.201
19142TIP3   OH278916   6.702   4.716   4.189
19142TIP3    H178917   6.641   4.784   4.158
19142TIP3    H278918   6.774   4.719   4.126
19143TIP3   OH278919   6.752   4.593   3.846
19143TIP3    H178920   6.806   4.616   3.921
19143TIP3    H278921   6.804   4.530   3.797
19144TIP3   OH278922   7.072   4.749   4.271
19144TIP3    H178923   7.001   4.778   4.328
19144TIP3    H278924   7.115   4.679   4.320
19145TIP3   OH278925   6.991   4.541   5.229
19145TIP3    H178926   6.975   4.600   5.302
19145TIP3    H278927   6.925   4.565   5.164
19146TIP3   OH278928   6.234   4.797   4.451
19146TIP3    H178929   6.206   4.751   4.371
19146TIP3    H278930   6.285   4.733   4.499
19147TIP3   OH278931   6.387   5.134   4.736
19147TIP3    H178932   6.396   5.127   4.641
19147TIP3    H278933   6.455   5.077   4.771
19148TIP3   OH278934   6.224   4.704   4.819
19148TIP3    H178935   6.286   4.681   4.750
19148TIP3    H278936   6.273   4.760   4.878
19149TIP3   OH278937   6.861   5.249   4.879
19149TIP3    H178938   6.850   5.312   4.949
19149TIP3    H278939   6.833   5.165   4.917
19150TIP3   OH278940   6.363   5.119   5.335
19150TIP3    H178941   6.295   5.175   5.373
19150TIP3    H278942   6.321   5.080   5.258
19151TIP3   OH278943   6.942   4.677   4.039
19151TIP3    H178944   6.990   4.707   4.116
19151TIP3    H278945   6.993   4.709   3.965
19152TIP3   OH278946   6.018   4.724   5.258
19152TIP3    H178947   6.029   4.794   5.322
19152TIP3    H278948   5.924   4.704   5.261
19153TIP3   OH278949   6.695   5.310   4.351
19153TIP3    H178950   6.777   5.332   4.395
19153TIP3    H278951   6.627   5.348   4.407
19154TIP3   OH278952   6.149   5.281   5.378
19154TIP3    H178953   6.145   5.318   5.290
19154TIP3    H278954   6.057   5.264   5.400
19155TIP3   OH278955   7.248   3.922   3.936
19155TIP3    H178956   7.192   3.903   4.011
19155TIP3    H278957   7.335   3.890   3.962
19156TIP3   OH278958   6.140   4.699   4.202
19156TIP3    H178959   6.075   4.763   4.172
19156TIP3    H278960   6.095   4.615   4.197
19157TIP3   OH278961   5.724   4.955   5.148
19157TIP3    H178962   5.672   4.957   5.067
19157TIP3    H278963   5.732   4.862   5.169
19158TIP3   OH278964   5.691   5.246   4.835
19158TIP3    H178965   5.771   5.252   4.888
19158TIP3    H278966   5.644   5.327   4.853
19159TIP3   OH278967   6.592   5.260   5.285
19159TIP3    H178968   6.596   5.335   5.345
19159TIP3    H278969   6.513   5.213   5.312
19160TIP3   OH278970   6.654   5.614   4.222
19160TIP3    H178971   6.573   5.609   4.172
19160TIP3    H278972   6.645   5.692   4.276
19161TIP3   OH278973   6.028   5.471   4.437
19161TIP3    H178974   6.048   5.438   4.524
19161TIP3    H278975   5.972   5.403   4.398
19162TIP3   OH278976   6.983   5.527   3.956
19162TIP3    H178977   7.040   5.455   3.929
19162TIP3    H278978   6.975   5.517   4.051
19163TIP3   OH278979   6.914   5.524   4.221
19163TIP3    H178980   6.821   5.546   4.228
19163TIP3    H278981   6.930   5.462   4.292
19164TIP3   OH278982   7.159   4.437   5.481
19164TIP3    H178983   7.179   4.512   5.425
19164TIP3    H278984   7.203   4.363   5.439
19165TIP3   OH278985   5.952   5.103   5.191
19165TIP3    H178986   5.978   5.065   5.275
19165TIP3    H278987   5.872   5.056   5.167
19166TIP3   OH278988   6.194   3.914   4.830
19166TIP3    H178989   6.115   3.904   4.777
19166TIP3    H278990   6.173   3.985   4.890
19167TIP3   OH278991   6.683   3.889   5.175
19167TIP3    H178992   6.730   3.841   5.243
19167TIP3    H278993   6.591   3.881   5.198
19168TIP3   OH278994   6.982   4.253   5.230
19168TIP3    H178995   6.922   4.233   5.302
19168TIP3    H278996   6.994   4.348   5.234
19169TIP3   OH278997   7.079   4.761   3.817
19169TIP3    H178998   7.051   4.736   3.729
19169TIP3    H278999   7.145   4.829   3.802
19170TIP3   OH279000   6.613   4.134   3.898
19170TIP3    H179001   6.562   4.126   3.979
19170TIP3    H279002   6.584   4.059   3.845
19171TIP3   OH279003   6.219   4.451   4.929
19171TIP3    H179004   6.207   4.468   5.022
19171TIP3    H279005   6.211   4.537   4.888
19172TIP3   OH279006   6.208   4.429   4.439
19172TIP3    H179007   6.113   4.421   4.438
19172TIP3    H279008   6.235   4.411   4.349
19173TIP3   OH279009   6.737   4.467   4.298
19173TIP3    H179010   6.719   4.556   4.267
19173TIP3    H279011   6.813   4.439   4.247
19174TIP3   OH279012   6.698   4.464   5.417
19174TIP3    H179013   6.652   4.387   5.451
19174TIP3    H279014   6.776   4.472   5.472
19175TIP3   OH279015   6.789   4.383   4.559
19175TIP3    H179016   6.767   4.439   4.484
19175TIP3    H279017   6.845   4.314   4.522
19176TIP3   OH279018   5.960   4.423   5.125
19176TIP3    H179019   6.028   4.443   5.189
19176TIP3    H279020   5.930   4.335   5.148
19177TIP3   OH279021   6.298   4.159   3.791
19177TIP3    H179022   6.271   4.151   3.882
19177TIP3    H279023   6.253   4.238   3.759
19178TIP3   OH279024   5.684   4.131   4.518
19178TIP3    H179025   5.720   4.142   4.607
19178TIP3    H279026   5.759   4.144   4.460
19179TIP3   OH279027   5.696   4.242   4.020
19179TIP3    H179028   5.762   4.284   3.965
19179TIP3    H279029   5.638   4.313   4.047
19180TIP3   OH279030   6.798   4.555   5.025
19180TIP3    H179031   6.840   4.501   4.958
19180TIP3    H279032   6.738   4.495   5.070
19181TIP3   OH279033   6.504   4.143   4.519
19181TIP3    H179034   6.417   4.151   4.557
19181TIP3    H279035   6.558   4.105   4.588
19182TIP3   OH279036   5.946   4.345   4.408
19182TIP3    H179037   5.874   4.372   4.351
19182TIP3    H279038   5.968   4.257   4.379
19183TIP3   OH279039   6.268   4.354   4.181
19183TIP3    H179040   6.361   4.347   4.204
19183TIP3    H279041   6.268   4.397   4.095
19184TIP3   OH279042   6.853   4.122   4.813
19184TIP3    H179043   6.832   4.118   4.906
19184TIP3    H279044   6.780   4.078   4.770
19185TIP3   OH279045   6.257   4.453   3.926
19185TIP3    H179046   6.204   4.436   3.848
19185TIP3    H279047   6.334   4.500   3.894
19186TIP3   OH279048   6.018   4.948   5.437
19186TIP3    H179049   6.081   4.926   5.505
19186TIP3    H279050   5.975   5.027   5.469
19187TIP3   OH279051   6.578   4.475   4.717
19187TIP3    H179052   6.647   4.430   4.668
19187TIP3    H279053   6.554   4.413   4.786
19188TIP3   OH279054   6.044   4.081   4.379
19188TIP3    H179055   5.997   4.001   4.405
19188TIP3    H279056   6.099   4.053   4.305
19189TIP3   OH279057   6.474   4.329   4.936
19189TIP3    H179058   6.395   4.382   4.942
19189TIP3    H279059   6.525   4.353   5.013
19190TIP3   OH279060   6.527   4.919   4.108
19190TIP3    H179061   6.457   4.881   4.055
19190TIP3    H279062   6.483   4.950   4.187
19191TIP3   OH279063   7.230   4.858   4.967
19191TIP3    H179064   7.295   4.823   4.907
19191TIP3    H279065   7.147   4.846   4.921
19192TIP3   OH279066   6.871   4.178   3.985
19192TIP3    H179067   6.779   4.182   3.958
19192TIP3    H279068   6.888   4.264   4.025
19193TIP3   OH279069   6.622   4.986   5.211
19193TIP3    H179070   6.596   4.941   5.291
19193TIP3    H279071   6.614   5.079   5.232
19194TIP3   OH279072   6.950   4.405   4.125
19194TIP3    H179073   7.033   4.380   4.166
19194TIP3    H279074   6.964   4.495   4.095
19195TIP3   OH279075   6.041   4.832   4.655
19195TIP3    H179076   6.103   4.832   4.582
19195TIP3    H279077   6.085   4.784   4.724
19196TIP3   OH279078   6.740   5.076   4.022
19196TIP3    H179079   6.704   5.164   4.032
19196TIP3    H279080   6.667   5.018   4.044
19197TIP3   OH279081   5.721   4.691   5.246
19197TIP3    H179082   5.693   4.635   5.318
19197TIP3    H279083   5.671   4.661   5.170
19198TIP3   OH279084   6.466   4.616   5.443
19198TIP3    H179085   6.447   4.645   5.354
19198TIP3    H279086   6.552   4.574   5.437
19199TIP3   OH279087   6.883   5.243   5.329
19199TIP3    H179088   6.789   5.250   5.309
19199TIP3    H279089   6.887   5.246   5.425
19200TIP3   OH279090   7.269   5.298   4.077
19200TIP3    H179091   7.222   5.256   4.149
19200TIP3    H279092   7.326   5.230   4.042
19201TIP3   OH279093   7.011   4.802   4.791
19201TIP3    H179094   6.916   4.794   4.792
19201TIP3    H279095   7.042   4.720   4.753
19202TIP3   OH279096   6.300   5.221   4.468
19202TIP3    H179097   6.304   5.309   4.429
19202TIP3    H279098   6.224   5.224   4.526
19203TIP3   OH279099   5.859   4.668   3.929
19203TIP3    H179100   5.904   4.735   3.980
19203TIP3    H279101   5.768   4.674   3.957
19204TIP3   OH279102   6.358   5.007   4.307
19204TIP3    H179103   6.345   5.084   4.363
19204TIP3    H279104   6.319   4.935   4.355
19205TIP3   OH279105   6.490   5.388   5.052
19205TIP3    H179106   6.548   5.462   5.031
19205TIP3    H279107   6.537   5.340   5.120
19206TIP3   OH279108   6.291   5.478   4.356
19206TIP3    H179109   6.198   5.492   4.376
19206TIP3    H279110   6.335   5.554   4.394
19207TIP3   OH279111   6.798   5.011   5.009
19207TIP3    H179112   6.734   4.998   5.078
19207TIP3    H279113   6.880   4.979   5.045
19208TIP3   OH279114   7.033   5.095   3.955
19208TIP3    H179115   7.082   5.046   4.021
19208TIP3    H279116   6.941   5.083   3.979
19209TIP3   OH279117   7.111   5.390   5.238
19209TIP3    H179118   7.029   5.346   5.260
19209TIP3    H279119   7.085   5.462   5.179
19210TIP3   OH279120   5.867   4.165   5.173
19210TIP3    H179121   5.775   4.191   5.164
19210TIP3    H279122   5.865   4.095   5.239
19211TIP3   OH279123   7.194   4.956   4.127
19211TIP3    H179124   7.158   4.887   4.183
19211TIP3    H279125   7.279   4.976   4.166
19212TIP3   OH279126   5.885   5.364   5.026
19212TIP3    H179127   5.921   5.292   5.077
19212TIP3    H279128   5.897   5.441   5.082
19213TIP3   OH279129   6.429   5.188   3.793
19213TIP3    H179130   6.439   5.106   3.746
19213TIP3    H279131   6.391   5.163   3.877
19214TIP3   OH279132   6.308   5.156   4.043
19214TIP3    H179133   6.324   5.107   4.124
19214TIP3    H279134   6.325   5.247   4.066
19215TIP3   OH279135   5.957   4.876   4.086
19215TIP3    H179136   5.891   4.926   4.134
19215TIP3    H279137   6.004   4.942   4.035
19216TIP3   OH279138   6.784   4.128   5.079
19216TIP3    H179139   6.857   4.156   5.134
19216TIP3    H279140   6.752   4.048   5.120
19217TIP3   OH279141   6.859   4.042   4.228
19217TIP3    H179142   6.864   4.086   4.143
19217TIP3    H279143   6.890   4.107   4.291
19218TIP3   OH279144   6.636   5.325   4.081
19218TIP3    H179145   6.542   5.346   4.083
19218TIP3    H279146   6.663   5.328   4.173
19219TIP3   OH279147   6.518   4.302   4.292
19219TIP3    H179148   6.593   4.362   4.296
19219TIP3    H279149   6.517   4.260   4.378
19220TIP3   OH279150   6.643   4.369   5.155
19220TIP3    H179151   6.657   4.396   5.246
19220TIP3    H279152   6.683   4.282   5.149
19221TIP3   OH279153   6.619   3.955   4.338
19221TIP3    H179154   6.597   4.023   4.402
19221TIP3    H279155   6.706   3.980   4.306
19222TIP3   OH279156   6.378   5.416   4.105
19222TIP3    H179157   6.381   5.500   4.059
19222TIP3    H279158   6.343   5.438   4.191
19223TIP3   OH279159   6.210   4.111   4.052
19223TIP3    H179160   6.203   4.195   4.097
19223TIP3    H279161   6.296   4.077   4.076
19224TIP3   OH279162   7.197   4.081   5.201
19224TIP3    H179163   7.117   4.133   5.202
19224TIP3    H279164   7.256   4.127   5.261
19225TIP3   OH279165   7.104   4.548   4.712
19225TIP3    H179166   7.040   4.493   4.759
19225TIP3    H279167   7.188   4.524   4.750
19226TIP3   OH279168   6.066   5.079   3.928
19226TIP3    H179169   6.139   5.122   3.972
19226TIP3    H279170   6.107   5.026   3.860
19227TIP3   OH279171   5.840   4.401   3.850
19227TIP3    H179172   5.867   4.483   3.892
19227TIP3    H279173   5.811   4.427   3.763
19228TIP3   OH279174   7.236   5.492   4.833
19228TIP3    H179175   7.226   5.568   4.775
19228TIP3    H279176   7.330   5.474   4.833
19229TIP3   OH279177   5.941   3.883   4.717
19229TIP3    H179178   5.932   3.870   4.622
19229TIP3    H279179   5.912   3.801   4.755
19230TIP3   OH279180   5.829   5.300   4.325
19230TIP3    H179181   5.779   5.328   4.401
19230TIP3    H279182   5.809   5.365   4.258
19231TIP3   OH279183   5.815   5.556   5.519
19231TIP3    H179184   5.860   5.515   5.592
19231TIP3    H279185   5.760   5.486   5.482
19232TIP3   OH279186   6.659   5.326   3.732
19232TIP3    H179187   6.572   5.304   3.767
19232TIP3    H279188   6.703   5.242   3.722
19233TIP3   OH279189   6.898   5.236   5.610
19233TIP3    H179190   6.821   5.251   5.665
19233TIP3    H279191   6.965   5.293   5.647
19234TIP3   OH279192   7.080   5.331   3.800
19234TIP3    H179193   7.099   5.254   3.854
19234TIP3    H279194   7.157   5.341   3.744
19235TIP3   OH279195   5.648   4.861   5.582
19235TIP3    H179196   5.721   4.801   5.571
19235TIP3    H279197   5.656   4.923   5.510
19236TIP3   OH279198   6.200   4.905   3.765
19236TIP3    H179199   6.226   4.858   3.844
19236TIP3    H279200   6.282   4.921   3.718
19237TIP3   OH279201   6.527   4.897   5.451
19237TIP3    H179202   6.456   4.961   5.465
19237TIP3    H279203   6.491   4.815   5.486
19238TIP3   OH279204   6.767   5.071   3.742
19238TIP3    H179205   6.761   5.062   3.837
19238TIP3    H279206   6.759   4.982   3.708
19239TIP3   OH279207   6.965   4.988   5.246
19239TIP3    H179208   7.061   4.993   5.243
19239TIP3    H279209   6.938   5.076   5.270
19240TIP3   OH279210   5.856   4.593   5.627
19240TIP3    H179211   5.947   4.615   5.646
19240TIP3    H279212   5.812   4.596   5.712
19241TIP3   OH279213   6.311   4.783   3.990
19241TIP3    H179214   6.263   4.744   4.064
19241TIP3    H279215   6.360   4.710   3.952
19242TIP3   OH279216   6.228   4.535   5.188
19242TIP3    H179217   6.166   4.590   5.235
19242TIP3    H279218   6.308   4.586   5.185
19243TIP3   OH279219   6.470   4.605   3.842
19243TIP3    H179220   6.464   4.634   3.751
19243TIP3    H279221   6.563   4.594   3.858
19244TIP3   OH279222   6.330   4.298   5.315
19244TIP3    H179223   6.339   4.230   5.248
19244TIP3    H279224   6.301   4.376   5.266
19245TIP3   OH279225   6.345   4.127   5.090
19245TIP3    H179226   6.395   4.177   5.025
19245TIP3    H279227   6.255   4.127   5.057
19246TIP3   OH279228   6.456   4.685   5.167
19246TIP3    H179229   6.551   4.694   5.160
19246TIP3    H279230   6.421   4.755   5.112
19247TIP3   OH279231   6.907   4.434   5.604
19247TIP3    H179232   6.912   4.359   5.663
19247TIP3    H279233   6.995   4.440   5.567
19248TIP3   OH279234   6.985   4.776   5.420
19248TIP3    H179235   6.969   4.837   5.348
19248TIP3    H279236   7.079   4.755   5.413
19249TIP3   OH279237   6.122   4.456   5.445
19249TIP3    H179238   6.142   4.514   5.518
19249TIP3    H279239   6.203   4.407   5.430
19250TIP3   OH279240   6.404   3.868   5.167
19250TIP3    H179241   6.384   3.958   5.141
19250TIP3    H279242   6.335   3.816   5.126
19251TIP3   OH279243   6.541   4.249   5.492
19251TIP3    H179244   6.513   4.293   5.573
19251TIP3    H279245   6.465   4.254   5.434
19252TIP3   OH279246   6.795   4.169   5.406
19252TIP3    H179247   6.708   4.179   5.444
19252TIP3    H279248   6.850   4.138   5.478
19253TIP3   OH279249   6.978   4.079   5.602
19253TIP3    H179250   6.953   3.987   5.608
19253TIP3    H279251   6.939   4.119   5.680
19254TIP3   OH279252   6.016   4.165   5.495
19254TIP3    H179253   6.008   4.094   5.432
19254TIP3    H279254   6.102   4.152   5.537
19255TIP3   OH279255   6.392   3.813   5.433
19255TIP3    H179256   6.448   3.735   5.439
19255TIP3    H279257   6.394   3.837   5.340
19256TIP3   OH279258   6.444   3.974   5.650
19256TIP3    H179259   6.434   3.928   5.567
19256TIP3    H279260   6.379   4.044   5.646
19257TIP3   OH279261   6.462   5.656   3.990
19257TIP3    H179262   6.545   5.626   3.953
19257TIP3    H279263   6.431   5.723   3.928
19258TIP3   OH279264   5.806   5.140   3.860
19258TIP3    H179265   5.896   5.128   3.891
19258TIP3    H279266   5.789   5.063   3.805
19259TIP3   OH279267   5.669   5.610   4.425
19259TIP3    H179268   5.607   5.581   4.358
19259TIP3    H279269   5.683   5.532   4.479
19260TIP3   OH279270   5.735   5.390   4.581
19260TIP3    H179271   5.701   5.316   4.631
19260TIP3    H279272   5.786   5.441   4.644
19261TIP3   OH279273   7.220   5.025   5.659
19261TIP3    H179274   7.243   4.994   5.746
19261TIP3    H279275   7.222   5.121   5.666
19262TIP3   OH279276   7.265   5.209   5.095
19262TIP3    H179277   7.226   5.278   5.148
19262TIP3    H279278   7.218   5.213   5.012
19263TIP3   OH279279   7.305   4.377   3.822
19263TIP3    H179280   7.257   4.431   3.758
19263TIP3    H279281   7.277   4.288   3.803
19264TIP3   OH279282   7.146   4.543   4.433
19264TIP3    H179283   7.189   4.458   4.423
19264TIP3    H279284   7.131   4.551   4.527
19265TIP3   OH279285   5.720   4.761   4.844
19265TIP3    H179286   5.736   4.746   4.751
19265TIP3    H279287   5.800   4.731   4.887
19266TIP3   OH279288   7.257   4.730   5.378
19266TIP3    H179289   7.325   4.716   5.445
19266TIP3    H279290   7.271   4.820   5.348
19267TIP3   OH279291   7.227   4.122   3.746
19267TIP3    H179292   7.245   4.055   3.812
19267TIP3    H279293   7.133   4.116   3.731
19268TIP3   OH279294   7.183   4.300   4.248
19268TIP3    H179295   7.204   4.212   4.279
19268TIP3    H279296   7.264   4.329   4.205
19269TIP3   OH279297   7.213   4.282   4.837
19269TIP3    H179298   7.285   4.336   4.806
19269TIP3    H279299   7.184   4.324   4.918
19270TIP3   OH279300   7.189   4.446   5.056
19270TIP3    H179301   7.124   4.480   5.118
19270TIP3    H279302   7.268   4.497   5.073
19271TIP3   OH279303   5.719   4.308   5.572
19271TIP3    H179304   5.698   4.315   5.665
19271TIP3    H279305   5.674   4.229   5.543
19272TIP3   OH279306   7.225   4.042   4.351
19272TIP3    H179307   7.190   4.027   4.438
19272TIP3    H279308   7.179   3.979   4.295
19273TIP3   OH279309   5.816   4.129   4.761
19273TIP3    H179310   5.856   4.042   4.760
19273TIP3    H279311   5.889   4.189   4.777
19274TIP3   OH279312   5.630   4.423   4.801
19274TIP3    H179313   5.702   4.423   4.738
19274TIP3    H279314   5.666   4.467   4.878
19275TIP3   OH279315   5.696   4.032   4.201
19275TIP3    H179316   5.614   4.041   4.249
19275TIP3    H279317   5.705   4.116   4.155
19276TIP3   OH279318   7.162   5.518   4.500
19276TIP3    H179319   7.239   5.466   4.524
19276TIP3    H279320   7.162   5.590   4.563
19277TIP3   OH279321   5.694   3.902   5.060
19277TIP3    H179322   5.625   3.883   5.123
19277TIP3    H279323   5.655   3.964   4.998
19278TIP3   OH279324   5.909   5.192   5.510
19278TIP3    H179325   5.833   5.250   5.520
19278TIP3    H279326   5.954   5.196   5.595
19279TIP3   OH279327   6.221   5.363   5.109
19279TIP3    H179328   6.195   5.453   5.091
19279TIP3    H279329   6.316   5.363   5.100
19280TIP3   OH279330   6.615   5.471   5.461
19280TIP3    H179331   6.626   5.443   5.552
19280TIP3    H279332   6.693   5.522   5.441
19281TIP3   OH279333   6.839   5.618   5.384
19281TIP3    H179334   6.913   5.568   5.349
19281TIP3    H279335   6.871   5.652   5.468
19282TIP3   OH279336   5.914   5.641   5.143
19282TIP3    H179337   5.837   5.678   5.101
19282TIP3    H279338   5.921   5.686   5.227
19283TIP3   OH279339   6.178   5.631   5.056
19283TIP3    H179340   6.087   5.639   5.084
19283TIP3    H279341   6.182   5.678   4.973
19284TIP3   OH279342   6.628   5.615   4.963
19284TIP3    H179343   6.570   5.656   4.900
19284TIP3    H279344   6.641   5.682   5.031
19285TIP3   OH279345   6.847   5.466   5.038
19285TIP3    H179346   6.774   5.523   5.015
19285TIP3    H279347   6.923   5.524   5.041
19286TIP3   OH279348   7.086   5.599   5.043
19286TIP3    H179349   7.128   5.684   5.056
19286TIP3    H279350   7.139   5.557   4.975
19287TIP3   OH279351   5.895   5.505   4.782
19287TIP3    H179352   5.881   5.465   4.868
19287TIP3    H279353   5.976   5.464   4.750
19288TIP3   OH279354   6.114   5.375   4.681
19288TIP3    H179355   6.098   5.283   4.705
19288TIP3    H279356   6.197   5.397   4.725
19289TIP3   OH279357   6.368   5.405   4.800
19289TIP3    H179358   6.380   5.315   4.772
19289TIP3    H279359   6.400   5.407   4.890
19290TIP3   OH279360   6.659   3.971   4.673
19290TIP3    H179361   6.597   3.904   4.702
19290TIP3    H279362   6.736   3.922   4.646
19291TIP3   OH279363   7.154   3.844   4.710
19291TIP3    H179364   7.180   3.910   4.775
19291TIP3    H279365   7.064   3.867   4.687
19292TIP3   OH279366   5.916   3.841   4.441
19292TIP3    H179367   5.823   3.819   4.428
19292TIP3    H279368   5.962   3.757   4.433
19293TIP3   OH279369   5.795   3.856   4.018
19293TIP3    H179370   5.871   3.897   3.976
19293TIP3    H279371   5.780   3.909   4.097
19294TIP3   OH279372   6.406   3.811   4.461
19294TIP3    H179373   6.477   3.862   4.423
19294TIP3    H279374   6.421   3.814   4.555
19295TIP3   OH279375   6.886   3.828   4.598
19295TIP3    H179376   6.908   3.800   4.509
19295TIP3    H279377   6.869   3.746   4.645
19296TIP3   OH279378   7.078   3.873   4.183
19296TIP3    H179379   6.998   3.926   4.189
19296TIP3    H279380   7.047   3.783   4.189
19297TIP3   OH279381   5.786   5.477   4.118
19297TIP3    H179382   5.711   5.471   4.060
19297TIP3    H279383   5.817   5.567   4.108
19298TIP3   OH279384   6.011   3.991   3.890
19298TIP3    H179385   6.064   3.943   3.826
19298TIP3    H279386   6.074   4.030   3.949
19299TIP3   OH279387   6.474   4.085   4.132
19299TIP3    H179388   6.510   4.014   4.186
19299TIP3    H279389   6.489   4.164   4.184
19300TIP3   OH279390   6.706   5.546   3.924
19300TIP3    H179391   6.769   5.587   3.983
19300TIP3    H279392   6.679   5.466   3.969
19301TIP3   OH279393   5.943   3.924   5.358
19301TIP3    H179394   5.862   3.882   5.387
19301TIP3    H279395   6.012   3.883   5.410
19302TIP3   OH279396   6.127   3.816   5.525
19302TIP3    H179397   6.217   3.833   5.497
19302TIP3    H279398   6.131   3.732   5.570
19303TIP3   OH279399   6.003   5.521   3.811
19303TIP3    H179400   5.977   5.515   3.903
19303TIP3    H279401   6.077   5.461   3.803
19304TIP3   OH279402   6.975   3.801   5.582
19304TIP3    H179403   6.978   3.750   5.663
19304TIP3    H279404   7.066   3.808   5.555
19305TIP3   OH279405   7.324   5.425   5.434
19305TIP3    H179406   7.257   5.405   5.367
19305TIP3    H279407   7.274   5.464   5.506
19306TIP3   OH279408   1.193   6.681   4.425
19306TIP3    H179409   1.182   6.775   4.413
19306TIP3    H279410   1.121   6.642   4.375
19307TIP3   OH279411   1.079   6.598   4.826
19307TIP3    H179412   1.109   6.550   4.903
19307TIP3    H279413   1.031   6.534   4.775
19308TIP3   OH279414   0.287   6.545   4.960
19308TIP3    H179415   0.291   6.462   5.007
19308TIP3    H279416   0.377   6.563   4.934
19309TIP3   OH279417   1.466   6.912   4.625
19309TIP3    H179418   1.426   6.839   4.672
19309TIP3    H279419   1.480   6.979   4.693
19310TIP3   OH279420   0.395   6.990   4.734
19310TIP3    H179421   0.364   6.903   4.709
19310TIP3    H279422   0.489   6.979   4.750
19311TIP3   OH279423   0.116   6.368   4.336
19311TIP3    H179424   0.079   6.448   4.374
19311TIP3    H279425   0.068   6.297   4.380
19312TIP3   OH279426   0.161   6.584   4.574
19312TIP3    H179427   0.189   6.496   4.602
19312TIP3    H279428   0.239   6.638   4.588
19313TIP3   OH279429   0.918   6.837   4.821
19313TIP3    H179430   0.962   6.755   4.795
19313TIP3    H279431   0.983   6.883   4.873
19314TIP3   OH279432   1.805   5.993   4.932
19314TIP3    H179433   1.817   6.061   4.999
19314TIP3    H279434   1.847   6.029   4.854
19315TIP3   OH279435   1.226   6.273   4.838
19315TIP3    H179436   1.233   6.178   4.853
19315TIP3    H279437   1.214   6.281   4.743
19316TIP3   OH279438   0.590   6.076   4.569
19316TIP3    H179439   0.600   6.162   4.528
19316TIP3    H279440   0.535   6.027   4.507
19317TIP3   OH279441   1.354   6.106   4.417
19317TIP3    H179442   1.393   6.071   4.497
19317TIP3    H279443   1.428   6.144   4.369
19318TIP3   OH279444   0.237   6.334   4.666
19318TIP3    H179445   0.297   6.287   4.724
19318TIP3    H279446   0.256   6.300   4.579
19319TIP3   OH279447   0.699   6.480   4.636
19319TIP3    H179448   0.786   6.449   4.664
19319TIP3    H279449   0.670   6.415   4.572
19320TIP3   OH279450   1.846   6.176   5.140
19320TIP3    H179451   1.762   6.220   5.125
19320TIP3    H279452   1.861   6.184   5.234
19321TIP3   OH279453   0.433   5.992   5.006
19321TIP3    H179454   0.403   6.050   4.937
19321TIP3    H279455   0.365   5.997   5.073
19322TIP3   OH279456   1.139   6.929   4.319
19322TIP3    H179457   1.136   6.942   4.225
19322TIP3    H279458   1.110   7.012   4.356
19323TIP3   OH279459   0.699   6.766   4.975
19323TIP3    H179460   0.642   6.840   4.999
19323TIP3    H279461   0.767   6.805   4.921
19324TIP3   OH279462   1.442   6.045   4.669
19324TIP3    H179463   1.371   6.024   4.730
19324TIP3    H279464   1.497   6.107   4.716
19325TIP3   OH279465   0.421   6.156   4.779
19325TIP3    H179466   0.477   6.210   4.835
19325TIP3    H279467   0.481   6.120   4.713
19326TIP3   OH279468   0.539   6.978   5.061
19326TIP3    H179469   0.542   7.072   5.046
19326TIP3    H279470   0.452   6.963   5.098
19327TIP3   OH279471   0.099   6.907   4.148
19327TIP3    H179472   0.101   6.958   4.068
19327TIP3    H279473   0.131   6.968   4.216
19328TIP3   OH279474   1.487   7.130   4.811
19328TIP3    H179475   1.399   7.129   4.849
19328TIP3    H279476   1.490   7.210   4.758
19329TIP3   OH279477   1.546   5.896   4.992
19329TIP3    H179478   1.485   5.942   4.934
19329TIP3    H279479   1.632   5.921   4.960
19330TIP3   OH279480   0.788   5.687   4.758
19330TIP3    H179481   0.762   5.595   4.760
19330TIP3    H279482   0.710   5.734   4.787
19331TIP3   OH279483   1.353   7.255   4.442
19331TIP3    H179484   1.386   7.171   4.409
19331TIP3    H279485   1.409   7.274   4.517
19332TIP3   OH279486   1.480   7.025   4.369
19332TIP3    H179487   1.472   6.957   4.302
19332TIP3    H279488   1.478   6.978   4.452
19333TIP3   OH279489   1.581   6.914   5.190
19333TIP3    H179490   1.581   6.852   5.117
19333TIP3    H279491   1.601   6.999   5.149
19334TIP3   OH279492   1.035   6.599   4.207
19334TIP3    H179493   0.975   6.668   4.179
19334TIP3    H279494   1.108   6.603   4.144
19335TIP3   OH279495   1.059   6.445   3.895
19335TIP3    H179496   1.112   6.478   3.967
19335TIP3    H279497   1.118   6.388   3.845
19336TIP3   OH279498   1.759   6.556   5.020
19336TIP3    H179499   1.687   6.619   5.017
19336TIP3    H279500   1.819   6.585   4.951
19337TIP3   OH279501   1.413   6.615   4.278
19337TIP3    H179502   1.345   6.637   4.341
19337TIP3    H279503   1.479   6.568   4.329
19338TIP3   OH279504   1.377   6.404   5.226
19338TIP3    H179505   1.373   6.474   5.290
19338TIP3    H279506   1.309   6.427   5.162
19339TIP3   OH279507   0.565   6.662   4.465
19339TIP3    H179508   0.540   6.620   4.382
19339TIP3    H279509   0.618   6.596   4.510
19340TIP3   OH279510   0.682   6.959   4.719
19340TIP3    H179511   0.679   6.980   4.626
19340TIP3    H279512   0.766   6.915   4.731
19341TIP3   OH279513   0.548   6.574   4.849
19341TIP3    H179514   0.604   6.545   4.777
19341TIP3    H279515   0.601   6.638   4.896
19342TIP3   OH279516   1.252   7.109   4.950
19342TIP3    H179517   1.225   7.146   5.034
19342TIP3    H279518   1.212   7.022   4.947
19343TIP3   OH279519   0.697   6.959   5.289
19343TIP3    H179520   0.634   7.014   5.334
19343TIP3    H279521   0.657   6.939   5.204
19344TIP3   OH279522   1.267   6.547   4.056
19344TIP3    H179523   1.324   6.580   4.126
19344TIP3    H279524   1.311   6.574   3.976
19345TIP3   OH279525   0.426   6.607   5.253
19345TIP3    H179526   0.422   6.681   5.313
19345TIP3    H279527   0.337   6.574   5.249
19346TIP3   OH279528   1.083   7.189   4.396
19346TIP3    H179529   1.172   7.215   4.418
19346TIP3    H279530   1.036   7.272   4.383
19347TIP3   OH279531   0.503   7.159   5.332
19347TIP3    H179532   0.519   7.213   5.254
19347TIP3    H279533   0.413   7.127   5.321
19348TIP3   OH279534   1.636   5.691   4.039
19348TIP3    H179535   1.552   5.717   4.078
19348TIP3    H279536   1.674   5.773   4.008
19349TIP3   OH279537   0.475   6.572   4.211
19349TIP3    H179538   0.417   6.637   4.171
19349TIP3    H279539   0.424   6.491   4.211
19350TIP3   OH279540   1.759   7.173   3.833
19350TIP3    H179541   1.748   7.228   3.910
19350TIP3    H279542   1.849   7.141   3.839
19351TIP3   OH279543   0.131   6.748   5.144
19351TIP3    H179544   0.053   6.758   5.089
19351TIP3    H279545   0.171   6.666   5.114
19352TIP3   OH279546   0.136   7.142   4.783
19352TIP3    H179547   0.207   7.078   4.788
19352TIP3    H279548   0.091   7.135   4.867
19353TIP3   OH279549   1.846   7.179   5.439
19353TIP3    H179550   1.821   7.088   5.427
19353TIP3    H279551   1.835   7.195   5.532
19354TIP3   OH279552   0.916   7.124   5.279
19354TIP3    H179553   0.898   7.191   5.346
19354TIP3    H279554   0.842   7.064   5.285
19355TIP3   OH279555   1.590   6.283   5.376
19355TIP3    H179556   1.514   6.319   5.330
19355TIP3    H279557   1.592   6.191   5.350
19356TIP3   OH279558   0.300   6.958   5.212
19356TIP3    H179559   0.338   6.916   5.289
19356TIP3    H279560   0.238   6.894   5.178
19357TIP3   OH279561   0.538   5.793   4.843
19357TIP3    H179562   0.464   5.787   4.783
19357TIP3    H279563   0.515   5.865   4.902
19358TIP3   OH279564   1.023   5.770   5.186
19358TIP3    H179565   1.068   5.720   5.254
19358TIP3    H279566   0.930   5.763   5.208
19359TIP3   OH279567   1.320   6.129   5.270
19359TIP3    H179568   1.264   6.110   5.346
19359TIP3    H279569   1.322   6.224   5.265
19360TIP3   OH279570   1.392   6.612   3.824
19360TIP3    H179571   1.355   6.677   3.764
19360TIP3    H279572   1.486   6.627   3.820
19361TIP3   OH279573   0.972   5.998   3.905
19361TIP3    H179574   0.915   5.994   3.981
19361TIP3    H279575   0.934   5.935   3.844
19362TIP3   OH279576   0.557   6.317   4.959
19362TIP3    H179577   0.491   6.312   5.028
19362TIP3    H279578   0.557   6.408   4.932
19363TIP3   OH279579   0.592   6.322   4.441
19363TIP3    H179580   0.497   6.310   4.444
19363TIP3    H279581   0.616   6.304   4.350
19364TIP3   OH279582   1.094   6.351   4.315
19364TIP3    H179583   1.067   6.436   4.281
19364TIP3    H279584   1.163   6.322   4.255
19365TIP3   OH279585   1.021   6.327   5.449
19365TIP3    H179586   0.974   6.252   5.486
19365TIP3    H279587   1.107   6.325   5.492
19366TIP3   OH279588   1.201   6.287   4.565
19366TIP3    H179589   1.154   6.332   4.495
19366TIP3    H279590   1.245   6.215   4.522
19367TIP3   OH279591   0.333   6.301   5.120
19367TIP3    H179592   0.287   6.359   5.181
19367TIP3    H279593   0.310   6.213   5.149
19368TIP3   OH279594   0.659   6.057   3.798
19368TIP3    H179595   0.626   6.046   3.887
19368TIP3    H279596   0.605   6.127   3.761
19369TIP3   OH279597   0.063   6.120   4.472
19369TIP3    H179598   0.091   6.097   4.560
19369TIP3    H279599   0.094   6.047   4.417
19370TIP3   OH279600   0.061   6.176   4.072
19370TIP3    H179601   0.149   6.211   4.057
19370TIP3    H279602   0.011   6.203   3.995
19371TIP3   OH279603   1.159   6.439   5.041
19371TIP3    H179604   1.191   6.381   4.971
19371TIP3    H279605   1.096   6.385   5.089
19372TIP3   OH279606   0.867   6.030   4.525
19372TIP3    H179607   0.777   6.036   4.557
19372TIP3    H279608   0.917   5.995   4.599
19373TIP3   OH279609   0.339   6.237   4.425
19373TIP3    H179610   0.264   6.271   4.374
19373TIP3    H279611   0.348   6.146   4.396
19374TIP3   OH279612   0.623   6.242   4.179
19374TIP3    H179613   0.718   6.236   4.189
19374TIP3    H279614   0.610   6.284   4.094
19375TIP3   OH279615   1.233   5.997   4.849
19375TIP3    H179616   1.199   5.996   4.939
19375TIP3    H279617   1.164   5.955   4.797
19376TIP3   OH279618   0.573   6.335   3.927
19376TIP3    H179619   0.517   6.312   3.853
19376TIP3    H279620   0.647   6.381   3.889
19377TIP3   OH279621   0.392   6.820   5.431
19377TIP3    H179622   0.452   6.820   5.506
19377TIP3    H279623   0.306   6.809   5.470
19378TIP3   OH279624   0.936   6.367   4.731
19378TIP3    H179625   1.000   6.311   4.688
19378TIP3    H279626   0.902   6.313   4.803
19379TIP3   OH279627   0.419   5.973   4.368
19379TIP3    H179628   0.374   5.893   4.394
19379TIP3    H279629   0.445   5.958   4.277
19380TIP3   OH279630   0.822   6.231   4.950
19380TIP3    H179631   0.735   6.271   4.962
19380TIP3    H279632   0.870   6.256   5.029
19381TIP3   OH279633   0.860   6.807   4.111
19381TIP3    H179634   0.791   6.758   4.067
19381TIP3    H279635   0.823   6.828   4.197
19382TIP3   OH279636   1.572   6.752   4.963
19382TIP3    H179637   1.634   6.809   4.917
19382TIP3    H279638   1.502   6.736   4.899
19383TIP3   OH279639   1.225   6.050   3.994
19383TIP3    H179640   1.135   6.048   3.961
19383TIP3    H279641   1.238   6.140   4.025
19384TIP3   OH279642   1.062   6.838   5.272
19384TIP3    H179643   1.071   6.787   5.352
19384TIP3    H279644   0.999   6.907   5.294
19385TIP3   OH279645   1.299   6.281   4.135
19385TIP3    H179646   1.388   6.266   4.168
19385TIP3    H279647   1.303   6.369   4.097
19386TIP3   OH279648   0.387   6.718   4.666
19386TIP3    H179649   0.447   6.712   4.592
19386TIP3    H279650   0.430   6.670   4.736
19387TIP3   OH279651   1.087   6.949   4.032
19387TIP3    H179652   1.054   7.039   4.038
19387TIP3    H279653   1.012   6.895   4.058
19388TIP3   OH279654   0.176   6.472   5.267
19388TIP3    H179655   0.199   6.484   5.359
19388TIP3    H279656   0.090   6.429   5.270
19389TIP3   OH279657   0.804   6.505   5.481
19389TIP3    H179658   0.742   6.474   5.415
19389TIP3    H279659   0.884   6.456   5.463
19390TIP3   OH279660   1.182   7.167   5.215
19390TIP3    H179661   1.087   7.155   5.220
19390TIP3    H279662   1.214   7.140   5.300
19391TIP3   OH279663   1.756   6.317   4.073
19391TIP3    H179664   1.718   6.294   3.988
19391TIP3    H279665   1.779   6.410   4.064
19392TIP3   OH279666   1.791   6.910   5.376
19392TIP3    H179667   1.705   6.905   5.336
19392TIP3    H279668   1.852   6.887   5.306
19393TIP3   OH279669   1.737   7.102   4.152
19393TIP3    H179670   1.665   7.079   4.211
19393TIP3    H279671   1.714   7.189   4.119
19394TIP3   OH279672   1.368   6.682   4.773
19394TIP3    H179673   1.273   6.673   4.770
19394TIP3    H279674   1.401   6.602   4.731
19395TIP3   OH279675   0.603   7.062   4.470
19395TIP3    H179676   0.612   7.145   4.423
19395TIP3    H279677   0.508   7.048   4.474
19396TIP3   OH279678   0.173   6.591   3.887
19396TIP3    H179679   0.235   6.639   3.943
19396TIP3    H279680   0.096   6.579   3.943
19397TIP3   OH279681   0.727   6.852   4.343
19397TIP3    H179682   0.698   6.934   4.382
19397TIP3    H279683   0.674   6.785   4.387
19398TIP3   OH279684   0.847   7.233   5.026
19398TIP3    H179685   0.823   7.315   5.068
19398TIP3    H279686   0.888   7.182   5.097
19399TIP3   OH279687   0.581   7.306   4.339
19399TIP3    H179688   0.495   7.343   4.360
19399TIP3    H279689   0.643   7.364   4.384
19400TIP3   OH279690   1.133   6.863   5.004
19400TIP3    H179691   1.105   6.851   5.095
19400TIP3    H279692   1.167   6.777   4.979
19401TIP3   OH279693   1.389   6.996   3.952
19401TIP3    H179694   1.432   6.950   4.024
19401TIP3    H279695   1.296   6.979   3.964
19402TIP3   OH279696   1.410   7.322   5.196
19402TIP3    H179697   1.328   7.272   5.201
19402TIP3    H279698   1.385   7.404   5.152
19403TIP3   OH279699   0.247   6.044   5.211
19403TIP3    H179700   0.153   6.053   5.228
19403TIP3    H279701   0.277   5.978   5.274
19404TIP3   OH279702   1.506   6.844   4.155
19404TIP3    H179703   1.465   6.766   4.192
19404TIP3    H279704   1.600   6.825   4.156
19405TIP3   OH279705   0.248   7.266   5.063
19405TIP3    H179706   0.204   7.188   5.097
19405TIP3    H279707   0.182   7.335   5.069
19406TIP3   OH279708   0.819   7.118   3.715
19406TIP3    H179709   0.886   7.050   3.709
19406TIP3    H279710   0.770   7.096   3.794
19407TIP3   OH279711   0.698   7.056   3.955
19407TIP3    H179712   0.734   6.981   4.002
19407TIP3    H279713   0.709   7.130   4.015
19408TIP3   OH279714   0.310   6.750   4.069
19408TIP3    H179715   0.237   6.789   4.116
19408TIP3    H279716   0.358   6.824   4.033
19409TIP3   OH279717   1.129   6.012   5.105
19409TIP3    H179718   1.200   6.033   5.166
19409TIP3    H279719   1.093   5.930   5.137
19410TIP3   OH279720   1.207   5.940   4.249
19410TIP3    H179721   1.211   5.980   4.162
19410TIP3    H279722   1.249   6.004   4.307
19411TIP3   OH279723   0.979   7.199   4.030
19411TIP3    H179724   0.898   7.235   4.065
19411TIP3    H279725   1.014   7.269   3.974
19412TIP3   OH279726   0.877   6.183   4.292
19412TIP3    H179727   0.950   6.244   4.298
19412TIP3    H279728   0.872   6.142   4.378
19413TIP3   OH279729   0.996   6.260   5.171
19413TIP3    H179730   1.000   6.276   5.265
19413TIP3    H279731   1.031   6.172   5.159
19414TIP3   OH279732   0.967   5.840   4.344
19414TIP3    H179733   0.941   5.910   4.404
19414TIP3    H279734   1.053   5.868   4.313
19415TIP3   OH279735   0.722   7.286   4.100
19415TIP3    H179736   0.702   7.371   4.060
19415TIP3    H279737   0.674   7.287   4.183
19416TIP3   OH279738   0.557   5.998   4.056
19416TIP3    H179739   0.552   6.084   4.099
19416TIP3    H279740   0.642   5.963   4.080
19417TIP3   OH279741   1.572   6.022   5.247
19417TIP3    H179742   1.481   6.047   5.259
19417TIP3    H279743   1.572   5.971   5.165
19418TIP3   OH279744   1.438   6.427   4.661
19418TIP3    H179745   1.353   6.388   4.640
19418TIP3    H279746   1.479   6.364   4.720
19419TIP3   OH279747   0.399   6.986   3.936
19419TIP3    H179748   0.450   7.067   3.938
19419TIP3    H279749   0.449   6.927   3.879
19420TIP3   OH279750   0.232   6.310   3.889
19420TIP3    H179751   0.240   6.406   3.894
19420TIP3    H279752   0.145   6.296   3.851
19421TIP3   OH279753   0.296   5.772   4.706
19421TIP3    H179754   0.299   5.762   4.611
19421TIP3    H279755   0.268   5.687   4.739
19422TIP3   OH279756   0.198   7.107   4.312
19422TIP3    H179757   0.153   7.137   4.390
19422TIP3    H279758   0.199   7.184   4.254
19423TIP3   OH279759   0.460   7.138   5.607
19423TIP3    H179760   0.511   7.203   5.656
19423TIP3    H279761   0.492   7.145   5.517
19424TIP3   OH279762   1.066   7.256   3.741
19424TIP3    H179763   0.974   7.231   3.750
19424TIP3    H279764   1.112   7.174   3.722
19425TIP3   OH279765   1.266   7.095   5.464
19425TIP3    H179766   1.302   7.010   5.435
19425TIP3    H279767   1.336   7.134   5.517
19426TIP3   OH279768   1.476   7.203   3.781
19426TIP3    H179769   1.438   7.145   3.847
19426TIP3    H279770   1.569   7.209   3.806
19427TIP3   OH279771   0.135   6.799   5.517
19427TIP3    H179772   0.082   6.727   5.485
19427TIP3    H279773   0.086   6.833   5.593
19428TIP3   OH279774   0.533   6.799   3.790
19428TIP3    H179775   0.563   6.748   3.865
19428TIP3    H279776   0.612   6.810   3.736
19429TIP3   OH279777   0.794   6.785   5.490
19429TIP3    H179778   0.759   6.811   5.405
19429TIP3    H279779   0.805   6.690   5.484
19430TIP3   OH279780   1.045   6.965   3.751
19430TIP3    H179781   1.059   6.948   3.844
19430TIP3    H279782   1.106   6.907   3.706
19431TIP3   OH279783   1.351   6.873   5.330
19431TIP3    H179784   1.432   6.887   5.282
19431TIP3    H279785   1.282   6.873   5.263
19432TIP3   OH279786   0.239   6.493   5.530
19432TIP3    H179787   0.282   6.416   5.567
19432TIP3    H279788   0.221   6.549   5.605
19433TIP3   OH279789   0.651   6.659   4.002
19433TIP3    H179790   0.604   6.614   4.072
19433TIP3    H279791   0.693   6.588   3.953
19434TIP3   OH279792   0.636   6.430   5.272
19434TIP3    H179793   0.559   6.486   5.267
19434TIP3    H279794   0.694   6.462   5.203
19435TIP3   OH279795   0.785   6.478   3.835
19435TIP3    H179796   0.786   6.499   3.742
19435TIP3    H279797   0.877   6.462   3.857
19436TIP3   OH279798   1.148   6.677   5.567
19436TIP3    H179799   1.218   6.626   5.525
19436TIP3    H279800   1.107   6.617   5.629
19437TIP3   OH279801   1.664   6.662   3.792
19437TIP3    H179802   1.673   6.646   3.698
19437TIP3    H279803   1.657   6.757   3.800
19438TIP3   OH279804   0.651   6.171   5.358
19438TIP3    H179805   0.657   6.113   5.281
19438TIP3    H279806   0.644   6.259   5.322
19439TIP3   OH279807   0.684   6.024   5.116
19439TIP3    H179808   0.736   6.071   5.051
19439TIP3    H279809   0.597   6.017   5.077
19440TIP3   OH279810   0.807   6.541   5.092
19440TIP3    H179811   0.902   6.555   5.091
19440TIP3    H279812   0.771   6.622   5.056
19441TIP3   OH279813   1.251   6.318   5.620
19441TIP3    H179814   1.227   6.273   5.701
19441TIP3    H279815   1.347   6.321   5.622
19442TIP3   OH279816   1.382   6.610   5.409
19442TIP3    H179817   1.364   6.702   5.390
19442TIP3    H279818   1.474   6.608   5.433
19443TIP3   OH279819   0.490   6.246   5.582
19443TIP3    H179820   0.412   6.190   5.578
19443TIP3    H279821   0.537   6.229   5.501
19444TIP3   OH279822   0.736   5.753   5.173
19444TIP3    H179823   0.717   5.845   5.158
19444TIP3    H279824   0.660   5.706   5.138
19445TIP3   OH279825   0.871   6.098   5.510
19445TIP3    H179826   0.850   6.009   5.541
19445TIP3    H279827   0.794   6.124   5.459
19446TIP3   OH279828   1.142   6.049   5.461
19446TIP3    H179829   1.047   6.057   5.474
19446TIP3    H279830   1.176   6.019   5.545
19447TIP3   OH279831   0.298   6.045   5.583
19447TIP3    H179832   0.313   5.977   5.517
19447TIP3    H279833   0.272   5.996   5.662
19448TIP3   OH279834   0.825   5.637   5.404
19448TIP3    H179835   0.759   5.577   5.440
19448TIP3    H279836   0.785   5.672   5.324
19449TIP3   OH279837   0.800   5.841   5.586
19449TIP3    H179838   0.833   5.778   5.522
19449TIP3    H279839   0.715   5.805   5.614
19450TIP3   OH279840   0.131   7.010   3.886
19450TIP3    H179841   0.220   7.029   3.916
19450TIP3    H279842   0.143   6.946   3.816
19451TIP3   OH279843   0.086   7.336   4.598
19451TIP3    H179844   0.094   7.255   4.647
19451TIP3    H279845   0.129   7.402   4.652
19452TIP3   OH279846   1.767   6.756   4.195
19452TIP3    H179847   1.836   6.822   4.196
19452TIP3    H279848   1.789   6.696   4.266
19453TIP3   OH279849   1.836   6.565   4.381
19453TIP3    H179850   1.751   6.533   4.413
19453TIP3    H279851   1.887   6.579   4.461
19454TIP3   OH279852   1.815   6.883   4.900
19454TIP3    H179853   1.865   6.811   4.864
19454TIP3    H279854   1.852   6.961   4.859
19455TIP3   OH279855   1.599   7.163   5.067
19455TIP3    H179856   1.523   7.208   5.104
19455TIP3    H279857   1.576   7.148   4.975
19456TIP3   OH279858   1.819   6.573   3.999
19456TIP3    H179859   1.765   6.597   3.923
19456TIP3    H279860   1.797   6.639   4.065
19457TIP3   OH279861   1.675   6.266   3.817
19457TIP3    H179862   1.651   6.320   3.743
19457TIP3    H279863   1.650   6.177   3.792
19458TIP3   OH279864   1.584   6.453   4.429
19458TIP3    H179865   1.577   6.364   4.393
19458TIP3    H279866   1.539   6.449   4.513
19459TIP3   OH279867   0.073   6.660   4.827
19459TIP3    H179868   0.088   6.659   4.733
19459TIP3    H279869   0.157   6.634   4.866
19460TIP3   OH279870   1.651   6.634   5.457
19460TIP3    H179871   1.727   6.576   5.453
19460TIP3    H279872   1.680   6.708   5.510
19461TIP3   OH279873   1.828   6.411   5.409
19461TIP3    H179874   1.738   6.379   5.398
19461TIP3    H279875   1.878   6.332   5.429
19462TIP3   OH279876   1.588   6.018   3.734
19462TIP3    H179877   1.619   5.971   3.812
19462TIP3    H279878   1.494   6.004   3.733
19463TIP3   OH279879   1.564   6.212   4.255
19463TIP3    H179880   1.593   6.120   4.257
19463TIP3    H279881   1.628   6.256   4.198
19464TIP3   OH279882   1.585   6.236   4.810
19464TIP3    H179883   1.677   6.245   4.789
19464TIP3    H279884   1.580   6.257   4.904
19465TIP3   OH279885   1.613   6.327   5.071
19465TIP3    H179886   1.535   6.353   5.120
19465TIP3    H279887   1.661   6.409   5.059
19466TIP3   OH279888   0.070   6.155   5.467
19466TIP3    H179889   0.154   6.128   5.504
19466TIP3    H279890   0.005   6.106   5.517
19467TIP3   OH279891   1.866   5.721   5.593
19467TIP3    H179892   1.932   5.674   5.543
19467TIP3    H279893   1.858   5.805   5.548
19468TIP3   OH279894   1.630   5.940   4.267
19468TIP3    H179895   1.649   5.902   4.353
19468TIP3    H279896   1.560   5.885   4.232
19469TIP3   OH279897   0.178   6.026   4.707
19469TIP3    H179898   0.204   5.934   4.717
19469TIP3    H279899   0.253   6.076   4.738
19470TIP3   OH279900   0.014   6.389   4.831
19470TIP3    H179901   0.089   6.364   4.777
19470TIP3    H279902   0.018   6.485   4.834
19471TIP3   OH279903   1.788   5.933   5.418
19471TIP3    H179904   1.736   5.973   5.487
19471TIP3    H279905   1.729   5.930   5.342
19472TIP3   OH279906   1.757   5.907   3.925
19472TIP3    H179907   1.811   5.853   3.867
19472TIP3    H279908   1.817   5.975   3.957
19473TIP3   OH279909   0.118   5.944   4.213
19473TIP3    H179910   0.034   5.925   4.255
19473TIP3    H279911   0.102   6.024   4.162
19474TIP3   OH279912   0.027   5.803   5.091
19474TIP3    H179913   0.007   5.878   5.148
19474TIP3    H279914  -0.028   5.816   5.014
19475TIP3   OH279915   0.200   7.127   5.503
19475TIP3    H179916   0.161   7.210   5.531
19475TIP3    H279917   0.285   7.124   5.546
19476TIP3   OH279918   0.521   7.275   5.072
19476TIP3    H179919   0.426   7.282   5.067
19476TIP3    H279920   0.550   7.280   4.981
19477TIP3   OH279921   1.685   5.697   5.220
19477TIP3    H179922   1.600   5.691   5.177
19477TIP3    H279923   1.722   5.608   5.213
19478TIP3   OH279924   0.426   7.265   4.690
19478TIP3    H179925   0.398   7.174   4.698
19478TIP3    H279926   0.514   7.266   4.728
19479TIP3   OH279927   0.662   7.205   4.833
19479TIP3    H179928   0.670   7.118   4.793
19479TIP3    H279929   0.731   7.208   4.899
19480TIP3   OH279930   1.022   5.873   4.697
19480TIP3    H179931   0.962   5.803   4.721
19480TIP3    H279932   1.095   5.828   4.654
19481TIP3   OH279933   1.524   5.721   4.672
19481TIP3    H179934   1.586   5.777   4.626
19481TIP3    H279935   1.440   5.767   4.664
19482TIP3   OH279936   1.714   5.819   4.501
19482TIP3    H179937   1.778   5.750   4.482
19482TIP3    H279938   1.768   5.897   4.518
19483TIP3   OH279939   0.297   5.732   4.432
19483TIP3    H179940   0.211   5.719   4.393
19483TIP3    H279941   0.338   5.645   4.428
19484TIP3   OH279942   0.155   5.746   4.022
19484TIP3    H179943   0.225   5.781   3.967
19484TIP3    H279944   0.153   5.804   4.099
19485TIP3   OH279945   0.762   5.690   4.471
19485TIP3    H179946   0.831   5.742   4.431
19485TIP3    H279947   0.776   5.698   4.565
19486TIP3   OH279948   1.243   5.748   4.589
19486TIP3    H179949   1.273   5.730   4.500
19486TIP3    H279950   1.228   5.661   4.627
19487TIP3   OH279951   1.419   5.772   4.188
19487TIP3    H179952   1.344   5.829   4.203
19487TIP3    H279953   1.386   5.683   4.201
19488TIP3   OH279954   0.123   7.328   4.152
19488TIP3    H179955   0.040   7.283   4.167
19488TIP3    H279956   0.114   7.411   4.197
19489TIP3   OH279957   0.366   5.881   3.883
19489TIP3    H179958   0.421   5.829   3.824
19489TIP3    H279959   0.427   5.918   3.947
19490TIP3   OH279960   0.820   5.967   4.134
19490TIP3    H179961   0.855   5.895   4.188
19490TIP3    H279962   0.840   6.046   4.184
19491TIP3   OH279963   0.334   5.844   5.401
19491TIP3    H179964   0.273   5.770   5.400
19491TIP3    H279965   0.417   5.806   5.429
19492TIP3   OH279966   0.537   5.703   5.557
19492TIP3    H179967   0.587   5.622   5.547
19492TIP3    H279968   0.458   5.677   5.605
19493TIP3   OH279969   1.356   5.594   5.567
19493TIP3    H179970   1.376   5.505   5.596
19493TIP3    H279971   1.442   5.634   5.551
19494TIP3   OH279972   1.576   7.342   5.433
19494TIP3    H179973   1.525   7.338   5.352
19494TIP3    H279974   1.666   7.323   5.406
19495TIP3   OH279975   3.081   6.676   4.419
19495TIP3    H179976   3.076   6.771   4.407
19495TIP3    H279977   3.008   6.642   4.368
19496TIP3   OH279978   2.950   6.593   4.800
19496TIP3    H179979   2.972   6.555   4.885
19496TIP3    H279980   2.902   6.523   4.755
19497TIP3   OH279981   2.174   6.535   4.934
19497TIP3    H179982   2.182   6.463   4.997
19497TIP3    H279983   2.263   6.553   4.906
19498TIP3   OH279984   3.347   6.907   4.636
19498TIP3    H179985   3.312   6.833   4.686
19498TIP3    H279986   3.366   6.974   4.702
19499TIP3   OH279987   2.273   6.979   4.732
19499TIP3    H179988   2.248   6.894   4.698
19499TIP3    H279989   2.362   6.967   4.766
19500TIP3   OH279990   1.964   6.340   4.275
19500TIP3    H179991   1.933   6.421   4.313
19500TIP3    H279992   1.897   6.315   4.211
19501TIP3   OH279993   2.020   6.583   4.589
19501TIP3    H179994   2.049   6.494   4.611
19501TIP3    H279995   2.099   6.636   4.596
19502TIP3   OH279996   2.807   6.829   4.842
19502TIP3    H179997   2.846   6.749   4.806
19502TIP3    H279998   2.875   6.867   4.897
19503TIP3   OH279999   3.685   6.002   4.939
19503TIP3    H180000   3.692   6.057   5.016
19503TIP3    H280001   3.725   6.053   4.868
19504TIP3   OH280002   3.100   6.269   4.831
19504TIP3    H180003   3.118   6.176   4.847
19504TIP3    H280004   3.089   6.276   4.737
19505TIP3   OH280005   2.466   6.071   4.560
19505TIP3    H180006   2.468   6.158   4.518
19505TIP3    H280007   2.407   6.019   4.504
19506TIP3   OH280008   3.245   6.104   4.426
19506TIP3    H180009   3.290   6.066   4.502
19506TIP3    H280010   3.315   6.148   4.377
19507TIP3   OH280011   2.099   6.327   4.657
19507TIP3    H180012   2.166   6.286   4.712
19507TIP3    H280013   2.116   6.292   4.569
19508TIP3   OH280014   2.573   6.473   4.623
19508TIP3    H180015   2.657   6.435   4.650
19508TIP3    H280016   2.535   6.407   4.564
19509TIP3   OH280017   3.713   6.157   5.166
19509TIP3    H180018   3.646   6.220   5.139
19509TIP3    H280019   3.741   6.187   5.252
19510TIP3   OH280020   2.321   5.998   4.990
19510TIP3    H180021   2.301   6.057   4.917
19510TIP3    H280022   2.249   6.009   5.051
19511TIP3   OH280023   3.061   6.929   4.308
19511TIP3    H180024   3.037   6.932   4.216
19511TIP3    H280025   3.023   7.009   4.345
19512TIP3   OH280026   2.577   6.759   4.983
19512TIP3    H180027   2.525   6.834   5.011
19512TIP3    H280028   2.653   6.797   4.939
19513TIP3   OH280029   3.361   6.016   4.665
19513TIP3    H180030   3.281   6.001   4.715
19513TIP3    H280031   3.406   6.087   4.710
19514TIP3   OH280032   2.304   6.165   4.769
19514TIP3    H180033   2.360   6.222   4.822
19514TIP3    H280034   2.363   6.128   4.703
19515TIP3   OH280035   2.421   6.971   5.076
19515TIP3    H180036   2.432   7.066   5.089
19515TIP3    H280037   2.328   6.955   5.094
19516TIP3   OH280038   1.967   6.946   4.181
19516TIP3    H180039   1.896   7.002   4.151
19516TIP3    H280040   2.004   6.992   4.257
19517TIP3   OH280041   3.377   7.127   4.812
19517TIP3    H180042   3.289   7.127   4.852
19517TIP3    H280043   3.378   7.206   4.758
19518TIP3   OH280044   3.445   5.858   4.988
19518TIP3    H180045   3.381   5.928   5.002
19518TIP3    H280046   3.526   5.904   4.966
19519TIP3   OH280047   2.672   5.683   4.749
19519TIP3    H180048   2.649   5.590   4.751
19519TIP3    H280049   2.593   5.728   4.779
19520TIP3   OH280050   3.248   7.271   4.438
19520TIP3    H180051   3.273   7.182   4.413
19520TIP3    H280052   3.301   7.290   4.515
19521TIP3   OH280053   3.318   7.013   4.383
19521TIP3    H180054   3.239   6.969   4.352
19521TIP3    H280055   3.340   6.970   4.465
19522TIP3   OH280056   3.472   6.907   5.205
19522TIP3    H180057   3.462   6.844   5.134
19522TIP3    H280058   3.484   6.991   5.161
19523TIP3   OH280059   2.927   6.592   4.200
19523TIP3    H180060   2.862   6.658   4.174
19523TIP3    H280061   2.997   6.601   4.135
19524TIP3   OH280062   2.954   6.483   3.855
19524TIP3    H180063   3.008   6.507   3.930
19524TIP3    H280064   3.003   6.414   3.810
19525TIP3   OH280065   3.650   6.549   5.030
19525TIP3    H180066   3.578   6.612   5.029
19525TIP3    H280067   3.709   6.578   4.961
19526TIP3   OH280068   3.298   6.608   4.269
19526TIP3    H180069   3.230   6.633   4.331
19526TIP3    H280070   3.367   6.569   4.322
19527TIP3   OH280071   3.247   6.385   5.165
19527TIP3    H180072   3.268   6.447   5.235
19527TIP3    H280073   3.174   6.425   5.118
19528TIP3   OH280074   2.451   6.665   4.454
19528TIP3    H180075   2.422   6.625   4.373
19528TIP3    H280076   2.500   6.596   4.499
19529TIP3   OH280077   2.577   6.945   4.718
19529TIP3    H180078   2.587   6.950   4.623
19529TIP3    H280079   2.658   6.904   4.748
19530TIP3   OH280080   2.432   6.576   4.837
19530TIP3    H180081   2.488   6.549   4.764
19530TIP3    H280082   2.484   6.641   4.885
19531TIP3   OH280083   3.142   7.109   4.952
19531TIP3    H180084   3.120   7.147   5.037
19531TIP3    H280085   3.102   7.022   4.953
19532TIP3   OH280086   2.574   6.974   5.313
19532TIP3    H180087   2.507   7.028   5.355
19532TIP3    H280088   2.532   6.942   5.233
19533TIP3   OH280089   3.159   6.549   4.038
19533TIP3    H180090   3.212   6.583   4.111
19533TIP3    H280091   3.213   6.563   3.961
19534TIP3   OH280092   2.215   6.543   5.327
19534TIP3    H180093   2.231   6.631   5.362
19534TIP3    H280094   2.130   6.551   5.282
19535TIP3   OH280095   2.982   7.179   4.390
19535TIP3    H180096   3.065   7.220   4.413
19535TIP3    H280097   2.923   7.252   4.374
19536TIP3   OH280098   2.353   7.129   5.351
19536TIP3    H180099   2.366   7.197   5.284
19536TIP3    H280100   2.282   7.162   5.406
19537TIP3   OH280101   3.519   5.696   4.042
19537TIP3    H180102   3.438   5.722   4.085
19537TIP3    H280103   3.555   5.777   4.007
19538TIP3   OH280104   2.348   6.589   4.199
19538TIP3    H180105   2.288   6.659   4.173
19538TIP3    H280106   2.297   6.508   4.189
19539TIP3   OH280107   3.660   7.140   3.876
19539TIP3    H180108   3.655   7.236   3.877
19539TIP3    H280109   3.753   7.121   3.869
19540TIP3   OH280110   1.938   6.829   5.155
19540TIP3    H180111   1.888   6.840   5.074
19540TIP3    H280112   1.949   6.735   5.164
19541TIP3   OH280113   2.014   7.097   4.793
19541TIP3    H180114   2.091   7.046   4.768
19541TIP3    H280115   2.041   7.144   4.872
19542TIP3   OH280116   3.762   7.153   5.421
19542TIP3    H180117   3.742   7.059   5.420
19542TIP3    H280118   3.676   7.195   5.417
19543TIP3   OH280119   2.803   7.123   5.282
19543TIP3    H180120   2.815   7.158   5.371
19543TIP3    H280121   2.724   7.069   5.288
19544TIP3   OH280122   3.454   6.307   5.413
19544TIP3    H180123   3.401   6.384   5.391
19544TIP3    H280124   3.439   6.293   5.506
19545TIP3   OH280125   2.156   7.000   5.164
19545TIP3    H180126   2.184   7.001   5.256
19545TIP3    H280127   2.080   6.941   5.163
19546TIP3   OH280128   2.427   5.791   4.837
19546TIP3    H180129   2.352   5.780   4.779
19546TIP3    H280130   2.405   5.865   4.892
19547TIP3   OH280131   2.914   5.765   5.186
19547TIP3    H180132   2.956   5.720   5.259
19547TIP3    H280133   2.821   5.765   5.208
19548TIP3   OH280134   3.209   6.122   5.253
19548TIP3    H180135   3.146   6.121   5.325
19548TIP3    H280136   3.221   6.215   5.233
19549TIP3   OH280137   3.301   6.543   3.799
19549TIP3    H180138   3.285   6.578   3.711
19549TIP3    H280139   3.388   6.576   3.822
19550TIP3   OH280140   2.863   5.997   3.905
19550TIP3    H180141   2.804   5.995   3.981
19550TIP3    H280142   2.825   5.934   3.844
19551TIP3   OH280143   2.444   6.320   4.951
19551TIP3    H180144   2.377   6.320   5.019
19551TIP3    H280145   2.448   6.411   4.922
19552TIP3   OH280146   2.437   6.316   4.439
19552TIP3    H180147   2.342   6.306   4.438
19552TIP3    H280148   2.464   6.300   4.348
19553TIP3   OH280149   2.977   6.345   4.309
19553TIP3    H180150   2.953   6.433   4.279
19553TIP3    H280151   3.049   6.319   4.251
19554TIP3   OH280152   2.876   6.378   5.442
19554TIP3    H180153   2.842   6.293   5.471
19554TIP3    H280154   2.924   6.411   5.518
19555TIP3   OH280155   3.077   6.282   4.562
19555TIP3    H180156   3.032   6.326   4.490
19555TIP3    H280157   3.127   6.212   4.519
19556TIP3   OH280158   2.222   6.327   5.116
19556TIP3    H180159   2.200   6.376   5.195
19556TIP3    H280160   2.184   6.241   5.129
19557TIP3   OH280161   2.547   6.051   3.800
19557TIP3    H180162   2.514   6.039   3.889
19557TIP3    H280163   2.487   6.114   3.760
19558TIP3   OH280164   1.893   6.020   4.516
19558TIP3    H180165   1.951   6.030   4.591
19558TIP3    H280166   1.952   6.015   4.440
19559TIP3   OH280167   1.928   6.107   4.015
19559TIP3    H180168   1.994   6.149   3.961
19559TIP3    H280169   1.869   6.178   4.040
19560TIP3   OH280170   3.007   6.438   5.021
19560TIP3    H180171   3.045   6.378   4.957
19560TIP3    H280172   2.960   6.382   5.082
19561TIP3   OH280173   2.747   6.026   4.522
19561TIP3    H180174   2.657   6.033   4.555
19561TIP3    H280175   2.796   5.990   4.596
19562TIP3   OH280176   2.177   6.230   4.411
19562TIP3    H180177   2.105   6.259   4.355
19562TIP3    H280178   2.195   6.141   4.383
19563TIP3   OH280179   2.502   6.241   4.183
19563TIP3    H180180   2.596   6.236   4.199
19563TIP3    H280181   2.494   6.282   4.096
19564TIP3   OH280182   3.128   5.994   4.813
19564TIP3    H180183   3.112   5.979   4.906
19564TIP3    H280184   3.051   5.957   4.769
19565TIP3   OH280185   2.470   6.331   3.926
19565TIP3    H180186   2.417   6.306   3.850
19565TIP3    H280187   2.543   6.380   3.890
19566TIP3   OH280188   2.218   6.794   5.441
19566TIP3    H180189   2.268   6.863   5.484
19566TIP3    H280190   2.132   6.796   5.483
19567TIP3   OH280191   2.806   6.353   4.723
19567TIP3    H180192   2.879   6.303   4.688
19567TIP3    H280193   2.780   6.306   4.802
19568TIP3   OH280194   2.280   5.967   4.371
19568TIP3    H180195   2.230   5.889   4.398
19568TIP3    H280196   2.311   5.945   4.283
19569TIP3   OH280197   2.711   6.230   4.960
19569TIP3    H180198   2.627   6.276   4.970
19569TIP3    H280199   2.760   6.253   5.040
19570TIP3   OH280200   2.745   6.788   4.121
19570TIP3    H180201   2.673   6.753   4.068
19570TIP3    H280202   2.703   6.816   4.202
19571TIP3   OH280203   3.466   6.748   4.974
19571TIP3    H180204   3.526   6.805   4.927
19571TIP3    H280205   3.394   6.733   4.912
19572TIP3   OH280206   3.115   6.051   3.997
19572TIP3    H180207   3.024   6.048   3.966
19572TIP3    H280208   3.126   6.140   4.030
19573TIP3   OH280209   2.956   6.882   5.275
19573TIP3    H180210   2.919   6.823   5.341
19573TIP3    H280211   2.906   6.963   5.286
19574TIP3   OH280212   3.187   6.285   4.132
19574TIP3    H180213   3.274   6.271   4.170
19574TIP3    H280214   3.190   6.374   4.098
19575TIP3   OH280215   2.261   6.712   4.650
19575TIP3    H180216   2.323   6.708   4.576
19575TIP3    H280217   2.306   6.666   4.721
19576TIP3   OH280218   2.960   6.941   4.043
19576TIP3    H180219   2.930   7.032   4.047
19576TIP3    H280220   2.884   6.889   4.069
19577TIP3   OH280221   1.960   6.547   5.213
19577TIP3    H180222   1.917   6.510   5.291
19577TIP3    H280223   1.896   6.537   5.143
19578TIP3   OH280224   2.650   6.532   5.469
19578TIP3    H180225   2.588   6.492   5.407
19578TIP3    H280226   2.733   6.489   5.450
19579TIP3   OH280227   3.071   7.188   5.213
19579TIP3    H180228   2.980   7.161   5.216
19579TIP3    H280229   3.110   7.150   5.292
19580TIP3   OH280230   3.642   6.312   4.077
19580TIP3    H180231   3.601   6.291   3.993
19580TIP3    H280232   3.671   6.403   4.068
19581TIP3   OH280233   3.695   6.877   5.363
19581TIP3    H180234   3.608   6.895   5.329
19581TIP3    H280235   3.751   6.873   5.286
19582TIP3   OH280236   3.617   7.058   4.154
19582TIP3    H180237   3.532   7.054   4.198
19582TIP3    H280238   3.597   7.096   4.068
19583TIP3   OH280239   3.254   6.682   4.783
19583TIP3    H180240   3.158   6.675   4.780
19583TIP3    H280241   3.284   6.601   4.741
19584TIP3   OH280242   2.490   7.087   4.454
19584TIP3    H180243   2.497   7.165   4.398
19584TIP3    H280244   2.409   7.100   4.503
19585TIP3   OH280245   2.086   6.552   3.940
19585TIP3    H180246   2.125   6.626   3.986
19585TIP3    H280247   1.993   6.556   3.963
19586TIP3   OH280248   2.595   6.868   4.331
19586TIP3    H180249   2.565   6.949   4.372
19586TIP3    H280250   2.546   6.799   4.376
19587TIP3   OH280251   2.696   7.238   5.034
19587TIP3    H180252   2.727   7.327   5.051
19587TIP3    H280253   2.736   7.185   5.103
19588TIP3   OH280254   2.466  -0.015   4.307
19588TIP3    H180255   2.380   0.011   4.338
19588TIP3    H280256   2.527   0.034   4.362
19589TIP3   OH280257   3.030   6.860   5.013
19589TIP3    H180258   3.000   6.866   5.104
19589TIP3    H280259   3.102   6.797   5.016
19590TIP3   OH280260   3.279   6.991   3.935
19590TIP3    H180261   3.320   6.934   4.001
19590TIP3    H280262   3.185   6.977   3.946
19591TIP3   OH280263   3.319   7.323   5.201
19591TIP3    H180264   3.236   7.275   5.209
19591TIP3    H280265   3.294   7.410   5.172
19592TIP3   OH280266   2.109   6.073   5.155
19592TIP3    H180267   2.019   6.099   5.137
19592TIP3    H280268   2.103   6.016   5.232
19593TIP3   OH280269   3.399   6.811   4.105
19593TIP3    H180270   3.357   6.752   4.169
19593TIP3    H280271   3.492   6.806   4.126
19594TIP3   OH280272   2.129   7.240   5.004
19594TIP3    H180273   2.134   7.170   5.069
19594TIP3    H280274   2.072   7.306   5.045
19595TIP3   OH280275   2.696   7.061   3.775
19595TIP3    H180276   2.703   6.976   3.731
19595TIP3    H280277   2.657   7.042   3.860
19596TIP3   OH280278   2.556   7.036   4.016
19596TIP3    H180279   2.581   6.985   4.094
19596TIP3    H280280   2.573   7.127   4.041
19597TIP3   OH280281   2.170   6.776   4.085
19597TIP3    H180282   2.097   6.822   4.125
19597TIP3    H280283   2.216   6.843   4.035
19598TIP3   OH280284   3.072   5.964   5.073
19598TIP3    H180285   3.117   6.013   5.143
19598TIP3    H280286   3.017   5.901   5.120
19599TIP3   OH280287   3.098   5.942   4.253
19599TIP3    H180288   3.103   5.982   4.166
19599TIP3    H280289   3.139   6.005   4.312
19600TIP3   OH280290   2.861   7.195   4.036
19600TIP3    H180291   2.778   7.240   4.057
19600TIP3    H280292   2.889   7.234   3.954
19601TIP3   OH280293   2.756   6.183   4.293
19601TIP3    H180294   2.831   6.243   4.299
19601TIP3    H280295   2.752   6.142   4.379
19602TIP3   OH280296   2.875   6.267   5.190
19602TIP3    H180297   2.876   6.316   5.273
19602TIP3    H280298   2.910   6.181   5.213
19603TIP3   OH280299   2.854   5.843   4.342
19603TIP3    H180300   2.826   5.910   4.404
19603TIP3    H280301   2.940   5.872   4.312
19604TIP3   OH280302   2.605   7.301   4.074
19604TIP3    H180303   2.580   7.380   4.025
19604TIP3    H280304   2.557   7.309   4.157
19605TIP3   OH280305   2.442   5.998   4.054
19605TIP3    H180306   2.434   6.082   4.099
19605TIP3    H280307   2.527   5.964   4.081
19606TIP3   OH280308   3.460   6.012   5.282
19606TIP3    H180309   3.369   6.039   5.285
19606TIP3    H280310   3.507   6.089   5.250
19607TIP3   OH280311   3.321   6.426   4.665
19607TIP3    H180312   3.233   6.392   4.651
19607TIP3    H280313   3.363   6.363   4.723
19608TIP3   OH280314   2.293   6.970   3.928
19608TIP3    H180315   2.370   7.010   3.969
19608TIP3    H280316   2.330   6.916   3.858
19609TIP3   OH280317   2.063   6.286   3.855
19609TIP3    H180318   2.090   6.368   3.897
19609TIP3    H280319   2.002   6.313   3.787
19610TIP3   OH280320   2.184   5.764   4.709
19610TIP3    H180321   2.172   5.757   4.614
19610TIP3    H280322   2.150   5.682   4.744
19611TIP3   OH280323   2.038   7.121   4.385
19611TIP3    H180324   1.994   7.151   4.465
19611TIP3    H280325   2.031   7.195   4.324
19612TIP3   OH280326   2.433   7.237   5.644
19612TIP3    H180327   2.478   7.258   5.726
19612TIP3    H280328   2.495   7.261   5.576
19613TIP3   OH280329   2.925   7.232   3.763
19613TIP3    H180330   2.846   7.178   3.762
19613TIP3    H280331   2.989   7.182   3.712
19614TIP3   OH280332   3.169   7.096   5.447
19614TIP3    H180333   3.108   7.044   5.499
19614TIP3    H280334   3.244   7.111   5.504
19615TIP3   OH280335   3.339   7.221   3.788
19615TIP3    H180336   3.323   7.144   3.843
19615TIP3    H280337   3.393   7.278   3.843
19616TIP3   OH280338   1.970   6.803   5.562
19616TIP3    H180339   1.936   6.801   5.651
19616TIP3    H280340   1.901   6.844   5.511
19617TIP3   OH280341   2.434   6.798   3.764
19617TIP3    H180342   2.455   6.752   3.846
19617TIP3    H280343   2.519   6.808   3.720
19618TIP3   OH280344   2.748   6.792   5.436
19618TIP3    H180345   2.677   6.850   5.410
19618TIP3    H280346   2.705   6.710   5.461
19619TIP3   OH280347   3.018   6.924   3.771
19619TIP3    H180348   2.987   6.919   3.862
19619TIP3    H280349   3.001   6.837   3.735
19620TIP3   OH280350   3.217   6.777   5.249
19620TIP3    H180351   3.284   6.845   5.259
19620TIP3    H280352   3.137   6.816   5.283
19621TIP3   OH280353   2.529   6.668   3.994
19621TIP3    H180354   2.474   6.630   4.063
19621TIP3    H280355   2.571   6.592   3.952
19622TIP3   OH280356   2.474   6.422   5.282
19622TIP3    H180357   2.395   6.475   5.273
19622TIP3    H280358   2.533   6.453   5.214
19623TIP3   OH280359   2.676   6.489   3.837
19623TIP3    H180360   2.672   6.514   3.745
19623TIP3    H280361   2.770   6.482   3.857
19624TIP3   OH280362   3.054   6.720   5.522
19624TIP3    H180363   3.143   6.718   5.558
19624TIP3    H280364   3.011   6.643   5.560
19625TIP3   OH280365   3.550   6.661   3.795
19625TIP3    H180366   3.559   6.648   3.701
19625TIP3    H280367   3.540   6.756   3.806
19626TIP3   OH280368   2.542   6.159   5.352
19626TIP3    H180369   2.551   6.107   5.273
19626TIP3    H280370   2.516   6.246   5.321
19627TIP3   OH280371   2.571   6.022   5.105
19627TIP3    H180372   2.624   6.074   5.045
19627TIP3    H280373   2.485   6.019   5.064
19628TIP3   OH280374   2.656   6.524   5.106
19628TIP3    H180375   2.751   6.529   5.115
19628TIP3    H280376   2.632   6.609   5.068
19629TIP3   OH280377   3.332   6.553   5.359
19629TIP3    H180378   3.281   6.630   5.333
19629TIP3    H280379   3.413   6.590   5.394
19630TIP3   OH280380   2.628   5.755   5.164
19630TIP3    H180381   2.609   5.847   5.145
19630TIP3    H280382   2.553   5.708   5.128
19631TIP3   OH280383   2.752   6.150   5.527
19631TIP3    H180384   2.715   6.162   5.615
19631TIP3    H280385   2.675   6.144   5.470
19632TIP3   OH280386   3.007   6.081   5.434
19632TIP3    H180387   2.920   6.096   5.472
19632TIP3    H280388   3.056   6.035   5.502
19633TIP3   OH280389   3.131   5.940   5.634
19633TIP3    H180390   3.157   5.848   5.627
19633TIP3    H280391   3.116   5.953   5.728
19634TIP3   OH280392   2.164   6.097   5.563
19634TIP3    H180393   2.174   6.006   5.533
19634TIP3    H280394   2.129   6.089   5.652
19635TIP3   OH280395   2.658   5.676   5.423
19635TIP3    H180396   2.712   5.597   5.412
19635TIP3    H280397   2.641   5.706   5.334
19636TIP3   OH280398   2.031   7.049   3.831
19636TIP3    H180399   2.104   7.032   3.890
19636TIP3    H280400   2.015   6.966   3.787
19637TIP3   OH280401   1.942   7.295   4.604
19637TIP3    H180402   1.943   7.223   4.667
19637TIP3    H280403   1.992   7.364   4.646
19638TIP3   OH280404   3.557   6.900   5.691
19638TIP3    H180405   3.470   6.914   5.729
19638TIP3    H280406   3.607   6.978   5.718
19639TIP3   OH280407   3.657   6.746   4.194
19639TIP3    H180408   3.721   6.817   4.199
19639TIP3    H280409   3.680   6.689   4.268
19640TIP3   OH280410   3.725   6.557   4.384
19640TIP3    H180411   3.638   6.535   4.419
19640TIP3    H280412   3.777   6.578   4.462
19641TIP3   OH280413   3.700   6.879   4.888
19641TIP3    H180414   3.750   6.805   4.853
19641TIP3    H280415   3.738   6.956   4.846
19642TIP3   OH280416   3.493   7.149   5.070
19642TIP3    H180417   3.425   7.205   5.105
19642TIP3    H280418   3.469   7.136   4.978
19643TIP3   OH280419   3.707   6.566   3.998
19643TIP3    H180420   3.653   6.594   3.924
19643TIP3    H280421   3.690   6.631   4.067
19644TIP3   OH280422   3.544   6.274   3.823
19644TIP3    H180423   3.522   6.337   3.755
19644TIP3    H280424   3.523   6.189   3.784
19645TIP3   OH280425   3.468   6.458   4.433
19645TIP3    H180426   3.460   6.368   4.400
19645TIP3    H280427   3.422   6.456   4.517
19646TIP3   OH280428   1.945   6.649   4.843
19646TIP3    H180429   1.954   6.632   4.749
19646TIP3    H280430   2.027   6.618   4.881
19647TIP3   OH280431   3.590   6.626   5.430
19647TIP3    H180432   3.649   6.557   5.398
19647TIP3    H280433   3.631   6.708   5.402
19648TIP3   OH280434   3.717   6.380   5.373
19648TIP3    H180435   3.625   6.355   5.387
19648TIP3    H280436   3.767   6.313   5.418
19649TIP3   OH280437   3.471   6.025   3.725
19649TIP3    H180438   3.506   5.981   3.803
19649TIP3    H280439   3.377   6.007   3.728
19650TIP3   OH280440   3.447   6.213   4.257
19650TIP3    H180441   3.478   6.123   4.261
19650TIP3    H280442   3.511   6.258   4.202
19651TIP3   OH280443   3.471   6.231   4.806
19651TIP3    H180444   3.564   6.243   4.788
19651TIP3    H280445   3.462   6.250   4.899
19652TIP3   OH280446   3.502   6.315   5.073
19652TIP3    H180447   3.417   6.335   5.110
19652TIP3    H280448   3.546   6.399   5.066
19653TIP3   OH280449   1.945   6.160   5.408
19653TIP3    H180450   2.021   6.143   5.464
19653TIP3    H280451   1.889   6.083   5.418
19654TIP3   OH280452   3.726   5.726   5.643
19654TIP3    H180453   3.794   5.673   5.601
19654TIP3    H280454   3.717   5.803   5.586
19655TIP3   OH280455   3.514   5.941   4.285
19655TIP3    H180456   3.532   5.916   4.376
19655TIP3    H280457   3.444   5.881   4.258
19656TIP3   OH280458   2.065   6.015   4.732
19656TIP3    H180459   2.099   5.926   4.737
19656TIP3    H280460   2.141   6.071   4.748
19657TIP3   OH280461   1.858   6.284   4.802
19657TIP3    H180462   1.932   6.290   4.741
19657TIP3    H280463   1.882   6.342   4.874
19658TIP3   OH280464   3.663   5.906   5.437
19658TIP3    H180465   3.588   5.959   5.410
19658TIP3    H280466   3.672   5.840   5.368
19659TIP3   OH280467   3.636   5.912   3.918
19659TIP3    H180468   3.691   5.855   3.864
19659TIP3    H280469   3.697   5.975   3.957
19660TIP3   OH280470   1.921   5.922   4.217
19660TIP3    H180471   1.828   5.920   4.236
19660TIP3    H280472   1.931   5.993   4.153
19661TIP3   OH280473   1.908   5.764   5.057
19661TIP3    H180474   1.837   5.752   5.121
19661TIP3    H280475   1.882   5.840   5.005
19662TIP3   OH280476   2.121   7.199   5.482
19662TIP3    H180477   2.029   7.194   5.458
19662TIP3    H280478   2.123   7.184   5.576
19663TIP3   OH280479   2.425   7.261   5.106
19663TIP3    H180480   2.359   7.283   5.040
19663TIP3    H280481   2.508   7.261   5.057
19664TIP3   OH280482   3.599   5.733   5.229
19664TIP3    H180483   3.524   5.778   5.190
19664TIP3    H280484   3.589   5.642   5.201
19665TIP3   OH280485   2.313   7.241   4.657
19665TIP3    H180486   2.284   7.153   4.682
19665TIP3    H280487   2.400   7.250   4.696
19666TIP3   OH280488   2.561   7.206   4.796
19666TIP3    H180489   2.568   7.114   4.768
19666TIP3    H280490   2.613   7.210   4.876
19667TIP3   OH280491   2.912   5.858   4.681
19667TIP3    H180492   2.849   5.793   4.712
19667TIP3    H280493   2.989   5.808   4.655
19668TIP3   OH280494   3.431   5.731   4.669
19668TIP3    H180495   3.447   5.825   4.672
19668TIP3    H280496   3.335   5.724   4.663
19669TIP3   OH280497   3.662   5.839   4.514
19669TIP3    H180498   3.718   5.803   4.444
19669TIP3    H280499   3.692   5.930   4.524
19670TIP3   OH280500   2.149   5.731   4.437
19670TIP3    H180501   2.056   5.713   4.421
19670TIP3    H280502   2.192   5.647   4.423
19671TIP3   OH280503   2.068   5.744   4.052
19671TIP3    H180504   2.117   5.803   3.994
19671TIP3    H280505   2.022   5.802   4.113
19672TIP3   OH280506   2.647   5.689   4.464
19672TIP3    H180507   2.716   5.744   4.426
19672TIP3    H280508   2.660   5.697   4.559
19673TIP3   OH280509   3.152   5.718   4.603
19673TIP3    H180510   3.145   5.704   4.508
19673TIP3    H280511   3.124   5.635   4.642
19674TIP3   OH280512   3.309   5.767   4.208
19674TIP3    H180513   3.233   5.825   4.218
19674TIP3    H280514   3.272   5.679   4.211
19675TIP3   OH280515   2.024   0.013   4.246
19675TIP3    H180516   2.046   0.019   4.153
19675TIP3    H280517   1.969   0.089   4.262
19676TIP3   OH280518   2.246   5.893   3.880
19676TIP3    H180519   2.297   5.836   3.823
19676TIP3    H280520   2.309   5.927   3.943
19677TIP3   OH280521   2.706   5.968   4.132
19677TIP3    H180522   2.739   5.897   4.186
19677TIP3    H280523   2.722   6.047   4.183
19678TIP3   OH280524   2.174   5.841   5.438
19678TIP3    H180525   2.116   5.764   5.441
19678TIP3    H280526   2.261   5.804   5.421
19679TIP3   OH280527   3.204   5.667   5.608
19679TIP3    H180528   3.196   5.629   5.695
19679TIP3    H280529   3.299   5.667   5.591
19680TIP3   OH280530   3.513   7.288   5.406
19680TIP3    H180531   3.444   7.288   5.340
19680TIP3    H280532   3.533   7.381   5.419
19681TIP3   OH280533   4.965   6.683   4.410
19681TIP3    H180534   4.943   6.777   4.407
19681TIP3    H280535   4.899   6.642   4.355
19682TIP3   OH280536   4.841   6.597   4.810
19682TIP3    H180537   4.866   6.557   4.893
19682TIP3    H280538   4.793   6.528   4.764
19683TIP3   OH280539   4.052   6.529   4.958
19683TIP3    H180540   4.061   6.462   5.025
19683TIP3    H280541   4.139   6.569   4.953
19684TIP3   OH280542   5.231   6.918   4.635
19684TIP3    H180543   5.193   6.840   4.675
19684TIP3    H280544   5.249   6.976   4.709
19685TIP3   OH280545   4.152   6.974   4.731
19685TIP3    H180546   4.131   6.887   4.699
19685TIP3    H280547   4.241   6.966   4.766
19686TIP3   OH280548   3.818   6.305   4.313
19686TIP3    H180549   3.800   6.394   4.340
19686TIP3    H280550   3.765   6.292   4.234
19687TIP3   OH280551   3.908   6.582   4.590
19687TIP3    H180552   3.935   6.492   4.612
19687TIP3    H280553   3.987   6.634   4.599
19688TIP3   OH280554   4.696   6.835   4.844
19688TIP3    H180555   4.739   6.756   4.811
19688TIP3    H280556   4.759   6.872   4.907
19689TIP3   OH280557   5.577   5.983   4.935
19689TIP3    H180558   5.584   6.049   5.005
19689TIP3    H280559   5.624   6.022   4.861
19690TIP3   OH280560   4.981   6.273   4.832
19690TIP3    H180561   4.993   6.179   4.849
19690TIP3    H280562   4.981   6.280   4.736
19691TIP3   OH280563   4.348   6.074   4.570
19691TIP3    H180564   4.355   6.161   4.531
19691TIP3    H280565   4.293   6.025   4.509
19692TIP3   OH280566   5.135   6.096   4.426
19692TIP3    H180567   5.171   6.059   4.507
19692TIP3    H280568   5.210   6.136   4.382
19693TIP3   OH280569   3.980   6.324   4.656
19693TIP3    H180570   4.046   6.291   4.717
19693TIP3    H280571   4.008   6.292   4.570
19694TIP3   OH280572   4.468   6.480   4.618
19694TIP3    H180573   4.551   6.443   4.648
19694TIP3    H280574   4.430   6.412   4.562
19695TIP3   OH280575   5.606   6.158   5.150
19695TIP3    H180576   5.539   6.223   5.129
19695TIP3    H280577   5.634   6.179   5.239
19696TIP3   OH280578   4.207   5.998   4.995
19696TIP3    H180579   4.185   6.062   4.927
19696TIP3    H280580   4.138   6.009   5.061
19697TIP3   OH280581   4.887   6.936   4.328
19697TIP3    H180582   4.898   6.949   4.234
19697TIP3    H280583   4.865   7.023   4.362
19698TIP3   OH280584   4.470   6.756   4.984
19698TIP3    H180585   4.414   6.827   5.013
19698TIP3    H280586   4.544   6.799   4.940
19699TIP3   OH280587   5.223   6.025   4.679
19699TIP3    H180588   5.145   6.014   4.734
19699TIP3    H280589   5.275   6.091   4.724
19700TIP3   OH280590   4.182   6.166   4.774
19700TIP3    H180591   4.236   6.226   4.827
19700TIP3    H280592   4.243   6.130   4.711
19701TIP3   OH280593   4.301   6.955   5.071
19701TIP3    H180594   4.307   7.050   5.061
19701TIP3    H280595   4.214   6.941   5.108
19702TIP3   OH280596   3.861   6.937   4.183
19702TIP3    H180597   3.783   6.987   4.159
19702TIP3    H280598   3.902   6.988   4.254
19703TIP3   OH280599   5.264   7.126   4.835
19703TIP3    H180600   5.175   7.125   4.870
19703TIP3    H280601   5.264   7.197   4.771
19704TIP3   OH280602   5.332   5.849   4.988
19704TIP3    H180603   5.281   5.923   5.021
19704TIP3    H280604   5.413   5.887   4.956
19705TIP3   OH280605   4.559   5.685   4.748
19705TIP3    H180606   4.535   5.592   4.753
19705TIP3    H280607   4.482   5.732   4.779
19706TIP3   OH280608   5.104   7.259   4.489
19706TIP3    H180609   5.136   7.182   4.443
19706TIP3    H280610   5.176   7.285   4.547
19707TIP3   OH280611   5.227   7.034   4.380
19707TIP3    H180612   5.233   6.964   4.316
19707TIP3    H280613   5.229   6.989   4.465
19708TIP3   OH280614   5.384   6.942   5.156
19708TIP3    H180615   5.343   6.865   5.117
19708TIP3    H280616   5.453   6.967   5.094
19709TIP3   OH280617   4.815   6.587   4.195
19709TIP3    H180618   4.756   6.657   4.167
19709TIP3    H280619   4.881   6.582   4.126
19710TIP3   OH280620   4.860   6.329   3.978
19710TIP3    H180621   4.923   6.393   4.010
19710TIP3    H280622   4.828   6.366   3.896
19711TIP3   OH280623   5.519   6.541   5.014
19711TIP3    H180624   5.450   6.607   5.009
19711TIP3    H280625   5.592   6.578   4.964
19712TIP3   OH280626   5.192   6.620   4.273
19712TIP3    H180627   5.120   6.641   4.332
19712TIP3    H280628   5.254   6.572   4.327
19713TIP3   OH280629   5.137   6.404   5.192
19713TIP3    H180630   5.141   6.464   5.266
19713TIP3    H280631   5.065   6.436   5.139
19714TIP3   OH280632   4.341   6.674   4.456
19714TIP3    H180633   4.314   6.630   4.375
19714TIP3    H280634   4.394   6.609   4.502
19715TIP3   OH280635   4.463   6.941   4.721
19715TIP3    H180636   4.475   6.952   4.627
19715TIP3    H280637   4.545   6.903   4.752
19716TIP3   OH280638   4.323   6.580   4.834
19716TIP3    H180639   4.380   6.553   4.762
19716TIP3    H280640   4.376   6.642   4.884
19717TIP3   OH280641   5.026   7.113   4.968
19717TIP3    H180642   5.016   7.154   5.054
19717TIP3    H280643   4.975   7.032   4.974
19718TIP3   OH280644   4.471   6.978   5.291
19718TIP3    H180645   4.419   7.044   5.336
19718TIP3    H280646   4.416   6.948   5.219
19719TIP3   OH280647   5.053   6.521   4.055
19719TIP3    H180648   5.106   6.566   4.121
19719TIP3    H280649   5.091   6.548   3.972
19720TIP3   OH280650   4.148   6.612   5.263
19720TIP3    H180651   4.155   6.688   5.320
19720TIP3    H280652   4.054   6.603   5.247
19721TIP3   OH280653   4.848   7.207   4.389
19721TIP3    H180654   4.933   7.225   4.430
19721TIP3    H280655   4.815   7.294   4.365
19722TIP3   OH280656   4.280   7.170   5.345
19722TIP3    H180657   4.267   7.196   5.254
19722TIP3    H280658   4.194   7.180   5.386
19723TIP3   OH280659   5.407   5.695   4.036
19723TIP3    H180660   5.325   5.725   4.075
19723TIP3    H280661   5.448   5.775   4.003
19724TIP3   OH280662   4.240   6.589   4.203
19724TIP3    H180663   4.176   6.654   4.174
19724TIP3    H280664   4.195   6.505   4.192
19725TIP3   OH280665   5.544   7.149   3.906
19725TIP3    H180666   5.546   7.235   3.864
19725TIP3    H280667   5.635   7.118   3.901
19726TIP3   OH280668   3.838   6.838   5.135
19726TIP3    H180669   3.786   6.846   5.055
19726TIP3    H280670   3.852   6.744   5.145
19727TIP3   OH280671   3.896   7.095   4.788
19727TIP3    H180672   3.975   7.046   4.765
19727TIP3    H280673   3.916   7.136   4.872
19728TIP3   OH280674   5.632   7.153   5.455
19728TIP3    H180675   5.620   7.058   5.451
19728TIP3    H280676   5.546   7.189   5.431
19729TIP3   OH280677   4.696   7.120   5.219
19729TIP3    H180678   4.681   7.189   5.282
19729TIP3    H280679   4.628   7.055   5.236
19730TIP3   OH280680   5.343   6.265   5.418
19730TIP3    H180681   5.295   6.321   5.480
19730TIP3    H280682   5.344   6.179   5.459
19731TIP3   OH280683   4.057   6.989   5.199
19731TIP3    H180684   4.087   6.955   5.283
19731TIP3    H280685   3.978   6.939   5.180
19732TIP3   OH280686   4.311   5.795   4.835
19732TIP3    H180687   4.234   5.791   4.777
19732TIP3    H280688   4.294   5.870   4.892
19733TIP3   OH280689   4.794   5.765   5.190
19733TIP3    H180690   4.833   5.721   5.266
19733TIP3    H280691   4.700   5.766   5.208
19734TIP3   OH280692   5.108   6.129   5.230
19734TIP3    H180693   5.046   6.122   5.304
19734TIP3    H280694   5.123   6.223   5.221
19735TIP3   OH280695   5.182   6.588   3.824
19735TIP3    H180696   5.162   6.580   3.731
19735TIP3    H280697   5.273   6.617   3.827
19736TIP3   OH280698   4.712   6.006   3.872
19736TIP3    H180699   4.679   6.008   3.962
19736TIP3    H280700   4.676   5.925   3.836
19737TIP3   OH280701   4.322   6.326   4.945
19737TIP3    H180702   4.262   6.327   5.020
19737TIP3    H280703   4.326   6.417   4.915
19738TIP3   OH280704   4.326   6.316   4.443
19738TIP3    H180705   4.231   6.306   4.441
19738TIP3    H280706   4.355   6.298   4.354
19739TIP3   OH280707   4.870   6.340   4.308
19739TIP3    H180708   4.845   6.425   4.272
19739TIP3    H280709   4.941   6.309   4.251
19740TIP3   OH280710   4.755   6.361   5.447
19740TIP3    H180711   4.722   6.275   5.474
19740TIP3    H280712   4.807   6.391   5.521
19741TIP3   OH280713   4.977   6.284   4.559
19741TIP3    H180714   4.928   6.325   4.488
19741TIP3    H280715   5.022   6.210   4.519
19742TIP3   OH280716   4.117   6.316   5.132
19742TIP3    H180717   4.156   6.346   5.214
19742TIP3    H280718   4.076   6.232   5.154
19743TIP3   OH280719   4.397   6.046   3.789
19743TIP3    H180720   4.381   6.049   3.884
19743TIP3    H280721   4.349   6.121   3.754
19744TIP3   OH280722   3.775   6.083   4.516
19744TIP3    H180723   3.836   6.079   4.590
19744TIP3    H280724   3.797   6.164   4.471
19745TIP3   OH280725   3.813   6.099   4.026
19745TIP3    H180726   3.882   6.140   3.973
19745TIP3    H280727   3.755   6.171   4.050
19746TIP3   OH280728   4.905   6.440   5.031
19746TIP3    H180729   4.940   6.383   4.963
19746TIP3    H280730   4.852   6.382   5.086
19747TIP3   OH280731   4.627   6.028   4.513
19747TIP3    H180732   4.539   6.037   4.551
19747TIP3    H280733   4.680   5.994   4.585
19748TIP3   OH280734   4.066   6.228   4.413
19748TIP3    H180735   3.988   6.246   4.361
19748TIP3    H280736   4.090   6.138   4.391
19749TIP3   OH280737   4.384   6.240   4.186
19749TIP3    H180738   4.478   6.238   4.200
19749TIP3    H280739   4.373   6.279   4.099
19750TIP3   OH280740   4.991   5.996   4.826
19750TIP3    H180741   4.965   5.990   4.918
19750TIP3    H280742   4.918   5.957   4.777
19751TIP3   OH280743   4.324   6.317   3.929
19751TIP3    H180744   4.265   6.298   3.856
19751TIP3    H280745   4.391   6.374   3.893
19752TIP3   OH280746   4.145   6.845   5.431
19752TIP3    H180747   4.214   6.861   5.495
19752TIP3    H280748   4.065   6.837   5.483
19753TIP3   OH280749   4.695   6.357   4.726
19753TIP3    H180750   4.772   6.309   4.696
19753TIP3    H280751   4.665   6.308   4.802
19754TIP3   OH280752   4.174   5.970   4.372
19754TIP3    H180753   4.126   5.890   4.397
19754TIP3    H280754   4.216   5.947   4.289
19755TIP3   OH280755   4.589   6.228   4.957
19755TIP3    H180756   4.508   6.279   4.965
19755TIP3    H280757   4.641   6.253   5.033
19756TIP3   OH280758   4.642   6.795   4.117
19756TIP3    H180759   4.570   6.760   4.065
19756TIP3    H280760   4.602   6.825   4.198
19757TIP3   OH280761   5.343   6.747   4.958
19757TIP3    H180762   5.400   6.804   4.908
19757TIP3    H280763   5.270   6.728   4.899
19758TIP3   OH280764   4.981   6.070   3.995
19758TIP3    H180765   4.896   6.101   3.961
19758TIP3    H280766   5.019   6.147   4.037
19759TIP3   OH280767   4.843   6.853   5.313
19759TIP3    H180768   4.855   6.785   5.379
19759TIP3    H280769   4.777   6.911   5.350
19760TIP3   OH280770   5.100   6.265   4.155
19760TIP3    H180771   5.188   6.253   4.192
19760TIP3    H280772   5.103   6.353   4.116
19761TIP3   OH280773   4.148   6.705   4.654
19761TIP3    H180774   4.211   6.706   4.582
19761TIP3    H280775   4.194   6.661   4.725
19762TIP3   OH280776   4.857   6.958   4.035
19762TIP3    H180777   4.816   7.045   4.039
19762TIP3    H280778   4.788   6.898   4.062
19763TIP3   OH280779   3.859   6.570   5.221
19763TIP3    H180780   3.844   6.511   5.295
19763TIP3    H280781   3.792   6.546   5.157
19764TIP3   OH280782   4.553   6.548   5.425
19764TIP3    H180783   4.484   6.502   5.378
19764TIP3    H280784   4.629   6.490   5.419
19765TIP3   OH280785   4.968   7.191   5.232
19765TIP3    H180786   4.878   7.162   5.219
19765TIP3    H280787   4.992   7.157   5.318
19766TIP3   OH280788   5.531   6.321   4.080
19766TIP3    H180789   5.491   6.297   3.997
19766TIP3    H280790   5.554   6.413   4.070
19767TIP3   OH280791   5.566   6.882   5.366
19767TIP3    H180792   5.486   6.914   5.324
19767TIP3    H280793   5.626   6.866   5.294
19768TIP3   OH280794   5.334   7.201   4.139
19768TIP3    H180795   5.319   7.133   4.205
19768TIP3    H280796   5.400   7.164   4.081
19769TIP3   OH280797   5.138   6.681   4.772
19769TIP3    H180798   5.042   6.673   4.775
19769TIP3    H280799   5.168   6.600   4.732
19770TIP3   OH280800   4.418   7.105   4.472
19770TIP3    H180801   4.468   7.186   4.474
19770TIP3    H280802   4.329   7.130   4.495
19771TIP3   OH280803   3.971   6.550   3.927
19771TIP3    H180804   4.013   6.621   3.976
19771TIP3    H280805   3.879   6.553   3.955
19772TIP3   OH280806   4.470   6.882   4.314
19772TIP3    H180807   4.460   6.961   4.367
19772TIP3    H280808   4.428   6.813   4.365
19773TIP3   OH280809   4.570   7.259   5.010
19773TIP3    H180810   4.569   7.341   5.059
19773TIP3    H280811   4.627   7.201   5.061
19774TIP3   OH280812   4.336   0.078   4.280
19774TIP3    H180813   4.254   0.053   4.321
19774TIP3    H280814   4.402   0.064   4.347
19775TIP3   OH280815   4.897   6.872   5.038
19775TIP3    H180816   4.863   6.871   5.128
19775TIP3    H280817   4.974   6.814   5.041
19776TIP3   OH280818   5.160   6.989   3.955
19776TIP3    H180819   5.206   6.948   4.029
19776TIP3    H280820   5.067   6.978   3.976
19777TIP3   OH280821   5.145   0.068   5.302
19777TIP3    H180822   5.076   0.004   5.285
19777TIP3    H280823   5.196   0.071   5.221
19778TIP3   OH280824   4.005   6.061   5.179
19778TIP3    H180825   3.911   6.076   5.173
19778TIP3    H280826   4.015   6.004   5.256
19779TIP3   OH280827   5.288   6.856   4.166
19779TIP3    H180828   5.247   6.775   4.196
19779TIP3    H280829   5.382   6.837   4.170
19780TIP3   OH280830   3.990   7.213   5.020
19780TIP3    H180831   4.019   7.146   5.082
19780TIP3    H280832   3.954   7.282   5.075
19781TIP3   OH280833   4.557   7.066   3.781
19781TIP3    H180834   4.570   6.982   3.737
19781TIP3    H280835   4.535   7.042   3.871
19782TIP3   OH280836   4.439   7.029   4.033
19782TIP3    H180837   4.462   6.976   4.109
19782TIP3    H280838   4.455   7.119   4.061
19783TIP3   OH280839   4.057   6.766   4.081
19783TIP3    H180840   3.985   6.813   4.123
19783TIP3    H280841   4.106   6.835   4.035
19784TIP3   OH280842   4.912   5.994   5.085
19784TIP3    H180843   4.980   6.027   5.143
19784TIP3    H280844   4.875   5.919   5.132
19785TIP3   OH280845   4.975   5.950   4.247
19785TIP3    H180846   4.975   5.996   4.163
19785TIP3    H280847   5.021   6.009   4.307
19786TIP3   OH280848   4.731   7.204   4.019
19786TIP3    H180849   4.648   7.239   4.051
19786TIP3    H280850   4.768   7.274   3.966
19787TIP3   OH280851   4.640   6.188   4.285
19787TIP3    H180852   4.717   6.244   4.288
19787TIP3    H280853   4.639   6.145   4.371
19788TIP3   OH280854   4.759   6.263   5.181
19788TIP3    H180855   4.759   6.295   5.271
19788TIP3    H280856   4.796   6.174   5.187
19789TIP3   OH280857   4.736   5.840   4.334
19789TIP3    H180858   4.707   5.907   4.396
19789TIP3    H280859   4.825   5.867   4.311
19790TIP3   OH280860   4.473   7.303   4.068
19790TIP3    H180861   4.428   7.339   3.991
19790TIP3    H280862   4.429   7.344   4.143
19791TIP3   OH280863   4.328   5.997   4.061
19791TIP3    H180864   4.322   6.081   4.105
19791TIP3    H280865   4.417   5.966   4.080
19792TIP3   OH280866   5.354   6.008   5.243
19792TIP3    H180867   5.265   6.042   5.250
19792TIP3    H280868   5.406   6.082   5.214
19793TIP3   OH280869   5.209   6.426   4.662
19793TIP3    H180870   5.125   6.386   4.639
19793TIP3    H280871   5.250   6.364   4.722
19794TIP3   OH280872   4.180   6.969   3.934
19794TIP3    H180873   4.255   7.008   3.979
19794TIP3    H280874   4.219   6.916   3.865
19795TIP3   OH280875   3.952   6.277   3.868
19795TIP3    H180876   3.979   6.361   3.903
19795TIP3    H280877   3.908   6.298   3.785
19796TIP3   OH280878   4.061   5.765   4.711
19796TIP3    H180879   4.060   5.753   4.616
19796TIP3    H280880   4.040   5.679   4.747
19797TIP3   OH280881   3.930   7.124   4.374
19797TIP3    H180882   3.884   7.149   4.454
19797TIP3    H280883   3.918   7.199   4.316
19798TIP3   OH280884   4.784   7.209   3.698
19798TIP3    H180885   4.700   7.190   3.739
19798TIP3    H280886   4.840   7.135   3.720
19799TIP3   OH280887   5.026   7.119   5.486
19799TIP3    H180888   4.984   7.056   5.545
19799TIP3    H280889   5.047   7.194   5.542
19800TIP3   OH280890   5.203   7.213   3.782
19800TIP3    H180891   5.190   7.142   3.846
19800TIP3    H280892   5.256   7.277   3.829
19801TIP3   OH280893   3.898   6.816   5.554
19801TIP3    H180894   3.910   6.721   5.562
19801TIP3    H280895   3.818   6.826   5.503
19802TIP3   OH280896   4.317   6.799   3.767
19802TIP3    H180897   4.340   6.756   3.849
19802TIP3    H280898   4.400   6.813   3.723
19803TIP3   OH280899   4.546   6.815   5.500
19803TIP3    H180900   4.522   6.863   5.421
19803TIP3    H280901   4.550   6.723   5.473
19804TIP3   OH280902   4.898   6.967   3.758
19804TIP3    H180903   4.884   6.951   3.852
19804TIP3    H280904   4.902   6.879   3.720
19805TIP3   OH280905   5.118   6.829   5.246
19805TIP3    H180906   5.177   6.904   5.251
19805TIP3    H280907   5.034   6.863   5.276
19806TIP3   OH280908   3.989   6.548   5.572
19806TIP3    H180909   4.057   6.495   5.531
19806TIP3    H280910   4.012   6.550   5.664
19807TIP3   OH280911   4.415   6.677   3.998
19807TIP3    H180912   4.366   6.641   4.073
19807TIP3    H280913   4.447   6.600   3.951
19808TIP3   OH280914   4.362   6.432   5.249
19808TIP3    H180915   4.296   6.502   5.254
19808TIP3    H280916   4.426   6.464   5.185
19809TIP3   OH280917   4.505   6.487   3.818
19809TIP3    H180918   4.488   6.516   3.728
19809TIP3    H280919   4.600   6.475   3.821
19810TIP3   OH280920   4.915   6.682   5.522
19810TIP3    H180921   4.998   6.648   5.488
19810TIP3    H280922   4.881   6.611   5.577
19811TIP3   OH280923   5.444   6.675   3.798
19811TIP3    H180924   5.450   6.657   3.704
19811TIP3    H280925   5.432   6.770   3.804
19812TIP3   OH280926   4.415   6.178   5.346
19812TIP3    H180927   4.435   6.119   5.273
19812TIP3    H280928   4.403   6.264   5.305
19813TIP3   OH280929   4.459   6.019   5.108
19813TIP3    H180930   4.513   6.072   5.049
19813TIP3    H280931   4.373   6.018   5.067
19814TIP3   OH280932   4.562   6.519   5.085
19814TIP3    H180933   4.656   6.525   5.101
19814TIP3    H280934   4.536   6.605   5.053
19815TIP3   OH280935   5.153   6.600   5.391
19815TIP3    H180936   5.142   6.677   5.335
19815TIP3    H280937   5.244   6.604   5.419
19816TIP3   OH280938   4.206   6.271   5.514
19816TIP3    H180939   4.155   6.194   5.538
19816TIP3    H280940   4.284   6.236   5.472
19817TIP3   OH280941   4.514   5.750   5.170
19817TIP3    H180942   4.496   5.843   5.157
19817TIP3    H280943   4.440   5.705   5.130
19818TIP3   OH280944   4.648   6.113   5.497
19818TIP3    H180945   4.640   6.027   5.537
19818TIP3    H280946   4.560   6.133   5.465
19819TIP3   OH280947   4.916   6.080   5.414
19819TIP3    H180948   4.827   6.081   5.450
19819TIP3    H280949   4.969   6.043   5.484
19820TIP3   OH280950   5.106   5.970   5.600
19820TIP3    H180951   5.090   5.876   5.606
19820TIP3    H280952   5.069   6.005   5.681
19821TIP3   OH280953   4.051   6.042   5.585
19821TIP3    H180954   4.094   5.966   5.546
19821TIP3    H280955   4.086   6.047   5.674
19822TIP3   OH280956   4.530   5.640   5.423
19822TIP3    H180957   4.584   5.562   5.415
19822TIP3    H280958   4.521   5.673   5.334
19823TIP3   OH280959   4.614   5.852   5.582
19823TIP3    H180960   4.585   5.772   5.537
19823TIP3    H280961   4.537   5.880   5.632
19824TIP3   OH280962   3.927   7.046   3.831
19824TIP3    H180963   4.002   7.030   3.888
19824TIP3    H280964   3.909   6.961   3.791
19825TIP3   OH280965   3.826   7.304   4.607
19825TIP3    H180966   3.827   7.228   4.664
19825TIP3    H280967   3.883   7.368   4.651
19826TIP3   OH280968   5.387   6.964   5.645
19826TIP3    H180969   5.310   6.942   5.698
19826TIP3    H280970   5.363   7.046   5.601
19827TIP3   OH280971   5.553   6.772   4.200
19827TIP3    H180972   5.631   6.827   4.193
19827TIP3    H280973   5.572   6.712   4.271
19828TIP3   OH280974   5.609   6.572   4.385
19828TIP3    H180975   5.524   6.540   4.414
19828TIP3    H280976   5.659   6.585   4.465
19829TIP3   OH280977   5.587   6.891   4.898
19829TIP3    H180978   5.632   6.813   4.866
19829TIP3    H280979   5.629   6.963   4.851
19830TIP3   OH280980   5.326   7.221   5.102
19830TIP3    H180981   5.329   7.140   5.152
19830TIP3    H280982   5.312   7.194   5.012
19831TIP3   OH280983   5.591   6.579   4.008
19831TIP3    H180984   5.538   6.606   3.933
19831TIP3    H280985   5.574   6.646   4.074
19832TIP3   OH280986   5.439   6.270   3.829
19832TIP3    H180987   5.409   6.334   3.764
19832TIP3    H280988   5.415   6.185   3.793
19833TIP3   OH280989   5.357   6.457   4.430
19833TIP3    H180990   5.355   6.367   4.398
19833TIP3    H280991   5.312   6.453   4.515
19834TIP3   OH280992   3.831   6.640   4.846
19834TIP3    H180993   3.845   6.625   4.753
19834TIP3    H280994   3.911   6.608   4.888
19835TIP3   OH280995   5.428   6.633   5.422
19835TIP3    H180996   5.483   6.560   5.394
19835TIP3    H280997   5.477   6.711   5.398
19836TIP3   OH280998   5.570   6.403   5.353
19836TIP3    H180999   5.486   6.358   5.365
19836TIP3    H281000   5.635   6.343   5.390
19837TIP3   OH281001   5.355   6.023   3.733
19837TIP3    H181002   5.390   5.978   3.810
19837TIP3    H281003   5.261   6.009   3.738
19838TIP3   OH281004   5.352   6.210   4.271
19838TIP3    H181005   5.380   6.119   4.271
19838TIP3    H281006   5.415   6.254   4.212
19839TIP3   OH281007   5.351   6.235   4.816
19839TIP3    H181008   5.444   6.245   4.797
19839TIP3    H281009   5.344   6.253   4.910
19840TIP3   OH281010   5.384   6.313   5.086
19840TIP3    H181011   5.304   6.340   5.132
19840TIP3    H281012   5.429   6.396   5.069
19841TIP3   OH281013   3.829   6.133   5.439
19841TIP3    H181014   3.909   6.116   5.489
19841TIP3    H281015   3.778   6.053   5.447
19842TIP3   OH281016   5.599   5.719   5.599
19842TIP3    H181017   5.681   5.673   5.580
19842TIP3    H281018   5.607   5.802   5.552
19843TIP3   OH281019   5.408   5.938   4.270
19843TIP3    H181020   5.428   5.896   4.354
19843TIP3    H281021   5.335   5.888   4.234
19844TIP3   OH281022   3.945   6.019   4.729
19844TIP3    H181023   3.981   5.930   4.734
19844TIP3    H281024   4.019   6.076   4.752
19845TIP3   OH281025   3.744   6.280   4.808
19845TIP3    H181026   3.820   6.290   4.750
19845TIP3    H281027   3.757   6.345   4.876
19846TIP3   OH281028   5.547   5.948   5.445
19846TIP3    H181029   5.489   5.987   5.510
19846TIP3    H281030   5.491   5.934   5.369
19847TIP3   OH281031   5.527   5.911   3.919
19847TIP3    H181032   5.581   5.857   3.861
19847TIP3    H281033   5.587   5.977   3.954
19848TIP3   OH281034   3.782   5.888   4.202
19848TIP3    H181035   3.690   5.904   4.225
19848TIP3    H281036   3.809   5.968   4.156
19849TIP3   OH281037   3.817   5.793   5.070
19849TIP3    H181038   3.746   5.776   5.132
19849TIP3    H281039   3.783   5.863   5.014
19850TIP3   OH281040   4.027   7.216   5.465
19850TIP3    H181041   3.937   7.189   5.444
19850TIP3    H281042   4.047   7.170   5.547
19851TIP3   OH281043   4.297   7.232   5.075
19851TIP3    H181044   4.248   7.276   5.005
19851TIP3    H281045   4.388   7.255   5.059
19852TIP3   OH281046   5.458   5.718   5.229
19852TIP3    H181047   5.403   5.769   5.169
19852TIP3    H281048   5.462   5.631   5.190
19853TIP3   OH281049   4.183   7.239   4.658
19853TIP3    H181050   4.156   7.148   4.673
19853TIP3    H281051   4.269   7.246   4.700
19854TIP3   OH281052   4.420   7.200   4.791
19854TIP3    H181053   4.438   7.109   4.767
19854TIP3    H281054   4.474   7.216   4.868
19855TIP3   OH281055   4.778   5.870   4.682
19855TIP3    H181056   4.717   5.803   4.711
19855TIP3    H281057   4.848   5.822   4.639
19856TIP3   OH281058   5.293   5.722   4.653
19856TIP3    H181059   5.367   5.760   4.606
19856TIP3    H281060   5.255   5.796   4.701
19857TIP3   OH281061   5.497   5.812   4.498
19857TIP3    H181062   5.561   5.744   4.477
19857TIP3    H281063   5.549   5.890   4.518
19858TIP3   OH281064   4.043   5.729   4.435
19858TIP3    H181065   3.954   5.715   4.404
19858TIP3    H281066   4.086   5.644   4.425
19859TIP3   OH281067   3.958   5.735   4.043
19859TIP3    H181068   4.008   5.798   3.991
19859TIP3    H281069   3.902   5.790   4.099
19860TIP3   OH281070   4.529   5.689   4.462
19860TIP3    H181071   4.599   5.739   4.419
19860TIP3    H281072   4.547   5.697   4.555
19861TIP3   OH281073   4.980   5.723   4.574
19861TIP3    H181074   5.072   5.728   4.548
19861TIP3    H281075   4.973   5.640   4.621
19862TIP3   OH281076   5.190   5.787   4.178
19862TIP3    H181077   5.117   5.845   4.199
19862TIP3    H281078   5.154   5.699   4.190
19863TIP3   OH281079   3.907   0.018   4.238
19863TIP3    H181080   3.924   0.025   4.144
19863TIP3    H281081   3.858   0.098   4.259
19864TIP3   OH281082   4.131   5.897   3.883
19864TIP3    H181083   4.186   5.846   3.824
19864TIP3    H281084   4.192   5.933   3.947
19865TIP3   OH281085   4.599   5.971   4.125
19865TIP3    H181086   4.639   5.904   4.181
19865TIP3    H281087   4.614   6.053   4.170
19866TIP3   OH281088   4.080   5.775   5.400
19866TIP3    H181089   4.021   5.714   5.444
19866TIP3    H281090   4.167   5.753   5.435
19867TIP3   OH281091   5.108   5.685   5.588
19867TIP3    H181092   5.109   5.631   5.667
19867TIP3    H281093   5.198   5.681   5.555
19868TIP3   OH281094   5.373   7.245   5.424
19868TIP3    H181095   5.293   7.281   5.386
19868TIP3    H281096   5.371   7.274   5.516
19869TIP3   OH281097   6.847   6.688   4.421
19869TIP3    H181098   6.842   6.783   4.407
19869TIP3    H281099   6.780   6.652   4.363
19870TIP3   OH281100   6.719   6.586   4.814
19870TIP3    H181101   6.745   6.548   4.898
19870TIP3    H281102   6.670   6.517   4.770
19871TIP3   OH281103   5.938   6.541   4.979
19871TIP3    H181104   5.941   6.458   5.027
19871TIP3    H281105   6.005   6.595   5.021
19872TIP3   OH281106   7.105   6.910   4.638
19872TIP3    H181107   7.071   6.834   4.686
19872TIP3    H281108   7.122   6.976   4.705
19873TIP3   OH281109   6.047   6.979   4.726
19873TIP3    H181110   6.019   6.891   4.699
19873TIP3    H281111   6.138   6.968   4.753
19874TIP3   OH281112   5.736   6.343   4.281
19874TIP3    H181113   5.706   6.425   4.318
19874TIP3    H281114   5.670   6.321   4.215
19875TIP3   OH281115   5.788   6.584   4.600
19875TIP3    H181116   5.814   6.494   4.620
19875TIP3    H281117   5.869   6.635   4.607
19876TIP3   OH281118   6.571   6.827   4.827
19876TIP3    H181119   6.610   6.745   4.797
19876TIP3    H281120   6.636   6.864   4.886
19877TIP3   OH281121   6.885   6.264   4.840
19877TIP3    H181122   6.894   6.171   4.858
19877TIP3    H281123   6.859   6.269   4.748
19878TIP3   OH281124   6.231   6.073   4.566
19878TIP3    H181125   6.234   6.160   4.526
19878TIP3    H281126   6.172   6.023   4.510
19879TIP3   OH281127   6.971   6.113   4.410
19879TIP3    H181128   7.011   6.074   4.488
19879TIP3    H281129   7.045   6.149   4.361
19880TIP3   OH281130   5.865   6.327   4.663
19880TIP3    H181131   5.932   6.289   4.720
19880TIP3    H281132   5.885   6.293   4.576
19881TIP3   OH281133   6.361   6.480   4.607
19881TIP3    H181134   6.439   6.438   4.642
19881TIP3    H281135   6.318   6.412   4.555
19882TIP3   OH281136   6.095   5.997   4.998
19882TIP3    H181137   6.074   6.059   4.928
19882TIP3    H281138   6.023   6.005   5.060
19883TIP3   OH281139   6.841   6.941   4.307
19883TIP3    H181140   6.814   6.942   4.215
19883TIP3    H281141   6.801   7.019   4.344
19884TIP3   OH281142   6.352   6.758   4.983
19884TIP3    H181143   6.296   6.829   5.014
19884TIP3    H281144   6.422   6.801   4.934
19885TIP3   OH281145   7.072   6.019   4.642
19885TIP3    H181146   7.001   5.996   4.702
19885TIP3    H281147   7.138   6.060   4.698
19886TIP3   OH281148   6.069   6.165   4.777
19886TIP3    H181149   6.123   6.225   4.829
19886TIP3    H281150   6.130   6.129   4.712
19887TIP3   OH281151   6.192   6.965   5.080
19887TIP3    H181152   6.196   7.061   5.077
19887TIP3    H281153   6.104   6.946   5.113
19888TIP3   OH281154   5.780   6.927   4.157
19888TIP3    H181155   5.768   6.987   4.083
19888TIP3    H281156   5.795   6.985   4.232
19889TIP3   OH281157   7.124   7.124   4.818
19889TIP3    H181158   7.037   7.121   4.858
19889TIP3    H281159   7.124   7.205   4.766
19890TIP3   OH281160   7.163   5.874   4.911
19890TIP3    H181161   7.069   5.889   4.924
19890TIP3    H281162   7.199   5.962   4.896
19891TIP3   OH281163   6.441   5.682   4.749
19891TIP3    H181164   6.420   5.589   4.757
19891TIP3    H281165   6.362   5.727   4.779
19892TIP3   OH281166   7.027   7.279   4.437
19892TIP3    H181167   7.052   7.189   4.416
19892TIP3    H281168   7.080   7.301   4.513
19893TIP3   OH281169   7.098   7.020   4.385
19893TIP3    H181170   7.019   6.978   4.351
19893TIP3    H281171   7.114   6.976   4.469
19894TIP3   OH281172   7.250   6.937   5.217
19894TIP3    H181173   7.226   6.865   5.158
19894TIP3    H281174   7.262   7.012   5.160
19895TIP3   OH281175   6.709   6.599   4.195
19895TIP3    H181176   6.645   6.665   4.168
19895TIP3    H281177   6.778   6.605   4.129
19896TIP3   OH281178   6.749   6.446   3.866
19896TIP3    H181179   6.802   6.480   3.938
19896TIP3    H281180   6.808   6.392   3.815
19897TIP3   OH281181   7.069   6.629   4.272
19897TIP3    H181182   7.000   6.654   4.333
19897TIP3    H281183   7.122   6.566   4.322
19898TIP3   OH281184   7.013   6.414   5.217
19898TIP3    H181185   7.008   6.474   5.291
19898TIP3    H281186   6.941   6.440   5.160
19899TIP3   OH281187   6.225   6.673   4.455
19899TIP3    H181188   6.196   6.629   4.375
19899TIP3    H281189   6.278   6.607   4.501
19900TIP3   OH281190   6.339   6.950   4.720
19900TIP3    H181191   6.346   6.967   4.626
19900TIP3    H281192   6.420   6.904   4.742
19901TIP3   OH281193   6.217   6.578   4.824
19901TIP3    H181194   6.278   6.553   4.754
19901TIP3    H281195   6.267   6.639   4.878
19902TIP3   OH281196   6.887   7.107   4.950
19902TIP3    H181197   6.884   7.139   5.040
19902TIP3    H281198   6.841   7.023   4.952
19903TIP3   OH281199   6.354   6.977   5.307
19903TIP3    H181200   6.291   7.038   5.346
19903TIP3    H281201   6.311   6.945   5.228
19904TIP3   OH281202   6.944   6.556   4.040
19904TIP3    H181203   6.990   6.589   4.117
19904TIP3    H281204   6.995   6.590   3.966
19905TIP3   OH281205   6.055   6.622   5.240
19905TIP3    H181206   6.060   6.690   5.307
19905TIP3    H281207   5.962   6.599   5.235
19906TIP3   OH281208   6.757   7.187   4.393
19906TIP3    H181209   6.840   7.226   4.419
19906TIP3    H281210   6.697   7.261   4.385
19907TIP3   OH281211   6.165   7.166   5.367
19907TIP3    H181212   6.161   7.202   5.279
19907TIP3    H281213   6.074   7.167   5.398
19908TIP3   OH281214   7.231   5.800   3.944
19908TIP3    H181215   7.179   5.784   4.023
19908TIP3    H281216   7.319   5.772   3.967
19909TIP3   OH281217   6.133   6.580   4.203
19909TIP3    H181218   6.078   6.646   4.161
19909TIP3    H281219   6.082   6.499   4.197
19910TIP3   OH281220   5.719   6.822   5.149
19910TIP3    H181221   5.679   6.820   5.062
19910TIP3    H281222   5.739   6.731   5.169
19911TIP3   OH281223   5.786   7.089   4.785
19911TIP3    H181224   5.866   7.042   4.763
19911TIP3    H281225   5.808   7.137   4.865
19912TIP3   OH281226   6.586   7.119   5.274
19912TIP3    H181227   6.601   7.165   5.356
19912TIP3    H281228   6.504   7.072   5.287
19913TIP3   OH281229   7.278   6.370   5.369
19913TIP3    H181230   7.189   6.338   5.360
19913TIP3    H281231   7.327   6.296   5.406
19914TIP3   OH281232   5.945   6.972   5.202
19914TIP3    H181233   5.968   6.941   5.290
19914TIP3    H281234   5.864   6.926   5.181
19915TIP3   OH281235   6.198   5.795   4.834
19915TIP3    H181236   6.120   5.786   4.778
19915TIP3    H281237   6.177   5.869   4.891
19916TIP3   OH281238   6.692   5.762   5.190
19916TIP3    H181239   6.737   5.715   5.261
19916TIP3    H281240   6.599   5.759   5.214
19917TIP3   OH281241   6.999   6.136   5.264
19917TIP3    H181242   6.932   6.124   5.331
19917TIP3    H281243   7.000   6.230   5.247
19918TIP3   OH281244   7.089   6.645   3.826
19918TIP3    H181245   7.060   6.630   3.736
19918TIP3    H281246   7.142   6.724   3.821
19919TIP3   OH281247   6.630   6.009   3.879
19919TIP3    H181248   6.579   6.011   3.960
19919TIP3    H281249   6.593   5.936   3.829
19920TIP3   OH281250   6.207   6.330   4.948
19920TIP3    H181251   6.145   6.330   5.021
19920TIP3    H281252   6.205   6.419   4.914
19921TIP3   OH281253   6.209   6.316   4.441
19921TIP3    H181254   6.114   6.308   4.442
19921TIP3    H281255   6.234   6.297   4.350
19922TIP3   OH281256   6.746   6.352   4.308
19922TIP3    H181257   6.727   6.440   4.275
19922TIP3    H281258   6.820   6.322   4.254
19923TIP3   OH281259   6.658   6.342   5.457
19923TIP3    H181260   6.611   6.274   5.505
19923TIP3    H281261   6.745   6.344   5.498
19924TIP3   OH281262   6.828   6.288   4.575
19924TIP3    H181263   6.794   6.349   4.511
19924TIP3    H281264   6.872   6.221   4.523
19925TIP3   OH281265   6.000   6.315   5.135
19925TIP3    H181266   6.016   6.346   5.225
19925TIP3    H281267   5.958   6.230   5.146
19926TIP3   OH281268   6.316   6.042   3.793
19926TIP3    H181269   6.289   6.032   3.884
19926TIP3    H281270   6.255   6.106   3.757
19927TIP3   OH281271   5.669   6.017   4.521
19927TIP3    H181272   5.718   6.029   4.602
19927TIP3    H281273   5.732   6.035   4.452
19928TIP3   OH281274   5.698   6.107   4.017
19928TIP3    H181275   5.765   6.149   3.963
19928TIP3    H281276   5.641   6.179   4.044
19929TIP3   OH281277   6.790   6.432   5.036
19929TIP3    H181278   6.830   6.374   4.972
19929TIP3    H281279   6.737   6.375   5.091
19930TIP3   OH281280   6.512   6.037   4.528
19930TIP3    H181281   6.421   6.043   4.559
19930TIP3    H281282   6.559   5.997   4.601
19931TIP3   OH281283   5.948   6.232   4.418
19931TIP3    H181284   5.877   6.262   4.360
19931TIP3    H281285   5.968   6.143   4.388
19932TIP3   OH281286   6.271   6.236   4.186
19932TIP3    H181287   6.365   6.234   4.204
19932TIP3    H281288   6.265   6.277   4.099
19933TIP3   OH281289   6.876   5.981   4.836
19933TIP3    H181290   6.852   5.983   4.929
19933TIP3    H281291   6.799   5.946   4.792
19934TIP3   OH281292   6.246   6.322   3.929
19934TIP3    H181293   6.193   6.304   3.851
19934TIP3    H281294   6.321   6.372   3.896
19935TIP3   OH281295   6.006   6.822   5.440
19935TIP3    H181296   6.069   6.820   5.513
19935TIP3    H281297   5.921   6.814   5.483
19936TIP3   OH281298   6.577   6.352   4.729
19936TIP3    H181299   6.648   6.300   4.691
19936TIP3    H281300   6.548   6.302   4.805
19937TIP3   OH281301   6.047   5.969   4.374
19937TIP3    H181302   5.999   5.890   4.399
19937TIP3    H281303   6.083   5.948   4.288
19938TIP3   OH281304   6.473   6.229   4.964
19938TIP3    H181305   6.392   6.279   4.969
19938TIP3    H281306   6.523   6.256   5.041
19939TIP3   OH281307   6.530   6.798   4.122
19939TIP3    H181308   6.461   6.759   4.068
19939TIP3    H281309   6.486   6.828   4.201
19940TIP3   OH281310   7.226   6.758   4.997
19940TIP3    H181311   7.286   6.732   4.927
19940TIP3    H281312   7.139   6.747   4.958
19941TIP3   OH281313   6.882   6.065   3.979
19941TIP3    H181314   6.791   6.068   3.949
19941TIP3    H281315   6.896   6.151   4.021
19942TIP3   OH281316   6.701   6.863   5.283
19942TIP3    H181317   6.679   6.825   5.368
19942TIP3    H281318   6.668   6.953   5.286
19943TIP3   OH281319   6.956   6.289   4.127
19943TIP3    H181320   7.040   6.267   4.167
19943TIP3    H281321   6.967   6.379   4.097
19944TIP3   OH281322   6.032   6.707   4.657
19944TIP3    H181323   6.095   6.704   4.584
19944TIP3    H281324   6.075   6.659   4.728
19945TIP3   OH281325   6.744   6.956   4.041
19945TIP3    H181326   6.711   7.045   4.047
19945TIP3    H281327   6.669   6.901   4.064
19946TIP3   OH281328   5.773   6.573   5.259
19946TIP3    H181329   5.815   6.547   5.342
19946TIP3    H281330   5.694   6.520   5.255
19947TIP3   OH281331   6.477   6.554   5.430
19947TIP3    H181332   6.411   6.509   5.377
19947TIP3    H281333   6.550   6.493   5.434
19948TIP3   OH281334   6.868   7.166   5.219
19948TIP3    H181335   6.774   7.185   5.225
19948TIP3    H281336   6.887   7.117   5.299
19949TIP3   OH281337   7.244   7.159   4.189
19949TIP3    H181338   7.206   7.110   4.262
19949TIP3    H281339   7.223   7.107   4.112
19950TIP3   OH281340   7.004   6.689   4.801
19950TIP3    H181341   6.910   6.676   4.793
19950TIP3    H281342   7.042   6.614   4.756
19951TIP3   OH281343   6.282   7.093   4.470
19951TIP3    H181344   6.311   7.180   4.439
19951TIP3    H281345   6.188   7.104   4.487
19952TIP3   OH281346   5.849   6.547   3.915
19952TIP3    H181347   5.902   6.613   3.960
19952TIP3    H281348   5.762   6.557   3.954
19953TIP3   OH281349   6.363   6.878   4.322
19953TIP3    H181350   6.343   6.955   4.374
19953TIP3    H281351   6.318   6.806   4.367
19954TIP3   OH281352   6.472   7.240   5.045
19954TIP3    H181353   6.493   7.330   5.071
19954TIP3    H281354   6.524   7.185   5.103
19955TIP3   OH281355   6.219   0.008   4.287
19955TIP3    H181356   6.133   0.018   4.329
19955TIP3    H281357   6.281   0.044   4.351
19956TIP3   OH281358   6.775   6.860   5.014
19956TIP3    H181359   6.742   6.857   5.104
19956TIP3    H281360   6.854   6.806   5.015
19957TIP3   OH281361   7.023   6.999   3.964
19957TIP3    H181362   7.068   6.941   4.024
19957TIP3    H281363   6.930   6.986   3.982
19958TIP3   OH281364   7.103   7.310   5.188
19958TIP3    H181365   7.021   7.260   5.194
19958TIP3    H281366   7.075   7.402   5.194
19959TIP3   OH281367   5.882   6.062   5.168
19959TIP3    H181368   5.790   6.082   5.151
19959TIP3    H281369   5.882   6.020   5.254
19960TIP3   OH281370   7.172   6.839   4.124
19960TIP3    H181371   7.141   6.769   4.181
19960TIP3    H281372   7.264   6.850   4.146
19961TIP3   OH281373   5.873   7.233   5.006
19961TIP3    H181374   5.894   7.176   5.080
19961TIP3    H281375   5.814   7.298   5.041
19962TIP3   OH281376   6.483   7.076   3.817
19962TIP3    H181377   6.429   7.035   3.750
19962TIP3    H281378   6.443   7.050   3.900
19963TIP3   OH281379   6.321   7.042   4.046
19963TIP3    H181380   6.339   6.994   4.126
19963TIP3    H281381   6.341   7.133   4.067
19964TIP3   OH281382   5.974   6.756   4.056
19964TIP3    H181383   5.906   6.806   4.101
19964TIP3    H281384   6.019   6.820   4.001
19965TIP3   OH281385   6.817   5.993   5.099
19965TIP3    H181386   6.878   6.026   5.165
19965TIP3    H281387   6.775   5.918   5.141
19966TIP3   OH281388   6.861   5.940   4.229
19966TIP3    H181389   6.869   5.983   4.143
19966TIP3    H281390   6.894   6.004   4.291
19967TIP3   OH281391   6.646   7.211   4.047
19967TIP3    H181392   6.559   7.250   4.062
19967TIP3    H281393   6.672   7.244   3.961
19968TIP3   OH281394   6.527   6.188   4.293
19968TIP3    H181395   6.601   6.248   4.298
19968TIP3    H281396   6.520   6.149   4.380
19969TIP3   OH281397   6.649   6.254   5.191
19969TIP3    H181398   6.648   6.285   5.281
19969TIP3    H281399   6.683   6.165   5.196
19970TIP3   OH281400   6.623   5.860   4.345
19970TIP3    H181401   6.596   5.928   4.407
19970TIP3    H281402   6.708   5.889   4.313
19971TIP3   OH281403   6.384  -0.025   4.073
19971TIP3    H181404   6.392   0.065   4.041
19971TIP3    H281405   6.323  -0.019   4.147
19972TIP3   OH281406   6.221   5.993   4.051
19972TIP3    H181407   6.208   6.077   4.095
19972TIP3    H281408   6.309   5.966   4.078
19973TIP3   OH281409   7.269   6.048   5.190
19973TIP3    H181410   7.184   6.045   5.235
19973TIP3    H281411   7.272   6.134   5.149
19974TIP3   OH281412   7.087   6.437   4.690
19974TIP3    H181413   7.003   6.392   4.696
19974TIP3    H281414   7.143   6.393   4.753
19975TIP3   OH281415   6.081   6.983   3.910
19975TIP3    H181416   6.154   7.005   3.968
19975TIP3    H281417   6.119   6.983   3.822
19976TIP3   OH281418   5.841   6.276   3.855
19976TIP3    H181419   5.863   6.363   3.888
19976TIP3    H281420   5.795   6.292   3.773
19977TIP3   OH281421   5.952   5.767   4.707
19977TIP3    H181422   5.942   5.760   4.612
19977TIP3    H281423   5.922   5.683   4.741
19978TIP3   OH281424   5.809   7.116   4.357
19978TIP3    H181425   5.773   7.147   4.440
19978TIP3    H281426   5.803   7.192   4.299
19979TIP3   OH281427   6.229   7.202   5.634
19979TIP3    H181428   6.314   7.167   5.663
19979TIP3    H281429   6.228   7.187   5.540
19980TIP3   OH281430   6.707   7.231   3.768
19980TIP3    H181431   6.630   7.175   3.779
19980TIP3    H281432   6.767   7.178   3.715
19981TIP3   OH281433   6.906   7.033   5.454
19981TIP3    H181434   6.852   6.979   5.511
19981TIP3    H281435   6.957   7.088   5.513
19982TIP3   OH281436   7.079   7.212   3.795
19982TIP3    H181437   7.060   7.144   3.859
19982TIP3    H281438   7.124   7.280   3.844
19983TIP3   OH281439   5.752   6.811   5.563
19983TIP3    H181440   5.712   6.741   5.615
19983TIP3    H281441   5.683   6.837   5.502
19984TIP3   OH281442   6.175   6.707   3.763
19984TIP3    H181443   6.222   6.696   3.846
19984TIP3    H281444   6.204   6.793   3.730
19985TIP3   OH281445   6.421   6.815   5.519
19985TIP3    H181446   6.403   6.860   5.437
19985TIP3    H281447   6.449   6.727   5.493
19986TIP3   OH281448   6.785   6.923   3.760
19986TIP3    H181449   6.758   6.925   3.852
19986TIP3    H281450   6.771   6.832   3.733
19987TIP3   OH281451   6.973   6.813   5.252
19987TIP3    H181452   7.029   6.888   5.273
19987TIP3    H281453   6.884   6.843   5.271
19988TIP3   OH281454   5.899   6.474   5.478
19988TIP3    H181455   5.970   6.411   5.491
19988TIP3    H281456   5.873   6.498   5.567
19989TIP3   OH281457   6.322   6.658   4.003
19989TIP3    H181458   6.268   6.620   4.072
19989TIP3    H281459   6.366   6.582   3.963
19990TIP3   OH281460   6.274   6.438   5.264
19990TIP3    H181461   6.202   6.501   5.260
19990TIP3    H281462   6.332   6.464   5.192
19991TIP3   OH281463   6.465   6.470   3.853
19991TIP3    H181464   6.457   6.499   3.762
19991TIP3    H281465   6.560   6.459   3.866
19992TIP3   OH281466   6.773   6.611   5.628
19992TIP3    H181467   6.825   6.551   5.574
19992TIP3    H281468   6.733   6.555   5.694
19993TIP3   OH281469   6.315   6.180   5.366
19993TIP3    H181470   6.328   6.121   5.292
19993TIP3    H281471   6.308   6.267   5.326
19994TIP3   OH281472   6.342   6.023   5.122
19994TIP3    H181473   6.394   6.076   5.061
19994TIP3    H281474   6.256   6.017   5.081
19995TIP3   OH281475   6.459   6.525   5.083
19995TIP3    H181476   6.552   6.540   5.095
19995TIP3    H281477   6.425   6.608   5.051
19996TIP3   OH281478   6.904   6.324   5.593
19996TIP3    H181479   6.888   6.257   5.659
19996TIP3    H281480   6.979   6.374   5.627
19997TIP3   OH281481   7.025   6.606   5.427
19997TIP3    H181482   6.986   6.676   5.376
19997TIP3    H281483   7.119   6.624   5.426
19998TIP3   OH281484   6.088   6.269   5.511
19998TIP3    H181485   6.035   6.189   5.523
19998TIP3    H281486   6.169   6.238   5.471
19999TIP3   OH281487   6.409   5.753   5.174
19999TIP3    H181488   6.388   5.845   5.163
19999TIP3    H281489   6.335   5.706   5.137
20000TIP3   OH281490   6.524   6.114   5.557
20000TIP3    H181491   6.493   6.071   5.637
20000TIP3    H281492   6.445   6.126   5.504
20001TIP3   OH281493   6.778   6.059   5.416
20001TIP3    H181494   6.695   6.069   5.462
20001TIP3    H281495   6.837   6.019   5.480
20002TIP3   OH281496   6.953   5.956   5.610
20002TIP3    H181497   6.946   5.862   5.624
20002TIP3    H281498   6.914   5.996   5.688
20003TIP3   OH281499   5.930   6.040   5.543
20003TIP3    H181500   5.934   5.951   5.510
20003TIP3    H281501   5.917   6.031   5.637
20004TIP3   OH281502   6.383   5.636   5.427
20004TIP3    H181503   6.457   5.575   5.438
20004TIP3    H281504   6.398   5.675   5.341
20005TIP3   OH281505   5.808   7.033   3.874
20005TIP3    H181506   5.900   7.020   3.898
20005TIP3    H281507   5.789   6.960   3.815
20006TIP3   OH281508   5.735   7.291   4.591
20006TIP3    H181509   5.729   7.215   4.650
20006TIP3    H281510   5.776   7.359   4.644
20007TIP3   OH281511   7.295   6.963   5.636
20007TIP3    H181512   7.206   6.972   5.668
20007TIP3    H281513   7.350   6.998   5.706
20008TIP3   OH281514   7.290   7.145   5.036
20008TIP3    H181515   7.246   7.217   5.082
20008TIP3    H281516   7.235   7.128   4.959
20009TIP3   OH281517   7.305   6.263   3.825
20009TIP3    H181518   7.265   6.314   3.755
20009TIP3    H281519   7.282   6.172   3.805
20010TIP3   OH281520   7.181   6.435   4.428
20010TIP3    H181521   7.184   6.340   4.414
20010TIP3    H281522   7.156   6.445   4.519
20011TIP3   OH281523   5.720   6.653   4.859
20011TIP3    H181524   5.731   6.633   4.766
20011TIP3    H281525   5.799   6.619   4.901
20012TIP3   OH281526   7.296   6.641   5.392
20012TIP3    H181527   7.296   6.545   5.396
20012TIP3    H281528   7.332   6.661   5.306
20013TIP3   OH281529   7.238   6.005   3.754
20013TIP3    H181530   7.255   5.937   3.819
20013TIP3    H281531   7.146   5.995   3.732
20014TIP3   OH281532   7.191   6.186   4.257
20014TIP3    H181533   7.212   6.099   4.290
20014TIP3    H281534   7.265   6.209   4.201
20015TIP3   OH281535   7.222   6.133   4.844
20015TIP3    H181536   7.301   6.177   4.810
20015TIP3    H281537   7.204   6.178   4.927
20016TIP3   OH281538   7.228   6.294   5.068
20016TIP3    H181539   7.167   6.350   5.116
20016TIP3    H281540   7.275   6.353   5.010
20017TIP3   OH281541   5.710   6.166   5.409
20017TIP3    H181542   5.787   6.158   5.466
20017TIP3    H281543   5.657   6.089   5.430
20018TIP3   OH281544   7.216   5.920   4.337
20018TIP3    H181545   7.199   5.899   4.429
20018TIP3    H281546   7.166   5.855   4.288
20019TIP3   OH281547   5.830   6.015   4.745
20019TIP3    H181548   5.867   5.926   4.744
20019TIP3    H281549   5.904   6.072   4.761
20020TIP3   OH281550   5.623   6.287   4.809
20020TIP3    H181551   5.700   6.294   4.753
20020TIP3    H281552   5.636   6.354   4.877
20021TIP3   OH281553   5.691   5.908   4.203
20021TIP3    H181554   5.600   5.911   4.231
20021TIP3    H281555   5.701   5.984   4.146
20022TIP3   OH281556   5.679   5.752   5.051
20022TIP3    H181557   5.621   5.751   5.126
20022TIP3    H281558   5.654   5.830   5.002
20023TIP3   OH281559   5.912   7.172   5.479
20023TIP3    H181560   5.818   7.162   5.470
20023TIP3    H281561   5.933   7.126   5.560
20024TIP3   OH281562   6.201   7.249   5.100
20024TIP3    H181563   6.157   7.288   5.025
20024TIP3    H281564   6.294   7.248   5.076
20025TIP3   OH281565   6.085   7.250   4.672
20025TIP3    H181566   6.058   7.160   4.688
20025TIP3    H281567   6.171   7.257   4.714
20026TIP3   OH281568   6.331   7.206   4.810
20026TIP3    H181569   6.336   7.115   4.782
20026TIP3    H281570   6.386   7.210   4.889
20027TIP3   OH281571   6.663   5.862   4.688
20027TIP3    H181572   6.600   5.795   4.715
20027TIP3    H281573   6.737   5.812   4.654
20028TIP3   OH281574   7.160   5.720   4.682
20028TIP3    H181575   7.184   5.779   4.753
20028TIP3    H281576   7.069   5.743   4.662
20029TIP3   OH281577   5.922   5.728   4.434
20029TIP3    H181578   5.830   5.710   4.417
20029TIP3    H281579   5.966   5.644   4.424
20030TIP3   OH281580   5.835   5.736   4.036
20030TIP3    H181581   5.888   5.796   3.983
20030TIP3    H281582   5.789   5.793   4.098
20031TIP3   OH281583   6.424   5.690   4.464
20031TIP3    H181584   6.488   5.754   4.432
20031TIP3    H281585   6.432   5.696   4.560
20032TIP3   OH281586   6.886   5.719   4.596
20032TIP3    H181587   6.900   5.697   4.504
20032TIP3    H281588   6.865   5.636   4.638
20033TIP3   OH281589   7.063   5.754   4.180
20033TIP3    H181590   6.988   5.814   4.187
20033TIP3    H281591   7.025   5.667   4.193
20034TIP3   OH281592   5.788  -0.004   4.204
20034TIP3    H181593   5.801  -0.000   4.110
20034TIP3    H281594   5.744   0.079   4.225
20035TIP3   OH281595   6.019   5.892   3.877
20035TIP3    H181596   6.071   5.837   3.818
20035TIP3    H281597   6.083   5.926   3.940
20036TIP3   OH281598   6.491   5.978   4.120
20036TIP3    H181599   6.523   5.908   4.177
20036TIP3    H281600   6.502   6.058   4.172
20037TIP3   OH281601   5.949   5.772   5.405
20037TIP3    H181602   5.899   5.701   5.446
20037TIP3    H281603   6.041   5.749   5.421
20038TIP3   OH281604   6.941   5.672   5.636
20038TIP3    H181605   6.891   5.623   5.701
20038TIP3    H281606   7.024   5.626   5.629
20039TIP3   OH281607   7.266   7.193   5.375
20039TIP3    H181608   7.213   7.240   5.311
20039TIP3    H281609   7.294   7.260   5.437
20040TIP3   OH281610   1.409   1.023   5.682
20040TIP3    H181611   1.497   0.987   5.695
20040TIP3    H281612   1.364   1.007   5.765
20041TIP3   OH281613   0.755   0.339   5.702
20041TIP3    H181614   0.742   0.285   5.780
20041TIP3    H281615   0.667   0.355   5.669
20042TIP3   OH281616   0.285   1.180   5.931
20042TIP3    H181617   0.277   1.179   6.026
20042TIP3    H281618   0.374   1.148   5.914
20043TIP3   OH281619   0.534   1.086   5.631
20043TIP3    H181620   0.530   1.093   5.726
20043TIP3    H281621   0.626   1.101   5.609
20044TIP3   OH281622   1.137   1.251   5.705
20044TIP3    H181623   1.206   1.279   5.766
20044TIP3    H281624   1.184   1.202   5.638
20045TIP3   OH281625   0.185   1.381   5.772
20045TIP3    H181626   0.215   1.453   5.828
20045TIP3    H281627   0.222   1.302   5.814
20046TIP3   OH281628   1.561   0.556   5.720
20046TIP3    H181629   1.548   0.616   5.793
20046TIP3    H281630   1.565   0.612   5.642
20047TIP3   OH281631   0.315   0.052   5.807
20047TIP3    H181632   0.248   0.113   5.777
20047TIP3    H281633   0.268  -0.009   5.864
20048TIP3   OH281634   0.304   1.735   5.727
20048TIP3    H181635   0.292   1.679   5.805
20048TIP3    H281636   0.387   1.706   5.689
20049TIP3   OH281637   3.254   1.837   5.838
20049TIP3    H181638   3.228   1.746   5.827
20049TIP3    H281639   3.218   1.863   5.923
20050TIP3   OH281640   3.690   1.666   5.832
20050TIP3    H181641   3.778   1.675   5.868
20050TIP3    H281642   3.645   1.746   5.858
20051TIP3   OH281643   2.745   1.361   5.642
20051TIP3    H181644   2.741   1.283   5.587
20051TIP3    H281645   2.778   1.330   5.726
20052TIP3   OH281646   2.905   1.580   5.624
20052TIP3    H181647   2.837   1.513   5.634
20052TIP3    H281648   2.984   1.531   5.600
20053TIP3   OH281649   3.356   1.481   5.680
20053TIP3    H181650   3.416   1.407   5.676
20053TIP3    H281651   3.392   1.544   5.617
20054TIP3   OH281652   2.708   0.787   5.744
20054TIP3    H181653   2.685   0.807   5.653
20054TIP3    H281654   2.700   0.692   5.750
20055TIP3   OH281655   3.639   0.286   5.750
20055TIP3    H181656   3.566   0.254   5.803
20055TIP3    H281657   3.632   0.382   5.754
20056TIP3   OH281658   2.229   0.274   5.778
20056TIP3    H181659   2.306   0.239   5.823
20056TIP3    H281660   2.155   0.230   5.819
20057TIP3   OH281661   5.064   0.915   5.934
20057TIP3    H181662   5.107   0.846   5.986
20057TIP3    H281663   5.071   0.993   5.988
20058TIP3   OH281664   5.372   7.315   5.686
20058TIP3    H181665   5.341   7.289   5.773
20058TIP3    H281666   5.456   7.358   5.702
20059TIP3   OH281667   5.143   1.757   5.787
20059TIP3    H181668   5.225   1.708   5.786
20059TIP3    H281669   5.134   1.789   5.877
20060TIP3   OH281670   4.472   0.344   5.743
20060TIP3    H181671   4.489   0.252   5.765
20060TIP3    H281672   4.422   0.378   5.818
20061TIP3   OH281673   3.843   0.510   5.972
20061TIP3    H181674   3.840   0.470   6.059
20061TIP3    H281675   3.754   0.501   5.938
20062TIP3   OH281676   4.588   1.387   5.678
20062TIP3    H181677   4.584   1.304   5.630
20062TIP3    H281678   4.525   1.377   5.748
20063TIP3   OH281679   4.430   1.362   5.904
20063TIP3    H181680   4.366   1.291   5.908
20063TIP3    H281681   4.382   1.439   5.936
20064TIP3   OH281682   4.765   1.590   5.639
20064TIP3    H181683   4.702   1.519   5.653
20064TIP3    H281684   4.849   1.545   5.627
20065TIP3   OH281685   4.890   1.287   5.661
20065TIP3    H181686   4.819   1.286   5.725
20065TIP3    H281687   4.897   1.197   5.631
20066TIP3   OH281688   4.570   0.811   5.728
20066TIP3    H181689   4.571   0.847   5.639
20066TIP3    H281690   4.565   0.888   5.785
20067TIP3   OH281691   5.334   0.293   5.615
20067TIP3    H181692   5.416   0.294   5.666
20067TIP3    H281693   5.267   0.320   5.678
20068TIP3   OH281694   5.573   0.274   5.758
20068TIP3    H181695   5.623   0.202   5.720
20068TIP3    H281696   5.639   0.334   5.791
20069TIP3   OH281697   7.334   7.323   5.598
20069TIP3    H181698   7.301   7.284   5.678
20069TIP3    H281699   7.377   7.404   5.626
20070TIP3   OH281700   6.340   0.426   5.728
20070TIP3    H181701   6.385   0.479   5.793
20070TIP3    H281702   6.273   0.483   5.691
20071TIP3   OH281703   5.835   0.939   5.823
20071TIP3    H181704   5.930   0.951   5.821
20071TIP3    H281705   5.816   0.914   5.914
20072TIP3   OH281706   6.464   1.394   5.654
20072TIP3    H181707   6.458   1.313   5.603
20072TIP3    H281708   6.377   1.404   5.693
20073TIP3   OH281709   6.634   1.546   5.955
20073TIP3    H181710   6.644   1.577   6.045
20073TIP3    H281711   6.663   1.620   5.901
20074TIP3   OH281712   5.789   0.625   5.769
20074TIP3    H181713   5.864   0.662   5.815
20074TIP3    H281714   5.713   0.670   5.807
20075TIP3   OH281715   6.668   1.577   5.621
20075TIP3    H181716   6.598   1.515   5.645
20075TIP3    H281717   6.742   1.521   5.597
20076TIP3   OH281718   7.080   1.585   5.645
20076TIP3    H181719   7.081   1.667   5.694
20076TIP3    H281720   7.158   1.588   5.590
20077TIP3   OH281721   6.200   1.166   5.621
20077TIP3    H181722   6.172   1.094   5.678
20077TIP3    H281723   6.292   1.148   5.603
20078TIP3   OH281724   6.502   0.768   5.769
20078TIP3    H181725   6.509   0.781   5.675
20078TIP3    H281726   6.580   0.716   5.792
20079TIP3   OH281727   7.231   0.591   5.692
20079TIP3    H181728   7.190   0.561   5.611
20079TIP3    H281729   7.265   0.511   5.733
20080TIP3   OH281730   0.073   0.365   5.507
20080TIP3    H181731   0.063   0.336   5.597
20080TIP3    H281732  -0.015   0.393   5.481
20081TIP3   OH281733   5.971   0.246   5.754
20081TIP3    H181734   6.016   0.191   5.690
20081TIP3    H281735   6.041   0.294   5.799
20082TIP3   OH281736   6.726   1.775   5.810
20082TIP3    H181737   6.774   1.852   5.778
20082TIP3    H281738   6.712   1.722   5.731
20083TIP3   OH281739   6.043   1.845   5.708
20083TIP3    H181740   6.059   1.868   5.799
20083TIP3    H281741   6.099   1.768   5.692
20084TIP3   OH281742   1.079   2.724   5.681
20084TIP3    H181743   1.031   2.728   5.763
20084TIP3    H281744   1.153   2.666   5.699
20085TIP3   OH281745   1.288   2.776   5.960
20085TIP3    H181746   1.250   2.726   6.032
20085TIP3    H281747   1.355   2.831   6.002
20086TIP3   OH281748   0.719   2.210   5.723
20086TIP3    H181749   0.674   2.219   5.808
20086TIP3    H281750   0.650   2.222   5.658
20087TIP3   OH281751   1.844   3.647   5.788
20087TIP3    H181752   1.904   3.620   5.858
20087TIP3    H281753   1.775   3.581   5.790
20088TIP3   OH281754   0.663   3.289   5.616
20088TIP3    H181755   0.617   3.208   5.637
20088TIP3    H281756   0.695   3.321   5.701
20089TIP3   OH281757   0.673   3.344   5.883
20089TIP3    H181758   0.600   3.283   5.876
20089TIP3    H281759   0.677   3.367   5.976
20090TIP3   OH281760   0.543   3.063   5.712
20090TIP3    H181761   0.580   3.011   5.784
20090TIP3    H281762   0.479   3.005   5.671
20091TIP3   OH281763   1.849   2.844   5.828
20091TIP3    H181764   1.767   2.817   5.869
20091TIP3    H281765   1.915   2.835   5.897
20092TIP3   OH281766   1.546   2.506   5.619
20092TIP3    H181767   1.609   2.557   5.669
20092TIP3    H281768   1.570   2.415   5.637
20093TIP3   OH281769   1.574   2.234   5.684
20093TIP3    H181770   1.629   2.208   5.757
20093TIP3    H281771   1.583   2.163   5.620
20094TIP3   OH281772   3.528   1.885   5.889
20094TIP3    H181773   3.434   1.873   5.878
20094TIP3    H281774   3.541   1.979   5.877
20095TIP3   OH281775   2.595   2.326   5.725
20095TIP3    H181776   2.546   2.267   5.781
20095TIP3    H281777   2.531   2.394   5.701
20096TIP3   OH281778   3.769   3.575   5.816
20096TIP3    H181779   3.786   3.663   5.848
20096TIP3    H281780   3.748   3.525   5.895
20097TIP3   OH281781   2.723   3.338   5.749
20097TIP3    H181782   2.672   3.396   5.692
20097TIP3    H281783   2.664   3.319   5.822
20098TIP3   OH281784   2.608   3.310   5.997
20098TIP3    H181785   2.603   3.232   6.051
20098TIP3    H281786   2.531   3.361   6.022
20099TIP3   OH281787   2.429   2.175   5.894
20099TIP3    H181788   2.389   2.189   5.980
20099TIP3    H281789   2.511   2.130   5.912
20100TIP3   OH281790   2.358   3.281   5.737
20100TIP3    H181791   2.276   3.245   5.772
20100TIP3    H281792   2.334   3.365   5.699
20101TIP3   OH281793   3.326   3.441   5.696
20101TIP3    H181794   3.334   3.503   5.768
20101TIP3    H281795   3.405   3.454   5.644
20102TIP3   OH281796   2.452   3.060   5.609
20102TIP3    H181797   2.413   3.136   5.652
20102TIP3    H281798   2.531   3.041   5.659
20103TIP3   OH281799   2.935   3.213   5.632
20103TIP3    H181800   2.858   3.258   5.667
20103TIP3    H281801   2.900   3.151   5.568
20104TIP3   OH281802   2.094   3.178   5.741
20104TIP3    H181803   2.029   3.210   5.802
20104TIP3    H281804   2.046   3.119   5.683
20105TIP3   OH281805   3.566   2.539   5.684
20105TIP3    H181806   3.533   2.587   5.608
20105TIP3    H281807   3.539   2.449   5.669
20106TIP3   OH281808   3.480   2.284   5.628
20106TIP3    H181809   3.522   2.227   5.692
20106TIP3    H281810   3.389   2.252   5.624
20107TIP3   OH281811   3.632   2.134   5.805
20107TIP3    H181812   3.688   2.083   5.747
20107TIP3    H281813   3.689   2.160   5.877
20108TIP3   OH281814   2.265   3.769   5.802
20108TIP3    H181815   2.194   3.794   5.861
20108TIP3    H281816   2.238   3.685   5.765
20109TIP3   OH281817   4.832   2.672   5.767
20109TIP3    H181818   4.865   2.685   5.856
20109TIP3    H281819   4.902   2.623   5.722
20110TIP3   OH281820   5.131   2.825   5.636
20110TIP3    H181821   5.150   2.829   5.542
20110TIP3    H281822   5.211   2.857   5.678
20111TIP3   OH281823   4.404   2.286   5.682
20111TIP3    H181824   4.425   2.349   5.751
20111TIP3    H281825   4.352   2.335   5.618
20112TIP3   OH281826   4.336   2.536   5.791
20112TIP3    H181827   4.298   2.532   5.703
20112TIP3    H281828   4.417   2.586   5.780
20113TIP3   OH281829   3.936   2.843   5.766
20113TIP3    H181830   4.017   2.868   5.811
20113TIP3    H281831   3.926   2.750   5.785
20114TIP3   OH281832   4.522   3.314   5.570
20114TIP3    H181833   4.576   3.239   5.544
20114TIP3    H281834   4.464   3.280   5.637
20115TIP3   OH281835   4.000   2.460   5.732
20115TIP3    H181836   4.086   2.488   5.764
20115TIP3    H281837   3.980   2.520   5.660
20116TIP3   OH281838   4.741   3.466   5.674
20116TIP3    H181839   4.651   3.436   5.661
20116TIP3    H281840   4.790   3.387   5.694
20117TIP3   OH281841   4.828   3.199   5.722
20117TIP3    H181842   4.757   3.190   5.785
20117TIP3    H281843   4.842   3.110   5.688
20118TIP3   OH281844   4.573   2.635   5.680
20118TIP3    H181845   4.568   2.697   5.608
20118TIP3    H281846   4.657   2.653   5.722
20119TIP3   OH281847   5.373   2.936   5.682
20119TIP3    H181848   5.416   2.900   5.605
20119TIP3    H281849   5.385   3.031   5.675
20120TIP3   OH281850   4.683   3.741   5.851
20120TIP3    H181851   4.663   3.686   5.775
20120TIP3    H281852   4.599   3.753   5.895
20121TIP3   OH281853   5.612   2.872   5.845
20121TIP3    H181854   5.517   2.863   5.846
20121TIP3    H281855   5.633   2.914   5.929
20122TIP3   OH281856   5.316   2.477   5.711
20122TIP3    H181857   5.372   2.496   5.787
20122TIP3    H281858   5.344   2.390   5.683
20123TIP3   OH281859   5.370   2.225   5.603
20123TIP3    H181860   5.411   2.156   5.654
20123TIP3    H281861   5.286   2.188   5.575
20124TIP3   OH281862   4.118   3.685   5.742
20124TIP3    H181863   4.064   3.720   5.813
20124TIP3    H281864   4.204   3.670   5.782
20125TIP3   OH281865   6.679   2.655   5.768
20125TIP3    H181866   6.732   2.712   5.823
20125TIP3    H281867   6.742   2.612   5.710
20126TIP3   OH281868   6.866   2.828   5.870
20126TIP3    H181869   6.913   2.839   5.952
20126TIP3    H281870   6.935   2.827   5.803
20127TIP3   OH281871   6.983   3.644   5.814
20127TIP3    H181872   7.023   3.578   5.757
20127TIP3    H281873   7.025   3.631   5.899
20128TIP3   OH281874   7.101   2.834   5.704
20128TIP3    H181875   7.162   2.860   5.635
20128TIP3    H281876   7.126   2.888   5.779
20129TIP3   OH281877   6.597   2.268   5.756
20129TIP3    H181878   6.617   2.280   5.849
20129TIP3    H281879   6.579   2.175   5.747
20130TIP3   OH281880   6.313   2.278   5.689
20130TIP3    H181881   6.387   2.313   5.738
20130TIP3    H281882   6.245   2.345   5.697
20131TIP3   OH281883   6.167   2.500   5.746
20131TIP3    H181884   6.108   2.570   5.774
20131TIP3    H281885   6.253   2.525   5.780
20132TIP3   OH281886   6.737   3.141   5.892
20132TIP3    H181887   6.642   3.156   5.890
20132TIP3    H281888   6.746   3.046   5.898
20133TIP3   OH281889   5.858   2.832   5.747
20133TIP3    H181890   5.906   2.846   5.828
20133TIP3    H281891   5.766   2.825   5.773
20134TIP3   OH281892   7.015   3.200   5.816
20134TIP3    H181893   7.066   3.130   5.856
20134TIP3    H281894   6.930   3.196   5.860
20135TIP3   OH281895   6.481   3.266   5.711
20135TIP3    H181896   6.460   3.193   5.652
20135TIP3    H281897   6.425   3.252   5.787
20136TIP3   OH281898   6.340   3.240   5.950
20136TIP3    H181899   6.306   3.161   5.993
20136TIP3    H281900   6.262   3.291   5.928
20137TIP3   OH281901   6.030   3.226   5.860
20137TIP3    H181902   6.002   3.171   5.934
20137TIP3    H281903   6.076   3.166   5.801
20138TIP3   OH281904   6.653   3.461   5.627
20138TIP3    H181905   6.594   3.392   5.656
20138TIP3    H281906   6.729   3.415   5.591
20139TIP3   OH281907   7.122   3.481   5.648
20139TIP3    H181908   7.164   3.400   5.676
20139TIP3    H281909   7.173   3.510   5.573
20140TIP3   OH281910   6.168   3.062   5.664
20140TIP3    H181911   6.164   2.972   5.696
20140TIP3    H281912   6.255   3.068   5.624
20141TIP3   OH281913   6.763   3.167   5.612
20141TIP3    H181914   6.759   3.171   5.708
20141TIP3    H281915   6.763   3.074   5.592
20142TIP3   OH281916   6.433   3.722   5.771
20142TIP3    H181917   6.527   3.709   5.775
20142TIP3    H281918   6.422   3.812   5.740
20143TIP3   OH281919   5.814   3.309   5.704
20143TIP3    H181920   5.885   3.295   5.767
20143TIP3    H281921   5.800   3.223   5.665
20144TIP3   OH281922   7.243   2.577   5.659
20144TIP3    H181923   7.193   2.655   5.683
20144TIP3    H281924   7.316   2.575   5.720
20145TIP3   OH281925   7.245   2.179   5.661
20145TIP3    H181926   7.200   2.095   5.664
20145TIP3    H281927   7.218   2.218   5.579
20146TIP3   OH281928   6.704   3.668   5.794
20146TIP3    H181929   6.800   3.676   5.797
20146TIP3    H281930   6.688   3.597   5.733
20147TIP3   OH281931   1.049   4.605   5.724
20147TIP3    H181932   1.108   4.622   5.798
20147TIP3    H281933   1.088   4.530   5.680
20148TIP3   OH281934   1.263   4.616   5.886
20148TIP3    H181935   1.268   4.619   5.982
20148TIP3    H281936   1.339   4.665   5.856
20149TIP3   OH281937   1.653   3.897   5.928
20149TIP3    H181938   1.613   3.810   5.936
20149TIP3    H281939   1.657   3.929   6.018
20150TIP3   OH281940   1.801   5.217   5.712
20150TIP3    H181941   1.802   5.285   5.780
20150TIP3    H281942   1.822   5.136   5.758
20151TIP3   OH281943   1.456   4.740   5.735
20151TIP3    H181944   1.460   4.771   5.644
20151TIP3    H281945   1.505   4.805   5.785
20152TIP3   OH281946   0.962   4.130   5.782
20152TIP3    H181947   0.973   4.160   5.872
20152TIP3    H281948   1.010   4.047   5.778
20153TIP3   OH281949   0.097   4.202   5.933
20153TIP3    H181950   0.160   4.239   5.871
20153TIP3    H281951   0.023   4.263   5.930
20154TIP3   OH281952   0.537   4.493   5.791
20154TIP3    H181953   0.518   4.447   5.710
20154TIP3    H281954   0.626   4.527   5.779
20155TIP3   OH281955   1.292   4.221   5.785
20155TIP3    H181956   1.205   4.198   5.817
20155TIP3    H281957   1.350   4.208   5.860
20156TIP3   OH281958   1.123   5.080   5.875
20156TIP3    H181959   1.191   5.109   5.936
20156TIP3    H281960   1.063   5.028   5.929
20157TIP3   OH281961   0.158   4.729   5.799
20157TIP3    H181962   0.217   4.797   5.832
20157TIP3    H281963   0.075   4.745   5.844
20158TIP3   OH281964   1.430   5.117   5.795
20158TIP3    H181965   1.486   5.044   5.822
20158TIP3    H281966   1.392   5.149   5.877
20159TIP3   OH281967   1.837   5.502   5.869
20159TIP3    H181968   1.878   5.544   5.793
20159TIP3    H281969   1.768   5.564   5.896
20160TIP3   OH281970   0.833   5.228   5.657
20160TIP3    H181971   0.837   5.146   5.609
20160TIP3    H281972   0.775   5.210   5.731
20161TIP3   OH281973   0.655   5.153   5.848
20161TIP3    H181974   0.612   5.068   5.848
20161TIP3    H281975   0.586   5.216   5.868
20162TIP3   OH281976   0.270   4.960   5.927
20162TIP3    H181977   0.191   4.963   5.981
20162TIP3    H281978   0.340   4.985   5.986
20163TIP3   OH281979   0.260   4.351   5.775
20163TIP3    H181980   0.324   4.417   5.801
20163TIP3    H281981   0.183   4.402   5.749
20164TIP3   OH281982   1.413   5.333   5.627
20164TIP3    H181983   1.416   5.269   5.699
20164TIP3    H281984   1.488   5.311   5.572
20165TIP3   OH281985   0.538   4.930   5.623
20165TIP3    H181986   0.539   4.879   5.705
20165TIP3    H281987   0.631   4.945   5.604
20166TIP3   OH281988   1.144   5.065   5.587
20166TIP3    H181989   1.151   5.056   5.682
20166TIP3    H281990   1.132   4.975   5.556
20167TIP3   OH281991   0.589   4.780   5.851
20167TIP3    H181992   0.528   4.711   5.873
20167TIP3    H281993   0.666   4.734   5.817
20168TIP3   OH281994   0.777   4.623   5.723
20168TIP3    H181995   0.771   4.645   5.630
20168TIP3    H281996   0.871   4.614   5.739
20169TIP3   OH281997   0.208   5.131   5.707
20169TIP3    H181998   0.244   5.088   5.785
20169TIP3    H281999   0.180   5.060   5.650
20170TIP3   OH282000   1.731   4.413   5.731
20170TIP3    H182001   1.674   4.489   5.732
20170TIP3    H282002   1.692   4.354   5.667
20171TIP3   OH282003   1.628   4.160   5.596
20171TIP3    H182004   1.665   4.127   5.678
20171TIP3    H282005   1.535   4.138   5.601
20172TIP3   OH282006   1.820   4.060   5.792
20172TIP3    H182007   1.761   4.010   5.848
20172TIP3    H282008   1.850   3.997   5.726
20173TIP3   OH282009   0.369   3.967   5.811
20173TIP3    H182010   0.353   4.001   5.723
20173TIP3    H282011   0.346   4.039   5.869
20174TIP3   OH282012   0.319   5.578   5.671
20174TIP3    H182013   0.299   5.632   5.748
20174TIP3    H282014   0.336   5.491   5.707
20175TIP3   OH282015   3.690   5.270   5.779
20175TIP3    H182016   3.689   5.363   5.801
20175TIP3    H282017   3.779   5.255   5.746
20176TIP3   OH282018   3.194   5.551   5.860
20176TIP3    H182019   3.237   5.524   5.941
20176TIP3    H282020   3.119   5.604   5.888
20177TIP3   OH282021   2.804   4.146   5.737
20177TIP3    H182022   2.837   4.129   5.825
20177TIP3    H282023   2.750   4.070   5.716
20178TIP3   OH282024   3.688   4.471   5.983
20178TIP3    H182025   3.600   4.437   6.002
20178TIP3    H282026   3.711   4.431   5.899
20179TIP3   OH282027   3.272   5.086   5.872
20179TIP3    H182028   3.281   5.121   5.960
20179TIP3    H282029   3.222   5.153   5.824
20180TIP3   OH282030   3.690   5.543   5.858
20180TIP3    H182031   3.695   5.608   5.789
20180TIP3    H282032   3.619   5.573   5.915
20181TIP3   OH282033   2.610   5.364   5.922
20181TIP3    H182034   2.639   5.453   5.904
20181TIP3    H282035   2.667   5.333   5.992
20182TIP3   OH282036   2.291   5.235   5.740
20182TIP3    H182037   2.304   5.238   5.834
20182TIP3    H282038   2.348   5.164   5.709
20183TIP3   OH282039   2.163   4.432   5.840
20183TIP3    H182040   2.139   4.468   5.754
20183TIP3    H282041   2.095   4.368   5.859
20184TIP3   OH282042   2.854   5.314   5.633
20184TIP3    H182043   2.810   5.243   5.681
20184TIP3    H282044   2.942   5.280   5.617
20185TIP3   OH282045   3.328   5.314   5.660
20185TIP3    H182046   3.334   5.382   5.727
20185TIP3    H282047   3.401   5.333   5.601
20186TIP3   OH282048   2.457   5.003   5.684
20186TIP3    H182049   2.393   4.931   5.681
20186TIP3    H282050   2.527   4.975   5.626
20187TIP3   OH282051   2.979   4.995   5.677
20187TIP3    H182052   2.963   4.987   5.771
20187TIP3    H282053   2.892   4.989   5.637
20188TIP3   OH282054   2.549   4.649   5.878
20188TIP3    H182055   2.566   4.688   5.964
20188TIP3    H282056   2.606   4.697   5.819
20189TIP3   OH282057   3.665   4.842   5.693
20189TIP3    H182058   3.629   4.799   5.615
20189TIP3    H282059   3.611   4.920   5.704
20190TIP3   OH282060   3.456   4.148   5.628
20190TIP3    H182061   3.452   4.226   5.683
20190TIP3    H282062   3.366   4.116   5.625
20191TIP3   OH282063   2.079   3.866   5.981
20191TIP3    H182064   2.123   3.912   6.053
20191TIP3    H282065   1.987   3.866   6.005
20192TIP3   OH282066   2.202   5.526   5.670
20192TIP3    H182067   2.182   5.583   5.744
20192TIP3    H282068   2.224   5.442   5.710
20193TIP3   OH282069   5.103   5.522   5.819
20193TIP3    H182070   5.013   5.515   5.849
20193TIP3    H282071   5.146   5.578   5.884
20194TIP3   OH282072   4.317   4.514   5.807
20194TIP3    H182073   4.293   4.443   5.866
20194TIP3    H282074   4.291   4.483   5.720
20195TIP3   OH282075   3.958   4.737   5.758
20195TIP3    H182076   4.042   4.757   5.798
20195TIP3    H282077   3.929   4.657   5.801
20196TIP3   OH282078   4.271   4.235   5.896
20196TIP3    H182079   4.298   4.248   5.987
20196TIP3    H282080   4.231   4.148   5.895
20197TIP3   OH282081   3.964   4.402   5.712
20197TIP3    H182082   3.998   4.420   5.800
20197TIP3    H282083   3.989   4.312   5.695
20198TIP3   OH282084   4.748   5.357   5.691
20198TIP3    H182085   4.675   5.305   5.724
20198TIP3    H282086   4.749   5.435   5.747
20199TIP3   OH282087   5.293   5.271   5.730
20199TIP3    H182088   5.262   5.350   5.774
20199TIP3    H282089   5.316   5.300   5.641
20200TIP3   OH282090   4.313   4.922   5.684
20200TIP3    H182091   4.268   4.868   5.748
20200TIP3    H282092   4.396   4.944   5.725
20201TIP3   OH282093   4.609   4.558   5.699
20201TIP3    H182094   4.586   4.601   5.617
20201TIP3    H282095   4.528   4.562   5.751
20202TIP3   OH282096   5.381   4.850   5.658
20202TIP3    H182097   5.352   4.827   5.570
20202TIP3    H282098   5.476   4.834   5.656
20203TIP3   OH282099   3.981   5.151   5.696
20203TIP3    H182100   4.075   5.131   5.701
20203TIP3    H282101   3.942   5.074   5.655
20204TIP3   OH282102   5.469   4.030   5.642
20204TIP3    H182103   5.431   4.106   5.685
20204TIP3    H282104   5.402   3.962   5.649
20205TIP3   OH282105   4.734   5.583   5.851
20205TIP3    H182106   4.756   5.672   5.823
20205TIP3    H282107   4.652   5.592   5.900
20206TIP3   OH282108   4.134   5.492   5.655
20206TIP3    H182109   4.189   5.526   5.724
20206TIP3    H282110   4.178   5.412   5.626
20207TIP3   OH282111   6.708   4.542   5.767
20207TIP3    H182112   6.744   4.594   5.839
20207TIP3    H282113   6.785   4.519   5.714
20208TIP3   OH282114  -0.014   3.955   5.864
20208TIP3    H182115  -0.022   3.908   5.946
20208TIP3    H282116   0.039   4.032   5.885
20209TIP3   OH282117   6.636   4.098   5.805
20209TIP3    H182118   6.581   4.097   5.884
20209TIP3    H282119   6.583   4.056   5.738
20210TIP3   OH282120   6.241   4.159   5.679
20210TIP3    H182121   6.246   4.124   5.767
20210TIP3    H282122   6.203   4.247   5.690
20211TIP3   OH282123   6.874   4.230   5.805
20211TIP3    H182124   6.788   4.188   5.804
20211TIP3    H282125   6.877   4.275   5.889
20212TIP3   OH282126   6.056   5.165   5.749
20212TIP3    H182127   6.088   5.170   5.839
20212TIP3    H282128   6.100   5.089   5.712
20213TIP3   OH282129   6.176   4.920   5.668
20213TIP3    H182130   6.163   4.828   5.692
20213TIP3    H282131   6.244   4.951   5.727
20214TIP3   OH282132   6.472   4.445   5.671
20214TIP3    H182133   6.445   4.513   5.609
20214TIP3    H282134   6.550   4.480   5.712
20215TIP3   OH282135   7.326   4.382   5.714
20215TIP3    H182136   7.272   4.438   5.659
20215TIP3    H282137   7.299   4.293   5.690
20216TIP3   OH282138   7.249   4.119   5.649
20216TIP3    H182139   7.268   4.057   5.721
20216TIP3    H282140   7.156   4.108   5.632
20217TIP3   OH282141   5.932   5.421   5.729
20217TIP3    H182142   5.882   5.424   5.810
20217TIP3    H282143   5.988   5.344   5.738
20218TIP3   OH282144   1.062   6.461   5.759
20218TIP3    H182145   1.083   6.410   5.837
20218TIP3    H282146   1.118   6.425   5.690
20219TIP3   OH282147   1.711   5.746   5.931
20219TIP3    H182148   1.714   5.772   6.023
20219TIP3    H282149   1.749   5.820   5.883
20220TIP3   OH282150   1.841   7.238   5.702
20220TIP3    H182151   1.839   7.310   5.765
20220TIP3    H282152   1.837   7.159   5.756
20221TIP3   OH282153   1.025   5.836   5.781
20221TIP3    H182154   1.009   5.898   5.852
20221TIP3    H282155   0.939   5.819   5.744
20222TIP3   OH282156   0.064   6.152   5.983
20222TIP3    H182157   0.017   6.192   5.909
20222TIP3    H282158   0.016   6.072   6.001
20223TIP3   OH282159   0.177   6.590   5.806
20223TIP3    H182160   0.209   6.667   5.852
20223TIP3    H282161   0.082   6.591   5.821
20224TIP3   OH282162   0.826   7.043   5.588
20224TIP3    H182163   0.825   6.954   5.552
20224TIP3    H282164   0.773   7.038   5.667
20225TIP3   OH282165   0.676   6.999   5.823
20225TIP3    H182166   0.742   7.039   5.880
20225TIP3    H282167   0.592   7.031   5.857
20226TIP3   OH282168   0.254   6.805   5.960
20226TIP3    H182169   0.169   6.849   5.970
20226TIP3    H282170   0.311   6.872   5.922
20227TIP3   OH282171   0.989   7.150   5.906
20227TIP3    H182172   0.929   7.224   5.895
20227TIP3    H282173   0.997   7.140   6.001
20228TIP3   OH282174   0.578  -0.007   5.759
20228TIP3    H182175   0.635   0.050   5.810
20228TIP3    H282176   0.490   0.011   5.793
20229TIP3   OH282177   0.375   7.027   5.845
20229TIP3    H182178   0.282   7.048   5.848
20229TIP3    H282179   0.403   7.055   5.758
20230TIP3   OH282180   0.254   6.328   5.782
20230TIP3    H182181   0.229   6.421   5.787
20230TIP3    H282182   0.171   6.282   5.772
20231TIP3   OH282183   1.046   7.208   5.585
20231TIP3    H182184   0.967   7.154   5.590
20231TIP3    H282185   1.107   7.156   5.532
20232TIP3   OH282186   1.442   7.221   5.640
20232TIP3    H182187   1.496   7.166   5.696
20232TIP3    H282188   1.503   7.260   5.578
20233TIP3   OH282189   0.567   6.812   5.646
20233TIP3    H182190   0.593   6.877   5.712
20233TIP3    H282191   0.648   6.790   5.600
20234TIP3   OH282192   0.789   6.400   5.747
20234TIP3    H182193   0.770   6.441   5.663
20234TIP3    H282194   0.881   6.422   5.764
20235TIP3   OH282195   1.533   6.317   5.647
20235TIP3    H182196   1.601   6.361   5.699
20235TIP3    H282197   1.567   6.317   5.558
20236TIP3   OH282198   1.662   6.062   5.615
20236TIP3    H182199   1.710   6.039   5.694
20236TIP3    H282200   1.598   6.128   5.643
20237TIP3   OH282201   1.815   5.994   5.836
20237TIP3    H182202   1.899   6.039   5.823
20237TIP3    H282203   1.769   6.048   5.901
20238TIP3   OH282204   0.284   5.730   5.893
20238TIP3    H182205   0.365   5.721   5.944
20238TIP3    H282206   0.215   5.737   5.958
20239TIP3   OH282207   3.486   5.652   6.023
20239TIP3    H182208   3.425   5.582   6.047
20239TIP3    H282209   3.443   5.733   6.051
20240TIP3   OH282210   3.649   7.137   5.797
20240TIP3    H182211   3.654   7.160   5.889
20240TIP3    H282212   3.738   7.111   5.773
20241TIP3   OH282213   3.306   6.709   5.651
20241TIP3    H182214   3.275   6.620   5.670
20241TIP3    H282215   3.401   6.701   5.646
20242TIP3   OH282216   2.827   6.975   5.823
20242TIP3    H182217   2.819   7.052   5.880
20242TIP3    H282218   2.740   6.936   5.823
20243TIP3   OH282219   3.319   6.919   5.831
20243TIP3    H182220   3.361   6.880   5.908
20243TIP3    H282221   3.290   6.845   5.779
20244TIP3   OH282222   2.243   6.761   5.941
20244TIP3    H182223   2.185   6.692   5.975
20244TIP3    H282224   2.189   6.840   5.942
20245TIP3   OH282225   2.770   7.196   5.967
20245TIP3    H182226   2.679   7.223   5.950
20245TIP3    H282227   2.770   7.166   6.058
20246TIP3   OH282228   2.515   7.287   5.897
20246TIP3    H182229   2.474   7.373   5.910
20246TIP3    H282230   2.473   7.230   5.961
20247TIP3   OH282231   2.531   6.004   5.901
20247TIP3    H182232   2.505   5.965   5.985
20247TIP3    H282233   2.624   6.023   5.911
20248TIP3   OH282234   2.826   7.196   5.551
20248TIP3    H182235   2.794   7.211   5.640
20248TIP3    H282236   2.881   7.118   5.558
20249TIP3   OH282237   3.381   7.165   5.614
20249TIP3    H182238   3.441   7.123   5.675
20249TIP3    H282239   3.438   7.202   5.546
20250TIP3   OH282240   2.972   6.969   5.594
20250TIP3    H182241   2.924   6.955   5.676
20250TIP3    H282242   2.988   6.880   5.561
20251TIP3   OH282243   2.594   6.629   5.950
20251TIP3    H182244   2.514   6.583   5.978
20251TIP3    H282245   2.629   6.576   5.879
20252TIP3   OH282246   2.696   6.481   5.737
20252TIP3    H182247   2.670   6.511   5.650
20252TIP3    H282248   2.790   6.463   5.729
20253TIP3   OH282249   3.585   6.630   5.704
20253TIP3    H182250   3.596   6.616   5.610
20253TIP3    H282251   3.592   6.724   5.715
20254TIP3   OH282252   3.457   6.378   5.692
20254TIP3    H182253   3.505   6.458   5.714
20254TIP3    H282254   3.365   6.402   5.701
20255TIP3   OH282255   4.849   6.465   5.697
20255TIP3    H182256   4.810   6.509   5.772
20255TIP3    H282257   4.929   6.425   5.731
20256TIP3   OH282258   4.382   5.993   5.674
20256TIP3    H182259   4.369   5.903   5.705
20256TIP3    H282260   4.351   6.048   5.747
20257TIP3   OH282261   4.270   6.406   5.750
20257TIP3    H182262   4.251   6.360   5.669
20257TIP3    H282263   4.365   6.420   5.749
20258TIP3   OH282264   5.014   6.091   5.824
20258TIP3    H182265   4.948   6.064   5.887
20258TIP3    H282266   5.024   6.185   5.838
20259TIP3   OH282267   4.909   6.934   5.930
20259TIP3    H182268   4.939   7.022   5.954
20259TIP3    H282269   4.837   6.915   5.991
20260TIP3   OH282270   5.170   6.908   5.797
20260TIP3    H182271   5.184   6.873   5.886
20260TIP3    H282272   5.081   6.941   5.798
20261TIP3   OH282273   4.161   7.085   5.768
20261TIP3    H182274   4.185   7.134   5.846
20261TIP3    H282275   4.234   7.024   5.754
20262TIP3   OH282276   4.372   6.893   5.702
20262TIP3    H182277   4.426   6.886   5.781
20262TIP3    H282278   4.430   6.866   5.631
20263TIP3   OH282279   4.892   6.936   5.649
20263TIP3    H182280   4.882   6.914   5.741
20263TIP3    H282281   4.891   6.851   5.604
20264TIP3   OH282282   4.539   6.441   5.687
20264TIP3    H182283   4.534   6.500   5.611
20264TIP3    H282284   4.630   6.415   5.692
20265TIP3   OH282285   5.501   6.716   5.677
20265TIP3    H182286   5.458   6.673   5.602
20265TIP3    H282287   5.467   6.805   5.676
20266TIP3   OH282288   3.894   7.041   5.724
20266TIP3    H182289   3.984   7.056   5.754
20266TIP3    H282290   3.899   6.960   5.674
20267TIP3   OH282291   5.629   6.618   5.897
20267TIP3    H182292   5.572   6.646   5.825
20267TIP3    H282293   5.629   6.691   5.958
20268TIP3   OH282294   5.326   6.334   5.701
20268TIP3    H182295   5.404   6.378   5.735
20268TIP3    H282296   5.356   6.245   5.680
20269TIP3   OH282297   5.380   6.068   5.627
20269TIP3    H182298   5.432   6.054   5.706
20269TIP3    H282299   5.297   6.025   5.645
20270TIP3   OH282300   7.104   6.495   5.699
20270TIP3    H182301   7.074   6.553   5.629
20270TIP3    H282302   7.072   6.537   5.780
20271TIP3   OH282303   6.147   6.412   5.749
20271TIP3    H182304   6.130   6.362   5.669
20271TIP3    H282305   6.237   6.443   5.739
20272TIP3   OH282306   6.873   6.145   5.817
20272TIP3    H182307   6.814   6.208   5.858
20272TIP3    H282308   6.927   6.112   5.890
20273TIP3   OH282309   5.836   6.522   5.744
20273TIP3    H182310   5.917   6.544   5.789
20273TIP3    H282311   5.767   6.553   5.802
20274TIP3   OH282312   6.469   7.050   5.667
20274TIP3    H182313   6.464   6.963   5.625
20274TIP3    H282314   6.491   7.031   5.758
20275TIP3   OH282315   6.369   7.266   5.922
20275TIP3    H182316   6.355   7.327   5.850
20275TIP3    H282317   6.420   7.316   5.986
20276TIP3   OH282318   6.020   7.041   5.708
20276TIP3    H182319   6.087   7.109   5.706
20276TIP3    H282320   6.069   6.959   5.701
20277TIP3   OH282321   5.798   6.245   5.751
20277TIP3    H182322   5.882   6.219   5.788
20277TIP3    H282323   5.804   6.340   5.741
20278TIP3   OH282324   6.618   7.228   5.523
20278TIP3    H182325   6.570   7.167   5.579
20278TIP3    H282326   6.698   7.249   5.572
20279TIP3   OH282327   7.064   7.190   5.614
20279TIP3    H182328   7.090   7.186   5.706
20279TIP3    H282329   7.146   7.199   5.565
20280TIP3   OH282330   6.186   6.821   5.667
20280TIP3    H182331   6.209   6.776   5.749
20280TIP3    H282332   6.267   6.820   5.616
20281TIP3   OH282333   6.756   6.884   5.629
20281TIP3    H182334   6.742   6.907   5.721
20281TIP3    H282335   6.760   6.788   5.629
20282TIP3   OH282336   6.331   6.697   5.882
20282TIP3    H182337   6.350   6.649   5.962
20282TIP3    H282338   6.361   6.640   5.811
20283TIP3   OH282339   6.411   6.511   5.694
20283TIP3    H182340   6.432   6.531   5.603
20283TIP3    H282341   6.494   6.479   5.731
20284TIP3   OH282342   5.768   6.975   5.795
20284TIP3    H182343   5.857   7.009   5.782
20284TIP3    H282344   5.752   6.923   5.716
20285TIP3   OH282345   7.309   6.290   5.752
20285TIP3    H182346   7.247   6.361   5.736
20285TIP3    H282347   7.275   6.216   5.703
20286TIP3   OH282348   7.220   6.048   5.640
20286TIP3    H182349   7.237   5.986   5.710
20286TIP3    H282350   7.132   6.026   5.609
   7.34166   7.34166  16.00000
